Protein in INSANE! Membrane UpperLeaflet>POPC=1.0 LowerLeaflet>POPC=1.0
243957
    1AU     AUC    1  17.921  17.677   7.498
    1AU     AUC    2  18.194  17.695   7.318
    1AU     AUC    3  18.187  17.666   7.669
    1AU     AUC    4  17.638  17.667   7.332
    1AU     AUC    5  17.654  17.703   7.683
    1AU     AUC    6  17.750  17.954   7.496
    1AU     AUC    7  18.101  17.962   7.485
    1AU     AUC    8  17.740  17.403   7.507
    1AU     AUC    9  18.090  17.387   7.494
    1AU     AUC   10  17.927  17.499   7.773
    1AU     AUC   11  17.917  17.865   7.761
    1AU     AUC   12  17.918  17.511   7.221
    1AU     AUC   13  17.930  17.834   7.218
    1AU     AUC   14  18.506  17.708   7.150
    1AU     AUC   15  18.523  17.658   7.508
    1AU     AUC   16  18.477  17.642   7.859
    1AU     AUC   17  17.339  17.649   7.163
    1AU     AUC   18  17.317  17.691   7.528
    1AU     AUC   19  17.372  17.728   7.871
    1AU     AUC   20  17.582  18.255   7.479
    1AU     AUC   21  17.947  18.298   7.456
    1AU     AUC   22  18.280  18.250   7.479
    1AU     AUC   23  17.550  17.124   7.516
    1AU     AUC   24  17.900  17.073   7.490
    1AU     AUC   25  18.261  17.089   7.475
    1AU     AUC   26  17.914  17.320   8.065
    1AU     AUC   27  17.925  17.686   8.095
    1AU     AUC   28  17.943  18.042   8.056
    1AU     AUC   29  17.947  17.339   6.943
    1AU     AUC   30  17.925  17.674   6.884
    1AU     AUC   31  17.906  18.002   6.917
    1AU     AUC   32  18.196  17.455   7.988
    1AU     AUC   33  18.233  17.837   7.982
    1AU     AUC   34  18.251  17.547   6.988
    1AU     AUC   35  18.232  17.870   7.022
    1AU     AUC   36  17.626  17.545   8.017
    1AU     AUC   37  17.641  17.922   7.993
    1AU     AUC   38  17.620  17.478   7.041
    1AU     AUC   39  17.596  17.804   6.992
    1AU     AUC   40  18.444  17.976   7.337
    1AU     AUC   41  18.395  17.943   7.685
    1AU     AUC   42  17.437  17.963   7.309
    1AU     AUC   43  17.446  18.010   7.675
    1AU     AUC   44  18.400  17.382   7.320
    1AU     AUC   45  18.371  17.329   7.679
    1AU     AUC   46  17.409  17.362   7.367
    1AU     AUC   47  17.460  17.414   7.722
    1AU     AUC   48  17.764  18.197   7.765
    1AU     AUC   49  18.114  18.162   7.771
    1AU     AUC   50  17.739  17.196   7.806
    1AU     AUC   51  18.057  17.148   7.771
    1AU     AUC   52  17.739  18.115   7.182
    1AU     AUC   53  18.110  18.167   7.194
    1AU     AUC   54  17.735  17.199   7.207
    1AU     AUC   55  18.128  17.226   7.197
    1AU    AUSL   56  18.457  17.574   8.227
    1AU    AUSL   57  18.193  17.165   8.146
    1AU     AUL   58  18.474  17.172   8.378
    1AU       S   59  18.587  16.834   8.095
    1AU     LIG   60  18.490  16.650   8.472
    1AU     LIG   61  18.622  16.333   8.764
    1AU     LIG   62  18.887  16.071   9.025
    1AU     LIG   63  19.162  16.054   9.395
    1AU       S   64  18.680  17.573   8.346
    1AU     LIG   65  18.520  17.566   8.789
    1AU     LIG   66  18.661  17.573   9.229
    1AU     LIG   67  18.951  17.403   9.556
    1AU     LIG   68  19.297  17.398   9.870
    1AU    AUSL   69  18.058  17.492   8.394
    1AU    AUSL   70  17.801  17.870   8.420
    1AU     AUL   71  18.008  17.805   8.736
    1AU       S   72  18.123  17.421   8.530
    1AU     LIG   73  18.029  17.328   8.926
    1AU     LIG   74  18.284  17.222   9.302
    1AU     LIG   75  18.502  17.181   9.720
    1AU     LIG   76  18.513  17.092  10.191
    1AU       S   77  17.612  17.601   8.639
    1AU     LIG   78  17.651  17.649   9.100
    1AU     LIG   79  17.378  17.636   9.485
    1AU     LIG   80  17.082  17.706   9.845
    1AU     LIG   81  16.957  17.840  10.275
    1AU    AUSL   82  18.122  17.864   8.156
    1AU    AUSL   83  18.562  17.967   8.091
    1AU     AUL   84  18.353  17.880   8.437
    1AU       S   85  18.009  18.256   8.570
    1AU     LIG   86  18.364  18.145   8.866
    1AU     LIG   87  18.652  18.266   9.218
    1AU     LIG   88  18.677  18.352   9.682
    1AU     LIG   89  18.542  18.437  10.133
    1AU       S   90  18.725  18.105   8.267
    1AU     LIG   91  19.128  18.070   8.375
    1AU     LIG   92  19.363  18.322   8.689
    1AU     LIG   93  19.547  18.631   8.980
    1AU     LIG   94  19.668  18.901   9.327
    1AU    AUSL   95  18.448  17.828   6.758
    1AU    AUSL   96  18.220  18.144   6.956
    1AU     AUL   97  18.363  18.199   6.618
    1AU       S   98  18.404  17.876   6.300
    1AU     LIG   99  18.785  17.733   6.123
    1AU     LIG  100  18.840  17.473   5.770
    1AU     LIG  101  18.909  17.447   5.324
    1AU     LIG  102  19.123  17.389   4.919
    1AU       S  103  18.697  18.410   6.883
    1AU     LIG  104  18.689  18.591   6.472
    1AU     LIG  105  18.860  18.822   6.089
    1AU     LIG  106  19.118  19.156   5.869
    1AU     LIG  107  19.319  19.326   5.474
    1AU    AUSL  108  18.227  17.496   6.598
    1AU    AUSL  109  18.603  17.464   6.920
    1AU     AUL  110  18.638  17.595   6.603
    1AU       S  111  18.769  17.158   6.698
    1AU     LIG  112  18.881  16.849   6.362
    1AU     LIG  113  19.113  16.462   6.277
    1AU     LIG  114  19.379  16.142   6.091
    1AU     LIG  115  19.582  16.112   5.691
    1AU       S  116  18.310  17.734   6.296
    1AU     LIG  117  18.411  17.361   6.104
    1AU     LIG  118  18.411  17.215   5.647
    1AU     LIG  119  18.460  17.257   5.170
    1AU     LIG  120  18.629  17.331   4.729
    1AU    AUSL  121  18.025  17.873   6.685
    1AU    AUSL  122  17.818  17.468   6.731
    1AU     AUL  123  17.952  17.492   6.432
    1AU       S  124  17.506  17.486   6.302
    1AU     LIG  125  17.583  17.256   5.949
    1AU     LIG  126  17.322  17.102   5.605
    1AU     LIG  127  17.108  17.166   5.195
    1AU     LIG  128  17.076  16.911   4.792
    1AU       S  129  18.065  17.942   6.351
    1AU     LIG  130  18.136  17.764   5.850
    1AU     LIG  131  18.445  17.699   5.470
    1AU     LIG  132  18.614  17.755   5.024
    1AU     LIG  133  18.689  18.066   4.667
    1AU    AUSL  134  17.398  17.804   8.261
    1AU    AUSL  135  17.663  18.173   8.156
    1AU     AUL  136  17.539  18.084   8.498
    1AU       S  137  17.401  17.652   8.659
    1AU     LIG  138  17.147  17.539   9.002
    1AU     LIG  139  16.888  17.488   9.386
    1AU     LIG  140  16.629  17.471   9.769
    1AU     LIG  141  16.489  17.647  10.188
    1AU       S  142  17.299  18.382   8.222
    1AU     LIG  143  17.405  18.602   8.551
    1AU     LIG  144  17.263  18.722   8.963
    1AU     LIG  145  16.935  18.912   9.221
    1AU     LIG  146  16.582  19.176   9.381
    1AU    AUSL  147  17.705  17.529   8.164
    1AU    AUSL  148  17.294  17.389   8.145
    1AU     AUL  149  17.174  17.623   8.262
    1AU       S  150  17.221  17.178   8.414
    1AU     LIG  151  16.780  17.099   8.251
    1AU     LIG  152  16.540  16.707   8.343
    1AU     LIG  153  16.375  16.354   8.605
    1AU     LIG  154  16.173  16.267   9.016
    1AU       S  155  17.596  17.468   8.552
    1AU     LIG  156  17.516  17.187   8.918
    1AU     LIG  157  17.301  17.153   9.329
    1AU     LIG  158  17.099  17.197   9.758
    1AU     LIG  159  16.845  17.230  10.163
    1AU    AUSL  160  17.394  17.527   6.778
    1AU    AUSL  161  17.602  17.177   6.948
    1AU     AUL  162  17.646  17.173   6.618
    1AU       S  163  17.313  17.393   6.385
    1AU     LIG  164  17.068  17.224   6.059
    1AU     LIG  165  16.883  17.369   5.645
    1AU     LIG  166  16.616  17.384   5.250
    1AU     LIG  167  16.226  17.377   4.963
    1AU       S  168  17.232  17.059   6.787
    1AU     LIG  169  17.249  16.834   6.442
    1AU     LIG  170  16.902  16.591   6.244
    1AU     LIG  171  16.685  16.270   5.974
    1AU     LIG  172  16.611  16.139   5.517
    1AU    AUSL  173  17.616  17.844   6.594
    1AU    AUSL  174  17.262  17.922   6.901
    1AU     AUL  175  17.181  17.759   6.620
    1AU       S  176  17.293  18.197   6.650
    1AU     LIG  177  16.884  18.225   6.608
    1AU     LIG  178  16.683  18.461   6.251
    1AU     LIG  179  16.497  18.669   5.874
    1AU     LIG  180  16.259  18.726   5.472
    1AU       S  181  17.554  17.752   6.326
    1AU     LIG  182  17.289  17.686   5.905
    1AU     LIG  183  17.313  17.595   5.437
    1AU     LIG  184  17.418  17.691   4.973
    1AU     LIG  185  17.420  17.969   4.576
    1AU    AUSL  186  18.711  18.172   7.511
    1AU    AUSL  187  18.611  18.000   7.109
    1AU     AUL  188  18.974  18.281   7.285
    1AU       S  189  18.712  18.171   6.936
    1AU     LIG  190  18.851  18.082   6.519
    1AU     LIG  191  19.109  18.378   6.257
    1AU     LIG  192  19.368  18.715   6.056
    1AU     LIG  193  19.616  19.006   5.778
    1AU       S  194  19.104  18.031   7.667
    1AU     LIG  195  19.497  18.185   7.474
    1AU     LIG  196  19.976  18.286   7.461
    1AU     LIG  197  20.435  18.434   7.549
    1AU     LIG  198  20.630  18.699   7.889
    1AU    AUSL  199  18.878  17.772   7.347
    1AU    AUSL  200  18.839  17.438   7.688
    1AU     AUL  201  19.196  17.509   7.588
    1AU       S  202  19.000  17.835   7.365
    1AU     LIG  203  19.421  17.767   7.193
    1AU     LIG  204  19.878  17.921   7.105
    1AU     LIG  205  20.342  18.064   7.168
    1AU     LIG  206  20.762  18.330   7.156
    1AU       S  207  19.078  17.048   7.672
    1AU     LIG  208  19.533  17.048   7.699
    1AU     LIG  209  19.928  16.859   7.602
    1AU     LIG  210  20.365  16.810   7.725
    1AU     LIG  211  20.618  16.722   8.101
    1AU    AUSL  212  18.629  17.803   7.714
    1AU    AUSL  213  18.377  18.199   7.773
    1AU     AUL  214  18.709  18.240   7.818
    1AU       S  215  18.698  18.413   8.241
    1AU     LIG  216  19.067  18.592   8.359
    1AU     LIG  217  19.257  18.889   8.633
    1AU     LIG  218  19.512  19.232   8.772
    1AU     LIG  219  19.486  19.701   8.684
    1AU       S  220  18.964  17.858   7.826
    1AU     LIG  221  19.390  17.796   7.996
    1AU     LIG  222  19.778  17.980   7.849
    1AU     LIG  223  20.202  18.153   7.906
    1AU     LIG  224  20.642  18.196   8.020
    1AU    AUSL  225  17.253  18.223   7.513
    1AU    AUSL  226  17.334  18.018   7.908
    1AU     AUL  227  17.026  18.331   7.766
    1AU       S  228  17.157  18.188   8.186
    1AU     LIG  229  17.058  18.217   8.640
    1AU     LIG  230  16.810  18.465   8.957
    1AU     LIG  231  16.459  18.721   9.139
    1AU     LIG  232  16.156  18.879   9.467
    1AU       S  233  17.244  18.613   7.443
    1AU     LIG  234  16.778  18.519   7.356
    1AU     LIG  235  16.327  18.706   7.407
    1AU     LIG  236  15.940  19.001   7.307
    1AU     LIG  237  15.633  19.403   7.333
    1AU    AUSL  238  17.208  17.843   7.306
    1AU    AUSL  239  17.339  18.299   7.109
    1AU     AUL  240  17.043  18.145   7.152
    1AU       S  241  16.870  17.672   6.984
    1AU     LIG  242  16.562  18.057   7.041
    1AU     LIG  243  16.156  18.313   7.129
    1AU     LIG  244  15.718  18.536   7.095
    1AU     LIG  245  15.266  18.555   6.886
    1AU       S  246  17.139  18.555   6.911
    1AU     LIG  247  17.052  18.730   6.488
    1AU     LIG  248  16.786  19.001   6.179
    1AU     LIG  249  16.653  19.411   5.943
    1AU     LIG  250  16.520  19.881   5.928
    1AU    AUSL  251  17.006  17.880   7.695
    1AU    AUSL  252  16.976  17.511   7.414
    1AU     AUL  253  16.819  17.842   7.422
    1AU       S  254  16.773  17.436   7.684
    1AU     LIG  255  16.469  17.483   7.354
    1AU     LIG  256  16.037  17.319   7.322
    1AU     LIG  257  15.593  17.140   7.316
    1AU     LIG  258  15.162  16.942   7.301
    1AU       S  259  16.846  17.909   7.917
    1AU     LIG  260  16.521  18.178   7.667
    1AU     LIG  261  16.047  18.342   7.660
    1AU     LIG  262  15.581  18.388   7.831
    1AU     LIG  263  15.138  18.618   7.831
    1AU    AUSL  264  18.611  17.105   7.531
    1AU    AUSL  265  18.463  17.357   7.870
    1AU     AUL  266  18.772  17.267   7.944
    1AU       S  267  18.815  16.946   7.504
    1AU     LIG  268  19.206  16.615   7.400
    1AU     LIG  269  19.671  16.566   7.280
    1AU     LIG  270  20.127  16.431   7.423
    1AU     LIG  271  20.331  16.315   7.845
    1AU       S  272  18.693  16.818   7.956
    1AU     LIG  273  18.972  16.581   8.271
    1AU     LIG  274  19.128  16.345   8.639
    1AU     LIG  275  19.392  16.065   8.916
    1AU     LIG  276  19.674  16.041   9.296
    1AU    AUSL  277  18.580  17.485   7.336
    1AU    AUSL  278  18.543  17.078   7.115
    1AU     AUL  279  18.825  17.314   7.171
    1AU       S  280  19.071  17.072   7.452
    1AU     LIG  281  19.445  17.058   7.192
    1AU     LIG  282  19.912  17.017   7.130
    1AU     LIG  283  20.355  16.949   7.228
    1AU     LIG  284  20.801  16.903   7.271
    1AU       S  285  18.750  16.950   6.860
    1AU     LIG  286  18.844  16.486   6.737
    1AU     LIG  287  18.982  16.042   6.538
    1AU     LIG  288  19.194  15.694   6.261
    1AU     LIG  289  19.558  15.622   5.963
    1AU    AUSL  290  17.182  17.152   7.570
    1AU    AUSL  291  17.282  17.385   7.157
    1AU     AUL  292  16.934  17.210   7.289
    1AU       S  293  17.090  17.190   6.857
    1AU     LIG  294  16.803  17.075   6.517
    1AU     LIG  295  16.468  16.758   6.474
    1AU     LIG  296  16.267  16.429   6.227
    1AU     LIG  297  16.185  16.300   5.788
    1AU       S  298  16.758  17.195   7.730
    1AU     LIG  299  16.424  16.993   7.500
    1AU     LIG  300  15.980  16.822   7.477
    1AU     LIG  301  15.533  16.668   7.543
    1AU     LIG  302  15.119  16.436   7.482
    1AU    AUSL  303  17.239  17.537   7.759
    1AU    AUSL  304  17.505  17.166   7.847
    1AU     AUL  305  17.172  17.127   7.920
    1AU       S  306  17.242  16.963   8.352
    1AU     LIG  307  17.020  16.626   8.148
    1AU     LIG  308  16.714  16.237   8.195
    1AU     LIG  309  16.488  15.874   8.430
    1AU     LIG  310  16.194  15.806   8.786
    1AU       S  311  16.832  17.439   7.869
    1AU     LIG  312  16.297  17.370   7.838
    1AU     LIG  313  15.818  17.208   7.785
    1AU     LIG  314  15.324  17.089   7.768
    1AU     LIG  315  14.883  16.846   7.735
    1AU    AUSL  316  17.954  18.357   7.904
    1AU    AUSL  317  17.511  18.390   7.810
    1AU     AUL  318  17.762  18.485   8.178
    1AU       S  319  17.387  18.593   7.924
    1AU     LIG  320  17.031  18.781   8.169
    1AU     LIG  321  16.898  18.840   8.610
    1AU     LIG  322  16.634  19.129   8.861
    1AU     LIG  323  16.487  19.545   9.021
    1AU       S  324  17.992  18.826   7.965
    1AU     LIG  325  18.178  18.820   8.333
    1AU     LIG  326  18.310  19.242   8.449
    1AU     LIG  327  18.395  19.651   8.629
    1AU     LIG  328  18.304  20.006   8.909
    1AU    AUSL  329  17.786  18.613   7.595
    1AU    AUSL  330  18.062  18.579   7.230
    1AU     AUL  331  17.718  18.825   7.360
    1AU       S  332  17.849  18.841   7.813
    1AU     LIG  333  18.008  19.306   7.992
    1AU     LIG  334  18.118  19.717   8.186
    1AU     LIG  335  17.995  20.192   8.173
    1AU     LIG  336  17.731  20.585   7.994
    1AU       S  337  17.999  18.884   7.003
    1AU     LIG  338  18.365  19.018   7.123
    1AU     LIG  339  18.513  19.453   7.046
    1AU     LIG  340  18.635  19.810   6.769
    1AU     LIG  341  18.667  20.257   6.626
    1AU    AUSL  342  18.224  18.558   7.624
    1AU    AUSL  343  18.247  18.263   8.185
    1AU     AUL  344  18.335  18.520   7.958
    1AU       S  345  18.475  18.347   8.392
    1AU     LIG  346  18.821  18.316   8.723
    1AU     LIG  347  19.033  18.595   8.999
    1AU     LIG  348  19.195  19.010   9.138
    1AU     LIG  349  19.133  19.399   9.401
    1AU       S  350  18.182  18.866   7.656
    1AU     LIG  351  18.469  19.078   7.968
    1AU     LIG  352  18.632  19.512   8.145
    1AU     LIG  353  18.566  19.966   8.256
    1AU     LIG  354  18.810  20.354   8.260
    1AU    AUSL  355  17.883  16.949   7.937
    1AU    AUSL  356  18.290  16.973   7.770
    1AU     AUL  357  18.124  16.846   8.162
    1AU       S  358  17.873  16.497   7.990
    1AU     LIG  359  17.721  16.222   8.302
    1AU     LIG  360  17.643  15.769   8.344
    1AU     LIG  361  17.655  15.300   8.325
    1AU     LIG  362  17.766  14.856   8.388
    1AU       S  363  18.447  16.761   7.819
    1AU     LIG  364  18.422  16.364   8.047
    1AU     LIG  365  18.741  16.120   8.314
    1AU     LIG  366  19.031  15.842   8.578
    1AU     LIG  367  19.258  15.459   8.726
    1AU    AUSL  368  17.568  16.804   7.654
    1AU    AUSL  369  17.679  17.127   8.253
    1AU     AUL  370  17.542  16.835   8.019
    1AU       S  371  17.683  16.423   7.832
    1AU     LIG  372  17.545  15.987   7.867
    1AU     LIG  373  17.425  15.543   7.922
    1AU     LIG  374  17.356  15.090   7.962
    1AU     LIG  375  17.256  14.787   8.288
    1AU       S  376  17.508  17.004   8.458
    1AU     LIG  377  17.345  16.533   8.549
    1AU     LIG  378  16.907  16.344   8.656
    1AU     LIG  379  16.639  16.031   8.918
    1AU     LIG  380  16.363  15.852   9.273
    1AU    AUSL  381  17.999  16.724   7.593
    1AU    AUSL  382  17.767  16.968   7.312
    1AU     AUL  383  17.653  16.621   7.412
    1AU       S  384  18.004  16.528   7.142
    1AU     LIG  385  17.589  16.269   7.074
    1AU     LIG  386  17.449  15.818   7.061
    1AU     LIG  387  17.446  15.343   6.996
    1AU     LIG  388  17.322  14.895   6.868
    1AU       S  389  18.012  16.507   7.732
    1AU     LIG  390  18.051  16.041   7.866
    1AU     LIG  391  17.948  15.576   7.960
    1AU     LIG  392  18.095  15.128   8.086
    1AU     LIG  393  18.282  14.829   8.420
    1AU    AUSL  394  17.899  18.398   6.864
    1AU    AUSL  395  18.417  18.356   7.272
    1AU     AUL  396  18.245  18.512   6.930
    1AU       S  397  17.880  18.672   6.678
    1AU     LIG  398  18.303  18.915   6.608
    1AU     LIG  399  18.471  19.361   6.537
    1AU     LIG  400  18.376  19.783   6.319
    1AU     LIG  401  18.228  19.978   5.904
    1AU       S  402  18.615  18.549   7.189
    1AU     LIG  403  18.803  18.896   6.878
    1AU     LIG  404  19.121  18.945   6.509
    1AU     LIG  405  19.469  19.175   6.265
    1AU     LIG  406  19.941  19.239   6.197
    1AU    AUSL  407  17.713  18.346   7.285
    1AU    AUSL  408  17.667  18.066   6.945
    1AU     AUL  409  17.587  18.501   7.020
    1AU       S  410  17.821  18.874   6.899
    1AU     LIG  411  18.028  19.324   6.803
    1AU     LIG  412  18.135  19.767   6.786
    1AU     LIG  413  18.109  20.233   6.704
    1AU     LIG  414  17.807  20.612   6.777
    1AU       S  415  17.460  18.302   6.626
    1AU     LIG  416  17.223  18.349   6.189
    1AU     LIG  417  17.019  18.649   5.886
    1AU     LIG  418  16.813  19.012   5.640
    1AU     LIG  419  16.769  19.439   5.414
    1AU    AUSL  420  17.951  16.938   6.917
    1AU    AUSL  421  17.356  16.959   7.235
    1AU     AUL  422  17.614  16.807   6.978
    1AU       S  423  17.154  16.911   6.999
    1AU     LIG  424  16.882  16.624   6.771
    1AU     LIG  425  16.636  16.265   6.556
    1AU     LIG  426  16.419  15.915   6.299
    1AU     LIG  427  16.202  15.482   6.205
    1AU       S  428  18.006  16.527   6.923
    1AU     LIG  429  17.963  16.045   6.821
    1AU     LIG  430  17.747  15.631   6.676
    1AU     LIG  431  17.584  15.211   6.516
    1AU     LIG  432  17.619  14.987   6.119
    1AU    AUSL  433  18.194  16.946   7.297
    1AU    AUSL  434  18.198  17.274   6.948
    1AU     AUL  435  18.292  16.895   6.934
    1AU       S  436  18.235  16.539   7.233
    1AU     LIG  437  18.003  16.082   7.342
    1AU     LIG  438  17.911  15.614   7.168
    1AU     LIG  439  17.923  15.182   6.911
    1AU     LIG  440  18.181  14.808   6.749
    1AU       S  441  18.507  17.116   6.599
    1AU     LIG  442  18.415  16.678   6.505
    1AU     LIG  443  18.613  16.324   6.290
    1AU     LIG  444  18.877  16.047   6.020
    1AU     LIG  445  19.152  15.816   5.718
    2AU     AUC  446   6.320   3.921   7.500
    2AU     AUC  447   6.594   3.937   7.319
    2AU     AUC  448   6.586   3.915   7.669
    2AU     AUC  449   6.036   3.908   7.335
    2AU     AUC  450   6.053   3.950   7.686
    2AU     AUC  451   6.147   4.197   7.496
    2AU     AUC  452   6.499   4.207   7.482
    2AU     AUC  453   6.139   3.647   7.511
    2AU     AUC  454   6.489   3.631   7.498
    2AU     AUC  455   6.326   3.746   7.777
    2AU     AUC  456   6.316   4.114   7.760
    2AU     AUC  457   6.317   3.752   7.224
    2AU     AUC  458   6.329   4.075   7.218
    2AU     AUC  459   6.904   3.950   7.151
    2AU     AUC  460   6.923   3.904   7.510
    2AU     AUC  461   6.876   3.892   7.860
    2AU     AUC  462   5.736   3.889   7.167
    2AU     AUC  463   5.717   3.935   7.533
    2AU     AUC  464   5.773   3.976   7.876
    2AU     AUC  465   5.978   4.498   7.478
    2AU     AUC  466   6.342   4.542   7.448
    2AU     AUC  467   6.676   4.495   7.472
    2AU     AUC  468   5.949   3.369   7.522
    2AU     AUC  469   6.299   3.317   7.495
    2AU     AUC  470   6.660   3.332   7.482
    2AU     AUC  471   6.315   3.570   8.069
    2AU     AUC  472   6.326   3.938   8.096
    2AU     AUC  473   6.344   4.294   8.052
    2AU     AUC  474   6.346   3.578   6.948
    2AU     AUC  475   6.324   3.912   6.886
    2AU     AUC  476   6.301   4.238   6.913
    2AU     AUC  477   6.595   3.706   7.991
    2AU     AUC  478   6.633   4.090   7.979
    2AU     AUC  479   6.650   3.788   6.992
    2AU     AUC  480   6.629   4.110   7.020
    2AU     AUC  481   6.027   3.794   8.020
    2AU     AUC  482   6.042   4.172   7.993
    2AU     AUC  483   6.019   3.718   7.044
    2AU     AUC  484   5.992   4.040   6.993
    2AU     AUC  485   6.841   4.219   7.333
    2AU     AUC  486   6.793   4.192   7.682
    2AU     AUC  487   5.832   4.203   7.313
    2AU     AUC  488   5.845   4.258   7.678
    2AU     AUC  489   6.799   3.625   7.328
    2AU     AUC  490   6.768   3.574   7.685
    2AU     AUC  491   5.808   3.604   7.372
    2AU     AUC  492   5.860   3.660   7.727
    2AU     AUC  493   6.161   4.446   7.760
    2AU     AUC  494   6.512   4.412   7.765
    2AU     AUC  495   6.138   3.443   7.811
    2AU     AUC  496   6.455   3.394   7.776
    2AU     AUC  497   6.135   4.351   7.180
    2AU     AUC  498   6.505   4.406   7.188
    2AU     AUC  499   6.134   3.440   7.212
    2AU     AUC  500   6.528   3.468   7.203
    2AU    AUSL  501   6.860   3.830   8.226
    2AU    AUSL  502   6.588   3.414   8.153
    2AU     AUL  503   6.877   3.429   8.373
    2AU       S  504   6.980   3.073   8.107
    2AU     LIG  505   6.883   2.918   8.488
    2AU     LIG  506   7.040   2.583   8.738
    2AU     LIG  507   7.321   2.276   8.944
    2AU     LIG  508   7.529   2.212   9.360
    2AU       S  509   7.083   3.831   8.350
    2AU     LIG  510   6.929   3.817   8.792
    2AU     LIG  511   7.076   3.723   9.232
    2AU     LIG  512   7.367   3.573   9.577
    2AU     LIG  513   7.747   3.515   9.860
    2AU    AUSL  514   6.463   3.748   8.396
    2AU    AUSL  515   6.205   4.126   8.420
    2AU     AUL  516   6.410   4.066   8.735
    2AU       S  517   6.531   3.680   8.534
    2AU     LIG  518   6.431   3.596   8.932
    2AU     LIG  519   6.675   3.398   9.270
    2AU     LIG  520   6.941   3.267   9.635
    2AU     LIG  521   6.986   3.024  10.045
    2AU       S  522   6.016   3.856   8.646
    2AU     LIG  523   5.998   3.897   9.117
    2AU     LIG  524   5.702   3.947   9.496
    2AU     LIG  525   5.564   3.977   9.953
    2AU     LIG  526   5.548   4.170  10.382
    2AU    AUSL  527   6.524   4.117   8.153
    2AU    AUSL  528   6.962   4.222   8.085
    2AU     AUL  529   6.754   4.137   8.435
    2AU       S  530   6.409   4.516   8.562
    2AU     LIG  531   6.760   4.424   8.862
    2AU     LIG  532   7.005   4.605   9.234
    2AU     LIG  533   6.957   4.798   9.691
    2AU     LIG  534   6.941   4.904  10.167
    2AU       S  535   7.127   4.357   8.260
    2AU     LIG  536   7.550   4.409   8.260
    2AU     LIG  537   7.792   4.601   8.623
    2AU     LIG  538   8.015   4.825   8.979
    2AU     LIG  539   8.223   5.104   9.301
    2AU    AUSL  540   6.844   4.066   6.756
    2AU    AUSL  541   6.614   4.383   6.950
    2AU     AUL  542   6.754   4.438   6.609
    2AU       S  543   6.797   4.099   6.306
    2AU     LIG  544   7.197   3.972   6.127
    2AU     LIG  545   7.324   3.662   5.826
    2AU     LIG  546   7.359   3.570   5.381
    2AU     LIG  547   7.549   3.676   4.970
    2AU       S  548   7.079   4.647   6.873
    2AU     LIG  549   7.136   4.845   6.494
    2AU     LIG  550   7.314   5.028   6.100
    2AU     LIG  551   7.490   5.108   5.664
    2AU     LIG  552   7.716   5.302   5.288
    2AU    AUSL  553   6.626   3.729   6.601
    2AU    AUSL  554   7.004   3.708   6.928
    2AU     AUL  555   7.046   3.842   6.618
    2AU       S  556   7.172   3.404   6.708
    2AU     LIG  557   7.290   3.113   6.354
    2AU     LIG  558   7.567   2.743   6.267
    2AU     LIG  559   7.876   2.446   6.053
    2AU     LIG  560   8.149   2.236   5.714
    2AU       S  561   6.728   3.916   6.285
    2AU     LIG  562   6.879   3.552   6.089
    2AU     LIG  563   6.947   3.346   5.652
    2AU     LIG  564   6.964   3.309   5.175
    2AU     LIG  565   7.167   3.407   4.762
    2AU    AUSL  566   6.422   4.109   6.679
    2AU    AUSL  567   6.218   3.706   6.736
    2AU     AUL  568   6.346   3.730   6.439
    2AU       S  569   5.908   3.723   6.297
    2AU     LIG  570   5.927   3.508   5.909
    2AU     LIG  571   5.719   3.291   5.572
    2AU     LIG  572   5.539   3.292   5.152
    2AU     LIG  573   5.438   3.391   4.711
    2AU       S  574   6.476   4.167   6.337
    2AU     LIG  575   6.580   4.030   5.841
    2AU     LIG  576   6.919   3.852   5.535
    2AU     LIG  577   7.033   3.821   5.062
    2AU     LIG  578   6.921   3.841   4.587
    2AU    AUSL  579   5.801   4.056   8.264
    2AU    AUSL  580   6.067   4.426   8.152
    2AU     AUL  581   5.945   4.345   8.490
    2AU       S  582   5.815   3.917   8.655
    2AU     LIG  583   5.520   3.701   8.856
    2AU     LIG  584   5.323   3.670   9.268
    2AU     LIG  585   5.166   3.832   9.664
    2AU     LIG  586   4.943   3.830  10.067
    2AU       S  587   5.694   4.655   8.224
    2AU     LIG  588   5.866   4.870   8.558
    2AU     LIG  589   5.668   5.194   8.814
    2AU     LIG  590   5.420   5.248   9.207
    2AU     LIG  591   5.216   5.315   9.623
    2AU    AUSL  592   6.107   3.780   8.169
    2AU    AUSL  593   5.696   3.640   8.151
    2AU     AUL  594   5.575   3.872   8.268
    2AU       S  595   5.629   3.429   8.423
    2AU     LIG  596   5.192   3.380   8.273
    2AU     LIG  597   4.956   2.998   8.355
    2AU     LIG  598   4.758   2.667   8.606
    2AU     LIG  599   4.505   2.353   8.843
    2AU       S  600   6.002   3.722   8.555
    2AU     LIG  601   5.944   3.430   8.915
    2AU     LIG  602   5.789   3.456   9.331
    2AU     LIG  603   5.561   3.501   9.729
    2AU     LIG  604   5.430   3.439  10.170
    2AU    AUSL  605   5.791   3.762   6.778
    2AU    AUSL  606   5.999   3.416   6.953
    2AU     AUL  607   6.044   3.409   6.622
    2AU       S  608   5.735   3.648   6.381
    2AU     LIG  609   5.435   3.534   6.102
    2AU     LIG  610   5.312   3.587   5.671
    2AU     LIG  611   5.222   3.698   5.233
    2AU     LIG  612   4.834   3.872   5.025
    2AU       S  613   5.628   3.301   6.791
    2AU     LIG  614   5.673   2.961   6.553
    2AU     LIG  615   5.320   2.703   6.384
    2AU     LIG  616   4.954   2.463   6.209
    2AU     LIG  617   4.825   2.207   5.844
    2AU    AUSL  618   6.012   4.078   6.595
    2AU    AUSL  619   5.654   4.154   6.905
    2AU     AUL  620   5.573   3.988   6.630
    2AU       S  621   5.682   4.430   6.637
    2AU     LIG  622   5.318   4.567   6.481
    2AU     LIG  623   5.135   4.860   6.175
    2AU     LIG  624   4.901   4.962   5.776
    2AU     LIG  625   4.502   4.934   5.506
    2AU       S  626   5.954   4.004   6.341
    2AU     LIG  627   5.697   3.966   5.917
    2AU     LIG  628   5.722   3.800   5.459
    2AU     LIG  629   5.698   3.761   4.983
    2AU     LIG  630   5.829   3.802   4.520
    2AU    AUSL  631   7.109   4.419   7.504
    2AU    AUSL  632   7.008   4.241   7.105
    2AU     AUL  633   7.367   4.536   7.272
    2AU       S  634   7.106   4.412   6.928
    2AU     LIG  635   7.250   4.325   6.516
    2AU     LIG  636   7.556   4.605   6.289
    2AU     LIG  637   7.819   4.923   6.049
    2AU     LIG  638   8.016   5.044   5.639
    2AU       S  639   7.505   4.292   7.658
    2AU     LIG  640   7.931   4.503   7.679
    2AU     LIG  641   8.395   4.650   7.649
    2AU     LIG  642   8.776   4.862   7.849
    2AU     LIG  643   9.183   5.050   7.706
    2AU    AUSL  644   7.276   4.018   7.344
    2AU    AUSL  645   7.234   3.684   7.699
    2AU     AUL  646   7.568   3.732   7.565
    2AU       S  647   7.426   4.102   7.376
    2AU     LIG  648   7.908   4.082   7.394
    2AU     LIG  649   8.374   4.228   7.322
    2AU     LIG  650   8.786   4.297   7.090
    2AU     LIG  651   9.229   4.483   7.020
    2AU       S  652   7.469   3.284   7.690
    2AU     LIG  653   7.896   3.256   7.827
    2AU     LIG  654   8.348   3.140   7.748
    2AU     LIG  655   8.818   3.118   7.795
    2AU     LIG  656   9.284   3.037   7.946
    2AU    AUSL  657   7.029   4.053   7.711
    2AU    AUSL  658   6.775   4.453   7.766
    2AU     AUL  659   7.108   4.488   7.812
    2AU       S  660   7.096   4.674   8.230
    2AU     LIG  661   7.433   4.907   8.406
    2AU     LIG  662   7.733   5.131   8.673
    2AU     LIG  663   8.065   5.363   8.887
    2AU     LIG  664   8.452   5.644   8.894
    2AU       S  665   7.376   4.110   7.816
    2AU     LIG  666   7.838   4.036   7.920
    2AU     LIG  667   8.293   4.140   7.818
    2AU     LIG  668   8.747   4.283   7.725
    2AU     LIG  669   9.166   4.487   7.842
    2AU    AUSL  670   5.651   4.468   7.515
    2AU    AUSL  671   5.733   4.272   7.914
    2AU     AUL  672   5.426   4.578   7.766
    2AU       S  673   5.562   4.442   8.187
    2AU     LIG  674   5.484   4.477   8.649
    2AU     LIG  675   5.340   4.774   8.993
    2AU     LIG  676   5.033   4.899   9.348
    2AU     LIG  677   4.605   5.004   9.534
    2AU       S  678   5.647   4.857   7.440
    2AU     LIG  679   5.173   4.767   7.362
    2AU     LIG  680   4.729   5.000   7.374
    2AU     LIG  681   4.400   5.393   7.374
    2AU     LIG  682   3.944   5.583   7.339
    2AU    AUSL  683   5.609   4.086   7.313
    2AU    AUSL  684   5.731   4.532   7.108
    2AU     AUL  685   5.436   4.384   7.155
    2AU       S  686   5.257   3.918   6.996
    2AU     LIG  687   4.918   4.277   7.106
    2AU     LIG  688   4.481   4.490   7.192
    2AU     LIG  689   4.034   4.710   7.187
    2AU     LIG  690   3.578   4.850   7.022
    2AU       S  691   5.532   4.786   6.904
    2AU     LIG  692   5.471   5.062   6.539
    2AU     LIG  693   5.229   5.372   6.277
    2AU     LIG  694   5.022   5.806   6.261
    2AU     LIG  695   5.056   6.247   6.120
    2AU    AUSL  696   5.407   4.125   7.703
    2AU    AUSL  697   5.376   3.754   7.420
    2AU     AUL  698   5.229   4.085   7.437
    2AU       S  699   5.171   3.679   7.690
    2AU     LIG  700   4.863   3.767   7.352
    2AU     LIG  701   4.436   3.626   7.269
    2AU     LIG  702   4.025   3.371   7.240
    2AU     LIG  703   3.553   3.399   7.174
    2AU       S  704   5.252   4.154   7.930
    2AU     LIG  705   4.909   4.387   7.675
    2AU     LIG  706   4.424   4.470   7.698
    2AU     LIG  707   3.995   4.625   7.854
    2AU     LIG  708   3.618   4.697   8.168
    2AU    AUSL  709   7.010   3.349   7.542
    2AU    AUSL  710   6.855   3.606   7.874
    2AU     AUL  711   7.164   3.514   7.953
    2AU       S  712   7.209   3.185   7.521
    2AU     LIG  713   7.606   2.827   7.547
    2AU     LIG  714   8.089   2.747   7.537
    2AU     LIG  715   8.579   2.683   7.579
    2AU     LIG  716   9.010   2.458   7.471
    2AU       S  717   7.089   3.066   7.975
    2AU     LIG  718   7.367   2.824   8.291
    2AU     LIG  719   7.554   2.647   8.668
    2AU     LIG  720   7.809   2.485   9.017
    2AU     LIG  721   8.146   2.515   9.343
    2AU    AUSL  722   6.980   3.727   7.344
    2AU    AUSL  723   6.945   3.322   7.125
    2AU     AUL  724   7.227   3.557   7.186
    2AU       S  725   7.467   3.283   7.446
    2AU     LIG  726   7.942   3.203   7.328
    2AU     LIG  727   8.408   3.044   7.239
    2AU     LIG  728   8.812   2.797   7.133
    2AU     LIG  729   9.281   2.746   7.063
    2AU       S  730   7.155   3.203   6.866
    2AU     LIG  731   7.247   2.758   6.730
    2AU     LIG  732   7.402   2.338   6.539
    2AU     LIG  733   7.675   2.033   6.282
    2AU     LIG  734   8.087   1.878   6.093
    2AU    AUSL  735   5.582   3.395   7.577
    2AU    AUSL  736   5.681   3.628   7.161
    2AU     AUL  737   5.334   3.460   7.294
    2AU       S  738   5.482   3.427   6.859
    2AU     LIG  739   5.185   3.176   6.580
    2AU     LIG  740   4.817   2.875   6.487
    2AU     LIG  741   4.429   2.661   6.275
    2AU     LIG  742   4.180   2.460   5.921
    2AU       S  743   5.162   3.438   7.736
    2AU     LIG  744   4.879   3.270   7.444
    2AU     LIG  745   4.454   3.130   7.415
    2AU     LIG  746   4.093   2.967   7.635
    2AU     LIG  747   3.854   2.557   7.693
    2AU    AUSL  748   5.640   3.781   7.764
    2AU    AUSL  749   5.904   3.413   7.854
    2AU     AUL  750   5.573   3.376   7.930
    2AU       S  751   5.647   3.218   8.363
    2AU     LIG  752   5.430   2.897   8.150
    2AU     LIG  753   5.110   2.525   8.203
    2AU     LIG  754   4.882   2.184   8.467
    2AU     LIG  755   4.692   1.739   8.553
    2AU       S  756   5.230   3.684   7.871
    2AU     LIG  757   4.695   3.604   7.815
    2AU     LIG  758   4.226   3.482   7.719
    2AU     LIG  759   3.753   3.378   7.671
    2AU     LIG  760   3.375   3.324   7.914
    2AU    AUSL  761   6.351   4.612   7.895
    2AU    AUSL  762   5.907   4.644   7.811
    2AU     AUL  763   6.160   4.741   8.164
    2AU       S  764   5.769   4.865   7.936
    2AU     LIG  765   5.544   5.148   8.267
    2AU     LIG  766   5.436   5.565   8.490
    2AU     LIG  767   5.295   6.011   8.620
    2AU     LIG  768   4.933   6.345   8.712
    2AU       S  769   6.378   5.086   7.942
    2AU     LIG  770   6.452   5.121   8.332
    2AU     LIG  771   6.418   5.543   8.460
    2AU     LIG  772   6.309   5.950   8.653
    2AU     LIG  773   6.168   6.215   9.004
    2AU    AUSL  774   6.175   4.860   7.581
    2AU    AUSL  775   6.458   4.818   7.213
    2AU     AUL  776   6.170   5.078   7.330
    2AU       S  777   6.220   5.091   7.796
    2AU     LIG  778   6.338   5.576   7.880
    2AU     LIG  779   6.193   5.932   8.154
    2AU     LIG  780   6.078   6.421   8.217
    2AU     LIG  781   6.046   6.896   8.033
    2AU       S  782   6.365   5.120   6.910
    2AU     LIG  783   6.574   5.367   7.147
    2AU     LIG  784   6.601   5.803   7.002
    2AU     LIG  785   6.676   6.175   6.716
    2AU     LIG  786   6.640   6.648   6.697
    2AU    AUSL  787   6.615   4.808   7.610
    2AU    AUSL  788   6.644   4.516   8.177
    2AU     AUL  789   6.724   4.778   7.953
    2AU       S  790   6.878   4.602   8.384
    2AU     LIG  791   7.232   4.549   8.713
    2AU     LIG  792   7.476   4.816   8.990
    2AU     LIG  793   7.703   5.146   9.235
    2AU     LIG  794   7.870   5.227   9.678
    2AU       S  795   6.568   5.121   7.653
    2AU     LIG  796   6.782   5.371   8.006
    2AU     LIG  797   6.711   5.828   8.155
    2AU     LIG  798   6.578   6.292   8.159
    2AU     LIG  799   6.561   6.780   8.065
    2AU    AUSL  800   6.281   3.195   7.943
    2AU    AUSL  801   6.688   3.216   7.779
    2AU     AUL  802   6.518   3.094   8.169
    2AU       S  803   6.271   2.741   7.995
    2AU     LIG  804   6.066   2.533   8.327
    2AU     LIG  805   5.986   2.083   8.416
    2AU     LIG  806   6.029   1.619   8.432
    2AU     LIG  807   6.118   1.172   8.513
    2AU       S  808   6.848   2.992   7.833
    2AU     LIG  809   6.951   2.574   8.097
    2AU     LIG  810   7.269   2.299   8.379
    2AU     LIG  811   7.442   1.883   8.597
    2AU     LIG  812   7.620   1.422   8.667
    2AU    AUSL  813   5.966   3.051   7.660
    2AU    AUSL  814   6.083   3.378   8.259
    2AU     AUL  815   5.943   3.082   8.027
    2AU       S  816   6.071   2.669   7.837
    2AU     LIG  817   5.895   2.237   7.928
    2AU     LIG  818   5.753   1.777   8.027
    2AU     LIG  819   5.754   1.288   8.100
    2AU     LIG  820   5.725   0.886   8.357
    2AU       S  821   5.909   3.256   8.462
    2AU     LIG  822   5.710   2.806   8.599
    2AU     LIG  823   5.277   2.631   8.671
    2AU     LIG  824   5.017   2.353   8.948
    2AU     LIG  825   5.018   2.099   9.348
    2AU    AUSL  826   6.398   2.969   7.599
    2AU    AUSL  827   6.166   3.209   7.316
    2AU     AUL  828   6.050   2.864   7.418
    2AU       S  829   6.401   2.772   7.147
    2AU     LIG  830   5.988   2.529   7.060
    2AU     LIG  831   5.898   2.081   7.055
    2AU     LIG  832   5.887   1.616   6.949
    2AU     LIG  833   5.866   1.171   6.800
    2AU       S  834   6.407   2.753   7.738
    2AU     LIG  835   6.403   2.277   7.820
    2AU     LIG  836   6.264   1.850   8.011
    2AU     LIG  837   6.290   1.357   8.057
    2AU     LIG  838   6.528   0.973   8.257
    2AU    AUSL  839   6.287   4.629   6.856
    2AU    AUSL  840   6.810   4.596   7.265
    2AU     AUL  841   6.629   4.753   6.920
    2AU       S  842   6.249   4.868   6.651
    2AU     LIG  843   6.460   5.260   6.450
    2AU     LIG  844   6.506   5.727   6.464
    2AU     LIG  845   6.412   6.132   6.253
    2AU     LIG  846   6.402   6.380   5.849
    2AU       S  847   7.005   4.791   7.170
    2AU     LIG  848   7.426   4.974   6.938
    2AU     LIG  849   7.650   5.088   6.521
    2AU     LIG  850   8.024   5.364   6.340
    2AU     LIG  851   8.393   5.718   6.382
    2AU    AUSL  852   6.108   4.585   7.278
    2AU    AUSL  853   6.059   4.298   6.947
    2AU     AUL  854   5.975   4.736   7.030
    2AU       S  855   6.164   5.102   6.855
    2AU     LIG  856   6.165   5.569   6.820
    2AU     LIG  857   6.193   6.018   6.753
    2AU     LIG  858   6.015   6.348   6.512
    2AU     LIG  859   6.021   6.747   6.723
    2AU       S  860   5.855   4.527   6.639
    2AU     LIG  861   5.831   4.796   6.293
    2AU     LIG  862   5.581   5.077   6.013
    2AU     LIG  863   5.501   5.334   5.623
    2AU     LIG  864   5.301   5.597   5.278
    2AU    AUSL  865   6.352   3.181   6.922
    2AU    AUSL  866   5.754   3.202   7.241
    2AU     AUL  867   6.011   3.049   6.983
    2AU       S  868   5.553   3.154   7.015
    2AU     LIG  869   5.318   2.791   6.902
    2AU     LIG  870   5.015   2.468   6.737
    2AU     LIG  871   4.607   2.296   6.579
    2AU     LIG  872   4.212   2.158   6.359
    2AU       S  873   6.406   2.779   6.926
    2AU     LIG  874   6.363   2.337   6.775
    2AU     LIG  875   6.171   1.935   6.639
    2AU     LIG  876   6.173   1.487   6.529
    2AU     LIG  877   6.081   1.201   6.174
    2AU    AUSL  878   6.594   3.189   7.302
    2AU    AUSL  879   6.600   3.516   6.956
    2AU     AUL  880   6.698   3.140   6.940
    2AU       S  881   6.627   2.781   7.235
    2AU     LIG  882   6.409   2.300   7.287
    2AU     LIG  883   6.342   1.819   7.118
    2AU     LIG  884   6.332   1.316   7.017
    2AU     LIG  885   6.608   0.942   6.839
    2AU       S  886   6.917   3.361   6.606
    2AU     LIG  887   6.820   2.940   6.495
    2AU     LIG  888   7.055   2.618   6.261
    2AU     LIG  889   7.348   2.345   6.017
    2AU     LIG  890   7.629   2.170   5.692
    3AU     AUC  891   4.058  14.175   7.497
    3AU     AUC  892   4.331  14.192   7.317
    3AU     AUC  893   4.325  14.157   7.668
    3AU     AUC  894   3.773  14.168   7.331
    3AU     AUC  895   3.792  14.205   7.681
    3AU     AUC  896   3.890  14.456   7.495
    3AU     AUC  897   4.243  14.457   7.485
    3AU     AUC  898   3.874  13.903   7.505
    3AU     AUC  899   4.224  13.884   7.491
    3AU     AUC  900   4.062  13.996   7.771
    3AU     AUC  901   4.056  14.363   7.759
    3AU     AUC  902   4.054  14.010   7.218
    3AU     AUC  903   4.070  14.333   7.220
    3AU     AUC  904   4.641  14.204   7.147
    3AU     AUC  905   4.661  14.148   7.505
    3AU     AUC  906   4.612  14.128   7.858
    3AU     AUC  907   3.473  14.153   7.162
    3AU     AUC  908   3.453  14.196   7.527
    3AU     AUC  909   3.508  14.234   7.868
    3AU     AUC  910   3.726  14.758   7.479
    3AU     AUC  911   4.093  14.794   7.458
    3AU     AUC  912   4.430  14.739   7.479
    3AU     AUC  913   3.681  13.627   7.512
    3AU     AUC  914   4.031  13.573   7.486
    3AU     AUC  915   4.391  13.586   7.469
    3AU     AUC  916   4.046  13.817   8.060
    3AU     AUC  917   4.059  14.181   8.092
    3AU     AUC  918   4.086  14.537   8.054
    3AU     AUC  919   4.082  13.841   6.941
    3AU     AUC  920   4.061  14.175   6.884
    3AU     AUC  921   4.043  14.503   6.922
    3AU     AUC  922   4.330  13.943   7.986
    3AU     AUC  923   4.370  14.322   7.984
    3AU     AUC  924   4.385  14.048   6.985
    3AU     AUC  925   4.370  14.371   7.025
    3AU     AUC  926   3.760  14.048   8.012
    3AU     AUC  927   3.782  14.425   7.988
    3AU     AUC  928   3.756  13.981   7.039
    3AU     AUC  929   3.732  14.304   6.994
    3AU     AUC  930   4.586  14.471   7.339
    3AU     AUC  931   4.535  14.430   7.687
    3AU     AUC  932   3.572  14.465   7.314
    3AU     AUC  933   3.590  14.516   7.673
    3AU     AUC  934   4.532  13.878   7.313
    3AU     AUC  935   4.508  13.822   7.675
    3AU     AUC  936   3.543  13.865   7.363
    3AU     AUC  937   3.593  13.917   7.719
    3AU     AUC  938   3.913  14.702   7.762
    3AU     AUC  939   4.258  14.655   7.772
    3AU     AUC  940   3.871  13.697   7.802
    3AU     AUC  941   4.191  13.646   7.768
    3AU     AUC  942   3.879  14.613   7.187
    3AU     AUC  943   4.249  14.666   7.196
    3AU     AUC  944   3.868  13.700   7.203
    3AU     AUC  945   4.261  13.724   7.191
    3AU    AUSL  946   4.583  14.051   8.236
    3AU    AUSL  947   4.328  13.657   8.145
    3AU     AUL  948   4.571  13.642   8.434
    3AU       S  949   4.720  13.372   8.097
    3AU     LIG  950   4.627  13.102   8.417
    3AU     LIG  951   4.809  12.905   8.774
    3AU     LIG  952   5.078  12.616   9.001
    3AU     LIG  953   5.373  12.278   9.131
    3AU       S  954   4.781  14.029   8.339
    3AU     LIG  955   4.622  14.040   8.802
    3AU     LIG  956   4.821  14.069   9.240
    3AU     LIG  957   5.150  13.949   9.566
    3AU     LIG  958   5.405  13.864   9.950
    3AU    AUSL  959   4.180  13.980   8.393
    3AU    AUSL  960   3.936  14.368   8.418
    3AU     AUL  961   4.134  14.294   8.742
    3AU       S  962   4.220  13.914   8.518
    3AU     LIG  963   4.104  13.810   8.905
    3AU     LIG  964   4.378  13.808   9.279
    3AU     LIG  965   4.689  13.734   9.637
    3AU     LIG  966   4.893  13.718  10.062
    3AU       S  967   3.735  14.101   8.634
    3AU     LIG  968   3.743  14.141   9.103
    3AU     LIG  969   3.435  14.136   9.463
    3AU     LIG  970   3.162  14.209   9.822
    3AU     LIG  971   3.097  14.370  10.252
    3AU    AUSL  972   4.258  14.348   8.155
    3AU    AUSL  973   4.698  14.442   8.095
    3AU     AUL  974   4.482  14.359   8.442
    3AU       S  975   4.156  14.745   8.579
    3AU     LIG  976   4.508  14.606   8.881
    3AU     LIG  977   4.689  14.567   9.316
    3AU     LIG  978   4.665  14.642   9.791
    3AU     LIG  979   4.580  14.788  10.238
    3AU       S  980   4.868  14.564   8.277
    3AU     LIG  981   5.296  14.640   8.285
    3AU     LIG  982   5.551  14.841   8.631
    3AU     LIG  983   5.748  15.078   9.001
    3AU     LIG  984   5.840  15.291   9.414
    3AU    AUSL  985   4.583  14.336   6.758
    3AU    AUSL  986   4.362  14.652   6.967
    3AU     AUL  987   4.487  14.713   6.629
    3AU       S  988   4.522  14.395   6.305
    3AU     LIG  989   4.906  14.255   6.109
    3AU     LIG  990   4.999  13.990   5.772
    3AU     LIG  991   5.129  13.940   5.342
    3AU     LIG  992   5.434  14.005   4.999
    3AU       S  993   4.834  14.898   6.871
    3AU     LIG  994   4.794  15.130   6.502
    3AU     LIG  995   4.982  15.325   6.112
    3AU     LIG  996   5.296  15.509   5.814
    3AU     LIG  997   5.584  15.613   5.458
    3AU    AUSL  998   4.362  14.007   6.596
    3AU    AUSL  999   4.733  13.965   6.911
    3AU     AUL 1000   4.772  14.109   6.594
    3AU       S 1001   4.872  13.665   6.683
    3AU     LIG 1002   5.004  13.406   6.320
    3AU     LIG 1003   5.231  13.033   6.188
    3AU     LIG 1004   5.554  12.738   6.065
    3AU     LIG 1005   5.922  12.712   5.764
    3AU       S 1006   4.441  14.257   6.292
    3AU     LIG 1007   4.548  13.872   6.110
    3AU     LIG 1008   4.610  13.675   5.673
    3AU     LIG 1009   4.679  13.718   5.201
    3AU     LIG 1010   4.758  13.456   4.804
    3AU    AUSL 1011   4.159  14.379   6.697
    3AU    AUSL 1012   3.955  13.971   6.726
    3AU     AUL 1013   4.095  14.000   6.432
    3AU       S 1014   3.652  13.995   6.301
    3AU     LIG 1015   3.791  13.789   5.972
    3AU     LIG 1016   3.539  13.650   5.620
    3AU     LIG 1017   3.285  13.633   5.221
    3AU     LIG 1018   3.230  13.644   4.739
    3AU       S 1019   4.181  14.458   6.380
    3AU     LIG 1020   4.111  14.215   5.951
    3AU     LIG 1021   4.506  14.180   5.667
    3AU     LIG 1022   4.727  14.260   5.248
    3AU     LIG 1023   4.811  14.529   4.863
    3AU    AUSL 1024   3.532  14.312   8.255
    3AU    AUSL 1025   3.813  14.672   8.147
    3AU     AUL 1026   3.686  14.593   8.485
    3AU       S 1027   3.538  14.175   8.651
    3AU     LIG 1028   3.183  14.008   8.765
    3AU     LIG 1029   3.010  13.995   9.186
    3AU     LIG 1030   2.897  13.821   9.591
    3AU     LIG 1031   2.873  13.843  10.056
    3AU       S 1032   3.442  14.896   8.211
    3AU     LIG 1033   3.580  15.084   8.565
    3AU     LIG 1034   3.351  15.286   8.888
    3AU     LIG 1035   2.995  15.465   9.117
    3AU     LIG 1036   2.742  15.587   9.485
    3AU    AUSL 1037   3.833  14.031   8.157
    3AU    AUSL 1038   3.423  13.895   8.140
    3AU     AUL 1039   3.306  14.127   8.258
    3AU       S 1040   3.356  13.678   8.405
    3AU     LIG 1041   2.919  13.647   8.261
    3AU     LIG 1042   2.658  13.277   8.338
    3AU     LIG 1043   2.518  12.947   8.637
    3AU     LIG 1044   2.282  12.615   8.886
    3AU       S 1045   3.714  13.973   8.549
    3AU     LIG 1046   3.567  13.702   8.913
    3AU     LIG 1047   3.369  13.648   9.342
    3AU     LIG 1048   3.333  13.692   9.818
    3AU     LIG 1049   3.194  13.458  10.218
    3AU    AUSL 1050   3.531  14.028   6.773
    3AU    AUSL 1051   3.737  13.681   6.945
    3AU     AUL 1052   3.788  13.675   6.613
    3AU       S 1053   3.470  13.907   6.374
    3AU     LIG 1054   3.268  13.673   6.085
    3AU     LIG 1055   3.043  13.761   5.687
    3AU     LIG 1056   2.863  13.930   5.293
    3AU     LIG 1057   2.452  14.084   5.115
    3AU       S 1058   3.369  13.573   6.779
    3AU     LIG 1059   3.455  13.320   6.464
    3AU     LIG 1060   3.162  13.021   6.291
    3AU     LIG 1061   2.846  12.816   6.029
    3AU     LIG 1062   2.568  12.698   5.676
    3AU    AUSL 1063   3.751  14.349   6.598
    3AU    AUSL 1064   3.396  14.419   6.903
    3AU     AUL 1065   3.313  14.248   6.629
    3AU       S 1066   3.411  14.690   6.645
    3AU     LIG 1067   2.972  14.677   6.659
    3AU     LIG 1068   2.670  14.857   6.331
    3AU     LIG 1069   2.520  15.105   5.945
    3AU     LIG 1070   2.360  15.301   5.533
    3AU       S 1071   3.690  14.260   6.330
    3AU     LIG 1072   3.427  14.162   5.902
    3AU     LIG 1073   3.347  14.106   5.443
    3AU     LIG 1074   3.270  14.105   4.978
    3AU     LIG 1075   3.356  14.158   4.506
    3AU    AUSL 1076   4.852  14.658   7.519
    3AU    AUSL 1077   4.749  14.492   7.113
    3AU     AUL 1078   5.101  14.772   7.294
    3AU       S 1079   4.868  14.665   6.920
    3AU     LIG 1080   4.974  14.619   6.480
    3AU     LIG 1081   5.264  14.914   6.245
    3AU     LIG 1082   5.613  15.183   6.049
    3AU     LIG 1083   5.923  15.475   5.829
    3AU       S 1084   5.245  14.519   7.666
    3AU     LIG 1085   5.643  14.776   7.611
    3AU     LIG 1086   6.093  14.965   7.549
    3AU     LIG 1087   6.513  15.183   7.510
    3AU     LIG 1088   6.861  15.490   7.609
    3AU    AUSL 1089   5.016  14.261   7.346
    3AU    AUSL 1090   4.976  13.924   7.674
    3AU     AUL 1091   5.324  13.979   7.564
    3AU       S 1092   5.146  14.329   7.366
    3AU     LIG 1093   5.612  14.343   7.347
    3AU     LIG 1094   6.067  14.510   7.314
    3AU     LIG 1095   6.518  14.717   7.275
    3AU     LIG 1096   6.942  14.833   7.045
    3AU       S 1097   5.200  13.532   7.644
    3AU     LIG 1098   5.615  13.560   7.776
    3AU     LIG 1099   6.033  13.347   7.760
    3AU     LIG 1100   6.387  13.140   7.997
    3AU     LIG 1101   6.857  13.157   8.050
    3AU    AUSL 1102   4.768  14.288   7.715
    3AU    AUSL 1103   4.518  14.685   7.780
    3AU     AUL 1104   4.854  14.714   7.833
    3AU       S 1105   4.844  14.882   8.259
    3AU     LIG 1106   5.165  15.137   8.439
    3AU     LIG 1107   5.501  15.372   8.653
    3AU     LIG 1108   5.728  15.735   8.849
    3AU     LIG 1109   5.915  16.182   8.780
    3AU       S 1110   5.120  14.337   7.824
    3AU     LIG 1111   5.611  14.334   7.923
    3AU     LIG 1112   6.049  14.524   7.831
    3AU     LIG 1113   6.500  14.723   7.797
    3AU     LIG 1114   6.897  14.849   8.044
    3AU    AUSL 1115   3.395  14.733   7.513
    3AU    AUSL 1116   3.481  14.529   7.902
    3AU     AUL 1117   3.181  14.842   7.761
    3AU       S 1118   3.304  14.704   8.185
    3AU     LIG 1119   3.211  14.702   8.636
    3AU     LIG 1120   2.967  14.943   8.971
    3AU     LIG 1121   2.623  15.123   9.243
    3AU     LIG 1122   2.268  15.378   9.425
    3AU       S 1123   3.405  15.125   7.441
    3AU     LIG 1124   2.946  15.032   7.349
    3AU     LIG 1125   2.477  15.098   7.335
    3AU     LIG 1126   2.127  15.436   7.230
    3AU     LIG 1127   1.775  15.759   7.304
    3AU    AUSL 1128   3.344  14.351   7.311
    3AU    AUSL 1129   3.472  14.797   7.107
    3AU     AUL 1130   3.181  14.648   7.152
    3AU       S 1131   2.984  14.207   6.990
    3AU     LIG 1132   2.679  14.621   7.105
    3AU     LIG 1133   2.194  14.753   7.075
    3AU     LIG 1134   1.740  14.937   7.014
    3AU     LIG 1135   1.356  15.152   6.814
    3AU       S 1136   3.269  15.055   6.900
    3AU     LIG 1137   3.048  15.178   6.501
    3AU     LIG 1138   2.773  15.474   6.221
    3AU     LIG 1139   2.533  15.900   6.128
    3AU     LIG 1140   2.443  16.367   6.244
    3AU    AUSL 1141   3.146  14.390   7.701
    3AU    AUSL 1142   3.109  14.019   7.408
    3AU     AUL 1143   2.958  14.353   7.433
    3AU       S 1144   2.905  13.944   7.678
    3AU     LIG 1145   2.602  13.884   7.333
    3AU     LIG 1146   2.129  13.868   7.350
    3AU     LIG 1147   1.700  13.622   7.258
    3AU     LIG 1148   1.297  13.464   7.027
    3AU       S 1149   2.995  14.421   7.925
    3AU     LIG 1150   2.701  14.723   7.696
    3AU     LIG 1151   2.232  14.785   7.705
    3AU     LIG 1152   1.818  14.766   7.961
    3AU     LIG 1153   1.385  14.919   8.078
    3AU    AUSL 1154   4.738  13.598   7.524
    3AU    AUSL 1155   4.606  13.846   7.871
    3AU     AUL 1156   4.929  13.778   7.928
    3AU       S 1157   4.914  13.446   7.510
    3AU     LIG 1158   5.138  13.059   7.697
    3AU     LIG 1159   5.600  13.053   7.631
    3AU     LIG 1160   6.022  12.887   7.540
    3AU     LIG 1161   6.389  12.614   7.505
    3AU       S 1162   4.816  13.341   7.974
    3AU     LIG 1163   5.134  13.125   8.240
    3AU     LIG 1164   5.310  12.927   8.631
    3AU     LIG 1165   5.590  12.700   8.922
    3AU     LIG 1166   5.936  12.588   9.216
    3AU    AUSL 1167   4.713  13.978   7.328
    3AU    AUSL 1168   4.674  13.576   7.106
    3AU     AUL 1169   4.958  13.806   7.166
    3AU       S 1170   5.191  13.525   7.426
    3AU     LIG 1171   5.635  13.441   7.279
    3AU     LIG 1172   6.116  13.361   7.237
    3AU     LIG 1173   6.591  13.318   7.045
    3AU     LIG 1174   6.896  13.060   6.783
    3AU       S 1175   4.881  13.456   6.836
    3AU     LIG 1176   5.008  13.010   6.667
    3AU     LIG 1177   5.171  12.586   6.451
    3AU     LIG 1178   5.343  12.121   6.393
    3AU     LIG 1179   5.654  11.742   6.331
    3AU    AUSL 1180   3.316  13.657   7.565
    3AU    AUSL 1181   3.418  13.893   7.154
    3AU     AUL 1182   3.073  13.715   7.289
    3AU       S 1183   3.210  13.704   6.849
    3AU     LIG 1184   2.959  13.451   6.524
    3AU     LIG 1185   2.647  13.138   6.378
    3AU     LIG 1186   2.338  12.964   6.065
    3AU     LIG 1187   2.054  12.772   5.731
    3AU       S 1188   2.888  13.707   7.728
    3AU     LIG 1189   2.507  13.478   7.626
    3AU     LIG 1190   2.060  13.379   7.541
    3AU     LIG 1191   1.684  13.116   7.614
    3AU     LIG 1192   1.309  12.991   7.896
    3AU    AUSL 1193   3.375  14.042   7.753
    3AU    AUSL 1194   3.635  13.669   7.847
    3AU     AUL 1195   3.301  13.633   7.917
    3AU       S 1196   3.374  13.476   8.356
    3AU     LIG 1197   3.132  13.161   8.140
    3AU     LIG 1198   2.807  12.794   8.205
    3AU     LIG 1199   2.593  12.459   8.486
    3AU     LIG 1200   2.382  12.075   8.694
    3AU       S 1201   2.969  13.953   7.863
    3AU     LIG 1202   2.446  13.926   7.871
    3AU     LIG 1203   1.981  13.795   7.836
    3AU     LIG 1204   1.550  13.609   7.753
    3AU     LIG 1205   1.100  13.492   7.801
    3AU    AUSL 1206   4.105  14.869   7.907
    3AU    AUSL 1207   3.669  14.897   7.801
    3AU     AUL 1208   3.906  14.980   8.180
    3AU       S 1209   3.526  15.110   7.940
    3AU     LIG 1210   3.228  15.335   8.271
    3AU     LIG 1211   3.030  15.606   8.616
    3AU     LIG 1212   2.887  16.038   8.797
    3AU     LIG 1213   2.800  16.532   8.793
    3AU       S 1214   4.145  15.314   7.975
    3AU     LIG 1215   4.273  15.326   8.356
    3AU     LIG 1216   4.275  15.776   8.514
    3AU     LIG 1217   4.315  16.224   8.678
    3AU     LIG 1218   4.295  16.683   8.798
    3AU    AUSL 1219   3.945  15.127   7.587
    3AU    AUSL 1220   4.213  15.047   7.228
    3AU     AUL 1221   4.139  15.380   7.370
    3AU       S 1222   3.958  15.338   7.811
    3AU     LIG 1223   4.048  15.793   8.020
    3AU     LIG 1224   4.069  16.220   8.227
    3AU     LIG 1225   3.979  16.663   8.385
    3AU     LIG 1226   3.848  17.128   8.424
    3AU       S 1227   4.054  15.361   6.912
    3AU     LIG 1228   4.448  15.563   6.988
    3AU     LIG 1229   4.556  16.026   6.871
    3AU     LIG 1230   4.593  16.517   6.777
    3AU     LIG 1231   4.597  17.015   6.765
    3AU    AUSL 1232   4.382  15.049   7.625
    3AU    AUSL 1233   4.387  14.744   8.190
    3AU     AUL 1234   4.488  14.999   7.973
    3AU       S 1235   4.625  14.818   8.405
    3AU     LIG 1236   4.977  14.759   8.733
    3AU     LIG 1237   5.226  15.057   8.976
    3AU     LIG 1238   5.406  15.443   9.161
    3AU     LIG 1239   5.522  15.699   9.530
    3AU       S 1240   4.327  15.394   7.794
    3AU     LIG 1241   4.548  15.667   8.076
    3AU     LIG 1242   4.572  16.110   8.232
    3AU     LIG 1243   4.491  16.574   8.324
    3AU     LIG 1244   4.564  17.040   8.446
    3AU    AUSL 1245   4.012  13.449   7.933
    3AU    AUSL 1246   4.418  13.469   7.764
    3AU     AUL 1247   4.253  13.336   8.154
    3AU       S 1248   3.987  12.999   7.976
    3AU     LIG 1249   3.976  12.848   8.355
    3AU     LIG 1250   3.890  12.406   8.466
    3AU     LIG 1251   3.888  11.930   8.516
    3AU     LIG 1252   3.969  11.455   8.573
    3AU       S 1253   4.580  13.251   7.821
    3AU     LIG 1254   4.743  12.845   7.988
    3AU     LIG 1255   4.973  12.645   8.354
    3AU     LIG 1256   5.303  12.394   8.595
    3AU     LIG 1257   5.476  11.968   8.720
    3AU    AUSL 1258   3.696  13.308   7.650
    3AU    AUSL 1259   3.815  13.630   8.252
    3AU     AUL 1260   3.667  13.343   8.020
    3AU       S 1261   3.797  12.934   7.829
    3AU     LIG 1262   3.595  12.628   8.085
    3AU     LIG 1263   3.565  12.161   8.147
    3AU     LIG 1264   3.660  11.695   8.114
    3AU     LIG 1265   3.410  11.287   8.044
    3AU       S 1266   3.655  13.505   8.461
    3AU     LIG 1267   3.498  13.027   8.487
    3AU     LIG 1268   3.060  12.884   8.635
    3AU     LIG 1269   2.799  12.628   8.940
    3AU     LIG 1270   2.554  12.519   9.332
    3AU    AUSL 1271   4.127  13.224   7.587
    3AU    AUSL 1272   3.897  13.469   7.307
    3AU     AUL 1273   3.780  13.123   7.405
    3AU       S 1274   4.134  13.029   7.139
    3AU     LIG 1275   3.720  12.777   7.058
    3AU     LIG 1276   3.612  12.331   6.994
    3AU     LIG 1277   3.652  11.858   6.907
    3AU     LIG 1278   3.544  11.409   6.744
    3AU       S 1279   4.135  13.003   7.729
    3AU     LIG 1280   4.087  12.523   7.848
    3AU     LIG 1281   4.067  12.097   8.057
    3AU     LIG 1282   4.208  11.653   8.172
    3AU     LIG 1283   4.493  11.291   8.355
    3AU    AUSL 1284   4.031  14.891   6.861
    3AU    AUSL 1285   4.586  14.865   7.268
    3AU     AUL 1286   4.379  15.033   6.943
    3AU       S 1287   3.994  15.158   6.680
    3AU     LIG 1288   4.339  15.433   6.505
    3AU     LIG 1289   4.392  15.893   6.391
    3AU     LIG 1290   4.277  16.278   6.126
    3AU     LIG 1291   4.221  16.448   5.667
    3AU       S 1292   4.794  15.058   7.121
    3AU     LIG 1293   5.163  15.258   6.861
    3AU     LIG 1294   5.368  15.395   6.457
    3AU     LIG 1295   5.659  15.687   6.213
    3AU     LIG 1296   6.077  15.916   6.089
    3AU    AUSL 1297   3.842  14.855   7.291
    3AU    AUSL 1298   3.801  14.562   6.954
    3AU     AUL 1299   3.713  14.985   7.020
    3AU       S 1300   3.870  15.399   6.984
    3AU     LIG 1301   4.051  15.834   6.786
    3AU     LIG 1302   4.149  16.279   6.657
    3AU     LIG 1303   4.138  16.755   6.642
    3AU     LIG 1304   3.879  17.042   6.400
    3AU       S 1305   3.590  14.797   6.623
    3AU     LIG 1306   3.407  14.935   6.212
    3AU     LIG 1307   3.042  15.100   5.975
    3AU     LIG 1308   2.862  15.365   5.626
    3AU     LIG 1309   2.714  15.501   5.183
    3AU    AUSL 1310   4.082  13.436   6.914
    3AU    AUSL 1311   3.487  13.464   7.228
    3AU     AUL 1312   3.742  13.309   6.972
    3AU       S 1313   3.288  13.433   6.984
    3AU     LIG 1314   3.183  13.055   6.821
    3AU     LIG 1315   2.880  12.758   6.645
    3AU     LIG 1316   2.533  12.607   6.388
    3AU     LIG 1317   2.158  12.476   6.151
    3AU       S 1318   4.135  13.033   6.927
    3AU     LIG 1319   4.097  12.587   6.778
    3AU     LIG 1320   3.909  12.192   6.591
    3AU     LIG 1321   3.824  11.765   6.421
    3AU     LIG 1322   3.940  11.467   6.079
    3AU    AUSL 1323   4.325  13.444   7.292
    3AU    AUSL 1324   4.330  13.772   6.938
    3AU     AUL 1325   4.426  13.394   6.925
    3AU       S 1326   4.371  13.044   7.231
    3AU     LIG 1327   4.156  12.577   7.307
    3AU     LIG 1328   4.088  12.152   7.078
    3AU     LIG 1329   4.161  11.752   6.824
    3AU     LIG 1330   4.433  11.352   6.786
    3AU       S 1331   4.626  13.622   6.585
    3AU     LIG 1332   4.559  13.186   6.482
    3AU     LIG 1333   4.756  12.838   6.230
    3AU     LIG 1334   5.051  12.609   5.932
    3AU     LIG 1335   5.405  12.508   5.628
    4AU     AUC 1336   6.883  24.788   7.498
    4AU     AUC 1337   7.166  24.797   7.322
    4AU     AUC 1338   7.147  24.773   7.669
    4AU     AUC 1339   6.598  24.782   7.330
    4AU     AUC 1340   6.614  24.819   7.681
    4AU     AUC 1341   6.713  25.068   7.495
    4AU     AUC 1342   7.068  25.070   7.488
    4AU     AUC 1343   6.696  24.517   7.504
    4AU     AUC 1344   7.047  24.495   7.492
    4AU     AUC 1345   6.884  24.609   7.772
    4AU     AUC 1346   6.877  24.976   7.760
    4AU     AUC 1347   6.878  24.623   7.222
    4AU     AUC 1348   6.897  24.945   7.221
    4AU     AUC 1349   7.476  24.809   7.155
    4AU     AUC 1350   7.488  24.761   7.513
    4AU     AUC 1351   7.436  24.745   7.864
    4AU     AUC 1352   6.301  24.769   7.158
    4AU     AUC 1353   6.277  24.812   7.524
    4AU     AUC 1354   6.331  24.847   7.867
    4AU     AUC 1355   6.549  25.371   7.477
    4AU     AUC 1356   6.916  25.409   7.454
    4AU     AUC 1357   7.250  25.356   7.487
    4AU     AUC 1358   6.499  24.241   7.513
    4AU     AUC 1359   6.848  24.183   7.489
    4AU     AUC 1360   7.211  24.195   7.473
    4AU     AUC 1361   6.868  24.431   8.065
    4AU     AUC 1362   6.882  24.796   8.094
    4AU     AUC 1363   6.900  25.152   8.056
    4AU     AUC 1364   6.904  24.450   6.944
    4AU     AUC 1365   6.891  24.787   6.887
    4AU     AUC 1366   6.879  25.114   6.922
    4AU     AUC 1367   7.153  24.562   7.985
    4AU     AUC 1368   7.188  24.946   7.984
    4AU     AUC 1369   7.210  24.653   6.992
    4AU     AUC 1370   7.204  24.977   7.030
    4AU     AUC 1371   6.582  24.661   8.015
    4AU     AUC 1372   6.600  25.037   7.991
    4AU     AUC 1373   6.581  24.596   7.038
    4AU     AUC 1374   6.563  24.920   6.990
    4AU     AUC 1375   7.415  25.079   7.350
    4AU     AUC 1376   7.358  25.049   7.694
    4AU     AUC 1377   6.401  25.081   7.308
    4AU     AUC 1378   6.409  25.129   7.673
    4AU     AUC 1379   7.355  24.486   7.313
    4AU     AUC 1380   7.332  24.440   7.669
    4AU     AUC 1381   6.364  24.482   7.362
    4AU     AUC 1382   6.415  24.533   7.718
    4AU     AUC 1383   6.726  25.311   7.763
    4AU     AUC 1384   7.076  25.271   7.773
    4AU     AUC 1385   6.690  24.312   7.803
    4AU     AUC 1386   7.010  24.258   7.768
    4AU     AUC 1387   6.710  25.227   7.182
    4AU     AUC 1388   7.083  25.273   7.200
    4AU     AUC 1389   6.688  24.312   7.208
    4AU     AUC 1390   7.077  24.329   7.194
    4AU    AUSL 1391   7.415  24.680   8.219
    4AU    AUSL 1392   7.146  24.271   8.143
    4AU     AUL 1393   7.446  24.273   8.341
    4AU       S 1394   7.528  23.899   8.090
    4AU     LIG 1395   7.382  23.623   8.423
    4AU     LIG 1396   7.527  23.369   8.777
    4AU     LIG 1397   7.812  23.108   9.008
    4AU     LIG 1398   8.033  22.738   9.178
    4AU       S 1399   7.645  24.680   8.348
    4AU     LIG 1400   7.514  24.684   8.799
    4AU     LIG 1401   7.681  24.595   9.236
    4AU     LIG 1402   7.999  24.474   9.575
    4AU     LIG 1403   8.263  24.342   9.946
    4AU    AUSL 1404   7.015  24.598   8.392
    4AU    AUSL 1405   6.757  24.983   8.417
    4AU     AUL 1406   6.957  24.905   8.726
    4AU       S 1407   7.117  24.517   8.547
    4AU     LIG 1408   7.037  24.461   8.959
    4AU     LIG 1409   7.257  24.312   9.334
    4AU     LIG 1410   7.571  24.197   9.665
    4AU     LIG 1411   7.783  24.015  10.054
    4AU       S 1412   6.555  24.711   8.637
    4AU     LIG 1413   6.612  24.753   9.094
    4AU     LIG 1414   6.349  24.713   9.478
    4AU     LIG 1415   6.201  24.779   9.916
    4AU     LIG 1416   6.292  25.046  10.306
    4AU    AUSL 1417   7.079  24.969   8.156
    4AU    AUSL 1418   7.515  25.081   8.105
    4AU     AUL 1419   7.311  24.982   8.441
    4AU       S 1420   6.958  25.366   8.578
    4AU     LIG 1421   7.300  25.255   8.877
    4AU     LIG 1422   7.524  25.398   9.275
    4AU     LIG 1423   7.483  25.506   9.756
    4AU     LIG 1424   7.378  25.664  10.211
    4AU       S 1425   7.679  25.223   8.284
    4AU     LIG 1426   8.094  25.285   8.330
    4AU     LIG 1427   8.361  25.506   8.640
    4AU     LIG 1428   8.557  25.754   8.990
    4AU     LIG 1429   8.721  26.065   9.293
    4AU    AUSL 1430   7.427  24.943   6.766
    4AU    AUSL 1431   7.199  25.253   6.970
    4AU     AUL 1432   7.339  25.315   6.631
    4AU       S 1433   7.382  24.986   6.319
    4AU     LIG 1434   7.763  24.844   6.124
    4AU     LIG 1435   7.868  24.594   5.756
    4AU     LIG 1436   8.045  24.516   5.337
    4AU     LIG 1437   8.431  24.393   5.081
    4AU       S 1438   7.678  25.502   6.904
    4AU     LIG 1439   7.580  25.760   6.569
    4AU     LIG 1440   7.757  25.941   6.192
    4AU     LIG 1441   8.143  26.065   5.958
    4AU     LIG 1442   8.324  26.190   5.533
    4AU    AUSL 1443   7.196  24.617   6.612
    4AU    AUSL 1444   7.535  24.554   6.907
    4AU     AUL 1445   7.624  24.699   6.616
    4AU       S 1446   7.512  24.246   6.631
    4AU     LIG 1447   7.629  23.967   6.255
    4AU     LIG 1448   7.974  23.667   6.183
    4AU     LIG 1449   8.294  23.368   6.029
    4AU     LIG 1450   8.667  23.388   5.737
    4AU       S 1451   7.295  24.846   6.307
    4AU     LIG 1452   7.409  24.455   6.156
    4AU     LIG 1453   7.502  24.233   5.756
    4AU     LIG 1454   7.567  24.313   5.288
    4AU     LIG 1455   7.630  24.170   4.826
    4AU    AUSL 1456   6.997  24.990   6.696
    4AU    AUSL 1457   6.782  24.583   6.723
    4AU     AUL 1458   6.940  24.596   6.440
    4AU       S 1459   6.507  24.615   6.287
    4AU     LIG 1460   6.582  24.470   5.889
    4AU     LIG 1461   6.317  24.235   5.599
    4AU     LIG 1462   6.086  24.196   5.204
    4AU     LIG 1463   5.898  24.061   4.797
    4AU       S 1464   7.036  25.054   6.383
    4AU     LIG 1465   6.973  24.815   5.954
    4AU     LIG 1466   7.369  24.730   5.672
    4AU     LIG 1467   7.613  24.836   5.264
    4AU     LIG 1468   7.591  25.115   4.864
    4AU    AUSL 1469   6.356  24.921   8.256
    4AU    AUSL 1470   6.621  25.293   8.158
    4AU     AUL 1471   6.492  25.194   8.500
    4AU       S 1472   6.353  24.761   8.658
    4AU     LIG 1473   6.128  24.566   8.988
    4AU     LIG 1474   5.884  24.498   9.391
    4AU     LIG 1475   5.623  24.461   9.794
    4AU     LIG 1476   5.184  24.585   9.981
    4AU       S 1477   6.271  25.503   8.222
    4AU     LIG 1478   6.416  25.723   8.548
    4AU     LIG 1479   6.189  25.862   8.914
    4AU     LIG 1480   5.875  26.113   9.149
    4AU     LIG 1481   5.549  26.386   9.334
    4AU    AUSL 1482   6.661  24.642   8.162
    4AU    AUSL 1483   6.247  24.508   8.141
    4AU     AUL 1484   6.131  24.744   8.258
    4AU       S 1485   6.169  24.301   8.413
    4AU     LIG 1486   5.727  24.246   8.246
    4AU     LIG 1487   5.442  23.882   8.313
    4AU     LIG 1488   5.172  23.553   8.526
    4AU     LIG 1489   4.845  23.280   8.721
    4AU       S 1490   6.556  24.583   8.550
    4AU     LIG 1491   6.550  24.282   8.911
    4AU     LIG 1492   6.343  24.224   9.323
    4AU     LIG 1493   6.163  24.273   9.760
    4AU     LIG 1494   6.029  24.107  10.183
    4AU    AUSL 1495   6.358  24.644   6.769
    4AU    AUSL 1496   6.565  24.299   6.951
    4AU     AUL 1497   6.606  24.289   6.615
    4AU       S 1498   6.323  24.546   6.353
    4AU     LIG 1499   6.072  24.519   5.974
    4AU     LIG 1500   5.840  24.474   5.568
    4AU     LIG 1501   5.629  24.466   5.147
    4AU     LIG 1502   5.278  24.648   4.880
    4AU       S 1503   6.186  24.185   6.773
    4AU     LIG 1504   6.280  23.820   6.559
    4AU     LIG 1505   5.953  23.533   6.388
    4AU     LIG 1506   5.619  23.248   6.204
    4AU     LIG 1507   5.475  22.804   6.088
    4AU    AUSL 1508   6.589  24.962   6.596
    4AU    AUSL 1509   6.231  25.040   6.897
    4AU     AUL 1510   6.149  24.872   6.616
    4AU       S 1511   6.260  25.313   6.642
    4AU     LIG 1512   5.844  25.371   6.606
    4AU     LIG 1513   5.611  25.639   6.283
    4AU     LIG 1514   5.469  25.878   5.897
    4AU     LIG 1515   5.224  25.966   5.499
    4AU       S 1516   6.555  24.889   6.360
    4AU     LIG 1517   6.370  24.950   5.943
    4AU     LIG 1518   6.278  24.743   5.528
    4AU     LIG 1519   6.124  24.704   5.077
    4AU     LIG 1520   6.183  24.878   4.625
    4AU    AUSL 1521   7.683  25.272   7.532
    4AU    AUSL 1522   7.583  25.093   7.130
    4AU     AUL 1523   7.952  25.360   7.303
    4AU       S 1524   7.694  25.279   6.943
    4AU     LIG 1525   7.825  25.265   6.484
    4AU     LIG 1526   8.124  25.568   6.236
    4AU     LIG 1527   8.509  25.700   5.964
    4AU     LIG 1528   8.804  25.859   5.617
    4AU       S 1529   8.057  25.143   7.711
    4AU     LIG 1530   8.501  25.123   7.583
    4AU     LIG 1531   8.930  25.334   7.562
    4AU     LIG 1532   9.342  25.572   7.534
    4AU     LIG 1533   9.434  26.029   7.505
    4AU    AUSL 1534   7.852  24.878   7.380
    4AU    AUSL 1535   7.798  24.545   7.695
    4AU     AUL 1536   8.187  24.664   7.678
    4AU       S 1537   7.965  24.912   7.386
    4AU     LIG 1538   8.382  24.787   7.213
    4AU     LIG 1539   8.839  24.996   7.186
    4AU     LIG 1540   9.297  25.205   7.178
    4AU     LIG 1541   9.761  25.361   7.238
    4AU       S 1542   8.032  24.239   7.578
    4AU     LIG 1543   8.473  24.234   7.731
    4AU     LIG 1544   8.861  24.038   7.891
    4AU     LIG 1545   9.316  24.034   7.808
    4AU     LIG 1546   9.728  23.879   7.981
    4AU    AUSL 1547   7.585  24.907   7.733
    4AU    AUSL 1548   7.338  25.310   7.782
    4AU     AUL 1549   7.658  25.357   7.834
    4AU       S 1550   7.645  25.531   8.257
    4AU     LIG 1551   7.961  25.783   8.445
    4AU     LIG 1552   8.271  26.033   8.668
    4AU     LIG 1553   8.539  26.342   8.891
    4AU     LIG 1554   8.701  26.793   8.901
    4AU       S 1555   7.906  24.970   7.864
    4AU     LIG 1556   8.379  24.946   8.051
    4AU     LIG 1557   8.858  24.990   7.963
    4AU     LIG 1558   9.264  25.254   7.950
    4AU     LIG 1559   9.701  25.243   7.747
    4AU    AUSL 1560   6.217  25.345   7.510
    4AU    AUSL 1561   6.295  25.139   7.906
    4AU     AUL 1562   5.994  25.455   7.766
    4AU       S 1563   6.114  25.309   8.190
    4AU     LIG 1564   5.979  25.454   8.621
    4AU     LIG 1565   5.695  25.684   8.909
    4AU     LIG 1566   5.379  25.924   9.154
    4AU     LIG 1567   4.991  25.929   9.438
    4AU       S 1568   6.217  25.733   7.443
    4AU     LIG 1569   5.743  25.629   7.362
    4AU     LIG 1570   5.284  25.779   7.450
    4AU     LIG 1571   4.811  25.944   7.510
    4AU     LIG 1572   4.388  26.213   7.549
    4AU    AUSL 1573   6.171  24.966   7.302
    4AU    AUSL 1574   6.311  25.416   7.108
    4AU     AUL 1575   6.010  25.266   7.145
    4AU       S 1576   5.829  24.807   6.980
    4AU     LIG 1577   5.510  25.193   7.066
    4AU     LIG 1578   5.071  25.385   7.191
    4AU     LIG 1579   4.593  25.539   7.266
    4AU     LIG 1580   4.106  25.591   7.149
    4AU       S 1581   6.123  25.675   6.910
    4AU     LIG 1582   6.001  25.882   6.515
    4AU     LIG 1583   5.724  26.175   6.245
    4AU     LIG 1584   5.559  26.556   5.993
    4AU     LIG 1585   5.428  27.024   5.904
    4AU    AUSL 1586   5.967  25.005   7.690
    4AU    AUSL 1587   5.935  24.637   7.408
    4AU     AUL 1588   5.780  24.968   7.420
    4AU       S 1589   5.733  24.563   7.682
    4AU     LIG 1590   5.410  24.608   7.372
    4AU     LIG 1591   4.992  24.391   7.245
    4AU     LIG 1592   4.568  24.150   7.165
    4AU     LIG 1593   4.214  24.038   6.837
    4AU       S 1594   5.796  25.043   7.913
    4AU     LIG 1595   5.453  25.290   7.657
    4AU     LIG 1596   4.970  25.451   7.691
    4AU     LIG 1597   4.496  25.533   7.790
    4AU     LIG 1598   4.067  25.427   8.022
    4AU    AUSL 1599   7.567  24.210   7.522
    4AU    AUSL 1600   7.421  24.456   7.866
    4AU     AUL 1601   7.731  24.343   7.932
    4AU       S 1602   7.800  24.082   7.496
    4AU     LIG 1603   8.173  23.780   7.610
    4AU     LIG 1604   8.640  23.795   7.495
    4AU     LIG 1605   9.112  23.727   7.439
    4AU     LIG 1606   9.483  23.437   7.348
    4AU       S 1607   7.646  23.896   7.917
    4AU     LIG 1608   7.931  23.631   8.189
    4AU     LIG 1609   8.020  23.455   8.627
    4AU     LIG 1610   8.298  23.280   8.958
    4AU     LIG 1611   8.675  23.388   9.223
    4AU    AUSL 1612   7.562  24.588   7.323
    4AU    AUSL 1613   7.482  24.172   7.110
    4AU     AUL 1614   7.744  24.366   7.111
    4AU       S 1615   8.082  24.307   7.390
    4AU     LIG 1616   8.499  24.217   7.218
    4AU     LIG 1617   8.839  23.928   7.030
    4AU     LIG 1618   9.265  23.702   6.941
    4AU     LIG 1619   9.732  23.762   7.019
    4AU       S 1620   7.627  24.083   6.739
    4AU     LIG 1621   7.712  23.619   6.734
    4AU     LIG 1622   7.978  23.275   6.509
    4AU     LIG 1623   8.103  22.909   6.235
    4AU     LIG 1624   8.400  22.517   6.154
    4AU    AUSL 1625   6.134  24.275   7.564
    4AU    AUSL 1626   6.238  24.509   7.148
    4AU     AUL 1627   5.886  24.343   7.282
    4AU       S 1628   6.043  24.312   6.849
    4AU     LIG 1629   5.755  23.965   6.626
    4AU     LIG 1630   5.419  23.645   6.478
    4AU     LIG 1631   5.014  23.411   6.323
    4AU     LIG 1632   4.581  23.282   6.119
    4AU       S 1633   5.711  24.330   7.725
    4AU     LIG 1634   5.320  24.150   7.589
    4AU     LIG 1635   4.908  23.938   7.501
    4AU     LIG 1636   4.548  23.655   7.557
    4AU     LIG 1637   4.157  23.451   7.493
    4AU    AUSL 1638   6.197  24.659   7.755
    4AU    AUSL 1639   6.457  24.287   7.841
    4AU     AUL 1640   6.123  24.247   7.915
    4AU       S 1641   6.181  24.083   8.349
    4AU     LIG 1642   5.929  23.748   8.155
    4AU     LIG 1643   5.574  23.383   8.223
    4AU     LIG 1644   5.200  23.061   8.360
    4AU     LIG 1645   4.931  22.766   8.625
    4AU       S 1646   5.802  24.574   7.867
    4AU     LIG 1647   5.296  24.573   7.902
    4AU     LIG 1648   4.876  24.394   7.749
    4AU     LIG 1649   4.462  24.142   7.716
    4AU     LIG 1650   4.126  23.931   7.992
    4AU    AUSL 1651   6.913  25.466   7.899
    4AU    AUSL 1652   6.476  25.510   7.809
    4AU     AUL 1653   6.734  25.603   8.169
    4AU       S 1654   6.342  25.721   7.943
    4AU     LIG 1655   5.995  25.898   8.249
    4AU     LIG 1656   5.822  26.102   8.629
    4AU     LIG 1657   5.691  26.506   8.836
    4AU     LIG 1658   5.645  26.983   8.770
    4AU       S 1659   6.952  25.953   7.953
    4AU     LIG 1660   7.088  25.959   8.339
    4AU     LIG 1661   7.121  26.395   8.496
    4AU     LIG 1662   7.067  26.782   8.751
    4AU     LIG 1663   7.031  26.941   9.209
    4AU    AUSL 1664   6.751  25.730   7.590
    4AU    AUSL 1665   7.045  25.682   7.228
    4AU     AUL 1666   6.763  25.954   7.343
    4AU       S 1667   6.791  25.951   7.813
    4AU     LIG 1668   6.837  26.414   8.047
    4AU     LIG 1669   6.811  26.827   8.275
    4AU     LIG 1670   6.496  27.209   8.284
    4AU     LIG 1671   6.249  27.628   8.311
    4AU       S 1672   6.978  25.999   6.935
    4AU     LIG 1673   7.384  26.133   6.907
    4AU     LIG 1674   7.458  26.582   6.786
    4AU     LIG 1675   7.583  27.045   6.825
    4AU     LIG 1676   7.876  27.414   6.954
    4AU    AUSL 1677   7.189  25.669   7.630
    4AU    AUSL 1678   7.194  25.369   8.192
    4AU     AUL 1679   7.279  25.630   7.975
    4AU       S 1680   7.423  25.456   8.408
    4AU     LIG 1681   7.765  25.414   8.745
    4AU     LIG 1682   8.028  25.693   8.993
    4AU     LIG 1683   8.198  26.075   9.188
    4AU     LIG 1684   8.362  26.388   9.487
    4AU       S 1685   7.148  25.982   7.677
    4AU     LIG 1686   7.333  26.287   8.007
    4AU     LIG 1687   7.346  26.749   8.177
    4AU     LIG 1688   7.586  27.194   8.198
    4AU     LIG 1689   7.682  27.661   8.319
    4AU    AUSL 1690   6.831  24.067   7.935
    4AU    AUSL 1691   7.242  24.078   7.764
    4AU     AUL 1692   7.072  23.950   8.150
    4AU       S 1693   6.797  23.609   7.993
    4AU     LIG 1694   6.847  23.408   8.345
    4AU     LIG 1695   6.732  22.969   8.408
    4AU     LIG 1696   6.690  22.515   8.487
    4AU     LIG 1697   6.587  22.062   8.578
    4AU       S 1698   7.395  23.850   7.800
    4AU     LIG 1699   7.468  23.412   7.977
    4AU     LIG 1700   7.703  23.199   8.324
    4AU     LIG 1701   8.015  22.933   8.563
    4AU     LIG 1702   8.265  22.566   8.747
    4AU    AUSL 1703   6.510  23.919   7.657
    4AU    AUSL 1704   6.625  24.241   8.251
    4AU     AUL 1705   6.486  23.959   8.018
    4AU       S 1706   6.600  23.541   7.839
    4AU     LIG 1707   6.392  23.234   8.115
    4AU     LIG 1708   6.312  22.761   8.190
    4AU     LIG 1709   6.318  22.278   8.191
    4AU     LIG 1710   6.456  21.817   8.137
    4AU       S 1711   6.451  24.129   8.454
    4AU     LIG 1712   6.383  23.647   8.430
    4AU     LIG 1713   5.974  23.423   8.560
    4AU     LIG 1714   5.549  23.244   8.723
    4AU     LIG 1715   5.232  23.007   8.979
    4AU    AUSL 1716   6.941  23.831   7.599
    4AU    AUSL 1717   6.711  24.077   7.315
    4AU     AUL 1718   6.591  23.735   7.415
    4AU       S 1719   6.927  23.622   7.136
    4AU     LIG 1720   6.477  23.438   7.033
    4AU     LIG 1721   6.345  23.017   6.966
    4AU     LIG 1722   6.367  22.554   6.876
    4AU     LIG 1723   6.262  22.112   6.749
    4AU       S 1724   6.935  23.605   7.753
    4AU     LIG 1725   6.850  23.115   7.900
    4AU     LIG 1726   6.780  22.643   7.994
    4AU     LIG 1727   6.832  22.168   8.117
    4AU     LIG 1728   6.914  21.719   8.333
    4AU    AUSL 1729   6.879  25.503   6.864
    4AU    AUSL 1730   7.397  25.459   7.288
    4AU     AUL 1731   7.229  25.624   6.948
    4AU       S 1732   6.861  25.733   6.666
    4AU     LIG 1733   7.150  26.036   6.459
    4AU     LIG 1734   7.236  26.475   6.317
    4AU     LIG 1735   7.153  26.839   6.028
    4AU     LIG 1736   7.247  27.198   5.725
    4AU       S 1737   7.607  25.643   7.198
    4AU     LIG 1738   7.899  25.941   6.929
    4AU     LIG 1739   8.146  26.036   6.519
    4AU     LIG 1740   8.397  26.394   6.300
    4AU     LIG 1741   8.614  26.847   6.307
    4AU    AUSL 1742   6.688  25.461   7.282
    4AU    AUSL 1743   6.636  25.180   6.948
    4AU     AUL 1744   6.566  25.620   7.032
    4AU       S 1745   6.788  25.977   6.866
    4AU     LIG 1746   6.941  26.446   6.740
    4AU     LIG 1747   6.929  26.920   6.657
    4AU     LIG 1748   6.628  27.330   6.694
    4AU     LIG 1749   6.265  27.687   6.705
    4AU       S 1750   6.442  25.417   6.639
    4AU     LIG 1751   6.310  25.584   6.225
    4AU     LIG 1752   6.000  25.828   5.978
    4AU     LIG 1753   5.841  26.194   5.729
    4AU     LIG 1754   5.554  26.457   5.471
    4AU    AUSL 1755   6.896  24.032   6.921
    4AU    AUSL 1756   6.303  24.082   7.226
    4AU     AUL 1757   6.555  23.929   6.979
    4AU       S 1758   6.099  24.034   7.001
    4AU     LIG 1759   5.985  23.594   6.915
    4AU     LIG 1760   5.671  23.271   6.737
    4AU     LIG 1761   5.309  23.014   6.546
    4AU     LIG 1762   5.057  22.652   6.365
    4AU       S 1763   6.926  23.645   6.906
    4AU     LIG 1764   6.691  23.413   6.581
    4AU     LIG 1765   6.656  22.930   6.563
    4AU     LIG 1766   6.617  22.473   6.428
    4AU     LIG 1767   6.806  22.064   6.275
    4AU    AUSL 1768   7.136  24.049   7.303
    4AU    AUSL 1769   7.136  24.369   6.945
    4AU     AUL 1770   7.256  23.965   6.986
    4AU       S 1771   7.107  23.602   7.233
    4AU     LIG 1772   6.817  23.177   7.297
    4AU     LIG 1773   6.810  22.770   7.047
    4AU     LIG 1774   6.864  22.327   6.853
    4AU     LIG 1775   6.924  21.852   6.736
    4AU       S 1776   7.264  24.167   6.578
    4AU     LIG 1777   7.253  23.712   6.526
    4AU     LIG 1778   7.528  23.430   6.287
    4AU     LIG 1779   7.786  23.241   5.948
    4AU     LIG 1780   8.059  23.252   5.569
    5AU     AUC 1781  17.225  38.595   7.498
    5AU     AUC 1782  17.499  38.610   7.318
    5AU     AUC 1783  17.492  38.585   7.667
    5AU     AUC 1784  16.941  38.584   7.334
    5AU     AUC 1785  16.959  38.624   7.685
    5AU     AUC 1786  17.055  38.872   7.496
    5AU     AUC 1787  17.408  38.879   7.482
    5AU     AUC 1788  17.042  38.322   7.510
    5AU     AUC 1789  17.392  38.303   7.495
    5AU     AUC 1790  17.231  38.418   7.775
    5AU     AUC 1791  17.223  38.785   7.759
    5AU     AUC 1792  17.220  38.427   7.223
    5AU     AUC 1793  17.235  38.750   7.218
    5AU     AUC 1794  17.809  38.620   7.148
    5AU     AUC 1795  17.828  38.572   7.508
    5AU     AUC 1796  17.782  38.560   7.858
    5AU     AUC 1797  16.640  38.567   7.167
    5AU     AUC 1798  16.621  38.612   7.532
    5AU     AUC 1799  16.677  38.651   7.874
    5AU     AUC 1800  16.888  39.174   7.478
    5AU     AUC 1801  17.254  39.214   7.448
    5AU     AUC 1802  17.590  39.164   7.472
    5AU     AUC 1803  16.851  38.044   7.520
    5AU     AUC 1804  17.200  37.991   7.494
    5AU     AUC 1805  17.561  38.004   7.477
    5AU     AUC 1806  17.218  38.240   8.068
    5AU     AUC 1807  17.232  38.608   8.094
    5AU     AUC 1808  17.251  38.964   8.051
    5AU     AUC 1809  17.248  38.253   6.947
    5AU     AUC 1810  17.228  38.588   6.885
    5AU     AUC 1811  17.210  38.914   6.915
    5AU     AUC 1812  17.500  38.375   7.988
    5AU     AUC 1813  17.539  38.760   7.978
    5AU     AUC 1814  17.552  38.461   6.988
    5AU     AUC 1815  17.537  38.783   7.020
    5AU     AUC 1816  16.932  38.466   8.018
    5AU     AUC 1817  16.949  38.843   7.992
    5AU     AUC 1818  16.923  38.395   7.044
    5AU     AUC 1819  16.898  38.720   6.994
    5AU     AUC 1820  17.752  38.889   7.335
    5AU     AUC 1821  17.702  38.861   7.682
    5AU     AUC 1822  16.739  38.881   7.314
    5AU     AUC 1823  16.753  38.933   7.677
    5AU     AUC 1824  17.700  38.296   7.319
    5AU     AUC 1825  17.673  38.245   7.678
    5AU     AUC 1826  16.711  38.281   7.370
    5AU     AUC 1827  16.764  38.335   7.725
    5AU     AUC 1828  17.070  39.119   7.760
    5AU     AUC 1829  17.422  39.082   7.764
    5AU     AUC 1830  17.041  38.116   7.809
    5AU     AUC 1831  17.358  38.066   7.773
    5AU     AUC 1832  17.045  39.026   7.180
    5AU     AUC 1833  17.418  39.078   7.188
    5AU     AUC 1834  17.036  38.116   7.211
    5AU     AUC 1835  17.429  38.140   7.199
    5AU    AUSL 1836  17.765  38.497   8.222
    5AU    AUSL 1837  17.493  38.085   8.148
    5AU     AUL 1838  17.785  38.095   8.363
    5AU       S 1839  17.887  37.741   8.094
    5AU     LIG 1840  17.789  37.580   8.475
    5AU     LIG 1841  17.976  37.287   8.757
    5AU     LIG 1842  18.184  36.922   8.947
    5AU     LIG 1843  18.456  36.645   9.214
    5AU       S 1844  17.989  38.497   8.346
    5AU     LIG 1845  17.847  38.494   8.788
    5AU     LIG 1846  18.020  38.429   9.223
    5AU     LIG 1847  18.365  38.321   9.541
    5AU     LIG 1848  18.808  38.320   9.745
    5AU    AUSL 1849  17.367  38.415   8.395
    5AU    AUSL 1850  17.111  38.795   8.419
    5AU     AUL 1851  17.313  38.730   8.732
    5AU       S 1852  17.444  38.342   8.538
    5AU     LIG 1853  17.383  38.278   8.957
    5AU     LIG 1854  17.608  38.128   9.335
    5AU     LIG 1855  17.821  37.973   9.733
    5AU     LIG 1856  17.845  37.749  10.163
    5AU       S 1857  16.916  38.523   8.643
    5AU     LIG 1858  16.933  38.537   9.116
    5AU     LIG 1859  16.736  38.507   9.553
    5AU     LIG 1860  16.661  38.494  10.023
    5AU     LIG 1861  16.735  38.744  10.426
    5AU    AUSL 1862  17.430  38.785   8.152
    5AU    AUSL 1863  17.869  38.891   8.087
    5AU     AUL 1864  17.660  38.803   8.434
    5AU       S 1865  17.319  39.182   8.565
    5AU     LIG 1866  17.666  39.077   8.861
    5AU     LIG 1867  17.850  39.170   9.286
    5AU     LIG 1868  17.767  39.278   9.755
    5AU     LIG 1869  17.687  39.339  10.232
    5AU       S 1870  18.033  39.027   8.266
    5AU     LIG 1871  18.456  39.084   8.268
    5AU     LIG 1872  18.715  39.290   8.604
    5AU     LIG 1873  18.934  39.527   8.951
    5AU     LIG 1874  19.123  39.796   9.282
    5AU    AUSL 1875  17.752  38.744   6.752
    5AU    AUSL 1876  17.529  39.059   6.956
    5AU     AUL 1877  17.660  39.118   6.614
    5AU       S 1878  17.692  38.781   6.308
    5AU     LIG 1879  18.100  38.671   6.136
    5AU     LIG 1880  18.220  38.393   5.809
    5AU     LIG 1881  18.291  38.294   5.376
    5AU     LIG 1882  18.426  38.148   4.956
    5AU       S 1883  17.998  39.309   6.878
    5AU     LIG 1884  17.921  39.564   6.564
    5AU     LIG 1885  18.155  39.691   6.201
    5AU     LIG 1886  18.524  39.833   5.958
    5AU     LIG 1887  18.708  39.944   5.537
    5AU    AUSL 1888  17.530  38.409   6.601
    5AU    AUSL 1889  17.897  38.377   6.918
    5AU     AUL 1890  17.952  38.519   6.614
    5AU       S 1891  18.051  38.070   6.688
    5AU     LIG 1892  18.166  37.742   6.354
    5AU     LIG 1893  18.384  37.326   6.281
    5AU     LIG 1894  18.631  36.992   6.059
    5AU     LIG 1895  18.868  36.984   5.655
    5AU       S 1896  17.632  38.599   6.285
    5AU     LIG 1897  17.772  38.252   6.047
    5AU     LIG 1898  17.886  38.041   5.613
    5AU     LIG 1899  17.953  37.976   5.137
    5AU     LIG 1900  18.041  37.960   4.659
    5AU    AUSL 1901  17.327  38.787   6.686
    5AU    AUSL 1902  17.120  38.383   6.731
    5AU     AUL 1903  17.249  38.409   6.434
    5AU       S 1904  16.802  38.400   6.310
    5AU     LIG 1905  16.966  38.188   5.993
    5AU     LIG 1906  16.748  37.981   5.640
    5AU     LIG 1907  16.511  37.984   5.230
    5AU     LIG 1908  16.163  37.932   4.902
    5AU       S 1909  17.368  38.852   6.355
    5AU     LIG 1910  17.374  38.656   5.885
    5AU     LIG 1911  17.743  38.537   5.581
    5AU     LIG 1912  17.891  38.491   5.124
    5AU     LIG 1913  17.913  38.611   4.670
    5AU    AUSL 1914  16.708  38.728   8.262
    5AU    AUSL 1915  16.976  39.095   8.150
    5AU     AUL 1916  16.852  39.015   8.488
    5AU       S 1917  16.715  38.594   8.663
    5AU     LIG 1918  16.470  38.330   8.885
    5AU     LIG 1919  16.335  38.275   9.320
    5AU     LIG 1920  16.126  38.277   9.729
    5AU     LIG 1921  15.750  38.393   9.974
    5AU       S 1922  16.603  39.319   8.222
    5AU     LIG 1923  16.727  39.508   8.592
    5AU     LIG 1924  16.601  39.800   8.938
    5AU     LIG 1925  16.361  40.142   9.143
    5AU     LIG 1926  16.089  40.458   9.349
    5AU    AUSL 1927  17.012  38.451   8.167
    5AU    AUSL 1928  16.600  38.313   8.148
    5AU     AUL 1929  16.484  38.547   8.270
    5AU       S 1930  16.528  38.102   8.418
    5AU     LIG 1931  16.087  38.062   8.269
    5AU     LIG 1932  15.805  37.704   8.357
    5AU     LIG 1933  15.666  37.369   8.657
    5AU     LIG 1934  15.439  37.045   8.914
    5AU       S 1935  16.906  38.393   8.553
    5AU     LIG 1936  16.914  38.080   8.902
    5AU     LIG 1937  16.794  38.042   9.337
    5AU     LIG 1938  16.590  38.041   9.764
    5AU     LIG 1939  16.551  37.932  10.232
    5AU    AUSL 1940  16.697  38.446   6.783
    5AU    AUSL 1941  16.904  38.095   6.953
    5AU     AUL 1942  16.950  38.086   6.622
    5AU       S 1943  16.619  38.313   6.394
    5AU     LIG 1944  16.443  38.091   6.072
    5AU     LIG 1945  16.282  38.214   5.658
    5AU     LIG 1946  16.142  38.348   5.236
    5AU     LIG 1947  15.743  38.324   4.981
    5AU       S 1948  16.535  37.982   6.792
    5AU     LIG 1949  16.575  37.717   6.482
    5AU     LIG 1950  16.235  37.455   6.293
    5AU     LIG 1951  16.000  37.110   6.071
    5AU     LIG 1952  15.887  36.884   5.666
    5AU    AUSL 1953  16.918  38.760   6.594
    5AU    AUSL 1954  16.559  38.839   6.906
    5AU     AUL 1955  16.484  38.676   6.629
    5AU       S 1956  16.587  39.119   6.638
    5AU     LIG 1957  16.189  39.250   6.554
    5AU     LIG 1958  15.998  39.593   6.305
    5AU     LIG 1959  15.842  39.852   5.952
    5AU     LIG 1960  15.557  39.923   5.575
    5AU       S 1961  16.853  38.668   6.327
    5AU     LIG 1962  16.631  38.572   5.886
    5AU     LIG 1963  16.673  38.455   5.433
    5AU     LIG 1964  16.660  38.553   4.978
    5AU     LIG 1965  16.747  38.885   4.632
    5AU    AUSL 1966  18.023  39.082   7.507
    5AU    AUSL 1967  17.916  38.903   7.109
    5AU     AUL 1968  18.281  39.181   7.274
    5AU       S 1969  18.024  39.084   6.917
    5AU     LIG 1970  18.162  39.083   6.464
    5AU     LIG 1971  18.515  39.318   6.218
    5AU     LIG 1972  18.918  39.520   6.038
    5AU     LIG 1973  19.227  39.598   5.674
    5AU       S 1974  18.418  38.947   7.663
    5AU     LIG 1975  18.878  39.081   7.552
    5AU     LIG 1976  19.368  39.200   7.523
    5AU     LIG 1977  19.706  39.512   7.493
    5AU     LIG 1978  19.836  39.853   7.759
    5AU    AUSL 1979  18.186  38.681   7.350
    5AU    AUSL 1980  18.140  38.350   7.689
    5AU     AUL 1981  18.491  38.414   7.605
    5AU       S 1982  18.316  38.740   7.365
    5AU     LIG 1983  18.783  38.657   7.285
    5AU     LIG 1984  19.218  38.840   7.204
    5AU     LIG 1985  19.626  39.075   7.070
    5AU     LIG 1986  19.952  39.220   6.740
    5AU       S 1987  18.367  37.958   7.667
    5AU     LIG 1988  18.758  37.980   7.845
    5AU     LIG 1989  19.211  37.963   7.801
    5AU     LIG 1990  19.670  37.875   7.769
    5AU     LIG 1991  20.062  37.961   8.016
    5AU    AUSL 1992  17.935  38.718   7.715
    5AU    AUSL 1993  17.687  39.122   7.767
    5AU     AUL 1994  18.020  39.155   7.815
    5AU       S 1995  18.005  39.341   8.233
    5AU     LIG 1996  18.335  39.587   8.412
    5AU     LIG 1997  18.662  39.825   8.634
    5AU     LIG 1998  18.979  40.077   8.861
    5AU     LIG 1999  19.181  40.504   8.864
    5AU       S 2000  18.278  38.773   7.828
    5AU     LIG 2001  18.773  38.716   7.916
    5AU     LIG 2002  19.242  38.792   7.794
    5AU     LIG 2003  19.711  38.953   7.887
    5AU     LIG 2004  19.991  39.340   7.905
    5AU    AUSL 2005  16.561  39.144   7.515
    5AU    AUSL 2006  16.639  38.946   7.912
    5AU     AUL 2007  16.333  39.257   7.758
    5AU       S 2008  16.474  39.111   8.172
    5AU     LIG 2009  16.360  39.107   8.602
    5AU     LIG 2010  16.211  39.509   8.775
    5AU     LIG 2011  15.962  39.807   9.038
    5AU     LIG 2012  15.573  39.866   9.305
    5AU       S 2013  16.561  39.539   7.443
    5AU     LIG 2014  16.083  39.458   7.356
    5AU     LIG 2015  15.624  39.667   7.411
    5AU     LIG 2016  15.205  39.961   7.405
    5AU     LIG 2017  14.916  40.345   7.525
    5AU    AUSL 2018  16.512  38.763   7.312
    5AU    AUSL 2019  16.642  39.216   7.111
    5AU     AUL 2020  16.343  39.064   7.162
    5AU       S 2021  16.162  38.602   6.993
    5AU     LIG 2022  15.841  39.002   7.094
    5AU     LIG 2023  15.415  39.274   7.151
    5AU     LIG 2024  14.971  39.533   7.188
    5AU     LIG 2025  14.478  39.583   7.087
    5AU       S 2026  16.451  39.469   6.925
    5AU     LIG 2027  16.435  39.731   6.560
    5AU     LIG 2028  16.224  40.070   6.297
    5AU     LIG 2029  15.942  40.361   6.052
    5AU     LIG 2030  15.557  40.661   6.004
    5AU    AUSL 2031  16.312  38.803   7.701
    5AU    AUSL 2032  16.278  38.432   7.418
    5AU     AUL 2033  16.121  38.760   7.433
    5AU       S 2034  16.077  38.356   7.691
    5AU     LIG 2035  15.768  38.391   7.350
    5AU     LIG 2036  15.349  38.175   7.243
    5AU     LIG 2037  14.896  37.980   7.265
    5AU     LIG 2038  14.487  37.730   7.354
    5AU       S 2039  16.148  38.838   7.923
    5AU     LIG 2040  15.827  39.108   7.664
    5AU     LIG 2041  15.360  39.296   7.668
    5AU     LIG 2042  14.886  39.410   7.771
    5AU     LIG 2043  14.401  39.375   7.885
    5AU    AUSL 2044  17.911  38.019   7.531
    5AU    AUSL 2045  17.763  38.273   7.869
    5AU     AUL 2046  18.071  38.180   7.944
    5AU       S 2047  18.113  37.858   7.504
    5AU     LIG 2048  18.519  37.522   7.499
    5AU     LIG 2049  18.993  37.577   7.530
    5AU     LIG 2050  19.444  37.420   7.539
    5AU     LIG 2051  19.636  36.985   7.601
    5AU       S 2052  17.994  37.731   7.956
    5AU     LIG 2053  18.251  37.453   8.257
    5AU     LIG 2054  18.462  37.220   8.592
    5AU     LIG 2055  18.696  37.006   8.903
    5AU     LIG 2056  18.960  36.857   9.245
    5AU    AUSL 2057  17.885  38.398   7.334
    5AU    AUSL 2058  17.841  37.990   7.114
    5AU     AUL 2059  18.123  38.225   7.165
    5AU       S 2060  18.378  37.984   7.440
    5AU     LIG 2061  18.862  38.049   7.355
    5AU     LIG 2062  19.354  37.907   7.319
    5AU     LIG 2063  19.792  37.720   7.287
    5AU     LIG 2064  20.143  37.580   7.019
    5AU       S 2065  18.045  37.864   6.852
    5AU     LIG 2066  18.066  37.394   6.723
    5AU     LIG 2067  18.151  36.943   6.534
    5AU     LIG 2068  18.328  36.571   6.284
    5AU     LIG 2069  18.624  36.424   5.957
    5AU    AUSL 2070  16.484  38.073   7.574
    5AU    AUSL 2071  16.584  38.305   7.162
    5AU     AUL 2072  16.236  38.131   7.295
    5AU       S 2073  16.388  38.114   6.861
    5AU     LIG 2074  16.115  37.946   6.524
    5AU     LIG 2075  15.791  37.621   6.514
    5AU     LIG 2076  15.578  37.272   6.317
    5AU     LIG 2077  15.486  37.120   5.895
    5AU       S 2078  16.059  38.118   7.736
    5AU     LIG 2079  15.707  37.912   7.528
    5AU     LIG 2080  15.282  37.703   7.472
    5AU     LIG 2081  14.897  37.436   7.416
    5AU     LIG 2082  14.502  37.277   7.620
    5AU    AUSL 2083  16.544  38.459   7.762
    5AU    AUSL 2084  16.807  38.087   7.850
    5AU     AUL 2085  16.474  38.052   7.926
    5AU       S 2086  16.543  37.888   8.357
    5AU     LIG 2087  16.276  37.568   8.171
    5AU     LIG 2088  15.940  37.204   8.248
    5AU     LIG 2089  15.690  36.857   8.501
    5AU     LIG 2090  15.478  36.529   8.806
    5AU       S 2091  16.138  38.368   7.873
    5AU     LIG 2092  15.605  38.316   7.843
    5AU     LIG 2093  15.154  38.138   7.723
    5AU     LIG 2094  14.792  37.820   7.758
    5AU     LIG 2095  14.314  37.733   7.837
    5AU    AUSL 2096  17.261  39.283   7.894
    5AU    AUSL 2097  16.819  39.317   7.810
    5AU     AUL 2098  17.068  39.410   8.171
    5AU       S 2099  16.677  39.531   7.941
    5AU     LIG 2100  16.379  39.750   8.284
    5AU     LIG 2101  16.239  40.030   8.641
    5AU     LIG 2102  16.133  40.467   8.804
    5AU     LIG 2103  15.820  40.828   8.882
    5AU       S 2104  17.292  39.749   7.947
    5AU     LIG 2105  17.419  39.767   8.341
    5AU     LIG 2106  17.325  40.165   8.578
    5AU     LIG 2107  17.283  40.611   8.721
    5AU     LIG 2108  17.132  41.025   8.857
    5AU    AUSL 2109  17.086  39.535   7.579
    5AU    AUSL 2110  17.376  39.484   7.212
    5AU     AUL 2111  17.120  39.766   7.323
    5AU       S 2112  17.130  39.749   7.793
    5AU     LIG 2113  17.211  40.228   7.904
    5AU     LIG 2114  17.108  40.531   8.239
    5AU     LIG 2115  16.990  40.956   8.353
    5AU     LIG 2116  16.563  41.164   8.332
    5AU       S 2117  17.257  39.780   6.881
    5AU     LIG 2118  17.606  39.937   7.026
    5AU     LIG 2119  17.690  40.381   6.986
    5AU     LIG 2120  17.729  40.734   6.690
    5AU     LIG 2121  17.787  41.191   6.642
    5AU    AUSL 2122  17.527  39.476   7.611
    5AU    AUSL 2123  17.552  39.185   8.177
    5AU     AUL 2124  17.638  39.443   7.954
    5AU       S 2125  17.784  39.270   8.388
    5AU     LIG 2126  18.137  39.226   8.718
    5AU     LIG 2127  18.403  39.512   8.959
    5AU     LIG 2128  18.609  39.877   9.166
    5AU     LIG 2129  18.800  40.129   9.515
    5AU       S 2130  17.490  39.778   7.649
    5AU     LIG 2131  17.716  40.000   7.975
    5AU     LIG 2132  17.619  40.382   8.215
    5AU     LIG 2133  17.525  40.827   8.319
    5AU     LIG 2134  17.417  41.247   8.472
    5AU    AUSL 2135  17.184  37.867   7.941
    5AU    AUSL 2136  17.591  37.888   7.772
    5AU     AUL 2137  17.426  37.763   8.161
    5AU       S 2138  17.167  37.412   7.998
    5AU     LIG 2139  17.064  37.072   8.288
    5AU     LIG 2140  16.964  36.599   8.322
    5AU     LIG 2141  16.982  36.120   8.450
    5AU     LIG 2142  16.921  35.746   8.772
    5AU       S 2143  17.749  37.666   7.818
    5AU     LIG 2144  17.779  37.251   8.067
    5AU     LIG 2145  18.076  36.965   8.359
    5AU     LIG 2146  18.410  36.660   8.570
    5AU     LIG 2147  18.778  36.504   8.839
    5AU    AUSL 2148  16.866  37.723   7.660
    5AU    AUSL 2149  16.982  38.049   8.256
    5AU     AUL 2150  16.841  37.755   8.020
    5AU       S 2151  16.972  37.338   7.837
    5AU     LIG 2152  16.805  36.888   7.883
    5AU     LIG 2153  16.731  36.410   7.886
    5AU     LIG 2154  16.860  35.962   7.974
    5AU     LIG 2155  16.765  35.635   8.297
    5AU       S 2156  16.812  37.935   8.450
    5AU     LIG 2157  16.714  37.446   8.450
    5AU     LIG 2158  16.291  37.269   8.614
    5AU     LIG 2159  15.981  37.042   8.899
    5AU     LIG 2160  15.765  37.051   9.316
    5AU    AUSL 2161  17.297  37.641   7.598
    5AU    AUSL 2162  17.067  37.887   7.319
    5AU     AUL 2163  16.953  37.539   7.416
    5AU       S 2164  17.314  37.440   7.159
    5AU     LIG 2165  16.951  37.113   7.160
    5AU     LIG 2166  16.826  36.654   7.131
    5AU     LIG 2167  16.809  36.188   7.000
    5AU     LIG 2168  16.787  35.754   6.814
    5AU       S 2169  17.307  37.421   7.740
    5AU     LIG 2170  17.320  36.946   7.845
    5AU     LIG 2171  17.249  36.470   7.907
    5AU     LIG 2172  17.400  36.075   8.123
    5AU     LIG 2173  17.690  35.793   8.371
    5AU    AUSL 2174  17.202  39.301   6.853
    5AU    AUSL 2175  17.732  39.269   7.268
    5AU     AUL 2176  17.549  39.433   6.930
    5AU       S 2177  17.176  39.514   6.643
    5AU     LIG 2178  17.492  39.843   6.470
    5AU     LIG 2179  17.432  40.307   6.544
    5AU     LIG 2180  17.304  40.729   6.378
    5AU     LIG 2181  17.235  40.989   5.986
    5AU       S 2182  17.942  39.462   7.156
    5AU     LIG 2183  18.324  39.669   6.883
    5AU     LIG 2184  18.595  39.762   6.483
    5AU     LIG 2185  18.966  39.998   6.275
    5AU     LIG 2186  19.366  40.297   6.339
    5AU    AUSL 2187  17.022  39.260   7.278
    5AU    AUSL 2188  16.965  38.976   6.947
    5AU     AUL 2189  16.897  39.418   7.035
    5AU       S 2190  17.075  39.780   6.844
    5AU     LIG 2191  17.161  40.253   6.986
    5AU     LIG 2192  17.253  40.696   6.892
    5AU     LIG 2193  16.959  41.031   6.730
    5AU     LIG 2194  16.585  41.323   6.817
    5AU       S 2195  16.764  39.209   6.646
    5AU     LIG 2196  16.766  39.456   6.285
    5AU     LIG 2197  16.440  39.676   6.033
    5AU     LIG 2198  16.291  40.043   5.786
    5AU     LIG 2199  16.135  40.420   5.571
    5AU    AUSL 2200  17.248  37.847   6.925
    5AU    AUSL 2201  16.656  37.878   7.239
    5AU     AUL 2202  16.913  37.722   6.984
    5AU       S 2203  16.456  37.836   7.003
    5AU     LIG 2204  16.208  37.517   6.814
    5AU     LIG 2205  15.977  37.140   6.624
    5AU     LIG 2206  15.764  36.773   6.402
    5AU     LIG 2207  15.545  36.366   6.279
    5AU       S 2208  17.306  37.440   6.956
    5AU     LIG 2209  17.304  36.963   6.830
    5AU     LIG 2210  17.092  36.540   6.697
    5AU     LIG 2211  17.000  36.103   6.490
    5AU     LIG 2212  17.125  35.799   6.146
    5AU    AUSL 2213  17.494  37.861   7.301
    5AU    AUSL 2214  17.494  38.185   6.949
    5AU     AUL 2215  17.587  37.811   6.927
    5AU       S 2216  17.564  37.475   7.251
    5AU     LIG 2217  17.421  36.990   7.337
    5AU     LIG 2218  17.330  36.523   7.169
    5AU     LIG 2219  17.330  36.118   6.878
    5AU     LIG 2220  17.626  35.812   6.660
    5AU       S 2221  17.807  38.032   6.593
    5AU     LIG 2222  17.676  37.620   6.471
    5AU     LIG 2223  17.871  37.272   6.234
    5AU     LIG 2224  18.119  36.948   5.999
    5AU     LIG 2225  18.385  36.767   5.656
    6AU     AUC 2226  24.102  10.914   7.497
    6AU     AUC 2227  24.377  10.931   7.317
    6AU     AUC 2228  24.369  10.905   7.667
    6AU     AUC 2229  23.818  10.903   7.333
    6AU     AUC 2230  23.835  10.943   7.685
    6AU     AUC 2231  23.931  11.191   7.495
    6AU     AUC 2232  24.284  11.199   7.481
    6AU     AUC 2233  23.920  10.641   7.508
    6AU     AUC 2234  24.271  10.625   7.495
    6AU     AUC 2235  24.108  10.738   7.773
    6AU     AUC 2236  24.099  11.105   7.759
    6AU     AUC 2237  24.099  10.747   7.221
    6AU     AUC 2238  24.113  11.069   7.216
    6AU     AUC 2239  24.688  10.942   7.149
    6AU     AUC 2240  24.707  10.895   7.507
    6AU     AUC 2241  24.659  10.881   7.858
    6AU     AUC 2242  23.518  10.886   7.167
    6AU     AUC 2243  23.498  10.931   7.532
    6AU     AUC 2244  23.553  10.970   7.874
    6AU     AUC 2245  23.764  11.493   7.477
    6AU     AUC 2246  24.129  11.535   7.448
    6AU     AUC 2247  24.463  11.485   7.471
    6AU     AUC 2248  23.730  10.362   7.517
    6AU     AUC 2249  24.080  10.311   7.490
    6AU     AUC 2250  24.443  10.325   7.477
    6AU     AUC 2251  24.095  10.560   8.067
    6AU     AUC 2252  24.108  10.927   8.094
    6AU     AUC 2253  24.127  11.283   8.050
    6AU     AUC 2254  24.127  10.575   6.943
    6AU     AUC 2255  24.106  10.907   6.882
    6AU     AUC 2256  24.086  11.233   6.913
    6AU     AUC 2257  24.377  10.696   7.988
    6AU     AUC 2258  24.415  11.079   7.977
    6AU     AUC 2259  24.434  10.782   6.988
    6AU     AUC 2260  24.414  11.103   7.019
    6AU     AUC 2261  23.809  10.783   8.017
    6AU     AUC 2262  23.824  11.161   7.991
    6AU     AUC 2263  23.800  10.714   7.043
    6AU     AUC 2264  23.775  11.038   6.993
    6AU     AUC 2265  24.627  11.210   7.332
    6AU     AUC 2266  24.578  11.181   7.681
    6AU     AUC 2267  23.616  11.200   7.313
    6AU     AUC 2268  23.629  11.252   7.678
    6AU     AUC 2269  24.583  10.618   7.324
    6AU     AUC 2270  24.551  10.565   7.681
    6AU     AUC 2271  23.588  10.600   7.370
    6AU     AUC 2272  23.641  10.653   7.724
    6AU     AUC 2273  23.947  11.439   7.759
    6AU     AUC 2274  24.297  11.403   7.764
    6AU     AUC 2275  23.920  10.434   7.806
    6AU     AUC 2276  24.238  10.387   7.772
    6AU     AUC 2277  23.921  11.346   7.179
    6AU     AUC 2278  24.293  11.399   7.186
    6AU     AUC 2279  23.915  10.437   7.208
    6AU     AUC 2280  24.309  10.465   7.199
    6AU    AUSL 2281  24.639  10.817   8.224
    6AU    AUSL 2282  24.368  10.409   8.146
    6AU     AUL 2283  24.666  10.415   8.353
    6AU       S 2284  24.761  10.053   8.095
    6AU     LIG 2285  24.664   9.900   8.471
    6AU     LIG 2286  24.872   9.662   8.769
    6AU     LIG 2287  25.090   9.318   8.956
    6AU     LIG 2288  25.378   9.029   9.168
    6AU       S 2289  24.868  10.820   8.359
    6AU     LIG 2290  24.725  10.835   8.797
    6AU     LIG 2291  24.817  10.706   9.239
    6AU     LIG 2292  25.057  10.521   9.611
    6AU     LIG 2293  25.425  10.459   9.906
    6AU    AUSL 2294  24.243  10.735   8.398
    6AU    AUSL 2295  23.983  11.112   8.419
    6AU     AUL 2296  24.185  11.045   8.731
    6AU       S 2297  24.332  10.654   8.550
    6AU     LIG 2298  24.280  10.608   8.981
    6AU     LIG 2299  24.411  10.408   9.380
    6AU     LIG 2300  24.631  10.242   9.763
    6AU     LIG 2301  24.993  10.198  10.057
    6AU       S 2302  23.787  10.841   8.640
    6AU     LIG 2303  23.819  10.855   9.109
    6AU     LIG 2304  23.570  10.842   9.514
    6AU     LIG 2305  23.422  10.839   9.963
    6AU     LIG 2306  23.368  11.058  10.374
    6AU    AUSL 2307  24.304  11.104   8.154
    6AU    AUSL 2308  24.744  11.209   8.085
    6AU     AUL 2309  24.533  11.122   8.433
    6AU       S 2310  24.193  11.498   8.564
    6AU     LIG 2311  24.540  11.391   8.865
    6AU     LIG 2312  24.713  11.493   9.296
    6AU     LIG 2313  24.647  11.654   9.755
    6AU     LIG 2314  24.587  11.836  10.201
    6AU       S 2315  24.909  11.341   8.262
    6AU     LIG 2316  25.333  11.389   8.258
    6AU     LIG 2317  25.593  11.594   8.600
    6AU     LIG 2318  25.808  11.854   8.939
    6AU     LIG 2319  26.003  12.165   9.228
    6AU    AUSL 2320  24.627  11.057   6.756
    6AU    AUSL 2321  24.404  11.378   6.949
    6AU     AUL 2322  24.550  11.429   6.613
    6AU       S 2323  24.565  11.099   6.299
    6AU     LIG 2324  24.965  10.973   6.113
    6AU     LIG 2325  25.088  10.671   5.803
    6AU     LIG 2326  25.182  10.509   5.381
    6AU     LIG 2327  25.300  10.551   4.928
    6AU       S 2328  24.874  11.640   6.877
    6AU     LIG 2329  24.916  11.833   6.491
    6AU     LIG 2330  25.150  12.011   6.113
    6AU     LIG 2331  25.447  12.227   5.817
    6AU     LIG 2332  25.742  12.460   5.527
    6AU    AUSL 2333  24.406  10.724   6.594
    6AU    AUSL 2334  24.792  10.700   6.923
    6AU     AUL 2335  24.820  10.830   6.604
    6AU       S 2336  24.972  10.399   6.708
    6AU     LIG 2337  25.077  10.045   6.392
    6AU     LIG 2338  25.297   9.657   6.246
    6AU     LIG 2339  25.544   9.405   5.944
    6AU     LIG 2340  25.834   9.401   5.566
    6AU       S 2341  24.499  10.938   6.283
    6AU     LIG 2342  24.621  10.570   6.064
    6AU     LIG 2343  24.720  10.361   5.621
    6AU     LIG 2344  24.835  10.177   5.183
    6AU     LIG 2345  24.921  10.123   4.716
    6AU    AUSL 2346  24.205  11.104   6.682
    6AU    AUSL 2347  23.998  10.702   6.732
    6AU     AUL 2348  24.129  10.724   6.431
    6AU       S 2349  23.683  10.725   6.303
    6AU     LIG 2350  23.881  10.542   5.979
    6AU     LIG 2351  23.684  10.367   5.597
    6AU     LIG 2352  23.474  10.372   5.190
    6AU     LIG 2353  23.329  10.405   4.766
    6AU       S 2354  24.238  11.174   6.365
    6AU     LIG 2355  24.206  10.962   5.907
    6AU     LIG 2356  24.613  10.872   5.632
    6AU     LIG 2357  24.828  10.827   5.191
    6AU     LIG 2358  24.906  10.881   4.712
    6AU    AUSL 2359  23.582  11.043   8.257
    6AU    AUSL 2360  23.855  11.413   8.147
    6AU     AUL 2361  23.723  11.332   8.481
    6AU       S 2362  23.586  10.915   8.667
    6AU     LIG 2363  23.368  10.623   8.910
    6AU     LIG 2364  23.181  10.553   9.331
    6AU     LIG 2365  22.998  10.621   9.755
    6AU     LIG 2366  22.697  10.598  10.120
    6AU       S 2367  23.481  11.659   8.222
    6AU     LIG 2368  23.667  11.830   8.594
    6AU     LIG 2369  23.561  12.075   8.969
    6AU     LIG 2370  23.196  12.270   9.182
    6AU     LIG 2371  22.856  12.357   9.501
    6AU    AUSL 2372  23.890  10.767   8.165
    6AU    AUSL 2373  23.479  10.626   8.147
    6AU     AUL 2374  23.364  10.857   8.270
    6AU       S 2375  23.404  10.412   8.419
    6AU     LIG 2376  22.968  10.364   8.264
    6AU     LIG 2377  22.721   9.991   8.347
    6AU     LIG 2378  22.534   9.665   8.612
    6AU     LIG 2379  22.231   9.374   8.809
    6AU       S 2380  23.781  10.707   8.551
    6AU     LIG 2381  23.824  10.396   8.893
    6AU     LIG 2382  23.676  10.374   9.322
    6AU     LIG 2383  23.462  10.371   9.741
    6AU     LIG 2384  23.193  10.309  10.127
    6AU    AUSL 2385  23.574  10.762   6.781
    6AU    AUSL 2386  23.778  10.413   6.950
    6AU     AUL 2387  23.820  10.410   6.619
    6AU       S 2388  23.501  10.636   6.372
    6AU     LIG 2389  23.345  10.517   5.966
    6AU     LIG 2390  23.170  10.592   5.541
    6AU     LIG 2391  22.960  10.540   5.117
    6AU     LIG 2392  22.630  10.663   4.790
    6AU       S 2393  23.407  10.301   6.793
    6AU     LIG 2394  23.472   9.980   6.543
    6AU     LIG 2395  23.143   9.713   6.351
    6AU     LIG 2396  22.786   9.467   6.173
    6AU     LIG 2397  22.558   9.100   5.996
    6AU    AUSL 2398  23.795  11.077   6.594
    6AU    AUSL 2399  23.436  11.155   6.905
    6AU     AUL 2400  23.361  10.984   6.629
    6AU       S 2401  23.456  11.428   6.639
    6AU     LIG 2402  23.162  11.681   6.442
    6AU     LIG 2403  23.014  11.990   6.147
    6AU     LIG 2404  22.696  12.037   5.801
    6AU     LIG 2405  22.365  11.982   5.450
    6AU       S 2406  23.740  10.996   6.339
    6AU     LIG 2407  23.608  10.969   5.877
    6AU     LIG 2408  23.599  10.847   5.429
    6AU     LIG 2409  23.370  10.859   5.026
    6AU     LIG 2410  23.490  10.863   4.567
    6AU    AUSL 2411  24.896  11.405   7.506
    6AU    AUSL 2412  24.796  11.232   7.103
    6AU     AUL 2413  25.153  11.529   7.280
    6AU       S 2414  24.897  11.397   6.935
    6AU     LIG 2415  25.036  11.300   6.529
    6AU     LIG 2416  25.332  11.558   6.295
    6AU     LIG 2417  25.653  11.837   6.106
    6AU     LIG 2418  25.955  12.100   5.854
    6AU       S 2419  25.281  11.269   7.660
    6AU     LIG 2420  25.624  11.530   7.632
    6AU     LIG 2421  26.056  11.668   7.543
    6AU     LIG 2422  26.382  11.943   7.715
    6AU     LIG 2423  26.760  12.187   7.650
    6AU    AUSL 2424  25.061  11.006   7.342
    6AU    AUSL 2425  25.020  10.673   7.691
    6AU     AUL 2426  25.359  10.727   7.563
    6AU       S 2427  25.212  11.091   7.363
    6AU     LIG 2428  25.710  11.100   7.371
    6AU     LIG 2429  26.196  11.248   7.254
    6AU     LIG 2430  26.701  11.291   7.189
    6AU     LIG 2431  27.123  11.512   7.096
    6AU       S 2432  25.259  10.279   7.685
    6AU     LIG 2433  25.731  10.331   7.740
    6AU     LIG 2434  26.194  10.170   7.804
    6AU     LIG 2435  26.626   9.935   7.909
    6AU     LIG 2436  27.091   9.881   7.927
    6AU    AUSL 2437  24.813  11.040   7.711
    6AU    AUSL 2438  24.560  11.443   7.766
    6AU     AUL 2439  24.892  11.476   7.815
    6AU       S 2440  24.880  11.655   8.235
    6AU     LIG 2441  25.215  11.885   8.395
    6AU     LIG 2442  25.522  12.129   8.617
    6AU     LIG 2443  25.802  12.421   8.825
    6AU     LIG 2444  25.966  12.843   8.775
    6AU       S 2445  25.161  11.096   7.817
    6AU     LIG 2446  25.649  11.052   7.895
    6AU     LIG 2447  26.089  11.190   7.752
    6AU     LIG 2448  26.509  11.439   7.669
    6AU     LIG 2449  26.839  11.723   7.857
    6AU    AUSL 2450  23.437  11.464   7.514
    6AU    AUSL 2451  23.510  11.272   7.916
    6AU     AUL 2452  23.208  11.576   7.759
    6AU       S 2453  23.350  11.435   8.178
    6AU     LIG 2454  23.260  11.488   8.635
    6AU     LIG 2455  23.094  11.846   8.884
    6AU     LIG 2456  22.734  12.012   9.136
    6AU     LIG 2457  22.390  12.056   9.461
    6AU       S 2458  23.444  11.861   7.440
    6AU     LIG 2459  22.986  11.791   7.347
    6AU     LIG 2460  22.526  11.974   7.376
    6AU     LIG 2461  22.125  12.274   7.375
    6AU     LIG 2462  21.704  12.518   7.273
    6AU    AUSL 2463  23.391  11.082   7.312
    6AU    AUSL 2464  23.519  11.533   7.110
    6AU     AUL 2465  23.221  11.383   7.154
    6AU       S 2466  23.043  10.912   6.994
    6AU     LIG 2467  22.657  11.198   7.085
    6AU     LIG 2468  22.165  11.223   7.131
    6AU     LIG 2469  21.746  11.401   6.904
    6AU     LIG 2470  21.440  11.478   6.524
    6AU       S 2471  23.326  11.788   6.913
    6AU     LIG 2472  23.413  12.116   6.604
    6AU     LIG 2473  23.188  12.435   6.351
    6AU     LIG 2474  23.110  12.842   6.150
    6AU     LIG 2475  22.856  13.229   6.178
    6AU    AUSL 2476  23.190  11.122   7.701
    6AU    AUSL 2477  23.155  10.753   7.419
    6AU     AUL 2478  23.004  11.089   7.434
    6AU       S 2479  22.951  10.681   7.690
    6AU     LIG 2480  22.620  10.789   7.395
    6AU     LIG 2481  22.180  10.721   7.333
    6AU     LIG 2482  21.843  10.458   7.177
    6AU     LIG 2483  21.386  10.366   7.147
    6AU       S 2484  23.029  11.154   7.929
    6AU     LIG 2485  22.578  11.168   7.768
    6AU     LIG 2486  22.130  11.376   7.913
    6AU     LIG 2487  21.638  11.449   8.034
    6AU     LIG 2488  21.137  11.496   8.025
    6AU    AUSL 2489  24.792  10.339   7.535
    6AU    AUSL 2490  24.642  10.596   7.870
    6AU     AUL 2491  24.950  10.504   7.946
    6AU       S 2492  24.985  10.178   7.515
    6AU     LIG 2493  25.346   9.810   7.547
    6AU     LIG 2494  25.824   9.834   7.591
    6AU     LIG 2495  26.280   9.731   7.567
    6AU     LIG 2496  26.612   9.459   7.465
    6AU       S 2497  24.873  10.058   7.968
    6AU     LIG 2498  25.149   9.809   8.273
    6AU     LIG 2499  25.370   9.605   8.619
    6AU     LIG 2500  25.622   9.412   8.935
    6AU     LIG 2501  25.891   9.441   9.316
    6AU    AUSL 2502  24.761  10.718   7.339
    6AU    AUSL 2503  24.728  10.313   7.117
    6AU     AUL 2504  25.011  10.549   7.183
    6AU       S 2505  25.246  10.277   7.449
    6AU     LIG 2506  25.659  10.193   7.256
    6AU     LIG 2507  26.147  10.131   7.270
    6AU     LIG 2508  26.524   9.847   7.123
    6AU     LIG 2509  26.900   9.759   6.842
    6AU       S 2510  24.934  10.190   6.870
    6AU     LIG 2511  24.956   9.725   6.784
    6AU     LIG 2512  25.135   9.311   6.586
    6AU     LIG 2513  25.370   9.029   6.272
    6AU     LIG 2514  25.463   8.625   6.028
    6AU    AUSL 2515  23.359  10.393   7.573
    6AU    AUSL 2516  23.460  10.624   7.161
    6AU     AUL 2517  23.110  10.454   7.296
    6AU       S 2518  23.263  10.428   6.862
    6AU     LIG 2519  22.992  10.205   6.533
    6AU     LIG 2520  22.655   9.874   6.476
    6AU     LIG 2521  22.295   9.589   6.313
    6AU     LIG 2522  21.915   9.416   6.060
    6AU       S 2523  22.936  10.447   7.740
    6AU     LIG 2524  22.594  10.301   7.493
    6AU     LIG 2525  22.148  10.179   7.493
    6AU     LIG 2526  21.906   9.807   7.640
    6AU     LIG 2527  21.714   9.470   7.399
    6AU    AUSL 2528  23.421  10.777   7.762
    6AU    AUSL 2529  23.686  10.404   7.846
    6AU     AUL 2530  23.352  10.367   7.922
    6AU       S 2531  23.422  10.198   8.350
    6AU     LIG 2532  23.201   9.853   8.170
    6AU     LIG 2533  22.857   9.504   8.214
    6AU     LIG 2534  22.577   9.180   8.436
    6AU     LIG 2535  22.403   8.894   8.774
    6AU       S 2536  23.018  10.685   7.876
    6AU     LIG 2537  22.487  10.657   7.873
    6AU     LIG 2538  22.007  10.569   7.796
    6AU     LIG 2539  21.561  10.560   7.973
    6AU     LIG 2540  21.182  10.328   8.057
    6AU    AUSL 2541  24.137  11.607   7.895
    6AU    AUSL 2542  23.697  11.635   7.809
    6AU     AUL 2543  23.948  11.727   8.172
    6AU       S 2544  23.569  11.838   7.923
    6AU     LIG 2545  23.521  12.178   8.244
    6AU     LIG 2546  23.260  12.310   8.627
    6AU     LIG 2547  23.054  12.665   8.869
    6AU     LIG 2548  22.907  13.125   8.910
    6AU       S 2549  24.166  12.068   7.945
    6AU     LIG 2550  24.246  12.109   8.345
    6AU     LIG 2551  24.237  12.523   8.543
    6AU     LIG 2552  24.192  12.937   8.758
    6AU     LIG 2553  24.110  13.221   9.119
    6AU    AUSL 2554  23.962  11.856   7.578
    6AU    AUSL 2555  24.249  11.807   7.210
    6AU     AUL 2556  23.995  12.083   7.329
    6AU       S 2557  23.998  12.086   7.802
    6AU     LIG 2558  24.077  12.537   8.027
    6AU     LIG 2559  24.027  12.913   8.268
    6AU     LIG 2560  23.786  13.296   8.263
    6AU     LIG 2561  23.593  13.718   8.312
    6AU       S 2562  24.147  12.106   6.886
    6AU     LIG 2563  24.559  12.283   6.902
    6AU     LIG 2564  24.622  12.778   6.864
    6AU     LIG 2565  24.779  13.262   6.825
    6AU     LIG 2566  24.920  13.711   6.654
    6AU    AUSL 2567  24.402  11.798   7.610
    6AU    AUSL 2568  24.427  11.503   8.177
    6AU     AUL 2569  24.514  11.764   7.954
    6AU       S 2570  24.660  11.587   8.387
    6AU     LIG 2571  25.012  11.534   8.715
    6AU     LIG 2572  25.279  11.815   8.955
    6AU     LIG 2573  25.468  12.194   9.145
    6AU     LIG 2574  25.683  12.550   9.356
    6AU       S 2575  24.356  12.112   7.668
    6AU     LIG 2576  24.564  12.363   8.013
    6AU     LIG 2577  24.541  12.801   8.201
    6AU     LIG 2578  24.764  13.244   8.201
    6AU     LIG 2579  24.860  13.702   8.296
    6AU    AUSL 2580  24.063  10.185   7.938
    6AU    AUSL 2581  24.470  10.210   7.774
    6AU     AUL 2582  24.302  10.093   8.169
    6AU       S 2583  24.061   9.743   7.987
    6AU     LIG 2584  23.886   9.583   8.339
    6AU     LIG 2585  23.787   9.132   8.373
    6AU     LIG 2586  23.796   8.666   8.346
    6AU     LIG 2587  23.983   8.283   8.515
    6AU       S 2588  24.627   9.989   7.828
    6AU     LIG 2589  24.700   9.562   8.071
    6AU     LIG 2590  25.000   9.323   8.394
    6AU     LIG 2591  25.347   9.040   8.613
    6AU     LIG 2592  25.472   8.567   8.693
    6AU    AUSL 2593  23.750  10.041   7.654
    6AU    AUSL 2594  23.859  10.365   8.253
    6AU     AUL 2595  23.722  10.073   8.018
    6AU       S 2596  23.875   9.669   7.830
    6AU     LIG 2597  23.579   9.392   7.968
    6AU     LIG 2598  23.548   8.937   7.945
    6AU     LIG 2599  23.416   8.514   8.016
    6AU     LIG 2600  23.419   8.072   8.133
    6AU       S 2601  23.677  10.243   8.456
    6AU     LIG 2602  23.489   9.797   8.609
    6AU     LIG 2603  23.053   9.601   8.676
    6AU     LIG 2604  22.755   9.290   8.907
    6AU     LIG 2605  22.643   8.945   9.222
    6AU    AUSL 2606  24.182   9.965   7.590
    6AU    AUSL 2607  23.946  10.204   7.310
    6AU     AUL 2608  23.833   9.855   7.406
    6AU       S 2609  24.195   9.774   7.144
    6AU     LIG 2610  23.818   9.454   7.107
    6AU     LIG 2611  23.631   9.007   7.060
    6AU     LIG 2612  23.644   8.560   6.878
    6AU     LIG 2613  23.471   8.109   6.767
    6AU       S 2614  24.197   9.752   7.723
    6AU     LIG 2615  24.235   9.298   7.853
    6AU     LIG 2616  24.074   8.881   7.970
    6AU     LIG 2617  24.193   8.424   8.054
    6AU     LIG 2618  24.454   8.134   8.306
    6AU    AUSL 2619  24.076  11.621   6.853
    6AU    AUSL 2620  24.601  11.587   7.267
    6AU     AUL 2621  24.423  11.747   6.919
    6AU       S 2622  24.042  11.834   6.647
    6AU     LIG 2623  24.368  12.088   6.455
    6AU     LIG 2624  24.287  12.545   6.527
    6AU     LIG 2625  24.023  12.899   6.349
    6AU     LIG 2626  23.944  13.151   5.971
    6AU       S 2627  24.789  11.781   7.182
    6AU     LIG 2628  25.161  12.020   6.952
    6AU     LIG 2629  25.423  12.043   6.548
    6AU     LIG 2630  25.701  12.324   6.264
    6AU     LIG 2631  26.091  12.551   6.079
    6AU    AUSL 2632  23.898  11.580   7.278
    6AU    AUSL 2633  23.842  11.295   6.947
    6AU     AUL 2634  23.769  11.738   7.034
    6AU       S 2635  23.969  12.098   6.857
    6AU     LIG 2636  24.150  12.555   7.043
    6AU     LIG 2637  24.100  12.948   6.846
    6AU     LIG 2638  23.708  13.200   6.780
    6AU     LIG 2639  23.522  13.637   6.824
    6AU       S 2640  23.638  11.525   6.645
    6AU     LIG 2641  23.663  11.786   6.299
    6AU     LIG 2642  23.511  12.146   6.072
    6AU     LIG 2643  23.286  12.467   5.830
    6AU     LIG 2644  23.037  12.713   5.543
    6AU    AUSL 2645  24.132  10.182   6.916
    6AU    AUSL 2646  23.535  10.198   7.240
    6AU     AUL 2647  23.793  10.046   6.977
    6AU       S 2648  23.333  10.151   7.015
    6AU     LIG 2649  23.072   9.816   6.858
    6AU     LIG 2650  22.833   9.441   6.691
    6AU     LIG 2651  22.512   9.145   6.505
    6AU     LIG 2652  22.335   8.722   6.342
    6AU       S 2653  24.191   9.778   6.944
    6AU     LIG 2654  24.202   9.333   6.799
    6AU     LIG 2655  23.957   8.945   6.654
    6AU     LIG 2656  23.927   8.558   6.393
    6AU     LIG 2657  24.016   8.424   5.929
    6AU    AUSL 2658  24.374  10.191   7.296
    6AU    AUSL 2659  24.384  10.516   6.951
    6AU     AUL 2660  24.472  10.147   6.920
    6AU       S 2661  24.447   9.807   7.239
    6AU     LIG 2662  24.277   9.337   7.333
    6AU     LIG 2663  24.136   8.924   7.134
    6AU     LIG 2664  24.208   8.517   6.875
    6AU     LIG 2665  24.540   8.145   6.851
    6AU       S 2666  24.710  10.356   6.595
    6AU     LIG 2667  24.582   9.930   6.487
    6AU     LIG 2668  24.787   9.564   6.301
    6AU     LIG 2669  25.017   9.285   5.999
    6AU     LIG 2670  25.290   9.014   5.720
    7AU     AUC 2671  19.242  27.294   7.500
    7AU     AUC 2672  19.516  27.308   7.318
    7AU     AUC 2673  19.509  27.281   7.669
    7AU     AUC 2674  18.959  27.288   7.335
    7AU     AUC 2675  18.975  27.325   7.686
    7AU     AUC 2676  19.075  27.573   7.498
    7AU     AUC 2677  19.426  27.577   7.485
    7AU     AUC 2678  19.057  27.024   7.510
    7AU     AUC 2679  19.407  27.002   7.496
    7AU     AUC 2680  19.246  27.116   7.775
    7AU     AUC 2681  19.241  27.483   7.763
    7AU     AUC 2682  19.236  27.128   7.223
    7AU     AUC 2683  19.253  27.451   7.219
    7AU     AUC 2684  19.827  27.316   7.150
    7AU     AUC 2685  19.845  27.267   7.508
    7AU     AUC 2686  19.799  27.253   7.859
    7AU     AUC 2687  18.660  27.274   7.167
    7AU     AUC 2688  18.638  27.318   7.532
    7AU     AUC 2689  18.694  27.354   7.874
    7AU     AUC 2690  18.913  27.877   7.483
    7AU     AUC 2691  19.276  27.915   7.458
    7AU     AUC 2692  19.608  27.862   7.479
    7AU     AUC 2693  18.863  26.747   7.520
    7AU     AUC 2694  19.213  26.691   7.492
    7AU     AUC 2695  19.575  26.700   7.477
    7AU     AUC 2696  19.232  26.938   8.067
    7AU     AUC 2697  19.248  27.304   8.096
    7AU     AUC 2698  19.272  27.659   8.057
    7AU     AUC 2699  19.262  26.954   6.946
    7AU     AUC 2700  19.245  27.290   6.885
    7AU     AUC 2701  19.230  27.618   6.916
    7AU     AUC 2702  19.515  27.069   7.990
    7AU     AUC 2703  19.559  27.451   7.982
    7AU     AUC 2704  19.570  27.159   6.989
    7AU     AUC 2705  19.554  27.481   7.021
    7AU     AUC 2706  18.946  27.166   8.019
    7AU     AUC 2707  18.967  27.543   7.994
    7AU     AUC 2708  18.938  27.099   7.045
    7AU     AUC 2709  18.919  27.426   6.994
    7AU     AUC 2710  19.768  27.585   7.335
    7AU     AUC 2711  19.721  27.554   7.684
    7AU     AUC 2712  18.763  27.587   7.311
    7AU     AUC 2713  18.773  27.635   7.679
    7AU     AUC 2714  19.718  26.993   7.323
    7AU     AUC 2715  19.687  26.939   7.681
    7AU     AUC 2716  18.725  26.986   7.371
    7AU     AUC 2717  18.777  27.038   7.726
    7AU     AUC 2718  19.091  27.817   7.767
    7AU     AUC 2719  19.442  27.777   7.772
    7AU     AUC 2720  19.054  26.817   7.808
    7AU     AUC 2721  19.372  26.763   7.773
    7AU     AUC 2722  19.066  27.735   7.182
    7AU     AUC 2723  19.437  27.780   7.194
    7AU     AUC 2724  19.049  26.819   7.210
    7AU     AUC 2725  19.444  26.840   7.199
    7AU    AUSL 2726  19.779  27.185   8.228
    7AU    AUSL 2727  19.506  26.778   8.148
    7AU     AUL 2728  19.792  26.781   8.373
    7AU       S 2729  19.898  26.435   8.095
    7AU     LIG 2730  19.803  26.255   8.454
    7AU     LIG 2731  20.026  26.015   8.746
    7AU     LIG 2732  20.270  25.711   8.979
    7AU     LIG 2733  20.485  25.571   9.370
    7AU       S 2734  20.002  27.180   8.352
    7AU     LIG 2735  19.862  27.158   8.796
    7AU     LIG 2736  20.078  27.056   9.223
    7AU     LIG 2737  20.395  26.893   9.557
    7AU     LIG 2738  20.677  26.794   9.930
    7AU    AUSL 2739  19.379  27.108   8.396
    7AU    AUSL 2740  19.129  27.488   8.423
    7AU     AUL 2741  19.330  27.422   8.738
    7AU       S 2742  19.450  27.036   8.536
    7AU     LIG 2743  19.375  26.940   8.936
    7AU     LIG 2744  19.650  26.773   9.280
    7AU     LIG 2745  19.949  26.650   9.632
    7AU     LIG 2746  20.244  26.494   9.981
    7AU       S 2747  18.935  27.215   8.641
    7AU     LIG 2748  18.958  27.223   9.105
    7AU     LIG 2749  18.650  27.157   9.467
    7AU     LIG 2750  18.468  27.236   9.894
    7AU     LIG 2751  18.311  27.533  10.215
    7AU    AUSL 2752  19.448  27.479   8.157
    7AU    AUSL 2753  19.890  27.575   8.089
    7AU     AUL 2754  19.678  27.491   8.439
    7AU       S 2755  19.338  27.875   8.566
    7AU     LIG 2756  19.682  27.771   8.860
    7AU     LIG 2757  19.920  27.864   9.248
    7AU     LIG 2758  19.853  27.938   9.718
    7AU     LIG 2759  19.822  27.920  10.193
    7AU       S 2760  20.057  27.706   8.269
    7AU     LIG 2761  20.482  27.776   8.269
    7AU     LIG 2762  20.729  27.970   8.620
    7AU     LIG 2763  20.930  28.183   8.989
    7AU     LIG 2764  21.112  28.469   9.311
    7AU    AUSL 2765  19.768  27.434   6.757
    7AU    AUSL 2766  19.544  27.755   6.951
    7AU     AUL 2767  19.693  27.806   6.611
    7AU       S 2768  19.710  27.469   6.303
    7AU     LIG 2769  20.121  27.345   6.131
    7AU     LIG 2770  20.278  27.021   5.863
    7AU     LIG 2771  20.323  26.905   5.421
    7AU     LIG 2772  20.570  26.859   5.023
    7AU       S 2773  20.014  28.015   6.881
    7AU     LIG 2774  20.072  28.206   6.501
    7AU     LIG 2775  20.266  28.373   6.110
    7AU     LIG 2776  20.508  28.626   5.814
    7AU     LIG 2777  20.697  28.859   5.459
    7AU    AUSL 2778  19.544  27.102   6.598
    7AU    AUSL 2779  19.922  27.072   6.923
    7AU     AUL 2780  19.967  27.212   6.615
    7AU       S 2781  20.089  26.769   6.696
    7AU     LIG 2782  20.202  26.558   6.273
    7AU     LIG 2783  20.457  26.187   6.095
    7AU     LIG 2784  20.753  25.897   5.848
    7AU     LIG 2785  21.137  25.782   5.582
    7AU       S 2786  19.650  27.287   6.284
    7AU     LIG 2787  19.824  26.912   6.120
    7AU     LIG 2788  19.931  26.673   5.715
    7AU     LIG 2789  20.029  26.500   5.275
    7AU     LIG 2790  20.030  26.440   4.802
    7AU    AUSL 2791  19.347  27.485   6.680
    7AU    AUSL 2792  19.134  27.086   6.734
    7AU     AUL 2793  19.263  27.106   6.433
    7AU       S 2794  18.815  27.109   6.310
    7AU     LIG 2795  18.977  26.904   5.986
    7AU     LIG 2796  18.764  26.702   5.627
    7AU     LIG 2797  18.575  26.718   5.205
    7AU     LIG 2798  18.432  26.714   4.756
    7AU       S 2799  19.388  27.549   6.359
    7AU     LIG 2800  19.380  27.353   5.898
    7AU     LIG 2801  19.801  27.209   5.683
    7AU     LIG 2802  20.005  27.297   5.256
    7AU     LIG 2803  19.957  27.586   4.867
    7AU    AUSL 2804  18.725  27.428   8.264
    7AU    AUSL 2805  18.995  27.789   8.154
    7AU     AUL 2806  18.872  27.710   8.491
    7AU       S 2807  18.734  27.289   8.659
    7AU     LIG 2808  18.360  27.151   8.747
    7AU     LIG 2809  18.259  26.975   9.142
    7AU     LIG 2810  18.144  26.984   9.579
    7AU     LIG 2811  17.994  27.018  10.017
    7AU       S 2812  18.616  28.015   8.231
    7AU     LIG 2813  18.723  28.181   8.613
    7AU     LIG 2814  18.546  28.507   8.893
    7AU     LIG 2815  18.244  28.754   9.153
    7AU     LIG 2816  17.942  29.040   9.355
    7AU    AUSL 2817  19.027  27.149   8.165
    7AU    AUSL 2818  18.613  27.015   8.149
    7AU     AUL 2819  18.498  27.252   8.267
    7AU       S 2820  18.541  26.804   8.412
    7AU     LIG 2821  18.100  26.759   8.267
    7AU     LIG 2822  17.864  26.366   8.342
    7AU     LIG 2823  17.703  26.005   8.591
    7AU     LIG 2824  17.480  25.739   8.914
    7AU       S 2825  18.915  27.089   8.557
    7AU     LIG 2826  18.719  26.820   8.910
    7AU     LIG 2827  18.616  26.662   9.348
    7AU     LIG 2828  18.522  26.725   9.807
    7AU     LIG 2829  18.292  26.632  10.214
    7AU    AUSL 2830  18.709  27.152   6.784
    7AU    AUSL 2831  18.913  26.797   6.951
    7AU     AUL 2832  18.955  26.793   6.621
    7AU       S 2833  18.625  27.022   6.393
    7AU     LIG 2834  18.447  26.841   6.024
    7AU     LIG 2835  18.269  26.890   5.590
    7AU     LIG 2836  18.095  26.917   5.147
    7AU     LIG 2837  17.730  27.021   4.859
    7AU       S 2838  18.542  26.689   6.796
    7AU     LIG 2839  18.611  26.372   6.541
    7AU     LIG 2840  18.293  26.097   6.351
    7AU     LIG 2841  17.956  25.906   6.101
    7AU     LIG 2842  17.865  25.778   5.658
    7AU    AUSL 2843  18.937  27.464   6.597
    7AU    AUSL 2844  18.586  27.552   6.904
    7AU     AUL 2845  18.505  27.396   6.623
    7AU       S 2846  18.626  27.834   6.635
    7AU     LIG 2847  18.209  27.859   6.615
    7AU     LIG 2848  18.008  28.113   6.262
    7AU     LIG 2849  17.818  28.326   5.884
    7AU     LIG 2850  17.464  28.336   5.544
    7AU       S 2851  18.876  27.375   6.328
    7AU     LIG 2852  18.660  27.309   5.889
    7AU     LIG 2853  18.669  27.181   5.439
    7AU     LIG 2854  18.529  27.183   4.984
    7AU     LIG 2855  18.420  27.335   4.552
    7AU    AUSL 2856  20.039  27.780   7.508
    7AU    AUSL 2857  19.935  27.607   7.106
    7AU     AUL 2858  20.299  27.897   7.277
    7AU       S 2859  20.037  27.773   6.935
    7AU     LIG 2860  20.186  27.687   6.527
    7AU     LIG 2861  20.502  27.953   6.302
    7AU     LIG 2862  20.785  28.265   6.073
    7AU     LIG 2863  21.021  28.581   5.802
    7AU       S 2864  20.435  27.645   7.655
    7AU     LIG 2865  20.862  27.871   7.611
    7AU     LIG 2866  21.338  27.985   7.524
    7AU     LIG 2867  21.777  28.145   7.465
    7AU     LIG 2868  21.949  28.547   7.287
    7AU    AUSL 2869  20.200  27.377   7.343
    7AU    AUSL 2870  20.155  27.042   7.691
    7AU     AUL 2871  20.494  27.091   7.558
    7AU       S 2872  20.341  27.456   7.365
    7AU     LIG 2873  20.819  27.430   7.365
    7AU     LIG 2874  21.288  27.537   7.295
    7AU     LIG 2875  21.641  27.808   7.085
    7AU     LIG 2876  22.109  28.010   7.095
    7AU       S 2877  20.383  26.651   7.677
    7AU     LIG 2878  20.822  26.622   7.777
    7AU     LIG 2879  21.271  26.456   7.769
    7AU     LIG 2880  21.742  26.382   7.718
    7AU     LIG 2881  22.133  26.477   8.016
    7AU    AUSL 2882  19.955  27.413   7.712
    7AU    AUSL 2883  19.707  27.812   7.773
    7AU     AUL 2884  20.041  27.841   7.821
    7AU       S 2885  20.033  28.024   8.241
    7AU     LIG 2886  20.355  28.276   8.437
    7AU     LIG 2887  20.692  28.510   8.664
    7AU     LIG 2888  20.850  28.918   8.860
    7AU     LIG 2889  20.919  29.382   8.732
    7AU       S 2890  20.307  27.462   7.815
    7AU     LIG 2891  20.790  27.425   7.907
    7AU     LIG 2892  21.241  27.578   7.825
    7AU     LIG 2893  21.682  27.799   7.872
    7AU     LIG 2894  21.939  28.215   7.948
    7AU    AUSL 2895  18.592  27.846   7.514
    7AU    AUSL 2896  18.656  27.646   7.914
    7AU     AUL 2897  18.360  27.965   7.753
    7AU       S 2898  18.492  27.807   8.165
    7AU     LIG 2899  18.375  27.742   8.582
    7AU     LIG 2900  18.208  28.140   8.769
    7AU     LIG 2901  17.896  28.407   8.992
    7AU     LIG 2902  17.558  28.518   9.296
    7AU       S 2903  18.599  28.249   7.448
    7AU     LIG 2904  18.123  28.174   7.357
    7AU     LIG 2905  17.654  28.317   7.477
    7AU     LIG 2906  17.283  28.640   7.598
    7AU     LIG 2907  16.969  28.981   7.773
    7AU    AUSL 2908  18.532  27.468   7.308
    7AU    AUSL 2909  18.669  27.927   7.110
    7AU     AUL 2910  18.370  27.775   7.158
    7AU       S 2911  18.199  27.290   6.983
    7AU     LIG 2912  17.889  27.645   7.018
    7AU     LIG 2913  17.443  27.806   7.076
    7AU     LIG 2914  16.995  27.919   6.931
    7AU     LIG 2915  16.572  28.099   6.980
    7AU       S 2916  18.477  28.179   6.919
    7AU     LIG 2917  18.403  28.344   6.503
    7AU     LIG 2918  18.125  28.633   6.231
    7AU     LIG 2919  17.950  29.066   6.079
    7AU     LIG 2920  17.778  29.539   6.064
    7AU    AUSL 2921  18.330  27.513   7.694
    7AU    AUSL 2922  18.293  27.142   7.418
    7AU     AUL 2923  18.140  27.472   7.419
    7AU       S 2924  18.083  27.073   7.685
    7AU     LIG 2925  17.719  27.188   7.400
    7AU     LIG 2926  17.269  27.005   7.305
    7AU     LIG 2927  16.871  26.726   7.253
    7AU     LIG 2928  16.503  26.517   7.037
    7AU       S 2929  18.154  27.554   7.910
    7AU     LIG 2930  17.727  27.641   7.696
    7AU     LIG 2931  17.278  27.900   7.708
    7AU     LIG 2932  16.846  28.101   7.910
    7AU     LIG 2933  16.403  28.170   8.081
    7AU    AUSL 2934  19.922  26.712   7.534
    7AU    AUSL 2935  19.777  26.967   7.871
    7AU     AUL 2936  20.085  26.878   7.948
    7AU       S 2937  20.108  26.556   7.517
    7AU     LIG 2938  20.408  26.170   7.651
    7AU     LIG 2939  20.892  26.129   7.597
    7AU     LIG 2940  21.338  25.952   7.607
    7AU     LIG 2941  21.557  25.541   7.765
    7AU       S 2942  20.007  26.432   7.969
    7AU     LIG 2943  20.312  26.238   8.292
    7AU     LIG 2944  20.539  26.050   8.669
    7AU     LIG 2945  20.761  25.882   9.053
    7AU     LIG 2946  20.997  25.960   9.470
    7AU    AUSL 2947  19.899  27.091   7.338
    7AU    AUSL 2948  19.858  26.685   7.115
    7AU     AUL 2949  20.144  26.915   7.177
    7AU       S 2950  20.375  26.637   7.443
    7AU     LIG 2951  20.795  26.526   7.276
    7AU     LIG 2952  21.258  26.375   7.266
    7AU     LIG 2953  21.729  26.400   7.138
    7AU     LIG 2954  22.113  26.565   6.836
    7AU       S 2955  20.065  26.558   6.851
    7AU     LIG 2956  20.235  26.156   6.601
    7AU     LIG 2957  20.419  25.744   6.372
    7AU     LIG 2958  20.723  25.343   6.314
    7AU     LIG 2959  21.040  25.009   6.156
    7AU    AUSL 2960  18.494  26.781   7.574
    7AU    AUSL 2961  18.600  27.011   7.164
    7AU     AUL 2962  18.249  26.843   7.294
    7AU       S 2963  18.402  26.813   6.859
    7AU     LIG 2964  18.183  26.658   6.457
    7AU     LIG 2965  17.838  26.357   6.356
    7AU     LIG 2966  17.480  26.057   6.255
    7AU     LIG 2967  17.244  25.887   5.890
    7AU       S 2968  18.063  26.838   7.735
    7AU     LIG 2969  17.636  26.713   7.566
    7AU     LIG 2970  17.223  26.474   7.563
    7AU     LIG 2971  17.004  26.174   7.856
    7AU     LIG 2972  16.693  25.815   7.796
    7AU    AUSL 2973  18.556  27.165   7.764
    7AU    AUSL 2974  18.818  26.789   7.850
    7AU     AUL 2975  18.481  26.757   7.923
    7AU       S 2976  18.555  26.596   8.361
    7AU     LIG 2977  18.335  26.280   8.126
    7AU     LIG 2978  18.021  25.900   8.161
    7AU     LIG 2979  17.789  25.537   8.381
    7AU     LIG 2980  17.568  25.266   8.696
    7AU       S 2981  18.157  27.083   7.877
    7AU     LIG 2982  17.638  27.104   7.904
    7AU     LIG 2983  17.174  26.922   7.813
    7AU     LIG 2984  16.764  26.663   7.770
    7AU     LIG 2985  16.508  26.283   7.939
    7AU    AUSL 2986  19.285  27.979   7.908
    7AU    AUSL 2987  18.838  28.018   7.820
    7AU     AUL 2988  19.082  28.104   8.180
    7AU       S 2989  18.689  28.242   7.962
    7AU     LIG 2990  18.377  28.438   8.329
    7AU     LIG 2991  18.135  28.726   8.647
    7AU     LIG 2992  17.970  29.168   8.833
    7AU     LIG 2993  17.802  29.653   8.761
    7AU       S 2994  19.323  28.440   7.967
    7AU     LIG 2995  19.480  28.408   8.350
    7AU     LIG 2996  19.534  28.841   8.514
    7AU     LIG 2997  19.482  29.309   8.599
    7AU     LIG 2998  19.425  29.775   8.686
    7AU    AUSL 2999  19.113  28.231   7.596
    7AU    AUSL 3000  19.397  28.197   7.229
    7AU     AUL 3001  19.096  28.457   7.355
    7AU       S 3002  19.164  28.458   7.822
    7AU     LIG 3003  19.259  28.927   8.044
    7AU     LIG 3004  19.252  29.419   8.140
    7AU     LIG 3005  19.055  29.878   8.109
    7AU     LIG 3006  18.722  30.242   8.054
    7AU       S 3007  19.378  28.532   6.988
    7AU     LIG 3008  19.722  28.806   6.898
    7AU     LIG 3009  19.764  29.264   6.790
    7AU     LIG 3010  19.862  29.744   6.775
    7AU     LIG 3011  20.153  30.130   6.670
    7AU    AUSL 3012  19.554  28.171   7.624
    7AU    AUSL 3013  19.580  27.875   8.184
    7AU     AUL 3014  19.668  28.133   7.960
    7AU       S 3015  19.810  27.955   8.391
    7AU     LIG 3016  20.158  27.899   8.724
    7AU     LIG 3017  20.405  28.186   8.974
    7AU     LIG 3018  20.608  28.556   9.172
    7AU     LIG 3019  20.823  28.895   9.398
    7AU       S 3020  19.510  28.481   7.670
    7AU     LIG 3021  19.734  28.723   8.010
    7AU     LIG 3022  19.724  29.178   8.159
    7AU     LIG 3023  19.723  29.651   8.267
    7AU     LIG 3024  19.913  30.101   8.273
    7AU    AUSL 3025  19.194  26.567   7.938
    7AU    AUSL 3026  19.603  26.582   7.774
    7AU     AUL 3027  19.435  26.458   8.161
    7AU       S 3028  19.171  26.119   7.984
    7AU     LIG 3029  19.114  25.908   8.335
    7AU     LIG 3030  18.973  25.490   8.443
    7AU     LIG 3031  18.984  25.037   8.462
    7AU     LIG 3032  19.005  24.652   8.699
    7AU       S 3033  19.763  26.352   7.823
    7AU     LIG 3034  19.940  25.938   8.053
    7AU     LIG 3035  20.248  25.727   8.377
    7AU     LIG 3036  20.614  25.532   8.639
    7AU     LIG 3037  20.918  25.179   8.777
    7AU    AUSL 3038  18.877  26.427   7.656
    7AU    AUSL 3039  18.996  26.748   8.256
    7AU     AUL 3040  18.848  26.463   8.023
    7AU       S 3041  18.978  26.053   7.834
    7AU     LIG 3042  18.782  25.680   8.003
    7AU     LIG 3043  18.660  25.228   8.095
    7AU     LIG 3044  18.695  24.753   8.136
    7AU     LIG 3045  18.928  24.372   8.283
    7AU       S 3046  18.833  26.626   8.465
    7AU     LIG 3047  18.680  26.150   8.496
    7AU     LIG 3048  18.243  25.987   8.610
    7AU     LIG 3049  17.990  25.655   8.845
    7AU     LIG 3050  17.784  25.388   9.172
    7AU    AUSL 3051  19.308  26.342   7.593
    7AU    AUSL 3052  19.078  26.589   7.315
    7AU     AUL 3053  18.961  26.240   7.409
    7AU       S 3054  19.324  26.147   7.152
    7AU     LIG 3055  18.961  25.816   7.146
    7AU     LIG 3056  18.790  25.385   7.015
    7AU     LIG 3057  18.793  24.909   6.899
    7AU     LIG 3058  18.959  24.471   6.767
    7AU       S 3059  19.316  26.126   7.731
    7AU     LIG 3060  19.282  25.652   7.811
    7AU     LIG 3061  19.168  25.238   8.012
    7AU     LIG 3062  19.214  24.761   8.083
    7AU     LIG 3063  19.404  24.317   8.100
    7AU    AUSL 3064  19.227  28.018   6.866
    7AU    AUSL 3065  19.741  27.960   7.272
    7AU     AUL 3066  19.564  28.122   6.922
    7AU       S 3067  19.199  28.294   6.677
    7AU     LIG 3068  19.490  28.601   6.486
    7AU     LIG 3069  19.549  29.061   6.351
    7AU     LIG 3070  19.551  29.386   5.982
    7AU     LIG 3071  19.586  29.789   5.707
    7AU       S 3072  19.937  28.153   7.179
    7AU     LIG 3073  20.355  28.346   6.951
    7AU     LIG 3074  20.566  28.441   6.526
    7AU     LIG 3075  20.791  28.766   6.245
    7AU     LIG 3076  21.008  29.207   6.222
    7AU    AUSL 3077  19.046  27.966   7.286
    7AU    AUSL 3078  18.993  27.688   6.946
    7AU     AUL 3079  18.923  28.130   7.034
    7AU       S 3080  19.161  28.494   6.891
    7AU     LIG 3081  19.248  28.976   6.773
    7AU     LIG 3082  19.290  29.464   6.716
    7AU     LIG 3083  19.158  29.946   6.732
    7AU     LIG 3084  19.141  30.347   6.476
    7AU       S 3085  18.803  27.922   6.642
    7AU     LIG 3086  18.783  28.118   6.237
    7AU     LIG 3087  18.431  28.296   5.976
    7AU     LIG 3088  18.211  28.624   5.717
    7AU     LIG 3089  18.032  28.866   5.354
    7AU    AUSL 3090  19.261  26.556   6.921
    7AU    AUSL 3091  18.667  26.583   7.241
    7AU     AUL 3092  18.923  26.429   6.980
    7AU       S 3093  18.463  26.534   7.013
    7AU     LIG 3094  18.138  26.277   6.806
    7AU     LIG 3095  17.846  25.920   6.625
    7AU     LIG 3096  17.436  25.650   6.578
    7AU     LIG 3097  17.190  25.242   6.541
    7AU       S 3098  19.316  26.151   6.957
    7AU     LIG 3099  19.287  25.705   6.775
    7AU     LIG 3100  19.094  25.282   6.610
    7AU     LIG 3101  19.001  24.845   6.416
    7AU     LIG 3102  18.877  24.382   6.271
    7AU    AUSL 3103  19.506  26.564   7.298
    7AU    AUSL 3104  19.514  26.889   6.952
    7AU     AUL 3105  19.601  26.517   6.917
    7AU       S 3106  19.580  26.186   7.246
    7AU     LIG 3107  19.441  25.701   7.304
    7AU     LIG 3108  19.289  25.291   7.098
    7AU     LIG 3109  19.306  24.870   6.857
    7AU     LIG 3110  19.470  24.427   6.767
    7AU       S 3111  19.839  26.733   6.596
    7AU     LIG 3112  19.771  26.322   6.447
    7AU     LIG 3113  19.983  26.000   6.161
    7AU     LIG 3114  20.254  25.741   5.855
    7AU     LIG 3115  20.519  25.592   5.474
    8AU     AUC 3116  42.622  37.452   7.499
    8AU     AUC 3117  42.909  37.464   7.323
    8AU     AUC 3118  42.889  37.439   7.670
    8AU     AUC 3119  42.336  37.438   7.334
    8AU     AUC 3120  42.348  37.472   7.684
    8AU     AUC 3121  42.449  37.729   7.497
    8AU     AUC 3122  42.807  37.733   7.486
    8AU     AUC 3123  42.434  37.180   7.502
    8AU     AUC 3124  42.796  37.170   7.501
    8AU     AUC 3125  42.623  37.276   7.778
    8AU     AUC 3126  42.616  37.630   7.761
    8AU     AUC 3127  42.621  37.289   7.225
    8AU     AUC 3128  42.638  37.609   7.221
    8AU     AUC 3129  43.222  37.475   7.154
    8AU     AUC 3130  43.236  37.439   7.508
    8AU     AUC 3131  43.182  37.419   7.862
    8AU     AUC 3132  42.030  37.434   7.164
    8AU     AUC 3133  42.011  37.471   7.529
    8AU     AUC 3134  42.060  37.495   7.873
    8AU     AUC 3135  42.280  38.031   7.473
    8AU     AUC 3136  42.650  38.058   7.453
    8AU     AUC 3137  42.989  38.015   7.475
    8AU     AUC 3138  42.230  36.895   7.503
    8AU     AUC 3139  42.609  36.854   7.484
    8AU     AUC 3140  42.972  36.864   7.484
    8AU     AUC 3141  42.619  37.081   8.061
    8AU     AUC 3142  42.597  37.433   8.105
    8AU     AUC 3143  42.648  37.802   8.048
    8AU     AUC 3144  42.652  37.117   6.941
    8AU     AUC 3145  42.637  37.443   6.885
    8AU     AUC 3146  42.616  37.762   6.926
    8AU     AUC 3147  42.908  37.214   7.979
    8AU     AUC 3148  42.928  37.594   7.991
    8AU     AUC 3149  42.961  37.310   6.997
    8AU     AUC 3150  42.948  37.640   7.035
    8AU     AUC 3151  42.312  37.294   8.010
    8AU     AUC 3152  42.346  37.653   7.988
    8AU     AUC 3153  42.326  37.261   7.037
    8AU     AUC 3154  42.296  37.571   6.994
    8AU     AUC 3155  43.152  37.759   7.344
    8AU     AUC 3156  43.092  37.715   7.695
    8AU     AUC 3157  42.122  37.739   7.331
    8AU     AUC 3158  42.148  37.793   7.691
    8AU     AUC 3159  43.108  37.154   7.320
    8AU     AUC 3160  43.092  37.115   7.671
    8AU     AUC 3161  42.099  37.147   7.352
    8AU     AUC 3162  42.127  37.162   7.704
    8AU     AUC 3163  42.473  37.969   7.756
    8AU     AUC 3164  42.812  37.933   7.775
    8AU     AUC 3165  42.429  36.992   7.785
    8AU     AUC 3166  42.789  36.921   7.793
    8AU     AUC 3167  42.433  37.882   7.185
    8AU     AUC 3168  42.819  37.932   7.187
    8AU     AUC 3169  42.435  36.956   7.210
    8AU     AUC 3170  42.811  37.000   7.201
    8AU    AUSL 3171  43.149  37.333   8.251
    8AU    AUSL 3172  42.992  36.909   8.175
    8AU     AUL 3173  43.116  37.017   8.565
    8AU       S 3174  43.302  36.776   8.186
    8AU     LIG 3175  43.212  36.517   8.539
    8AU     LIG 3176  43.339  36.157   8.769
    8AU     LIG 3177  43.587  35.840   8.994
    8AU     LIG 3178  43.853  35.616   9.308
    8AU       S 3179  43.345  37.274   8.293
    8AU     LIG 3180  43.444  37.428   8.708
    8AU     LIG 3181  43.418  37.390   9.162
    8AU     LIG 3182  43.617  37.249   9.558
    8AU     LIG 3183  43.994  37.223   9.844
    8AU    AUSL 3184  42.724  37.216   8.281
    8AU    AUSL 3185  42.502  37.621   8.409
    8AU     AUL 3186  42.737  37.395   8.618
    8AU       S 3187  42.677  36.944   8.506
    8AU     LIG 3188  42.764  37.017   8.954
    8AU     LIG 3189  43.095  37.009   9.304
    8AU     LIG 3190  43.293  36.863   9.719
    8AU     LIG 3191  43.364  36.584  10.113
    8AU       S 3192  42.321  37.536   8.779
    8AU     LIG 3193  42.120  37.368   9.171
    8AU     LIG 3194  41.922  37.394   9.586
    8AU     LIG 3195  41.852  37.352  10.054
    8AU     LIG 3196  41.988  37.481  10.511
    8AU    AUSL 3197  42.827  37.618   8.152
    8AU    AUSL 3198  43.258  37.730   8.108
    8AU     AUL 3199  43.082  37.630   8.440
    8AU       S 3200  42.761  37.916   8.640
    8AU     LIG 3201  43.088  37.749   8.933
    8AU     LIG 3202  43.287  37.855   9.353
    8AU     LIG 3203  43.212  37.938   9.827
    8AU     LIG 3204  43.050  37.980  10.287
    8AU       S 3205  43.437  37.881   8.283
    8AU     LIG 3206  43.853  37.950   8.288
    8AU     LIG 3207  44.123  38.144   8.622
    8AU     LIG 3208  44.302  38.357   9.006
    8AU     LIG 3209  44.435  38.703   9.296
    8AU    AUSL 3210  43.178  37.589   6.777
    8AU    AUSL 3211  42.959  37.933   6.947
    8AU     AUL 3212  43.078  37.962   6.632
    8AU       S 3213  43.150  37.643   6.313
    8AU     LIG 3214  43.501  37.458   6.112
    8AU     LIG 3215  43.554  37.171   5.761
    8AU     LIG 3216  43.636  37.091   5.304
    8AU     LIG 3217  43.922  36.925   4.956
    8AU       S 3218  43.444  38.117   6.849
    8AU     LIG 3219  43.406  38.313   6.439
    8AU     LIG 3220  43.616  38.516   6.065
    8AU     LIG 3221  43.839  38.766   5.739
    8AU     LIG 3222  43.805  39.082   5.382
    8AU    AUSL 3223  42.947  37.267   6.605
    8AU    AUSL 3224  43.296  37.198   6.909
    8AU     AUL 3225  43.366  37.346   6.611
    8AU       S 3226  43.362  36.885   6.673
    8AU     LIG 3227  43.530  36.599   6.325
    8AU     LIG 3228  43.816  36.241   6.185
    8AU     LIG 3229  44.095  36.005   5.873
    8AU     LIG 3230  44.482  35.962   5.583
    8AU       S 3231  43.030  37.514   6.321
    8AU     LIG 3232  43.125  37.109   6.147
    8AU     LIG 3233  43.127  36.879   5.742
    8AU     LIG 3234  43.172  36.864   5.273
    8AU     LIG 3235  43.289  36.848   4.812
    8AU    AUSL 3236  42.750  37.630   6.729
    8AU    AUSL 3237  42.528  37.237   6.706
    8AU     AUL 3238  42.683  37.246   6.439
    8AU       S 3239  42.234  37.270   6.294
    8AU     LIG 3240  42.319  37.034   5.957
    8AU     LIG 3241  42.057  36.894   5.602
    8AU     LIG 3242  41.853  36.939   5.176
    8AU     LIG 3243  41.769  36.998   4.706
    8AU       S 3244  42.806  37.695   6.358
    8AU     LIG 3245  42.823  37.457   5.891
    8AU     LIG 3246  43.128  37.346   5.511
    8AU     LIG 3247  43.248  37.325   5.035
    8AU     LIG 3248  43.219  37.397   4.556
    8AU    AUSL 3249  42.125  37.552   8.205
    8AU    AUSL 3250  42.398  37.914   8.115
    8AU     AUL 3251  42.272  37.866   8.436
    8AU       S 3252  42.081  37.526   8.698
    8AU     LIG 3253  41.792  37.177   8.818
    8AU     LIG 3254  41.634  37.097   9.263
    8AU     LIG 3255  41.439  37.231   9.683
    8AU     LIG 3256  41.083  37.182   9.985
    8AU       S 3257  42.005  38.192   8.225
    8AU     LIG 3258  41.890  38.365   8.606
    8AU     LIG 3259  41.713  38.600   8.977
    8AU     LIG 3260  41.452  38.873   9.252
    8AU     LIG 3261  41.250  38.957   9.670
    8AU    AUSL 3262  42.317  37.226   8.395
    8AU    AUSL 3263  41.973  37.159   8.114
    8AU     AUL 3264  41.871  37.366   8.327
    8AU       S 3265  41.974  36.899   8.342
    8AU     LIG 3266  41.547  36.961   8.396
    8AU     LIG 3267  41.240  36.643   8.504
    8AU     LIG 3268  41.002  36.292   8.700
    8AU     LIG 3269  40.781  35.953   8.931
    8AU       S 3270  42.255  37.254   8.613
    8AU     LIG 3271  42.238  36.935   8.889
    8AU     LIG 3272  42.097  36.882   9.338
    8AU     LIG 3273  41.838  36.907   9.735
    8AU     LIG 3274  41.620  36.896  10.155
    8AU    AUSL 3275  42.120  37.339   6.769
    8AU    AUSL 3276  42.329  36.979   6.975
    8AU     AUL 3277  42.323  36.963   6.627
    8AU       S 3278  42.011  37.246   6.426
    8AU     LIG 3279  41.805  37.031   6.074
    8AU     LIG 3280  41.608  37.140   5.650
    8AU     LIG 3281  41.457  37.269   5.212
    8AU     LIG 3282  41.085  37.218   4.904
    8AU       S 3283  41.917  36.827   6.803
    8AU     LIG 3284  41.986  36.542   6.515
    8AU     LIG 3285  41.652  36.292   6.311
    8AU     LIG 3286  41.302  36.067   6.089
    8AU     LIG 3287  41.102  35.946   5.678
    8AU    AUSL 3288  42.369  37.640   6.566
    8AU    AUSL 3289  41.902  37.675   6.922
    8AU     AUL 3290  42.016  37.676   6.593
    8AU       S 3291  41.617  37.880   6.737
    8AU     LIG 3292  41.311  38.187   6.601
    8AU     LIG 3293  41.230  38.364   6.183
    8AU     LIG 3294  40.925  38.277   5.825
    8AU     LIG 3295  40.585  38.430   5.536
    8AU       S 3296  42.313  37.504   6.271
    8AU     LIG 3297  42.028  37.458   5.877
    8AU     LIG 3298  41.994  37.380   5.417
    8AU     LIG 3299  41.924  37.427   4.961
    8AU     LIG 3300  42.043  37.703   4.589
    8AU    AUSL 3301  43.387  37.959   7.532
    8AU    AUSL 3302  43.310  37.764   7.139
    8AU     AUL 3303  43.621  38.101   7.333
    8AU       S 3304  43.489  37.883   6.947
    8AU     LIG 3305  43.598  37.819   6.497
    8AU     LIG 3306  43.888  38.147   6.304
    8AU     LIG 3307  44.145  38.427   6.007
    8AU     LIG 3308  44.357  38.699   5.683
    8AU       S 3309  43.789  37.842   7.700
    8AU     LIG 3310  44.126  38.096   7.611
    8AU     LIG 3311  44.522  38.139   7.369
    8AU     LIG 3312  44.943  38.302   7.286
    8AU     LIG 3313   0.228  38.477   7.572
    8AU    AUSL 3314  43.598  37.568   7.372
    8AU    AUSL 3315  43.555  37.234   7.680
    8AU     AUL 3316  43.911  37.324   7.629
    8AU       S 3317  43.739  37.668   7.408
    8AU     LIG 3318  44.221  37.649   7.394
    8AU     LIG 3319  44.701  37.666   7.301
    8AU     LIG 3320   0.152  37.827   7.241
    8AU     LIG 3321   0.500  38.141   7.278
    8AU       S 3322  43.805  36.865   7.590
    8AU     LIG 3323  44.152  36.765   7.815
    8AU     LIG 3324  44.555  36.536   7.756
    8AU     LIG 3325   0.014  36.418   7.693
    8AU     LIG 3326   0.442  36.228   7.845
    8AU    AUSL 3327  43.327  37.585   7.725
    8AU    AUSL 3328  43.061  37.966   7.802
    8AU     AUL 3329  43.387  38.022   7.842
    8AU       S 3330  43.376  38.175   8.274
    8AU     LIG 3331  43.705  38.419   8.476
    8AU     LIG 3332  44.047  38.677   8.682
    8AU     LIG 3333  44.214  39.077   8.901
    8AU     LIG 3334  44.268  39.578   8.944
    8AU       S 3335  43.666  37.655   7.854
    8AU     LIG 3336  44.156  37.656   7.952
    8AU     LIG 3337  44.557  37.817   7.776
    8AU     LIG 3338  44.994  37.993   7.698
    8AU     LIG 3339   0.475  37.987   7.766
    8AU    AUSL 3340  41.949  38.027   7.523
    8AU    AUSL 3341  42.016  37.831   7.919
    8AU     AUL 3342  41.703  38.112   7.778
    8AU       S 3343  41.892  37.956   8.166
    8AU     LIG 3344  41.598  37.948   8.464
    8AU     LIG 3345  41.395  38.250   8.745
    8AU     LIG 3346  41.226  38.424   9.135
    8AU     LIG 3347  40.923  38.652   9.405
    8AU       S 3348  41.918  38.375   7.444
    8AU     LIG 3349  41.416  38.276   7.392
    8AU     LIG 3350  40.923  38.392   7.383
    8AU     LIG 3351  40.539  38.709   7.294
    8AU     LIG 3352  40.311  39.149   7.227
    8AU    AUSL 3353  41.921  37.640   7.334
    8AU    AUSL 3354  42.018  38.054   7.105
    8AU     AUL 3355  41.730  37.940   7.195
    8AU       S 3356  41.488  37.488   6.994
    8AU     LIG 3357  41.237  37.869   7.083
    8AU     LIG 3358  40.832  38.029   7.017
    8AU     LIG 3359  40.442  38.293   6.984
    8AU     LIG 3360  40.039  38.558   6.944
    8AU       S 3361  41.847  38.325   6.930
    8AU     LIG 3362  41.628  38.588   6.583
    8AU     LIG 3363  41.379  38.896   6.301
    8AU     LIG 3364  41.160  39.348   6.247
    8AU     LIG 3365  40.867  39.745   6.187
    8AU    AUSL 3366  41.700  37.660   7.713
    8AU    AUSL 3367  41.664  37.319   7.385
    8AU     AUL 3368  41.507  37.641   7.449
    8AU       S 3369  41.427  37.212   7.622
    8AU     LIG 3370  41.153  37.217   7.276
    8AU     LIG 3371  40.737  37.049   7.220
    8AU     LIG 3372  40.300  36.866   7.257
    8AU     LIG 3373  39.901  36.933   7.115
    8AU       S 3374  41.581  37.629   7.965
    8AU     LIG 3375  41.282  37.970   8.032
    8AU     LIG 3376  40.817  38.117   7.990
    8AU     LIG 3377  40.339  38.097   7.932
    8AU     LIG 3378  39.947  38.196   8.184
    8AU    AUSL 3379  43.334  36.895   7.527
    8AU    AUSL 3380  43.182  37.150   7.869
    8AU     AUL 3381  43.526  37.067   7.898
    8AU       S 3382  43.534  36.742   7.518
    8AU     LIG 3383  43.848  36.383   7.583
    8AU     LIG 3384  44.266  36.212   7.471
    8AU     LIG 3385  44.691  36.042   7.530
    8AU     LIG 3386  44.938  35.782   7.827
    8AU       S 3387  43.397  36.647   8.021
    8AU     LIG 3388  43.642  36.380   8.297
    8AU     LIG 3389  43.845  36.156   8.654
    8AU     LIG 3390  44.104  35.905   8.953
    8AU     LIG 3391  44.397  35.747   9.284
    8AU    AUSL 3392  43.311  37.269   7.319
    8AU    AUSL 3393  43.215  36.824   7.129
    8AU     AUL 3394  43.505  37.042   7.132
    8AU       S 3395  43.818  36.909   7.416
    8AU     LIG 3396  44.236  36.699   7.313
    8AU     LIG 3397  44.677  36.488   7.260
    8AU     LIG 3398   0.139  36.399   7.151
    8AU     LIG 3399   0.549  36.494   6.926
    8AU       S 3400  43.415  36.682   6.824
    8AU     LIG 3401  43.479  36.227   6.688
    8AU     LIG 3402  43.635  35.838   6.447
    8AU     LIG 3403  43.927  35.592   6.166
    8AU     LIG 3404  44.134  35.175   6.022
    8AU    AUSL 3405  41.834  36.950   7.530
    8AU    AUSL 3406  41.973  37.179   7.130
    8AU     AUL 3407  41.618  37.046   7.216
    8AU       S 3408  41.845  36.965   6.829
    8AU     LIG 3409  41.526  36.790   6.486
    8AU     LIG 3410  41.158  36.471   6.379
    8AU     LIG 3411  40.784  36.177   6.199
    8AU     LIG 3412  40.333  35.980   6.083
    8AU       S 3413  41.407  36.949   7.626
    8AU     LIG 3414  41.023  36.771   7.551
    8AU     LIG 3415  40.661  36.537   7.408
    8AU     LIG 3416  40.237  36.390   7.535
    8AU     LIG 3417  39.925  36.130   7.818
    8AU    AUSL 3418  41.931  37.315   7.733
    8AU    AUSL 3419  42.040  36.798   7.866
    8AU     AUL 3420  41.759  36.997   7.916
    8AU       S 3421  41.929  36.676   8.227
    8AU     LIG 3422  41.542  36.538   8.086
    8AU     LIG 3423  41.241  36.196   8.229
    8AU     LIG 3424  41.045  35.835   8.465
    8AU     LIG 3425  40.758  35.514   8.656
    8AU       S 3426  41.396  37.238   7.768
    8AU     LIG 3427  40.908  37.244   7.719
    8AU     LIG 3428  40.540  36.946   7.705
    8AU     LIG 3429  40.058  36.879   7.720
    8AU     LIG 3430  39.650  36.787   7.975
    8AU    AUSL 3431  42.665  38.170   7.906
    8AU    AUSL 3432  42.233  38.178   7.807
    8AU     AUL 3433  42.466  38.247   8.182
    8AU       S 3434  42.089  38.362   7.919
    8AU     LIG 3435  41.655  38.507   8.121
    8AU     LIG 3436  41.499  38.715   8.520
    8AU     LIG 3437  41.348  39.092   8.778
    8AU     LIG 3438  41.105  39.517   8.737
    8AU       S 3439  42.661  38.592   7.943
    8AU     LIG 3440  42.802  38.667   8.317
    8AU     LIG 3441  42.786  39.103   8.484
    8AU     LIG 3442  42.800  39.529   8.674
    8AU     LIG 3443  42.738  39.774   9.069
    8AU    AUSL 3444  42.503  38.379   7.556
    8AU    AUSL 3445  42.771  38.281   7.212
    8AU     AUL 3446  42.743  38.632   7.324
    8AU       S 3447  42.495  38.615   7.741
    8AU     LIG 3448  42.480  39.041   8.040
    8AU     LIG 3449  42.502  39.502   8.242
    8AU     LIG 3450  42.325  39.970   8.367
    8AU     LIG 3451  42.043  40.394   8.368
    8AU       S 3452  42.462  38.529   6.979
    8AU     LIG 3453  42.790  38.891   6.896
    8AU     LIG 3454  42.976  39.328   6.795
    8AU     LIG 3455  43.203  39.772   6.789
    8AU     LIG 3456  43.256  40.222   6.623
    8AU    AUSL 3457  42.944  38.316   7.607
    8AU    AUSL 3458  42.917  38.019   8.209
    8AU     AUL 3459  43.021  38.291   7.984
    8AU       S 3460  43.161  38.105   8.413
    8AU     LIG 3461  43.493  38.028   8.756
    8AU     LIG 3462  43.784  38.310   8.986
    8AU     LIG 3463  43.935  38.707   9.183
    8AU     LIG 3464  44.041  39.116   9.389
    8AU       S 3465  42.853  38.671   7.774
    8AU     LIG 3466  42.992  39.044   8.007
    8AU     LIG 3467  43.057  39.467   8.213
    8AU     LIG 3468  43.382  39.820   8.297
    8AU     LIG 3469  43.491  40.274   8.329
    8AU    AUSL 3470  42.643  36.694   8.011
    8AU    AUSL 3471  43.018  36.761   7.772
    8AU     AUL 3472  42.878  36.598   8.181
    8AU       S 3473  42.629  36.246   8.026
    8AU     LIG 3474  42.628  35.930   8.335
    8AU     LIG 3475  42.338  35.597   8.476
    8AU     LIG 3476  42.266  35.136   8.502
    8AU     LIG 3477  42.387  34.683   8.577
    8AU       S 3478  43.208  36.574   7.854
    8AU     LIG 3479  43.172  36.187   8.119
    8AU     LIG 3480  43.478  35.890   8.356
    8AU     LIG 3481  43.822  35.642   8.582
    8AU     LIG 3482  44.072  35.387   8.895
    8AU    AUSL 3483  42.391  36.750   7.650
    8AU    AUSL 3484  42.373  37.005   8.045
    8AU     AUL 3485  42.312  36.603   7.979
    8AU       S 3486  42.487  36.186   7.882
    8AU     LIG 3487  42.275  35.803   7.980
    8AU     LIG 3488  42.092  35.384   8.065
    8AU     LIG 3489  42.057  34.927   8.072
    8AU     LIG 3490  42.233  34.512   8.114
    8AU       S 3491  42.193  36.777   8.392
    8AU     LIG 3492  41.819  36.608   8.706
    8AU     LIG 3493  41.521  36.237   8.674
    8AU     LIG 3494  41.297  35.898   8.910
    8AU     LIG 3495  41.076  35.622   9.219
    8AU    AUSL 3496  42.731  36.498   7.623
    8AU    AUSL 3497  42.454  36.585   7.266
    8AU     AUL 3498  42.318  36.419   7.527
    8AU       S 3499  42.629  36.315   7.183
    8AU     LIG 3500  42.292  36.028   7.198
    8AU     LIG 3501  42.188  35.567   7.105
    8AU     LIG 3502  42.113  35.114   6.930
    8AU     LIG 3503  42.015  34.657   6.792
    8AU       S 3504  42.766  36.288   7.745
    8AU     LIG 3505  42.810  35.804   7.857
    8AU     LIG 3506  42.616  35.415   8.080
    8AU     LIG 3507  42.578  34.936   8.146
    8AU     LIG 3508  42.739  34.491   8.218
    8AU    AUSL 3509  42.587  38.099   6.849
    8AU    AUSL 3510  43.170  38.168   7.236
    8AU     AUL 3511  42.928  38.311   6.921
    8AU       S 3512  42.504  38.457   6.771
    8AU     LIG 3513  42.782  38.640   6.460
    8AU     LIG 3514  42.871  39.090   6.310
    8AU     LIG 3515  42.862  39.398   5.930
    8AU     LIG 3516  42.795  39.789   5.665
    8AU       S 3517  43.386  38.267   6.974
    8AU     LIG 3518  43.799  38.441   6.753
    8AU     LIG 3519  43.969  38.698   6.398
    8AU     LIG 3520  44.208  38.997   6.098
    8AU     LIG 3521  44.439  39.446   6.060
    8AU    AUSL 3522  42.393  38.108   7.257
    8AU    AUSL 3523  42.325  37.783   6.955
    8AU     AUL 3524  42.245  38.079   6.823
    8AU       S 3525  42.310  38.448   7.126
    8AU     LIG 3526  42.362  38.959   7.183
    8AU     LIG 3527  42.462  39.389   6.962
    8AU     LIG 3528  42.294  39.848   6.855
    8AU     LIG 3529  42.073  40.288   6.845
    8AU       S 3530  41.805  38.090   6.692
    8AU     LIG 3531  41.974  38.285   6.357
    8AU     LIG 3532  41.729  38.562   6.056
    8AU     LIG 3533  41.639  38.766   5.628
    8AU     LIG 3534  41.673  38.988   5.194
    8AU    AUSL 3535  42.648  36.711   6.898
    8AU    AUSL 3536  42.077  36.763   7.246
    8AU     AUL 3537  42.303  36.588   6.944
    8AU       S 3538  41.867  36.686   7.060
    8AU     LIG 3539  41.582  36.413   6.829
    8AU     LIG 3540  41.326  36.060   6.644
    8AU     LIG 3541  41.013  35.783   6.435
    8AU     LIG 3542  40.578  35.605   6.345
    8AU       S 3543  42.686  36.289   6.927
    8AU     LIG 3544  42.529  35.890   6.766
    8AU     LIG 3545  42.322  35.501   6.613
    8AU     LIG 3546  42.345  35.072   6.458
    8AU     LIG 3547  42.546  34.814   6.129
    8AU    AUSL 3548  42.845  36.754   7.309
    8AU    AUSL 3549  42.888  37.046   6.954
    8AU     AUL 3550  42.972  36.655   6.961
    8AU       S 3551  42.884  36.295   7.231
    8AU     LIG 3552  42.774  35.832   7.228
    8AU     LIG 3553  42.671  35.429   6.990
    8AU     LIG 3554  42.618  34.967   6.889
    8AU     LIG 3555  42.743  34.501   6.919
    8AU       S 3556  43.146  36.852   6.591
    8AU     LIG 3557  43.055  36.438   6.489
    8AU     LIG 3558  43.293  36.139   6.198
    8AU     LIG 3559  43.573  35.879   5.901
    8AU     LIG 3560  43.858  35.595   5.645
    9AU     AUC 3561  14.949   6.605   7.497
    9AU     AUC 3562  15.222   6.622   7.315
    9AU     AUC 3563  15.216   6.590   7.667
    9AU     AUC 3564  14.665   6.599   7.332
    9AU     AUC 3565  14.684   6.633   7.684
    9AU     AUC 3566  14.781   6.884   7.498
    9AU     AUC 3567  15.132   6.888   7.484
    9AU     AUC 3568  14.765   6.334   7.506
    9AU     AUC 3569  15.115   6.315   7.492
    9AU     AUC 3570  14.954   6.425   7.772
    9AU     AUC 3571  14.949   6.791   7.762
    9AU     AUC 3572  14.943   6.441   7.220
    9AU     AUC 3573  14.959   6.764   7.218
    9AU     AUC 3574  15.532   6.632   7.145
    9AU     AUC 3575  15.552   6.579   7.504
    9AU     AUC 3576  15.506   6.561   7.856
    9AU     AUC 3577  14.364   6.585   7.165
    9AU     AUC 3578  14.346   6.626   7.531
    9AU     AUC 3579  14.403   6.660   7.873
    9AU     AUC 3580  14.618   7.187   7.485
    9AU     AUC 3581  14.982   7.226   7.458
    9AU     AUC 3582  15.314   7.172   7.480
    9AU     AUC 3583  14.572   6.056   7.513
    9AU     AUC 3584  14.922   6.003   7.485
    9AU     AUC 3585  15.284   6.015   7.470
    9AU     AUC 3586  14.941   6.244   8.063
    9AU     AUC 3587  14.955   6.609   8.094
    9AU     AUC 3588  14.979   6.965   8.057
    9AU     AUC 3589  14.969   6.270   6.940
    9AU     AUC 3590  14.950   6.605   6.882
    9AU     AUC 3591  14.934   6.932   6.916
    9AU     AUC 3592  15.223   6.375   7.986
    9AU     AUC 3593  15.265   6.757   7.981
    9AU     AUC 3594  15.276   6.476   6.984
    9AU     AUC 3595  15.259   6.796   7.019
    9AU     AUC 3596  14.654   6.472   8.016
    9AU     AUC 3597  14.675   6.850   7.995
    9AU     AUC 3598  14.644   6.412   7.040
    9AU     AUC 3599  14.623   6.738   6.993
    9AU     AUC 3600  15.474   6.898   7.334
    9AU     AUC 3601  15.427   6.863   7.683
    9AU     AUC 3602  14.468   6.897   7.314
    9AU     AUC 3603  14.480   6.944   7.680
    9AU     AUC 3604  15.425   6.308   7.317
    9AU     AUC 3605  15.396   6.250   7.675
    9AU     AUC 3606  14.433   6.297   7.366
    9AU     AUC 3607  14.486   6.346   7.721
    9AU     AUC 3608  14.799   7.126   7.768
    9AU     AUC 3609  15.150   7.085   7.772
    9AU     AUC 3610  14.763   6.125   7.802
    9AU     AUC 3611  15.082   6.074   7.767
    9AU     AUC 3612  14.771   7.046   7.184
    9AU     AUC 3613  15.140   7.093   7.194
    9AU     AUC 3614  14.757   6.132   7.204
    9AU     AUC 3615  15.151   6.156   7.193
    9AU    AUSL 3616  15.485   6.488   8.227
    9AU    AUSL 3617  15.219   6.085   8.144
    9AU     AUL 3618  15.494   6.084   8.386
    9AU       S 3619  15.607   5.753   8.094
    9AU     LIG 3620  15.513   5.557   8.453
    9AU     LIG 3621  15.699   5.221   8.686
    9AU     LIG 3622  15.978   4.906   8.887
    9AU     LIG 3623  16.261   4.750   9.225
    9AU       S 3624  15.703   6.481   8.342
    9AU     LIG 3625  15.550   6.485   8.787
    9AU     LIG 3626  15.688   6.566   9.221
    9AU     LIG 3627  15.960   6.377   9.560
    9AU     LIG 3628  16.358   6.346   9.818
    9AU    AUSL 3629  15.085   6.411   8.394
    9AU    AUSL 3630  14.835   6.792   8.422
    9AU     AUL 3631  15.038   6.723   8.739
    9AU       S 3632  15.145   6.338   8.529
    9AU     LIG 3633  15.094   6.262   8.946
    9AU     LIG 3634  15.360   6.179   9.316
    9AU     LIG 3635  15.573   6.048   9.719
    9AU     LIG 3636  15.581   5.794  10.127
    9AU       S 3637  14.640   6.524   8.639
    9AU     LIG 3638  14.668   6.552   9.102
    9AU     LIG 3639  14.396   6.563   9.482
    9AU     LIG 3640  14.174   6.624   9.891
    9AU     LIG 3641  14.048   6.949  10.212
    9AU    AUSL 3642  15.154   6.783   8.156
    9AU    AUSL 3643  15.595   6.879   8.088
    9AU     AUL 3644  15.383   6.794   8.437
    9AU       S 3645  15.055   7.171   8.575
    9AU     LIG 3646  15.411   7.040   8.883
    9AU     LIG 3647  15.554   7.072   9.344
    9AU     LIG 3648  15.521   7.280   9.791
    9AU     LIG 3649  15.380   7.428  10.236
    9AU       S 3650  15.764   7.005   8.265
    9AU     LIG 3651  16.190   7.066   8.252
    9AU     LIG 3652  16.450   7.275   8.594
    9AU     LIG 3653  16.652   7.554   8.937
    9AU     LIG 3654  16.803   7.877   9.258
    9AU    AUSL 3655  15.473   6.753   6.752
    9AU    AUSL 3656  15.248   7.070   6.953
    9AU     AUL 3657  15.390   7.129   6.614
    9AU       S 3658  15.416   6.796   6.304
    9AU     LIG 3659  15.814   6.689   6.105
    9AU     LIG 3660  15.969   6.367   5.824
    9AU     LIG 3661  16.034   6.207   5.394
    9AU     LIG 3662  16.021   6.215   4.925
    9AU       S 3663  15.719   7.330   6.881
    9AU     LIG 3664  15.755   7.515   6.489
    9AU     LIG 3665  15.978   7.714   6.121
    9AU     LIG 3666  16.205   7.917   5.774
    9AU     LIG 3667  16.370   8.084   5.375
    9AU    AUSL 3668  15.250   6.420   6.592
    9AU    AUSL 3669  15.630   6.391   6.916
    9AU     AUL 3670  15.667   6.525   6.602
    9AU       S 3671  15.811   6.089   6.697
    9AU     LIG 3672  15.953   5.747   6.385
    9AU     LIG 3673  16.194   5.345   6.278
    9AU     LIG 3674  16.499   5.059   6.045
    9AU     LIG 3675  16.957   4.933   5.948
    9AU       S 3676  15.348   6.617   6.271
    9AU     LIG 3677  15.513   6.258   6.076
    9AU     LIG 3678  15.588   6.068   5.632
    9AU     LIG 3679  15.602   6.012   5.158
    9AU     LIG 3680  15.605   5.748   4.763
    9AU    AUSL 3681  15.051   6.802   6.679
    9AU    AUSL 3682  14.841   6.402   6.730
    9AU     AUL 3683  14.970   6.427   6.432
    9AU       S 3684  14.528   6.426   6.298
    9AU     LIG 3685  14.545   6.197   5.921
    9AU     LIG 3686  14.250   6.018   5.619
    9AU     LIG 3687  14.081   6.087   5.194
    9AU     LIG 3688  13.945   6.225   4.752
    9AU       S 3689  15.092   6.872   6.354
    9AU     LIG 3690  15.157   6.800   5.865
    9AU     LIG 3691  15.520   6.591   5.646
    9AU     LIG 3692  15.677   6.531   5.207
    9AU     LIG 3693  15.825   6.688   4.791
    9AU    AUSL 3694  14.431   6.733   8.264
    9AU    AUSL 3695  14.703   7.099   8.159
    9AU     AUL 3696  14.581   7.015   8.499
    9AU       S 3697  14.434   6.589   8.659
    9AU     LIG 3698  14.182   6.370   8.924
    9AU     LIG 3699  13.945   6.357   9.329
    9AU     LIG 3700  13.733   6.389   9.748
    9AU     LIG 3701  13.494   6.305  10.144
    9AU       S 3702  14.338   7.320   8.234
    9AU     LIG 3703  14.332   7.496   8.620
    9AU     LIG 3704  14.209   7.740   8.991
    9AU     LIG 3705  13.918   7.993   9.236
    9AU     LIG 3706  13.833   8.119   9.679
    9AU    AUSL 3707  14.733   6.454   8.163
    9AU    AUSL 3708  14.321   6.319   8.144
    9AU     AUL 3709  14.204   6.555   8.264
    9AU       S 3710  14.242   6.107   8.409
    9AU     LIG 3711  13.806   5.999   8.238
    9AU     LIG 3712  13.640   5.569   8.338
    9AU     LIG 3713  13.412   5.285   8.633
    9AU     LIG 3714  13.227   5.154   9.043
    9AU       S 3715  14.621   6.390   8.550
    9AU     LIG 3716  14.610   6.090   8.903
    9AU     LIG 3717  14.402   6.080   9.306
    9AU     LIG 3718  14.192   6.129   9.722
    9AU     LIG 3719  13.976   6.112  10.132
    9AU    AUSL 3720  14.416   6.463   6.778
    9AU    AUSL 3721  14.621   6.111   6.945
    9AU     AUL 3722  14.664   6.109   6.615
    9AU       S 3723  14.338   6.340   6.382
    9AU     LIG 3724  14.044   6.241   6.055
    9AU     LIG 3725  13.869   6.373   5.633
    9AU     LIG 3726  13.669   6.387   5.199
    9AU     LIG 3727  13.421   6.319   4.804
    9AU       S 3728  14.250   6.003   6.787
    9AU     LIG 3729  14.351   5.682   6.536
    9AU     LIG 3730  14.087   5.360   6.346
    9AU     LIG 3731  13.769   5.109   6.118
    9AU     LIG 3732  13.432   4.877   5.888
    9AU    AUSL 3733  14.640   6.780   6.597
    9AU    AUSL 3734  14.290   6.859   6.907
    9AU     AUL 3735  14.202   6.696   6.630
    9AU       S 3736  14.317   7.136   6.647
    9AU     LIG 3737  13.898   7.174   6.640
    9AU     LIG 3738  13.666   7.442   6.319
    9AU     LIG 3739  13.511   7.716   5.965
    9AU     LIG 3740  13.352   7.903   5.549
    9AU       S 3741  14.579   6.699   6.339
    9AU     LIG 3742  14.322   6.669   5.923
    9AU     LIG 3743  14.334   6.511   5.482
    9AU     LIG 3744  14.136   6.590   5.067
    9AU     LIG 3745  14.021   6.774   4.646
    9AU    AUSL 3746  15.745   7.091   7.507
    9AU    AUSL 3747  15.640   6.920   7.104
    9AU     AUL 3748  16.008   7.203   7.274
    9AU       S 3749  15.739   7.093   6.932
    9AU     LIG 3750  15.877   6.998   6.524
    9AU     LIG 3751  16.150   7.238   6.243
    9AU     LIG 3752  16.451   7.506   5.998
    9AU     LIG 3753  16.705   7.800   5.721
    9AU       S 3754  16.140   6.954   7.657
    9AU     LIG 3755  16.573   7.160   7.636
    9AU     LIG 3756  17.036   7.275   7.550
    9AU     LIG 3757  17.472   7.459   7.545
    9AU     LIG 3758  17.790   7.798   7.657
    9AU    AUSL 3759  15.907   6.691   7.339
    9AU    AUSL 3760  15.864   6.352   7.682
    9AU     AUL 3761  16.204   6.401   7.556
    9AU       S 3762  16.038   6.761   7.365
    9AU     LIG 3763  16.498   6.755   7.338
    9AU     LIG 3764  16.949   6.869   7.253
    9AU     LIG 3765  17.373   7.093   7.173
    9AU     LIG 3766  17.778   7.372   7.128
    9AU       S 3767  16.083   5.957   7.655
    9AU     LIG 3768  16.429   5.880   7.873
    9AU     LIG 3769  16.864   5.763   7.807
    9AU     LIG 3770  17.308   5.693   7.766
    9AU     LIG 3771  17.654   5.831   8.069
    9AU    AUSL 3772  15.662   6.722   7.709
    9AU    AUSL 3773  15.414   7.120   7.774
    9AU     AUL 3774  15.747   7.150   7.820
    9AU       S 3775  15.738   7.323   8.242
    9AU     LIG 3776  16.067   7.561   8.384
    9AU     LIG 3777  16.391   7.804   8.571
    9AU     LIG 3778  16.636   8.085   8.818
    9AU     LIG 3779  16.883   8.435   8.990
    9AU       S 3780  16.012   6.771   7.813
    9AU     LIG 3781  16.496   6.705   7.887
    9AU     LIG 3782  16.961   6.804   7.774
    9AU     LIG 3783  17.382   7.018   7.845
    9AU     LIG 3784  17.756   7.289   7.947
    9AU    AUSL 3785  14.292   7.159   7.519
    9AU    AUSL 3786  14.370   6.952   7.913
    9AU     AUL 3787  14.066   7.270   7.765
    9AU       S 3788  14.205   7.122   8.177
    9AU     LIG 3789  14.078   7.033   8.586
    9AU     LIG 3790  13.876   7.362   8.864
    9AU     LIG 3791  13.565   7.650   9.081
    9AU     LIG 3792  13.229   7.680   9.431
    9AU       S 3793  14.298   7.556   7.452
    9AU     LIG 3794  13.835   7.471   7.358
    9AU     LIG 3795  13.388   7.620   7.431
    9AU     LIG 3796  12.941   7.829   7.456
    9AU     LIG 3797  12.661   8.238   7.512
    9AU    AUSL 3798  14.237   6.782   7.312
    9AU    AUSL 3799  14.371   7.234   7.115
    9AU     AUL 3800  14.074   7.084   7.159
    9AU       S 3801  13.884   6.634   6.994
    9AU     LIG 3802  13.559   7.034   7.109
    9AU     LIG 3803  13.104   7.286   7.160
    9AU     LIG 3804  12.635   7.507   7.160
    9AU     LIG 3805  12.153   7.549   7.027
    9AU       S 3806  14.177   7.493   6.920
    9AU     LIG 3807  14.047   7.707   6.534
    9AU     LIG 3808  13.806   8.038   6.274
    9AU     LIG 3809  13.677   8.507   6.221
    9AU     LIG 3810  13.400   8.897   6.146
    9AU    AUSL 3811  14.039   6.818   7.703
    9AU    AUSL 3812  14.001   6.452   7.415
    9AU     AUL 3813  13.852   6.786   7.435
    9AU       S 3814  13.797   6.376   7.685
    9AU     LIG 3815  13.481   6.453   7.349
    9AU     LIG 3816  13.024   6.312   7.265
    9AU     LIG 3817  12.600   6.054   7.241
    9AU     LIG 3818  12.173   5.816   7.319
    9AU       S 3819  13.882   6.848   7.927
    9AU     LIG 3820  13.571   7.128   7.674
    9AU     LIG 3821  13.108   7.269   7.677
    9AU     LIG 3822  12.665   7.439   7.675
    9AU     LIG 3823  12.249   7.579   7.837
    9AU    AUSL 3824  15.629   6.026   7.523
    9AU    AUSL 3825  15.488   6.277   7.866
    9AU     AUL 3826  15.796   6.183   7.938
    9AU       S 3827  15.820   5.860   7.499
    9AU     LIG 3828  16.167   5.480   7.579
    9AU     LIG 3829  16.635   5.351   7.608
    9AU     LIG 3830  17.057   5.232   7.812
    9AU     LIG 3831  17.315   4.811   7.809
    9AU       S 3832  15.716   5.735   7.953
    9AU     LIG 3833  15.988   5.459   8.216
    9AU     LIG 3834  16.203   5.250   8.561
    9AU     LIG 3835  16.488   5.009   8.837
    9AU     LIG 3836  16.708   5.033   9.252
    9AU    AUSL 3837  15.605   6.407   7.332
    9AU    AUSL 3838  15.566   6.002   7.105
    9AU     AUL 3839  15.851   6.236   7.173
    9AU       S 3840  16.085   5.951   7.426
    9AU     LIG 3841  16.550   5.813   7.377
    9AU     LIG 3842  17.007   5.604   7.339
    9AU     LIG 3843  17.467   5.566   7.204
    9AU     LIG 3844  17.780   5.454   6.837
    9AU       S 3845  15.774   5.874   6.860
    9AU     LIG 3846  15.848   5.403   6.758
    9AU     LIG 3847  15.997   4.969   6.573
    9AU     LIG 3848  16.273   4.679   6.313
    9AU     LIG 3849  16.343   4.362   5.970
    9AU    AUSL 3850  14.204   6.088   7.568
    9AU    AUSL 3851  14.306   6.323   7.158
    9AU     AUL 3852  13.956   6.156   7.287
    9AU       S 3853  14.103   6.130   6.850
    9AU     LIG 3854  13.886   5.913   6.469
    9AU     LIG 3855  13.604   5.549   6.390
    9AU     LIG 3856  13.286   5.241   6.248
    9AU     LIG 3857  12.990   5.185   5.886
    9AU       S 3858  13.786   6.138   7.731
    9AU     LIG 3859  13.471   5.961   7.473
    9AU     LIG 3860  13.020   5.844   7.488
    9AU     LIG 3861  12.600   5.662   7.586
    9AU     LIG 3862  12.234   5.364   7.554
    9AU    AUSL 3863  14.268   6.470   7.759
    9AU    AUSL 3864  14.528   6.095   7.844
    9AU     AUL 3865  14.199   6.059   7.917
    9AU       S 3866  14.269   5.891   8.347
    9AU     LIG 3867  14.103   5.570   8.078
    9AU     LIG 3868  13.899   5.151   8.144
    9AU     LIG 3869  13.609   4.862   8.394
    9AU     LIG 3870  13.219   4.798   8.660
    9AU       S 3871  13.862   6.376   7.873
    9AU     LIG 3872  13.321   6.320   7.826
    9AU     LIG 3873  12.827   6.258   7.736
    9AU     LIG 3874  12.376   6.116   7.697
    9AU     LIG 3875  11.936   6.030   7.787
    9AU    AUSL 3876  14.993   7.282   7.907
    9AU    AUSL 3877  14.549   7.324   7.820
    9AU     AUL 3878  14.803   7.414   8.180
    9AU       S 3879  14.416   7.535   7.945
    9AU     LIG 3880  14.039   7.704   8.220
    9AU     LIG 3881  13.844   7.840   8.642
    9AU     LIG 3882  13.571   8.166   8.866
    9AU     LIG 3883  13.256   8.551   8.828
    9AU       S 3884  15.038   7.760   7.975
    9AU     LIG 3885  15.055   8.014   8.344
    9AU     LIG 3886  14.939   8.455   8.469
    9AU     LIG 3887  15.027   8.919   8.534
    9AU     LIG 3888  15.088   9.238   8.870
    9AU    AUSL 3889  14.823   7.543   7.601
    9AU    AUSL 3890  15.101   7.508   7.232
    9AU     AUL 3891  14.800   7.768   7.356
    9AU       S 3892  14.877   7.760   7.819
    9AU     LIG 3893  14.913   8.252   7.914
    9AU     LIG 3894  14.907   8.719   8.026
    9AU     LIG 3895  14.848   9.165   8.097
    9AU     LIG 3896  14.725   9.632   8.129
    9AU       S 3897  15.059   7.839   6.974
    9AU     LIG 3898  15.355   8.151   6.899
    9AU     LIG 3899  15.304   8.605   6.844
    9AU     LIG 3900  15.268   9.038   6.692
    9AU     LIG 3901  15.444   9.443   6.564
    9AU    AUSL 3902  15.262   7.481   7.627
    9AU    AUSL 3903  15.285   7.179   8.186
    9AU     AUL 3904  15.371   7.440   7.966
    9AU       S 3905  15.521   7.254   8.394
    9AU     LIG 3906  15.874   7.208   8.714
    9AU     LIG 3907  16.128   7.520   8.920
    9AU     LIG 3908  16.293   7.876   9.147
    9AU     LIG 3909  16.381   8.124   9.529
    9AU       S 3910  15.222   7.789   7.668
    9AU     LIG 3911  15.411   8.095   7.965
    9AU     LIG 3912  15.354   8.517   8.168
    9AU     LIG 3913  15.348   9.006   8.150
    9AU     LIG 3914  15.605   9.403   8.214
    9AU    AUSL 3915  14.907   5.877   7.931
    9AU    AUSL 3916  15.314   5.893   7.767
    9AU     AUL 3917  15.142   5.766   8.157
    9AU       S 3918  14.900   5.419   7.965
    9AU     LIG 3919  14.793   5.382   8.350
    9AU     LIG 3920  14.695   4.937   8.484
    9AU     LIG 3921  14.778   4.458   8.479
    9AU     LIG 3922  14.948   4.017   8.574
    9AU       S 3923  15.470   5.681   7.819
    9AU     LIG 3924  15.516   5.256   8.028
    9AU     LIG 3925  15.840   4.963   8.260
    9AU     LIG 3926  16.216   4.742   8.454
    9AU     LIG 3927  16.476   4.459   8.729
    9AU    AUSL 3928  14.589   5.734   7.648
    9AU    AUSL 3929  14.704   6.052   8.250
    9AU     AUL 3930  14.572   5.761   8.015
    9AU       S 3931  14.707   5.355   7.817
    9AU     LIG 3932  14.427   5.130   8.079
    9AU     LIG 3933  14.411   4.658   8.144
    9AU     LIG 3934  14.365   4.205   8.268
    9AU     LIG 3935  14.106   3.807   8.284
    9AU       S 3936  14.518   5.923   8.453
    9AU     LIG 3937  14.321   5.445   8.529
    9AU     LIG 3938  13.927   5.215   8.651
    9AU     LIG 3939  13.675   4.907   8.910
    9AU     LIG 3940  13.438   4.731   9.269
    9AU    AUSL 3941  15.020   5.656   7.582
    9AU    AUSL 3942  14.786   5.901   7.307
    9AU     AUL 3943  14.671   5.549   7.395
    9AU       S 3944  15.045   5.462   7.150
    9AU     LIG 3945  14.696   5.122   7.116
    9AU     LIG 3946  14.535   4.669   7.124
    9AU     LIG 3947  14.292   4.307   6.930
    9AU     LIG 3948  14.030   4.039   6.634
    9AU       S 3949  15.037   5.450   7.709
    9AU     LIG 3950  15.109   5.004   7.769
    9AU     LIG 3951  14.981   4.655   8.047
    9AU     LIG 3952  15.176   4.233   8.170
    9AU     LIG 3953  15.407   3.813   8.295
    9AU    AUSL 3954  14.929   7.331   6.869
    9AU    AUSL 3955  15.446   7.273   7.273
    9AU     AUL 3956  15.271   7.440   6.931
    9AU       S 3957  14.899   7.587   6.677
    9AU     LIG 3958  15.192   7.885   6.487
    9AU     LIG 3959  15.203   8.355   6.407
    9AU     LIG 3960  15.082   8.802   6.270
    9AU     LIG 3961  15.044   9.281   6.272
    9AU       S 3962  15.643   7.462   7.190
    9AU     LIG 3963  16.052   7.660   6.984
    9AU     LIG 3964  16.259   7.667   6.554
    9AU     LIG 3965  16.446   7.958   6.238
    9AU     LIG 3966  16.739   8.302   6.133
    9AU    AUSL 3967  14.748   7.279   7.289
    9AU    AUSL 3968  14.696   7.000   6.948
    9AU     AUL 3969  14.621   7.439   7.038
    9AU       S 3970  14.848   7.802   6.888
    9AU     LIG 3971  14.864   8.277   6.790
    9AU     LIG 3972  14.816   8.751   6.707
    9AU     LIG 3973  14.786   9.220   6.732
    9AU     LIG 3974  14.522   9.609   6.796
    9AU       S 3975  14.498   7.237   6.644
    9AU     LIG 3976  14.362   7.428   6.240
    9AU     LIG 3977  14.036   7.668   5.997
    9AU     LIG 3978  13.850   8.014   5.716
    9AU     LIG 3979  13.695   8.198   5.292
    9AU    AUSL 3980  14.971   5.872   6.914
    9AU    AUSL 3981  14.375   5.895   7.232
    9AU     AUL 3982  14.630   5.744   6.970
    9AU       S 3983  14.172   5.852   7.002
    9AU     LIG 3984  13.926   5.522   6.815
    9AU     LIG 3985  13.723   5.118   6.647
    9AU     LIG 3986  13.500   4.773   6.413
    9AU     LIG 3987  13.339   4.422   6.152
    9AU       S 3988  15.030   5.489   6.982
    9AU     LIG 3989  15.056   5.126   6.742
    9AU     LIG 3990  14.768   4.785   6.684
    9AU     LIG 3991  14.743   4.333   6.652
    9AU     LIG 3992  14.837   4.017   6.316
    9AU    AUSL 3993  15.214   5.884   7.290
    9AU    AUSL 3994  15.221   6.207   6.946
    9AU     AUL 3995  15.309   5.845   6.903
    9AU       S 3996  15.308   5.516   7.239
    9AU     LIG 3997  15.187   5.004   7.242
    9AU     LIG 3998  15.089   4.560   7.037
    9AU     LIG 3999  15.281   4.098   6.951
    9AU     LIG 4000  15.385   3.613   6.853
    9AU       S 4001  15.555   6.051   6.582
    9AU     LIG 4002  15.464   5.613   6.483
    9AU     LIG 4003  15.682   5.255   6.274
    9AU     LIG 4004  15.954   4.952   6.023
    9AU     LIG 4005  16.230   4.781   5.681
   10AU     AUC 4006  26.541  44.089   7.501
   10AU     AUC 4007  26.829  44.098   7.316
   10AU     AUC 4008  26.806  44.070   7.670
   10AU     AUC 4009  26.257  44.087   7.338
   10AU     AUC 4010  26.265  44.114   7.686
   10AU     AUC 4011  26.378  44.372   7.504
   10AU     AUC 4012  26.743  44.363   7.489
   10AU     AUC 4013  26.346  43.820   7.507
   10AU     AUC 4014  26.708  43.811   7.500
   10AU     AUC 4015  26.542  43.915   7.783
   10AU     AUC 4016  26.543  44.246   7.769
   10AU     AUC 4017  26.528  43.927   7.227
   10AU     AUC 4018  26.560  44.244   7.227
   10AU     AUC 4019  27.132  44.106   7.136
   10AU     AUC 4020  27.153  44.072   7.496
   10AU     AUC 4021  27.101  44.047   7.863
   10AU     AUC 4022  25.954  44.087   7.166
   10AU     AUC 4023  25.936  44.128   7.533
   10AU     AUC 4024  25.979  44.150   7.867
   10AU     AUC 4025  26.216  44.686   7.490
   10AU     AUC 4026  26.583  44.694   7.479
   10AU     AUC 4027  26.953  44.643   7.482
   10AU     AUC 4028  26.139  43.537   7.509
   10AU     AUC 4029  26.514  43.490   7.482
   10AU     AUC 4030  26.880  43.507   7.480
   10AU     AUC 4031  26.530  43.725   8.071
   10AU     AUC 4032  26.538  44.088   8.126
   10AU     AUC 4033  26.580  44.422   8.063
   10AU     AUC 4034  26.550  43.747   6.942
   10AU     AUC 4035  26.537  44.078   6.885
   10AU     AUC 4036  26.530  44.411   6.926
   10AU     AUC 4037  26.823  43.873   7.990
   10AU     AUC 4038  26.865  44.216   8.006
   10AU     AUC 4039  26.860  43.946   6.987
   10AU     AUC 4040  26.853  44.269   7.017
   10AU     AUC 4041  26.237  43.932   8.008
   10AU     AUC 4042  26.267  44.299   7.978
   10AU     AUC 4043  26.233  43.900   7.045
   10AU     AUC 4044  26.219  44.223   6.999
   10AU     AUC 4045  27.077  44.390   7.311
   10AU     AUC 4046  27.048  44.362   7.668
   10AU     AUC 4047  26.064  44.399   7.323
   10AU     AUC 4048  26.068  44.445   7.693
   10AU     AUC 4049  27.019  43.792   7.313
   10AU     AUC 4050  27.010  43.761   7.665
   10AU     AUC 4051  26.011  43.796   7.366
   10AU     AUC 4052  26.041  43.806   7.712
   10AU     AUC 4053  26.412  44.616   7.772
   10AU     AUC 4054  26.764  44.543   7.763
   10AU     AUC 4055  26.344  43.629   7.787
   10AU     AUC 4056  26.697  43.563   7.790
   10AU     AUC 4057  26.375  44.536   7.207
   10AU     AUC 4058  26.744  44.580   7.198
   10AU     AUC 4059  26.336  43.594   7.214
   10AU     AUC 4060  26.712  43.638   7.199
   10AU    AUSL 4061  27.085  43.931   8.264
   10AU    AUSL 4062  26.857  43.557   8.153
   10AU     AUL 4063  27.054  43.515   8.488
   10AU       S 4064  27.251  43.353   8.100
   10AU     LIG 4065  27.219  43.042   8.456
   10AU     LIG 4066  27.306  42.720   8.785
   10AU     LIG 4067  27.549  42.491   9.105
   10AU     LIG 4068  27.562  42.201   9.474
   10AU       S 4069  27.277  43.862   8.308
   10AU     LIG 4070  27.339  43.833   8.763
   10AU     LIG 4071  27.612  43.856   9.127
   10AU     LIG 4072  27.727  43.784   9.569
   10AU     LIG 4073  27.805  43.914  10.012
   10AU    AUSL 4074  26.650  43.903   8.304
   10AU    AUSL 4075  26.410  44.278   8.385
   10AU     AUL 4076  26.566  44.173   8.707
   10AU       S 4077  26.710  43.800   8.515
   10AU     LIG 4078  26.857  43.803   8.923
   10AU     LIG 4079  27.147  43.681   9.276
   10AU     LIG 4080  27.283  43.528   9.710
   10AU     LIG 4081  27.320  43.322  10.138
   10AU       S 4082  26.106  44.197   8.726
   10AU     LIG 4083  26.066  44.000   9.128
   10AU     LIG 4084  25.946  43.952   9.573
   10AU     LIG 4085  25.814  44.133   9.983
   10AU     LIG 4086  25.907  44.483  10.306
   10AU    AUSL 4087  26.833  44.297   8.366
   10AU    AUSL 4088  27.203  44.307   8.104
   10AU     AUL 4089  27.100  44.216   8.527
   10AU       S 4090  26.744  44.597   8.495
   10AU     LIG 4091  26.972  44.554   8.883
   10AU     LIG 4092  27.107  44.737   9.309
   10AU     LIG 4093  27.065  44.849   9.785
   10AU     LIG 4094  27.109  44.942  10.259
   10AU       S 4095  27.335  44.531   8.275
   10AU     LIG 4096  27.766  44.536   8.284
   10AU     LIG 4097  28.004  44.644   8.658
   10AU     LIG 4098  28.217  44.920   8.985
   10AU     LIG 4099  28.389   0.214   9.303
   10AU    AUSL 4100  27.064  44.224   6.741
   10AU    AUSL 4101  26.839  44.543   6.943
   10AU     AUL 4102  26.883  44.630   6.596
   10AU       S 4103  27.057  44.282   6.348
   10AU     LIG 4104  27.433  44.099   6.147
   10AU     LIG 4105  27.592  43.740   5.916
   10AU     LIG 4106  27.646  43.614   5.472
   10AU     LIG 4107  27.790  43.684   5.033
   10AU       S 4108  27.270  44.791   6.796
   10AU     LIG 4109  27.423  44.945   6.402
   10AU     LIG 4110  27.649   0.137   6.044
   10AU     LIG 4111  27.899   0.482   5.858
   10AU     LIG 4112  27.939   0.826   5.529
   10AU    AUSL 4113  26.839  43.886   6.602
   10AU    AUSL 4114  27.181  43.832   6.897
   10AU     AUL 4115  27.281  43.973   6.621
   10AU       S 4116  27.168  43.525   6.658
   10AU     LIG 4117  27.538  43.485   6.373
   10AU     LIG 4118  27.853  43.161   6.246
   10AU     LIG 4119  28.024  42.850   5.944
   10AU     LIG 4120  28.246  42.703   5.547
   10AU       S 4121  26.949  44.072   6.297
   10AU     LIG 4122  27.105  43.695   6.161
   10AU     LIG 4123  27.195  43.452   5.763
   10AU     LIG 4124  27.191  43.470   5.280
   10AU     LIG 4125  27.369  43.459   4.840
   10AU    AUSL 4126  26.638  44.258   6.688
   10AU    AUSL 4127  26.420  43.870   6.715
   10AU     AUL 4128  26.573  43.861   6.442
   10AU       S 4129  26.143  43.918   6.301
   10AU     LIG 4130  26.296  43.677   5.965
   10AU     LIG 4131  26.079  43.418   5.631
   10AU     LIG 4132  25.869  43.466   5.218
   10AU     LIG 4133  25.688  43.602   4.803
   10AU       S 4134  26.715  44.290   6.318
   10AU     LIG 4135  26.889  44.176   5.837
   10AU     LIG 4136  27.226  43.945   5.583
   10AU     LIG 4137  27.352  43.941   5.124
   10AU     LIG 4138  27.304  44.136   4.685
   10AU    AUSL 4139  26.058  44.184   8.155
   10AU    AUSL 4140  26.330  44.550   8.076
   10AU     AUL 4141  26.202  44.528   8.397
   10AU       S 4142  25.950  44.226   8.643
   10AU     LIG 4143  25.692  43.864   8.786
   10AU     LIG 4144  25.616  43.728   9.232
   10AU     LIG 4145  25.477  43.755   9.693
   10AU     LIG 4146  25.123  43.688  10.013
   10AU       S 4147  25.922  44.897   8.217
   10AU     LIG 4148  26.070   0.168   8.516
   10AU     LIG 4149  25.919   0.303   8.923
   10AU     LIG 4150  25.618   0.492   9.215
   10AU     LIG 4151  25.531   0.880   9.454
   10AU    AUSL 4152  26.238  43.877   8.394
   10AU    AUSL 4153  25.895  43.788   8.123
   10AU     AUL 4154  25.786  44.003   8.290
   10AU       S 4155  25.903  43.533   8.350
   10AU     LIG 4156  25.457  43.578   8.394
   10AU     LIG 4157  25.221  43.174   8.438
   10AU     LIG 4158  24.999  42.798   8.601
   10AU     LIG 4159  24.731  42.505   8.853
   10AU       S 4160  26.156  43.917   8.594
   10AU     LIG 4161  26.107  43.568   8.858
   10AU     LIG 4162  26.071  43.501   9.323
   10AU     LIG 4163  25.912  43.462   9.764
   10AU     LIG 4164  25.885  43.192  10.155
   10AU    AUSL 4165  26.005  43.945   6.783
   10AU    AUSL 4166  26.231  43.605   6.987
   10AU     AUL 4167  26.213  43.593   6.637
   10AU       S 4168  25.972  43.856   6.339
   10AU     LIG 4169  25.784  43.713   5.959
   10AU     LIG 4170  25.588  43.736   5.551
   10AU     LIG 4171  25.331  43.658   5.171
   10AU     LIG 4172  24.902  43.665   4.962
   10AU       S 4173  25.815  43.468   6.838
   10AU     LIG 4174  25.895  43.211   6.502
   10AU     LIG 4175  25.611  42.887   6.345
   10AU     LIG 4176  25.289  42.580   6.179
   10AU     LIG 4177  24.963  42.293   5.987
   10AU    AUSL 4178  26.227  44.268   6.606
   10AU    AUSL 4179  25.888  44.349   6.909
   10AU     AUL 4180  25.797  44.146   6.641
   10AU       S 4181  25.834  44.593   6.686
   10AU     LIG 4182  25.445  44.760   6.613
   10AU     LIG 4183  25.292   0.023   6.251
   10AU     LIG 4184  25.144   0.248   5.864
   10AU     LIG 4185  24.887   0.258   5.465
   10AU       S 4186  26.199  44.190   6.365
   10AU     LIG 4187  26.057  44.168   5.894
   10AU     LIG 4188  26.066  43.916   5.503
   10AU     LIG 4189  26.018  43.932   5.032
   10AU     LIG 4190  26.068  44.193   4.640
   10AU    AUSL 4191  27.346  44.583   7.477
   10AU    AUSL 4192  27.235  44.378   7.089
   10AU     AUL 4193  27.613  44.569   7.124
   10AU       S 4194  27.296  44.619   6.815
   10AU     LIG 4195  27.572  44.462   6.533
   10AU     LIG 4196  27.893  44.735   6.301
   10AU     LIG 4197  28.150   0.029   6.010
   10AU     LIG 4198  28.348   0.307   5.677
   10AU       S 4199  27.532  44.778   7.544
   10AU     LIG 4200  27.943  44.962   7.333
   10AU     LIG 4201  28.398  44.986   7.512
   10AU     LIG 4202  28.840   0.051   7.669
   10AU     LIG 4203  29.252   0.301   7.687
   10AU    AUSL 4204  27.517  44.204   7.363
   10AU    AUSL 4205  27.465  43.895   7.688
   10AU     AUL 4206  27.773  44.089   7.656
   10AU       S 4207  27.821  44.528   7.530
   10AU     LIG 4208  28.279  44.506   7.396
   10AU     LIG 4209  28.763  44.642   7.312
   10AU     LIG 4210  29.203  44.609   7.035
   10AU     LIG 4211  29.557  44.730   6.708
   10AU       S 4212  27.718  43.647   7.500
   10AU     LIG 4213  28.138  43.554   7.565
   10AU     LIG 4214  28.482  43.497   7.827
   10AU     LIG 4215  28.917  43.394   7.934
   10AU     LIG 4216  29.382  43.298   7.872
   10AU    AUSL 4217  27.220  44.235   7.692
   10AU    AUSL 4218  27.169  44.670   7.851
   10AU     AUL 4219  27.459  44.380   7.853
   10AU       S 4220  27.388  44.796   8.083
   10AU     LIG 4221  27.607  44.985   8.460
   10AU     LIG 4222  27.943   0.204   8.663
   10AU     LIG 4223  28.233   0.490   8.890
   10AU     LIG 4224  28.407   0.901   9.036
   10AU       S 4225  27.749  44.683   7.711
   10AU     LIG 4226  28.108  44.418   7.910
   10AU     LIG 4227  28.553  44.319   7.807
   10AU     LIG 4228  28.962  44.515   7.782
   10AU     LIG 4229  29.216  44.849   7.999
   10AU    AUSL 4230  25.860  44.679   7.528
   10AU    AUSL 4231  25.911  44.521   7.963
   10AU     AUL 4232  25.621  44.775   7.816
   10AU       S 4233  25.775  44.589   8.222
   10AU     LIG 4234  25.744  44.770   8.663
   10AU     LIG 4235  25.461   0.091   8.887
   10AU     LIG 4236  25.158   0.203   9.238
   10AU     LIG 4237  24.736   0.117   9.459
   10AU       S 4238  25.802   0.013   7.445
   10AU     LIG 4239  25.317  44.915   7.439
   10AU     LIG 4240  24.875   0.143   7.569
   10AU     LIG 4241  24.500   0.467   7.704
   10AU     LIG 4242  24.304   0.929   7.833
   10AU    AUSL 4243  25.850  44.302   7.319
   10AU    AUSL 4244  25.985  44.723   7.123
   10AU     AUL 4245  25.679  44.607   7.154
   10AU       S 4246  25.454  44.196   6.989
   10AU     LIG 4247  25.144  44.546   7.111
   10AU     LIG 4248  24.731  44.808   7.199
   10AU     LIG 4249  24.261   0.003   7.238
   10AU     LIG 4250  23.805   0.001   7.047
   10AU       S 4251  25.796   0.011   6.909
   10AU     LIG 4252  25.729   0.191   6.480
   10AU     LIG 4253  25.502   0.511   6.189
   10AU     LIG 4254  25.363   0.965   6.062
   10AU     LIG 4255  25.145   1.397   6.205
   10AU    AUSL 4256  25.646  44.322   7.710
   10AU    AUSL 4257  25.584  43.993   7.393
   10AU     AUL 4258  25.459  44.332   7.443
   10AU       S 4259  25.348  43.910   7.628
   10AU     LIG 4260  25.049  43.975   7.293
   10AU     LIG 4261  24.582  43.807   7.213
   10AU     LIG 4262  24.110  43.646   7.272
   10AU     LIG 4263  23.688  43.435   7.117
   10AU       S 4264  25.481  44.310   7.945
   10AU     LIG 4265  25.097  44.509   7.731
   10AU     LIG 4266  24.647  44.687   7.694
   10AU     LIG 4267  24.185  44.839   7.741
   10AU     LIG 4268  23.749  44.799   7.962
   10AU    AUSL 4269  27.259  43.539   7.527
   10AU    AUSL 4270  27.101  43.783   7.870
   10AU     AUL 4271  27.464  43.709   7.896
   10AU       S 4272  27.503  43.435   7.504
   10AU     LIG 4273  27.790  43.189   7.700
   10AU     LIG 4274  28.219  43.058   7.606
   10AU     LIG 4275  28.669  43.110   7.544
   10AU     LIG 4276  29.087  42.937   7.608
   10AU       S 4277  27.313  43.277   7.951
   10AU     LIG 4278  27.623  43.008   8.149
   10AU     LIG 4279  27.743  42.884   8.573
   10AU     LIG 4280  27.984  42.740   8.951
   10AU     LIG 4281  28.269  42.903   9.310
   10AU    AUSL 4282  27.238  43.901   7.303
   10AU    AUSL 4283  27.108  43.461   7.139
   10AU     AUL 4284  27.383  43.619   7.096
   10AU       S 4285  27.742  43.755   7.319
   10AU     LIG 4286  27.889  43.302   7.180
   10AU     LIG 4287  28.350  43.168   7.113
   10AU     LIG 4288  28.842  43.196   7.061
   10AU     LIG 4289  29.326  43.219   7.050
   10AU       S 4290  27.249  43.319   6.755
   10AU     LIG 4291  27.513  42.976   6.582
   10AU     LIG 4292  27.755  42.602   6.348
   10AU     LIG 4293  27.945  42.121   6.333
   10AU     LIG 4294  28.253  41.736   6.447
   10AU    AUSL 4295  25.723  43.607   7.537
   10AU    AUSL 4296  25.895  43.823   7.164
   10AU     AUL 4297  25.519  43.733   7.217
   10AU       S 4298  25.742  43.568   6.859
   10AU     LIG 4299  25.396  43.258   6.675
   10AU     LIG 4300  25.091  42.976   6.450
   10AU     LIG 4301  24.775  42.726   6.204
   10AU     LIG 4302  24.522  42.539   5.856
   10AU       S 4303  25.304  43.644   7.629
   10AU     LIG 4304  24.865  43.542   7.553
   10AU     LIG 4305  24.438  43.329   7.501
   10AU     LIG 4306  23.979  43.150   7.444
   10AU     LIG 4307  23.692  42.771   7.334
   10AU    AUSL 4308  25.843  43.958   7.748
   10AU    AUSL 4309  25.958  43.452   7.853
   10AU     AUL 4310  25.670  43.627   7.918
   10AU       S 4311  25.845  43.319   8.241
   10AU     LIG 4312  25.603  42.933   8.179
   10AU     LIG 4313  25.335  42.540   8.290
   10AU     LIG 4314  24.959  42.284   8.450
   10AU     LIG 4315  24.748  41.925   8.667
   10AU       S 4316  25.327  43.899   7.781
   10AU     LIG 4317  24.866  44.014   7.768
   10AU     LIG 4318  24.431  43.823   7.701
   10AU     LIG 4319  24.062  43.552   7.785
   10AU     LIG 4320  23.646  43.374   7.787
   10AU    AUSL 4321  26.606  44.859   7.999
   10AU    AUSL 4322  26.166  44.818   7.789
   10AU     AUL 4323  26.376  44.908   8.174
   10AU       S 4324  26.030   0.021   7.881
   10AU     LIG 4325  25.693   0.285   8.019
   10AU     LIG 4326  25.612   0.394   8.467
   10AU     LIG 4327  25.472   0.700   8.775
   10AU     LIG 4328  25.360   1.092   9.005
   10AU       S 4329  26.710   0.222   7.983
   10AU     LIG 4330  26.506   0.380   8.322
   10AU     LIG 4331  26.452   0.791   8.472
   10AU     LIG 4332  26.604   1.188   8.579
   10AU     LIG 4333  26.493   1.493   8.908
   10AU    AUSL 4334  26.469   0.047   7.618
   10AU    AUSL 4335  26.722  44.987   7.264
   10AU     AUL 4336  26.713   0.348   7.419
   10AU       S 4337  26.477   0.257   7.804
   10AU     LIG 4338  26.466   0.693   7.906
   10AU     LIG 4339  26.414   1.104   8.081
   10AU     LIG 4340  26.306   1.500   8.283
   10AU     LIG 4341  26.035   1.830   8.066
   10AU       S 4342  26.425   0.226   7.096
   10AU     LIG 4343  26.856   0.468   6.969
   10AU     LIG 4344  26.936   0.880   6.824
   10AU     LIG 4345  26.863   1.309   6.672
   10AU     LIG 4346  26.787   1.757   6.613
   10AU    AUSL 4347  26.835  44.805   7.636
   10AU    AUSL 4348  26.812  44.495   8.008
   10AU     AUL 4349  26.919  44.821   8.081
   10AU       S 4350  27.211  44.677   8.395
   10AU     LIG 4351  27.477  44.577   8.754
   10AU     LIG 4352  27.694  44.882   9.005
   10AU     LIG 4353  27.871   0.270   9.184
   10AU     LIG 4354  28.081   0.608   9.430
   10AU       S 4355  26.943   0.108   7.728
   10AU     LIG 4356  26.971   0.594   7.810
   10AU     LIG 4357  26.880   0.929   8.143
   10AU     LIG 4358  26.826   1.413   8.168
   10AU     LIG 4359  27.012   1.864   8.189
   10AU    AUSL 4360  26.537  43.308   8.008
   10AU    AUSL 4361  26.916  43.413   7.751
   10AU     AUL 4362  26.816  43.226   8.148
   10AU       S 4363  26.513  42.896   8.047
   10AU     LIG 4364  26.410  42.578   8.339
   10AU     LIG 4365  26.372  42.126   8.261
   10AU     LIG 4366  26.564  41.710   8.409
   10AU     LIG 4367  26.618  41.354   8.724
   10AU       S 4368  27.118  43.184   7.793
   10AU     LIG 4369  27.109  42.807   8.020
   10AU     LIG 4370  27.400  42.564   8.302
   10AU     LIG 4371  27.700  42.373   8.622
   10AU     LIG 4372  27.970  42.020   8.800
   10AU    AUSL 4373  26.310  43.387   7.644
   10AU    AUSL 4374  26.299  43.644   8.050
   10AU     AUL 4375  26.196  43.237   7.956
   10AU       S 4376  26.398  42.823   7.885
   10AU     LIG 4377  26.007  42.646   8.032
   10AU     LIG 4378  25.785  42.219   8.088
   10AU     LIG 4379  25.751  41.728   8.067
   10AU     LIG 4380  25.742  41.256   8.205
   10AU       S 4381  26.169  43.416   8.377
   10AU     LIG 4382  25.998  42.975   8.544
   10AU     LIG 4383  25.557  42.799   8.677
   10AU     LIG 4384  25.279  42.433   8.826
   10AU     LIG 4385  25.002  42.138   9.084
   10AU    AUSL 4386  26.646  43.124   7.618
   10AU    AUSL 4387  26.353  43.210   7.263
   10AU     AUL 4388  26.230  43.049   7.525
   10AU       S 4389  26.515  42.933   7.170
   10AU     LIG 4390  26.137  42.704   7.152
   10AU     LIG 4391  26.054  42.225   7.074
   10AU     LIG 4392  25.955  41.746   6.973
   10AU     LIG 4393  25.855  41.334   6.715
   10AU       S 4394  26.668  42.905   7.750
   10AU     LIG 4395  26.734  42.443   7.940
   10AU     LIG 4396  26.817  41.964   7.999
   10AU     LIG 4397  26.810  41.494   8.015
   10AU     LIG 4398  26.930  41.202   8.357
   10AU    AUSL 4399  26.530  44.821   6.901
   10AU    AUSL 4400  27.071  44.766   7.225
   10AU     AUL 4401  26.850  44.956   6.943
   10AU       S 4402  26.447   0.223   6.874
   10AU     LIG 4403  26.489   0.594   6.632
   10AU     LIG 4404  26.664   0.934   6.385
   10AU     LIG 4405  26.576   1.346   6.209
   10AU     LIG 4406  26.574   1.501   5.767
   10AU       S 4407  27.290  44.905   7.088
   10AU     LIG 4408  27.723  44.986   6.829
   10AU     LIG 4409  27.949   0.231   6.460
   10AU     LIG 4410  28.303   0.484   6.218
   10AU     LIG 4411  28.756   0.701   6.205
   10AU    AUSL 4412  26.349  44.782   7.312
   10AU    AUSL 4413  26.302  44.476   6.959
   10AU     AUL 4414  26.220  44.827   6.913
   10AU       S 4415  26.239   0.176   7.227
   10AU     LIG 4416  26.363   0.696   7.166
   10AU     LIG 4417  26.444   1.046   6.858
   10AU     LIG 4418  26.364   1.456   6.674
   10AU     LIG 4419  26.212   1.880   6.617
   10AU       S 4420  25.974  44.687   6.567
   10AU     LIG 4421  25.756  44.777   6.174
   10AU     LIG 4422  25.647   0.129   5.869
   10AU     LIG 4423  25.521   0.555   5.665
   10AU     LIG 4424  25.522   0.889   5.320
   10AU    AUSL 4425  26.547  43.337   6.898
   10AU    AUSL 4426  25.985  43.407   7.279
   10AU     AUL 4427  26.190  43.221   6.959
   10AU       S 4428  25.764  43.339   7.112
   10AU     LIG 4429  25.722  42.928   6.898
   10AU     LIG 4430  25.364  42.633   6.720
   10AU     LIG 4431  24.974  42.382   6.538
   10AU     LIG 4432  24.589  42.169   6.326
   10AU       S 4433  26.566  42.928   6.893
   10AU     LIG 4434  26.324  42.562   6.700
   10AU     LIG 4435  26.277  42.083   6.635
   10AU     LIG 4436  26.319  41.599   6.620
   10AU     LIG 4437  26.471  41.209   6.379
   10AU    AUSL 4438  26.734  43.396   7.313
   10AU    AUSL 4439  26.780  43.675   6.958
   10AU     AUL 4440  26.876  43.258   7.023
   10AU       S 4441  26.720  42.873   7.223
   10AU     LIG 4442  26.566  42.398   7.123
   10AU     LIG 4443  26.544  41.888   7.031
   10AU     LIG 4444  26.706  41.408   6.933
   10AU     LIG 4445  26.753  40.942   6.761
   10AU       S 4446  26.943  43.441   6.607
   10AU     LIG 4447  27.122  43.186   6.268
   10AU     LIG 4448  27.433  42.918   6.073
   10AU     LIG 4449  27.605  42.591   5.800
   10AU     LIG 4450  27.732  42.597   5.353
   11POPC   NC3 4451  12.145  13.391   9.818
   11POPC   PO4 4452  11.848  13.906   9.474
   11POPC   GL1 4453  11.979  13.548   9.197
   11POPC   GL2 4454  12.159  13.823   9.015
   11POPC   C1A 4455  12.230  13.371   8.827
   11POPC   D2A 4456  12.275  13.691   8.530
   11POPC   C3A 4457  12.194  13.720   8.118
   11POPC   C4A 4458  12.003  13.505   7.797
   11POPC   C1B 4459  11.793  13.753   8.779
   11POPC   C2B 4460  11.757  13.748   8.369
   11POPC   C3B 4461  11.792  13.963   7.937
   11POPC   C4B 4462  11.790  13.839   7.476
   12POPC   NC3 4463  22.385  13.667   9.634
   12POPC   PO4 4464  21.885  13.348   9.609
   12POPC   GL1 4465  22.014  13.667   9.255
   12POPC   GL2 4466  22.377  13.737   9.140
   12POPC   C1A 4467  21.954  13.786   8.805
   12POPC   D2A 4468  22.040  13.961   8.382
   12POPC   C3A 4469  22.014  13.735   7.958
   12POPC   C4A 4470  22.220  13.788   7.548
   12POPC   C1B 4471  22.476  13.782   8.711
   12POPC   C2B 4472  22.353  13.566   8.332
   12POPC   C3B 4473  22.497  13.527   7.910
   12POPC   C4B 4474  22.611  13.414   7.487
   13POPC   NC3 4475  38.297  18.175   9.470
   13POPC   PO4 4476  39.024  18.128   9.484
   13POPC   GL1 4477  38.758  18.302   9.177
   13POPC   GL2 4478  38.677  18.660   9.071
   13POPC   C1A 4479  38.533  18.234   8.816
   13POPC   D2A 4480  38.539  18.425   8.438
   13POPC   C3A 4481  38.558  18.136   8.157
   13POPC   C4A 4482  38.627  18.211   7.782
   13POPC   C1B 4483  38.250  18.676   8.776
   13POPC   C2B 4484  38.160  18.748   8.304
   13POPC   C3B 4485  38.198  18.449   7.943
   13POPC   C4B 4486  38.169  17.996   7.757
   14POPC   NC3 4487  32.474  39.286   9.700
   14POPC   PO4 4488  33.145  39.499   9.558
   14POPC   GL1 4489  32.855  39.337   9.231
   14POPC   GL2 4490  32.967  39.027   9.087
   14POPC   C1A 4491  32.696  39.339   8.799
   14POPC   D2A 4492  32.848  39.554   8.475
   14POPC   C3A 4493  32.939  39.380   8.085
   14POPC   C4A 4494  33.112  39.577   7.769
   14POPC   C1B 4495  33.120  38.924   8.725
   14POPC   C2B 4496  32.887  39.019   8.436
   14POPC   C3B 4497  32.797  38.886   8.085
   14POPC   C4B 4498  32.904  38.995   7.721
   15POPC   NC3 4499  29.307   1.613   9.428
   15POPC   PO4 4500  28.692   1.435   9.543
   15POPC   GL1 4501  28.967   1.423   9.107
   15POPC   GL2 4502  29.270   1.198   9.152
   15POPC   C1A 4503  29.312   1.526   8.740
   15POPC   D2A 4504  29.442   1.312   8.321
   15POPC   C3A 4505  29.291   1.359   7.886
   15POPC   C4A 4506  29.308   1.359   7.430
   15POPC   C1B 4507  29.527   1.034   8.843
   15POPC   C2B 4508  29.531   0.803   8.454
   15POPC   C3B 4509  29.571   0.833   8.025
   15POPC   C4B 4510  29.691   1.094   7.703
   16POPC   NC3 4511  12.846  38.876   9.444
   16POPC   PO4 4512  13.111  38.315   9.640
   16POPC   GL1 4513  12.836  38.301   9.225
   16POPC   GL2 4514  12.830  38.613   9.013
   16POPC   C1A 4515  12.690  38.178   8.786
   16POPC   D2A 4516  12.782  38.512   8.462
   16POPC   C3A 4517  12.817  38.474   8.053
   16POPC   C4A 4518  12.857  38.870   7.863
   16POPC   C1B 4519  13.139  38.381   8.774
   16POPC   C2B 4520  13.316  38.409   8.361
   16POPC   C3B 4521  13.302  38.276   7.928
   16POPC   C4B 4522  13.133  37.870   7.873
   17POPC   NC3 4523  16.262  42.443   9.316
   17POPC   PO4 4524  16.938  42.550   9.379
   17POPC   GL1 4525  16.752  42.529   8.993
   17POPC   GL2 4526  16.530  42.250   8.928
   17POPC   C1A 4527  16.849  42.479   8.575
   17POPC   D2A 4528  16.852  42.194   8.237
   17POPC   C3A 4529  17.096  42.282   7.887
   17POPC   C4A 4530  16.981  42.385   7.506
   17POPC   C1B 4531  16.338  42.455   8.564
   17POPC   C2B 4532  16.527  42.600   8.177
   17POPC   C3B 4533  16.555  42.367   7.794
   17POPC   C4B 4534  16.753  41.957   7.652
   18POPC   NC3 4535  31.364  40.221   9.412
   18POPC   PO4 4536  31.897  39.737   9.425
   18POPC   GL1 4537  31.605  39.868   9.139
   18POPC   GL2 4538  31.308  39.753   9.053
   18POPC   C1A 4539  31.615  40.118   8.767
   18POPC   D2A 4540  31.601  40.439   8.435
   18POPC   C3A 4541  31.523  40.249   8.023
   18POPC   C4A 4542  31.696  39.871   7.868
   18POPC   C1B 4543  31.135  39.946   8.725
   18POPC   C2B 4544  31.327  39.874   8.349
   18POPC   C3B 4545  31.180  39.839   7.953
   18POPC   C4B 4546  31.232  39.613   7.581
   19POPC   NC3 4547  27.089  23.188   9.477
   19POPC   PO4 4548  26.991  22.478   9.440
   19POPC   GL1 4549  26.896  22.723   9.106
   19POPC   GL2 4550  26.709  23.028   9.125
   19POPC   C1A 4551  26.793  22.791   8.682
   19POPC   D2A 4552  27.020  23.032   8.440
   19POPC   C3A 4553  27.117  23.036   8.007
   19POPC   C4A 4554  26.895  22.975   7.625
   19POPC   C1B 4555  26.689  23.329   8.754
   19POPC   C2B 4556  26.603  23.578   8.386
   19POPC   C3B 4557  26.727  23.370   7.987
   19POPC   C4B 4558  26.661  23.490   7.581
   20POPC   NC3 4559  10.394  26.724   9.766
   20POPC   PO4 4560  10.869  27.047   9.507
   20POPC   GL1 4561  10.567  27.055   9.160
   20POPC   GL2 4562  10.523  26.706   9.221
   20POPC   C1A 4563  10.405  26.930   8.731
   20POPC   D2A 4564  10.665  26.880   8.318
   20POPC   C3A 4565  10.476  27.005   7.924
   20POPC   C4A 4566  10.326  26.995   7.471
   20POPC   C1B 4567  10.664  26.521   8.811
   20POPC   C2B 4568  10.608  26.367   8.363
   20POPC   C3B 4569  10.590  26.509   7.933
   20POPC   C4B 4570  10.780  26.757   7.580
   21POPC   NC3 4571  22.253  41.396   9.393
   21POPC   PO4 4572  22.004  41.984   9.248
   21POPC   GL1 4573  22.068  41.708   8.980
   21POPC   GL2 4574  22.376  41.662   8.977
   21POPC   C1A 4575  22.058  41.697   8.565
   21POPC   D2A 4576  22.105  41.519   8.200
   21POPC   C3A 4577  22.036  41.814   7.928
   21POPC   C4A 4578  21.941  41.872   7.484
   21POPC   C1B 4579  22.288  41.272   8.737
   21POPC   C2B 4580  22.492  41.181   8.356
   21POPC   C3B 4581  22.456  41.282   7.915
   21POPC   C4B 4582  22.113  41.390   7.667
   22POPC   NC3 4583  24.840  31.283   9.187
   22POPC   PO4 4584  24.208  31.287   9.522
   22POPC   GL1 4585  24.289  31.240   9.113
   22POPC   GL2 4586  24.414  31.565   9.142
   22POPC   C1A 4587  24.353  31.150   8.667
   22POPC   D2A 4588  24.731  31.055   8.403
   22POPC   C3A 4589  24.778  31.287   8.004
   22POPC   C4A 4590  24.539  31.288   7.624
   22POPC   C1B 4591  24.183  31.644   8.797
   22POPC   C2B 4592  24.348  31.707   8.411
   22POPC   C3B 4593  24.323  31.634   7.998
   22POPC   C4B 4594  24.631  31.788   7.761
   23POPC   NC3 4595   2.519  21.071   9.782
   23POPC   PO4 4596   2.961  21.597   9.693
   23POPC   GL1 4597   2.808  21.493   9.284
   23POPC   GL2 4598   2.792  21.142   9.271
   23POPC   C1A 4599   2.642  21.617   8.854
   23POPC   D2A 4600   2.465  21.399   8.469
   23POPC   C3A 4601   2.585  21.547   8.051
   23POPC   C4A 4602   2.861  21.512   7.678
   23POPC   C1B 4603   2.720  21.107   8.813
   23POPC   C2B 4604   2.820  21.032   8.376
   23POPC   C3B 4605   2.691  21.056   7.938
   23POPC   C4B 4606   2.809  21.031   7.515
   24POPC   NC3 4607  35.697   6.805   9.420
   24POPC   PO4 4608  35.181   6.318   9.281
   24POPC   GL1 4609  35.392   6.651   9.045
   24POPC   GL2 4610  35.086   6.809   8.958
   24POPC   C1A 4611  35.519   6.832   8.633
   24POPC   D2A 4612  35.501   7.084   8.259
   24POPC   C3A 4613  35.427   6.917   7.852
   24POPC   C4A 4614  35.530   6.606   7.547
   24POPC   C1B 4615  35.168   6.460   8.635
   24POPC   C2B 4616  35.346   6.392   8.245
   24POPC   C3B 4617  35.168   6.452   7.857
   24POPC   C4B 4618  35.127   6.323   7.407
   25POPC   NC3 4619  21.123  17.498   9.499
   25POPC   PO4 4620  21.448  18.063   9.660
   25POPC   GL1 4621  21.378  17.866   9.220
   25POPC   GL2 4622  21.693  17.855   9.069
   25POPC   C1A 4623  21.285  17.681   8.771
   25POPC   D2A 4624  21.102  17.348   8.480
   25POPC   C3A 4625  21.196  17.301   8.033
   25POPC   C4A 4626  21.083  17.515   7.666
   25POPC   C1B 4627  21.802  17.715   8.648
   25POPC   C2B 4628  21.570  17.562   8.300
   25POPC   C3B 4629  21.508  17.691   7.872
   25POPC   C4B 4630  21.551  17.397   7.512
   26POPC   NC3 4631  12.200  10.295   9.539
   26POPC   PO4 4632  11.903  10.848   9.517
   26POPC   GL1 4633  11.969  10.587   9.167
   26POPC   GL2 4634  11.795  10.249   9.229
   26POPC   C1A 4635  12.079  10.743   8.733
   26POPC   D2A 4636  12.231  10.656   8.304
   26POPC   C3A 4637  12.234  10.688   7.846
   26POPC   C4A 4638  12.060  10.438   7.514
   26POPC   C1B 4639  11.651  10.118   8.831
   26POPC   C2B 4640  11.719  10.357   8.450
   26POPC   C3B 4641  11.858  10.306   8.041
   26POPC   C4B 4642  11.790  10.032   7.712
   27POPC   NC3 4643   4.086  20.966   9.702
   27POPC   PO4 4644   4.391  20.412   9.473
   27POPC   GL1 4645   4.276  20.608   9.140
   27POPC   GL2 4646   4.447  20.906   9.106
   27POPC   C1A 4647   4.226  20.445   8.747
   27POPC   D2A 4648   4.374  20.600   8.374
   27POPC   C3A 4649   4.292  20.408   8.010
   27POPC   C4A 4650   3.992  20.533   7.717
   27POPC   C1B 4651   4.667  20.871   8.708
   27POPC   C2B 4652   4.676  21.025   8.262
   27POPC   C3B 4653   4.388  20.889   7.942
   27POPC   C4B 4654   4.448  20.696   7.536
   28POPC   NC3 4655  16.567  34.790   9.406
   28POPC   PO4 4656  16.678  34.117   9.312
   28POPC   GL1 4657  16.760  34.459   9.046
   28POPC   GL2 4658  16.439  34.613   8.946
   28POPC   C1A 4659  16.906  34.592   8.652
   28POPC   D2A 4660  16.694  34.639   8.262
   28POPC   C3A 4661  16.915  34.717   7.877
   28POPC   C4A 4662  17.195  34.978   7.659
   28POPC   C1B 4663  16.500  34.255   8.658
   28POPC   C2B 4664  16.420  34.149   8.241
   28POPC   C3B 4665  16.608  34.307   7.877
   28POPC   C4B 4666  16.525  34.466   7.456
   29POPC   NC3 4667  22.434  42.106   9.377
   29POPC   PO4 4668  21.848  42.433   9.622
   29POPC   GL1 4669  21.922  42.480   9.157
   29POPC   GL2 4670  22.284  42.480   9.070
   29POPC   C1A 4671  21.952  42.459   8.701
   29POPC   D2A 4672  22.269  42.671   8.424
   29POPC   C3A 4673  22.141  42.639   7.994
   29POPC   C4A 4674  21.981  42.294   7.752
   29POPC   C1B 4675  22.343  42.141   8.715
   29POPC   C2B 4676  22.142  42.155   8.319
   29POPC   C3B 4677  22.413  42.178   7.993
   29POPC   C4B 4678  22.412  41.947   7.633
   30POPC   NC3 4679  40.736  27.819   9.793
   30POPC   PO4 4680  40.564  27.752   9.170
   30POPC   GL1 4681  40.770  27.461   8.970
   30POPC   GL2 4682  41.032  27.600   8.819
   30POPC   C1A 4683  40.626  27.592   8.547
   30POPC   D2A 4684  40.392  27.559   8.239
   30POPC   C3A 4685  40.724  27.577   8.015
   30POPC   C4A 4686  40.725  27.556   7.638
   30POPC   C1B 4687  41.247  27.198   8.736
   30POPC   C2B 4688  41.478  27.213   8.351
   30POPC   C3B 4689  41.230  27.452   8.064
   30POPC   C4B 4690  41.169  27.847   7.836
   31POPC   NC3 4691   3.169   0.215   9.392
   31POPC   PO4 4692   2.591   0.566   9.654
   31POPC   GL1 4693   2.874   0.571   9.243
   31POPC   GL2 4694   2.759   0.169   9.087
   31POPC   C1A 4695   2.972   0.491   8.784
   31POPC   D2A 4696   2.771   0.496   8.407
   31POPC   C3A 4697   2.921   0.494   8.014
   31POPC   C4A 4698   2.650   0.652   7.737
   31POPC   C1B 4699   2.507   0.160   8.669
   31POPC   C2B 4700   2.625   0.022   8.258
   31POPC   C3B 4701   2.486   0.000   7.836
   31POPC   C4B 4702   2.446   0.264   7.463
   32POPC   NC3 4703  26.928   4.055   9.492
   32POPC   PO4 4704  26.896   4.747   9.442
   32POPC   GL1 4705  26.860   4.462   9.120
   32POPC   GL2 4706  26.554   4.312   9.255
   32POPC   C1A 4707  26.994   4.433   8.675
   32POPC   D2A 4708  26.938   4.622   8.235
   32POPC   C3A 4709  27.176   4.505   7.834
   32POPC   C4A 4710  27.237   4.337   7.375
   32POPC   C1B 4711  26.514   4.218   8.835
   32POPC   C2B 4712  26.592   4.249   8.407
   32POPC   C3B 4713  26.522   4.383   7.990
   32POPC   C4B 4714  26.779   4.195   7.682
   33POPC   NC3 4715  41.090  26.460   9.348
   33POPC   PO4 4716  41.697  26.830   9.459
   33POPC   GL1 4717  41.446  26.769   9.110
   33POPC   GL2 4718  41.592  26.447   9.067
   33POPC   C1A 4719  41.650  26.866   8.714
   33POPC   D2A 4720  41.940  26.700   8.400
   33POPC   C3A 4721  41.765  26.749   7.993
   33POPC   C4A 4722  41.525  27.096   7.827
   33POPC   C1B 4723  41.330  26.459   8.711
   33POPC   C2B 4724  41.293  26.717   8.330
   33POPC   C3B 4725  41.289  26.647   7.868
   33POPC   C4B 4726  41.216  26.873   7.467
   34POPC   NC3 4727  25.701  29.120   9.398
   34POPC   PO4 4728  26.264  28.800   9.495
   34POPC   GL1 4729  26.138  29.044   9.125
   34POPC   GL2 4730  26.192  29.385   9.030
   34POPC   C1A 4731  26.061  28.924   8.719
   34POPC   D2A 4732  26.316  28.818   8.369
   34POPC   C3A 4733  26.109  29.035   8.052
   34POPC   C4A 4734  26.117  29.073   7.626
   34POPC   C1B 4735  25.831  29.398   8.755
   34POPC   C2B 4736  25.765  29.361   8.305
   34POPC   C3B 4737  25.829  29.425   7.862
   34POPC   C4B 4738  25.842  29.449   7.410
   35POPC   NC3 4739  34.805  36.390   9.473
   35POPC   PO4 4740  34.577  37.067   9.528
   35POPC   GL1 4741  34.749  36.810   9.194
   35POPC   GL2 4742  34.441  36.588   9.142
   35POPC   C1A 4743  34.756  36.729   8.753
   35POPC   D2A 4744  34.614  37.042   8.448
   35POPC   C3A 4745  34.654  36.994   8.045
   35POPC   C4A 4746  34.478  37.323   7.798
   35POPC   C1B 4747  34.260  36.857   8.768
   35POPC   C2B 4748  34.119  36.916   8.311
   35POPC   C3B 4749  34.172  36.907   7.863
   35POPC   C4B 4750  34.134  36.612   7.526
   36POPC   NC3 4751  22.946   3.284   9.476
   36POPC   PO4 4752  22.521   3.800   9.633
   36POPC   GL1 4753  22.816   3.734   9.244
   36POPC   GL2 4754  22.858   3.421   9.013
   36POPC   C1A 4755  22.961   3.857   8.807
   36POPC   D2A 4756  22.938   3.636   8.405
   36POPC   C3A 4757  22.922   3.868   8.007
   36POPC   C4A 4758  22.895   3.754   7.568
   36POPC   C1B 4759  22.569   3.237   8.734
   36POPC   C2B 4760  22.665   3.193   8.310
   36POPC   C3B 4761  22.938   3.041   8.006
   36POPC   C4B 4762  22.690   3.093   7.652
   37POPC   NC3 4763  34.347  16.715   9.479
   37POPC   PO4 4764  35.015  16.541   9.453
   37POPC   GL1 4765  34.669  16.550   9.116
   37POPC   GL2 4766  34.574  16.903   9.041
   37POPC   C1A 4767  34.477  16.551   8.678
   37POPC   D2A 4768  34.419  16.849   8.308
   37POPC   C3A 4769  34.603  16.747   7.882
   37POPC   C4A 4770  34.436  16.609   7.495
   37POPC   C1B 4771  34.831  16.929   8.637
   37POPC   C2B 4772  34.914  17.021   8.198
   37POPC   C3B 4773  34.933  17.151   7.770
   37POPC   C4B 4774  34.599  17.193   7.472
   38POPC   NC3 4775   5.239  43.940   9.552
   38POPC   PO4 4776   5.379  43.422   9.218
   38POPC   GL1 4777   5.192  43.817   9.050
   38POPC   GL2 4778   4.871  43.993   9.172
   38POPC   C1A 4779   5.150  43.770   8.615
   38POPC   D2A 4780   4.806  43.599   8.364
   38POPC   C3A 4781   4.949  43.616   7.950
   38POPC   C4A 4782   5.318  43.780   7.710
   38POPC   C1B 4783   4.891  44.192   8.757
   38POPC   C2B 4784   4.924  44.106   8.300
   38POPC   C3B 4785   4.835  44.103   7.868
   38POPC   C4B 4786   4.928  43.932   7.440
   39POPC   NC3 4787  27.800  36.270   9.498
   39POPC   PO4 4788  27.192  36.448   9.315
   39POPC   GL1 4789  27.281  36.138   9.021
   39POPC   GL2 4790  27.624  36.203   9.032
   39POPC   C1A 4791  27.451  36.056   8.590
   39POPC   D2A 4792  27.558  36.218   8.209
   39POPC   C3A 4793  27.277  36.058   7.924
   39POPC   C4A 4794  27.239  35.640   7.786
   39POPC   C1B 4795  27.909  36.316   8.676
   39POPC   C2B 4796  28.124  36.343   8.279
   39POPC   C3B 4797  27.899  36.455   7.904
   39POPC   C4B 4798  27.552  36.370   7.662
   40POPC   NC3 4799  36.623  30.514   9.381
   40POPC   PO4 4800  37.028  31.008   9.619
   40POPC   GL1 4801  36.918  30.920   9.189
   40POPC   GL2 4802  37.012  30.579   9.074
   40POPC   C1A 4803  36.767  31.056   8.816
   40POPC   D2A 4804  36.684  31.011   8.414
   40POPC   C3A 4805  37.018  30.961   8.139
   40POPC   C4A 4806  36.968  30.877   7.722
   40POPC   C1B 4807  36.924  30.605   8.656
   40POPC   C2B 4808  36.756  30.436   8.322
   40POPC   C3B 4809  36.929  30.421   7.931
   40POPC   C4B 4810  36.739  30.307   7.517
   41POPC   NC3 4811  37.090  43.041   9.292
   41POPC   PO4 4812  37.721  42.889   9.467
   41POPC   GL1 4813  37.570  43.034   9.106
   41POPC   GL2 4814  37.446  43.369   9.180
   41POPC   C1A 4815  37.496  43.009   8.684
   41POPC   D2A 4816  37.707  43.184   8.334
   41POPC   C3A 4817  37.810  42.854   8.068
   41POPC   C4A 4818  37.701  42.990   7.667
   41POPC   C1B 4819  37.299  43.466   8.768
   41POPC   C2B 4820  37.340  43.553   8.323
   41POPC   C3B 4821  37.430  43.439   7.883
   41POPC   C4B 4822  37.446  43.356   7.423
   42POPC   NC3 4823  21.695  28.096   9.868
   42POPC   PO4 4824  22.221  27.720   9.703
   42POPC   GL1 4825  22.342  27.458   9.341
   42POPC   GL2 4826  22.004  27.422   9.234
   42POPC   C1A 4827  22.560  27.507   8.916
   42POPC   D2A 4828  22.512  27.722   8.518
   42POPC   C3A 4829  22.488  27.666   8.074
   42POPC   C4A 4830  22.238  27.861   7.760
   42POPC   C1B 4831  22.103  27.326   8.803
   42POPC   C2B 4832  22.273  27.291   8.365
   42POPC   C3B 4833  22.092  27.361   7.919
   42POPC   C4B 4834  22.155  27.196   7.508
   43POPC   NC3 4835  30.611  35.053   9.629
   43POPC   PO4 4836  30.954  35.646   9.445
   43POPC   GL1 4837  30.712  35.408   9.094
   43POPC   GL2 4838  30.557  35.034   9.124
   43POPC   C1A 4839  30.800  35.435   8.603
   43POPC   D2A 4840  31.100  35.310   8.242
   43POPC   C3A 4841  31.059  35.410   7.786
   43POPC   C4A 4842  31.061  35.244   7.326
   43POPC   C1B 4843  30.348  35.244   8.785
   43POPC   C2B 4844  30.416  35.120   8.365
   43POPC   C3B 4845  30.639  35.161   7.986
   43POPC   C4B 4846  30.567  35.363   7.595
   44POPC   NC3 4847  42.147  17.602   9.511
   44POPC   PO4 4848  42.810  17.550   9.311
   44POPC   GL1 4849  42.418  17.419   9.092
   44POPC   GL2 4850  42.149  17.165   9.201
   44POPC   C1A 4851  42.185  17.659   8.736
   44POPC   D2A 4852  42.162  17.539   8.274
   44POPC   C3A 4853  42.393  17.790   7.957
   44POPC   C4A 4854  42.708  17.696   7.652
   44POPC   C1B 4855  42.113  17.161   8.732
   44POPC   C2B 4856  41.903  17.028   8.325
   44POPC   C3B 4857  41.984  17.202   7.911
   44POPC   C4B 4858  42.442  17.287   7.858
   45POPC   NC3 4859  34.306  25.379   9.367
   45POPC   PO4 4860  33.698  25.285   9.619
   45POPC   GL1 4861  33.846  25.195   9.178
   45POPC   GL2 4862  34.036  24.932   9.116
   45POPC   C1A 4863  33.713  25.106   8.729
   45POPC   D2A 4864  33.831  25.102   8.305
   45POPC   C3A 4865  33.593  25.332   8.008
   45POPC   C4A 4866  33.331  25.162   7.739
   45POPC   C1B 4867  34.218  25.106   8.741
   45POPC   C2B 4868  34.341  25.171   8.311
   45POPC   C3B 4869  34.178  24.899   7.975
   45POPC   C4B 4870  33.814  24.976   7.722
   46POPC   NC3 4871   4.621  40.164   9.403
   46POPC   PO4 4872   3.974  39.919   9.576
   46POPC   GL1 4873   4.176  39.908   9.200
   46POPC   GL2 4874   3.902  40.164   9.115
   46POPC   C1A 4875   4.417  39.808   8.780
   46POPC   D2A 4876   4.544  40.041   8.375
   46POPC   C3A 4877   4.312  40.075   7.972
   46POPC   C4A 4878   4.408  39.894   7.588
   46POPC   C1B 4879   3.922  39.871   8.780
   46POPC   C2B 4880   4.036  39.952   8.401
   46POPC   C3B 4881   3.951  39.728   8.055
   46POPC   C4B 4882   3.793  39.782   7.683
   47POPC   NC3 4883  31.005   7.890   9.482
   47POPC   PO4 4884  30.524   8.229   9.291
   47POPC   GL1 4885  30.526   8.014   8.941
   47POPC   GL2 4886  30.895   7.915   8.976
   47POPC   C1A 4887  30.485   8.266   8.571
   47POPC   D2A 4888  30.883   8.424   8.364
   47POPC   C3A 4889  30.788   8.500   7.944
   47POPC   C4A 4890  30.352   8.507   7.838
   47POPC   C1B 4891  30.839   7.900   8.524
   47POPC   C2B 4892  30.508   7.906   8.213
   47POPC   C3B 4893  30.459   8.011   7.801
   47POPC   C4B 4894  30.909   8.085   7.657
   48POPC   NC3 4895  26.158  32.608   9.346
   48POPC   PO4 4896  25.914  33.214   9.429
   48POPC   GL1 4897  26.037  33.130   9.020
   48POPC   GL2 4898  26.354  32.981   9.015
   48POPC   C1A 4899  26.024  33.022   8.586
   48POPC   D2A 4900  26.037  32.779   8.231
   48POPC   C3A 4901  25.940  33.033   7.885
   48POPC   C4A 4902  25.999  33.024   7.456
   48POPC   C1B 4903  26.522  33.047   8.571
   48POPC   C2B 4904  26.418  33.131   8.146
   48POPC   C3B 4905  26.417  32.897   7.752
   48POPC   C4B 4906  26.652  32.832   7.359
   49POPC   NC3 4907  28.874  15.051   9.367
   49POPC   PO4 4908  28.356  15.232   9.825
   49POPC   GL1 4909  28.509  15.392   9.338
   49POPC   GL2 4910  28.788  15.508   9.159
   49POPC   C1A 4911  28.295  15.399   8.887
   49POPC   D2A 4912  28.011  15.315   8.529
   49POPC   C3A 4913  28.177  15.317   8.102
   49POPC   C4A 4914  28.285  15.030   7.761
   49POPC   C1B 4915  28.767  15.309   8.752
   49POPC   C2B 4916  28.549  15.081   8.427
   49POPC   C3B 4917  28.694  15.205   8.007
   49POPC   C4B 4918  28.512  15.608   7.851
   50POPC   NC3 4919  21.449  40.118   9.453
   50POPC   PO4 4920  21.021  39.611   9.490
   50POPC   GL1 4921  21.136  39.881   9.132
   50POPC   GL2 4922  21.163  40.252   9.052
   50POPC   C1A 4923  21.309  39.881   8.726
   50POPC   D2A 4924  21.283  39.568   8.443
   50POPC   C3A 4925  21.207  39.625   8.014
   50POPC   C4A 4926  21.478  39.776   7.684
   50POPC   C1B 4927  21.481  40.363   8.725
   50POPC   C2B 4928  21.526  40.175   8.326
   50POPC   C3B 4929  21.416  40.251   7.891
   50POPC   C4B 4930  21.359  40.624   7.628
   51POPC   NC3 4931  42.445   7.669   9.451
   51POPC   PO4 4932  42.664   7.001   9.473
   51POPC   GL1 4933  42.389   7.209   9.159
   51POPC   GL2 4934  42.628   7.468   9.029
   51POPC   C1A 4935  42.118   7.256   8.769
   51POPC   D2A 4936  42.251   7.390   8.351
   51POPC   C3A 4937  42.237   7.346   7.919
   51POPC   C4A 4938  42.574   7.122   7.702
   51POPC   C1B 4939  42.296   7.719   8.800
   51POPC   C2B 4940  42.087   7.851   8.431
   51POPC   C3B 4941  42.310   7.838   8.064
   51POPC   C4B 4942  42.081   7.806   7.660
   52POPC   NC3 4943  26.956  37.991   9.431
   52POPC   PO4 4944  26.906  37.310   9.272
   52POPC   GL1 4945  26.654  37.571   9.067
   52POPC   GL2 4946  26.652  37.924   9.042
   52POPC   C1A 4947  26.654  37.568   8.660
   52POPC   D2A 4948  26.512  37.443   8.296
   52POPC   C3A 4949  26.765  37.499   7.938
   52POPC   C4A 4950  26.642  37.711   7.583
   52POPC   C1B 4951  26.869  38.055   8.655
   52POPC   C2B 4952  27.035  38.144   8.251
   52POPC   C3B 4953  27.042  37.972   7.855
   52POPC   C4B 4954  26.912  38.097   7.430
   53POPC   NC3 4955  43.452  11.209   9.481
   53POPC   PO4 4956  44.054  11.011   9.357
   53POPC   GL1 4957  43.914  11.307   9.053
   53POPC   GL2 4958  43.549  11.488   9.061
   53POPC   C1A 4959  44.091  11.196   8.633
   53POPC   D2A 4960  44.071  10.960   8.243
   53POPC   C3A 4961  43.975  11.244   7.912
   53POPC   C4A 4962  43.772  11.257   7.499
   53POPC   C1B 4963  43.730  11.556   8.669
   53POPC   C2B 4964  43.839  11.630   8.269
   53POPC   C3B 4965  43.559  11.541   7.953
   53POPC   C4B 4966  43.504  11.671   7.564
   54POPC   NC3 4967  41.318   6.931   9.545
   54POPC   PO4 4968  41.823   6.584   9.534
   54POPC   GL1 4969  41.669   6.579   9.140
   54POPC   GL2 4970  41.394   6.825   9.056
   54POPC   C1A 4971  41.834   6.363   8.786
   54POPC   D2A 4972  42.029   6.551   8.411
   54POPC   C3A 4973  41.791   6.853   8.171
   54POPC   C4A 4974  41.684   6.658   7.788
   54POPC   C1B 4975  41.610   6.821   8.671
   54POPC   C2B 4976  41.395   6.583   8.365
   54POPC   C3B 4977  41.217   6.572   7.952
   54POPC   C4B 4978  41.273   6.564   7.475
   55POPC   NC3 4979  28.558   1.854   9.443
   55POPC   PO4 4980  28.187   2.363   9.591
   55POPC   GL1 4981  28.273   2.201   9.171
   55POPC   GL2 4982  28.126   1.877   9.126
   55POPC   C1A 4983  28.525   2.007   8.823
   55POPC   D2A 4984  28.505   2.146   8.428
   55POPC   C3A 4985  28.679   1.934   8.098
   55POPC   C4A 4986  28.412   2.011   7.751
   55POPC   C1B 4987  28.054   1.946   8.654
   55POPC   C2B 4988  28.164   1.824   8.201
   55POPC   C3B 4989  28.045   1.673   7.770
   55POPC   C4B 4990  28.032   1.869   7.351
   56POPC   NC3 4991  32.421   2.330   9.482
   56POPC   PO4 4992  31.982   1.775   9.570
   56POPC   GL1 4993  32.243   1.860   9.199
   56POPC   GL2 4994  32.179   2.168   9.082
   56POPC   C1A 4995  32.093   1.833   8.742
   56POPC   D2A 4996  32.244   1.934   8.345
   56POPC   C3A 4997  31.985   1.810   8.059
   56POPC   C4A 4998  31.870   1.925   7.692
   56POPC   C1B 4999  32.246   2.354   8.649
   56POPC   C2B 5000  32.352   2.415   8.174
   56POPC   C3B 5001  32.301   2.195   7.747
   56POPC   C4B 5002  32.454   2.319   7.308
   57POPC   NC3 5003   4.451   7.108   9.400
   57POPC   PO4 5004   4.375   7.776   9.491
   57POPC   GL1 5005   4.337   7.537   9.128
   57POPC   GL2 5006   4.027   7.357   9.086
   57POPC   C1A 5007   4.247   7.659   8.715
   57POPC   D2A 5008   4.027   7.526   8.403
   57POPC   C3A 5009   4.199   7.707   8.065
   57POPC   C4A 5010   4.084   7.509   7.723
   57POPC   C1B 5011   4.259   7.149   8.785
   57POPC   C2B 5012   4.442   7.237   8.425
   57POPC   C3B 5013   4.316   7.151   8.013
   57POPC   C4B 5014   4.048   6.937   7.697
   58POPC   NC3 5015   2.534  19.490   9.540
   58POPC   PO4 5016   2.924  18.979   9.420
   58POPC   GL1 5017   2.743  18.963   9.036
   58POPC   GL2 5018   2.480  19.157   9.137
   58POPC   C1A 5019   2.954  19.078   8.665
   58POPC   D2A 5020   3.098  19.218   8.260
   58POPC   C3A 5021   2.854  18.979   7.954
   58POPC   C4A 5022   2.809  18.896   7.525
   58POPC   C1B 5023   2.438  19.351   8.724
   58POPC   C2B 5024   2.580  19.251   8.337
   58POPC   C3B 5025   2.423  19.407   7.992
   58POPC   C4B 5026   2.539  19.302   7.621
   59POPC   NC3 5027  35.689  20.257   9.217
   59POPC   PO4 5028  35.177  19.855   9.467
   59POPC   GL1 5029  35.191  19.763   9.047
   59POPC   GL2 5030  35.532  19.799   8.999
   59POPC   C1A 5031  35.129  19.707   8.634
   59POPC   D2A 5032  35.009  19.970   8.311
   59POPC   C3A 5033  35.326  19.896   8.009
   59POPC   C4A 5034  35.370  19.817   7.595
   59POPC   C1B 5035  35.440  20.100   8.661
   59POPC   C2B 5036  35.420  20.318   8.312
   59POPC   C3B 5037  35.601  20.367   7.926
   59POPC   C4B 5038  35.763  20.132   7.646
   60POPC   NC3 5039  24.825  36.060   9.407
   60POPC   PO4 5040  24.214  35.838   9.440
   60POPC   GL1 5041  24.423  36.037   9.094
   60POPC   GL2 5042  24.465  36.385   9.217
   60POPC   C1A 5043  24.707  35.995   8.716
   60POPC   D2A 5044  24.590  35.943   8.316
   60POPC   C3A 5045  24.851  36.038   7.968
   60POPC   C4A 5046  24.889  36.480   7.976
   60POPC   C1B 5047  24.363  36.468   8.788
   60POPC   C2B 5048  24.518  36.477   8.374
   60POPC   C3B 5049  24.359  36.283   8.030
   60POPC   C4B 5050  24.368  35.934   7.835
   61POPC   NC3 5051  32.568   8.924   9.496
   61POPC   PO4 5052  31.893   8.878   9.617
   61POPC   GL1 5053  32.094   8.989   9.251
   61POPC   GL2 5054  31.934   8.782   9.027
   61POPC   C1A 5055  32.306   9.089   8.847
   61POPC   D2A 5056  32.299   9.011   8.412
   61POPC   C3A 5057  32.634   9.100   8.140
   61POPC   C4A 5058  32.509   8.824   7.826
   61POPC   C1B 5059  31.772   8.836   8.638
   61POPC   C2B 5060  31.878   8.766   8.224
   61POPC   C3B 5061  31.956   8.947   7.812
   61POPC   C4B 5062  31.926   8.776   7.397
   62POPC   NC3 5063  34.225  27.157   9.539
   62POPC   PO4 5064  34.710  26.709   9.630
   62POPC   GL1 5065  34.549  26.838   9.216
   62POPC   GL2 5066  34.207  26.674   9.169
   62POPC   C1A 5067  34.616  26.898   8.755
   62POPC   D2A 5068  34.437  26.911   8.308
   62POPC   C3A 5069  34.536  27.056   7.894
   62POPC   C4A 5070  34.529  26.753   7.563
   62POPC   C1B 5071  34.261  26.522   8.727
   62POPC   C2B 5072  34.314  26.408   8.278
   62POPC   C3B 5073  34.165  26.646   7.945
   62POPC   C4B 5074  34.071  26.478   7.577
   63POPC   NC3 5075  30.400  37.989   9.388
   63POPC   PO4 5076  30.846  37.446   9.389
   63POPC   GL1 5077  30.611  37.447   9.032
   63POPC   GL2 5078  30.588  37.804   8.965
   63POPC   C1A 5079  30.640  37.503   8.573
   63POPC   D2A 5080  30.949  37.719   8.332
   63POPC   C3A 5081  30.951  37.591   7.888
   63POPC   C4A 5082  30.874  37.655   7.462
   63POPC   C1B 5083  30.498  38.066   8.606
   63POPC   C2B 5084  30.420  37.900   8.205
   63POPC   C3B 5085  30.532  37.971   7.771
   63POPC   C4B 5086  30.420  37.880   7.344
   64POPC   NC3 5087  17.536  13.030   9.576
   64POPC   PO4 5088  17.472  12.352   9.518
   64POPC   GL1 5089  17.418  12.721   9.169
   64POPC   GL2 5090  17.581  13.060   9.073
   64POPC   C1A 5091  17.560  12.690   8.727
   64POPC   D2A 5092  17.496  12.873   8.343
   64POPC   C3A 5093  17.357  12.570   8.071
   64POPC   C4A 5094  17.647  12.652   7.786
   64POPC   C1B 5095  17.237  13.070   8.749
   64POPC   C2B 5096  17.098  13.180   8.301
   64POPC   C3B 5097  17.317  13.070   7.889
   64POPC   C4B 5098  17.758  13.166   7.829
   65POPC   NC3 5099  41.856  29.060   9.492
   65POPC   PO4 5100  42.582  29.236   9.441
   65POPC   GL1 5101  42.257  29.083   9.187
   65POPC   GL2 5102  42.462  29.022   8.936
   65POPC   C1A 5103  41.973  29.002   8.821
   65POPC   D2A 5104  42.104  29.159   8.391
   65POPC   C3A 5105  42.225  29.145   7.927
   65POPC   C4A 5106  42.290  29.286   7.449
   65POPC   C1B 5107  42.740  28.834   8.689
   65POPC   C2B 5108  42.584  28.955   8.321
   65POPC   C3B 5109  42.621  28.802   7.956
   65POPC   C4B 5110  42.693  28.993   7.598
   66POPC   NC3 5111   5.326   9.515   9.779
   66POPC   PO4 5112   5.490   8.993   9.429
   66POPC   GL1 5113   5.175   9.057   9.080
   66POPC   GL2 5114   4.801   9.028   9.007
   66POPC   C1A 5115   5.174   8.893   8.673
   66POPC   D2A 5116   5.443   8.897   8.351
   66POPC   C3A 5117   5.325   9.092   8.016
   66POPC   C4A 5118   5.365   8.834   7.715
   66POPC   C1B 5119   4.785   9.236   8.663
   66POPC   C2B 5120   4.867   9.099   8.278
   66POPC   C3B 5121   4.900   8.831   7.953
   66POPC   C4B 5122   4.912   9.076   7.585
   67POPC   NC3 5123   2.380   3.467   9.581
   67POPC   PO4 5124   2.974   3.286   9.851
   67POPC   GL1 5125   2.843   3.266   9.360
   67POPC   GL2 5126   2.725   3.596   9.250
   67POPC   C1A 5127   2.974   3.380   8.884
   67POPC   D2A 5128   2.785   3.622   8.522
   67POPC   C3A 5129   2.958   3.583   8.086
   67POPC   C4A 5130   2.891   3.324   7.745
   67POPC   C1B 5131   2.468   3.364   8.918
   67POPC   C2B 5132   2.340   3.369   8.461
   67POPC   C3B 5133   2.499   3.343   8.085
   67POPC   C4B 5134   2.400   3.386   7.682
   68POPC   NC3 5135  33.603  18.257   9.666
   68POPC   PO4 5136  34.060  18.741   9.393
   68POPC   GL1 5137  33.943  18.495   8.996
   68POPC   GL2 5138  33.687  18.193   9.057
   68POPC   C1A 5139  33.785  18.438   8.623
   68POPC   D2A 5140  33.722  18.088   8.411
   68POPC   C3A 5141  33.605  18.342   8.101
   68POPC   C4A 5142  33.592  18.226   7.709
   68POPC   C1B 5143  34.085  18.043   8.798
   68POPC   C2B 5144  34.248  18.224   8.416
   68POPC   C3B 5145  34.122  18.172   8.005
   68POPC   C4B 5146  34.310  17.957   7.648
   69POPC   NC3 5147  38.886  17.781   9.216
   69POPC   PO4 5148  39.350  17.322   9.519
   69POPC   GL1 5149  39.317  17.490   9.129
   69POPC   GL2 5150  39.557  17.686   9.161
   69POPC   C1A 5151  39.131  17.503   8.723
   69POPC   D2A 5152  39.074  17.233   8.433
   69POPC   C3A 5153  39.107  17.373   8.056
   69POPC   C4A 5154  38.887  17.404   7.751
   69POPC   C1B 5155  39.583  17.791   8.730
   69POPC   C2B 5156  39.429  17.643   8.337
   69POPC   C3B 5157  39.604  17.418   8.005
   69POPC   C4B 5158  39.403  17.306   7.640
   70POPC   NC3 5159  42.899  23.475   9.562
   70POPC   PO4 5160  43.066  22.806   9.385
   70POPC   GL1 5161  42.948  23.086   9.097
   70POPC   GL2 5162  42.658  23.304   9.135
   70POPC   C1A 5163  43.093  22.957   8.697
   70POPC   D2A 5164  43.421  22.790   8.446
   70POPC   C3A 5165  43.212  22.839   8.065
   70POPC   C4A 5166  43.063  22.774   7.646
   70POPC   C1B 5167  42.606  23.144   8.680
   70POPC   C2B 5168  42.768  23.104   8.246
   70POPC   C3B 5169  42.945  23.245   7.845
   70POPC   C4B 5170  42.911  23.198   7.382
   71POPC   NC3 5171  36.660  17.098   9.495
   71POPC   PO4 5172  36.740  16.392   9.450
   71POPC   GL1 5173  36.771  16.725   9.167
   71POPC   GL2 5174  37.061  16.956   9.166
   71POPC   C1A 5175  36.845  16.714   8.758
   71POPC   D2A 5176  36.998  16.531   8.406
   71POPC   C3A 5177  36.869  16.719   7.999
   71POPC   C4A 5178  36.572  16.527   7.692
   71POPC   C1B 5179  37.221  17.059   8.756
   71POPC   C2B 5180  37.365  16.877   8.358
   71POPC   C3B 5181  37.335  16.934   7.888
   71POPC   C4B 5182  37.076  16.791   7.504
   72POPC   NC3 5183  30.952  29.857   9.699
   72POPC   PO4 5184  30.611  30.397   9.507
   72POPC   GL1 5185  30.869  30.140   9.228
   72POPC   GL2 5186  30.792  30.391   8.992
   72POPC   C1A 5187  30.895  29.904   8.825
   72POPC   D2A 5188  30.834  30.108   8.410
   72POPC   C3A 5189  30.916  29.883   8.033
   72POPC   C4A 5190  30.619  29.679   7.748
   72POPC   C1B 5191  30.455  30.173   8.768
   72POPC   C2B 5192  30.294  30.080   8.415
   72POPC   C3B 5193  30.436  30.132   8.023
   72POPC   C4B 5194  30.230  30.046   7.652
   73POPC   NC3 5195  20.660  40.671   9.724
   73POPC   PO4 5196  20.863  41.265   9.570
   73POPC   GL1 5197  20.745  40.972   9.225
   73POPC   GL2 5198  20.890  40.646   9.258
   73POPC   C1A 5199  20.711  41.041   8.759
   73POPC   D2A 5200  20.688  40.992   8.298
   73POPC   C3A 5201  20.536  41.018   7.850
   73POPC   C4A 5202  20.385  40.898   7.437
   73POPC   C1B 5203  20.664  40.523   8.896
   73POPC   C2B 5204  20.712  40.505   8.467
   73POPC   C3B 5205  20.651  40.456   8.040
   73POPC   C4B 5206  20.941  40.343   7.709
   74POPC   NC3 5207  10.519  22.369   9.565
   74POPC   PO4 5208  10.518  22.990   9.758
   74POPC   GL1 5209  10.651  22.963   9.295
   74POPC   GL2 5210  10.523  22.693   9.076
   74POPC   C1A 5211  10.844  23.033   8.861
   74POPC   D2A 5212  10.538  22.937   8.538
   74POPC   C3A 5213  10.559  23.060   8.089
   74POPC   C4A 5214  10.269  23.155   7.737
   74POPC   C1B 5215  10.792  22.498   8.728
   74POPC   C2B 5216  10.696  22.523   8.310
   74POPC   C3B 5217  10.840  22.630   7.930
   74POPC   C4B 5218  10.652  22.834   7.620
   75POPC   NC3 5219  36.419  26.240   9.392
   75POPC   PO4 5220  36.070  25.665   9.325
   75POPC   GL1 5221  36.091  25.991   8.992
   75POPC   GL2 5222  35.782  26.195   8.983
   75POPC   C1A 5223  36.266  25.950   8.535
   75POPC   D2A 5224  36.064  26.045   8.115
   75POPC   C3A 5225  36.127  26.060   7.669
   75POPC   C4A 5226  36.385  26.123   7.304
   75POPC   C1B 5227  35.822  26.215   8.554
   75POPC   C2B 5228  35.779  26.445   8.162
   75POPC   C3B 5229  35.782  26.436   7.753
   75POPC   C4B 5230  35.515  26.212   7.504
   76POPC   NC3 5231  44.291  40.926   9.497
   76POPC   PO4 5232  44.972  40.936   9.405
   76POPC   GL1 5233  44.684  40.963   9.101
   76POPC   GL2 5234  44.399  40.741   9.055
   76POPC   C1A 5235  44.828  40.890   8.709
   76POPC   D2A 5236  44.678  41.050   8.330
   76POPC   C3A 5237  44.848  40.872   7.980
   76POPC   C4A 5238  44.957  41.158   7.683
   76POPC   C1B 5239  44.330  40.830   8.643
   76POPC   C2B 5240  44.402  40.637   8.254
   76POPC   C3B 5241  44.347  40.711   7.844
   76POPC   C4B 5242  44.337  41.076   7.566
   77POPC   NC3 5243  44.791  24.110   9.608
   77POPC   PO4 5244  44.319  23.639   9.727
   77POPC   GL1 5245  44.504  23.554   9.317
   77POPC   GL2 5246  44.360  23.821   9.102
   77POPC   C1A 5247  44.785  23.508   8.922
   77POPC   D2A 5248  44.936  23.719   8.512
   77POPC   C3A 5249  44.799  23.535   8.116
   77POPC   C4A 5250  44.929  23.604   7.718
   77POPC   C1B 5251  44.450  23.818   8.651
   77POPC   C2B 5252  44.369  23.790   8.216
   77POPC   C3B 5253  44.426  23.731   7.756
   77POPC   C4B 5254  44.282  23.915   7.329
   78POPC   NC3 5255  26.193  15.076   9.362
   78POPC   PO4 5256  25.595  15.384   9.446
   78POPC   GL1 5257  25.873  15.385   9.074
   78POPC   GL2 5258  26.253  15.476   9.042
   78POPC   C1A 5259  25.917  15.096   8.709
   78POPC   D2A 5260  25.977  15.158   8.265
   78POPC   C3A 5261  26.047  14.934   7.912
   78POPC   C4A 5262  25.727  14.882   7.565
   78POPC   C1B 5263  26.243  15.475   8.572
   78POPC   C2B 5264  26.093  15.624   8.158
   78POPC   C3B 5265  26.214  15.507   7.721
   78POPC   C4B 5266  26.427  15.475   7.271
   79POPC   NC3 5267  24.849  23.052   9.424
   79POPC   PO4 5268  25.497  23.003   9.474
   79POPC   GL1 5269  25.518  22.832   9.092
   79POPC   GL2 5270  25.138  22.771   9.076
   79POPC   C1A 5271  25.456  22.861   8.683
   79POPC   D2A 5272  25.089  22.673   8.567
   79POPC   C3A 5273  25.127  22.785   8.175
   79POPC   C4A 5274  25.508  22.853   7.889
   79POPC   C1B 5275  25.086  23.174   8.807
   79POPC   C2B 5276  25.073  23.285   8.343
   79POPC   C3B 5277  25.099  23.210   7.875
   79POPC   C4B 5278  24.989  22.810   7.684
   80POPC   NC3 5279   2.868   0.920   9.762
   80POPC   PO4 5280   2.562   1.475   9.441
   80POPC   GL1 5281   2.794   1.490   9.077
   80POPC   GL2 5282   2.540   1.288   8.924
   80POPC   C1A 5283   2.870   1.542   8.630
   80POPC   D2A 5284   3.032   1.222   8.368
   80POPC   C3A 5285   2.927   1.057   7.952
   80POPC   C4A 5286   2.905   1.383   7.681
   80POPC   C1B 5287   2.741   0.968   8.705
   80POPC   C2B 5288   2.592   0.950   8.318
   80POPC   C3B 5289   2.295   0.890   8.038
   80POPC   C4B 5290   2.433   1.123   7.707
   81POPC   NC3 5291   3.898  32.404   9.477
   81POPC   PO4 5292   3.261  32.366   9.122
   81POPC   GL1 5293   3.696  32.352   9.023
   81POPC   GL2 5294   3.824  32.012   9.135
   81POPC   C1A 5295   3.844  32.525   8.665
   81POPC   D2A 5296   3.481  32.454   8.439
   81POPC   C3A 5297   3.383  32.545   8.036
   81POPC   C4A 5298   3.305  32.301   7.688
   81POPC   C1B 5299   4.028  32.040   8.726
   81POPC   C2B 5300   3.931  32.129   8.296
   81POPC   C3B 5301   3.829  32.042   7.869
   81POPC   C4B 5302   3.837  32.457   7.793
   82POPC   NC3 5303  38.550  23.522   9.584
   82POPC   PO4 5304  38.321  24.057   9.880
   82POPC   GL1 5305  38.472  24.008   9.352
   82POPC   GL2 5306  38.164  24.000   9.088
   82POPC   C1A 5307  38.578  23.761   8.901
   82POPC   D2A 5308  38.842  23.699   8.496
   82POPC   C3A 5309  38.636  23.702   8.086
   82POPC   C4A 5310  38.710  24.058   7.799
   82POPC   C1B 5311  38.065  23.751   8.735
   82POPC   C2B 5312  38.228  23.553   8.380
   82POPC   C3B 5313  38.120  23.494   7.963
   82POPC   C4B 5314  38.061  23.747   7.608
   83POPC   NC3 5315  14.500  43.524   9.512
   83POPC   PO4 5316  14.133  44.042   9.619
   83POPC   GL1 5317  14.256  43.873   9.214
   83POPC   GL2 5318  14.558  44.063   9.244
   83POPC   C1A 5319  14.312  43.721   8.783
   83POPC   D2A 5320  14.222  43.953   8.378
   83POPC   C3A 5321  14.341  43.760   7.971
   83POPC   C4A 5322  14.372  43.457   7.610
   83POPC   C1B 5323  14.405  44.220   8.822
   83POPC   C2B 5324  14.469  44.381   8.392
   83POPC   C3B 5325  14.419  44.277   7.929
   83POPC   C4B 5326  14.545  44.272   7.456
   84POPC   NC3 5327  36.769  40.990   9.624
   84POPC   PO4 5328  37.151  40.465   9.625
   84POPC   GL1 5329  37.057  40.623   9.196
   84POPC   GL2 5330  36.703  40.704   9.215
   84POPC   C1A 5331  36.970  40.812   8.769
   84POPC   D2A 5332  36.861  40.978   8.340
   84POPC   C3A 5333  36.881  40.845   7.898
   84POPC   C4A 5334  37.113  40.897   7.510
   84POPC   C1B 5335  36.562  40.465   8.891
   84POPC   C2B 5336  36.776  40.370   8.561
   84POPC   C3B 5337  36.759  40.397   8.151
   84POPC   C4B 5338  36.475  40.539   7.854
   85POPC   NC3 5339  20.097   4.215   9.308
   85POPC   PO4 5340  20.760   4.270   9.468
   85POPC   GL1 5341  20.643   4.366   9.039
   85POPC   GL2 5342  20.443   4.622   9.056
   85POPC   C1A 5343  20.427   4.225   8.647
   85POPC   D2A 5344  20.384   4.250   8.179
   85POPC   C3A 5345  20.729   4.144   7.950
   85POPC   C4A 5346  20.903   3.946   7.577
   85POPC   C1B 5347  20.682   4.716   8.658
   85POPC   C2B 5348  20.728   4.631   8.203
   85POPC   C3B 5349  20.497   4.595   7.792
   85POPC   C4B 5350  20.473   4.601   7.320
   86POPC   NC3 5351  22.302  43.513   9.422
   86POPC   PO4 5352  22.079  44.166   9.290
   86POPC   GL1 5353  21.944  43.790   9.090
   86POPC   GL2 5354  21.847  44.026   8.817
   86POPC   C1A 5355  21.942  43.547   8.716
   86POPC   D2A 5356  21.869  43.598   8.294
   86POPC   C3A 5357  22.241  43.672   8.066
   86POPC   C4A 5358  22.051  43.557   7.731
   86POPC   C1B 5359  22.268  43.935   8.583
   86POPC   C2B 5360  22.593  43.984   8.258
   86POPC   C3B 5361  22.500  44.148   7.891
   86POPC   C4B 5362  22.061  44.123   7.818
   87POPC   NC3 5363   1.996   9.401   9.482
   87POPC   PO4 5364   2.040  10.075   9.481
   87POPC   GL1 5365   1.930   9.803   9.165
   87POPC   GL2 5366   2.278   9.697   9.162
   87POPC   C1A 5367   1.723   9.775   8.756
   87POPC   D2A 5368   1.548   9.556   8.419
   87POPC   C3A 5369   1.693   9.721   8.028
   87POPC   C4A 5370   1.988   9.519   7.779
   87POPC   C1B 5371   2.170   9.545   8.758
   87POPC   C2B 5372   2.076   9.628   8.351
   87POPC   C3B 5373   2.373   9.764   8.051
   87POPC   C4B 5374   2.484   9.560   7.687
   88POPC   NC3 5375  13.713  12.227   9.554
   88POPC   PO4 5376  13.561  11.644   9.255
   88POPC   GL1 5377  13.547  12.038   9.102
   88POPC   GL2 5378  13.904  12.070   9.120
   88POPC   C1A 5379  13.497  12.017   8.681
   88POPC   D2A 5380  13.312  11.739   8.401
   88POPC   C3A 5381  13.546  11.899   8.065
   88POPC   C4A 5382  13.924  11.815   7.808
   88POPC   C1B 5383  13.947  12.272   8.756
   88POPC   C2B 5384  13.911  12.067   8.380
   88POPC   C3B 5385  13.910  12.272   8.020
   88POPC   C4B 5386  14.156  12.256   7.665
   89POPC   NC3 5387  29.167   7.202   9.476
   89POPC   PO4 5388  29.556   7.773   9.319
   89POPC   GL1 5389  29.246   7.539   9.097
   89POPC   GL2 5390  28.884   7.598   9.130
   89POPC   C1A 5391  29.109   7.444   8.685
   89POPC   D2A 5392  29.194   7.306   8.287
   89POPC   C3A 5393  29.360   7.524   7.935
   89POPC   C4A 5394  29.357   7.140   7.739
   89POPC   C1B 5395  28.673   7.713   8.728
   89POPC   C2B 5396  28.687   7.508   8.344
   89POPC   C3B 5397  28.868   7.613   7.997
   89POPC   C4B 5398  28.977   7.916   7.758
   90POPC   NC3 5399  10.288  28.200   9.513
   90POPC   PO4 5400   9.691  28.604   9.477
   90POPC   GL1 5401   9.875  28.372   9.184
   90POPC   GL2 5402  10.195  28.534   9.111
   90POPC   C1A 5403   9.718  28.420   8.761
   90POPC   D2A 5404   9.462  28.190   8.463
   90POPC   C3A 5405   9.583  28.335   8.041
   90POPC   C4A 5406   9.838  28.597   7.793
   90POPC   C1B 5407  10.202  28.218   8.831
   90POPC   C2B 5408  10.005  28.128   8.436
   90POPC   C3B 5409  10.189  28.017   8.064
   90POPC   C4B 5410   9.925  28.062   7.745
   91POPC   NC3 5411  36.479  19.741   9.547
   91POPC   PO4 5412  37.097  19.889   9.508
   91POPC   GL1 5413  37.094  19.522   9.217
   91POPC   GL2 5414  36.743  19.471   9.168
   91POPC   C1A 5415  37.049  19.499   8.757
   91POPC   D2A 5416  37.219  19.761   8.426
   91POPC   C3A 5417  36.989  19.784   8.044
   91POPC   C4A 5418  37.101  19.969   7.648
   91POPC   C1B 5419  36.714  19.874   8.888
   91POPC   C2B 5420  36.723  20.010   8.418
   91POPC   C3B 5421  36.735  20.210   7.944
   91POPC   C4B 5422  36.657  20.153   7.469
   92POPC   NC3 5423  13.646  21.020   9.462
   92POPC   PO4 5424  13.883  21.734   9.431
   92POPC   GL1 5425  13.798  21.502   9.088
   92POPC   GL2 5426  13.501  21.312   9.078
   92POPC   C1A 5427  13.690  21.679   8.711
   92POPC   D2A 5428  13.888  21.669   8.351
   92POPC   C3A 5429  13.655  21.807   8.046
   92POPC   C4A 5430  13.590  21.515   7.776
   92POPC   C1B 5431  13.722  21.133   8.714
   92POPC   C2B 5432  13.918  21.116   8.306
   92POPC   C3B 5433  13.788  21.050   7.878
   92POPC   C4B 5434  13.435  20.966   7.637
   93POPC   NC3 5435  28.480  11.176   9.627
   93POPC   PO4 5436  28.690  11.712   9.305
   93POPC   GL1 5437  28.447  11.381   9.153
   93POPC   GL2 5438  28.605  11.031   9.154
   93POPC   C1A 5439  28.387  11.337   8.729
   93POPC   D2A 5440  28.370  11.599   8.369
   93POPC   C3A 5441  28.289  11.316   8.077
   93POPC   C4A 5442  28.419  11.136   7.699
   93POPC   C1B 5443  28.787  11.024   8.761
   93POPC   C2B 5444  28.735  11.156   8.372
   93POPC   C3B 5445  28.750  10.933   8.014
   93POPC   C4B 5446  28.831  10.814   7.580
   94POPC   NC3 5447   1.702  18.922   9.556
   94POPC   PO4 5448   2.120  19.461   9.719
   94POPC   GL1 5449   2.003  19.269   9.254
   94POPC   GL2 5450   1.681  19.176   9.121
   94POPC   C1A 5451   2.100  18.999   8.824
   94POPC   D2A 5452   2.091  19.106   8.328
   94POPC   C3A 5453   2.140  19.018   7.840
   94POPC   C4A 5454   2.060  19.333   7.464
   94POPC   C1B 5455   1.667  18.755   8.879
   94POPC   C2B 5456   1.776  18.708   8.456
   94POPC   C3B 5457   1.702  18.835   8.055
   94POPC   C4B 5458   1.648  19.045   7.677
   95POPC   NC3 5459  22.468  18.862   9.940
   95POPC   PO4 5460  22.187  19.313   9.497
   95POPC   GL1 5461  22.353  19.214   9.079
   95POPC   GL2 5462  22.034  19.118   9.031
   95POPC   C1A 5463  22.437  18.979   8.702
   95POPC   D2A 5464  22.648  18.926   8.303
   95POPC   C3A 5465  22.390  19.097   7.978
   95POPC   C4A 5466  22.160  18.930   7.644
   95POPC   C1B 5467  21.944  18.824   8.731
   95POPC   C2B 5468  22.082  18.835   8.322
   95POPC   C3B 5469  21.811  18.845   7.993
   95POPC   C4B 5470  21.739  18.647   7.605
   96POPC   NC3 5471  33.957   3.660   9.853
   96POPC   PO4 5472  34.614   3.595   9.580
   96POPC   GL1 5473  34.428   3.618   9.179
   96POPC   GL2 5474  34.753   3.488   9.099
   96POPC   C1A 5475  34.494   3.719   8.713
   96POPC   D2A 5476  34.662   3.595   8.301
   96POPC   C3A 5477  34.475   3.780   7.930
   96POPC   C4A 5478  34.107   3.836   7.685
   96POPC   C1B 5479  34.724   3.255   8.734
   96POPC   C2B 5480  34.710   3.051   8.364
   96POPC   C3B 5481  34.784   3.195   8.004
   96POPC   C4B 5482  34.778   3.480   7.666
   97POPC   NC3 5483  44.783  14.839   9.431
   97POPC   PO4 5484  44.405  14.285   9.427
   97POPC   GL1 5485  44.599  14.473   9.108
   97POPC   GL2 5486  44.440  14.798   9.020
   97POPC   C1A 5487  44.536  14.352   8.704
   97POPC   D2A 5488  44.587  14.538   8.339
   97POPC   C3A 5489  44.549  14.304   7.947
   97POPC   C4A 5490  44.452  14.349   7.467
   97POPC   C1B 5491  44.818  14.844   8.762
   97POPC   C2B 5492   0.004  14.904   8.355
   97POPC   C3B 5493  44.896  14.714   7.993
   97POPC   C4B 5494  44.920  14.430   7.641
   98POPC   NC3 5495  39.023  30.472   9.790
   98POPC   PO4 5496  39.311  31.078   9.692
   98POPC   GL1 5497  39.469  30.976   9.214
   98POPC   GL2 5498  39.129  30.963   8.985
   98POPC   C1A 5499  39.567  30.783   8.766
   98POPC   D2A 5500  39.230  30.895   8.481
   98POPC   C3A 5501  39.230  30.809   8.084
   98POPC   C4A 5502  39.018  30.899   7.728
   98POPC   C1B 5503  38.885  30.600   8.717
   98POPC   C2B 5504  38.933  30.407   8.294
   98POPC   C3B 5505  39.162  30.335   7.896
   98POPC   C4B 5506  39.583  30.233   7.806
   99POPC   NC3 5507   7.047  43.859   9.260
   99POPC   PO4 5508   6.338  44.026   9.425
   99POPC   GL1 5509   6.549  43.878   9.094
   99POPC   GL2 5510   6.393  44.116   8.892
   99POPC   C1A 5511   6.709  43.673   8.724
   99POPC   D2A 5512   6.831  43.778   8.292
   99POPC   C3A 5513   6.711  43.527   7.941
   99POPC   C4A 5514   6.893  43.819   7.692
   99POPC   C1B 5515   6.740  44.173   8.613
   99POPC   C2B 5516   7.032  44.300   8.273
   99POPC   C3B 5517   6.959  44.310   7.861
   99POPC   C4B 5518   6.564  44.226   7.772
  100POPC   NC3 5519  11.317  40.448   9.681
  100POPC   PO4 5520  11.141  41.104   9.577
  100POPC   GL1 5521  11.376  40.960   9.204
  100POPC   GL2 5522  11.485  40.595   9.121
  100POPC   C1A 5523  11.234  40.928   8.785
  100POPC   D2A 5524  11.316  40.703   8.414
  100POPC   C3A 5525  11.114  40.865   8.061
  100POPC   C4A 5526  11.259  40.815   7.679
  100POPC   C1B 5527  11.120  40.428   8.808
  100POPC   C2B 5528  11.080  40.229   8.409
  100POPC   C3B 5529  11.225  40.373   8.030
  100POPC   C4B 5530  11.210  40.286   7.658
  101POPC   NC3 5531  37.507  19.828   9.711
  101POPC   PO4 5532  38.099  19.519   9.618
  101POPC   GL1 5533  37.834  19.640   9.204
  101POPC   GL2 5534  37.527  19.837   9.196
  101POPC   C1A 5535  37.583  19.577   8.777
  101POPC   D2A 5536  37.703  19.528   8.359
  101POPC   C3A 5537  37.940  19.774   8.093
  101POPC   C4A 5538  37.993  19.828   7.656
  101POPC   C1B 5539  37.706  20.066   8.823
  101POPC   C2B 5540  37.621  20.090   8.378
  101POPC   C3B 5541  37.507  19.994   7.948
  101POPC   C4B 5542  37.600  20.196   7.518
  102POPC   NC3 5543  39.819  43.503   9.516
  102POPC   PO4 5544  39.979  44.191   9.532
  102POPC   GL1 5545  39.991  43.885   9.201
  102POPC   GL2 5546  39.651  43.889   9.181
  102POPC   C1A 5547  40.106  43.880   8.771
  102POPC   D2A 5548  40.289  44.171   8.456
  102POPC   C3A 5549  40.222  43.992   8.045
  102POPC   C4A 5550  40.108  44.152   7.673
  102POPC   C1B 5551  39.642  44.123   8.792
  102POPC   C2B 5552  39.778  44.006   8.376
  102POPC   C3B 5553  39.702  44.159   7.976
  102POPC   C4B 5554  39.654  43.973   7.539
  103POPC   NC3 5555  41.267  34.152   9.473
  103POPC   PO4 5556  41.831  33.826   9.727
  103POPC   GL1 5557  41.543  33.722   9.354
  103POPC   GL2 5558  41.670  33.979   9.143
  103POPC   C1A 5559  41.356  33.611   8.924
  103POPC   D2A 5560  41.518  33.670   8.502
  103POPC   C3A 5561  41.347  33.703   8.114
  103POPC   C4A 5562  41.371  33.617   7.712
  103POPC   C1B 5563  41.537  34.111   8.724
  103POPC   C2B 5564  41.336  34.186   8.294
  103POPC   C3B 5565  41.536  34.106   7.891
  103POPC   C4B 5566  41.448  34.073   7.485
  104POPC   NC3 5567   0.911  40.993   9.551
  104POPC   PO4 5568   1.212  40.425   9.498
  104POPC   GL1 5569   1.305  40.666   9.123
  104POPC   GL2 5570   1.159  41.006   9.103
  104POPC   C1A 5571   1.334  40.685   8.659
  104POPC   D2A 5572   1.219  40.981   8.322
  104POPC   C3A 5573   1.346  40.877   7.877
  104POPC   C4A 5574   1.547  40.984   7.492
  104POPC   C1B 5575   0.872  40.890   8.767
  104POPC   C2B 5576   0.708  40.976   8.366
  104POPC   C3B 5577   0.855  40.924   7.956
  104POPC   C4B 5578   0.945  40.831   7.497
  105POPC   NC3 5579  23.348  32.444   9.935
  105POPC   PO4 5580  22.905  32.218   9.413
  105POPC   GL1 5581  22.991  32.124   9.021
  105POPC   GL2 5582  23.225  31.852   9.025
  105POPC   C1A 5583  22.868  32.331   8.636
  105POPC   D2A 5584  22.532  32.517   8.365
  105POPC   C3A 5585  22.720  32.575   7.941
  105POPC   C4A 5586  23.128  32.679   7.799
  105POPC   C1B 5587  23.070  31.835   8.613
  105POPC   C2B 5588  22.999  32.038   8.219
  105POPC   C3B 5589  23.031  32.112   7.790
  105POPC   C4B 5590  23.261  31.907   7.418
  106POPC   NC3 5591  14.445  24.068   9.337
  106POPC   PO4 5592  14.723  23.528   9.661
  106POPC   GL1 5593  14.684  23.409   9.194
  106POPC   GL2 5594  14.371  23.588   9.125
  106POPC   C1A 5595  14.661  23.460   8.695
  106POPC   D2A 5596  14.861  23.627   8.274
  106POPC   C3A 5597  14.552  23.745   7.921
  106POPC   C4A 5598  14.303  24.029   7.635
  106POPC   C1B 5599  14.181  23.733   8.751
  106POPC   C2B 5600  14.254  23.552   8.355
  106POPC   C3B 5601  14.111  23.368   7.978
  106POPC   C4B 5602  14.140  23.543   7.594
  107POPC   NC3 5603  24.737  21.555   9.394
  107POPC   PO4 5604  24.107  21.478   9.485
  107POPC   GL1 5605  24.278  21.239   9.144
  107POPC   GL2 5606  24.616  21.112   9.198
  107POPC   C1A 5607  24.329  21.463   8.759
  107POPC   D2A 5608  24.158  21.619   8.381
  107POPC   C3A 5609  24.468  21.549   8.087
  107POPC   C4A 5610  24.674  21.686   7.701
  107POPC   C1B 5611  24.611  21.032   8.757
  107POPC   C2B 5612  24.392  21.106   8.372
  107POPC   C3B 5613  24.562  21.071   7.989
  107POPC   C4B 5614  24.482  21.246   7.646
  108POPC   NC3 5615   7.682  28.151   9.527
  108POPC   PO4 5616   8.358  27.954   9.507
  108POPC   GL1 5617   8.561  27.913   9.094
  108POPC   GL2 5618   8.450  27.591   9.053
  108POPC   C1A 5619   8.596  27.879   8.610
  108POPC   D2A 5620   8.310  27.840   8.222
  108POPC   C3A 5621   8.432  27.525   7.894
  108POPC   C4A 5622   8.587  27.429   7.489
  108POPC   C1B 5623   8.195  27.563   8.661
  108POPC   C2B 5624   8.103  27.366   8.264
  108POPC   C3B 5625   7.917  27.507   7.878
  108POPC   C4B 5626   7.722  27.655   7.500
  109POPC   NC3 5627   2.243  34.169   9.339
  109POPC   PO4 5628   1.765  33.604   9.504
  109POPC   GL1 5629   1.691  33.610   9.081
  109POPC   GL2 5630   1.899  33.888   8.992
  109POPC   C1A 5631   1.548  33.701   8.642
  109POPC   D2A 5632   1.788  33.853   8.285
  109POPC   C3A 5633   1.908  33.632   7.923
  109POPC   C4A 5634   1.697  33.766   7.572
  109POPC   C1B 5635   2.184  34.007   8.615
  109POPC   C2B 5636   2.443  33.901   8.270
  109POPC   C3B 5637   2.408  33.853   7.838
  109POPC   C4B 5638   2.161  33.908   7.489
  110POPC   NC3 5639  27.364   5.260   9.755
  110POPC   PO4 5640  27.814   4.804   9.782
  110POPC   GL1 5641  27.800   5.252   9.379
  110POPC   GL2 5642  27.542   5.378   9.251
  110POPC   C1A 5643  27.730   5.194   8.810
  110POPC   D2A 5644  27.542   4.928   8.452
  110POPC   C3A 5645  27.675   4.898   7.997
  110POPC   C4A 5646  27.638   4.997   7.526
  110POPC   C1B 5647  27.524   5.639   8.890
  110POPC   C2B 5648  27.729   5.588   8.493
  110POPC   C3B 5649  27.552   5.377   8.168
  110POPC   C4B 5650  27.564   5.406   7.766
  111POPC   NC3 5651  22.938  27.070   9.486
  111POPC   PO4 5652  23.026  26.436   9.618
  111POPC   GL1 5653  23.107  26.649   9.215
  111POPC   GL2 5654  22.737  26.684   9.206
  111POPC   C1A 5655  23.234  26.828   8.762
  111POPC   D2A 5656  23.377  26.862   8.302
  111POPC   C3A 5657  23.071  26.879   7.945
  111POPC   C4A 5658  23.129  26.910   7.499
  111POPC   C1B 5659  22.790  26.568   8.781
  111POPC   C2B 5660  22.911  26.622   8.358
  111POPC   C3B 5661  22.684  26.508   7.972
  111POPC   C4B 5662  22.794  26.522   7.543
  112POPC   NC3 5663  37.197  41.712   9.421
  112POPC   PO4 5664  37.814  41.893   9.469
  112POPC   GL1 5665  37.686  41.602   9.135
  112POPC   GL2 5666  37.374  41.667   8.943
  112POPC   C1A 5667  37.855  41.516   8.723
  112POPC   D2A 5668  38.223  41.589   8.445
  112POPC   C3A 5669  38.085  41.322   8.121
  112POPC   C4A 5670  37.825  41.423   7.767
  112POPC   C1B 5671  37.394  41.223   8.776
  112POPC   C2B 5672  37.474  41.036   8.363
  112POPC   C3B 5673  37.248  41.173   8.012
  112POPC   C4B 5674  37.321  41.365   7.651
  113POPC   NC3 5675  13.221  29.774   9.428
  113POPC   PO4 5676  12.571  30.001   9.512
  113POPC   GL1 5677  12.820  29.893   9.140
  113POPC   GL2 5678  12.630  29.601   8.971
  113POPC   C1A 5679  12.970  30.158   8.800
  113POPC   D2A 5680  12.878  30.373   8.394
  113POPC   C3A 5681  12.762  30.081   8.058
  113POPC   C4A 5682  12.608  29.712   7.788
  113POPC   C1B 5683  12.958  29.654   8.646
  113POPC   C2B 5684  13.024  29.648   8.173
  113POPC   C3B 5685  13.134  29.809   7.760
  113POPC   C4B 5686  13.313  29.886   7.327
  114POPC   NC3 5687  20.460  34.666   9.313
  114POPC   PO4 5688  20.652  35.357   9.449
  114POPC   GL1 5689  20.579  35.152   9.094
  114POPC   GL2 5690  20.837  34.922   9.038
  114POPC   C1A 5691  20.547  35.344   8.697
  114POPC   D2A 5692  20.320  35.524   8.355
  114POPC   C3A 5693  20.413  35.256   8.029
  114POPC   C4A 5694  20.793  35.457   7.864
  114POPC   C1B 5695  20.713  34.855   8.651
  114POPC   C2B 5696  20.809  35.068   8.293
  114POPC   C3B 5697  20.788  34.952   7.879
  114POPC   C4B 5698  20.403  34.901   7.640
  115POPC   NC3 5699   0.359  23.399   9.463
  115POPC   PO4 5700   1.008  23.232   9.568
  115POPC   GL1 5701   0.760  22.927   9.304
  115POPC   GL2 5702   0.439  22.957   9.218
  115POPC   C1A 5703   0.779  22.849   8.858
  115POPC   D2A 5704   0.734  23.147   8.521
  115POPC   C3A 5705   0.720  22.932   8.128
  115POPC   C4A 5706   0.633  23.093   7.740
  115POPC   C1B 5707   0.204  22.892   8.857
  115POPC   C2B 5708   0.267  22.917   8.422
  115POPC   C3B 5709   0.239  22.724   8.055
  115POPC   C4B 5710   0.209  22.786   7.636
  116POPC   NC3 5711  38.084  20.827   9.522
  116POPC   PO4 5712  37.743  20.182   9.509
  116POPC   GL1 5713  37.758  20.479   9.128
  116POPC   GL2 5714  37.785  20.859   9.104
  116POPC   C1A 5715  37.586  20.558   8.694
  116POPC   D2A 5716  37.511  20.599   8.255
  116POPC   C3A 5717  37.730  20.466   7.946
  116POPC   C4A 5718  37.572  20.711   7.597
  116POPC   C1B 5719  38.057  20.752   8.772
  116POPC   C2B 5720  37.945  20.832   8.360
  116POPC   C3B 5721  37.867  20.957   7.961
  116POPC   C4B 5722  38.078  20.840   7.611
  117POPC   NC3 5723  20.801  29.977   9.696
  117POPC   PO4 5724  21.077  29.519   9.375
  117POPC   GL1 5725  20.763  29.707   9.108
  117POPC   GL2 5726  20.569  29.996   9.192
  117POPC   C1A 5727  20.538  29.755   8.709
  117POPC   D2A 5728  20.437  30.023   8.353
  117POPC   C3A 5729  20.532  29.855   7.944
  117POPC   C4A 5730  20.305  29.729   7.569
  117POPC   C1B 5731  20.660  30.251   8.788
  117POPC   C2B 5732  20.640  30.479   8.398
  117POPC   C3B 5733  20.741  30.345   7.982
  117POPC   C4B 5734  20.663  30.164   7.564
  118POPC   NC3 5735  31.071  31.799   9.453
  118POPC   PO4 5736  31.742  31.571   9.493
  118POPC   GL1 5737  31.390  31.399   9.225
  118POPC   GL2 5738  31.348  31.635   9.038
  118POPC   C1A 5739  31.439  31.226   8.757
  118POPC   D2A 5740  31.325  31.384   8.281
  118POPC   C3A 5741  31.434  31.250   7.815
  118POPC   C4A 5742  31.681  31.145   7.379
  118POPC   C1B 5743  31.580  31.694   8.631
  118POPC   C2B 5744  31.659  31.796   8.199
  118POPC   C3B 5745  31.413  31.772   7.829
  118POPC   C4B 5746  31.272  32.014   7.481
  119POPC   NC3 5747   6.428  41.753   9.604
  119POPC   PO4 5748   6.746  41.300   9.348
  119POPC   GL1 5749   6.595  41.513   9.032
  119POPC   GL2 5750   6.641  41.853   9.124
  119POPC   C1A 5751   6.597  41.491   8.594
  119POPC   D2A 5752   6.857  41.639   8.280
  119POPC   C3A 5753   6.807  41.371   7.945
  119POPC   C4A 5754   6.461  41.083   7.935
  119POPC   C1B 5755   6.790  41.969   8.704
  119POPC   C2B 5756   6.881  42.175   8.277
  119POPC   C3B 5757   6.728  41.977   7.931
  119POPC   C4B 5758   6.381  41.647   8.027
  120POPC   NC3 5759  26.381  19.589   9.424
  120POPC   PO4 5760  25.862  19.994   9.471
  120POPC   GL1 5761  25.653  19.791   9.147
  120POPC   GL2 5762  25.897  19.517   9.094
  120POPC   C1A 5763  25.660  19.794   8.706
  120POPC   D2A 5764  25.868  19.865   8.332
  120POPC   C3A 5765  25.974  19.541   8.085
  120POPC   C4A 5766  25.925  19.840   7.777
  120POPC   C1B 5767  26.147  19.841   8.858
  120POPC   C2B 5768  26.358  19.885   8.474
  120POPC   C3B 5769  26.372  19.896   8.032
  120POPC   C4B 5770  26.341  19.521   7.739
  121POPC   NC3 5771  14.486  26.408   9.495
  121POPC   PO4 5772  14.697  25.689   9.525
  121POPC   GL1 5773  14.469  25.966   9.190
  121POPC   GL2 5774  14.682  26.239   9.075
  121POPC   C1A 5775  14.308  26.065   8.778
  121POPC   D2A 5776  14.439  25.974   8.330
  121POPC   C3A 5777  14.282  26.179   7.938
  121POPC   C4A 5778  14.186  26.258   7.489
  121POPC   C1B 5779  14.918  26.357   8.756
  121POPC   C2B 5780  14.921  26.265   8.374
  121POPC   C3B 5781  14.811  26.166   7.992
  121POPC   C4B 5782  14.676  26.011   7.627
  122POPC   NC3 5783  31.636  13.073   9.576
  122POPC   PO4 5784  31.391  13.761   9.539
  122POPC   GL1 5785  31.526  13.666   9.139
  122POPC   GL2 5786  31.530  13.335   9.164
  122POPC   C1A 5787  31.603  13.854   8.740
  122POPC   D2A 5788  31.496  13.644   8.353
  122POPC   C3A 5789  31.518  13.886   7.965
  122POPC   C4A 5790  31.477  13.893   7.501
  122POPC   C1B 5791  31.371  13.320   8.768
  122POPC   C2B 5792  31.470  13.117   8.411
  122POPC   C3B 5793  31.653  13.262   8.053
  122POPC   C4B 5794  31.395  13.435   7.745
  123POPC   NC3 5795   1.169  30.893   9.597
  123POPC   PO4 5796   1.789  30.584   9.556
  123POPC   GL1 5797   1.475  30.603   9.215
  123POPC   GL2 5798   1.323  30.922   9.113
  123POPC   C1A 5799   1.435  30.622   8.729
  123POPC   D2A 5800   1.121  30.509   8.423
  123POPC   C3A 5801   1.254  30.504   8.002
  123POPC   C4A 5802   1.242  30.906   7.854
  123POPC   C1B 5803   0.985  30.872   8.785
  123POPC   C2B 5804   1.011  31.047   8.345
  123POPC   C3B 5805   0.800  31.097   7.944
  123POPC   C4B 5806   0.933  31.062   7.479
  124POPC   NC3 5807  11.627  17.437   9.671
  124POPC   PO4 5808  10.969  17.417   9.388
  124POPC   GL1 5809  11.365  17.495   9.193
  124POPC   GL2 5810  11.534  17.202   9.230
  124POPC   C1A 5811  11.414  17.695   8.773
  124POPC   D2A 5812  11.214  17.824   8.379
  124POPC   C3A 5813  11.444  17.691   8.001
  124POPC   C4A 5814  11.331  17.489   7.602
  124POPC   C1B 5815  11.359  17.160   8.804
  124POPC   C2B 5816  11.323  17.309   8.385
  124POPC   C3B 5817  11.446  17.173   8.002
  124POPC   C4B 5818  11.793  17.360   7.778
  125POPC   NC3 5819  22.509  15.602   9.575
  125POPC   PO4 5820  22.097  14.994   9.503
  125POPC   GL1 5821  22.199  15.127   9.073
  125POPC   GL2 5822  22.443  15.397   9.120
  125POPC   C1A 5823  22.166  14.894   8.669
  125POPC   D2A 5824  21.817  14.955   8.338
  125POPC   C3A 5825  22.009  14.992   7.934
  125POPC   C4A 5826  22.172  15.120   7.550
  125POPC   C1B 5827  22.375  15.503   8.701
  125POPC   C2B 5828  22.247  15.309   8.316
  125POPC   C3B 5829  22.353  15.437   7.911
  125POPC   C4B 5830  22.177  15.689   7.614
  126POPC   NC3 5831  44.231  13.861   9.488
  126POPC   PO4 5832  43.773  13.409   9.463
  126POPC   GL1 5833  43.990  13.360   9.073
  126POPC   GL2 5834  44.042  13.713   9.040
  126POPC   C1A 5835  44.195  13.420   8.675
  126POPC   D2A 5836  44.126  13.660   8.318
  126POPC   C3A 5837  43.930  13.503   7.961
  126POPC   C4A 5838  43.738  13.766   7.709
  126POPC   C1B 5839  44.011  14.013   8.677
  126POPC   C2B 5840  44.158  14.173   8.269
  126POPC   C3B 5841  44.125  14.079   7.789
  126POPC   C4B 5842  44.217  13.922   7.325
  127POPC   NC3 5843  24.518  40.586   9.581
  127POPC   PO4 5844  24.360  41.278   9.423
  127POPC   GL1 5845  24.396  40.959   9.105
  127POPC   GL2 5846  24.368  40.594   9.094
  127POPC   C1A 5847  24.633  40.894   8.732
  127POPC   D2A 5848  24.782  40.799   8.338
  127POPC   C3A 5849  24.610  41.066   8.081
  127POPC   C4A 5850  24.597  41.055   7.649
  127POPC   C1B 5851  24.527  40.399   8.754
  127POPC   C2B 5852  24.398  40.472   8.321
  127POPC   C3B 5853  24.534  40.579   7.924
  127POPC   C4B 5854  24.337  40.626   7.533
  128POPC   NC3 5855   1.472   1.508   9.557
  128POPC   PO4 5856   0.928   1.003   9.552
  128POPC   GL1 5857   1.193   1.000   9.194
  128POPC   GL2 5858   1.522   1.154   9.192
  128POPC   C1A 5859   1.172   1.142   8.775
  128POPC   D2A 5860   1.374   1.078   8.410
  128POPC   C3A 5861   1.251   1.199   8.003
  128POPC   C4A 5862   1.064   1.029   7.611
  128POPC   C1B 5863   1.537   1.471   8.830
  128POPC   C2B 5864   1.711   1.474   8.407
  128POPC   C3B 5865   1.546   1.638   8.018
  128POPC   C4B 5866   1.347   1.521   7.617
  129POPC   NC3 5867  28.600  30.349   9.459
  129POPC   PO4 5868  28.412  30.976   9.697
  129POPC   GL1 5869  28.383  30.944   9.240
  129POPC   GL2 5870  28.156  30.666   9.239
  129POPC   C1A 5871  28.482  30.693   8.834
  129POPC   D2A 5872  28.660  30.767   8.411
  129POPC   C3A 5873  28.359  30.660   8.101
  129POPC   C4A 5874  28.243  30.710   7.680
  129POPC   C1B 5875  28.020  30.913   8.846
  129POPC   C2B 5876  27.926  30.740   8.439
  129POPC   C3B 5877  27.887  30.920   8.040
  129POPC   C4B 5878  27.819  30.968   7.621
  130POPC   NC3 5879   1.233  29.497   9.439
  130POPC   PO4 5880   1.547  28.955   9.385
  130POPC   GL1 5881   1.219  29.053   9.117
  130POPC   GL2 5882   1.057  28.713   8.999
  130POPC   C1A 5883   1.265  29.302   8.761
  130POPC   D2A 5884   1.206  29.056   8.417
  130POPC   C3A 5885   1.339  29.210   8.051
  130POPC   C4A 5886   1.170  29.257   7.629
  130POPC   C1B 5887   1.335  28.592   8.636
  130POPC   C2B 5888   1.522  28.716   8.203
  130POPC   C3B 5889   1.352  28.795   7.760
  130POPC   C4B 5890   1.423  28.905   7.294
  131POPC   NC3 5891   9.511  22.053   9.436
  131POPC   PO4 5892  10.125  22.111   9.488
  131POPC   GL1 5893   9.940  21.934   9.102
  131POPC   GL2 5894   9.604  21.769   9.020
  131POPC   C1A 5895   9.849  22.093   8.671
  131POPC   D2A 5896   9.777  21.967   8.249
  131POPC   C3A 5897   9.935  22.120   7.888
  131POPC   C4A 5898   9.783  22.496   7.714
  131POPC   C1B 5899   9.780  21.590   8.637
  131POPC   C2B 5900   9.561  21.516   8.248
  131POPC   C3B 5901   9.487  21.786   7.881
  131POPC   C4B 5902   9.527  22.064   7.557
  132POPC   NC3 5903  26.408  14.148   9.476
  132POPC   PO4 5904  25.949  14.681   9.297
  132POPC   GL1 5905  26.127  14.318   9.063
  132POPC   GL2 5906  26.477  14.257   8.987
  132POPC   C1A 5907  26.048  14.277   8.621
  132POPC   D2A 5908  25.909  14.648   8.394
  132POPC   C3A 5909  25.715  14.566   8.025
  132POPC   C4A 5910  25.966  14.473   7.699
  132POPC   C1B 5911  26.421  13.932   8.677
  132POPC   C2B 5912  26.548  14.049   8.284
  132POPC   C3B 5913  26.311  14.297   8.027
  132POPC   C4B 5914  26.252  14.070   7.666
  133POPC   NC3 5915  38.670   3.860   9.531
  133POPC   PO4 5916  38.227   3.315   9.476
  133POPC   GL1 5917  38.354   3.629   9.189
  133POPC   GL2 5918  38.741   3.605   9.110
  133POPC   C1A 5919  38.358   3.516   8.776
  133POPC   D2A 5920  38.257   3.216   8.486
  133POPC   C3A 5921  38.161   3.423   8.109
  133POPC   C4A 5922  38.299   3.341   7.713
  133POPC   C1B 5923  38.844   3.618   8.679
  133POPC   C2B 5924  38.593   3.649   8.302
  133POPC   C3B 5925  38.737   3.625   7.890
  133POPC   C4B 5926  38.780   3.868   7.507
  134POPC   NC3 5927  12.844  22.496   9.568
  134POPC   PO4 5928  13.104  23.114   9.591
  134POPC   GL1 5929  12.868  22.908   9.232
  134POPC   GL2 5930  12.903  23.224   9.092
  134POPC   C1A 5931  12.622  22.920   8.824
  134POPC   D2A 5932  12.772  23.133   8.466
  134POPC   C3A 5933  12.816  22.887   8.093
  134POPC   C4A 5934  12.642  22.922   7.688
  134POPC   C1B 5935  13.266  23.360   8.901
  134POPC   C2B 5936  13.325  23.315   8.479
  134POPC   C3B 5937  13.093  23.367   8.126
  134POPC   C4B 5938  13.159  23.122   7.765
  135POPC   NC3 5939  34.423  41.115   9.453
  135POPC   PO4 5940  34.584  40.519   9.212
  135POPC   GL1 5941  34.670  40.937   9.042
  135POPC   GL2 5942  34.367  41.126   8.949
  135POPC   C1A 5943  34.897  40.989   8.696
  135POPC   D2A 5944  34.745  40.688   8.409
  135POPC   C3A 5945  34.591  40.931   8.089
  135POPC   C4A 5946  34.743  41.218   7.786
  135POPC   C1B 5947  34.322  40.771   8.669
  135POPC   C2B 5948  34.236  40.580   8.253
  135POPC   C3B 5949  34.135  40.788   7.880
  135POPC   C4B 5950  34.084  40.702   7.451
  136POPC   NC3 5951  24.918  36.763   9.382
  136POPC   PO4 5952  24.293  36.834   9.403
  136POPC   GL1 5953  24.523  36.907   9.065
  136POPC   GL2 5954  24.642  37.222   9.147
  136POPC   C1A 5955  24.436  36.983   8.643
  136POPC   D2A 5956  24.176  36.871   8.298
  136POPC   C3A 5957  24.401  36.764   7.913
  136POPC   C4A 5958  24.758  36.775   7.612
  136POPC   C1B 5959  24.260  37.380   8.923
  136POPC   C2B 5960  24.178  37.398   8.443
  136POPC   C3B 5961  24.186  37.281   7.994
  136POPC   C4B 5962  24.465  37.189   7.656
  137POPC   NC3 5963  32.806  22.259   9.352
  137POPC   PO4 5964  33.364  22.258   9.705
  137POPC   GL1 5965  33.328  22.207   9.230
  137POPC   GL2 5966  33.154  21.936   9.155
  137POPC   C1A 5967  33.107  22.275   8.782
  137POPC   D2A 5968  33.206  22.508   8.401
  137POPC   C3A 5969  32.951  22.304   8.108
  137POPC   C4A 5970  32.985  22.068   7.750
  137POPC   C1B 5971  33.319  21.779   8.766
  137POPC   C2B 5972  33.249  21.964   8.365
  137POPC   C3B 5973  33.442  22.076   7.989
  137POPC   C4B 5974  33.479  21.745   7.693
  138POPC   NC3 5975   4.496  31.604   9.544
  138POPC   PO4 5976   4.180  31.093   9.347
  138POPC   GL1 5977   4.419  31.367   9.103
  138POPC   GL2 5978   4.216  31.671   9.121
  138POPC   C1A 5979   4.720  31.380   8.769
  138POPC   D2A 5980   4.507  31.476   8.363
  138POPC   C3A 5981   4.630  31.565   7.934
  138POPC   C4A 5982   4.448  31.413   7.518
  138POPC   C1B 5983   4.063  31.522   8.713
  138POPC   C2B 5984   4.015  31.634   8.287
  138POPC   C3B 5985   4.095  31.582   7.868
  138POPC   C4B 5986   4.041  31.725   7.452
  139POPC   NC3 5987  11.536   3.011   9.543
  139POPC   PO4 5988  10.925   3.011   9.350
  139POPC   GL1 5989  11.219   3.006   9.087
  139POPC   GL2 5990  11.354   2.719   9.143
  139POPC   C1A 5991  11.195   2.854   8.665
  139POPC   D2A 5992  11.081   2.680   8.278
  139POPC   C3A 5993  11.401   2.894   8.043
  139POPC   C4A 5994  11.423   2.990   7.597
  139POPC   C1B 5995  11.615   2.627   8.804
  139POPC   C2B 5996  11.551   2.499   8.379
  139POPC   C3B 5997  11.793   2.488   8.009
  139POPC   C4B 5998  11.769   2.592   7.575
  140POPC   NC3 5999  32.452  31.068   9.586
  140POPC   PO4 6000  32.299  30.469   9.573
  140POPC   GL1 6001  32.095  30.686   9.247
  140POPC   GL2 6002  32.269  30.993   9.107
  140POPC   C1A 6003  32.005  30.671   8.808
  140POPC   D2A 6004  32.223  30.779   8.450
  140POPC   C3A 6005  32.020  30.671   8.088
  140POPC   C4A 6006  31.929  30.956   7.773
  140POPC   C1B 6007  32.521  30.654   8.866
  140POPC   C2B 6008  32.701  30.566   8.443
  140POPC   C3B 6009  32.549  30.736   8.031
  140POPC   C4B 6010  32.415  30.856   7.612
  141POPC   NC3 6011  30.632  23.260   9.494
  141POPC   PO4 6012  31.191  22.885   9.633
  141POPC   GL1 6013  30.990  23.006   9.236
  141POPC   GL2 6014  30.919  22.677   9.068
  141POPC   C1A 6015  30.808  23.128   8.827
  141POPC   D2A 6016  30.817  22.830   8.489
  141POPC   C3A 6017  30.806  23.028   8.096
  141POPC   C4A 6018  30.969  23.148   7.709
  141POPC   C1B 6019  30.470  22.728   8.879
  141POPC   C2B 6020  30.278  22.600   8.482
  141POPC   C3B 6021  30.472  22.607   8.091
  141POPC   C4B 6022  30.488  22.465   7.687
  142POPC   NC3 6023  12.295  15.759   9.771
  142POPC   PO4 6024  12.968  15.911   9.602
  142POPC   GL1 6025  12.833  16.034   9.228
  142POPC   GL2 6026  12.633  15.779   9.129
  142POPC   C1A 6027  12.844  16.170   8.824
  142POPC   D2A 6028  13.046  16.231   8.455
  142POPC   C3A 6029  12.845  16.180   8.076
  142POPC   C4A 6030  12.735  16.134   7.662
  142POPC   C1B 6031  12.859  15.668   8.749
  142POPC   C2B 6032  12.786  15.740   8.337
  142POPC   C3B 6033  12.665  15.698   7.928
  142POPC   C4B 6034  12.829  15.675   7.519
  143POPC   NC3 6035  23.264  44.455   9.649
  143POPC   PO4 6036  23.430   0.034   9.484
  143POPC   GL1 6037  23.126  44.941   9.104
  143POPC   GL2 6038  22.774  44.834   9.187
  143POPC   C1A 6039  23.006  44.931   8.629
  143POPC   D2A 6040  23.298  44.871   8.279
  143POPC   C3A 6041  23.205  44.780   7.856
  143POPC   C4A 6042  22.930  44.967   7.529
  143POPC   C1B 6043  22.910  44.499   8.880
  143POPC   C2B 6044  22.903  44.431   8.410
  143POPC   C3B 6045  22.761  44.591   8.011
  143POPC   C4B 6046  22.894  44.466   7.613
  144POPC   NC3 6047  16.191  12.515   9.449
  144POPC   PO4 6048  15.814  13.057   9.477
  144POPC   GL1 6049  15.967  12.838   9.146
  144POPC   GL2 6050  16.342  12.916   9.121
  144POPC   C1A 6051  15.903  12.691   8.748
  144POPC   D2A 6052  15.687  12.758   8.401
  144POPC   C3A 6053  15.907  12.718   8.079
  144POPC   C4A 6054  16.063  12.775   7.682
  144POPC   C1B 6055  16.112  13.181   8.823
  144POPC   C2B 6056  15.981  13.183   8.408
  144POPC   C3B 6057  16.137  13.184   8.004
  144POPC   C4B 6058  15.958  13.253   7.605
  145POPC   NC3 6059  33.306  33.467   9.648
  145POPC   PO4 6060  33.115  34.128   9.607
  145POPC   GL1 6061  33.231  34.013   9.185
  145POPC   GL2 6062  33.180  33.695   9.020
  145POPC   C1A 6063  33.122  34.161   8.777
  145POPC   D2A 6064  33.018  34.343   8.391
  145POPC   C3A 6065  32.986  34.044   8.080
  145POPC   C4A 6066  32.935  33.820   7.699
  145POPC   C1B 6067  33.277  33.493   8.599
  145POPC   C2B 6068  33.215  33.588   8.128
  145POPC   C3B 6069  33.369  33.575   7.678
  145POPC   C4B 6070  33.267  33.381   7.220
  146POPC   NC3 6071   2.597  41.514   9.571
  146POPC   PO4 6072   3.003  42.057   9.528
  146POPC   GL1 6073   2.723  41.957   9.154
  146POPC   GL2 6074   2.439  41.742   9.152
  146POPC   C1A 6075   2.632  41.794   8.707
  146POPC   D2A 6076   2.745  41.694   8.325
  146POPC   C3A 6077   2.500  41.745   8.038
  146POPC   C4A 6078   2.816  41.689   7.764
  146POPC   C1B 6079   2.606  41.346   8.929
  146POPC   C2B 6080   2.560  41.256   8.474
  146POPC   C3B 6081   2.684  41.258   7.998
  146POPC   C4B 6082   2.596  41.320   7.516
  147POPC   NC3 6083   6.105  38.672   9.484
  147POPC   PO4 6084   5.804  38.073   9.431
  147POPC   GL1 6085   5.858  38.244   9.052
  147POPC   GL2 6086   5.760  38.571   9.095
  147POPC   C1A 6087   5.740  38.333   8.633
  147POPC   D2A 6088   5.868  38.533   8.288
  147POPC   C3A 6089   5.928  38.220   8.008
  147POPC   C4A 6090   6.150  38.019   7.698
  147POPC   C1B 6091   5.759  38.847   8.747
  147POPC   C2B 6092   5.776  39.061   8.380
  147POPC   C3B 6093   5.583  38.958   8.028
  147POPC   C4B 6094   5.731  38.741   7.718
  148POPC   NC3 6095  38.249  36.553   9.496
  148POPC   PO4 6096  38.383  35.878   9.444
  148POPC   GL1 6097  38.504  36.220   9.167
  148POPC   GL2 6098  38.724  35.991   9.049
  148POPC   C1A 6099  38.496  36.331   8.704
  148POPC   D2A 6100  38.573  36.159   8.289
  148POPC   C3A 6101  38.393  36.316   7.914
  148POPC   C4A 6102  38.509  36.239   7.457
  148POPC   C1B 6103  38.473  35.742   8.795
  148POPC   C2B 6104  38.459  35.646   8.393
  148POPC   C3B 6105  38.670  35.727   8.023
  148POPC   C4B 6106  38.583  35.784   7.619
  149POPC   NC3 6107  37.256  11.603   9.268
  149POPC   PO4 6108  36.757  11.315   9.661
  149POPC   GL1 6109  36.769  11.356   9.224
  149POPC   GL2 6110  36.571  11.630   9.213
  149POPC   C1A 6111  36.959  11.209   8.812
  149POPC   D2A 6112  37.247  11.202   8.447
  149POPC   C3A 6113  37.011  11.244   8.064
  149POPC   C4A 6114  37.157  11.120   7.677
  149POPC   C1B 6115  36.734  11.705   8.824
  149POPC   C2B 6116  36.928  11.609   8.443
  149POPC   C3B 6117  37.011  11.794   8.050
  149POPC   C4B 6118  36.869  11.590   7.672
  150POPC   NC3 6119   8.086  18.781   9.697
  150POPC   PO4 6120   8.167  19.384   9.378
  150POPC   GL1 6121   8.320  19.295   9.062
  150POPC   GL2 6122   8.153  18.992   9.031
  150POPC   C1A 6123   8.200  19.298   8.656
  150POPC   D2A 6124   8.171  19.099   8.302
  150POPC   C3A 6125   8.204  19.426   8.016
  150POPC   C4A 6126   8.495  19.473   7.708
  150POPC   C1B 6127   8.248  18.721   8.696
  150POPC   C2B 6128   8.006  18.589   8.357
  150POPC   C3B 6129   8.029  18.773   7.947
  150POPC   C4B 6130   8.249  19.012   7.683
  151POPC   NC3 6131  41.772  40.647   9.670
  151POPC   PO4 6132  42.406  40.827   9.681
  151POPC   GL1 6133  42.372  40.837   9.194
  151POPC   GL2 6134  42.012  40.834   9.156
  151POPC   C1A 6135  42.335  40.700   8.743
  151POPC   D2A 6136  42.573  40.796   8.357
  151POPC   C3A 6137  42.363  40.613   8.010
  151POPC   C4A 6138  42.346  40.361   7.619
  151POPC   C1B 6139  42.016  41.094   8.798
  151POPC   C2B 6140  42.067  40.965   8.359
  151POPC   C3B 6141  41.959  41.104   7.944
  151POPC   C4B 6142  42.061  40.799   7.657
  152POPC   NC3 6143  28.053  15.302   9.480
  152POPC   PO4 6144  27.426  15.115   9.477
  152POPC   GL1 6145  27.649  15.317   9.162
  152POPC   GL2 6146  27.904  15.099   9.045
  152POPC   C1A 6147  27.538  15.307   8.743
  152POPC   D2A 6148  27.501  15.036   8.382
  152POPC   C3A 6149  27.667  15.282   8.057
  152POPC   C4A 6150  27.633  15.551   7.696
  152POPC   C1B 6151  27.836  14.845   8.703
  152POPC   C2B 6152  27.975  14.852   8.266
  152POPC   C3B 6153  27.717  14.779   7.926
  152POPC   C4B 6154  27.782  15.062   7.605
  153POPC   NC3 6155  21.996  33.804   9.661
  153POPC   PO4 6156  22.470  33.322   9.584
  153POPC   GL1 6157  22.164  33.545   9.221
  153POPC   GL2 6158  21.884  33.812   9.172
  153POPC   C1A 6159  22.246  33.692   8.774
  153POPC   D2A 6160  22.230  33.539   8.332
  153POPC   C3A 6161  21.936  33.676   7.990
  153POPC   C4A 6162  22.215  33.679   7.678
  153POPC   C1B 6163  21.944  34.114   8.840
  153POPC   C2B 6164  22.144  34.195   8.464
  153POPC   C3B 6165  22.276  34.021   8.107
  153POPC   C4B 6166  22.230  34.205   7.709
  154POPC   NC3 6167  21.692  40.919   9.840
  154POPC   PO4 6168  22.332  40.815   9.565
  154POPC   GL1 6169  22.274  40.911   9.160
  154POPC   GL2 6170  21.942  40.776   9.114
  154POPC   C1A 6171  22.359  40.741   8.778
  154POPC   D2A 6172  22.264  40.714   8.357
  154POPC   C3A 6173  22.033  41.015   8.123
  154POPC   C4A 6174  22.166  40.890   7.726
  154POPC   C1B 6175  21.888  40.921   8.675
  154POPC   C2B 6176  21.730  40.660   8.358
  154POPC   C3B 6177  21.815  40.566   7.920
  154POPC   C4B 6178  21.828  40.600   7.430
  155POPC   NC3 6179  23.940  36.562   9.438
  155POPC   PO4 6180  23.925  37.200   9.717
  155POPC   GL1 6181  23.874  37.049   9.244
  155POPC   GL2 6182  23.637  36.799   9.118
  155POPC   C1A 6183  23.906  37.030   8.760
  155POPC   D2A 6184  23.679  36.820   8.411
  155POPC   C3A 6185  23.711  37.024   8.008
  155POPC   C4A 6186  23.959  36.898   7.656
  155POPC   C1B 6187  23.826  36.498   8.805
  155POPC   C2B 6188  23.992  36.378   8.417
  155POPC   C3B 6189  23.899  36.519   8.040
  155POPC   C4B 6190  23.591  36.537   7.772
  156POPC   NC3 6191  43.298  12.797   9.545
  156POPC   PO4 6192  42.683  13.064   9.602
  156POPC   GL1 6193  42.954  12.840   9.190
  156POPC   GL2 6194  43.256  13.037   9.108
  156POPC   C1A 6195  43.282  12.617   8.827
  156POPC   D2A 6196  43.524  12.727   8.395
  156POPC   C3A 6197  43.363  12.864   7.970
  156POPC   C4A 6198  42.982  12.710   7.754
  156POPC   C1B 6199  43.088  13.061   8.709
  156POPC   C2B 6200  43.012  12.817   8.361
  156POPC   C3B 6201  42.894  13.108   8.080
  156POPC   C4B 6202  43.043  13.213   7.711
  157POPC   NC3 6203  40.344  34.534   9.435
  157POPC   PO4 6204  41.022  34.573   9.445
  157POPC   GL1 6205  40.827  34.693   9.063
  157POPC   GL2 6206  40.503  34.544   8.948
  157POPC   C1A 6207  40.880  34.609   8.628
  157POPC   D2A 6208  40.829  34.423   8.254
  157POPC   C3A 6209  40.731  34.731   7.972
  157POPC   C4A 6210  40.796  34.661   7.536
  157POPC   C1B 6211  40.530  34.197   8.617
  157POPC   C2B 6212  40.409  34.121   8.195
  157POPC   C3B 6213  40.578  34.278   7.805
  157POPC   C4B 6214  40.386  34.351   7.416
  158POPC   NC3 6215  27.259  10.382   9.872
  158POPC   PO4 6216  27.748   9.942   9.535
  158POPC   GL1 6217  27.668   9.761   9.163
  158POPC   GL2 6218  27.365   9.612   9.306
  158POPC   C1A 6219  27.797   9.624   8.749
  158POPC   D2A 6220  27.568   9.782   8.388
  158POPC   C3A 6221  27.678   9.797   7.957
  158POPC   C4A 6222  27.472   9.832   7.577
  158POPC   C1B 6223  27.280   9.684   8.843
  158POPC   C2B 6224  27.104   9.616   8.424
  158POPC   C3B 6225  27.317   9.438   8.062
  158POPC   C4B 6226  27.062   9.419   7.713
  159POPC   NC3 6227  30.500  43.806   9.643
  159POPC   PO4 6228  30.486  44.494   9.619
  159POPC   GL1 6229  30.593  44.203   9.259
  159POPC   GL2 6230  30.896  43.969   9.242
  159POPC   C1A 6231  30.726  44.120   8.801
  159POPC   D2A 6232  30.667  43.817   8.455
  159POPC   C3A 6233  30.697  43.971   8.054
  159POPC   C4A 6234  30.503  44.170   7.687
  159POPC   C1B 6235  31.068  43.749   8.837
  159POPC   C2B 6236  31.151  43.685   8.379
  159POPC   C3B 6237  31.044  43.616   7.935
  159POPC   C4B 6238  30.965  43.980   7.619
  160POPC   NC3 6239  27.185  25.989   9.500
  160POPC   PO4 6240  27.812  26.181   9.737
  160POPC   GL1 6241  27.628  26.165   9.299
  160POPC   GL2 6242  27.915  25.926   9.271
  160POPC   C1A 6243  27.416  26.227   8.848
  160POPC   D2A 6244  27.601  26.413   8.472
  160POPC   C3A 6245  27.637  26.113   8.188
  160POPC   C4A 6246  27.661  26.079   7.760
  160POPC   C1B 6247  27.754  25.832   8.868
  160POPC   C2B 6248  27.855  25.606   8.495
  160POPC   C3B 6249  27.958  25.753   8.090
  160POPC   C4B 6250  27.808  25.595   7.716
  161POPC   NC3 6251  25.082  37.938   9.509
  161POPC   PO4 6252  24.977  37.229   9.551
  161POPC   GL1 6253  25.139  37.388   9.145
  161POPC   GL2 6254  25.369  37.667   9.158
  161POPC   C1A 6255  25.243  37.476   8.696
  161POPC   D2A 6256  25.050  37.743   8.387
  161POPC   C3A 6257  25.143  37.655   7.988
  161POPC   C4A 6258  25.003  37.956   7.637
  161POPC   C1B 6259  25.660  37.772   8.806
  161POPC   C2B 6260  25.575  37.810   8.347
  161POPC   C3B 6261  25.660  37.813   7.894
  161POPC   C4B 6262  25.406  37.642   7.569
  162POPC   NC3 6263  12.496   8.019   9.530
  162POPC   PO4 6264  11.864   8.146   9.557
  162POPC   GL1 6265  11.822   8.355   9.160
  162POPC   GL2 6266  12.184   8.427   9.059
  162POPC   C1A 6267  11.876   8.190   8.741
  162POPC   D2A 6268  12.142   8.354   8.384
  162POPC   C3A 6269  11.923   8.511   8.028
  162POPC   C4A 6270  11.718   8.179   7.817
  162POPC   C1B 6271  12.404   8.662   8.741
  162POPC   C2B 6272  12.603   8.599   8.354
  162POPC   C3B 6273  12.495   8.423   7.982
  162POPC   C4B 6274  12.228   8.116   7.777
  163POPC   NC3 6275   0.771  34.634   9.517
  163POPC   PO4 6276   1.376  34.302   9.450
  163POPC   GL1 6277   1.228  34.452   9.077
  163POPC   GL2 6278   1.062  34.742   9.077
  163POPC   C1A 6279   1.388  34.569   8.690
  163POPC   D2A 6280   1.291  34.746   8.285
  163POPC   C3A 6281   1.525  34.560   7.947
  163POPC   C4A 6282   1.398  34.702   7.565
  163POPC   C1B 6283   0.957  34.833   8.673
  163POPC   C2B 6284   0.769  34.910   8.268
  163POPC   C3B 6285   0.954  34.839   7.885
  163POPC   C4B 6286   1.020  34.400   7.756
  164POPC   NC3 6287  31.168  20.417   9.354
  164POPC   PO4 6288  31.670  20.645   9.745
  164POPC   GL1 6289  31.662  20.506   9.253
  164POPC   GL2 6290  31.405  20.702   9.013
  164POPC   C1A 6291  31.768  20.446   8.786
  164POPC   D2A 6292  31.562  20.731   8.465
  164POPC   C3A 6293  31.590  20.649   8.027
  164POPC   C4A 6294  31.775  20.871   7.688
  164POPC   C1B 6295  31.240  20.398   8.674
  164POPC   C2B 6296  31.223  20.305   8.218
  164POPC   C3B 6297  30.979  20.520   7.890
  164POPC   C4B 6298  30.995  20.531   7.408
  165POPC   NC3 6299   9.002  41.419   9.408
  165POPC   PO4 6300   8.898  42.089   9.391
  165POPC   GL1 6301   9.147  41.838   9.085
  165POPC   GL2 6302   9.145  41.464   8.941
  165POPC   C1A 6303   9.013  41.857   8.675
  165POPC   D2A 6304   8.821  41.609   8.407
  165POPC   C3A 6305   9.023  41.621   8.059
  165POPC   C4A 6306   8.857  41.636   7.689
  165POPC   C1B 6307   8.738  41.264   8.795
  165POPC   C2B 6308   8.530  41.188   8.391
  165POPC   C3B 6309   8.735  41.180   7.986
  165POPC   C4B 6310   9.155  41.221   7.752
  166POPC   NC3 6311  21.320   2.252   9.453
  166POPC   PO4 6312  21.600   1.681   9.712
  166POPC   GL1 6313  21.389   1.754   9.285
  166POPC   GL2 6314  21.549   2.004   9.087
  166POPC   C1A 6315  21.073   1.776   8.926
  166POPC   D2A 6316  20.998   1.640   8.500
  166POPC   C3A 6317  21.089   1.757   8.098
  166POPC   C4A 6318  21.209   1.972   7.749
  166POPC   C1B 6319  21.352   2.152   8.723
  166POPC   C2B 6320  21.269   2.226   8.269
  166POPC   C3B 6321  21.562   2.255   7.930
  166POPC   C4B 6322  21.772   2.106   7.607
  167POPC   NC3 6323  28.953  41.013   9.544
  167POPC   PO4 6324  29.411  40.487   9.548
  167POPC   GL1 6325  29.113  40.604   9.231
  167POPC   GL2 6326  29.398  40.709   9.092
  167POPC   C1A 6327  29.025  40.626   8.771
  167POPC   D2A 6328  28.943  40.660   8.344
  167POPC   C3A 6329  29.094  41.014   8.067
  167POPC   C4A 6330  29.154  40.959   7.596
  167POPC   C1B 6331  29.502  40.467   8.769
  167POPC   C2B 6332  29.458  40.627   8.357
  167POPC   C3B 6333  29.451  40.683   7.920
  167POPC   C4B 6334  29.426  40.531   7.460
  168POPC   NC3 6335  24.156  12.790   9.706
  168POPC   PO4 6336  23.800  12.543   9.521
  168POPC   GL1 6337  23.845  12.751   9.106
  168POPC   GL2 6338  23.633  13.053   9.017
  168POPC   C1A 6339  23.740  12.686   8.657
  168POPC   D2A 6340  23.518  12.815   8.290
  168POPC   C3A 6341  23.589  12.570   7.896
  168POPC   C4A 6342  23.878  12.539   7.517
  168POPC   C1B 6343  23.449  13.339   8.687
  168POPC   C2B 6344  23.266  13.323   8.263
  168POPC   C3B 6345  23.464  13.125   7.892
  168POPC   C4B 6346  23.875  12.984   7.785
  169POPC   NC3 6347  35.285   5.896   9.476
  169POPC   PO4 6348  35.171   5.248   9.278
  169POPC   GL1 6349  35.371   5.620   9.049
  169POPC   GL2 6350  35.093   5.879   9.002
  169POPC   C1A 6351  35.486   5.938   8.717
  169POPC   D2A 6352  35.292   5.868   8.322
  169POPC   C3A 6353  35.564   5.834   7.966
  169POPC   C4A 6354  35.652   6.221   7.834
  169POPC   C1B 6355  34.844   6.062   8.668
  169POPC   C2B 6356  34.805   6.217   8.226
  169POPC   C3B 6357  35.009   5.976   7.892
  169POPC   C4B 6358  35.150   5.538   7.943
  170POPC   NC3 6359   0.826  20.378   9.470
  170POPC   PO4 6360   1.374  20.123   9.643
  170POPC   GL1 6361   1.256  20.399   9.238
  170POPC   GL2 6362   1.045  20.093   9.109
  170POPC   C1A 6363   1.422  20.602   8.851
  170POPC   D2A 6364   1.521  20.371   8.496
  170POPC   C3A 6365   1.426  20.613   8.165
  170POPC   C4A 6366   1.435  20.535   7.773
  170POPC   C1B 6367   0.945  20.402   8.802
  170POPC   C2B 6368   0.978  20.656   8.432
  170POPC   C3B 6369   0.938  20.641   7.978
  170POPC   C4B 6370   0.918  20.989   7.733
  171POPC   NC3 6371  27.363   7.552   9.373
  171POPC   PO4 6372  27.958   7.320   9.529
  171POPC   GL1 6373  27.795   7.334   9.128
  171POPC   GL2 6374  27.843   7.699   9.160
  171POPC   C1A 6375  27.623   7.062   8.777
  171POPC   D2A 6376  27.760   6.957   8.359
  171POPC   C3A 6377  27.671   7.303   8.076
  171POPC   C4A 6378  27.798   7.238   7.675
  171POPC   C1B 6379  27.795   7.969   8.798
  171POPC   C2B 6380  27.751   7.763   8.379
  171POPC   C3B 6381  27.906   7.801   7.947
  171POPC   C4B 6382  27.718   7.720   7.549
  172POPC   NC3 6383  18.553   2.222   9.436
  172POPC   PO4 6384  17.993   1.747   9.535
  172POPC   GL1 6385  18.109   2.060   9.196
  172POPC   GL2 6386  18.413   1.952   9.018
  172POPC   C1A 6387  18.079   2.220   8.771
  172POPC   D2A 6388  18.273   1.945   8.479
  172POPC   C3A 6389  18.169   2.146   8.130
  172POPC   C4A 6390  18.231   2.125   7.702
  172POPC   C1B 6391  18.702   1.734   8.719
  172POPC   C2B 6392  18.615   1.531   8.346
  172POPC   C3B 6393  18.386   1.674   7.996
  172POPC   C4B 6394  18.531   1.718   7.605
  173POPC   NC3 6395  41.637  30.183   9.504
  173POPC   PO4 6396  41.827  29.529   9.493
  173POPC   GL1 6397  41.590  29.756   9.139
  173POPC   GL2 6398  41.392  30.059   9.078
  173POPC   C1A 6399  41.335  29.665   8.753
  173POPC   D2A 6400  41.361  29.928   8.375
  173POPC   C3A 6401  41.684  29.958   8.002
  173POPC   C4A 6402  41.856  30.019   7.555
  173POPC   C1B 6403  41.709  30.090   8.753
  173POPC   C2B 6404  41.692  30.347   8.355
  173POPC   C3B 6405  41.338  30.329   8.059
  173POPC   C4B 6406  41.379  30.140   7.634
  174POPC   NC3 6407  16.436  44.395   9.349
  174POPC   PO4 6408  17.137  44.338   9.502
  174POPC   GL1 6409  16.916  44.453   9.140
  174POPC   GL2 6410  16.931  44.815   9.170
  174POPC   C1A 6411  16.826  44.516   8.684
  174POPC   D2A 6412  16.544  44.447   8.357
  174POPC   C3A 6413  16.712  44.153   8.086
  174POPC   C4A 6414  16.964  44.182   7.747
  174POPC   C1B 6415  16.931   0.015   8.744
  174POPC   C2B 6416  16.819  44.899   8.289
  174POPC   C3B 6417  16.688  44.644   7.886
  174POPC   C4B 6418  16.570  44.629   7.442
  175POPC   NC3 6419   7.680  41.453   9.312
  175POPC   PO4 6420   7.244  41.849   9.535
  175POPC   GL1 6421   7.209  41.804   9.104
  175POPC   GL2 6422   7.528  41.856   9.025
  175POPC   C1A 6423   7.065  41.541   8.795
  175POPC   D2A 6424   7.180  41.293   8.453
  175POPC   C3A 6425   7.379  41.514   8.141
  175POPC   C4A 6426   7.175  41.697   7.789
  175POPC   C1B 6427   7.568  41.544   8.675
  175POPC   C2B 6428   7.784  41.264   8.385
  175POPC   C3B 6429   7.744  41.118   7.969
  175POPC   C4B 6430   7.566  41.365   7.668
  176POPC   NC3 6431   5.946  28.189   9.520
  176POPC   PO4 6432   5.502  28.725   9.489
  176POPC   GL1 6433   5.860  28.576   9.163
  176POPC   GL2 6434   5.765  28.308   9.043
  176POPC   C1A 6435   6.126  28.498   8.767
  176POPC   D2A 6436   6.038  28.669   8.363
  176POPC   C3A 6437   5.738  28.594   8.066
  176POPC   C4A 6438   5.959  28.659   7.683
  176POPC   C1B 6439   5.657  28.350   8.601
  176POPC   C2B 6440   5.619  28.137   8.242
  176POPC   C3B 6441   5.793  28.180   7.830
  176POPC   C4B 6442   5.576  28.320   7.495
  177POPC   NC3 6443   9.278  17.378   9.385
  177POPC   PO4 6444   8.596  17.584   9.534
  177POPC   GL1 6445   8.802  17.407   9.182
  177POPC   GL2 6446   8.971  17.764   9.176
  177POPC   C1A 6447   8.869  17.190   8.780
  177POPC   D2A 6448   9.130  17.314   8.409
  177POPC   C3A 6449   8.988  17.320   7.972
  177POPC   C4A 6450   8.577  17.339   7.716
  177POPC   C1B 6451   9.127  17.944   8.785
  177POPC   C2B 6452   8.942  17.843   8.411
  177POPC   C3B 6453   8.853  17.807   8.019
  177POPC   C4B 6454   9.097  17.751   7.700
  178POPC   NC3 6455  11.760  40.092   9.446
  178POPC   PO4 6456  12.361  39.914   9.496
  178POPC   GL1 6457  12.201  40.057   9.122
  178POPC   GL2 6458  11.990  39.776   9.082
  178POPC   C1A 6459  12.260  40.028   8.674
  178POPC   D2A 6460  12.455  39.990   8.288
  178POPC   C3A 6461  12.189  40.181   7.976
  178POPC   C4A 6462  12.101  40.043   7.552
  178POPC   C1B 6463  11.965  39.598   8.672
  178POPC   C2B 6464  11.959  39.802   8.273
  178POPC   C3B 6465  11.893  39.708   7.850
  178POPC   C4B 6466  11.872  39.612   7.358
  179POPC   NC3 6467  29.393  17.923   9.775
  179POPC   PO4 6468  29.319  18.456   9.283
  179POPC   GL1 6469  29.076  18.306   8.965
  179POPC   GL2 6470  29.169  18.558   8.775
  179POPC   C1A 6471  29.167  18.111   8.577
  179POPC   D2A 6472  29.056  18.403   8.255
  179POPC   C3A 6473  29.031  18.297   7.849
  179POPC   C4A 6474  29.335  18.151   7.583
  179POPC   C1B 6475  28.894  18.861   8.692
  179POPC   C2B 6476  28.784  19.041   8.309
  179POPC   C3B 6477  28.960  18.830   7.983
  179POPC   C4B 6478  28.789  18.683   7.594
  180POPC   NC3 6479  38.387  20.195  10.012
  180POPC   PO4 6480  38.626  19.761   9.475
  180POPC   GL1 6481  38.497  19.928   9.069
  180POPC   GL2 6482  38.753  20.177   9.096
  180POPC   C1A 6483  38.132  19.762   8.783
  180POPC   D2A 6484  38.321  19.887   8.410
  180POPC   C3A 6485  38.420  19.936   7.965
  180POPC   C4A 6486  38.649  20.250   7.735
  180POPC   C1B 6487  38.872  19.890   8.753
  180POPC   C2B 6488  38.832  19.947   8.335
  180POPC   C3B 6489  38.956  19.909   7.941
  180POPC   C4B 6490  38.778  19.635   7.706
  181POPC   NC3 6491  19.448  23.611   9.419
  181POPC   PO4 6492  20.015  23.404   9.679
  181POPC   GL1 6493  19.916  23.414   9.208
  181POPC   GL2 6494  19.856  23.763   9.114
  181POPC   C1A 6495  20.074  23.484   8.752
  181POPC   D2A 6496  20.278  23.653   8.353
  181POPC   C3A 6497  19.983  23.793   8.041
  181POPC   C4A 6498  19.933  24.027   7.626
  181POPC   C1B 6499  19.543  23.650   8.767
  181POPC   C2B 6500  19.384  23.806   8.345
  181POPC   C3B 6501  19.500  23.844   7.896
  181POPC   C4B 6502  19.456  23.803   7.461
  182POPC   NC3 6503  36.884   8.440   9.573
  182POPC   PO4 6504  37.397   8.020   9.875
  182POPC   GL1 6505  37.251   8.169   9.420
  182POPC   GL2 6506  36.993   7.941   9.251
  182POPC   C1A 6507  37.212   8.307   8.952
  182POPC   D2A 6508  37.355   8.268   8.487
  182POPC   C3A 6509  37.065   8.334   8.106
  182POPC   C4A 6510  36.673   8.437   7.852
  182POPC   C1B 6511  37.010   7.741   8.815
  182POPC   C2B 6512  36.799   7.752   8.419
  182POPC   C3B 6513  36.562   8.048   8.195
  182POPC   C4B 6514  36.514   7.964   7.772
  183POPC   NC3 6515   7.291  13.959   9.749
  183POPC   PO4 6516   7.405  14.532   9.547
  183POPC   GL1 6517   7.452  14.448   9.139
  183POPC   GL2 6518   7.451  14.126   9.154
  183POPC   C1A 6519   7.398  14.484   8.693
  183POPC   D2A 6520   7.490  14.409   8.259
  183POPC   C3A 6521   7.385  14.716   7.936
  183POPC   C4A 6522   7.075  14.462   7.690
  183POPC   C1B 6523   7.811  14.200   8.860
  183POPC   C2B 6524   7.958  14.306   8.458
  183POPC   C3B 6525   7.868  14.145   8.051
  183POPC   C4B 6526   7.616  14.310   7.749
  184POPC   NC3 6527  21.336  38.523   9.564
  184POPC   PO4 6528  21.784  38.180   9.593
  184POPC   GL1 6529  21.624  38.376   9.166
  184POPC   GL2 6530  21.213  38.371   9.100
  184POPC   C1A 6531  21.572  38.533   8.732
  184POPC   D2A 6532  21.385  38.733   8.378
  184POPC   C3A 6533  21.653  38.693   8.035
  184POPC   C4A 6534  21.745  38.363   7.737
  184POPC   C1B 6535  21.122  38.357   8.665
  184POPC   C2B 6536  21.380  38.216   8.346
  184POPC   C3B 6537  21.296  38.340   7.970
  184POPC   C4B 6538  20.947  38.313   7.759
  185POPC   NC3 6539   5.910   7.520   9.626
  185POPC   PO4 6540   5.497   7.994   9.375
  185POPC   GL1 6541   5.812   7.662   9.161
  185POPC   GL2 6542   5.630   7.374   9.152
  185POPC   C1A 6543   6.047   7.564   8.722
  185POPC   D2A 6544   6.170   7.414   8.265
  185POPC   C3A 6545   6.036   7.549   7.824
  185POPC   C4A 6546   6.006   7.202   7.496
  185POPC   C1B 6547   5.540   7.637   8.752
  185POPC   C2B 6548   5.700   7.672   8.324
  185POPC   C3B 6549   5.679   7.292   8.067
  185POPC   C4B 6550   5.502   7.188   7.675
  186POPC   NC3 6551   6.759  42.923   9.422
  186POPC   PO4 6552   6.763  43.603   9.526
  186POPC   GL1 6553   6.700  43.370   9.160
  186POPC   GL2 6554   7.036  43.320   9.071
  186POPC   C1A 6555   6.533  43.196   8.766
  186POPC   D2A 6556   6.405  43.343   8.344
  186POPC   C3A 6557   6.474  43.064   7.983
  186POPC   C4A 6558   6.472  43.163   7.548
  186POPC   C1B 6559   7.000  42.957   8.792
  186POPC   C2B 6560   6.831  42.960   8.387
  186POPC   C3B 6561   6.962  43.004   7.970
  186POPC   C4B 6562   6.956  42.989   7.529
  187POPC   NC3 6563  23.429  13.600   9.353
  187POPC   PO4 6564  22.840  13.639   9.555
  187POPC   GL1 6565  22.900  13.630   9.123
  187POPC   GL2 6566  23.113  13.880   9.071
  187POPC   C1A 6567  22.982  13.589   8.668
  187POPC   D2A 6568  22.826  13.746   8.279
  187POPC   C3A 6569  23.041  13.607   7.894
  187POPC   C4A 6570  23.476  13.615   7.750
  187POPC   C1B 6571  23.376  13.935   8.741
  187POPC   C2B 6572  23.312  14.144   8.370
  187POPC   C3B 6573  23.044  14.122   8.025
  187POPC   C4B 6574  23.210  14.042   7.654
  188POPC   NC3 6575  22.685  23.942   9.405
  188POPC   PO4 6576  23.127  23.349   9.468
  188POPC   GL1 6577  22.961  23.608   9.150
  188POPC   GL2 6578  22.601  23.529   9.150
  188POPC   C1A 6579  23.016  23.895   8.773
  188POPC   D2A 6580  23.305  23.876   8.414
  188POPC   C3A 6581  23.148  23.852   7.999
  188POPC   C4A 6582  23.155  23.559   7.709
  188POPC   C1B 6583  22.491  23.735   8.763
  188POPC   C2B 6584  22.728  23.792   8.366
  188POPC   C3B 6585  22.622  23.858   7.944
  188POPC   C4B 6586  22.410  23.558   7.694
  189POPC   NC3 6587  37.309  36.480   9.760
  189POPC   PO4 6588  36.802  36.189   9.391
  189POPC   GL1 6589  36.941  36.218   9.015
  189POPC   GL2 6590  36.663  36.366   8.855
  189POPC   C1A 6591  37.107  36.098   8.629
  189POPC   D2A 6592  37.039  36.260   8.209
  189POPC   C3A 6593  37.227  36.344   7.775
  189POPC   C4A 6594  37.232  36.317   7.293
  189POPC   C1B 6595  36.625  35.941   8.717
  189POPC   C2B 6596  36.764  35.827   8.332
  189POPC   C3B 6597  36.662  36.028   7.938
  189POPC   C4B 6598  36.468  35.784   7.648
  190POPC   NC3 6599  29.771  31.137   9.867
  190POPC   PO4 6600  29.822  31.587   9.380
  190POPC   GL1 6601  30.046  31.400   9.068
  190POPC   GL2 6602  30.307  31.629   9.138
  190POPC   C1A 6603  29.934  31.395   8.614
  190POPC   D2A 6604  29.720  31.646   8.282
  190POPC   C3A 6605  29.665  31.349   7.960
  190POPC   C4A 6606  30.002  31.288   7.662
  190POPC   C1B 6607  30.179  31.818   8.762
  190POPC   C2B 6608  30.231  31.767   8.336
  190POPC   C3B 6609  30.083  31.761   7.903
  190POPC   C4B 6610  29.697  31.750   7.668
  191POPC   NC3 6611  23.308  22.898   9.535
  191POPC   PO4 6612  22.641  22.834   9.704
  191POPC   GL1 6613  22.814  22.823   9.286
  191POPC   GL2 6614  22.883  23.104   9.091
  191POPC   C1A 6615  22.745  22.695   8.835
  191POPC   D2A 6616  22.743  22.976   8.464
  191POPC   C3A 6617  22.884  22.878   8.073
  191POPC   C4A 6618  23.004  22.766   7.661
  191POPC   C1B 6619  22.894  23.396   8.713
  191POPC   C2B 6620  23.085  23.405   8.331
  191POPC   C3B 6621  22.810  23.385   8.032
  191POPC   C4B 6622  22.773  23.211   7.645
  192POPC   NC3 6623  20.443   3.966   9.643
  192POPC   PO4 6624  20.500   3.334   9.702
  192POPC   GL1 6625  20.726   3.592   9.281
  192POPC   GL2 6626  20.572   3.885   9.155
  192POPC   C1A 6627  20.848   3.788   8.770
  192POPC   D2A 6628  20.596   3.797   8.356
  192POPC   C3A 6629  20.755   3.635   7.971
  192POPC   C4A 6630  20.696   3.452   7.566
  192POPC   C1B 6631  20.364   3.671   8.790
  192POPC   C2B 6632  20.304   3.334   8.505
  192POPC   C3B 6633  20.150   3.394   8.084
  192POPC   C4B 6634  20.254   3.817   7.933
  193POPC   NC3 6635   3.755  38.161   9.525
  193POPC   PO4 6636   3.177  38.586   9.571
  193POPC   GL1 6637   3.538  38.547   9.215
  193POPC   GL2 6638   3.583  38.187   9.069
  193POPC   C1A 6639   3.794  38.554   8.804
  193POPC   D2A 6640   3.800  38.247   8.427
  193POPC   C3A 6641   3.602  38.405   8.048
  193POPC   C4A 6642   3.687  38.637   7.674
  193POPC   C1B 6643   3.367  38.252   8.716
  193POPC   C2B 6644   3.307  38.060   8.322
  193POPC   C3B 6645   3.242  38.052   7.899
  193POPC   C4B 6646   3.544  38.154   7.583
  194POPC   NC3 6647  44.232   6.666   9.206
  194POPC   PO4 6648  44.855   6.541   9.453
  194POPC   GL1 6649  44.886   6.317   9.076
  194POPC   GL2 6650  44.570   6.339   9.036
  194POPC   C1A 6651  44.830   6.343   8.603
  194POPC   D2A 6652  44.685   6.691   8.314
  194POPC   C3A 6653  44.894   6.659   7.947
  194POPC   C4A 6654   0.021   6.288   7.742
  194POPC   C1B 6655  44.709   6.779   8.826
  194POPC   C2B 6656  44.527   7.134   8.562
  194POPC   C3B 6657  44.465   7.153   8.099
  194POPC   C4B 6658  44.517   6.908   7.705
  195POPC   NC3 6659  43.039  17.841   9.577
  195POPC   PO4 6660  43.098  18.494   9.474
  195POPC   GL1 6661  43.187  18.215   9.171
  195POPC   GL2 6662  43.458  18.012   9.241
  195POPC   C1A 6663  43.118  18.319   8.764
  195POPC   D2A 6664  43.060  18.596   8.450
  195POPC   C3A 6665  43.065  18.446   8.053
  195POPC   C4A 6666  43.012  18.732   7.729
  195POPC   C1B 6667  43.584  18.129   8.814
  195POPC   C2B 6668  43.394  18.073   8.398
  195POPC   C3B 6669  43.441  18.106   7.953
  195POPC   C4B 6670  43.235  18.274   7.581
  196POPC   NC3 6671  36.114  28.810   9.560
  196POPC   PO4 6672  36.236  29.495   9.500
  196POPC   GL1 6673  36.065  29.155   9.176
  196POPC   GL2 6674  36.319  28.875   9.105
  196POPC   C1A 6675  35.871  28.810   8.860
  196POPC   D2A 6676  35.955  28.709   8.428
  196POPC   C3A 6677  35.964  29.071   8.178
  196POPC   C4A 6678  35.990  29.368   7.848
  196POPC   C1B 6679  36.261  29.107   8.694
  196POPC   C2B 6680  36.454  29.215   8.300
  196POPC   C3B 6681  36.408  29.014   7.924
  196POPC   C4B 6682  36.485  28.790   7.564
  197POPC   NC3 6683  14.139   2.260   9.351
  197POPC   PO4 6684  14.431   1.705   9.422
  197POPC   GL1 6685  14.448   1.955   9.060
  197POPC   GL2 6686  14.647   2.262   9.108
  197POPC   C1A 6687  14.205   2.086   8.695
  197POPC   D2A 6688  14.354   2.204   8.298
  197POPC   C3A 6689  14.186   1.974   7.982
  197POPC   C4A 6690  14.287   1.925   7.588
  197POPC   C1B 6691  14.727   2.125   8.660
  197POPC   C2B 6692  14.831   2.003   8.240
  197POPC   C3B 6693  14.660   2.148   7.862
  197POPC   C4B 6694  14.390   2.438   7.611
  198POPC   NC3 6695  25.616  15.836   9.376
  198POPC   PO4 6696  26.200  16.181   9.452
  198POPC   GL1 6697  26.050  15.946   9.141
  198POPC   GL2 6698  26.073  16.269   8.966
  198POPC   C1A 6699  25.910  15.804   8.759
  198POPC   D2A 6700  26.229  16.012   8.536
  198POPC   C3A 6701  26.240  16.094   8.126
  198POPC   C4A 6702  26.280  16.009   7.726
  198POPC   C1B 6703  25.746  16.296   8.701
  198POPC   C2B 6704  25.837  16.386   8.299
  198POPC   C3B 6705  25.759  16.169   7.949
  198POPC   C4B 6706  25.788  15.809   7.774
  199POPC   NC3 6707  36.640  39.120   9.549
  199POPC   PO4 6708  37.303  39.041   9.489
  199POPC   GL1 6709  37.033  39.158   9.147
  199POPC   GL2 6710  36.678  39.058   9.054
  199POPC   C1A 6711  37.041  38.981   8.730
  199POPC   D2A 6712  37.141  39.234   8.382
  199POPC   C3A 6713  36.894  39.361   8.041
  199POPC   C4A 6714  37.013  39.268   7.654
  199POPC   C1B 6715  36.585  39.176   8.635
  199POPC   C2B 6716  36.513  39.060   8.212
  199POPC   C3B 6717  36.714  38.886   7.843
  199POPC   C4B 6718  36.687  39.004   7.363
  200POPC   NC3 6719  41.636  27.445   9.567
  200POPC   PO4 6720  40.947  27.483   9.562
  200POPC   GL1 6721  41.300  27.394   9.199
  200POPC   GL2 6722  41.658  27.226   9.120
  200POPC   C1A 6723  41.539  27.614   8.832
  200POPC   D2A 6724  41.353  27.734   8.469
  200POPC   C3A 6725  41.603  27.826   8.167
  200POPC   C4A 6726  41.635  27.625   7.802
  200POPC   C1B 6727  41.960  27.329   8.794
  200POPC   C2B 6728  41.952  27.496   8.397
  200POPC   C3B 6729  41.967  27.224   8.059
  200POPC   C4B 6730  41.969  27.310   7.633
  201POPC   NC3 6731  32.668  36.115   9.433
  201POPC   PO4 6732  33.272  35.887   9.576
  201POPC   GL1 6733  33.322  36.076   9.168
  201POPC   GL2 6734  32.979  36.130   9.050
  201POPC   C1A 6735  33.323  36.237   8.715
  201POPC   D2A 6736  33.000  36.175   8.397
  201POPC   C3A 6737  33.159  36.199   7.980
  201POPC   C4A 6738  33.251  36.546   7.718
  201POPC   C1B 6739  32.590  35.977   8.802
  201POPC   C2B 6740  32.397  35.973   8.405
  201POPC   C3B 6741  32.604  36.070   8.024
  201POPC   C4B 6742  32.768  36.303   7.651
  202POPC   NC3 6743  33.116  39.986   9.531
  202POPC   PO4 6744  33.609  40.297   9.173
  202POPC   GL1 6745  33.268  40.134   8.956
  202POPC   GL2 6746  33.128  39.829   9.068
  202POPC   C1A 6747  33.169  39.968   8.557
  202POPC   D2A 6748  33.119  39.865   8.182
  202POPC   C3A 6749  33.012  40.134   7.888
  202POPC   C4A 6750  33.360  40.023   7.683
  202POPC   C1B 6751  32.774  39.908   8.840
  202POPC   C2B 6752  32.649  40.015   8.385
  202POPC   C3B 6753  32.651  39.799   7.959
  202POPC   C4B 6754  32.856  39.890   7.489
  203POPC   NC3 6755  43.671   2.846   9.951
  203POPC   PO4 6756  44.238   2.736   9.584
  203POPC   GL1 6757  43.891   2.799   9.301
  203POPC   GL2 6758  43.833   3.171   9.389
  203POPC   C1A 6759  43.827   2.696   8.845
  203POPC   D2A 6760  43.981   2.510   8.420
  203POPC   C3A 6761  43.800   2.688   8.002
  203POPC   C4A 6762  43.764   2.671   7.516
  203POPC   C1B 6763  44.074   3.147   8.984
  203POPC   C2B 6764  43.939   3.101   8.530
  203POPC   C3B 6765  43.791   3.226   8.112
  203POPC   C4B 6766  43.955   3.112   7.714
  204POPC   NC3 6767  29.569  19.560   9.529
  204POPC   PO4 6768  30.156  19.841   9.431
  204POPC   GL1 6769  29.900  19.712   9.131
  204POPC   GL2 6770  29.609  19.916   9.108
  204POPC   C1A 6771  30.045  19.750   8.737
  204POPC   D2A 6772  30.179  19.565   8.382
  204POPC   C3A 6773  30.043  19.772   8.023
  204POPC   C4A 6774  29.981  19.645   7.598
  204POPC   C1B 6775  29.709  20.129   8.697
  204POPC   C2B 6776  29.685  20.083   8.228
  204POPC   C3B 6777  29.651  20.330   7.845
  204POPC   C4B 6778  29.620  20.263   7.386
  205POPC   NC3 6779  23.774  37.699   9.587
  205POPC   PO4 6780  23.408  37.288   9.243
  205POPC   GL1 6781  23.781  37.519   9.115
  205POPC   GL2 6782  23.889  37.857   9.110
  205POPC   C1A 6783  23.791  37.543   8.718
  205POPC   D2A 6784  23.555  37.320   8.445
  205POPC   C3A 6785  23.752  37.530   8.162
  205POPC   C4A 6786  23.747  37.613   7.780
  205POPC   C1B 6787  23.462  37.876   8.906
  205POPC   C2B 6788  23.409  37.827   8.454
  205POPC   C3B 6789  23.500  38.011   8.022
  205POPC   C4B 6790  23.554  38.004   7.551
  206POPC   NC3 6791  30.372  10.607   9.737
  206POPC   PO4 6792  29.777  10.511   9.578
  206POPC   GL1 6793  29.905  10.417   9.145
  206POPC   GL2 6794  30.225  10.230   9.231
  206POPC   C1A 6795  29.672  10.346   8.718
  206POPC   D2A 6796  29.460  10.454   8.291
  206POPC   C3A 6797  29.754  10.443   7.932
  206POPC   C4A 6798  30.167  10.669   7.858
  206POPC   C1B 6799  30.129  10.135   8.781
  206POPC   C2B 6800  29.994  10.082   8.348
  206POPC   C3B 6801  30.174  10.130   7.939
  206POPC   C4B 6802  30.538  10.339   7.746
  207POPC   NC3 6803   1.889  42.675   9.746
  207POPC   PO4 6804   1.943  43.319   9.569
  207POPC   GL1 6805   1.842  43.050   9.201
  207POPC   GL2 6806   1.787  43.379   9.099
  207POPC   C1A 6807   1.820  42.950   8.781
  207POPC   D2A 6808   2.143  42.945   8.507
  207POPC   C3A 6809   2.022  42.920   8.084
  207POPC   C4A 6810   2.310  42.951   7.753
  207POPC   C1B 6811   2.062  43.426   8.764
  207POPC   C2B 6812   1.943  43.395   8.364
  207POPC   C3B 6813   2.113  43.402   7.973
  207POPC   C4B 6814   1.887  43.256   7.622
  208POPC   NC3 6815   9.975  32.845   9.472
  208POPC   PO4 6816   9.372  33.099   9.171
  208POPC   GL1 6817   9.806  33.100   9.052
  208POPC   GL2 6818   9.941  32.757   8.986
  208POPC   C1A 6819   9.832  33.104   8.613
  208POPC   D2A 6820   9.741  32.872   8.273
  208POPC   C3A 6821   9.829  33.165   7.979
  208POPC   C4A 6822  10.029  32.969   7.694
  208POPC   C1B 6823   9.613  32.629   8.730
  208POPC   C2B 6824   9.368  32.459   8.406
  208POPC   C3B 6825   9.377  32.604   8.008
  208POPC   C4B 6826   9.546  32.854   7.694
  209POPC   NC3 6827   3.562  26.674   9.785
  209POPC   PO4 6828   3.140  27.102   9.484
  209POPC   GL1 6829   3.413  26.787   9.279
  209POPC   GL2 6830   3.267  26.508   9.118
  209POPC   C1A 6831   3.556  26.814   8.824
  209POPC   D2A 6832   3.494  27.108   8.469
  209POPC   C3A 6833   3.824  27.173   8.125
  209POPC   C4A 6834   3.863  27.106   7.669
  209POPC   C1B 6835   3.280  26.400   8.681
  209POPC   C2B 6836   3.402  26.617   8.316
  209POPC   C3B 6837   3.534  26.465   7.904
  209POPC   C4B 6838   3.924  26.566   7.656
  210POPC   NC3 6839  29.715   5.817   9.331
  210POPC   PO4 6840  30.212   6.389   9.106
  210POPC   GL1 6841  29.923   6.119   8.999
  210POPC   GL2 6842  29.977   5.744   8.912
  210POPC   C1A 6843  29.572   6.054   8.743
  210POPC   D2A 6844  29.765   5.793   8.449
  210POPC   C3A 6845  29.972   5.955   8.125
  210POPC   C4A 6846  29.860   5.910   7.727
  210POPC   C1B 6847  30.073   5.382   8.673
  210POPC   C2B 6848  30.145   5.494   8.275
  210POPC   C3B 6849  30.106   5.510   7.881
  210POPC   C4B 6850  30.148   5.613   7.433
  211POPC   NC3 6851   7.723  32.589   9.910
  211POPC   PO4 6852   7.397  32.038   9.581
  211POPC   GL1 6853   7.502  32.209   9.187
  211POPC   GL2 6854   7.275  32.486   9.021
  211POPC   C1A 6855   7.428  32.065   8.788
  211POPC   D2A 6856   7.163  32.193   8.499
  211POPC   C3A 6857   7.362  32.116   8.098
  211POPC   C4A 6858   7.351  32.165   7.651
  211POPC   C1B 6859   7.111  32.687   8.664
  211POPC   C2B 6860   7.257  32.667   8.254
  211POPC   C3B 6861   7.505  32.607   7.899
  211POPC   C4B 6862   7.456  32.655   7.432
  212POPC   NC3 6863  12.323  14.007   9.445
  212POPC   PO4 6864  11.976  14.501   9.776
  212POPC   GL1 6865  11.950  14.390   9.293
  212POPC   GL2 6866  11.860  14.691   9.082
  212POPC   C1A 6867  12.187  14.354   8.874
  212POPC   D2A 6868  12.070  14.149   8.487
  212POPC   C3A 6869  12.204  14.243   8.060
  212POPC   C4A 6870  12.256  13.985   7.676
  212POPC   C1B 6871  11.732  14.770   8.673
  212POPC   C2B 6872  11.883  14.610   8.303
  212POPC   C3B 6873  11.919  14.636   7.878
  212POPC   C4B 6874  11.837  14.854   7.467
  213POPC   NC3 6875   1.473   8.071   9.304
  213POPC   PO4 6876   1.007   8.480   9.695
  213POPC   GL1 6877   0.884   8.308   9.215
  213POPC   GL2 6878   1.009   7.975   9.128
  213POPC   C1A 6879   1.131   8.332   8.723
  213POPC   D2A 6880   1.388   8.468   8.366
  213POPC   C3A 6881   1.153   8.401   7.975
  213POPC   C4A 6882   1.138   8.250   7.526
  213POPC   C1B 6883   1.108   7.816   8.732
  213POPC   C2B 6884   1.047   8.019   8.313
  213POPC   C3B 6885   1.201   7.886   7.883
  213POPC   C4B 6886   0.942   7.647   7.579
  214POPC   NC3 6887  18.701  42.701   9.660
  214POPC   PO4 6888  19.066  43.232   9.706
  214POPC   GL1 6889  19.016  43.150   9.256
  214POPC   GL2 6890  18.985  42.786   9.242
  214POPC   C1A 6891  18.883  43.102   8.814
  214POPC   D2A 6892  18.996  43.174   8.374
  214POPC   C3A 6893  18.995  43.517   8.116
  214POPC   C4A 6894  18.953  43.319   7.747
  214POPC   C1B 6895  19.227  42.725   8.879
  214POPC   C2B 6896  19.254  42.725   8.443
  214POPC   C3B 6897  19.209  42.857   8.021
  214POPC   C4B 6898  19.417  42.599   7.777
  215POPC   NC3 6899  35.271  21.743   9.603
  215POPC   PO4 6900  35.009  22.302   9.447
  215POPC   GL1 6901  35.304  22.095   9.171
  215POPC   GL2 6902  35.678  22.192   9.221
  215POPC   C1A 6903  35.256  22.203   8.732
  215POPC   D2A 6904  35.161  21.999   8.346
  215POPC   C3A 6905  35.331  22.211   8.006
  215POPC   C4A 6906  35.203  22.446   7.688
  215POPC   C1B 6907  35.725  21.997   8.811
  215POPC   C2B 6908  35.671  22.179   8.403
  215POPC   C3B 6909  35.792  21.999   8.011
  215POPC   C4B 6910  35.737  22.261   7.641
  216POPC   NC3 6911  33.446  14.337   9.442
  216POPC   PO4 6912  33.830  14.804   9.539
  216POPC   GL1 6913  33.861  14.550   9.182
  216POPC   GL2 6914  33.918  14.188   9.269
  216POPC   C1A 6915  33.856  14.608   8.748
  216POPC   D2A 6916  34.120  14.648   8.374
  216POPC   C3A 6917  33.947  14.554   7.966
  216POPC   C4A 6918  33.554  14.327   7.849
  216POPC   C1B 6919  33.993  14.126   8.822
  216POPC   C2B 6920  33.817  14.227   8.398
  216POPC   C3B 6921  33.950  14.047   8.014
  216POPC   C4B 6922  33.975  14.050   7.560
  217POPC   NC3 6923  39.272  17.775   9.642
  217POPC   PO4 6924  39.498  18.367   9.382
  217POPC   GL1 6925  39.252  18.459   9.044
  217POPC   GL2 6926  39.244  18.097   9.017
  217POPC   C1A 6927  38.991  18.477   8.691
  217POPC   D2A 6928  39.040  18.315   8.225
  217POPC   C3A 6929  39.051  18.496   7.791
  217POPC   C4A 6930  38.730  18.561   7.449
  217POPC   C1B 6931  39.126  17.997   8.617
  217POPC   C2B 6932  38.898  17.768   8.328
  217POPC   C3B 6933  38.988  17.874   7.923
  217POPC   C4B 6934  39.348  17.809   7.683
  218POPC   NC3 6935  31.500  28.723   9.417
  218POPC   PO4 6936  31.618  28.064   9.517
  218POPC   GL1 6937  31.503  28.249   9.149
  218POPC   GL2 6938  31.179  28.408   9.164
  218POPC   C1A 6939  31.379  28.193   8.738
  218POPC   D2A 6940  31.506  28.266   8.332
  218POPC   C3A 6941  31.304  28.036   8.027
  218POPC   C4A 6942  31.653  28.079   7.777
  218POPC   C1B 6943  31.303  28.724   8.787
  218POPC   C2B 6944  31.200  28.687   8.316
  218POPC   C3B 6945  31.299  28.544   7.847
  218POPC   C4B 6946  31.194  28.595   7.370
  219POPC   NC3 6947  20.130  34.623   9.760
  219POPC   PO4 6948  20.445  34.183   9.396
  219POPC   GL1 6949  20.472  34.336   8.967
  219POPC   GL2 6950  20.783  34.376   8.984
  219POPC   C1A 6951  20.397  34.484   8.569
  219POPC   D2A 6952  20.455  34.675   8.164
  219POPC   C3A 6953  20.244  34.437   7.818
  219POPC   C4A 6954  20.289  34.487   7.352
  219POPC   C1B 6955  20.970  34.345   8.612
  219POPC   C2B 6956  20.955  34.569   8.233
  219POPC   C3B 6957  20.791  34.460   7.841
  219POPC   C4B 6958  20.816  34.624   7.437
  220POPC   NC3 6959  19.923  22.951   9.682
  220POPC   PO4 6960  19.347  23.123   9.386
  220POPC   GL1 6961  19.647  22.870   9.133
  220POPC   GL2 6962  20.015  22.904   9.175
  220POPC   C1A 6963  19.777  23.006   8.708
  220POPC   D2A 6964  19.660  23.329   8.390
  220POPC   C3A 6965  19.723  23.181   7.976
  220POPC   C4A 6966  19.559  22.818   7.771
  220POPC   C1B 6967  20.117  22.621   8.832
  220POPC   C2B 6968  20.252  22.693   8.400
  220POPC   C3B 6969  20.104  22.778   7.952
  220POPC   C4B 6970  20.012  23.038   7.566
  221POPC   NC3 6971   8.808  36.681   9.636
  221POPC   PO4 6972   9.351  37.180   9.583
  221POPC   GL1 6973   9.109  36.951   9.236
  221POPC   GL2 6974   9.137  36.578   9.185
  221POPC   C1A 6975   8.944  36.832   8.801
  221POPC   D2A 6976   8.746  36.752   8.409
  221POPC   C3A 6977   8.911  36.914   7.994
  221POPC   C4A 6978   8.714  37.087   7.607
  221POPC   C1B 6979   9.369  36.538   8.746
  221POPC   C2B 6980   9.382  36.388   8.291
  221POPC   C3B 6981   9.331  36.545   7.836
  221POPC   C4B 6982   9.135  36.809   7.503
  222POPC   NC3 6983  23.122  39.678   9.446
  222POPC   PO4 6984  22.527  40.128   9.487
  222POPC   GL1 6985  22.786  39.985   9.178
  222POPC   GL2 6986  23.066  40.218   9.237
  222POPC   C1A 6987  22.852  39.738   8.801
  222POPC   D2A 6988  22.688  39.595   8.416
  222POPC   C3A 6989  22.844  39.724   8.059
  222POPC   C4A 6990  22.830  39.885   7.666
  222POPC   C1B 6991  23.032  40.230   8.783
  222POPC   C2B 6992  23.201  39.959   8.444
  222POPC   C3B 6993  23.210  40.099   8.018
  222POPC   C4B 6994  22.856  40.377   7.819
  223POPC   NC3 6995   6.653  18.166   9.607
  223POPC   PO4 6996   6.974  18.689   9.426
  223POPC   GL1 6997   6.690  18.374   9.154
  223POPC   GL2 6998   6.427  18.086   9.169
  223POPC   C1A 6999   6.601  18.382   8.724
  223POPC   D2A 7000   6.718  18.563   8.397
  223POPC   C3A 7001   6.481  18.436   8.060
  223POPC   C4A 7002   6.677  18.401   7.654
  223POPC   C1B 7003   6.801  17.966   8.899
  223POPC   C2B 7004   6.726  17.802   8.529
  223POPC   C3B 7005   6.711  17.775   8.137
  223POPC   C4B 7006   6.516  17.971   7.824
  224POPC   NC3 7007  15.344  27.524   9.411
  224POPC   PO4 7008  15.984  27.690   9.683
  224POPC   GL1 7009  15.969  27.730   9.231
  224POPC   GL2 7010  15.853  27.408   9.167
  224POPC   C1A 7011  16.052  27.711   8.765
  224POPC   D2A 7012  16.081  27.528   8.336
  224POPC   C3A 7013  16.060  27.751   7.947
  224POPC   C4A 7014  16.372  27.895   7.643
  224POPC   C1B 7015  15.824  27.212   8.752
  224POPC   C2B 7016  15.629  27.313   8.350
  224POPC   C3B 7017  15.789  27.257   7.910
  224POPC   C4B 7018  15.721  27.260   7.434
  225POPC   NC3 7019  18.240  23.236   9.251
  225POPC   PO4 7020  18.192  23.883   9.464
  225POPC   GL1 7021  18.282  23.751   9.060
  225POPC   GL2 7022  17.999  23.627   8.986
  225POPC   C1A 7023  18.313  23.914   8.627
  225POPC   D2A 7024  18.097  23.976   8.232
  225POPC   C3A 7025  18.195  23.700   7.890
  225POPC   C4A 7026  18.010  23.362   7.718
  225POPC   C1B 7027  18.160  23.446   8.640
  225POPC   C2B 7028  18.394  23.495   8.312
  225POPC   C3B 7029  18.715  23.423   8.029
  225POPC   C4B 7030  18.665  23.341   7.608
  226POPC   NC3 7031  15.615  43.087   9.353
  226POPC   PO4 7032  14.908  43.305   9.552
  226POPC   GL1 7033  15.142  43.173   9.220
  226POPC   GL2 7034  15.367  43.426   9.118
  226POPC   C1A 7035  15.127  43.124   8.779
  226POPC   D2A 7036  15.070  43.294   8.350
  226POPC   C3A 7037  15.007  42.956   8.021
  226POPC   C4A 7038  15.215  42.850   7.590
  226POPC   C1B 7039  15.595  43.354   8.724
  226POPC   C2B 7040  15.623  43.348   8.271
  226POPC   C3B 7041  15.444  43.213   7.885
  226POPC   C4B 7042  15.476  43.385   7.472
  227POPC   NC3 7043  31.314  25.613   9.515
  227POPC   PO4 7044  31.826  25.179   9.463
  227POPC   GL1 7045  31.573  25.362   9.148
  227POPC   GL2 7046  31.194  25.227   9.180
  227POPC   C1A 7047  31.472  25.221   8.752
  227POPC   D2A 7048  31.232  25.319   8.416
  227POPC   C3A 7049  31.376  25.196   8.015
  227POPC   C4A 7050  31.203  24.996   7.687
  227POPC   C1B 7051  30.999  25.501   8.858
  227POPC   C2B 7052  30.851  25.654   8.450
  227POPC   C3B 7053  30.961  25.502   8.012
  227POPC   C4B 7054  31.020  25.454   7.543
  228POPC   NC3 7055   8.429  42.099   9.459
  228POPC   PO4 7056   8.101  41.523   9.471
  228POPC   GL1 7057   8.256  41.733   9.157
  228POPC   GL2 7058   7.997  41.967   9.178
  228POPC   C1A 7059   8.482  41.723   8.786
  228POPC   D2A 7060   8.263  41.658   8.392
  228POPC   C3A 7061   8.473  41.699   8.021
  228POPC   C4A 7062   8.267  41.378   7.818
  228POPC   C1B 7063   7.964  41.868   8.757
  228POPC   C2B 7064   7.778  41.899   8.368
  228POPC   C3B 7065   7.844  41.670   8.004
  228POPC   C4B 7066   8.080  41.873   7.726
  229POPC   NC3 7067  34.784  15.887   9.550
  229POPC   PO4 7068  34.153  16.259   9.537
  229POPC   GL1 7069  34.418  16.097   9.243
  229POPC   GL2 7070  34.410  15.749   9.153
  229POPC   C1A 7071  34.639  16.095   8.862
  229POPC   D2A 7072  34.432  16.024   8.495
  229POPC   C3A 7073  34.619  16.078   8.122
  229POPC   C4A 7074  34.447  16.171   7.754
  229POPC   C1B 7075  34.294  15.546   8.785
  229POPC   C2B 7076  34.168  15.614   8.382
  229POPC   C3B 7077  34.389  15.643   8.030
  229POPC   C4B 7078  34.274  15.670   7.646
  230POPC   NC3 7079  27.014  30.252   9.279
  230POPC   PO4 7080  26.775  29.659   9.481
  230POPC   GL1 7081  26.919  29.780   9.089
  230POPC   GL2 7082  26.628  30.004   9.051
  230POPC   C1A 7083  27.019  29.951   8.683
  230POPC   D2A 7084  27.256  29.833   8.342
  230POPC   C3A 7085  27.104  29.979   7.968
  230POPC   C4A 7086  26.736  30.200   7.782
  230POPC   C1B 7087  26.564  29.690   8.713
  230POPC   C2B 7088  26.741  29.708   8.274
  230POPC   C3B 7089  26.694  29.698   7.815
  230POPC   C4B 7090  26.321  29.601   7.586
  231POPC   NC3 7091   0.407   6.434   9.491
  231POPC   PO4 7092   0.259   7.112   9.525
  231POPC   GL1 7093   0.172   6.831   9.157
  231POPC   GL2 7094   0.349   6.504   9.011
  231POPC   C1A 7095   0.194   6.896   8.728
  231POPC   D2A 7096   0.295   6.541   8.508
  231POPC   C3A 7097   0.448   6.644   8.175
  231POPC   C4A 7098   0.375   6.676   7.774
  231POPC   C1B 7099   0.576   6.180   8.754
  231POPC   C2B 7100   0.658   6.174   8.337
  231POPC   C3B 7101   0.478   6.199   7.952
  231POPC   C4B 7102   0.742   6.145   7.622
  232POPC   NC3 7103  31.319  43.742   9.442
  232POPC   PO4 7104  31.470  44.408   9.465
  232POPC   GL1 7105  31.448  44.134   9.085
  232POPC   GL2 7106  31.699  43.855   9.015
  232POPC   C1A 7107  31.453  44.026   8.635
  232POPC   D2A 7108  31.660  43.921   8.274
  232POPC   C3A 7109  31.374  44.015   7.969
  232POPC   C4A 7110  31.456  43.919   7.550
  232POPC   C1B 7111  31.669  43.548   8.667
  232POPC   C2B 7112  31.554  43.409   8.261
  232POPC   C3B 7113  31.540  43.534   7.859
  232POPC   C4B 7114  31.593  43.463   7.368
  233POPC   NC3 7115  21.652  15.618   9.803
  233POPC   PO4 7116  21.635  16.292   9.683
  233POPC   GL1 7117  21.581  16.127   9.266
  233POPC   GL2 7118  21.729  15.806   9.185
  233POPC   C1A 7119  21.604  16.194   8.814
  233POPC   D2A 7120  21.682  16.357   8.390
  233POPC   C3A 7121  21.343  16.311   8.076
  233POPC   C4A 7122  21.144  16.147   7.689
  233POPC   C1B 7123  21.529  15.672   8.796
  233POPC   C2B 7124  21.455  15.882   8.404
  233POPC   C3B 7125  21.409  15.778   7.979
  233POPC   C4B 7126  21.340  15.635   7.573
  234POPC   NC3 7127  25.269   3.859   9.741
  234POPC   PO4 7128  25.482   3.552   9.184
  234POPC   GL1 7129  25.189   3.506   8.886
  234POPC   GL2 7130  25.025   3.254   9.054
  234POPC   C1A 7131  25.158   3.778   8.542
  234POPC   D2A 7132  25.340   3.607   8.166
  234POPC   C3A 7133  25.122   3.692   7.839
  234POPC   C4A 7134  25.016   3.917   7.498
  234POPC   C1B 7135  25.034   3.099   8.634
  234POPC   C2B 7136  24.911   3.043   8.258
  234POPC   C3B 7137  25.042   3.186   7.928
  234POPC   C4B 7138  25.373   3.265   7.723
  235POPC   NC3 7139  44.515  10.057   9.719
  235POPC   PO4 7140  44.880   9.533   9.625
  235POPC   GL1 7141  44.762   9.635   9.211
  235POPC   GL2 7142  44.923   9.327   9.110
  235POPC   C1A 7143  44.553   9.889   8.850
  235POPC   D2A 7144  44.464  10.029   8.402
  235POPC   C3A 7145  44.613   9.911   7.990
  235POPC   C4A 7146  44.372   9.616   7.720
  235POPC   C1B 7147  44.628   9.402   8.778
  235POPC   C2B 7148  44.670   9.560   8.384
  235POPC   C3B 7149  44.872   9.468   8.008
  235POPC   C4B 7150  44.849   9.475   7.562
  236POPC   NC3 7151  11.626  15.645   9.658
  236POPC   PO4 7152  12.073  16.156   9.629
  236POPC   GL1 7153  11.990  16.087   9.190
  236POPC   GL2 7154  11.959  16.443   9.123
  236POPC   C1A 7155  12.031  15.926   8.740
  236POPC   D2A 7156  11.926  16.075   8.315
  236POPC   C3A 7157  11.890  15.809   7.947
  236POPC   C4A 7158  11.793  15.932   7.529
  236POPC   C1B 7159  12.333  16.321   8.872
  236POPC   C2B 7160  12.450  16.120   8.467
  236POPC   C3B 7161  12.348  16.073   8.026
  236POPC   C4B 7162  12.291  15.862   7.613
  237POPC   NC3 7163  21.625  44.248   9.395
  237POPC   PO4 7164  21.231  43.817   9.689
  237POPC   GL1 7165  21.461  43.730   9.304
  237POPC   GL2 7166  21.240  43.980   9.164
  237POPC   C1A 7167  21.456  43.667   8.849
  237POPC   D2A 7168  21.146  43.569   8.526
  237POPC   C3A 7169  21.299  43.695   8.123
  237POPC   C4A 7170  21.628  43.819   7.837
  237POPC   C1B 7171  21.122  44.100   8.732
  237POPC   C2B 7172  20.911  44.058   8.324
  237POPC   C3B 7173  20.899  43.946   7.921
  237POPC   C4B 7174  21.197  44.067   7.666
  238POPC   NC3 7175  44.685  33.312   9.730
  238POPC   PO4 7176  44.559  32.664   9.512
  238POPC   GL1 7177  44.710  32.909   9.127
  238POPC   GL2 7178  44.832  33.262   9.019
  238POPC   C1A 7179  44.503  32.968   8.724
  238POPC   D2A 7180  44.577  32.978   8.293
  238POPC   C3A 7181  44.577  32.814   7.884
  238POPC   C4A 7182  44.836  33.122   7.708
  238POPC   C1B 7183  44.723  33.418   8.592
  238POPC   C2B 7184  44.307  33.401   8.329
  238POPC   C3B 7185  44.288  33.243   7.911
  238POPC   C4B 7186  44.361  33.346   7.478
  239POPC   NC3 7187  10.391  38.238   9.416
  239POPC   PO4 7188  10.852  38.704   9.560
  239POPC   GL1 7189  10.846  38.400   9.180
  239POPC   GL2 7190  10.542  38.540   9.036
  239POPC   C1A 7191  10.818  38.297   8.693
  239POPC   D2A 7192  10.555  38.623   8.412
  239POPC   C3A 7193  10.591  38.617   7.926
  239POPC   C4A 7194  10.612  38.439   7.481
  239POPC   C1B 7195  10.304  38.308   8.733
  239POPC   C2B 7196  10.034  38.156   8.423
  239POPC   C3B 7197  10.199  38.126   7.987
  239POPC   C4B 7198  10.216  38.106   7.525
  240POPC   NC3 7199  33.615  21.380   9.627
  240POPC   PO4 7200  34.114  20.973   9.695
  240POPC   GL1 7201  34.004  21.299   9.276
  240POPC   GL2 7202  33.617  21.320   9.116
  240POPC   C1A 7203  33.986  21.532   8.835
  240POPC   D2A 7204  33.777  21.747   8.468
  240POPC   C3A 7205  33.920  21.562   8.068
  240POPC   C4A 7206  33.874  21.437   7.624
  240POPC   C1B 7207  33.538  21.325   8.649
  240POPC   C2B 7208  33.506  21.271   8.199
  240POPC   C3B 7209  33.518  20.927   7.903
  240POPC   C4B 7210  33.469  20.901   7.419
  241POPC   NC3 7211  15.014  31.891   9.561
  241POPC   PO4 7212  15.538  31.440   9.489
  241POPC   GL1 7213  15.259  31.442   9.164
  241POPC   GL2 7214  15.455  31.158   9.059
  241POPC   C1A 7215  14.973  31.556   8.860
  241POPC   D2A 7216  14.836  31.588   8.441
  241POPC   C3A 7217  15.050  31.537   8.046
  241POPC   C4A 7218  15.116  31.645   7.611
  241POPC   C1B 7219  15.491  31.456   8.723
  241POPC   C2B 7220  15.300  31.284   8.409
  241POPC   C3B 7221  15.321  31.102   8.014
  241POPC   C4B 7222  15.014  31.147   7.706
  242POPC   NC3 7223  12.874  44.097   9.396
  242POPC   PO4 7224  12.552  43.492   9.440
  242POPC   GL1 7225  12.725  43.731   9.035
  242POPC   GL2 7226  12.982  44.063   8.914
  242POPC   C1A 7227  12.709  43.816   8.585
  242POPC   D2A 7228  12.732  44.013   8.224
  242POPC   C3A 7229  12.893  43.708   7.935
  242POPC   C4A 7230  12.876  43.574   7.513
  242POPC   C1B 7231  12.573  44.270   8.787
  242POPC   C2B 7232  12.327  44.342   8.389
  242POPC   C3B 7233  12.559  44.425   7.971
  242POPC   C4B 7234  12.964  44.219   7.812
  243POPC   NC3 7235  37.907   5.381   9.719
  243POPC   PO4 7236  37.603   4.833   9.630
  243POPC   GL1 7237  37.640   5.157   9.332
  243POPC   GL2 7238  37.999   5.053   9.314
  243POPC   C1A 7239  37.431   5.338   8.954
  243POPC   D2A 7240  37.376   5.088   8.585
  243POPC   C3A 7241  37.494   5.199   8.166
  243POPC   C4A 7242  37.333   5.258   7.745
  243POPC   C1B 7243  37.909   5.212   8.887
  243POPC   C2B 7244  37.937   5.114   8.456
  243POPC   C3B 7245  37.910   4.930   8.063
  243POPC   C4B 7246  37.841   5.183   7.761
  244POPC   NC3 7247  24.487  14.795   9.467
  244POPC   PO4 7248  24.624  15.423   9.614
  244POPC   GL1 7249  24.670  15.210   9.230
  244POPC   GL2 7250  24.314  15.166   9.142
  244POPC   C1A 7251  24.662  15.062   8.798
  244POPC   D2A 7252  24.411  14.893   8.472
  244POPC   C3A 7253  24.635  15.023   8.123
  244POPC   C4A 7254  24.523  15.286   7.791
  244POPC   C1B 7255  24.421  15.567   8.947
  244POPC   C2B 7256  24.350  15.733   8.554
  244POPC   C3B 7257  24.268  15.655   8.112
  244POPC   C4B 7258  24.045  15.415   7.739
  245POPC   NC3 7259  41.184  23.641   9.624
  245POPC   PO4 7260  40.879  24.075   9.279
  245POPC   GL1 7261  40.841  23.642   9.208
  245POPC   GL2 7262  40.522  23.565   9.072
  245POPC   C1A 7263  40.970  23.396   8.856
  245POPC   D2A 7264  40.869  23.458   8.417
  245POPC   C3A 7265  41.129  23.634   8.099
  245POPC   C4A 7266  41.138  23.368   7.779
  245POPC   C1B 7267  40.707  23.836   8.722
  245POPC   C2B 7268  40.822  23.963   8.300
  245POPC   C3B 7269  40.682  23.693   7.892
  245POPC   C4B 7270  40.559  23.925   7.534
  246POPC   NC3 7271  11.317  26.648   9.390
  246POPC   PO4 7272  11.287  26.033   9.528
  246POPC   GL1 7273  11.212  25.964   9.120
  246POPC   GL2 7274  11.084  26.287   9.121
  246POPC   C1A 7275  11.382  25.982   8.702
  246POPC   D2A 7276  11.234  26.141   8.290
  246POPC   C3A 7277  11.199  25.854   7.928
  246POPC   C4A 7278  11.132  25.759   7.481
  246POPC   C1B 7279  11.237  26.462   8.780
  246POPC   C2B 7280  11.049  26.588   8.474
  246POPC   C3B 7281  11.070  26.579   8.054
  246POPC   C4B 7282  10.999  26.307   7.690
  247POPC   NC3 7283  27.957  21.667   9.420
  247POPC   PO4 7284  27.479  21.249   9.639
  247POPC   GL1 7285  27.527  21.113   9.195
  247POPC   GL2 7286  27.819  21.290   9.101
  247POPC   C1A 7287  27.556  20.930   8.769
  247POPC   D2A 7288  27.328  21.099   8.411
  247POPC   C3A 7289  27.397  21.004   8.031
  247POPC   C4A 7290  27.732  21.051   7.797
  247POPC   C1B 7291  27.703  21.393   8.663
  247POPC   C2B 7292  27.713  21.374   8.221
  247POPC   C3B 7293  27.983  21.521   7.954
  247POPC   C4B 7294  28.230  21.574   7.628
  248POPC   NC3 7295  20.544  37.619   9.532
  248POPC   PO4 7296  21.077  38.137   9.567
  248POPC   GL1 7297  20.838  37.958   9.242
  248POPC   GL2 7298  20.982  37.637   9.285
  248POPC   C1A 7299  20.624  37.859   8.827
  248POPC   D2A 7300  20.412  37.940   8.403
  248POPC   C3A 7301  20.597  37.772   8.003
  248POPC   C4A 7302  20.735  37.894   7.575
  248POPC   C1B 7303  20.960  37.432   8.920
  248POPC   C2B 7304  20.852  37.482   8.507
  248POPC   C3B 7305  20.964  37.404   8.099
  248POPC   C4B 7306  20.865  37.233   7.696
  249POPC   NC3 7307   5.558  37.645   9.426
  249POPC   PO4 7308   6.111  37.518   9.749
  249POPC   GL1 7309   6.032  37.613   9.248
  249POPC   GL2 7310   5.763  37.456   9.002
  249POPC   C1A 7311   6.164  37.701   8.804
  249POPC   D2A 7312   6.160  37.940   8.422
  249POPC   C3A 7313   6.122  37.658   8.070
  249POPC   C4A 7314   6.033  37.534   7.642
  249POPC   C1B 7315   5.671  37.835   8.744
  249POPC   C2B 7316   5.659  37.887   8.289
  249POPC   C3B 7317   5.614  37.809   7.840
  249POPC   C4B 7318   5.470  37.451   7.578
  250POPC   NC3 7319  44.877  17.210   9.665
  250POPC   PO4 7320  44.300  17.548   9.552
  250POPC   GL1 7321  44.651  17.467   9.245
  250POPC   GL2 7322  44.809  17.142   9.184
  250POPC   C1A 7323  44.782  17.622   8.818
  250POPC   D2A 7324  44.662  17.779   8.377
  250POPC   C3A 7325  44.852  17.638   7.989
  250POPC   C4A 7326  44.607  17.439   7.659
  250POPC   C1B 7327  44.650  17.127   8.802
  250POPC   C2B 7328  44.761  17.264   8.414
  250POPC   C3B 7329  44.737  17.128   8.023
  250POPC   C4B 7330  44.991  17.089   7.725
  251POPC   NC3 7331  26.454   4.933   9.423
  251POPC   PO4 7332  25.729   5.199   9.319
  251POPC   GL1 7333  26.007   4.993   9.055
  251POPC   GL2 7334  26.329   5.144   8.970
  251POPC   C1A 7335  25.999   5.019   8.596
  251POPC   D2A 7336  26.090   5.273   8.244
  251POPC   C3A 7337  25.851   5.249   7.925
  251POPC   C4A 7338  25.482   5.117   7.805
  251POPC   C1B 7339  26.365   4.712   8.775
  251POPC   C2B 7340  26.215   4.607   8.348
  251POPC   C3B 7341  26.275   4.873   7.974
  251POPC   C4B 7342  26.283   5.211   7.670
  252POPC   NC3 7343  16.860  13.303   9.454
  252POPC   PO4 7344  16.367  13.775   9.458
  252POPC   GL1 7345  16.663  13.713   9.153
  252POPC   GL2 7346  16.574  13.388   9.025
  252POPC   C1A 7347  16.826  13.757   8.750
  252POPC   D2A 7348  16.880  13.641   8.313
  252POPC   C3A 7349  16.859  13.952   8.016
  252POPC   C4A 7350  16.638  13.973   7.654
  252POPC   C1B 7351  16.456  13.451   8.580
  252POPC   C2B 7352  16.591  13.207   8.244
  252POPC   C3B 7353  16.794  13.305   7.894
  252POPC   C4B 7354  16.489  13.231   7.640
  253POPC   NC3 7355  16.227  43.433   9.521
  253POPC   PO4 7356  15.980  42.812   9.262
  253POPC   GL1 7357  16.046  43.193   9.092
  253POPC   GL2 7358  16.367  43.332   9.060
  253POPC   C1A 7359  16.059  43.148   8.675
  253POPC   D2A 7360  16.136  42.881   8.353
  253POPC   C3A 7361  15.838  42.916   8.059
  253POPC   C4A 7362  15.897  43.068   7.674
  253POPC   C1B 7363  16.343  43.596   8.752
  253POPC   C2B 7364  16.082  43.543   8.387
  253POPC   C3B 7365  16.141  43.318   8.041
  253POPC   C4B 7366  16.309  43.394   7.637
  254POPC   NC3 7367  34.912   9.907   9.444
  254POPC   PO4 7368  34.363   9.504   9.577
  254POPC   GL1 7369  34.495   9.722   9.177
  254POPC   GL2 7370  34.845   9.625   9.039
  254POPC   C1A 7371  34.500   9.897   8.740
  254POPC   D2A 7372  34.821   9.963   8.351
  254POPC   C3A 7373  34.626   9.949   7.917
  254POPC   C4A 7374  34.248   9.723   7.797
  254POPC   C1B 7375  34.815   9.534   8.620
  254POPC   C2B 7376  34.482   9.591   8.312
  254POPC   C3B 7377  34.811   9.505   8.064
  254POPC   C4B 7378  35.095   9.527   7.765
  255POPC   NC3 7379   6.742  29.510   9.315
  255POPC   PO4 7380   6.720  30.140   9.642
  255POPC   GL1 7381   6.496  29.988   9.283
  255POPC   GL2 7382   6.424  30.281   9.132
  255POPC   C1A 7383   6.425  29.852   8.837
  255POPC   D2A 7384   6.266  29.956   8.404
  255POPC   C3A 7385   6.472  29.859   7.996
  255POPC   C4A 7386   6.867  29.710   7.815
  255POPC   C1B 7387   6.620  30.303   8.710
  255POPC   C2B 7388   6.774  30.093   8.336
  255POPC   C3B 7389   6.876  30.223   7.929
  255POPC   C4B 7390   6.657  30.088   7.551
  256POPC   NC3 7391  32.623  21.293   9.536
  256POPC   PO4 7392  31.966  21.533   9.394
  256POPC   GL1 7393  32.277  21.431   9.139
  256POPC   GL2 7394  32.261  21.073   9.223
  256POPC   C1A 7395  32.324  21.595   8.727
  256POPC   D2A 7396  32.113  21.799   8.385
  256POPC   C3A 7397  32.182  21.584   8.029
  256POPC   C4A 7398  32.239  21.219   7.777
  256POPC   C1B 7399  32.339  21.052   8.777
  256POPC   C2B 7400  32.314  21.216   8.365
  256POPC   C3B 7401  32.632  21.339   8.110
  256POPC   C4B 7402  32.747  21.274   7.681
  257POPC   NC3 7403  13.079  14.559   9.609
  257POPC   PO4 7404  13.760  14.400   9.601
  257POPC   GL1 7405  13.489  14.335   9.223
  257POPC   GL2 7406  13.821  14.280   9.105
  257POPC   C1A 7407  13.377  14.549   8.794
  257POPC   D2A 7408  13.559  14.646   8.380
  257POPC   C3A 7409  13.334  14.521   8.024
  257POPC   C4A 7410  13.451  14.377   7.644
  257POPC   C1B 7411  13.843  14.378   8.713
  257POPC   C2B 7412  13.872  14.171   8.343
  257POPC   C3B 7413  13.820  14.371   8.001
  257POPC   C4B 7414  13.937  14.400   7.613
  258POPC   NC3 7415  36.720  27.272   9.430
  258POPC   PO4 7416  36.974  27.922   9.475
  258POPC   GL1 7417  37.068  27.713   9.084
  258POPC   GL2 7418  37.145  27.364   9.096
  258POPC   C1A 7419  36.860  27.537   8.714
  258POPC   D2A 7420  36.895  27.282   8.347
  258POPC   C3A 7421  36.661  27.377   7.955
  258POPC   C4A 7422  36.731  27.749   7.701
  258POPC   C1B 7423  37.378  27.327   8.725
  258POPC   C2B 7424  37.413  27.428   8.283
  258POPC   C3B 7425  37.160  27.560   7.931
  258POPC   C4B 7426  37.024  27.314   7.560
  259POPC   NC3 7427   1.914   0.691   9.571
  259POPC   PO4 7428   2.401   0.524   9.176
  259POPC   GL1 7429   2.160   0.644   8.879
  259POPC   GL2 7430   1.848   0.617   9.079
  259POPC   C1A 7431   2.250   0.582   8.471
  259POPC   D2A 7432   2.167   0.244   8.207
  259POPC   C3A 7433   2.165   0.446   7.819
  259POPC   C4A 7434   1.964   0.826   7.639
  259POPC   C1B 7435   1.759   0.326   8.804
  259POPC   C2B 7436   1.612   0.317   8.420
  259POPC   C3B 7437   1.729   0.454   8.044
  259POPC   C4B 7438   1.583   0.261   7.649
  260POPC   NC3 7439  40.614  29.544   9.417
  260POPC   PO4 7440  41.157  29.992   9.536
  260POPC   GL1 7441  40.938  29.854   9.174
  260POPC   GL2 7442  40.614  30.030   9.231
  260POPC   C1A 7443  40.959  30.001   8.757
  260POPC   D2A 7444  40.945  30.276   8.427
  260POPC   C3A 7445  40.942  30.013   8.064
  260POPC   C4A 7446  41.217  29.713   7.927
  260POPC   C1B 7447  40.469  29.879   8.839
  260POPC   C2B 7448  40.581  29.874   8.426
  260POPC   C3B 7449  40.349  29.860   8.075
  260POPC   C4B 7450  40.568  29.999   7.722
  261POPC   NC3 7451  29.990  12.250   9.299
  261POPC   PO4 7452  30.243  11.733   9.670
  261POPC   GL1 7453  30.328  11.852   9.227
  261POPC   GL2 7454  30.023  11.890   8.967
  261POPC   C1A 7455  30.490  12.014   8.827
  261POPC   D2A 7456  30.235  11.934   8.465
  261POPC   C3A 7457  30.052  12.160   8.108
  261POPC   C4A 7458  29.974  12.166   7.702
  261POPC   C1B 7459  29.718  12.142   8.712
  261POPC   C2B 7460  29.595  12.320   8.327
  261POPC   C3B 7461  29.525  12.143   7.931
  261POPC   C4B 7462  29.636  11.731   7.756
  262POPC   NC3 7463  41.719  39.943   9.553
  262POPC   PO4 7464  41.361  39.556   9.355
  262POPC   GL1 7465  41.441  39.810   9.009
  262POPC   GL2 7466  41.561  40.122   9.084
  262POPC   C1A 7467  41.349  39.961   8.612
  262POPC   D2A 7468  41.521  40.278   8.390
  262POPC   C3A 7469  41.458  40.235   7.980
  262POPC   C4A 7470  41.828  40.161   7.741
  262POPC   C1B 7471  41.850  40.046   8.717
  262POPC   C2B 7472  41.827  39.906   8.261
  262POPC   C3B 7473  41.596  39.735   7.905
  262POPC   C4B 7474  41.604  39.752   7.440
  263POPC   NC3 7475   4.505   1.131   9.511
  263POPC   PO4 7476   3.917   1.233   9.377
  263POPC   GL1 7477   4.224   1.206   9.047
  263POPC   GL2 7478   4.446   0.954   9.049
  263POPC   C1A 7479   4.363   1.293   8.596
  263POPC   D2A 7480   4.352   1.220   8.143
  263POPC   C3A 7481   4.203   1.491   7.787
  263POPC   C4A 7482   4.058   1.662   7.380
  263POPC   C1B 7483   4.260   0.808   8.721
  263POPC   C2B 7484   4.012   0.919   8.419
  263POPC   C3B 7485   4.167   0.744   8.064
  263POPC   C4B 7486   4.278   0.982   7.712
  264POPC   NC3 7487  43.764  41.027   9.862
  264POPC   PO4 7488  44.091  40.496   9.575
  264POPC   GL1 7489  43.836  40.773   9.270
  264POPC   GL2 7490  43.629  40.538   9.091
  264POPC   C1A 7491  43.694  40.965   8.831
  264POPC   D2A 7492  43.910  40.976   8.398
  264POPC   C3A 7493  43.666  40.995   7.998
  264POPC   C4A 7494  43.887  40.813   7.655
  264POPC   C1B 7495  43.972  40.533   8.841
  264POPC   C2B 7496  43.987  40.435   8.448
  264POPC   C3B 7497  43.849  40.534   8.078
  264POPC   C4B 7498  43.541  40.456   7.754
  265POPC   NC3 7499  25.901  32.307   9.775
  265POPC   PO4 7500  26.283  32.179   9.233
  265POPC   GL1 7501  25.946  32.292   8.973
  265POPC   GL2 7502  25.921  32.641   8.904
  265POPC   C1A 7503  25.934  32.298   8.530
  265POPC   D2A 7504  25.718  32.384   8.190
  265POPC   C3A 7505  25.830  32.046   8.007
  265POPC   C4A 7506  25.970  32.050   7.625
  265POPC   C1B 7507  26.325  32.596   8.676
  265POPC   C2B 7508  26.522  32.592   8.258
  265POPC   C3B 7509  26.281  32.399   7.898
  265POPC   C4B 7510  26.135  32.522   7.476
  266POPC   NC3 7511   1.511  34.756   9.461
  266POPC   PO4 7512   2.219  34.693   9.387
  266POPC   GL1 7513   1.918  34.700   9.107
  266POPC   GL2 7514   1.742  34.384   9.083
  266POPC   C1A 7515   2.051  34.596   8.706
  266POPC   D2A 7516   1.795  34.703   8.394
  266POPC   C3A 7517   2.022  34.787   8.031
  266POPC   C4A 7518   1.928  34.715   7.634
  266POPC   C1B 7519   1.734  34.218   8.641
  266POPC   C2B 7520   2.022  34.293   8.237
  266POPC   C3B 7521   1.898  34.188   7.830
  266POPC   C4B 7522   1.652  34.273   7.467
  267POPC   NC3 7523  44.545   6.129   9.547
  267POPC   PO4 7524  43.937   5.694   9.551
  267POPC   GL1 7525  43.952   5.864   9.147
  267POPC   GL2 7526  44.307   5.891   9.166
  267POPC   C1A 7527  43.750   5.934   8.731
  267POPC   D2A 7528  43.908   6.086   8.329
  267POPC   C3A 7529  43.862   5.769   8.057
  267POPC   C4A 7530  43.552   5.644   7.757
  267POPC   C1B 7531  44.212   6.108   8.779
  267POPC   C2B 7532  44.342   6.334   8.446
  267POPC   C3B 7533  44.249   6.393   8.015
  267POPC   C4B 7534  43.958   6.143   7.733
  268POPC   NC3 7535  33.476   3.766   9.491
  268POPC   PO4 7536  33.788   3.246   9.732
  268POPC   GL1 7537  33.916   3.263   9.254
  268POPC   GL2 7538  33.878   3.584   9.207
  268POPC   C1A 7539  34.063   3.406   8.789
  268POPC   D2A 7540  33.768   3.426   8.428
  268POPC   C3A 7541  33.806   3.319   8.000
  268POPC   C4A 7542  33.851   3.402   7.561
  268POPC   C1B 7543  33.588   3.635   8.853
  268POPC   C2B 7544  33.564   3.889   8.465
  268POPC   C3B 7545  33.651   3.809   8.010
  268POPC   C4B 7546  33.601   3.869   7.565
  269POPC   NC3 7547   6.815  38.810   9.505
  269POPC   PO4 7548   6.477  38.344   9.524
  269POPC   GL1 7549   6.698  38.447   9.139
  269POPC   GL2 7550   6.504  38.719   9.092
  269POPC   C1A 7551   6.711  38.496   8.672
  269POPC   D2A 7552   6.450  38.357   8.322
  269POPC   C3A 7553   6.656  38.406   7.934
  269POPC   C4A 7554   6.690  38.628   7.551
  269POPC   C1B 7555   6.233  38.672   8.715
  269POPC   C2B 7556   6.256  38.830   8.282
  269POPC   C3B 7557   6.205  38.625   7.855
  269POPC   C4B 7558   6.219  38.456   7.410
  270POPC   NC3 7559  17.749   2.162   9.545
  270POPC   PO4 7560  17.045   1.905   9.563
  270POPC   GL1 7561  17.348   1.989   9.192
  270POPC   GL2 7562  17.627   1.774   9.190
  270POPC   C1A 7563  17.552   2.153   8.769
  270POPC   D2A 7564  17.730   2.367   8.348
  270POPC   C3A 7565  17.533   2.224   7.941
  270POPC   C4A 7566  17.198   2.233   7.612
  270POPC   C1B 7567  17.870   1.740   8.799
  270POPC   C2B 7568  17.767   1.867   8.370
  270POPC   C3B 7569  17.869   1.799   7.941
  270POPC   C4B 7570  17.944   1.459   7.710
  271POPC   NC3 7571  32.006  24.748   9.329
  271POPC   PO4 7572  32.222  24.076   9.462
  271POPC   GL1 7573  32.023  24.226   9.087
  271POPC   GL2 7574  32.322  24.395   9.029
  271POPC   C1A 7575  31.881  24.470   8.733
  271POPC   D2A 7576  32.074  24.724   8.426
  271POPC   C3A 7577  32.062  24.448   8.088
  271POPC   C4A 7578  31.973  24.499   7.677
  271POPC   C1B 7579  32.397  24.287   8.596
  271POPC   C2B 7580  32.567  24.571   8.258
  271POPC   C3B 7581  32.440  24.685   7.821
  271POPC   C4B 7582  32.470  24.272   7.589
  272POPC   NC3 7583  39.587  26.072   9.644
  272POPC   PO4 7584  38.954  26.032   9.480
  272POPC   GL1 7585  39.049  25.942   9.072
  272POPC   GL2 7586  39.410  26.016   9.134
  272POPC   C1A 7587  39.155  26.073   8.637
  272POPC   D2A 7588  39.300  26.429   8.369
  272POPC   C3A 7589  39.329  26.304   7.946
  272POPC   C4A 7590  39.136  25.974   7.713
  272POPC   C1B 7591  39.603  25.833   8.756
  272POPC   C2B 7592  39.561  25.950   8.298
  272POPC   C3B 7593  39.591  25.797   7.864
  272POPC   C4B 7594  39.537  25.779   7.401
  273POPC   NC3 7595  37.652   1.461   9.624
  273POPC   PO4 7596  37.650   0.829   9.425
  273POPC   GL1 7597  37.781   1.221   9.184
  273POPC   GL2 7598  37.416   1.346   9.158
  273POPC   C1A 7599  37.982   1.261   8.757
  273POPC   D2A 7600  37.854   0.978   8.418
  273POPC   C3A 7601  37.877   1.214   8.048
  273POPC   C4A 7602  37.940   1.048   7.666
  273POPC   C1B 7603  37.480   1.161   8.765
  273POPC   C2B 7604  37.418   1.268   8.356
  273POPC   C3B 7605  37.393   1.120   7.953
  273POPC   C4B 7606  37.537   1.318   7.607
  274POPC   NC3 7607   8.484   1.025   9.449
  274POPC   PO4 7608   7.917   0.833   9.745
  274POPC   GL1 7609   7.919   1.139   9.315
  274POPC   GL2 7610   8.177   1.397   9.266
  274POPC   C1A 7611   8.052   1.155   8.819
  274POPC   D2A 7612   7.944   1.079   8.359
  274POPC   C3A 7613   8.208   0.927   7.982
  274POPC   C4A 7614   8.120   1.047   7.542
  274POPC   C1B 7615   8.384   1.529   8.864
  274POPC   C2B 7616   8.380   1.355   8.415
  274POPC   C3B 7617   8.184   1.428   7.987
  274POPC   C4B 7618   8.286   1.531   7.550
  275POPC   NC3 7619  15.898   0.835   9.501
  275POPC   PO4 7620  16.163   1.440   9.489
  275POPC   GL1 7621  16.177   1.165   9.155
  275POPC   GL2 7622  15.843   1.151   9.072
  275POPC   C1A 7623  16.215   1.263   8.712
  275POPC   D2A 7624  16.027   1.065   8.348
  275POPC   C3A 7625  15.827   1.223   7.994
  275POPC   C4A 7626  16.162   1.105   7.729
  275POPC   C1B 7627  15.635   1.023   8.664
  275POPC   C2B 7628  15.593   0.817   8.231
  275POPC   C3B 7629  15.801   0.741   7.818
  275POPC   C4B 7630  15.756   0.993   7.424
  276POPC   NC3 7631   4.892  21.529   9.608
  276POPC   PO4 7632   5.252  20.919   9.419
  276POPC   GL1 7633   5.223  21.279   9.169
  276POPC   GL2 7634   4.911  21.462   9.105
  276POPC   C1A 7635   5.154  21.248   8.737
  276POPC   D2A 7636   4.933  21.424   8.440
  276POPC   C3A 7637   5.208  21.362   8.150
  276POPC   C4A 7638   5.162  21.006   7.891
  276POPC   C1B 7639   4.804  21.773   8.790
  276POPC   C2B 7640   4.516  21.723   8.407
  276POPC   C3B 7641   4.645  21.684   7.989
  276POPC   C4B 7642   4.961  21.492   7.737
  277POPC   NC3 7643  22.231  18.836   9.406
  277POPC   PO4 7644  22.387  18.235   9.705
  277POPC   GL1 7645  22.214  18.207   9.258
  277POPC   GL2 7646  22.095  18.488   9.088
  277POPC   C1A 7647  22.159  18.015   8.864
  277POPC   D2A 7648  22.041  18.146   8.438
  277POPC   C3A 7649  21.952  17.859   8.118
  277POPC   C4A 7650  21.905  17.925   7.671
  277POPC   C1B 7651  22.353  18.473   8.772
  277POPC   C2B 7652  22.429  18.474   8.364
  277POPC   C3B 7653  22.358  18.583   7.955
  277POPC   C4B 7654  22.146  18.364   7.654
  278POPC   NC3 7655  32.141  40.202   9.473
  278POPC   PO4 7656  32.592  39.690   9.499
  278POPC   GL1 7657  32.386  39.922   9.141
  278POPC   GL2 7658  32.072  39.806   8.955
  278POPC   C1A 7659  32.352  40.203   8.780
  278POPC   D2A 7660  32.049  40.104   8.468
  278POPC   C3A 7661  32.169  40.095   8.053
  278POPC   C4A 7662  32.013  40.247   7.686
  278POPC   C1B 7663  32.358  39.697   8.656
  278POPC   C2B 7664  32.389  39.432   8.329
  278POPC   C3B 7665  32.162  39.596   7.999
  278POPC   C4B 7666  32.329  39.714   7.585
  279POPC   NC3 7667  16.151  27.263   9.571
  279POPC   PO4 7668  16.707  27.070   9.417
  279POPC   GL1 7669  16.401  27.355   9.128
  279POPC   GL2 7670  16.470  27.725   9.035
  279POPC   C1A 7671  16.414  27.339   8.673
  279POPC   D2A 7672  16.724  27.248   8.333
  279POPC   C3A 7673  16.599  27.158   7.900
  279POPC   C4A 7674  16.809  27.159   7.512
  279POPC   C1B 7675  16.488  27.837   8.542
  279POPC   C2B 7676  16.544  27.667   8.103
  279POPC   C3B 7677  16.807  27.628   7.731
  279POPC   C4B 7678  16.848  27.978   7.415
  280POPC   NC3 7679  38.018   4.532   9.520
  280POPC   PO4 7680  37.589   4.077   9.365
  280POPC   GL1 7681  37.772   4.316   9.039
  280POPC   GL2 7682  37.708   4.659   9.140
  280POPC   C1A 7683  37.743   4.226   8.561
  280POPC   D2A 7684  37.465   4.143   8.181
  280POPC   C3A 7685  37.660   4.234   7.777
  280POPC   C4A 7686  37.882   4.105   7.415
  280POPC   C1B 7687  37.701   4.725   8.713
  280POPC   C2B 7688  37.516   4.674   8.280
  280POPC   C3B 7689  37.509   4.728   7.799
  280POPC   C4B 7690  37.561   4.525   7.336
  281POPC   NC3 7691  42.123   3.294   9.417
  281POPC   PO4 7692  42.808   3.422   9.328
  281POPC   GL1 7693  42.443   3.434   9.048
  281POPC   GL2 7694  42.242   3.742   9.034
  281POPC   C1A 7695  42.127   3.347   8.724
  281POPC   D2A 7696  42.188   3.071   8.378
  281POPC   C3A 7697  42.410   3.273   8.031
  281POPC   C4A 7698  42.751   3.228   7.732
  281POPC   C1B 7699  42.585   3.793   8.697
  281POPC   C2B 7700  42.687   3.665   8.253
  281POPC   C3B 7701  42.583   3.745   7.827
  281POPC   C4B 7702  42.173   3.911   7.775
  282POPC   NC3 7703  24.721  25.396   9.478
  282POPC   PO4 7704  24.073  25.333   9.388
  282POPC   GL1 7705  24.425  25.296   9.078
  282POPC   GL2 7706  24.613  24.975   9.163
  282POPC   C1A 7707  24.592  25.213   8.655
  282POPC   D2A 7708  24.562  25.453   8.259
  282POPC   C3A 7709  24.465  25.323   7.811
  282POPC   C4A 7710  24.350  25.475   7.350
  282POPC   C1B 7711  24.255  24.859   8.881
  282POPC   C2B 7712  24.206  24.861   8.442
  282POPC   C3B 7713  24.556  24.949   8.181
  282POPC   C4B 7714  24.631  24.849   7.759
  283POPC   NC3 7715  10.931  33.101   9.329
  283POPC   PO4 7716  11.665  33.181   9.500
  283POPC   GL1 7717  11.566  33.098   9.104
  283POPC   GL2 7718  11.397  33.351   8.971
  283POPC   C1A 7719  11.650  33.023   8.689
  283POPC   D2A 7720  11.492  33.190   8.320
  283POPC   C3A 7721  11.693  33.041   7.994
  283POPC   C4A 7722  11.618  32.721   7.737
  283POPC   C1B 7723  11.117  33.101   8.693
  283POPC   C2B 7724  11.037  32.857   8.307
  283POPC   C3B 7725  11.146  32.964   7.877
  283POPC   C4B 7726  11.319  33.375   7.812
  284POPC   NC3 7727  37.871  26.870   9.619
  284POPC   PO4 7728  37.214  27.048   9.470
  284POPC   GL1 7729  37.591  27.038   9.193
  284POPC   GL2 7730  37.774  26.708   9.160
  284POPC   C1A 7731  37.781  27.005   8.771
  284POPC   D2A 7732  37.813  27.124   8.375
  284POPC   C3A 7733  37.664  26.883   8.058
  284POPC   C4A 7734  37.638  26.750   7.653
  284POPC   C1B 7735  37.947  26.518   8.815
  284POPC   C2B 7736  38.064  26.673   8.402
  284POPC   C3B 7737  37.998  26.497   8.006
  284POPC   C4B 7738  38.120  26.623   7.589
  285POPC   NC3 7739  42.547  20.890   9.456
  285POPC   PO4 7740  41.982  20.520   9.439
  285POPC   GL1 7741  42.204  20.601   9.098
  285POPC   GL2 7742  42.534  20.439   9.183
  285POPC   C1A 7743  42.078  20.759   8.692
  285POPC   D2A 7744  42.003  20.728   8.254
  285POPC   C3A 7745  42.290  20.743   7.921
  285POPC   C4A 7746  42.278  20.931   7.513
  285POPC   C1B 7747  42.626  20.612   8.801
  285POPC   C2B 7748  42.631  20.595   8.373
  285POPC   C3B 7749  42.765  20.852   8.068
  285POPC   C4B 7750  42.734  20.755   7.656
  286POPC   NC3 7751  20.735  20.904   9.753
  286POPC   PO4 7752  20.287  20.414   9.572
  286POPC   GL1 7753  20.405  20.712   9.228
  286POPC   GL2 7754  20.738  20.886   9.212
  286POPC   C1A 7755  20.400  20.784   8.764
  286POPC   D2A 7756  20.579  20.535   8.450
  286POPC   C3A 7757  20.692  20.590   8.018
  286POPC   C4A 7758  20.457  20.877   7.723
  286POPC   C1B 7759  20.908  20.787   8.781
  286POPC   C2B 7760  20.781  20.992   8.385
  286POPC   C3B 7761  20.904  21.037   7.951
  286POPC   C4B 7762  20.910  21.025   7.494
  287POPC   NC3 7763   5.877  35.798   9.190
  287POPC   PO4 7764   5.692  35.222   9.504
  287POPC   GL1 7765   5.760  35.316   9.074
  287POPC   GL2 7766   5.507  35.559   8.960
  287POPC   C1A 7767   5.985  35.331   8.686
  287POPC   D2A 7768   5.947  35.042   8.357
  287POPC   C3A 7769   5.602  35.066   8.080
  287POPC   C4A 7770   5.810  35.241   7.744
  287POPC   C1B 7771   5.654  35.713   8.574
  287POPC   C2B 7772   5.834  35.553   8.195
  287POPC   C3B 7773   5.899  35.746   7.792
  287POPC   C4B 7774   5.697  35.630   7.401
  288POPC   NC3 7775   3.281  10.784   9.344
  288POPC   PO4 7776   3.683  10.295   9.579
  288POPC   GL1 7777   3.480  10.308   9.163
  288POPC   GL2 7778   3.719  10.473   8.954
  288POPC   C1A 7779   3.295  10.234   8.738
  288POPC   D2A 7780   3.253  10.050   8.311
  288POPC   C3A 7781   3.381  10.257   7.903
  288POPC   C4A 7782   3.327  10.424   7.483
  288POPC   C1B 7783   4.054  10.371   8.626
  288POPC   C2B 7784   4.023  10.445   8.170
  288POPC   C3B 7785   3.787  10.612   7.784
  288POPC   C4B 7786   3.613  10.837   7.383
  289POPC   NC3 7787  10.321  12.163   9.820
  289POPC   PO4 7788  10.805  11.864   9.511
  289POPC   GL1 7789  10.538  11.961   9.131
  289POPC   GL2 7790  10.195  11.973   9.079
  289POPC   C1A 7791  10.487  12.291   8.782
  289POPC   D2A 7792  10.714  12.299   8.396
  289POPC   C3A 7793  10.559  12.061   8.060
  289POPC   C4A 7794  10.589  12.311   7.690
  289POPC   C1B 7795  10.338  11.786   8.657
  289POPC   C2B 7796  10.137  11.768   8.220
  289POPC   C3B 7797  10.040  11.796   7.753
  289POPC   C4B 7798  10.338  11.922   7.468
  290POPC   NC3 7799  37.062  26.660   9.722
  290POPC   PO4 7800  36.941  26.086   9.462
  290POPC   GL1 7801  36.937  25.902   9.100
  290POPC   GL2 7802  37.153  26.173   9.007
  290POPC   C1A 7803  36.851  25.925   8.661
  290POPC   D2A 7804  36.722  26.205   8.364
  290POPC   C3A 7805  36.549  26.004   8.056
  290POPC   C4A 7806  36.585  25.819   7.689
  290POPC   C1B 7807  37.132  26.381   8.615
  290POPC   C2B 7808  37.234  26.065   8.321
  290POPC   C3B 7809  37.049  25.989   7.931
  290POPC   C4B 7810  37.205  26.216   7.595
  291POPC   NC3 7811  30.485  41.674   9.722
  291POPC   PO4 7812  31.004  42.022   9.532
  291POPC   GL1 7813  30.787  41.685   9.292
  291POPC   GL2 7814  30.449  41.738   9.172
  291POPC   C1A 7815  30.795  41.539   8.858
  291POPC   D2A 7816  30.906  41.679   8.439
  291POPC   C3A 7817  30.923  41.308   8.153
  291POPC   C4A 7818  30.972  41.326   7.692
  291POPC   C1B 7819  30.295  41.557   8.755
  291POPC   C2B 7820  30.471  41.410   8.372
  291POPC   C3B 7821  30.575  41.616   7.926
  291POPC   C4B 7822  30.618  41.836   7.487
  292POPC   NC3 7823  41.744   2.017   9.632
  292POPC   PO4 7824  41.239   2.330   9.420
  292POPC   GL1 7825  41.505   2.090   9.121
  292POPC   GL2 7826  41.845   2.113   9.128
  292POPC   C1A 7827  41.457   2.032   8.682
  292POPC   D2A 7828  41.287   1.892   8.324
  292POPC   C3A 7829  41.579   1.982   8.055
  292POPC   C4A 7830  41.521   2.076   7.675
  292POPC   C1B 7831  41.799   1.737   8.881
  292POPC   C2B 7832  41.703   1.594   8.480
  292POPC   C3B 7833  41.667   1.482   8.078
  292POPC   C4B 7834  41.838   1.679   7.708
  293POPC   NC3 7835  32.631   6.163   9.728
  293POPC   PO4 7836  33.223   5.756   9.534
  293POPC   GL1 7837  33.063   5.649   9.104
  293POPC   GL2 7838  32.764   5.840   8.986
  293POPC   C1A 7839  33.184   5.674   8.704
  293POPC   D2A 7840  33.231   5.597   8.288
  293POPC   C3A 7841  33.296   5.812   7.913
  293POPC   C4A 7842  33.313   6.230   7.793
  293POPC   C1B 7843  32.659   5.570   8.767
  293POPC   C2B 7844  32.763   5.733   8.424
  293POPC   C3B 7845  32.765   5.580   8.064
  293POPC   C4B 7846  32.590   5.732   7.729
  294POPC   NC3 7847  12.130  37.451   9.527
  294POPC   PO4 7848  12.476  38.036   9.475
  294POPC   GL1 7849  12.188  37.876   9.165
  294POPC   GL2 7850  11.807  37.925   9.175
  294POPC   C1A 7851  12.198  37.991   8.748
  294POPC   D2A 7852  12.414  38.082   8.355
  294POPC   C3A 7853  12.231  37.861   8.017
  294POPC   C4A 7854  12.130  37.447   7.820
  294POPC   C1B 7855  11.849  37.601   8.810
  294POPC   C2B 7856  11.935  37.547   8.358
  294POPC   C3B 7857  11.738  37.729   8.009
  294POPC   C4B 7858  11.532  37.581   7.699
  295POPC   NC3 7859  14.188  34.896   9.483
  295POPC   PO4 7860  14.504  34.322   9.623
  295POPC   GL1 7861  14.488  34.556   9.228
  295POPC   GL2 7862  14.799  34.653   9.124
  295POPC   C1A 7863  14.400  34.756   8.801
  295POPC   D2A 7864  14.164  34.710   8.407
  295POPC   C3A 7865  14.409  34.739   8.041
  295POPC   C4A 7866  14.304  34.606   7.618
  295POPC   C1B 7867  14.715  34.346   8.782
  295POPC   C2B 7868  14.517  34.354   8.392
  295POPC   C3B 7869  14.686  34.316   8.007
  295POPC   C4B 7870  14.677  34.182   7.592
  296POPC   NC3 7871  17.249   6.240   9.354
  296POPC   PO4 7872  17.839   6.123   9.542
  296POPC   GL1 7873  17.882   6.343   9.120
  296POPC   GL2 7874  17.785   6.677   9.175
  296POPC   C1A 7875  17.601   6.457   8.721
  296POPC   D2A 7876  17.443   6.709   8.315
  296POPC   C3A 7877  17.461   6.513   7.885
  296POPC   C4A 7878  17.379   6.654   7.453
  296POPC   C1B 7879  18.014   6.745   8.766
  296POPC   C2B 7880  17.936   6.606   8.343
  296POPC   C3B 7881  17.902   6.783   7.932
  296POPC   C4B 7882  17.871   6.554   7.544
  297POPC   NC3 7883  21.012   4.619   9.306
  297POPC   PO4 7884  21.651   4.338   9.550
  297POPC   GL1 7885  21.433   4.328   9.149
  297POPC   GL2 7886  21.115   4.141   9.118
  297POPC   C1A 7887  21.591   4.258   8.730
  297POPC   D2A 7888  21.721   4.538   8.388
  297POPC   C3A 7889  21.642   4.334   7.990
  297POPC   C4A 7890  21.460   4.122   7.649
  297POPC   C1B 7891  21.051   4.320   8.702
  297POPC   C2B 7892  21.177   4.209   8.283
  297POPC   C3B 7893  21.134   4.437   7.915
  297POPC   C4B 7894  20.910   4.466   7.538
  298POPC   NC3 7895  28.170  18.371   9.416
  298POPC   PO4 7896  28.856  18.137   9.407
  298POPC   GL1 7897  28.566  18.233   9.094
  298POPC   GL2 7898  28.539  18.590   8.953
  298POPC   C1A 7899  28.267  18.174   8.776
  298POPC   D2A 7900  27.995  18.305   8.472
  298POPC   C3A 7901  28.083  18.350   8.069
  298POPC   C4A 7902  28.038  18.077   7.736
  298POPC   C1B 7903  28.714  18.383   8.625
  298POPC   C2B 7904  28.514  18.173   8.291
  298POPC   C3B 7905  28.528  18.167   7.845
  298POPC   C4B 7906  28.335  18.451   7.526
  299POPC   NC3 7907  34.049  40.313   9.316
  299POPC   PO4 7908  34.243  39.740   9.680
  299POPC   GL1 7909  33.883  39.849   9.197
  299POPC   GL2 7910  33.942  39.547   8.942
  299POPC   C1A 7911  33.579  39.787   8.762
  299POPC   D2A 7912  33.629  39.849   8.300
  299POPC   C3A 7913  33.889  40.200   8.098
  299POPC   C4A 7914  33.770  40.361   7.699
  299POPC   C1B 7915  34.063  39.934   8.708
  299POPC   C2B 7916  34.208  39.884   8.330
  299POPC   C3B 7917  34.009  39.707   7.996
  299POPC   C4B 7918  34.019  39.892   7.619
  300POPC   NC3 7919  23.529  17.886   9.408
  300POPC   PO4 7920  23.974  18.312   9.625
  300POPC   GL1 7921  23.813  18.556   9.230
  300POPC   GL2 7922  23.525  18.537   9.000
  300POPC   C1A 7923  23.960  18.431   8.795
  300POPC   D2A 7924  23.782  18.096   8.521
  300POPC   C3A 7925  23.792  18.263   8.092
  300POPC   C4A 7926  23.983  18.496   7.760
  300POPC   C1B 7927  23.352  18.391   8.631
  300POPC   C2B 7928  23.338  18.120   8.272
  300POPC   C3B 7929  23.335  18.132   7.849
  300POPC   C4B 7930  23.542  18.381   7.517
  301POPC   NC3 7931  15.610  11.169   9.475
  301POPC   PO4 7932  16.272  11.368   9.526
  301POPC   GL1 7933  16.032  11.310   9.178
  301POPC   GL2 7934  15.730  11.466   9.091
  301POPC   C1A 7935  16.123  11.438   8.776
  301POPC   D2A 7936  16.121  11.261   8.397
  301POPC   C3A 7937  16.033  11.465   8.060
  301POPC   C4A 7938  16.108  11.316   7.675
  301POPC   C1B 7939  15.623  11.352   8.654
  301POPC   C2B 7940  15.605  11.175   8.242
  301POPC   C3B 7941  15.636  11.225   7.804
  301POPC   C4B 7942  15.728  11.643   7.680
  302POPC   NC3 7943  32.449   1.589   9.592
  302POPC   PO4 7944  32.455   0.975   9.475
  302POPC   GL1 7945  32.173   1.020   9.155
  302POPC   GL2 7946  32.101   1.355   9.283
  302POPC   C1A 7947  32.169   1.032   8.686
  302POPC   D2A 7948  32.468   0.997   8.322
  302POPC   C3A 7949  32.302   1.018   7.913
  302POPC   C4A 7950  32.005   1.050   7.603
  302POPC   C1B 7951  32.402   1.447   8.941
  302POPC   C2B 7952  32.390   1.476   8.506
  302POPC   C3B 7953  32.457   1.516   8.068
  302POPC   C4B 7954  32.200   1.500   7.714
  303POPC   NC3 7955  12.401  13.014   9.380
  303POPC   PO4 7956  11.744  13.181   9.688
  303POPC   GL1 7957  11.716  13.086   9.222
  303POPC   GL2 7958  11.977  12.862   9.104
  303POPC   C1A 7959  11.773  13.191   8.755
  303POPC   D2A 7960  11.993  13.269   8.326
  303POPC   C3A 7961  11.828  13.045   7.912
  303POPC   C4A 7962  11.823  12.846   7.475
  303POPC   C1B 7963  12.223  12.853   8.701
  303POPC   C2B 7964  12.228  12.796   8.252
  303POPC   C3B 7965  12.162  12.652   7.838
  303POPC   C4B 7966  11.946  12.361   7.591
  304POPC   NC3 7967  38.688  44.792   9.445
  304POPC   PO4 7968  38.274  44.319   9.563
  304POPC   GL1 7969  38.534  44.364   9.192
  304POPC   GL2 7970  38.335  44.662   9.103
  304POPC   C1A 7971  38.584  44.455   8.733
  304POPC   D2A 7972  38.321  44.580   8.376
  304POPC   C3A 7973  38.518  44.500   7.975
  304POPC   C4A 7974  38.917  44.663   7.771
  304POPC   C1B 7975  38.449  44.966   8.736
  304POPC   C2B 7976  38.451   0.097   8.266
  304POPC   C3B 7977  38.439  44.978   7.801
  304POPC   C4B 7978  38.202  44.669   7.509
  305POPC   NC3 7979  19.150  41.998   9.608
  305POPC   PO4 7980  18.563  42.305   9.888
  305POPC   GL1 7981  18.796  42.300   9.369
  305POPC   GL2 7982  19.140  42.221   9.129
  305POPC   C1A 7983  18.756  42.454   8.896
  305POPC   D2A 7984  18.867  42.206   8.499
  305POPC   C3A 7985  18.997  42.390   8.103
  305POPC   C4A 7986  18.904  42.551   7.709
  305POPC   C1B 7987  19.355  42.252   8.678
  305POPC   C2B 7988  19.453  42.209   8.190
  305POPC   C3B 7989  19.267  42.116   7.729
  305POPC   C4B 7990  19.477  42.106   7.282
  306POPC   NC3 7991  24.800  29.541   9.502
  306POPC   PO4 7992  24.547  28.888   9.517
  306POPC   GL1 7993  24.475  29.158   9.150
  306POPC   GL2 7994  24.609  29.483   9.043
  306POPC   C1A 7995  24.477  29.153   8.694
  306POPC   D2A 7996  24.353  29.397   8.340
  306POPC   C3A 7997  24.535  29.209   7.986
  306POPC   C4A 7998  24.440  28.977   7.632
  306POPC   C1B 7999  24.857  29.709   8.741
  306POPC   C2B 8000  24.858  29.546   8.319
  306POPC   C3B 8001  24.896  29.656   7.880
  306POPC   C4B 8002  24.713  29.442   7.548
  307POPC   NC3 8003  31.751  12.468   9.532
  307POPC   PO4 8004  31.224  12.982   9.377
  307POPC   GL1 8005  31.342  12.837   9.039
  307POPC   GL2 8006  31.671  12.774   9.131
  307POPC   C1A 8007  31.324  12.632   8.665
  307POPC   D2A 8008  31.588  12.616   8.315
  307POPC   C3A 8009  31.367  12.823   7.992
  307POPC   C4A 8010  31.219  12.650   7.654
  307POPC   C1B 8011  31.817  12.921   8.739
  307POPC   C2B 8012  32.009  12.910   8.330
  307POPC   C3B 8013  31.862  12.813   7.908
  307POPC   C4B 8014  31.755  13.100   7.578
  308POPC   NC3 8015  18.812   5.631   9.548
  308POPC   PO4 8016  19.318   6.097   9.592
  308POPC   GL1 8017  19.154   6.187   9.179
  308POPC   GL2 8018  18.819   6.069   9.189
  308POPC   C1A 8019  19.149   5.986   8.761
  308POPC   D2A 8020  18.935   5.606   8.536
  308POPC   C3A 8021  19.008   5.682   8.090
  308POPC   C4A 8022  19.274   6.001   7.845
  308POPC   C1B 8023  18.648   5.959   8.798
  308POPC   C2B 8024  18.787   6.073   8.387
  308POPC   C3B 8025  18.772   6.153   7.946
  308POPC   C4B 8026  18.756   5.784   7.660
  309POPC   NC3 8027  37.929   3.768   9.481
  309POPC   PO4 8028  37.415   3.296   9.449
  309POPC   GL1 8029  37.674   3.525   9.108
  309POPC   GL2 8030  37.585   3.844   8.924
  309POPC   C1A 8031  37.822   3.449   8.702
  309POPC   D2A 8032  37.607   3.705   8.415
  309POPC   C3A 8033  37.639   3.539   8.039
  309POPC   C4A 8034  37.859   3.620   7.675
  309POPC   C1B 8035  38.029   3.904   8.852
  309POPC   C2B 8036  38.107   3.817   8.449
  309POPC   C3B 8037  38.007   3.940   8.053
  309POPC   C4B 8038  38.299   3.844   7.733
  310POPC   NC3 8039   8.167  29.950   9.509
  310POPC   PO4 8040   7.560  30.203   9.500
  310POPC   GL1 8041   7.882  30.145   9.125
  310POPC   GL2 8042   8.297  30.153   9.065
  310POPC   C1A 8043   8.010  29.891   8.755
  310POPC   D2A 8044   8.304  30.023   8.395
  310POPC   C3A 8045   8.150  29.965   7.972
  310POPC   C4A 8046   7.887  30.247   7.745
  310POPC   C1B 8047   8.486  29.759   8.801
  310POPC   C2B 8048   8.596  29.581   8.407
  310POPC   C3B 8049   8.452  29.538   8.010
  310POPC   C4B 8050   8.469  29.698   7.633
  311POPC   NC3 8051   1.093   7.162   9.473
  311POPC   PO4 8052   1.498   7.712   9.594
  311POPC   GL1 8053   1.377   7.558   9.154
  311POPC   GL2 8054   1.076   7.368   9.015
  311POPC   C1A 8055   1.463   7.424   8.700
  311POPC   D2A 8056   1.313   7.587   8.315
  311POPC   C3A 8057   1.089   7.390   7.980
  311POPC   C4A 8058   1.341   7.329   7.602
  311POPC   C1B 8059   1.123   7.048   8.680
  311POPC   C2B 8060   1.325   7.065   8.275
  311POPC   C3B 8061   1.236   6.887   7.842
  311POPC   C4B 8062   1.262   6.889   7.371
  312POPC   NC3 8063  28.134  31.392   9.566
  312POPC   PO4 8064  28.832  31.448   9.360
  312POPC   GL1 8065  28.456  31.478   9.111
  312POPC   GL2 8066  28.209  31.747   9.228
  312POPC   C1A 8067  28.469  31.225   8.733
  312POPC   D2A 8068  28.263  31.112   8.363
  312POPC   C3A 8069  28.341  31.155   7.925
  312POPC   C4A 8070  28.431  31.193   7.464
  312POPC   C1B 8071  28.172  31.948   8.857
  312POPC   C2B 8072  28.338  31.723   8.525
  312POPC   C3B 8073  28.225  31.608   8.131
  312POPC   C4B 8074  28.411  31.733   7.772
  313POPC   NC3 8075  31.814  33.814   9.510
  313POPC   PO4 8076  31.123  33.710   9.452
  313POPC   GL1 8077  31.458  33.588   9.197
  313POPC   GL2 8078  31.497  33.931   9.144
  313POPC   C1A 8079  31.511  33.616   8.751
  313POPC   D2A 8080  31.222  33.556   8.421
  313POPC   C3A 8081  31.445  33.532   8.044
  313POPC   C4A 8082  31.363  33.709   7.699
  313POPC   C1B 8083  31.809  34.069   8.867
  313POPC   C2B 8084  31.789  33.922   8.435
  313POPC   C3B 8085  31.623  34.013   8.060
  313POPC   C4B 8086  31.730  34.187   7.700
  314POPC   NC3 8087  28.954   5.312   9.737
  314POPC   PO4 8088  29.178   5.853   9.359
  314POPC   GL1 8089  28.951   5.971   9.011
  314POPC   GL2 8090  29.003   5.656   8.877
  314POPC   C1A 8091  29.065   6.045   8.572
  314POPC   D2A 8092  29.377   6.246   8.297
  314POPC   C3A 8093  29.403   6.059   7.901
  314POPC   C4A 8094  29.129   6.051   7.557
  314POPC   C1B 8095  29.347   5.599   8.667
  314POPC   C2B 8096  29.315   5.703   8.252
  314POPC   C3B 8097  29.092   5.663   7.890
  314POPC   C4B 8098  28.981   5.527   7.474
  315POPC   NC3 8099   1.643  21.344   9.383
  315POPC   PO4 8100   2.315  21.266   9.421
  315POPC   GL1 8101   2.078  21.376   9.077
  315POPC   GL2 8102   2.038  21.728   9.176
  315POPC   C1A 8103   1.745  21.431   8.747
  315POPC   D2A 8104   1.631  21.278   8.321
  315POPC   C3A 8105   1.751  21.421   7.888
  315POPC   C4A 8106   2.112  21.308   7.605
  315POPC   C1B 8107   2.156  21.731   8.721
  315POPC   C2B 8108   2.058  21.646   8.270
  315POPC   C3B 8109   2.118  21.775   7.845
  315POPC   C4B 8110   2.437  21.687   7.520
  316POPC   NC3 8111  29.691  25.408   9.714
  316POPC   PO4 8112  29.170  25.167   9.386
  316POPC   GL1 8113  29.041  25.221   8.999
  316POPC   GL2 8114  28.986  25.550   9.033
  316POPC   C1A 8115  29.270  25.330   8.616
  316POPC   D2A 8116  29.433  25.422   8.201
  316POPC   C3A 8117  29.411  25.060   7.949
  316POPC   C4A 8118  29.152  24.941   7.625
  316POPC   C1B 8119  28.781  25.511   8.643
  316POPC   C2B 8120  28.905  25.344   8.239
  316POPC   C3B 8121  28.970  25.390   7.816
  316POPC   C4B 8122  28.996  25.578   7.417
  317POPC   NC3 8123  14.840  44.462   9.451
  317POPC   PO4 8124  15.434  44.655   9.389
  317POPC   GL1 8125  15.363  44.624   9.002
  317POPC   GL2 8126  15.160  44.327   9.059
  317POPC   C1A 8127  15.333  44.877   8.642
  317POPC   D2A 8128  15.178  44.746   8.248
  317POPC   C3A 8129  15.375  44.719   7.902
  317POPC   C4A 8130  15.778  44.723   7.821
  317POPC   C1B 8131  14.925  44.476   8.708
  317POPC   C2B 8132  14.954  44.315   8.316
  317POPC   C3B 8133  15.126  44.254   7.947
  317POPC   C4B 8134  14.955  44.519   7.663
  318POPC   NC3 8135  30.713  38.762   9.495
  318POPC   PO4 8136  30.800  38.190   9.215
  318POPC   GL1 8137  30.590  38.475   9.044
  318POPC   GL2 8138  30.844  38.685   9.010
  318POPC   C1A 8139  30.364  38.573   8.691
  318POPC   D2A 8140  30.244  38.706   8.296
  318POPC   C3A 8141  30.492  38.408   8.080
  318POPC   C4A 8142  30.663  38.495   7.689
  318POPC   C1B 8143  31.016  38.441   8.689
  318POPC   C2B 8144  30.920  38.249   8.338
  318POPC   C3B 8145  31.033  38.510   8.035
  318POPC   C4B 8146  31.174  38.391   7.687
  319POPC   NC3 8147   2.902  23.393   9.514
  319POPC   PO4 8148   2.465  23.934   9.510
  319POPC   GL1 8149   2.764  23.842   9.178
  319POPC   GL2 8150   2.788  23.515   9.041
  319POPC   C1A 8151   2.817  23.906   8.725
  319POPC   D2A 8152   2.803  23.659   8.339
  319POPC   C3A 8153   2.929  23.900   7.985
  319POPC   C4A 8154   2.778  23.995   7.601
  319POPC   C1B 8155   3.089  23.224   8.831
  319POPC   C2B 8156   3.117  23.234   8.384
  319POPC   C3B 8157   3.047  23.201   7.951
  319POPC   C4B 8158   3.132  23.167   7.458
  320POPC   NC3 8159  29.378  34.370   9.587
  320POPC   PO4 8160  28.710  34.695   9.511
  320POPC   GL1 8161  28.950  34.423   9.208
  320POPC   GL2 8162  29.270  34.558   9.085
  320POPC   C1A 8163  28.977  34.286   8.772
  320POPC   D2A 8164  29.146  34.486   8.394
  320POPC   C3A 8165  28.986  34.761   8.094
  320POPC   C4A 8166  28.936  34.586   7.696
  320POPC   C1B 8167  29.514  34.665   8.665
  320POPC   C2B 8168  29.624  34.453   8.282
  320POPC   C3B 8169  29.422  34.547   7.889
  320POPC   C4B 8170  29.434  34.607   7.442
  321POPC   NC3 8171   0.897   3.968   9.306
  321POPC   PO4 8172   1.259   4.439   9.655
  321POPC   GL1 8173   1.263   4.403   9.194
  321POPC   GL2 8174   0.921   4.446   9.105
  321POPC   C1A 8175   1.271   4.218   8.747
  321POPC   D2A 8176   0.985   4.141   8.391
  321POPC   C3A 8177   1.135   3.970   7.980
  321POPC   C4A 8178   1.321   4.144   7.602
  321POPC   C1B 8179   1.041   4.688   8.728
  321POPC   C2B 8180   1.266   4.568   8.357
  321POPC   C3B 8181   1.121   4.475   7.965
  321POPC   C4B 8182   1.008   4.686   7.641
  322POPC   NC3 8183  43.726  28.915   9.492
  322POPC   PO4 8184  43.919  29.539   9.558
  322POPC   GL1 8185  43.755  29.350   9.178
  322POPC   GL2 8186  43.411  29.361   9.178
  322POPC   C1A 8187  43.711  29.066   8.809
  322POPC   D2A 8188  43.826  29.160   8.378
  322POPC   C3A 8189  43.854  28.904   8.033
  322POPC   C4A 8190  44.096  28.840   7.665
  322POPC   C1B 8191  43.393  29.487   8.759
  322POPC   C2B 8192  43.400  29.429   8.318
  322POPC   C3B 8193  43.609  29.391   7.893
  322POPC   C4B 8194  43.557  29.194   7.464
  323POPC   NC3 8195  36.420   6.871   9.643
  323POPC   PO4 8196  36.980   6.431   9.493
  323POPC   GL1 8197  36.855   6.668   9.179
  323POPC   GL2 8198  36.539   6.462   9.203
  323POPC   C1A 8199  36.967   6.824   8.735
  323POPC   D2A 8200  36.723   6.683   8.364
  323POPC   C3A 8201  36.884   6.766   7.932
  323POPC   C4A 8202  37.303   6.635   7.822
  323POPC   C1B 8203  36.727   6.379   8.780
  323POPC   C2B 8204  36.988   6.145   8.491
  323POPC   C3B 8205  37.189   6.190   8.099
  323POPC   C4B 8206  37.018   6.245   7.682
  324POPC   NC3 8207   0.732  21.747   9.302
  324POPC   PO4 8208   1.092  22.244   9.688
  324POPC   GL1 8209   1.090  22.143   9.240
  324POPC   GL2 8210   0.972  22.467   9.185
  324POPC   C1A 8211   1.264  22.075   8.797
  324POPC   D2A 8212   1.505  22.325   8.487
  324POPC   C3A 8213   1.304  22.398   8.100
  324POPC   C4A 8214   1.422  22.374   7.687
  324POPC   C1B 8215   0.794  22.210   8.832
  324POPC   C2B 8216   0.923  22.205   8.421
  324POPC   C3B 8217   0.910  22.023   8.033
  324POPC   C4B 8218   0.945  22.266   7.670
  325POPC   NC3 8219  35.806  29.645   9.435
  325POPC   PO4 8220  35.113  29.695   9.521
  325POPC   GL1 8221  35.284  29.770   9.118
  325POPC   GL2 8222  35.584  29.946   9.099
  325POPC   C1A 8223  35.219  29.921   8.732
  325POPC   D2A 8224  35.236  29.801   8.339
  325POPC   C3A 8225  35.010  30.034   8.051
  325POPC   C4A 8226  35.226  29.987   7.653
  325POPC   C1B 8227  35.683  29.632   8.805
  325POPC   C2B 8228  35.933  29.521   8.454
  325POPC   C3B 8229  35.613  29.474   8.167
  325POPC   C4B 8230  35.548  29.604   7.745
  326POPC   NC3 8231  21.310   5.562   9.453
  326POPC   PO4 8232  21.644   6.092   9.630
  326POPC   GL1 8233  21.536   6.141   9.211
  326POPC   GL2 8234  21.217   6.021   9.157
  326POPC   C1A 8235  21.640   5.924   8.853
  326POPC   D2A 8236  21.355   5.719   8.622
  326POPC   C3A 8237  21.352   5.767   8.168
  326POPC   C4A 8238  21.276   5.665   7.757
  326POPC   C1B 8239  21.246   6.266   8.789
  326POPC   C2B 8240  21.475   6.209   8.431
  326POPC   C3B 8241  21.446   6.278   8.012
  326POPC   C4B 8242  21.103   6.154   7.790
  327POPC   NC3 8243  11.624   7.531   9.572
  327POPC   PO4 8244  11.150   7.104   9.424
  327POPC   GL1 8245  11.333   7.344   9.127
  327POPC   GL2 8246  11.245   7.669   9.169
  327POPC   C1A 8247  11.451   7.372   8.700
  327POPC   D2A 8248  11.231   7.164   8.355
  327POPC   C3A 8249  11.344   7.356   7.955
  327POPC   C4A 8250  11.384   7.248   7.522
  327POPC   C1B 8251  11.395   7.895   8.828
  327POPC   C2B 8252  11.480   7.830   8.399
  327POPC   C3B 8253  11.336   7.903   7.978
  327POPC   C4B 8254  11.465   7.767   7.565
  328POPC   NC3 8255  43.987  15.442   9.484
  328POPC   PO4 8256  43.477  15.052   9.540
  328POPC   GL1 8257  43.803  14.993   9.230
  328POPC   GL2 8258  43.650  14.670   9.143
  328POPC   C1A 8259  44.061  15.125   8.872
  328POPC   D2A 8260  44.079  15.355   8.486
  328POPC   C3A 8261  44.112  15.157   8.109
  328POPC   C4A 8262  44.076  15.056   7.701
  328POPC   C1B 8263  43.624  14.851   8.759
  328POPC   C2B 8264  43.666  15.023   8.357
  328POPC   C3B 8265  43.692  14.856   7.964
  328POPC   C4B 8266  43.417  14.744   7.644
  329POPC   NC3 8267  44.935  25.759   9.602
  329POPC   PO4 8268  44.367  26.151   9.624
  329POPC   GL1 8269  44.607  26.058   9.249
  329POPC   GL2 8270  44.914  26.262   9.290
  329POPC   C1A 8271  44.480  25.967   8.819
  329POPC   D2A 8272  44.344  26.119   8.398
  329POPC   C3A 8273  44.587  26.304   8.087
  329POPC   C4A 8274  44.383  26.136   7.699
  329POPC   C1B 8275  44.962  26.132   8.846
  329POPC   C2B 8276  44.833  25.909   8.438
  329POPC   C3B 8277  44.776  25.858   7.978
  329POPC   C4B 8278  44.923  26.168   7.700
  330POPC   NC3 8279  23.816  21.821   9.607
  330POPC   PO4 8280  23.509  22.426   9.419
  330POPC   GL1 8281  23.609  22.071   9.177
  330POPC   GL2 8282  23.946  21.978   9.156
  330POPC   C1A 8283  23.430  22.067   8.775
  330POPC   D2A 8284  23.547  22.320   8.415
  330POPC   C3A 8285  23.526  22.081   8.010
  330POPC   C4A 8286  23.661  22.355   7.712
  330POPC   C1B 8287  23.915  22.236   8.793
  330POPC   C2B 8288  24.050  22.154   8.381
  330POPC   C3B 8289  24.019  21.935   7.987
  330POPC   C4B 8290  24.163  21.657   7.709
  331POPC   NC3 8291  23.967  34.841   9.472
  331POPC   PO4 8292  23.275  34.861   9.252
  331POPC   GL1 8293  23.663  34.844   9.078
  331POPC   GL2 8294  23.860  34.552   9.002
  331POPC   C1A 8295  23.785  34.996   8.717
  331POPC   D2A 8296  23.594  34.941   8.338
  331POPC   C3A 8297  23.860  34.822   8.035
  331POPC   C4A 8298  23.574  34.690   7.721
  331POPC   C1B 8299  23.588  34.480   8.636
  331POPC   C2B 8300  23.600  34.376   8.178
  331POPC   C3B 8301  23.942  34.342   7.866
  331POPC   C4B 8302  23.832  34.390   7.403
  332POPC   NC3 8303  33.354  35.424   9.601
  332POPC   PO4 8304  32.761  35.028   9.613
  332POPC   GL1 8305  32.846  35.267   9.204
  332POPC   GL2 8306  32.947  35.635   9.250
  332POPC   C1A 8307  33.016  35.200   8.769
  332POPC   D2A 8308  33.202  35.368   8.380
  332POPC   C3A 8309  33.009  35.237   7.990
  332POPC   C4A 8310  33.350  35.066   7.816
  332POPC   C1B 8311  33.027  35.704   8.799
  332POPC   C2B 8312  32.826  35.696   8.401
  332POPC   C3B 8313  32.972  35.731   7.999
  332POPC   C4B 8314  32.799  35.811   7.604
  333POPC   NC3 8315  32.186  41.783   9.359
  333POPC   PO4 8316  32.456  41.238   9.534
  333POPC   GL1 8317  32.357  41.381   9.080
  333POPC   GL2 8318  32.483  41.730   8.946
  333POPC   C1A 8319  32.221  41.458   8.628
  333POPC   D2A 8320  32.510  41.751   8.420
  333POPC   C3A 8321  32.516  41.588   8.011
  333POPC   C4A 8322  32.279  41.265   7.810
  333POPC   C1B 8323  32.119  41.941   8.755
  333POPC   C2B 8324  31.817  41.800   8.465
  333POPC   C3B 8325  31.857  41.590   8.079
  333POPC   C4B 8326  32.087  41.736   7.724
  334POPC   NC3 8327  24.243   4.338   9.418
  334POPC   PO4 8328  24.762   3.951   9.547
  334POPC   GL1 8329  24.667   4.163   9.214
  334POPC   GL2 8330  24.391   3.992   9.088
  334POPC   C1A 8331  24.562   4.457   8.866
  334POPC   D2A 8332  24.754   4.406   8.475
  334POPC   C3A 8333  24.535   4.392   8.091
  334POPC   C4A 8334  24.506   4.604   7.717
  334POPC   C1B 8335  24.656   3.966   8.757
  334POPC   C2B 8336  24.533   3.940   8.380
  334POPC   C3B 8337  24.729   3.940   7.999
  334POPC   C4B 8338  24.586   4.107   7.638
  335POPC   NC3 8339  27.488  34.384   9.521
  335POPC   PO4 8340  27.760  34.978   9.649
  335POPC   GL1 8341  27.719  34.798   9.218
  335POPC   GL2 8342  27.822  34.496   9.164
  335POPC   C1A 8343  27.521  34.697   8.796
  335POPC   D2A 8344  27.675  34.597   8.412
  335POPC   C3A 8345  27.611  34.775   8.048
  335POPC   C4A 8346  27.749  34.573   7.696
  335POPC   C1B 8347  27.902  34.299   8.792
  335POPC   C2B 8348  27.947  34.166   8.404
  335POPC   C3B 8349  28.022  34.297   8.024
  335POPC   C4B 8350  27.861  34.086   7.645
  336POPC   NC3 8351  22.908   1.705   9.546
  336POPC   PO4 8352  22.781   2.386   9.512
  336POPC   GL1 8353  22.920   2.086   9.179
  336POPC   GL2 8354  23.284   2.040   9.257
  336POPC   C1A 8355  22.764   2.025   8.727
  336POPC   D2A 8356  22.711   2.280   8.322
  336POPC   C3A 8357  22.960   2.164   7.925
  336POPC   C4A 8358  22.909   1.781   7.685
  336POPC   C1B 8359  23.269   2.013   8.814
  336POPC   C2B 8360  23.156   2.013   8.392
  336POPC   C3B 8361  23.227   1.764   8.067
  336POPC   C4B 8362  23.423   1.900   7.647
  337POPC   NC3 8363  12.367  19.688   9.482
  337POPC   PO4 8364  11.717  19.787   9.543
  337POPC   GL1 8365  11.842  19.727   9.116
  337POPC   GL2 8366  12.162  19.671   9.019
  337POPC   C1A 8367  11.717  19.779   8.743
  337POPC   D2A 8368  11.987  19.889   8.463
  337POPC   C3A 8369  12.003  19.576   8.175
  337POPC   C4A 8370  11.979  19.770   7.803
  337POPC   C1B 8371  12.395  19.612   8.648
  337POPC   C2B 8372  12.448  19.802   8.247
  337POPC   C3B 8373  12.248  20.151   8.041
  337POPC   C4B 8374  12.177  20.192   7.588
  338POPC   NC3 8375   1.079  23.724   9.638
  338POPC   PO4 8376   0.268  23.865   9.507
  338POPC   GL1 8377   0.485  23.731   9.088
  338POPC   GL2 8378   0.651  23.377   9.033
  338POPC   C1A 8379   0.415  23.893   8.663
  338POPC   D2A 8380   0.335  24.177   8.316
  338POPC   C3A 8381   0.217  23.868   8.040
  338POPC   C4A 8382   0.506  23.590   7.831
  338POPC   C1B 8383   0.311  23.382   8.729
  338POPC   C2B 8384   0.291  23.410   8.283
  338POPC   C3B 8385   0.172  23.213   7.909
  338POPC   C4B 8386   0.175  23.245   7.439
  339POPC   NC3 8387  44.134  44.002   9.666
  339POPC   PO4 8388  44.315  43.378   9.374
  339POPC   GL1 8389  44.015  43.704   9.237
  339POPC   GL2 8390  43.640  43.741   9.284
  339POPC   C1A 8391  44.054  43.901   8.843
  339POPC   D2A 8392  44.250  43.669   8.468
  339POPC   C3A 8393  44.182  43.806   8.050
  339POPC   C4A 8394  44.135  43.641   7.641
  339POPC   C1B 8395  43.589  43.642   8.830
  339POPC   C2B 8396  43.493  43.394   8.437
  339POPC   C3B 8397  43.485  43.513   7.982
  339POPC   C4B 8398  43.701  43.898   7.802
  340POPC   NC3 8399  31.930  26.327   9.531
  340POPC   PO4 8400  32.506  25.910   9.516
  340POPC   GL1 8401  32.299  25.806   9.106
  340POPC   GL2 8402  31.934  25.775   9.195
  340POPC   C1A 8403  32.248  25.946   8.677
  340POPC   D2A 8404  32.212  26.303   8.404
  340POPC   C3A 8405  32.422  26.239   8.016
  340POPC   C4A 8406  32.305  25.938   7.734
  340POPC   C1B 8407  31.803  26.075   8.875
  340POPC   C2B 8408  31.807  25.938   8.446
  340POPC   C3B 8409  31.970  25.841   8.089
  340POPC   C4B 8410  31.804  25.888   7.696
  341POPC   NC3 8411  18.919   3.409   9.478
  341POPC   PO4 8412  19.208   4.004   9.396
  341POPC   GL1 8413  19.088   3.709   9.087
  341POPC   GL2 8414  19.108   3.340   9.034
  341POPC   C1A 8415  19.283   3.738   8.712
  341POPC   D2A 8416  19.093   3.880   8.349
  341POPC   C3A 8417  19.131   3.581   8.010
  341POPC   C4A 8418  19.008   3.657   7.578
  341POPC   C1B 8419  19.053   3.074   8.663
  341POPC   C2B 8420  18.953   3.139   8.234
  341POPC   C3B 8421  18.858   3.188   7.795
  341POPC   C4B 8422  18.962   3.191   7.355
  342POPC   NC3 8423  18.598  24.114   9.570
  342POPC   PO4 8424  18.135  24.643   9.633
  342POPC   GL1 8425  18.140  24.355   9.249
  342POPC   GL2 8426  18.449  24.228   9.108
  342POPC   C1A 8427  18.089  24.351   8.771
  342POPC   D2A 8428  17.833  24.405   8.398
  342POPC   C3A 8429  18.040  24.444   7.998
  342POPC   C4A 8430  18.141  24.163   7.699
  342POPC   C1B 8431  18.629  24.293   8.716
  342POPC   C2B 8432  18.417  24.352   8.343
  342POPC   C3B 8433  18.563  24.291   7.937
  342POPC   C4B 8434  18.922  24.497   7.725
  343POPC   NC3 8435  34.766  27.830   9.353
  343POPC   PO4 8436  35.412  27.995   9.363
  343POPC   GL1 8437  35.384  27.779   9.011
  343POPC   GL2 8438  35.181  27.480   9.086
  343POPC   C1A 8439  35.449  27.554   8.655
  343POPC   D2A 8440  35.273  27.512   8.281
  343POPC   C3A 8441  35.455  27.744   7.965
  343POPC   C4A 8442  35.457  27.664   7.540
  343POPC   C1B 8443  35.058  27.215   8.682
  343POPC   C2B 8444  34.927  27.130   8.245
  343POPC   C3B 8445  35.136  27.272   7.847
  343POPC   C4B 8446  34.997  27.451   7.426
  344POPC   NC3 8447  39.083  27.843   9.747
  344POPC   PO4 8448  39.376  27.289   9.584
  344POPC   GL1 8449  39.280  27.426   9.125
  344POPC   GL2 8450  39.001  27.697   9.113
  344POPC   C1A 8451  39.234  27.274   8.669
  344POPC   D2A 8452  39.229  27.207   8.201
  344POPC   C3A 8453  39.273  27.615   8.044
  344POPC   C4A 8454  39.527  27.842   7.782
  344POPC   C1B 8455  38.830  27.927   8.712
  344POPC   C2B 8456  38.959  27.932   8.270
  344POPC   C3B 8457  38.775  27.692   7.904
  344POPC   C4B 8458  38.704  27.703   7.433
  345POPC   NC3 8459  40.523  27.282   9.401
  345POPC   PO4 8460  40.641  26.573   9.410
  345POPC   GL1 8461  40.765  26.877   9.137
  345POPC   GL2 8462  40.423  26.863   8.993
  345POPC   C1A 8463  40.921  26.767   8.744
  345POPC   D2A 8464  40.643  26.671   8.432
  345POPC   C3A 8465  40.850  26.603   8.100
  345POPC   C4A 8466  40.831  26.604   7.651
  345POPC   C1B 8467  40.562  27.115   8.680
  345POPC   C2B 8468  40.906  27.142   8.351
  345POPC   C3B 8469  40.916  27.073   7.894
  345POPC   C4B 8470  40.747  27.071   7.462
  346POPC   NC3 8471  19.590  10.525   9.483
  346POPC   PO4 8472  20.188  10.929   9.393
  346POPC   GL1 8473  19.877  10.798   9.122
  346POPC   GL2 8474  19.793  10.435   9.031
  346POPC   C1A 8475  19.987  10.810   8.718
  346POPC   D2A 8476  20.175  10.891   8.335
  346POPC   C3A 8477  19.905  10.714   8.035
  346POPC   C4A 8478  19.969  10.841   7.605
  346POPC   C1B 8479  19.576  10.180   8.760
  346POPC   C2B 8480  19.728  10.079   8.349
  346POPC   C3B 8481  19.901  10.202   7.960
  346POPC   C4B 8482  19.624  10.113   7.608
  347POPC   NC3 8483  21.435  37.893   9.743
  347POPC   PO4 8484  21.747  37.428   9.374
  347POPC   GL1 8485  21.473  37.574   9.152
  347POPC   GL2 8486  21.401  37.910   9.227
  347POPC   C1A 8487  21.444  37.518   8.758
  347POPC   D2A 8488  21.322  37.674   8.402
  347POPC   C3A 8489  21.521  37.463   8.088
  347POPC   C4A 8490  21.318  37.462   7.727
  347POPC   C1B 8491  21.128  37.900   8.835
  347POPC   C2B 8492  20.923  37.981   8.390
  347POPC   C3B 8493  21.107  37.872   7.976
  347POPC   C4B 8494  21.263  37.950   7.559
  348POPC   NC3 8495   9.032  44.972   9.549
  348POPC   PO4 8496   9.373  44.376   9.438
  348POPC   GL1 8497   9.160  44.726   9.112
  348POPC   GL2 8498   8.877  44.543   9.008
  348POPC   C1A 8499   8.928  44.896   8.671
  348POPC   D2A 8500   8.706  44.579   8.454
  348POPC   C3A 8501   8.902  44.475   8.077
  348POPC   C4A 8502   8.874  44.713   7.692
  348POPC   C1B 8503   9.253  44.525   8.635
  348POPC   C2B 8504   9.448  44.567   8.218
  348POPC   C3B 8505   9.351  44.806   7.848
  348POPC   C4B 8506   9.248  44.740   7.368
  349POPC   NC3 8507  44.863  13.136   9.497
  349POPC   PO4 8508  44.418  12.645   9.460
  349POPC   GL1 8509  44.552  12.785   9.101
  349POPC   GL2 8510  44.478  13.141   9.129
  349POPC   C1A 8511  44.560  12.616   8.681
  349POPC   D2A 8512  44.479  12.474   8.247
  349POPC   C3A 8513  44.548  12.783   7.945
  349POPC   C4A 8514  44.949  12.833   7.815
  349POPC   C1B 8515  44.616  13.139   8.722
  349POPC   C2B 8516  44.773  13.019   8.345
  349POPC   C3B 8517  44.877  13.331   8.067
  349POPC   C4B 8518  44.734  13.304   7.716
  350POPC   NC3 8519  23.174  21.078   9.419
  350POPC   PO4 8520  22.869  21.642   9.138
  350POPC   GL1 8521  23.110  21.320   8.969
  350POPC   GL2 8522  22.821  21.091   9.038
  350POPC   C1A 8523  23.396  21.349   8.588
  350POPC   D2A 8524  23.185  21.545   8.202
  350POPC   C3A 8525  23.162  21.757   7.770
  350POPC   C4A 8526  23.270  21.536   7.336
  350POPC   C1B 8527  22.930  20.985   8.615
  350POPC   C2B 8528  22.900  21.073   8.174
  350POPC   C3B 8529  23.041  21.269   7.792
  350POPC   C4B 8530  22.793  21.450   7.485
  351POPC   NC3 8531  21.746  21.893   9.565
  351POPC   PO4 8532  21.127  22.265   9.519
  351POPC   GL1 8533  21.320  22.135   9.098
  351POPC   GL2 8534  21.687  22.065   9.101
  351POPC   C1A 8535  21.509  22.255   8.677
  351POPC   D2A 8536  21.447  22.144   8.270
  351POPC   C3A 8537  21.390  22.404   7.884
  351POPC   C4A 8538  21.108  22.336   7.508
  351POPC   C1B 8539  21.714  21.687   8.823
  351POPC   C2B 8540  21.605  21.530   8.412
  351POPC   C3B 8541  21.433  21.711   8.046
  351POPC   C4B 8542  21.297  21.936   7.749
  352POPC   NC3 8543  35.698   0.103   9.539
  352POPC   PO4 8544  35.677   0.810   9.475
  352POPC   GL1 8545  35.442   0.626   9.091
  352POPC   GL2 8546  35.481   0.264   9.085
  352POPC   C1A 8547  35.462   0.535   8.608
  352POPC   D2A 8548  35.426   0.792   8.216
  352POPC   C3A 8549  35.238   0.647   7.874
  352POPC   C4A 8550  34.980   0.305   7.837
  352POPC   C1B 8551  35.737   0.126   8.733
  352POPC   C2B 8552  35.801   0.311   8.298
  352POPC   C3B 8553  35.607   0.237   7.885
  352POPC   C4B 8554  35.791   0.148   7.469
  353POPC   NC3 8555  41.375  24.089   9.275
  353POPC   PO4 8556  41.609  23.448   9.551
  353POPC   GL1 8557  41.693  23.685   9.205
  353POPC   GL2 8558  41.349  23.609   9.115
  353POPC   C1A 8559  41.902  23.840   8.814
  353POPC   D2A 8560  41.921  23.670   8.391
  353POPC   C3A 8561  41.946  23.924   8.010
  353POPC   C4A 8562  41.819  23.770   7.604
  353POPC   C1B 8563  41.245  23.793   8.699
  353POPC   C2B 8564  41.482  23.947   8.369
  353POPC   C3B 8565  41.455  24.044   7.953
  353POPC   C4B 8566  41.322  23.812   7.614
  354POPC   NC3 8567   4.646  37.795   9.808
  354POPC   PO4 8568   5.080  37.567   9.361
  354POPC   GL1 8569   5.278  37.649   9.013
  354POPC   GL2 8570   5.357  38.024   9.127
  354POPC   C1A 8571   5.248  37.578   8.576
  354POPC   D2A 8572   4.955  37.734   8.270
  354POPC   C3A 8573   5.089  37.589   7.878
  354POPC   C4A 8574   5.020  37.616   7.409
  354POPC   C1B 8575   5.098  38.033   8.758
  354POPC   C2B 8576   5.254  38.172   8.390
  354POPC   C3B 8577   5.152  38.084   7.950
  354POPC   C4B 8578   4.781  37.959   7.712
  355POPC   NC3 8579  10.345   1.697   9.537
  355POPC   PO4 8580  10.854   2.088   9.430
  355POPC   GL1 8581  10.595   2.110   9.131
  355POPC   GL2 8582  10.387   1.850   9.055
  355POPC   C1A 8583  10.554   2.258   8.743
  355POPC   D2A 8584  10.344   2.046   8.413
  355POPC   C3A 8585  10.561   2.097   8.046
  355POPC   C4A 8586  10.711   1.873   7.762
  355POPC   C1B 8587  10.665   1.774   8.734
  355POPC   C2B 8588  10.663   1.646   8.324
  355POPC   C3B 8589  10.384   1.586   7.998
  355POPC   C4B 8590  10.347   1.551   7.566
  356POPC   NC3 8591  14.271  23.380   9.580
  356POPC   PO4 8592  14.286  22.643   9.496
  356POPC   GL1 8593  14.381  22.983   9.197
  356POPC   GL2 8594  14.719  22.888   9.095
  356POPC   C1A 8595  14.241  23.154   8.779
  356POPC   D2A 8596  14.285  23.004   8.341
  356POPC   C3A 8597  14.579  23.231   8.109
  356POPC   C4A 8598  14.566  23.270   7.667
  356POPC   C1B 8599  14.698  22.909   8.643
  356POPC   C2B 8600  14.733  22.754   8.220
  356POPC   C3B 8601  14.498  22.809   7.823
  356POPC   C4B 8602  14.376  22.681   7.376
  357POPC   NC3 8603  19.237  11.337   9.594
  357POPC   PO4 8604  18.560  11.129   9.660
  357POPC   GL1 8605  18.766  11.259   9.226
  357POPC   GL2 8606  19.003  11.508   9.166
  357POPC   C1A 8607  18.763  11.300   8.728
  357POPC   D2A 8608  18.969  11.505   8.347
  357POPC   C3A 8609  18.907  11.374   7.895
  357POPC   C4A 8610  19.063  11.569   7.519
  357POPC   C1B 8611  19.233  11.257   8.888
  357POPC   C2B 8612  19.205  11.049   8.487
  357POPC   C3B 8613  19.338  11.245   8.092
  357POPC   C4B 8614  19.360  11.101   7.669
  358POPC   NC3 8615  20.786  15.246   9.467
  358POPC   PO4 8616  20.480  14.765   9.604
  358POPC   GL1 8617  20.527  14.875   9.170
  358POPC   GL2 8618  20.850  14.804   9.166
  358POPC   C1A 8619  20.483  14.971   8.694
  358POPC   D2A 8620  20.424  14.992   8.240
  358POPC   C3A 8621  20.579  14.980   7.808
  358POPC   C4A 8622  20.631  15.292   7.445
  358POPC   C1B 8623  20.945  15.089   8.847
  358POPC   C2B 8624  20.919  15.098   8.434
  358POPC   C3B 8625  20.807  15.325   8.114
  358POPC   C4B 8626  21.009  15.341   7.772
  359POPC   NC3 8627  41.848  14.014   9.282
  359POPC   PO4 8628  41.551  13.582   9.708
  359POPC   GL1 8629  41.607  13.554   9.167
  359POPC   GL2 8630  41.342  13.373   8.985
  359POPC   C1A 8631  41.674  13.759   8.696
  359POPC   D2A 8632  41.555  13.641   8.266
  359POPC   C3A 8633  41.740  13.694   7.845
  359POPC   C4A 8634  41.705  13.496   7.435
  359POPC   C1B 8635  41.163  13.663   8.658
  359POPC   C2B 8636  41.044  13.707   8.217
  359POPC   C3B 8637  41.248  13.599   7.836
  359POPC   C4B 8638  41.302  13.883   7.493
  360POPC   NC3 8639  34.519  18.684   9.446
  360POPC   PO4 8640  34.007  18.228   9.446
  360POPC   GL1 8641  34.377  18.305   9.127
  360POPC   GL2 8642  34.739  18.379   9.097
  360POPC   C1A 8643  34.405  18.562   8.768
  360POPC   D2A 8644  34.526  18.750   8.410
  360POPC   C3A 8645  34.561  18.500   8.066
  360POPC   C4A 8646  34.401  18.448   7.665
  360POPC   C1B 8647  34.653  18.101   8.747
  360POPC   C2B 8648  34.863  17.936   8.430
  360POPC   C3B 8649  34.665  18.002   8.066
  360POPC   C4B 8650  34.844  18.175   7.722
  361POPC   NC3 8651  10.188  31.433   9.405
  361POPC   PO4 8652  10.803  31.690   9.504
  361POPC   GL1 8653  10.476  31.798   9.178
  361POPC   GL2 8654  10.476  31.457   9.007
  361POPC   C1A 8655  10.379  31.865   8.732
  361POPC   D2A 8656  10.473  31.464   8.499
  361POPC   C3A 8657  10.551  31.485   8.085
  361POPC   C4A 8658  10.359  31.583   7.726
  361POPC   C1B 8659  10.200  31.140   8.801
  361POPC   C2B 8660  10.166  31.001   8.369
  361POPC   C3B 8661  10.303  31.077   7.924
  361POPC   C4B 8662  10.315  31.128   7.441
  362POPC   NC3 8663  26.098  36.661   9.578
  362POPC   PO4 8664  25.862  36.059   9.657
  362POPC   GL1 8665  26.051  36.224   9.276
  362POPC   GL2 8666  25.743  36.107   9.152
  362POPC   C1A 8667  26.122  36.275   8.822
  362POPC   D2A 8668  26.144  36.020   8.443
  362POPC   C3A 8669  26.391  36.127   8.105
  362POPC   C4A 8670  26.391  36.060   7.686
  362POPC   C1B 8671  25.798  35.869   8.784
  362POPC   C2B 8672  25.660  35.797   8.360
  362POPC   C3B 8673  25.869  35.981   8.002
  362POPC   C4B 8674  25.798  36.330   7.746
  363POPC   NC3 8675  41.434   7.579   9.543
  363POPC   PO4 8676  42.019   7.562   9.603
  363POPC   GL1 8677  41.757   7.489   9.176
  363POPC   GL2 8678  41.357   7.586   9.057
  363POPC   C1A 8679  41.765   7.640   8.770
  363POPC   D2A 8680  41.734   7.392   8.405
  363POPC   C3A 8681  41.783   7.608   8.024
  363POPC   C4A 8682  41.737   7.412   7.608
  363POPC   C1B 8683  41.211   7.268   8.754
  363POPC   C2B 8684  41.303   7.085   8.334
  363POPC   C3B 8685  41.390   7.065   7.884
  363POPC   C4B 8686  41.190   7.195   7.502
  364POPC   NC3 8687  29.779  29.452   9.392
  364POPC   PO4 8688  30.079  28.827   9.516
  364POPC   GL1 8689  30.011  29.060   9.147
  364POPC   GL2 8690  29.681  29.021   9.018
  364POPC   C1A 8691  30.007  29.302   8.741
  364POPC   D2A 8692  30.149  29.196   8.353
  364POPC   C3A 8693  29.902  29.187   8.007
  364POPC   C4A 8694  30.021  28.981   7.655
  364POPC   C1B 8695  29.910  28.798   8.712
  364POPC   C2B 8696  29.780  28.803   8.331
  364POPC   C3B 8697  29.618  28.775   7.941
  364POPC   C4B 8698  29.591  28.768   7.525
  365POPC   NC3 8699  23.565  23.469   9.374
  365POPC   PO4 8700  23.978  24.001   9.371
  365POPC   GL1 8701  23.758  23.840   9.059
  365POPC   GL2 8702  23.420  23.832   9.070
  365POPC   C1A 8703  23.773  23.837   8.636
  365POPC   D2A 8704  23.796  23.942   8.219
  365POPC   C3A 8705  24.047  23.618   8.047
  365POPC   C4A 8706  24.225  23.576   7.682
  365POPC   C1B 8707  23.378  23.520   8.778
  365POPC   C2B 8708  23.594  23.379   8.459
  365POPC   C3B 8709  23.536  23.530   8.060
  365POPC   C4B 8710  23.684  23.793   7.717
  366POPC   NC3 8711   9.988   0.242   9.555
  366POPC   PO4 8712   9.583   0.649   9.700
  366POPC   GL1 8713   9.954   0.662   9.297
  366POPC   GL2 8714   9.834   0.354   9.074
  366POPC   C1A 8715  10.031   0.691   8.782
  366POPC   D2A 8716   9.779   0.402   8.448
  366POPC   C3A 8717   9.920   0.434   8.001
  366POPC   C4A 8718   9.868   0.740   7.671
  366POPC   C1B 8719   9.589   0.039   8.771
  366POPC   C2B 8720   9.354   0.044   8.365
  366POPC   C3B 8721   9.432   0.287   8.010
  366POPC   C4B 8722   9.600   0.261   7.621
  367POPC   NC3 8723  11.911  16.603   9.623
  367POPC   PO4 8724  12.456  16.938   9.614
  367POPC   GL1 8725  12.329  16.807   9.220
  367POPC   GL2 8726  11.994  16.956   9.229
  367POPC   C1A 8727  12.244  16.827   8.770
  367POPC   D2A 8728  12.065  16.557   8.460
  367POPC   C3A 8729  12.251  16.580   8.055
  367POPC   C4A 8730  12.152  16.368   7.670
  367POPC   C1B 8731  11.748  16.836   8.862
  367POPC   C2B 8732  11.665  16.915   8.436
  367POPC   C3B 8733  11.767  16.782   8.020
  367POPC   C4B 8734  12.005  16.850   7.681
  368POPC   NC3 8735  41.320   9.325   9.422
  368POPC   PO4 8736  41.705   8.769   9.530
  368POPC   GL1 8737  41.640   8.985   9.172
  368POPC   GL2 8738  41.308   8.892   9.137
  368POPC   C1A 8739  41.895   9.050   8.809
  368POPC   D2A 8740  41.839   8.844   8.424
  368POPC   C3A 8741  41.744   8.999   8.056
  368POPC   C4A 8742  41.735   8.880   7.656
  368POPC   C1B 8743  41.178   8.885   8.716
  368POPC   C2B 8744  41.335   9.015   8.339
  368POPC   C3B 8745  41.264   8.874   7.910
  368POPC   C4B 8746  41.260   8.884   7.441
  369POPC   NC3 8747  25.307  38.591   9.472
  369POPC   PO4 8748  25.556  38.013   9.562
  369POPC   GL1 8749  25.378  38.180   9.151
  369POPC   GL2 8750  25.174  38.477   8.999
  369POPC   C1A 8751  25.229  38.044   8.758
  369POPC   D2A 8752  25.381  38.297   8.427
  369POPC   C3A 8753  25.292  38.138   8.044
  369POPC   C4A 8754  25.446  38.213   7.626
  369POPC   C1B 8755  25.607  38.568   8.817
  369POPC   C2B 8756  25.743  38.676   8.375
  369POPC   C3B 8757  25.499  38.617   7.973
  369POPC   C4B 8758  25.050  38.499   7.787
  370POPC   NC3 8759   6.098  34.125   9.382
  370POPC   PO4 8760   6.656  33.671   9.542
  370POPC   GL1 8761   6.559  33.629   9.145
  370POPC   GL2 8762   6.555  33.991   9.072
  370POPC   C1A 8763   6.543  33.433   8.750
  370POPC   D2A 8764   6.523  33.705   8.397
  370POPC   C3A 8765   6.514  33.494   7.996
  370POPC   C4A 8766   6.510  33.792   7.689
  370POPC   C1B 8767   6.904  33.794   8.811
  370POPC   C2B 8768   7.059  33.875   8.418
  370POPC   C3B 8769   6.919  33.818   8.042
  370POPC   C4B 8770   7.020  33.760   7.638
  371POPC   NC3 8771  32.363   6.899   9.588
  371POPC   PO4 8772  32.169   6.228   9.616
  371POPC   GL1 8773  32.159   6.546   9.291
  371POPC   GL2 8774  32.438   6.522   9.198
  371POPC   C1A 8775  32.049   6.608   8.852
  371POPC   D2A 8776  32.212   6.542   8.444
  371POPC   C3A 8777  32.132   6.744   8.058
  371POPC   C4A 8778  32.012   6.577   7.648
  371POPC   C1B 8779  32.564   6.684   8.789
  371POPC   C2B 8780  32.737   6.471   8.458
  371POPC   C3B 8781  32.620   6.589   8.080
  371POPC   C4B 8782  32.517   6.643   7.686
  372POPC   NC3 8783  37.173  14.256   9.833
  372POPC   PO4 8784  36.805  14.616   9.461
  372POPC   GL1 8785  36.860  14.271   9.166
  372POPC   GL2 8786  37.160  14.436   9.018
  372POPC   C1A 8787  36.878  14.101   8.744
  372POPC   D2A 8788  36.911  14.459   8.453
  372POPC   C3A 8789  36.778  14.309   8.047
  372POPC   C4A 8790  36.909  14.389   7.638
  372POPC   C1B 8791  37.400  14.160   8.727
  372POPC   C2B 8792  37.253  14.104   8.354
  372POPC   C3B 8793  37.284  14.270   7.973
  372POPC   C4B 8794  37.287  14.007   7.632
  373POPC   NC3 8795  13.824  39.073   9.509
  373POPC   PO4 8796  13.651  39.685   9.499
  373POPC   GL1 8797  13.424  39.530   9.063
  373POPC   GL2 8798  13.202  39.224   9.042
  373POPC   C1A 8799  13.504  39.322   8.602
  373POPC   D2A 8800  13.838  39.211   8.247
  373POPC   C3A 8801  13.744  39.394   7.817
  373POPC   C4A 8802  13.613  39.474   7.362
  373POPC   C1B 8803  13.216  38.886   8.762
  373POPC   C2B 8804  13.254  38.901   8.350
  373POPC   C3B 8805  13.506  38.925   8.002
  373POPC   C4B 8806  13.320  38.746   7.716
  374POPC   NC3 8807  31.015  12.558   9.428
  374POPC   PO4 8808  30.359  12.487   9.452
  374POPC   GL1 8809  30.607  12.758   9.164
  374POPC   GL2 8810  30.711  13.109   9.282
  374POPC   C1A 8811  30.698  12.727   8.714
  374POPC   D2A 8812  30.423  12.871   8.364
  374POPC   C3A 8813  30.538  12.690   7.967
  374POPC   C4A 8814  30.363  12.491   7.609
  374POPC   C1B 8815  30.880  13.191   8.849
  374POPC   C2B 8816  30.901  13.111   8.404
  374POPC   C3B 8817  30.682  13.186   8.018
  374POPC   C4B 8818  31.004  13.138   7.747
  375POPC   NC3 8819  12.096  43.484   9.530
  375POPC   PO4 8820  11.714  44.033   9.498
  375POPC   GL1 8821  11.941  43.852   9.174
  375POPC   GL2 8822  11.721  43.545   9.183
  375POPC   C1A 8823  12.223  43.882   8.790
  375POPC   D2A 8824  12.015  43.926   8.368
  375POPC   C3A 8825  12.273  43.998   8.000
  375POPC   C4A 8826  12.547  44.007   7.649
  375POPC   C1B 8827  11.808  43.603   8.737
  375POPC   C2B 8828  11.795  43.456   8.316
  375POPC   C3B 8829  11.941  43.616   7.938
  375POPC   C4B 8830  12.025  43.852   7.549
  376POPC   NC3 8831  18.361  12.595   9.439
  376POPC   PO4 8832  18.678  13.183   9.351
  376POPC   GL1 8833  18.447  12.903   9.086
  376POPC   GL2 8834  18.592  12.627   8.952
  376POPC   C1A 8835  18.101  12.741   8.811
  376POPC   D2A 8836  18.264  12.608   8.420
  376POPC   C3A 8837  18.124  12.717   7.991
  376POPC   C4A 8838  18.448  12.706   7.704
  376POPC   C1B 8839  18.519  12.994   8.623
  376POPC   C2B 8840  18.373  13.088   8.201
  376POPC   C3B 8841  18.315  13.200   7.769
  376POPC   C4B 8842  18.401  13.149   7.340
  377POPC   NC3 8843  34.697   3.131   9.554
  377POPC   PO4 8844  34.300   2.649   9.368
  377POPC   GL1 8845  34.626   2.902   9.087
  377POPC   GL2 8846  34.377   3.114   9.093
  377POPC   C1A 8847  34.933   2.765   8.717
  377POPC   D2A 8848  35.012   2.634   8.278
  377POPC   C3A 8849  34.629   2.608   8.046
  377POPC   C4A 8850  34.564   2.851   7.708
  377POPC   C1B 8851  34.284   2.971   8.659
  377POPC   C2B 8852  34.253   3.276   8.298
  377POPC   C3B 8853  34.295   3.287   7.830
  377POPC   C4B 8854  34.151   3.018   7.445
  378POPC   NC3 8855  13.777  37.301   9.565
  378POPC   PO4 8856  13.462  37.844   9.565
  378POPC   GL1 8857  13.485  37.652   9.175
  378POPC   GL2 8858  13.821  37.618   9.102
  378POPC   C1A 8859  13.446  37.543   8.732
  378POPC   D2A 8860  13.235  37.753   8.410
  378POPC   C3A 8861  13.498  37.584   8.119
  378POPC   C4A 8862  13.505  37.574   7.696
  378POPC   C1B 8863  13.869  37.259   8.804
  378POPC   C2B 8864  13.806  37.208   8.341
  378POPC   C3B 8865  13.925  37.365   7.882
  378POPC   C4B 8866  13.958  37.643   7.462
  379POPC   NC3 8867  17.343  33.286   9.587
  379POPC   PO4 8868  17.775  32.862   9.326
  379POPC   GL1 8869  17.583  33.201   9.145
  379POPC   GL2 8870  17.230  33.061   9.158
  379POPC   C1A 8871  17.441  33.244   8.725
  379POPC   D2A 8872  17.498  33.344   8.309
  379POPC   C3A 8873  17.656  33.078   8.046
  379POPC   C4A 8874  17.574  33.080   7.647
  379POPC   C1B 8875  17.106  32.793   8.815
  379POPC   C2B 8876  17.190  32.899   8.407
  379POPC   C3B 8877  17.154  33.062   8.013
  379POPC   C4B 8878  17.256  32.701   7.800
  380POPC   NC3 8879  40.679   7.027   9.329
  380POPC   PO4 8880  41.146   6.526   9.426
  380POPC   GL1 8881  40.920   6.572   9.097
  380POPC   GL2 8882  40.612   6.404   9.228
  380POPC   C1A 8883  40.913   6.812   8.710
  380POPC   D2A 8884  40.564   6.845   8.421
  380POPC   C3A 8885  40.668   6.645   8.033
  380POPC   C4A 8886  40.881   6.843   7.690
  380POPC   C1B 8887  40.486   6.495   8.806
  380POPC   C2B 8888  40.523   6.286   8.411
  380POPC   C3B 8889  40.350   6.217   8.028
  380POPC   C4B 8890  40.261   6.485   7.702
  381POPC   NC3 8891   2.683   5.419   9.501
  381POPC   PO4 8892   2.850   4.731   9.456
  381POPC   GL1 8893   2.584   4.895   9.116
  381POPC   GL2 8894   2.523   5.254   9.045
  381POPC   C1A 8895   2.545   4.903   8.682
  381POPC   D2A 8896   2.725   5.149   8.331
  381POPC   C3A 8897   2.799   4.870   8.012
  381POPC   C4A 8898   2.531   4.747   7.708
  381POPC   C1B 8899   2.725   5.498   8.712
  381POPC   C2B 8900   3.006   5.602   8.346
  381POPC   C3B 8901   3.028   5.380   7.945
  381POPC   C4B 8902   2.664   5.281   7.756
  382POPC   NC3 8903  31.857  44.137   9.440
  382POPC   PO4 8904  32.375  43.801   9.732
  382POPC   GL1 8905  32.376  43.847   9.218
  382POPC   GL2 8906  32.155  44.071   9.047
  382POPC   C1A 8907  32.569  44.023   8.786
  382POPC   D2A 8908  32.512  44.276   8.393
  382POPC   C3A 8909  32.322  44.043   8.055
  382POPC   C4A 8910  32.427  43.940   7.642
  382POPC   C1B 8911  31.975  44.190   8.640
  382POPC   C2B 8912  32.012  44.404   8.233
  382POPC   C3B 8913  31.870  44.218   7.868
  382POPC   C4B 8914  31.937  43.814   7.763
  383POPC   NC3 8915  15.186  25.708   9.488
  383POPC   PO4 8916  15.067  26.367   9.442
  383POPC   GL1 8917  15.193  26.063   9.089
  383POPC   GL2 8918  14.934  25.796   9.079
  383POPC   C1A 8919  15.349  26.092   8.637
  383POPC   D2A 8920  15.450  26.420   8.288
  383POPC   C3A 8921  15.392  26.321   7.811
  383POPC   C4A 8922  15.071  26.289   7.460
  383POPC   C1B 8923  14.778  25.849   8.716
  383POPC   C2B 8924  15.003  25.758   8.375
  383POPC   C3B 8925  15.258  25.952   8.137
  383POPC   C4B 8926  15.154  25.870   7.748
  384POPC   NC3 8927  27.107   3.467   9.623
  384POPC   PO4 8928  26.486   3.836   9.492
  384POPC   GL1 8929  26.720   3.809   9.110
  384POPC   GL2 8930  26.813   3.492   9.151
  384POPC   C1A 8931  26.830   3.858   8.672
  384POPC   D2A 8932  26.983   3.682   8.306
  384POPC   C3A 8933  26.716   3.411   8.033
  384POPC   C4A 8934  26.739   3.668   7.678
  384POPC   C1B 8935  26.720   3.362   8.722
  384POPC   C2B 8936  26.990   3.194   8.410
  384POPC   C3B 8937  27.188   3.281   8.010
  384POPC   C4B 8938  27.111   3.340   7.599
  385POPC   NC3 8939  16.596   3.298   9.508
  385POPC   PO4 8940  17.186   3.622   9.409
  385POPC   GL1 8941  17.028   3.295   9.093
  385POPC   GL2 8942  16.678   3.203   9.002
  385POPC   C1A 8943  17.057   3.328   8.654
  385POPC   D2A 8944  17.021   3.647   8.389
  385POPC   C3A 8945  16.749   3.611   8.064
  385POPC   C4A 8946  16.858   3.477   7.675
  385POPC   C1B 8947  16.682   3.649   8.836
  385POPC   C2B 8948  16.617   3.980   8.515
  385POPC   C3B 8949  16.446   4.030   8.090
  385POPC   C4B 8950  16.569   3.916   7.653
  386POPC   NC3 8951  14.853  42.837   9.561
  386POPC   PO4 8952  14.197  43.051   9.488
  386POPC   GL1 8953  14.318  43.252   9.102
  386POPC   GL2 8954  14.650  43.154   9.115
  386POPC   C1A 8955  14.303  43.100   8.665
  386POPC   D2A 8956  14.554  42.929   8.326
  386POPC   C3A 8957  14.376  43.038   7.925
  386POPC   C4A 8958  14.328  42.835   7.520
  386POPC   C1B 8959  14.717  43.425   8.750
  386POPC   C2B 8960  14.553  43.456   8.340
  386POPC   C3B 8961  14.748  43.395   7.949
  386POPC   C4B 8962  14.768  43.101   7.586
  387POPC   NC3 8963  32.251  42.447   9.564
  387POPC   PO4 8964  32.639  41.909   9.403
  387POPC   GL1 8965  32.432  42.200   9.141
  387POPC   GL2 8966  32.130  42.372   9.078
  387POPC   C1A 8967  32.504  42.283   8.725
  387POPC   D2A 8968  32.204  42.305   8.413
  387POPC   C3A 8969  32.204  42.023   8.117
  387POPC   C4A 8970  32.533  42.057   7.810
  387POPC   C1B 8971  32.119  42.679   8.759
  387POPC   C2B 8972  32.063  42.777   8.306
  387POPC   C3B 8973  32.161  42.509   7.943
  387POPC   C4B 8974  32.086  42.229   7.588
  388POPC   NC3 8975  34.634  39.500   9.531
  388POPC   PO4 8976  34.638  38.819   9.541
  388POPC   GL1 8977  34.411  39.078   9.252
  388POPC   GL2 8978  34.703  39.259   9.096
  388POPC   C1A 8979  34.211  39.108   8.828
  388POPC   D2A 8980  34.369  39.481   8.608
  388POPC   C3A 8981  34.434  39.455   8.136
  388POPC   C4A 8982  34.288  39.434   7.670
  388POPC   C1B 8983  34.679  38.894   8.849
  388POPC   C2B 8984  34.595  38.818   8.435
  388POPC   C3B 8985  34.862  39.004   8.165
  388POPC   C4B 8986  34.742  39.198   7.810
  389POPC   NC3 8987  28.248  22.016   9.838
  389POPC   PO4 8988  28.765  22.399   9.632
  389POPC   GL1 8989  28.487  22.159   9.336
  389POPC   GL2 8990  28.529  22.425   9.091
  389POPC   C1A 8991  28.381  21.910   8.935
  389POPC   D2A 8992  28.462  21.826   8.481
  389POPC   C3A 8993  28.256  21.971   8.081
  389POPC   C4A 8994  28.425  22.294   7.807
  389POPC   C1B 8995  28.084  22.336   8.972
  389POPC   C2B 8996  28.015  22.297   8.533
  389POPC   C3B 8997  28.116  22.500   8.168
  389POPC   C4B 8998  27.866  22.459   7.819
  390POPC   NC3 8999  39.660  27.029   9.837
  390POPC   PO4 9000  40.110  26.969   9.376
  390POPC   GL1 9001  39.894  26.864   9.031
  390POPC   GL2 9002  39.976  27.165   8.873
  390POPC   C1A 9003  39.992  26.637   8.683
  390POPC   D2A 9004  40.156  26.640   8.287
  390POPC   C3A 9005  39.966  26.953   8.008
  390POPC   C4A 9006  39.902  26.598   7.803
  390POPC   C1B 9007  40.101  27.150   8.466
  390POPC   C2B 9008  40.435  27.069   8.189
  390POPC   C3B 9009  40.449  26.821   7.896
  390POPC   C4B 9010  40.282  26.877   7.544
  391POPC   NC3 9011  18.153   0.454   9.525
  391POPC   PO4 9012  18.805   0.597   9.596
  391POPC   GL1 9013  18.543   0.509   9.188
  391POPC   GL2 9014  18.246   0.358   9.055
  391POPC   C1A 9015  18.595   0.527   8.724
  391POPC   D2A 9016  18.819   0.484   8.313
  391POPC   C3A 9017  18.562   0.399   7.930
  391POPC   C4A 9018  18.572   0.506   7.477
  391POPC   C1B 9019  17.933   0.333   8.775
  391POPC   C2B 9020  17.822   0.495   8.400
  391POPC   C3B 9021  18.027   0.673   8.072
  391POPC   C4B 9022  18.092   0.496   7.687
  392POPC   NC3 9023  24.099  41.669   9.420
  392POPC   PO4 9024  23.434  41.522   9.488
  392POPC   GL1 9025  23.710  41.417   9.165
  392POPC   GL2 9026  23.887  41.121   9.059
  392POPC   C1A 9027  23.781  41.569   8.781
  392POPC   D2A 9028  23.641  41.511   8.387
  392POPC   C3A 9029  23.756  41.782   8.052
  392POPC   C4A 9030  23.846  41.706   7.637
  392POPC   C1B 9031  23.534  41.105   8.746
  392POPC   C2B 9032  23.630  41.005   8.292
  392POPC   C3B 9033  23.711  41.261   7.924
  392POPC   C4B 9034  23.456  41.387   7.578
  393POPC   NC3 9035   2.126  30.884   9.887
  393POPC   PO4 9036   2.358  30.435   9.391
  393POPC   GL1 9037   1.987  30.479   9.082
  393POPC   GL2 9038   1.852  30.835   8.970
  393POPC   C1A 9039   1.884  30.374   8.685
  393POPC   D2A 9040   2.193  30.480   8.370
  393POPC   C3A 9041   2.087  30.550   7.961
  393POPC   C4A 9042   1.745  30.432   7.744
  393POPC   C1B 9043   1.866  30.870   8.548
  393POPC   C2B 9044   1.667  30.678   8.231
  393POPC   C3B 9045   1.734  30.934   7.884
  393POPC   C4B 9046   2.068  31.177   7.861
  394POPC   NC3 9047   4.303  44.226   9.669
  394POPC   PO4 9048   4.541  44.848   9.524
  394POPC   GL1 9049   4.336  44.632   9.209
  394POPC   GL2 9050   3.992  44.691   9.194
  394POPC   C1A 9051   4.472  44.490   8.794
  394POPC   D2A 9052   4.433  44.209   8.476
  394POPC   C3A 9053   4.537  44.435   8.138
  394POPC   C4A 9054   4.517  44.524   7.711
  394POPC   C1B 9055   4.168  44.900   8.811
  394POPC   C2B 9056   4.105  44.687   8.443
  394POPC   C3B 9057   4.192  44.814   8.055
  394POPC   C4B 9058   4.021  44.667   7.717
  395POPC   NC3 9059  43.471  32.998   9.480
  395POPC   PO4 9060  42.828  33.195   9.292
  395POPC   GL1 9061  43.146  33.053   9.071
  395POPC   GL2 9062  42.901  33.122   8.782
  395POPC   C1A 9063  43.406  33.052   8.707
  395POPC   D2A 9064  43.240  33.298   8.384
  395POPC   C3A 9065  43.407  33.302   7.992
  395POPC   C4A 9066  43.430  32.989   7.646
  395POPC   C1B 9067  42.975  32.687   8.768
  395POPC   C2B 9068  43.245  32.588   8.468
  395POPC   C3B 9069  43.276  32.844   8.144
  395POPC   C4B 9070  42.959  32.954   7.836
  396POPC   NC3 9071  40.373   2.569   9.363
  396POPC   PO4 9072  40.797   3.106   9.454
  396POPC   GL1 9073  40.790   2.820   9.100
  396POPC   GL2 9074  40.483   2.852   8.918
  396POPC   C1A 9075  40.938   2.774   8.656
  396POPC   D2A 9076  41.027   2.812   8.207
  396POPC   C3A 9077  40.682   3.031   7.999
  396POPC   C4A 9078  40.530   3.180   7.604
  396POPC   C1B 9079  40.580   2.439   8.760
  396POPC   C2B 9080  40.434   2.270   8.386
  396POPC   C3B 9081  40.650   2.478   8.043
  396POPC   C4B 9082  40.624   2.665   7.647
  397POPC   NC3 9083  11.147  39.726   9.361
  397POPC   PO4 9084  11.530  39.259   9.770
  397POPC   GL1 9085  11.369  39.212   9.254
  397POPC   GL2 9086  11.083  39.303   9.103
  397POPC   C1A 9087  11.294  39.061   8.737
  397POPC   D2A 9088  11.192  39.261   8.331
  397POPC   C3A 9089  11.476  39.152   8.033
  397POPC   C4A 9090  11.497  38.908   7.693
  397POPC   C1B 9091  11.501  39.486   8.849
  397POPC   C2B 9092  11.495  39.674   8.457
  397POPC   C3B 9093  11.405  39.709   8.040
  397POPC   C4B 9094  11.493  39.499   7.670
  398POPC   NC3 9095   9.896  19.346   9.421
  398POPC   PO4 9096   9.619  18.716   9.525
  398POPC   GL1 9097   9.584  18.894   9.113
  398POPC   GL2 9098   9.910  18.995   8.986
  398POPC   C1A 9099   9.534  19.263   8.802
  398POPC   D2A 9100   9.687  19.329   8.398
  398POPC   C3A 9101   9.676  19.137   7.986
  398POPC   C4A 9102   9.626  19.173   7.549
  398POPC   C1B 9103  10.050  19.391   8.778
  398POPC   C2B 9104  10.217  19.395   8.393
  398POPC   C3B 9105  10.207  19.191   7.994
  398POPC   C4B 9106  10.114  19.306   7.564
  399POPC   NC3 9107  27.130  20.948   9.485
  399POPC   PO4 9108  26.772  20.319   9.512
  399POPC   GL1 9109  26.732  20.284   9.095
  399POPC   GL2 9110  26.866  20.595   9.081
  399POPC   C1A 9111  26.957  20.238   8.714
  399POPC   D2A 9112  27.062  20.374   8.311
  399POPC   C3A 9113  26.848  20.219   7.930
  399POPC   C4A 9114  27.120  20.305   7.604
  399POPC   C1B 9115  27.054  20.798   8.722
  399POPC   C2B 9116  26.895  20.867   8.309
  399POPC   C3B 9117  26.971  20.726   7.914
  399POPC   C4B 9118  26.695  20.589   7.614
  400POPC   NC3 9119  15.201  14.057   9.543
  400POPC   PO4 9120  14.980  13.353   9.455
  400POPC   GL1 9121  15.105  13.700   9.167
  400POPC   GL2 9122  14.844  13.798   8.914
  400POPC   C1A 9123  15.349  13.871   8.814
  400POPC   D2A 9124  15.347  13.718   8.391
  400POPC   C3A 9125  14.969  13.813   8.178
  400POPC   C4A 9126  14.991  13.839   7.731
  400POPC   C1B 9127  15.036  13.420   8.688
  400POPC   C2B 9128  14.980  13.179   8.280
  400POPC   C3B 9129  14.897  13.370   7.930
  400POPC   C4B 9130  15.293  13.495   7.907
  401POPC   NC3 9131  23.028  31.112   9.427
  401POPC   PO4 9132  22.966  30.572   9.891
  401POPC   GL1 9133  22.904  30.621   9.362
  401POPC   GL2 9134  22.693  30.420   9.152
  401POPC   C1A 9135  23.163  30.765   8.907
  401POPC   D2A 9136  23.141  30.960   8.462
  401POPC   C3A 9137  23.182  30.788   8.014
  401POPC   C4A 9138  23.133  31.013   7.591
  401POPC   C1B 9139  22.705  30.634   8.744
  401POPC   C2B 9140  22.713  30.729   8.311
  401POPC   C3B 9141  22.704  30.438   8.010
  401POPC   C4B 9142  22.950  30.313   7.687
  402POPC   NC3 9143  34.258  24.007   9.519
  402POPC   PO4 9144  33.855  23.486   9.297
  402POPC   GL1 9145  33.818  23.747   8.983
  402POPC   GL2 9146  34.058  24.009   9.050
  402POPC   C1A 9147  33.892  23.631   8.552
  402POPC   D2A 9148  33.653  23.672   8.247
  402POPC   C3A 9149  33.753  23.544   7.861
  402POPC   C4A 9150  33.609  23.433   7.461
  402POPC   C1B 9151  33.881  24.128   8.647
  402POPC   C2B 9152  34.037  24.046   8.256
  402POPC   C3B 9153  33.986  24.017   7.839
  402POPC   C4B 9154  33.911  23.829   7.447
  403POPC   NC3 9155  26.340  21.016   9.420
  403POPC   PO4 9156  25.855  21.374   9.630
  403POPC   GL1 9157  26.061  21.425   9.205
  403POPC   GL2 9158  26.423  21.432   9.137
  403POPC   C1A 9159  26.089  21.274   8.763
  403POPC   D2A 9160  25.818  21.230   8.378
  403POPC   C3A 9161  26.003  21.303   7.958
  403POPC   C4A 9162  25.900  21.134   7.549
  403POPC   C1B 9163  26.488  21.631   8.758
  403POPC   C2B 9164  26.389  21.623   8.309
  403POPC   C3B 9165  26.500  21.522   7.866
  403POPC   C4B 9166  26.337  21.383   7.461
  404POPC   NC3 9167  27.676  12.330   9.551
  404POPC   PO4 9168  27.478  11.743   9.471
  404POPC   GL1 9169  27.646  12.011   9.137
  404POPC   GL2 9170  27.383  12.259   9.108
  404POPC   C1A 9171  27.829  12.198   8.762
  404POPC   D2A 9172  27.712  12.396   8.360
  404POPC   C3A 9173  27.758  12.215   7.918
  404POPC   C4A 9174  27.887  12.433   7.522
  404POPC   C1B 9175  27.349  12.103   8.657
  404POPC   C2B 9176  27.351  12.078   8.199
  404POPC   C3B 9177  27.264  12.152   7.775
  404POPC   C4B 9178  27.136  11.867   7.468
  405POPC   NC3 9179  12.739  12.444   9.552
  405POPC   PO4 9180  13.070  11.949   9.680
  405POPC   GL1 9181  12.989  12.005   9.218
  405POPC   GL2 9182  12.631  12.112   9.151
  405POPC   C1A 9183  13.005  12.087   8.763
  405POPC   D2A 9184  13.086  12.213   8.318
  405POPC   C3A 9185  13.037  11.886   7.988
  405POPC   C4A 9186  13.044  11.730   7.578
  405POPC   C1B 9187  12.498  12.238   8.732
  405POPC   C2B 9188  12.524  12.357   8.313
  405POPC   C3B 9189  12.614  12.157   7.945
  405POPC   C4B 9190  12.477  12.333   7.602
  406POPC   NC3 9191   1.909  27.537   9.420
  406POPC   PO4 9192   2.542  27.828   9.459
  406POPC   GL1 9193   2.220  27.831   9.099
  406POPC   GL2 9194   1.874  27.741   8.956
  406POPC   C1A 9195   2.289  27.591   8.724
  406POPC   D2A 9196   1.982  27.532   8.384
  406POPC   C3A 9197   2.072  27.349   7.993
  406POPC   C4A 9198   1.812  27.371   7.608
  406POPC   C1B 9199   1.986  27.989   8.627
  406POPC   C2B 9200   1.854  28.056   8.247
  406POPC   C3B 9201   1.805  27.803   7.922
  406POPC   C4B 9202   1.593  27.853   7.585
  407POPC   NC3 9203  41.379   0.904   9.372
  407POPC   PO4 9204  41.534   1.635   9.482
  407POPC   GL1 9205  41.637   1.326   9.205
  407POPC   GL2 9206  41.313   1.304   9.072
  407POPC   C1A 9207  41.796   1.208   8.826
  407POPC   D2A 9208  41.541   1.112   8.484
  407POPC   C3A 9209  41.639   0.967   8.074
  407POPC   C4A 9210  41.639   1.194   7.663
  407POPC   C1B 9211  41.271   1.528   8.710
  407POPC   C2B 9212  41.178   1.389   8.276
  407POPC   C3B 9213  41.207   1.455   7.836
  407POPC   C4B 9214  41.067   1.852   7.696
  408POPC   NC3 9215  14.085  22.222   9.463
  408POPC   PO4 9216  14.668  21.979   9.488
  408POPC   GL1 9217  14.490  22.082   9.112
  408POPC   GL2 9218  14.229  21.830   9.063
  408POPC   C1A 9219  14.392  22.468   8.872
  408POPC   D2A 9220  14.086  22.565   8.548
  408POPC   C3A 9221  14.272  22.495   8.151
  408POPC   C4A 9222  14.392  22.324   7.738
  408POPC   C1B 9223  14.217  22.004   8.662
  408POPC   C2B 9224  14.263  21.989   8.227
  408POPC   C3B 9225  14.099  21.931   7.827
  408POPC   C4B 9226  14.352  21.911   7.443
  409POPC   NC3 9227   8.467  32.979  10.005
  409POPC   PO4 9228   7.842  33.013   9.734
  409POPC   GL1 9229   8.023  32.962   9.236
  409POPC   GL2 9230   8.393  32.781   9.183
  409POPC   C1A 9231   7.957  33.178   8.841
  409POPC   D2A 9232   7.862  33.302   8.407
  409POPC   C3A 9233   8.181  33.277   8.104
  409POPC   C4A 9234   8.330  33.027   7.762
  409POPC   C1B 9235   8.169  32.695   8.821
  409POPC   C2B 9236   7.975  32.808   8.442
  409POPC   C3B 9237   8.001  32.711   8.013
  409POPC   C4B 9238   8.293  32.491   7.760
  410POPC   NC3 9239  38.637   8.480   9.913
  410POPC   PO4 9240  38.290   8.083   9.452
  410POPC   GL1 9241  38.444   8.125   9.010
  410POPC   GL2 9242  38.797   8.084   8.968
  410POPC   C1A 9243  38.515   8.230   8.546
  410POPC   D2A 9244  38.254   8.225   8.160
  410POPC   C3A 9245  38.444   8.066   7.749
  410POPC   C4A 9246  38.164   8.032   7.359
  410POPC   C1B 9247  38.766   8.564   8.843
  410POPC   C2B 9248  38.822   8.728   8.438
  410POPC   C3B 9249  38.679   8.501   8.110
  410POPC   C4B 9250  38.715   8.536   7.691
  411POPC   NC3 9251   3.342  44.033   9.685
  411POPC   PO4 9252   3.757  43.526   9.511
  411POPC   GL1 9253   3.528  43.664   9.128
  411POPC   GL2 9254   3.277  43.913   9.078
  411POPC   C1A 9255   3.692  43.825   8.724
  411POPC   D2A 9256   3.698  43.607   8.379
  411POPC   C3A 9257   3.844  43.785   8.053
  411POPC   C4A 9258   3.978  43.768   7.687
  411POPC   C1B 9259   3.196  43.856   8.603
  411POPC   C2B 9260   3.424  44.018   8.232
  411POPC   C3B 9261   3.478  43.958   7.743
  411POPC   C4B 9262   3.231  44.200   7.340
  412POPC   NC3 9263  33.760   8.528   9.792
  412POPC   PO4 9264  34.041   7.968   9.491
  412POPC   GL1 9265  33.700   8.232   9.293
  412POPC   GL2 9266  33.783   8.552   9.258
  412POPC   C1A 9267  33.606   8.308   8.844
  412POPC   D2A 9268  33.604   8.019   8.477
  412POPC   C3A 9269  33.898   8.075   8.132
  412POPC   C4A 9270  33.670   8.130   7.769
  412POPC   C1B 9271  34.095   8.457   8.986
  412POPC   C2B 9272  34.141   8.308   8.557
  412POPC   C3B 9273  34.239   8.515   8.177
  412POPC   C4B 9274  33.991   8.508   7.802
  413POPC   NC3 9275  40.536  25.467   9.625
  413POPC   PO4 9276  41.013  25.040   9.507
  413POPC   GL1 9277  40.693  25.141   9.225
  413POPC   GL2 9278  40.958  25.269   9.072
  413POPC   C1A 9279  40.478  25.239   8.835
  413POPC   D2A 9280  40.611  25.149   8.404
  413POPC   C3A 9281  40.396  25.206   8.023
  413POPC   C4A 9282  40.544  25.390   7.604
  413POPC   C1B 9283  40.940  25.424   8.709
  413POPC   C2B 9284  41.142  25.370   8.357
  413POPC   C3B 9285  40.908  25.420   7.990
  413POPC   C4B 9286  41.013  25.695   7.655
  414POPC   NC3 9287   5.518  20.434   9.506
  414POPC   PO4 9288   6.110  20.069   9.346
  414POPC   GL1 9289   5.939  20.464   9.171
  414POPC   GL2 9290   5.607  20.557   9.032
  414POPC   C1A 9291   6.066  20.613   8.762
  414POPC   D2A 9292   6.060  20.313   8.393
  414POPC   C3A 9293   6.047  20.498   7.974
  414POPC   C4A 9294   6.168  20.920   7.846
  414POPC   C1B 9295   5.593  20.543   8.587
  414POPC   C2B 9296   5.797  20.806   8.324
  414POPC   C3B 9297   5.676  20.956   7.932
  414POPC   C4B 9298   5.793  20.714   7.570
  415POPC   NC3 9299  11.545  41.351   9.509
  415POPC   PO4 9300  10.958  41.682   9.517
  415POPC   GL1 9301  11.250  41.805   9.158
  415POPC   GL2 9302  11.587  41.673   9.122
  415POPC   C1A 9303  11.400  41.927   8.730
  415POPC   D2A 9304  11.184  41.741   8.410
  415POPC   C3A 9305  11.289  41.643   8.000
  415POPC   C4A 9306  11.072  41.307   7.806
  415POPC   C1B 9307  11.444  41.405   8.783
  415POPC   C2B 9308  11.312  41.233   8.362
  415POPC   C3B 9309  11.568  41.152   7.989
  415POPC   C4B 9310  11.673  41.131   7.557
  416POPC   NC3 9311  20.779  23.370   9.377
  416POPC   PO4 9312  20.414  22.942   9.706
  416POPC   GL1 9313  20.533  22.902   9.237
  416POPC   GL2 9314  20.771  23.070   8.983
  416POPC   C1A 9315  20.613  22.608   8.883
  416POPC   D2A 9316  20.784  22.804   8.539
  416POPC   C3A 9317  20.666  22.745   8.110
  416POPC   C4A 9318  20.532  22.974   7.739
  416POPC   C1B 9319  20.363  23.058   8.752
  416POPC   C2B 9320  20.145  23.168   8.349
  416POPC   C3B 9321  20.223  23.334   7.952
  416POPC   C4B 9322  20.369  23.418   7.554
  417POPC   NC3 9323  32.351  35.229   9.547
  417POPC   PO4 9324  32.275  35.896   9.506
  417POPC   GL1 9325  32.432  35.622   9.182
  417POPC   GL2 9326  32.221  35.332   9.087
  417POPC   C1A 9327  32.564  35.465   8.769
  417POPC   D2A 9328  32.309  35.371   8.415
  417POPC   C3A 9329  32.511  35.477   8.040
  417POPC   C4A 9330  32.574  35.337   7.620
  417POPC   C1B 9331  32.052  35.087   8.775
  417POPC   C2B 9332  32.140  34.850   8.405
  417POPC   C3B 9333  32.018  34.926   7.986
  417POPC   C4B 9334  32.041  35.339   7.823
  418POPC   NC3 9335  12.518  34.375   9.489
  418POPC   PO4 9336  11.914  34.811   9.547
  418POPC   GL1 9337  12.027  34.676   9.156
  418POPC   GL2 9338  12.099  34.341   9.196
  418POPC   C1A 9339  12.350  34.670   8.846
  418POPC   D2A 9340  12.443  34.485   8.410
  418POPC   C3A 9341  12.221  34.608   8.024
  418POPC   C4A 9342  12.361  34.531   7.602
  418POPC   C1B 9343  12.121  34.235   8.757
  418POPC   C2B 9344  12.096  34.074   8.351
  418POPC   C3B 9345  11.844  34.205   8.042
  418POPC   C4B 9346  11.882  34.400   7.646
  419POPC   NC3 9347  27.460  40.259   9.476
  419POPC   PO4 9348  27.711  39.743   9.447
  419POPC   GL1 9349  27.771  40.002   9.086
  419POPC   GL2 9350  28.101  40.124   8.986
  419POPC   C1A 9351  27.674  40.199   8.684
  419POPC   D2A 9352  27.411  40.297   8.317
  419POPC   C3A 9353  27.371  39.946   8.035
  419POPC   C4A 9354  27.607  39.867   7.686
  419POPC   C1B 9355  28.123  40.461   8.696
  419POPC   C2B 9356  27.935  40.466   8.294
  419POPC   C3B 9357  27.847  40.175   7.999
  419POPC   C4B 9358  28.095  40.035   7.623
  420POPC   NC3 9359  11.343  18.441   9.403
  420POPC   PO4 9360  11.628  17.858   9.497
  420POPC   GL1 9361  11.291  17.997   9.173
  420POPC   GL2 9362  11.551  18.147   8.994
  420POPC   C1A 9363  11.112  18.201   8.759
  420POPC   D2A 9364  11.316  18.334   8.359
  420POPC   C3A 9365  11.205  18.141   7.959
  420POPC   C4A 9366  11.276  17.971   7.501
  420POPC   C1B 9367  11.550  18.540   8.778
  420POPC   C2B 9368  11.752  18.598   8.405
  420POPC   C3B 9369  11.607  18.620   7.987
  420POPC   C4B 9370  11.450  18.423   7.627
  421POPC   NC3 9371  38.196   6.860   9.481
  421POPC   PO4 9372  38.814   6.495   9.500
  421POPC   GL1 9373  38.709   6.662   9.100
  421POPC   GL2 9374  38.365   6.751   9.025
  421POPC   C1A 9375  38.700   6.595   8.680
  421POPC   D2A 9376  38.451   6.571   8.369
  421POPC   C3A 9377  38.674   6.614   8.016
  421POPC   C4A 9378  38.518   6.475   7.622
  421POPC   C1B 9379  38.301   6.993   8.645
  421POPC   C2B 9380  38.051   6.873   8.264
  421POPC   C3B 9381  38.177   6.737   7.879
  421POPC   C4B 9382  38.523   6.992   7.728
  422POPC   NC3 9383  42.223   6.824   9.530
  422POPC   PO4 9384  42.379   6.115   9.447
  422POPC   GL1 9385  42.184   6.425   9.191
  422POPC   GL2 9386  42.497   6.600   9.157
  422POPC   C1A 9387  42.123   6.768   8.867
  422POPC   D2A 9388  42.408   6.907   8.498
  422POPC   C3A 9389  42.285   6.835   8.035
  422POPC   C4A 9390  42.051   6.967   7.636
  422POPC   C1B 9391  42.419   6.368   8.750
  422POPC   C2B 9392  42.546   6.420   8.328
  422POPC   C3B 9393  42.504   6.390   7.886
  422POPC   C4B 9394  42.255   6.516   7.533
  423POPC   NC3 9395  16.665  11.693   9.445
  423POPC   PO4 9396  16.839  11.002   9.498
  423POPC   GL1 9397  16.746  11.271   9.146
  423POPC   GL2 9398  17.037  11.511   9.121
  423POPC   C1A 9399  16.561  11.173   8.727
  423POPC   D2A 9400  16.727  11.091   8.327
  423POPC   C3A 9401  16.441  11.131   7.985
  423POPC   C4A 9402  16.440  10.979   7.529
  423POPC   C1B 9403  16.845  11.616   8.701
  423POPC   C2B 9404  16.545  11.583   8.337
  423POPC   C3B 9405  16.745  11.543   7.918
  423POPC   C4B 9406  17.015  11.596   7.517
  424POPC   NC3 9407   6.379  37.206   9.529
  424POPC   PO4 9408   6.568  36.627   9.769
  424POPC   GL1 9409   6.645  36.682   9.335
  424POPC   GL2 9410   6.927  36.459   9.204
  424POPC   C1A 9411   6.589  36.787   8.908
  424POPC   D2A 9412   6.870  37.004   8.607
  424POPC   C3A 9413   6.731  36.974   8.191
  424POPC   C4A 9414   6.336  37.156   7.933
  424POPC   C1B 9415   6.975  36.493   8.739
  424POPC   C2B 9416   6.850  36.399   8.300
  424POPC   C3B 9417   6.976  36.548   7.906
  424POPC   C4B 9418   6.784  36.902   7.692
  425POPC   NC3 9419   4.579  33.538   9.503
  425POPC   PO4 9420   4.954  34.094   9.534
  425POPC   GL1 9421   4.982  33.745   9.197
  425POPC   GL2 9422   5.294  33.511   9.100
  425POPC   C1A 9423   4.878  33.674   8.776
  425POPC   D2A 9424   5.041  33.930   8.438
  425POPC   C3A 9425   4.949  33.674   8.127
  425POPC   C4A 9426   5.106  33.702   7.757
  425POPC   C1B 9427   5.369  33.794   8.787
  425POPC   C2B 9428   5.303  33.492   8.469
  425POPC   C3B 9429   5.382  33.408   8.058
  425POPC   C4B 9430   5.605  33.552   7.742
  426POPC   NC3 9431  43.520  43.220   9.561
  426POPC   PO4 9432  43.105  42.705   9.418
  426POPC   GL1 9433  43.020  43.054   9.155
  426POPC   GL2 9434  43.353  43.207   9.088
  426POPC   C1A 9435  42.893  43.045   8.728
  426POPC   D2A 9436  42.743  42.786   8.374
  426POPC   C3A 9437  42.890  43.018   8.027
  426POPC   C4A 9438  42.930  43.380   7.751
  426POPC   C1B 9439  43.382  42.847   8.815
  426POPC   C2B 9440  43.277  42.924   8.406
  426POPC   C3B 9441  43.460  42.953   8.056
  426POPC   C4B 9442  43.317  43.064   7.691
  427POPC   NC3 9443  37.729  24.069   9.750
  427POPC   PO4 9444  38.128  23.641   9.415
  427POPC   GL1 9445  37.742  23.707   9.147
  427POPC   GL2 9446  37.482  23.484   9.142
  427POPC   C1A 9447  37.535  23.753   8.703
  427POPC   D2A 9448  37.719  23.611   8.316
  427POPC   C3A 9449  37.651  23.759   7.892
  427POPC   C4A 9450  37.582  23.786   7.400
  427POPC   C1B 9451  37.787  23.312   8.799
  427POPC   C2B 9452  37.905  23.135   8.374
  427POPC   C3B 9453  37.668  23.204   7.992
  427POPC   C4B 9454  37.780  23.332   7.574
  428POPC   NC3 9455  39.535  28.641   9.349
  428POPC   PO4 9456  39.059  28.284   9.561
  428POPC   GL1 9457  39.175  28.229   9.141
  428POPC   GL2 9458  39.114  28.557   9.007
  428POPC   C1A 9459  39.267  28.164   8.709
  428POPC   D2A 9460  39.169  28.429   8.358
  428POPC   C3A 9461  39.233  28.269   7.949
  428POPC   C4A 9462  39.041  28.039   7.637
  428POPC   C1B 9463  39.494  28.628   8.718
  428POPC   C2B 9464  39.636  28.666   8.314
  428POPC   C3B 9465  39.334  28.821   8.039
  428POPC   C4B 9466  39.311  28.680   7.656
  429POPC   NC3 9467  13.681   4.166   9.602
  429POPC   PO4 9468  14.085   4.516   9.471
  429POPC   GL1 9469  13.779   4.372   9.120
  429POPC   GL2 9470  13.595   4.034   9.108
  429POPC   C1A 9471  13.566   4.432   8.711
  429POPC   D2A 9472  13.321   4.244   8.355
  429POPC   C3A 9473  13.479   4.103   7.919
  429POPC   C4A 9474  13.665   4.304   7.533
  429POPC   C1B 9475  13.839   4.014   8.704
  429POPC   C2B 9476  13.839   4.242   8.290
  429POPC   C3B 9477  14.020   4.148   7.872
  429POPC   C4B 9478  14.145   4.118   7.403
  430POPC   NC3 9479   9.835  37.208   9.554
  430POPC   PO4 9480  10.062  37.871   9.455
  430POPC   GL1 9481   9.864  37.593   9.147
  430POPC   GL2 9482   9.559  37.385   9.166
  430POPC   C1A 9483   9.611  37.652   8.750
  430POPC   D2A 9484   9.520  37.880   8.391
  430POPC   C3A 9485   9.538  37.685   7.964
  430POPC   C4A 9486   9.722  37.926   7.618
  430POPC   C1B 9487   9.869  37.197   8.834
  430POPC   C2B 9488   9.724  37.258   8.406
  430POPC   C3B 9489   9.859  37.273   7.974
  430POPC   C4B 9490   9.764  37.404   7.539
  431POPC   NC3 9491  24.271  17.181   9.371
  431POPC   PO4 9492  24.719  17.669   9.449
  431POPC   GL1 9493  24.625  17.459   9.073
  431POPC   GL2 9494  24.294  17.591   9.064
  431POPC   C1A 9495  24.622  17.637   8.635
  431POPC   D2A 9496  24.704  17.926   8.273
  431POPC   C3A 9497  24.627  17.711   7.891
  431POPC   C4A 9498  24.223  17.569   7.808
  431POPC   C1B 9499  24.266  17.262   8.719
  431POPC   C2B 9500  24.230  17.207   8.266
  431POPC   C3B 9501  23.878  17.233   7.961
  431POPC   C4B 9502  23.911  17.289   7.523
  432POPC   NC3 9503  34.901  30.760   9.431
  432POPC   PO4 9504  34.317  30.299   9.483
  432POPC   GL1 9505  34.466  30.345   9.062
  432POPC   GL2 9506  34.632  30.714   8.994
  432POPC   C1A 9507  34.367  30.427   8.677
  432POPC   D2A 9508  34.484  30.793   8.418
  432POPC   C3A 9509  34.535  30.795   7.960
  432POPC   C4A 9510  34.762  31.029   7.638
  432POPC   C1B 9511  34.894  30.570   8.627
  432POPC   C2B 9512  34.931  30.557   8.167
  432POPC   C3B 9513  34.993  30.453   7.734
  432POPC   C4B 9514  34.984  30.658   7.340
  433POPC   NC3 9515  29.048  36.662   9.386
  433POPC   PO4 9516  29.186  37.274   9.590
  433POPC   GL1 9517  29.337  37.067   9.179
  433POPC   GL2 9518  29.033  37.068   9.068
  433POPC   C1A 9519  29.313  36.753   8.779
  433POPC   D2A 9520  29.173  36.489   8.467
  433POPC   C3A 9521  29.221  36.727   8.087
  433POPC   C4A 9522  29.088  36.795   7.685
  433POPC   C1B 9523  29.215  37.235   8.678
  433POPC   C2B 9524  29.108  37.231   8.240
  433POPC   C3B 9525  29.137  37.365   7.808
  433POPC   C4B 9526  28.870  37.224   7.481
  434POPC   NC3 9527   4.855  18.379   9.463
  434POPC   PO4 9528   5.585  18.201   9.483
  434POPC   GL1 9529   5.287  18.166   9.144
  434POPC   GL2 9530   4.926  18.065   9.097
  434POPC   C1A 9531   5.189  18.272   8.717
  434POPC   D2A 9532   5.349  18.541   8.419
  434POPC   C3A 9533   5.209  18.297   8.105
  434POPC   C4A 9534   5.211  18.368   7.675
  434POPC   C1B 9535   4.631  18.038   8.747
  434POPC   C2B 9536   4.712  17.987   8.330
  434POPC   C3B 9537   4.558  17.922   7.919
  434POPC   C4B 9538   4.878  17.980   7.607
  435POPC   NC3 9539   0.077   4.705   9.609
  435POPC   PO4 9540   0.459   4.161   9.347
  435POPC   GL1 9541   0.422   4.546   9.150
  435POPC   GL2 9542   0.100   4.487   9.141
  435POPC   C1A 9543   0.552   4.531   8.707
  435POPC   D2A 9544   0.710   4.599   8.279
  435POPC   C3A 9545   0.665   4.228   8.004
  435POPC   C4A 9546   0.795   4.208   7.597
  435POPC   C1B 9547   0.033   4.353   8.696
  435POPC   C2B 9548   0.226   4.233   8.279
  435POPC   C3B 9549   0.194   4.297   7.807
  435POPC   C4B 9550   0.147   4.650   7.457
  436POPC   NC3 9551  15.527  31.858   9.295
  436POPC   PO4 9552  16.111  31.827   9.396
  436POPC   GL1 9553  15.868  31.549   9.071
  436POPC   GL2 9554  15.972  31.176   9.058
  436POPC   C1A 9555  16.004  31.535   8.641
  436POPC   D2A 9556  16.125  31.789   8.246
  436POPC   C3A 9557  16.038  31.591   7.852
  436POPC   C4A 9558  16.061  31.722   7.432
  436POPC   C1B 9559  15.810  31.049   8.666
  436POPC   C2B 9560  15.787  31.263   8.267
  436POPC   C3B 9561  15.569  31.579   8.052
  436POPC   C4B 9562  15.603  31.480   7.604
  437POPC   NC3 9563  29.748  28.574   9.297
  437POPC   PO4 9564  29.225  28.339   9.698
  437POPC   GL1 9565  29.240  28.349   9.251
  437POPC   GL2 9566  29.256  28.715   9.173
  437POPC   C1A 9567  29.006  28.348   8.852
  437POPC   D2A 9568  28.950  28.337   8.415
  437POPC   C3A 9569  29.179  28.068   8.136
  437POPC   C4A 9570  29.040  28.090   7.719
  437POPC   C1B 9571  29.399  28.675   8.743
  437POPC   C2B 9572  29.252  28.762   8.353
  437POPC   C3B 9573  29.173  28.544   7.985
  437POPC   C4B 9574  29.490  28.296   7.764
  438POPC   NC3 9575  37.169  25.682   9.520
  438POPC   PO4 9576  36.767  25.102   9.503
  438POPC   GL1 9577  36.960  25.340   9.191
  438POPC   GL2 9578  37.288  25.276   9.167
  438POPC   C1A 9579  36.861  25.413   8.774
  438POPC   D2A 9580  36.921  25.234   8.363
  438POPC   C3A 9581  36.795  25.509   8.048
  438POPC   C4A 9582  36.650  25.324   7.656
  438POPC   C1B 9583  37.258  25.093   8.727
  438POPC   C2B 9584  37.422  25.107   8.273
  438POPC   C3B 9585  37.132  25.130   7.915
  438POPC   C4B 9586  36.873  24.816   7.786
  439POPC   NC3 9587  32.783  43.912   9.524
  439POPC   PO4 9588  33.450  43.708   9.425
  439POPC   GL1 9589  33.219  43.919   9.056
  439POPC   GL2 9590  32.912  43.755   9.041
  439POPC   C1A 9591  33.064  43.870   8.579
  439POPC   D2A 9592  33.156  43.536   8.248
  439POPC   C3A 9593  33.307  43.734   7.865
  439POPC   C4A 9594  33.063  44.053   7.663
  439POPC   C1B 9595  32.660  43.508   8.729
  439POPC   C2B 9596  32.570  43.697   8.366
  439POPC   C3B 9597  32.807  43.884   8.075
  439POPC   C4B 9598  32.838  43.611   7.744
  440POPC   NC3 9599  40.541  21.258   9.527
  440POPC   PO4 9600  41.054  21.566   9.768
  440POPC   GL1 9601  40.935  21.451   9.305
  440POPC   GL2 9602  40.758  21.769   9.241
  440POPC   C1A 9603  40.690  21.386   8.889
  440POPC   D2A 9604  40.707  21.624   8.469
  440POPC   C3A 9605  40.575  21.448   8.057
  440POPC   C4A 9606  40.579  21.197   7.662
  440POPC   C1B 9607  41.012  21.790   8.871
  440POPC   C2B 9608  41.103  21.948   8.421
  440POPC   C3B 9609  41.168  21.780   7.998
  440POPC   C4B 9610  40.933  21.579   7.677
  441POPC   NC3 9611  16.992   2.318   9.828
  441POPC   PO4 9612  16.506   2.227   9.392
  441POPC   GL1 9613  16.498   1.911   9.115
  441POPC   GL2 9614  16.858   1.849   9.043
  441POPC   C1A 9615  16.438   1.760   8.712
  441POPC   D2A 9616  16.722   1.864   8.403
  441POPC   C3A 9617  16.554   1.897   8.001
  441POPC   C4A 9618  16.406   1.965   7.582
  441POPC   C1B 9619  17.040   2.121   8.714
  441POPC   C2B 9620  17.181   2.271   8.336
  441POPC   C3B 9621  17.062   1.990   8.023
  441POPC   C4B 9622  16.909   1.798   7.648
  442POPC   NC3 9623   1.673  18.125   9.426
  442POPC   PO4 9624   2.078  18.590   9.444
  442POPC   GL1 9625   2.023  18.351   9.072
  442POPC   GL2 9626   2.112  17.978   9.176
  442POPC   C1A 9627   2.191  18.502   8.658
  442POPC   D2A 9628   2.239  18.637   8.193
  442POPC   C3A 9629   1.980  18.481   7.824
  442POPC   C4A 9630   1.976  18.340   7.380
  442POPC   C1B 9631   1.817  17.956   8.825
  442POPC   C2B 9632   1.728  18.195   8.494
  442POPC   C3B 9633   1.716  18.084   8.083
  442POPC   C4B 9634   1.954  17.972   7.752
  443POPC   NC3 9635  44.833  21.821   9.557
  443POPC   PO4 9636  44.701  21.189   9.559
  443POPC   GL1 9637  44.425  21.306   9.246
  443POPC   GL2 9638  44.594  21.596   9.152
  443POPC   C1A 9639  44.368  21.243   8.799
  443POPC   D2A 9640  44.542  21.451   8.416
  443POPC   C3A 9641  44.428  21.218   7.994
  443POPC   C4A 9642  44.606  21.086   7.535
  443POPC   C1B 9643  44.586  21.890   8.814
  443POPC   C2B 9644  44.875  21.983   8.477
  443POPC   C3B 9645  44.756  21.795   8.092
  443POPC   C4B 9646  44.729  21.537   7.727
  444POPC   NC3 9647   2.165  26.628   9.752
  444POPC   PO4 9648   1.612  26.470   9.431
  444POPC   GL1 9649   1.717  26.789   9.130
  444POPC   GL2 9650   2.017  26.997   9.221
  444POPC   C1A 9651   1.938  26.664   8.743
  444POPC   D2A 9652   1.923  26.350   8.413
  444POPC   C3A 9653   2.102  26.510   8.045
  444POPC   C4A 9654   2.066  26.528   7.612
  444POPC   C1B 9655   1.906  27.172   8.783
  444POPC   C2B 9656   1.920  26.973   8.334
  444POPC   C3B 9657   1.838  26.921   7.874
  444POPC   C4B 9658   2.221  27.017   7.608
  445POPC   NC3 9659  22.682  28.751   9.931
  445POPC   PO4 9660  22.866  28.130   9.661
  445POPC   GL1 9661  23.019  28.382   9.319
  445POPC   GL2 9662  22.745  28.326   9.149
  445POPC   C1A 9663  23.180  28.391   8.876
  445POPC   D2A 9664  23.160  28.192   8.472
  445POPC   C3A 9665  23.066  28.423   8.092
  445POPC   C4A 9666  23.176  28.242   7.702
  445POPC   C1B 9667  22.778  28.058   8.801
  445POPC   C2B 9668  22.645  28.199   8.403
  445POPC   C3B 9669  22.500  28.276   7.998
  445POPC   C4B 9670  22.705  28.597   7.747
  446POPC   NC3 9671   0.714  11.853   9.383
  446POPC   PO4 9672   0.271  12.341   9.403
  446POPC   GL1 9673   0.406  12.307   9.013
  446POPC   GL2 9674   0.741  12.236   9.024
  446POPC   C1A 9675   0.306  12.313   8.570
  446POPC   D2A 9676   0.265  12.017   8.234
  446POPC   C3A 9677   0.367  12.159   7.824
  446POPC   C4A 9678   0.121  12.407   7.572
  446POPC   C1B 9679   0.572  11.894   8.728
  446POPC   C2B 9680   0.766  11.760   8.341
  446POPC   C3B 9681   0.585  11.726   7.957
  446POPC   C4B 9682   0.695  11.867   7.516
  447POPC   NC3 9683  26.486  40.937   9.432
  447POPC   PO4 9684  25.919  40.678   9.570
  447POPC   GL1 9685  26.086  40.553   9.191
  447POPC   GL2 9686  25.811  40.797   9.080
  447POPC   C1A 9687  26.223  40.655   8.783
  447POPC   D2A 9688  26.102  40.838   8.381
  447POPC   C3A 9689  26.077  40.612   7.975
  447POPC   C4A 9690  26.264  40.890   7.672
  447POPC   C1B 9691  25.679  40.447   8.874
  447POPC   C2B 9692  25.760  40.459   8.482
  447POPC   C3B 9693  25.644  40.722   8.188
  447POPC   C4B 9694  25.549  40.575   7.797
  448POPC   NC3 9695   8.857  35.682   9.650
  448POPC   PO4 9696   9.378  35.395   9.380
  448POPC   GL1 9697   8.982  35.417   9.217
  448POPC   GL2 9698   8.820  35.123   9.128
  448POPC   C1A 9699   8.750  35.630   8.937
  448POPC   D2A 9700   8.775  35.718   8.518
  448POPC   C3A 9701   8.909  35.416   8.202
  448POPC   C4A 9702   9.015  35.594   7.771
  448POPC   C1B 9703   8.834  35.169   8.698
  448POPC   C2B 9704   9.079  34.938   8.396
  448POPC   C3B 9705   8.895  34.911   8.001
  448POPC   C4B 9706   8.613  35.089   7.700
  449POPC   NC3 9707  25.730   7.312   9.420
  449POPC   PO4 9708  25.072   7.588   9.487
  449POPC   GL1 9709  25.310   7.434   9.155
  449POPC   GL2 9710  25.116   7.148   9.128
  449POPC   C1A 9711  25.524   7.229   8.793
  449POPC   D2A 9712  25.437   7.345   8.369
  449POPC   C3A 9713  25.495   7.197   7.985
  449POPC   C4A 9714  25.361   7.410   7.589
  449POPC   C1B 9715  25.011   7.365   8.747
  449POPC   C2B 9716  24.903   7.242   8.348
  449POPC   C3B 9717  25.000   7.368   7.938
  449POPC   C4B 9718  24.883   7.081   7.596
  450POPC   NC3 9719  10.408  29.931   9.445
  450POPC   PO4 9720  10.998  30.007   9.697
  450POPC   GL1 9721  10.838  29.794   9.230
  450POPC   GL2 9722  10.706  29.455   9.181
  450POPC   C1A 9723  10.461  29.816   8.843
  450POPC   D2A 9724  10.180  29.982   8.501
  450POPC   C3A 9725  10.327  30.092   8.080
  450POPC   C4A 9726  10.267  29.873   7.719
  450POPC   C1B 9727  10.857  29.522   8.768
  450POPC   C2B 9728  10.664  29.779   8.379
  450POPC   C3B 9729  10.645  29.630   7.949
  450POPC   C4B 9730  10.398  29.394   7.657
  451POPC   NC3 9731  32.809  26.308   9.604
  451POPC   PO4 9732  33.472  25.992   9.564
  451POPC   GL1 9733  33.273  25.857   9.198
  451POPC   GL2 9734  32.911  25.904   9.192
  451POPC   C1A 9735  33.262  25.949   8.766
  451POPC   D2A 9736  33.094  25.924   8.368
  451POPC   C3A 9737  33.045  26.270   8.109
  451POPC   C4A 9738  33.184  26.171   7.706
  451POPC   C1B 9739  32.744  25.913   8.749
  451POPC   C2B 9740  32.602  25.845   8.285
  451POPC   C3B 9741  32.785  25.867   7.829
  451POPC   C4B 9742  32.572  25.676   7.407
  452POPC   NC3 9743   1.613  37.230   9.640
  452POPC   PO4 9744   1.215  36.727   9.649
  452POPC   GL1 9745   1.402  36.923   9.274
  452POPC   GL2 9746   1.316  37.305   9.239
  452POPC   C1A 9747   1.391  36.827   8.835
  452POPC   D2A 9748   1.114  36.703   8.474
  452POPC   C3A 9749   1.160  36.908   8.060
  452POPC   C4A 9750   0.966  36.847   7.652
  452POPC   C1B 9751   1.685  37.281   8.972
  452POPC   C2B 9752   1.671  37.326   8.530
  452POPC   C3B 9753   1.675  37.264   8.078
  452POPC   C4B 9754   1.345  37.292   7.757
  453POPC   NC3 9755  41.406  11.675   9.346
  453POPC   PO4 9756  41.292  11.098   9.539
  453POPC   GL1 9757  41.431  11.134   9.133
  453POPC   GL2 9758  41.132  10.896   9.075
  453POPC   C1A 9759  41.616  11.422   8.754
  453POPC   D2A 9760  41.590  11.658   8.328
  453POPC   C3A 9761  41.589  11.454   7.866
  453POPC   C4A 9762  41.676  11.455   7.377
  453POPC   C1B 9763  41.203  11.126   8.693
  453POPC   C2B 9764  41.285  11.151   8.232
  453POPC   C3B 9765  41.191  11.040   7.789
  453POPC   C4B 9766  41.174  11.269   7.382
  454POPC   NC3 9767  27.387  41.080   9.391
  454POPC   PO4 9768  27.876  40.582   9.446
  454POPC   GL1 9769  27.736  40.530   9.073
  454POPC   GL2 9770  27.395  40.634   9.121
  454POPC   C1A 9771  27.647  40.696   8.681
  454POPC   D2A 9772  27.745  40.915   8.373
  454POPC   C3A 9773  27.581  40.745   8.026
  454POPC   C4A 9774  27.802  40.596   7.714
  454POPC   C1B 9775  27.210  40.918   8.796
  454POPC   C2B 9776  27.202  40.763   8.404
  454POPC   C3B 9777  27.075  40.725   8.011
  454POPC   C4B 9778  27.116  41.128   7.800
  455POPC   NC3 9779  16.617  24.937   9.436
  455POPC   PO4 9780  16.670  25.581   9.428
  455POPC   GL1 9781  16.450  25.386   9.053
  455POPC   GL2 9782  16.383  25.043   8.988
  455POPC   C1A 9783  16.401  25.358   8.596
  455POPC   D2A 9784  16.415  25.515   8.164
  455POPC   C3A 9785  16.711  25.272   7.961
  455POPC   C4A 9786  16.585  24.989   7.667
  455POPC   C1B 9787  16.825  25.092   8.755
  455POPC   C2B 9788  17.176  25.012   8.414
  455POPC   C3B 9789  17.265  24.890   7.958
  455POPC   C4B 9790  17.078  24.933   7.546
  456POPC   NC3 9791   3.357  21.803   9.525
  456POPC   PO4 9792   3.811  22.242   9.573
  456POPC   GL1 9793   3.604  22.173   9.195
  456POPC   GL2 9794   3.751  21.881   9.161
  456POPC   C1A 9795   3.377  22.135   8.792
  456POPC   D2A 9796   3.342  21.952   8.398
  456POPC   C3A 9797   3.299  22.263   8.097
  456POPC   C4A 9798   3.313  22.137   7.658
  456POPC   C1B 9799   3.874  22.078   8.759
  456POPC   C2B 9800   3.734  22.320   8.402
  456POPC   C3B 9801   3.774  22.118   7.992
  456POPC   C4B 9802   3.767  21.967   7.581
  457POPC   NC3 9803  10.018  10.626   9.449
  457POPC   PO4 9804   9.639  10.193   9.617
  457POPC   GL1 9805   9.802  10.230   9.188
  457POPC   GL2 9806   9.628  10.541   9.131
  457POPC   C1A 9807  10.018  10.384   8.801
  457POPC   D2A 9808   9.919  10.835   8.596
  457POPC   C3A 9809   9.917  10.902   8.109
  457POPC   C4A 9810   9.958  10.750   7.691
  457POPC   C1B 9811   9.538  10.467   8.714
  457POPC   C2B 9812   9.688  10.491   8.309
  457POPC   C3B 9813   9.523  10.541   7.910
  457POPC   C4B 9814   9.554  10.178   7.695
  458POPC   NC3 9815  34.854  13.255   9.266
  458POPC   PO4 9816  34.467  13.783   9.459
  458POPC   GL1 9817  34.419  13.517   9.112
  458POPC   GL2 9818  34.202  13.188   9.129
  458POPC   C1A 9819  34.361  13.751   8.763
  458POPC   D2A 9820  34.139  13.821   8.427
  458POPC   C3A 9821  34.436  13.840   8.146
  458POPC   C4A 9822  34.643  13.843   7.781
  458POPC   C1B 9823  34.422  13.197   8.724
  458POPC   C2B 9824  34.696  13.465   8.493
  458POPC   C3B 9825  34.789  13.452   8.089
  458POPC   C4B 9826  34.473  13.261   7.805
  459POPC   NC3 9827  30.129  32.952   9.475
  459POPC   PO4 9828  30.552  33.510   9.282
  459POPC   GL1 9829  30.083  33.340   9.130
  459POPC   GL2 9830  29.782  33.027   9.122
  459POPC   C1A 9831  29.987  33.199   8.700
  459POPC   D2A 9832  29.753  33.230   8.342
  459POPC   C3A 9833  29.953  33.176   7.964
  459POPC   C4A 9834  29.617  33.336   7.716
  459POPC   C1B 9835  29.827  32.698   8.799
  459POPC   C2B 9836  29.966  32.714   8.411
  459POPC   C3B 9837  29.700  32.758   8.120
  459POPC   C4B 9838  29.719  32.750   7.732
  460POPC   NC3 9839   9.589  16.660   9.348
  460POPC   PO4 9840  10.028  17.080   9.360
  460POPC   GL1 9841   9.984  16.821   9.014
  460POPC   GL2 9842  10.010  16.469   9.098
  460POPC   C1A 9843   9.685  16.803   8.653
  460POPC   D2A 9844   9.741  17.028   8.254
  460POPC   C3A 9845   9.537  16.931   7.856
  460POPC   C4A 9846   9.731  17.016   7.427
  460POPC   C1B 9847   9.788  16.289   8.753
  460POPC   C2B 9848   9.531  16.354   8.395
  460POPC   C3B 9849   9.486  16.427   7.959
  460POPC   C4B 9850   9.778  16.538   7.605
  461POPC   NC3 9851   9.272  42.382   9.428
  461POPC   PO4 9852   8.803  42.935   9.443
  461POPC   GL1 9853   8.965  42.666   9.127
  461POPC   GL2 9854   8.652  42.471   9.122
  461POPC   C1A 9855   9.310  42.552   8.791
  461POPC   D2A 9856   9.349  42.716   8.350
  461POPC   C3A 9857   9.077  42.614   7.998
  461POPC   C4A 9858   9.043  42.499   7.549
  461POPC   C1B 9859   8.846  42.359   8.718
  461POPC   C2B 9860   9.069  42.215   8.318
  461POPC   C3B 9861   9.026  42.097   7.854
  461POPC   C4B 9862   8.950  42.022   7.371
  462POPC   NC3 9863  23.969   2.764   9.588
  462POPC   PO4 9864  23.382   3.174   9.561
  462POPC   GL1 9865  23.510   2.887   9.216
  462POPC   GL2 9866  23.851   2.803   9.120
  462POPC   C1A 9867  23.491   2.868   8.773
  462POPC   D2A 9868  23.403   2.942   8.357
  462POPC   C3A 9869  23.667   2.737   8.059
  462POPC   C4A 9870  23.717   2.895   7.659
  462POPC   C1B 9871  24.073   2.980   8.820
  462POPC   C2B 9872  23.915   3.017   8.424
  462POPC   C3B 9873  24.052   3.134   8.022
  462POPC   C4B 9874  24.221   2.907   7.670
  463POPC   NC3 9875  38.718  28.068   9.331
  463POPC   PO4 9876  38.179  28.297   9.428
  463POPC   GL1 9877  38.279  28.211   9.022
  463POPC   GL2 9878  38.629  28.357   8.945
  463POPC   C1A 9879  38.291  28.319   8.590
  463POPC   D2A 9880  38.660  28.330   8.348
  463POPC   C3A 9881  38.604  28.178   7.943
  463POPC   C4A 9882  38.211  28.292   7.775
  463POPC   C1B 9883  38.714  28.698   8.698
  463POPC   C2B 9884  38.837  28.826   8.331
  463POPC   C3B 9885  38.859  28.632   7.951
  463POPC   C4B 9886  38.838  28.630   7.520
  464POPC   NC3 9887  31.075  37.853   9.288
  464POPC   PO4 9888  31.542  37.543   9.478
  464POPC   GL1 9889  31.465  37.574   9.076
  464POPC   GL2 9890  31.193  37.403   9.018
  464POPC   C1A 9891  31.423  37.823   8.686
  464POPC   D2A 9892  31.594  37.894   8.271
  464POPC   C3A 9893  31.249  37.980   8.009
  464POPC   C4A 9894  31.271  37.913   7.573
  464POPC   C1B 9895  31.405  37.315   8.630
  464POPC   C2B 9896  31.404  37.428   8.203
  464POPC   C3B 9897  31.537  37.553   7.811
  464POPC   C4B 9898  31.313  37.418   7.436
  465POPC   NC3 9899   9.752  15.698   9.564
  465POPC   PO4 9900   9.487  16.255   9.517
  465POPC   GL1 9901   9.607  16.024   9.171
  465POPC   GL2 9902   9.936  15.907   9.123
  465POPC   C1A 9903   9.543  15.789   8.812
  465POPC   D2A 9904   9.533  15.593   8.420
  465POPC   C3A 9905   9.472  15.871   8.058
  465POPC   C4A 9906   9.632  15.718   7.675
  465POPC   C1B 9907  10.030  15.841   8.681
  465POPC   C2B 9908   9.922  16.013   8.296
  465POPC   C3B 9909   9.888  16.127   7.871
  465POPC   C4B 9910   9.988  16.060   7.418
  466POPC   NC3 9911  10.216  33.789   9.449
  466POPC   PO4 9912  10.705  33.422   9.569
  466POPC   GL1 9913  10.634  33.777   9.176
  466POPC   GL2 9914  10.325  33.717   8.972
  466POPC   C1A 9915  10.642  34.026   8.770
  466POPC   D2A 9916  10.315  33.916   8.434
  466POPC   C3A 9917  10.442  33.850   7.990
  466POPC   C4A 9918  10.455  33.768   7.513
  466POPC   C1B 9919  10.172  33.468   8.686
  466POPC   C2B 9920  10.238  33.296   8.272
  466POPC   C3B 9921  10.320  33.360   7.823
  466POPC   C4B 9922  10.038  33.457   7.465
  467POPC   NC3 9923  19.516  44.529   9.380
  467POPC   PO4 9924  20.008  44.910   9.308
  467POPC   GL1 9925  19.902  44.602   9.046
  467POPC   GL2 9926  19.981  44.286   9.211
  467POPC   C1A 9927  19.710  44.618   8.661
  467POPC   D2A 9928  19.444  44.834   8.389
  467POPC   C3A 9929  19.595  44.938   7.982
  467POPC   C4A 9930  19.663  44.668   7.666
  467POPC   C1B 9931  20.088  44.240   8.746
  467POPC   C2B 9932  20.172  44.557   8.441
  467POPC   C3B 9933  20.068  44.690   8.017
  467POPC   C4B 9934  20.100  44.906   7.612
  468POPC   NC3 9935  35.256   8.554   9.485
  468POPC   PO4 9936  35.681   7.995   9.498
  468POPC   GL1 9937  35.422   8.165   9.183
  468POPC   GL2 9938  35.696   8.132   8.991
  468POPC   C1A 9939  35.300   8.423   8.790
  468POPC   D2A 9940  35.217   8.321   8.344
  468POPC   C3A 9941  35.274   8.564   7.966
  468POPC   C4A 9942  35.187   8.454   7.529
  468POPC   C1B 9943  35.668   8.145   8.549
  468POPC   C2B 9944  35.666   8.204   8.119
  468POPC   C3B 9945  35.402   8.075   7.805
  468POPC   C4B 9946  35.421   8.015   7.362
  469POPC   NC3 9947  25.764  37.598   9.479
  469POPC   PO4 9948  26.485  37.650   9.579
  469POPC   GL1 9949  26.202  37.741   9.240
  469POPC   GL2 9950  26.075  37.416   9.120
  469POPC   C1A 9951  26.192  37.763   8.792
  469POPC   D2A 9952  26.011  37.571   8.454
  469POPC   C3A 9953  26.096  37.536   8.023
  469POPC   C4A 9954  26.182  37.829   7.724
  469POPC   C1B 9955  25.760  37.259   8.804
  469POPC   C2B 9956  25.604  37.260   8.365
  469POPC   C3B 9957  25.612  37.308   7.921
  469POPC   C4B 9958  25.879  37.463   7.557
  470POPC   NC3 9959  19.016  44.119   9.552
  470POPC   PO4 9960  18.518  43.799   9.842
  470POPC   GL1 9961  18.941  43.694   9.333
  470POPC   GL2 9962  19.001  43.992   9.078
  470POPC   C1A 9963  19.114  43.564   8.884
  470POPC   D2A 9964  19.112  43.885   8.513
  470POPC   C3A 9965  19.336  43.923   8.090
  470POPC   C4A 9966  19.092  43.840   7.703
  470POPC   C1B 9967  18.783  44.204   8.797
  470POPC   C2B 9968  18.736  44.304   8.422
  470POPC   C3B 9969  18.878  44.190   8.027
  470POPC   C4B 9970  18.749  44.378   7.667
  471POPC   NC3 9971   2.861  24.182   9.560
  471POPC   PO4 9972   2.304  24.647   9.458
  471POPC   GL1 9973   2.412  24.368   9.143
  471POPC   GL2 9974   2.757  24.371   9.094
  471POPC   C1A 9975   2.481  24.277   8.687
  471POPC   D2A 9976   2.738  24.274   8.311
  471POPC   C3A 9977   2.581  24.401   7.932
  471POPC   C4A 9978   2.292  24.168   7.725
  471POPC   C1B 9979   3.010  24.376   8.724
  471POPC   C2B 9980   3.239  24.319   8.339
  471POPC   C3B 9981   3.090  24.407   7.918
  471POPC   C4B 9982   2.877  24.462   7.504
  472POPC   NC3 9983  36.520  24.314   9.479
  472POPC   PO4 9984  35.975  24.684   9.496
  472POPC   GL1 9985  36.006  24.472   9.113
  472POPC   GL2 9986  36.352  24.345   9.004
  472POPC   C1A 9987  36.027  24.651   8.706
  472POPC   D2A 9988  36.329  24.724   8.411
  472POPC   C3A 9989  36.133  24.716   8.010
  472POPC   C4A 9990  36.411  24.687   7.668
  472POPC   C1B 9991  36.052  24.147   8.719
  472POPC   C2B 9992  36.073  24.271   8.301
  472POPC   C3B 9993  36.232  24.241   7.889
  472POPC   C4B 9994  35.912  24.260   7.606
  473POPC   NC3 9995  34.965  40.707   9.393
  473POPC   PO4 9996  35.676  40.899   9.459
  473POPC   GL1 9997  35.379  40.951   9.170
  473POPC   GL2 9998  35.373  40.597   9.121
  473POPC   C1A 9999  35.452  40.948   8.747
  473POPC   D2A10000  35.678  40.709   8.463
  473POPC   C3A10001  35.541  40.841   8.050
  473POPC   C4A10002  35.213  41.001   7.733
  473POPC   C1B10003  35.122  40.532   8.783
  473POPC   C2B10004  35.217  40.529   8.378
  473POPC   C3B10005  35.004  40.572   7.986
  473POPC   C4B10006  35.094  40.483   7.586
  474POPC   NC310007  26.466  37.214   9.382
  474POPC   PO410008  25.791  37.043   9.493
  474POPC   GL110009  26.022  36.910   9.114
  474POPC   GL210010  26.286  36.688   9.104
  474POPC   C1A10011  25.947  36.774   8.696
  474POPC   D2A10012  25.799  36.471   8.391
  474POPC   C3A10013  25.803  36.748   8.037
  474POPC   C4A10014  25.948  36.990   7.701
  474POPC   C1B10015  26.427  36.662   8.676
  474POPC   C2B10016  26.302  36.611   8.245
  474POPC   C3B10017  26.275  36.592   7.781
  474POPC   C4B10018  26.287  36.820   7.343
  475POPC   NC310019   7.835  39.456   9.265
  475POPC   PO410020   7.561  40.010   9.425
  475POPC   GL110021   7.462  40.126   9.018
  475POPC   GL210022   7.803  40.181   9.001
  475POPC   C1A10023   7.313  40.027   8.589
  475POPC   D2A10024   7.039  39.779   8.342
  475POPC   C3A10025   7.087  39.928   7.944
  475POPC   C4A10026   7.062  40.362   7.838
  475POPC   C1B10027   7.788  39.840   8.729
  475POPC   C2B10028   7.805  39.931   8.328
  475POPC   C3B10029   7.601  39.830   7.956
  475POPC   C4B10030   7.767  39.634   7.593
  476POPC   NC310031  29.955  42.543   9.865
  476POPC   PO410032  30.143  41.955   9.580
  476POPC   GL110033  30.087  42.338   9.293
  476POPC   GL210034  30.389  42.615   9.242
  476POPC   C1A10035  29.779  42.386   8.934
  476POPC   D2A10036  29.809  42.359   8.468
  476POPC   C3A10037  29.540  42.130   8.171
  476POPC   C4A10038  29.552  42.200   7.722
  476POPC   C1B10039  30.268  42.474   8.835
  476POPC   C2B10040  30.308  42.375   8.429
  476POPC   C3B10041  30.273  42.518   8.025
  476POPC   C4B10042  30.030  42.432   7.672
  477POPC   NC310043  38.935  24.872   9.452
  477POPC   PO410044  39.296  24.583   9.910
  477POPC   GL110045  39.298  24.569   9.288
  477POPC   GL210046  38.959  24.547   9.069
  477POPC   C1A10047  39.373  24.343   8.854
  477POPC   D2A10048  39.391  24.211   8.405
  477POPC   C3A10049  39.543  24.569   8.164
  477POPC   C4A10050  39.541  24.667   7.733
  477POPC   C1B10051  38.931  24.457   8.617
  477POPC   C2B10052  39.002  24.501   8.167
  477POPC   C3B10053  38.954  24.801   7.844
  477POPC   C4B10054  38.736  24.857   7.426
  478POPC   NC310055  34.559   1.375   9.459
  478POPC   PO410056  34.407   0.706   9.545
  478POPC   GL110057  34.244   1.040   9.170
  478POPC   GL210058  34.475   1.303   8.980
  478POPC   C1A10059  34.092   1.137   8.714
  478POPC   D2A10060  34.406   1.375   8.421
  478POPC   C3A10061  34.511   1.136   8.052
  478POPC   C4A10062  34.296   0.838   7.800
  478POPC   C1B10063  34.776   1.112   8.720
  478POPC   C2B10064  34.931   0.979   8.344
  478POPC   C3B10065  35.091   1.142   7.992
  478POPC   C4B10066  35.017   1.265   7.567
  479POPC   NC310067  14.979   9.714   9.623
  479POPC   PO410068  15.607   9.937   9.546
  479POPC   GL110069  15.316   9.840   9.183
  479POPC   GL210070  14.954   9.846   9.114
  479POPC   C1A10071  15.279   9.712   8.737
  479POPC   D2A10072  15.132   9.449   8.400
  479POPC   C3A10073  15.201   9.602   7.962
  479POPC   C4A10074  15.153   9.815   7.563
  479POPC   C1B10075  14.914  10.092   8.735
  479POPC   C2B10076  15.083   9.971   8.329
  479POPC   C3B10077  14.932  10.080   7.937
  479POPC   C4B10078  14.850  10.238   7.532
  480POPC   NC310079  37.595  40.447   9.472
  480POPC   PO410080  37.917  41.066   9.417
  480POPC   GL110081  37.830  41.091   9.011
  480POPC   GL210082  37.591  40.817   9.086
  480POPC   C1A10083  38.055  40.924   8.643
  480POPC   D2A10084  37.997  40.579   8.344
  480POPC   C3A10085  37.973  40.761   7.929
  480POPC   C4A10086  37.635  40.963   7.700
  480POPC   C1B10087  37.473  40.661   8.711
  480POPC   C2B10088  37.204  40.586   8.362
  480POPC   C3B10089  37.339  40.663   7.973
  480POPC   C4B10090  37.422  40.495   7.581
  481POPC   NC310091  28.032  41.639   9.721
  481POPC   PO410092  28.569  41.304   9.435
  481POPC   GL110093  28.278  41.310   9.132
  481POPC   GL210094  28.482  41.244   8.896
  481POPC   C1A10095  28.041  41.481   8.752
  481POPC   D2A10096  27.900  41.433   8.294
  481POPC   C3A10097  28.191  41.382   7.903
  481POPC   C4A10098  28.235  41.368   7.421
  481POPC   C1B10099  28.503  41.502   8.549
  481POPC   C2B10100  28.509  41.699   8.153
  481POPC   C3B10101  28.616  41.641   7.722
  481POPC   C4B10102  28.711  41.682   7.288
  482POPC   NC310103  28.842  19.466   9.518
  482POPC   PO410104  29.253  19.990   9.516
  482POPC   GL110105  29.095  20.042   9.135
  482POPC   GL210106  29.083  19.669   9.116
  482POPC   C1A10107  29.225  19.966   8.732
  482POPC   D2A10108  29.090  19.759   8.387
  482POPC   C3A10109  29.154  19.964   8.020
  482POPC   C4A10110  29.055  19.855   7.591
  482POPC   C1B10111  29.431  19.514   8.853
  482POPC   C2B10112  29.613  19.632   8.469
  482POPC   C3B10113  29.560  19.564   8.030
  482POPC   C4B10114  29.554  19.870   7.715
  483POPC   NC310115  31.783  31.108   9.326
  483POPC   PO410116  32.303  31.462   9.407
  483POPC   GL110117  32.217  31.514   9.013
  483POPC   GL210118  31.869  31.520   9.005
  483POPC   C1A10119  32.414  31.463   8.613
  483POPC   D2A10120  32.581  31.170   8.298
  483POPC   C3A10121  32.406  31.276   7.870
  483POPC   C4A10122  32.345  31.663   7.585
  483POPC   C1B10123  31.971  31.190   8.704
  483POPC   C2B10124  32.062  31.248   8.277
  483POPC   C3B10125  32.108  31.632   8.049
  483POPC   C4B10126  31.882  31.468   7.715
  484POPC   NC310127  20.141  14.472   9.544
  484POPC   PO410128  19.456  14.414   9.550
  484POPC   GL110129  19.753  14.271   9.264
  484POPC   GL210130  19.813  14.619   9.171
  484POPC   C1A10131  19.856  14.244   8.821
  484POPC   D2A10132  19.728  14.520   8.476
  484POPC   C3A10133  19.735  14.400   8.026
  484POPC   C4A10134  19.954  14.020   7.893
  484POPC   C1B10135  20.165  14.622   8.883
  484POPC   C2B10136  20.254  14.541   8.430
  484POPC   C3B10137  20.155  14.669   7.954
  484POPC   C4B10138  19.816  14.785   7.652
  485POPC   NC310139   3.261   8.256   9.756
  485POPC   PO410140   3.804   8.439   9.430
  485POPC   GL110141   3.731   8.205   9.090
  485POPC   GL210142   3.440   8.042   9.194
  485POPC   C1A10143   3.600   8.401   8.718
  485POPC   D2A10144   3.492   8.514   8.337
  485POPC   C3A10145   3.641   8.271   8.022
  485POPC   C4A10146   3.647   8.435   7.633
  485POPC   C1B10147   3.312   7.986   8.784
  485POPC   C2B10148   3.500   7.952   8.399
  485POPC   C3B10149   3.277   7.902   8.008
  485POPC   C4B10150   3.459   7.962   7.637
  486POPC   NC310151  42.864  21.656   9.481
  486POPC   PO410152  43.488  21.314   9.536
  486POPC   GL110153  43.216  21.315   9.155
  486POPC   GL210154  42.841  21.341   9.067
  486POPC   C1A10155  43.275  21.387   8.720
  486POPC   D2A10156  42.922  21.325   8.396
  486POPC   C3A10157  43.076  21.248   7.976
  486POPC   C4A10158  43.201  21.423   7.562
  486POPC   C1B10159  42.926  21.731   8.802
  486POPC   C2B10160  43.095  21.811   8.344
  486POPC   C3B10161  42.925  21.727   7.892
  486POPC   C4B10162  42.788  21.666   7.417
  487POPC   NC310163  37.301  20.276   9.351
  487POPC   PO410164  36.824  20.738   9.515
  487POPC   GL110165  36.680  20.632   9.123
  487POPC   GL210166  36.829  20.319   9.110
  487POPC   C1A10167  36.806  20.778   8.750
  487POPC   D2A10168  37.101  20.700   8.512
  487POPC   C3A10169  36.986  20.779   8.117
  487POPC   C4A10170  36.959  20.880   7.691
  487POPC   C1B10171  37.085  20.225   8.718
  487POPC   C2B10172  37.141  20.251   8.259
  487POPC   C3B10173  37.223  20.419   7.859
  487POPC   C4B10174  37.132  20.453   7.445
  488POPC   NC310175  13.985  27.264   9.371
  488POPC   PO410176  14.354  27.793   9.644
  488POPC   GL110177  14.387  27.579   9.214
  488POPC   GL210178  14.307  27.861   9.040
  488POPC   C1A10179  14.264  27.409   8.790
  488POPC   D2A10180  14.210  27.710   8.466
  488POPC   C3A10181  14.256  27.632   8.047
  488POPC   C4A10182  14.495  27.430   7.768
  488POPC   C1B10183  14.637  27.765   8.746
  488POPC   C2B10184  14.724  27.832   8.314
  488POPC   C3B10185  14.636  27.940   7.910
  488POPC   C4B10186  14.264  28.067   7.740
  489POPC   NC310187  26.288  25.528   9.772
  489POPC   PO410188  26.062  24.999   9.480
  489POPC   GL110189  26.005  25.177   9.076
  489POPC   GL210190  26.301  25.320   9.132
  489POPC   C1A10191  26.084  25.451   8.697
  489POPC   D2A10192  25.869  25.529   8.319
  489POPC   C3A10193  25.879  25.292   7.927
  489POPC   C4A10194  25.740  25.537   7.551
  489POPC   C1B10195  26.409  25.041   8.758
  489POPC   C2B10196  26.328  25.141   8.326
  489POPC   C3B10197  26.339  25.467   8.022
  489POPC   C4B10198  26.224  25.376   7.550
  490POPC   NC310199  33.812  41.647   9.561
  490POPC   PO410200  33.219  41.741   9.753
  490POPC   GL110201  33.418  41.653   9.255
  490POPC   GL210202  33.647  41.414   9.152
  490POPC   C1A10203  33.609  41.810   8.825
  490POPC   D2A10204  33.702  42.015   8.419
  490POPC   C3A10205  33.984  41.843   8.100
  490POPC   C4A10206  33.884  41.704   7.687
  490POPC   C1B10207  33.981  41.451   8.867
  490POPC   C2B10208  33.954  41.463   8.435
  490POPC   C3B10209  33.835  41.264   8.035
  490POPC   C4B10210  33.987  41.199   7.612
  491POPC   NC310211  33.483  32.844   9.523
  491POPC   PO410212  34.138  32.742   9.413
  491POPC   GL110213  33.879  32.937   9.152
  491POPC   GL210214  33.970  33.279   9.106
  491POPC   C1A10215  33.982  32.923   8.724
  491POPC   D2A10216  34.073  33.116   8.357
  491POPC   C3A10217  33.859  32.895   8.100
  491POPC   C4A10218  33.734  32.895   7.721
  491POPC   C1B10219  33.759  33.388   8.744
  491POPC   C2B10220  33.710  33.493   8.302
  491POPC   C3B10221  33.841  33.412   7.862
  491POPC   C4B10222  33.750  33.332   7.411
  492POPC   NC310223  18.922   6.445   9.593
  492POPC   PO410224  19.416   6.810   9.360
  492POPC   GL110225  19.296   6.662   9.014
  492POPC   GL210226  18.967   6.695   9.128
  492POPC   C1A10227  19.323   6.548   8.584
  492POPC   D2A10228  19.221   6.295   8.266
  492POPC   C3A10229  19.122   6.553   7.927
  492POPC   C4A10230  19.218   6.548   7.505
  492POPC   C1B10231  18.866   6.439   8.786
  492POPC   C2B10232  18.775   6.579   8.362
  492POPC   C3B10233  18.647   6.756   7.960
  492POPC   C4B10234  18.792   6.842   7.559
  493POPC   NC310235  15.300  27.676   9.896
  493POPC   PO410236  14.895  27.532   9.301
  493POPC   GL110237  15.114  27.772   9.025
  493POPC   GL210238  15.475  27.923   9.148
  493POPC   C1A10239  15.131  27.700   8.588
  493POPC   D2A10240  15.096  27.385   8.319
  493POPC   C3A10241  14.955  27.546   7.960
  493POPC   C4A10242  15.103  27.870   7.732
  493POPC   C1B10243  15.570  27.670   8.820
  493POPC   C2B10244  15.636  27.821   8.434
  493POPC   C3B10245  15.423  27.720   8.114
  493POPC   C4B10246  15.585  27.706   7.767
  494POPC   NC310247  16.822  21.835   9.336
  494POPC   PO410248  16.553  21.334   9.806
  494POPC   GL110249  16.547  21.413   9.359
  494POPC   GL210250  16.878  21.339   9.219
  494POPC   C1A10251  16.484  21.490   8.893
  494POPC   D2A10252  16.476  21.354   8.422
  494POPC   C3A10253  16.638  21.466   7.978
  494POPC   C4A10254  16.837  21.315   7.534
  494POPC   C1B10255  16.971  21.351   8.768
  494POPC   C2B10256  17.009  21.511   8.347
  494POPC   C3B10257  17.114  21.274   7.967
  494POPC   C4B10258  17.169  20.863   7.790
  495POPC   NC310259  35.569  11.644   9.337
  495POPC   PO410260  35.223  11.054   9.482
  495POPC   GL110261  35.212  11.251   9.113
  495POPC   GL210262  35.571  11.220   9.041
  495POPC   C1A10263  35.212  11.075   8.712
  495POPC   D2A10264  35.436  11.151   8.370
  495POPC   C3A10265  35.157  11.078   8.041
  495POPC   C4A10266  35.285  11.080   7.628
  495POPC   C1B10267  35.436  11.537   8.703
  495POPC   C2B10268  35.281  11.620   8.260
  495POPC   C3B10269  35.537  11.412   7.934
  495POPC   C4B10270  35.742  11.528   7.554
  496POPC   NC310271  34.232   9.888   9.835
  496POPC   PO410272  33.638   9.914   9.434
  496POPC   GL110273  33.816   9.894   8.987
  496POPC   GL210274  34.081   9.634   8.870
  496POPC   C1A10275  34.012  10.105   8.647
  496POPC   D2A10276  34.079   9.930   8.248
  496POPC   C3A10277  33.750   9.957   7.978
  496POPC   C4A10278  33.686   9.636   7.697
  496POPC   C1B10279  33.747   9.358   8.778
  496POPC   C2B10280  33.536   9.256   8.440
  496POPC   C3B10281  33.683   9.301   8.058
  496POPC   C4B10282  33.491   9.155   7.689
  497POPC   NC310283  10.473  39.937   9.517
  497POPC   PO410284  11.075  40.032   9.762
  497POPC   GL110285  10.839  40.109   9.220
  497POPC   GL210286  10.440  40.152   9.081
  497POPC   C1A10287  10.755  40.013   8.735
  497POPC   D2A10288  10.589  40.110   8.300
  497POPC   C3A10289  10.468  39.806   7.968
  497POPC   C4A10290  10.592  39.639   7.561
  497POPC   C1B10291  10.160  40.240   8.720
  497POPC   C2B10292  10.245  40.459   8.334
  497POPC   C3B10293  10.285  40.265   7.874
  497POPC   C4B10294  10.247  40.206   7.371
  498POPC   NC310295  33.079   5.315   9.482
  498POPC   PO410296  32.663   4.788   9.530
  498POPC   GL110297  32.588   4.888   9.086
  498POPC   GL210298  32.794   5.191   9.061
  498POPC   C1A10299  32.656   4.942   8.643
  498POPC   D2A10300  32.907   5.227   8.446
  498POPC   C3A10301  32.952   5.082   8.063
  498POPC   C4A10302  32.892   5.287   7.683
  498POPC   C1B10303  33.198   5.164   8.858
  498POPC   C2B10304  33.439   5.159   8.461
  498POPC   C3B10305  33.454   5.244   8.033
  498POPC   C4B10306  33.326   4.993   7.727
  499POPC   NC310307  35.641  14.568   9.380
  499POPC   PO410308  35.309  14.004   9.370
  499POPC   GL110309  35.187  14.272   9.051
  499POPC   GL210310  35.216  14.635   9.101
  499POPC   C1A10311  35.435  14.386   8.691
  499POPC   D2A10312  35.612  14.587   8.336
  499POPC   C3A10313  35.452  14.385   7.961
  499POPC   C4A10314  35.301  14.322   7.537
  499POPC   C1B10315  35.014  14.694   8.711
  499POPC   C2B10316  35.076  14.512   8.301
  499POPC   C3B10317  35.011  14.644   7.872
  499POPC   C4B10318  34.974  14.724   7.376
  500POPC   NC310319   7.319   7.867   9.563
  500POPC   PO410320   7.708   8.376   9.371
  500POPC   GL110321   7.617   8.159   9.061
  500POPC   GL210322   7.307   8.020   9.091
  500POPC   C1A10323   7.522   8.351   8.681
  500POPC   D2A10324   7.299   8.220   8.296
  500POPC   C3A10325   7.337   8.443   7.912
  500POPC   C4A10326   7.147   8.709   7.653
  500POPC   C1B10327   7.369   7.867   8.707
  500POPC   C2B10328   7.466   7.710   8.340
  500POPC   C3B10329   7.373   7.847   7.958
  500POPC   C4B10330   7.670   8.095   7.774
  501POPC   NC310331  28.667  13.550   9.397
  501POPC   PO410332  28.287  14.057   9.473
  501POPC   GL110333  28.470  13.937   9.101
  501POPC   GL210334  28.372  13.609   8.974
  501POPC   C1A10335  28.278  14.058   8.702
  501POPC   D2A10336  28.044  13.863   8.341
  501POPC   C3A10337  28.407  13.779   8.057
  501POPC   C4A10338  28.454  13.800   7.588
  501POPC   C1B10339  28.737  13.458   8.703
  501POPC   C2B10340  28.785  13.431   8.231
  501POPC   C3B10341  28.594  13.363   7.819
  501POPC   C4B10342  28.655  13.234   7.389
  502POPC   NC310343  15.401  33.445   9.423
  502POPC   PO410344  14.797  33.065   9.335
  502POPC   GL110345  15.198  33.087   9.128
  502POPC   GL210346  15.429  32.827   9.261
  502POPC   C1A10347  15.201  33.184   8.709
  502POPC   D2A10348  14.971  33.125   8.347
  502POPC   C3A10349  15.014  33.338   7.974
  502POPC   C4A10350  14.841  33.059   7.685
  502POPC   C1B10351  15.574  32.862   8.836
  502POPC   C2B10352  15.366  32.789   8.414
  502POPC   C3B10353  15.268  32.884   7.977
  502POPC   C4B10354  15.558  32.901   7.630
  503POPC   NC310355   2.192  17.217   9.493
  503POPC   PO410356   1.645  17.666   9.424
  503POPC   GL110357   1.924  17.488   9.159
  503POPC   GL210358   1.768  17.186   9.175
  503POPC   C1A10359   2.119  17.554   8.780
  503POPC   D2A10360   1.970  17.718   8.389
  503POPC   C3A10361   2.257  17.670   8.044
  503POPC   C4A10362   2.139  17.519   7.637
  503POPC   C1B10363   1.636  17.285   8.784
  503POPC   C2B10364   1.856  17.233   8.423
  503POPC   C3B10365   1.820  17.380   8.017
  503POPC   C4B10366   1.806  17.100   7.649
  504POPC   NC310367  24.837  27.063   9.492
  504POPC   PO410368  25.401  26.597   9.536
  504POPC   GL110369  25.423  26.885   9.168
  504POPC   GL210370  25.140  27.032   9.122
  504POPC   C1A10371  25.273  26.832   8.699
  504POPC   D2A10372  25.347  26.692   8.310
  504POPC   C3A10373  25.264  26.943   7.989
  504POPC   C4A10374  25.380  26.727   7.650
  504POPC   C1B10375  24.851  26.686   8.901
  504POPC   C2B10376  24.878  26.528   8.474
  504POPC   C3B10377  24.803  26.679   8.061
  504POPC   C4B10378  24.891  26.912   7.658
  505POPC   NC310379  32.940  22.937   9.607
  505POPC   PO410380  33.374  22.713   9.178
  505POPC   GL110381  32.933  22.725   9.140
  505POPC   GL210382  32.877  23.092   9.117
  505POPC   C1A10383  32.667  22.731   8.789
  505POPC   D2A10384  32.801  22.886   8.377
  505POPC   C3A10385  32.627  22.697   8.010
  505POPC   C4A10386  32.945  22.582   7.679
  505POPC   C1B10387  32.973  23.305   8.728
  505POPC   C2B10388  32.831  23.441   8.303
  505POPC   C3B10389  32.867  23.162   7.928
  505POPC   C4B10390  33.048  23.039   7.502
  506POPC   NC310391  31.358  19.620   9.406
  506POPC   PO410392  31.912  20.020   9.362
  506POPC   GL110393  31.667  19.795   9.049
  506POPC   GL210394  31.335  19.995   9.029
  506POPC   C1A10395  31.454  19.486   8.750
  506POPC   D2A10396  31.234  19.480   8.370
  506POPC   C3A10397  31.403  19.779   8.126
  506POPC   C4A10398  31.281  19.778   7.704
  506POPC   C1B10399  31.506  19.975   8.604
  506POPC   C2B10400  31.739  20.205   8.326
  506POPC   C3B10401  31.674  20.161   7.922
  506POPC   C4B10402  31.365  20.280   7.669
  507POPC   NC310403  30.528  43.131   9.475
  507POPC   PO410404  30.910  43.589   9.594
  507POPC   GL110405  30.919  43.357   9.170
  507POPC   GL210406  30.830  42.979   9.085
  507POPC   C1A10407  30.678  43.403   8.772
  507POPC   D2A10408  30.405  43.384   8.387
  507POPC   C3A10409  30.547  43.477   7.971
  507POPC   C4A10410  30.787  43.160   7.722
  507POPC   C1B10411  30.461  42.939   8.825
  507POPC   C2B10412  30.363  42.877   8.416
  507POPC   C3B10413  30.326  43.022   8.018
  507POPC   C4B10414  30.381  42.839   7.636
  508POPC   NC310415  29.764  26.364   9.430
  508POPC   PO410416  29.978  25.693   9.439
  508POPC   GL110417  30.059  26.008   9.132
  508POPC   GL210418  29.710  25.976   9.069
  508POPC   C1A10419  30.035  25.970   8.673
  508POPC   D2A10420  29.699  26.019   8.368
  508POPC   C3A10421  29.885  25.966   7.956
  508POPC   C4A10422  29.863  25.904   7.537
  508POPC   C1B10423  29.657  26.340   8.790
  508POPC   C2B10424  29.565  26.542   8.410
  508POPC   C3B10425  29.593  26.385   7.997
  508POPC   C4B10426  29.826  26.432   7.630
  509POPC   NC310427  42.922   3.014   9.501
  509POPC   PO410428  43.150   2.343   9.485
  509POPC   GL110429  43.184   2.673   9.186
  509POPC   GL210430  43.385   2.959   9.270
  509POPC   C1A10431  43.266   2.736   8.751
  509POPC   D2A10432  42.943   2.634   8.438
  509POPC   C3A10433  43.033   2.462   8.026
  509POPC   C4A10434  42.977   2.766   7.708
  509POPC   C1B10435  43.571   3.179   8.921
  509POPC   C2B10436  43.439   3.152   8.493
  509POPC   C3B10437  43.328   2.894   8.151
  509POPC   C4B10438  43.431   2.996   7.740
  510POPC   NC310439  34.893  24.592   9.554
  510POPC   PO410440  34.695  24.026   9.349
  510POPC   GL110441  34.630  24.380   9.157
  510POPC   GL210442  34.296  24.479   9.134
  510POPC   C1A10443  34.690  24.623   8.830
  510POPC   D2A10444  34.457  24.723   8.509
  510POPC   C3A10445  34.670  24.773   8.137
  510POPC   C4A10446  34.625  24.859   7.716
  510POPC   C1B10447  34.358  24.261   8.704
  510POPC   C2B10448  34.488  24.275   8.260
  510POPC   C3B10449  34.353  24.406   7.855
  510POPC   C4B10450  34.262  24.206   7.443
  511POPC   NC310451  27.186  29.427   9.477
  511POPC   PO410452  27.893  29.343   9.496
  511POPC   GL110453  27.620  29.296   9.164
  511POPC   GL210454  27.839  29.474   8.959
  511POPC   C1A10455  27.435  29.044   8.828
  511POPC   D2A10456  27.503  28.794   8.460
  511POPC   C3A10457  27.389  28.975   8.056
  511POPC   C4A10458  27.532  29.152   7.675
  511POPC   C1B10459  27.922  29.166   8.679
  511POPC   C2B10460  27.882  29.084   8.265
  511POPC   C3B10461  27.995  29.100   7.867
  511POPC   C4B10462  27.979  29.412   7.546
  512POPC   NC310463   5.830  44.162   9.536
  512POPC   PO410464   6.181  44.764   9.529
  512POPC   GL110465   6.089  44.477   9.212
  512POPC   GL210466   5.744  44.595   9.224
  512POPC   C1A10467   6.094  44.520   8.785
  512POPC   D2A10468   5.911  44.553   8.381
  512POPC   C3A10469   5.590  44.805   8.149
  512POPC   C4A10470   5.761  44.811   7.718
  512POPC   C1B10471   5.599  44.437   8.833
  512POPC   C2B10472   5.432  44.345   8.415
  512POPC   C3B10473   5.671  44.319   8.007
  512POPC   C4B10474   5.479  44.302   7.648
  513POPC   NC310475  36.342  11.551   9.668
  513POPC   PO410476  35.970  11.612   9.121
  513POPC   GL110477  36.241  11.289   9.058
  513POPC   GL210478  36.045  11.006   9.074
  513POPC   C1A10479  36.449  11.155   8.685
  513POPC   D2A10480  36.306  10.923   8.318
  513POPC   C3A10481  36.506  10.974   7.941
  513POPC   C4A10482  36.446  11.335   7.710
  513POPC   C1B10483  35.919  11.175   8.659
  513POPC   C2B10484  35.938  11.351   8.262
  513POPC   C3B10485  35.992  11.168   7.855
  513POPC   C4B10486  35.745  11.033   7.485
  514POPC   NC310487  14.236  35.781   9.602
  514POPC   PO410488  14.506  35.234   9.501
  514POPC   GL110489  14.445  35.497   9.179
  514POPC   GL210490  14.690  35.706   9.310
  514POPC   C1A10491  14.259  35.505   8.745
  514POPC   D2A10492  14.119  35.605   8.318
  514POPC   C3A10493  14.305  35.309   8.051
  514POPC   C4A10494  14.413  35.115   7.638
  514POPC   C1B10495  14.677  35.813   8.857
  514POPC   C2B10496  14.673  35.635   8.428
  514POPC   C3B10497  14.671  35.857   8.033
  514POPC   C4B10498  14.344  35.711   7.759
  515POPC   NC310499  28.984  40.174   9.498
  515POPC   PO410500  29.560  39.669   9.508
  515POPC   GL110501  29.347  39.801   9.182
  515POPC   GL210502  29.378  40.154   9.167
  515POPC   C1A10503  29.345  39.643   8.774
  515POPC   D2A10504  29.060  39.675   8.460
  515POPC   C3A10505  29.245  39.790   8.054
  515POPC   C4A10506  28.995  39.960   7.731
  515POPC   C1B10507  29.113  40.113   8.826
  515POPC   C2B10508  29.308  40.128   8.440
  515POPC   C3B10509  29.173  40.294   8.068
  515POPC   C4B10510  28.996  40.468   7.725
  516POPC   NC310511  39.758  27.260   9.322
  516POPC   PO410512  40.310  27.641   9.642
  516POPC   GL110513  40.105  27.586   9.177
  516POPC   GL210514  39.773  27.739   9.080
  516POPC   C1A10515  40.112  27.633   8.685
  516POPC   D2A10516  40.014  27.879   8.281
  516POPC   C3A10517  40.003  27.619   7.874
  516POPC   C4A10518  40.132  27.383   7.487
  516POPC   C1B10519  39.597  27.659   8.653
  516POPC   C2B10520  39.707  27.426   8.265
  516POPC   C3B10521  39.599  27.285   7.828
  516POPC   C4B10522  39.627  27.464   7.423
  517POPC   NC310523  29.629  28.731   9.774
  517POPC   PO410524  30.053  28.241   9.444
  517POPC   GL110525  30.091  28.239   9.064
  517POPC   GL210526  30.388  28.036   9.092
  517POPC   C1A10527  29.835  28.276   8.697
  517POPC   D2A10528  29.552  28.337   8.370
  517POPC   C3A10529  29.854  28.358   8.087
  517POPC   C4A10530  29.978  28.445   7.719
  517POPC   C1B10531  30.184  27.862   8.738
  517POPC   C2B10532  30.116  28.002   8.323
  517POPC   C3B10533  30.367  28.219   7.974
  517POPC   C4B10534  30.374  28.188   7.494
  518POPC   NC310535   6.782   0.410   9.415
  518POPC   PO410536   6.939  44.747   9.332
  518POPC   GL110537   6.924   0.057   9.028
  518POPC   GL210538   6.553   0.123   9.040
  518POPC   C1A10539   6.835   0.240   8.623
  518POPC   D2A10540   6.540   0.142   8.283
  518POPC   C3A10541   6.762   0.188   7.923
  518POPC   C4A10542   6.728   0.441   7.592
  518POPC   C1B10543   6.323   0.353   8.695
  518POPC   C2B10544   6.159   0.532   8.297
  518POPC   C3B10545   6.387   0.618   7.914
  518POPC   C4B10546   6.575   1.019   7.738
  519POPC   NC310547  20.179  13.654   9.456
  519POPC   PO410548  19.540  13.795   9.474
  519POPC   GL110549  19.834  13.795   9.080
  519POPC   GL210550  20.069  13.507   8.988
  519POPC   C1A10551  19.852  13.792   8.612
  519POPC   D2A10552  19.612  13.526   8.353
  519POPC   C3A10553  19.642  13.620   7.896
  519POPC   C4A10554  19.720  13.772   7.475
  519POPC   C1B10555  20.063  13.352   8.535
  519POPC   C2B10556  20.093  13.552   8.132
  519POPC   C3B10557  20.173  13.581   7.684
  519POPC   C4B10558  20.034  13.351   7.319
  520POPC   NC310559  41.913  10.837   9.569
  520POPC   PO410560  42.483  10.457   9.649
  520POPC   GL110561  42.292  10.566   9.206
  520POPC   GL210562  42.433  10.342   8.925
  520POPC   C1A10563  41.976  10.489   8.841
  520POPC   D2A10564  42.207  10.378   8.449
  520POPC   C3A10565  41.998  10.366   8.057
  520POPC   C4A10566  42.181  10.352   7.633
  520POPC   C1B10567  42.390  10.781   8.754
  520POPC   C2B10568  42.503  10.903   8.344
  520POPC   C3B10569  42.412  10.668   7.993
  520POPC   C4B10570  42.490  10.751   7.577
  521POPC   NC310571  44.815  28.739   9.486
  521POPC   PO410572  44.401  28.284   9.540
  521POPC   GL110573  44.624  28.305   9.146
  521POPC   GL210574  44.986  28.383   9.158
  521POPC   C1A10575  44.617  28.169   8.719
  521POPC   D2A10576  44.497  28.455   8.404
  521POPC   C3A10577  44.584  28.284   8.030
  521POPC   C4A10578  44.663  27.923   7.778
  521POPC   C1B10579  44.865  28.633   8.773
  521POPC   C2B10580  44.864  28.806   8.351
  521POPC   C3B10581   0.012  28.686   7.978
  521POPC   C4B10582  44.783  28.576   7.643
  522POPC   NC310583  17.851  31.509   9.479
  522POPC   PO410584  18.597  31.509   9.460
  522POPC   GL110585  18.359  31.684   9.111
  522POPC   GL210586  18.010  31.526   9.007
  522POPC   C1A10587  18.380  31.514   8.694
  522POPC   D2A10588  18.387  31.617   8.311
  522POPC   C3A10589  18.192  31.325   8.067
  522POPC   C4A10590  18.215  31.303   7.649
  522POPC   C1B10591  17.932  31.740   8.606
  522POPC   C2B10592  17.853  31.695   8.174
  522POPC   C3B10593  17.839  31.656   7.739
  522POPC   C4B10594  17.777  31.985   7.429
  523POPC   NC310595  20.014  11.431   9.478
  523POPC   PO410596  19.545  10.976   9.589
  523POPC   GL110597  19.606  11.225   9.228
  523POPC   GL210598  19.572  11.588   9.186
  523POPC   C1A10599  19.728  11.221   8.808
  523POPC   D2A10600  19.701  11.052   8.376
  523POPC   C3A10601  19.821  11.203   7.952
  523POPC   C4A10602  19.613  11.537   7.730
  523POPC   C1B10603  19.967  11.657   8.879
  523POPC   C2B10604  19.948  11.494   8.440
  523POPC   C3B10605  20.066  11.621   8.059
  523POPC   C4B10606  20.043  11.803   7.701
  524POPC   NC310607   3.113  21.165   9.711
  524POPC   PO410608   3.736  21.245   9.549
  524POPC   GL110609   3.535  21.407   9.197
  524POPC   GL210610   3.306  21.118   9.201
  524POPC   C1A10611   3.566  21.629   8.772
  524POPC   D2A10612   3.490  21.450   8.372
  524POPC   C3A10613   3.491  21.675   7.962
  524POPC   C4A10614   3.770  21.475   7.672
  524POPC   C1B10615   3.121  21.408   8.882
  524POPC   C2B10616   2.978  21.544   8.456
  524POPC   C3B10617   3.097  21.340   8.075
  524POPC   C4B10618   3.288  21.247   7.676
  525POPC   NC310619  13.153  44.833   9.630
  525POPC   PO410620  12.559  44.492   9.441
  525POPC   GL110621  12.922  44.582   9.187
  525POPC   GL210622  13.063  44.922   9.124
  525POPC   C1A10623  13.023  44.554   8.763
  525POPC   D2A10624  12.759  44.612   8.426
  525POPC   C3A10625  13.022  44.637   8.118
  525POPC   C4A10626  13.099  44.685   7.716
  525POPC   C1B10627  12.738  44.976   8.803
  525POPC   C2B10628  12.700   0.118   8.367
  525POPC   C3B10629  12.614  44.932   7.989
  525POPC   C4B10630  12.761   0.043   7.583
  526POPC   NC310631  11.641  20.204   9.384
  526POPC   PO410632  11.307  20.849   9.481
  526POPC   GL110633  11.345  20.576   9.135
  526POPC   GL210634  11.083  20.340   9.086
  526POPC   C1A10635  11.528  20.650   8.723
  526POPC   D2A10636  11.306  20.818   8.373
  526POPC   C3A10637  11.381  20.576   8.049
  526POPC   C4A10638  11.364  20.505   7.634
  526POPC   C1B10639  10.996  20.528   8.720
  526POPC   C2B10640  10.992  20.346   8.331
  526POPC   C3B10641  10.864  20.494   7.947
  526POPC   C4B10642  11.015  20.892   7.894
  527POPC   NC310643  21.381  24.825   9.586
  527POPC   PO410644  21.551  25.413   9.642
  527POPC   GL110645  21.540  25.149   9.221
  527POPC   GL210646  21.789  24.890   9.270
  527POPC   C1A10647  21.446  25.060   8.756
  527POPC   D2A10648  21.510  25.247   8.322
  527POPC   C3A10649  21.245  25.109   7.967
  527POPC   C4A10650  20.816  25.049   7.763
  527POPC   C1B10651  21.799  24.704   8.857
  527POPC   C2B10652  21.881  24.875   8.444
  527POPC   C3B10653  21.736  24.925   7.994
  527POPC   C4B10654  21.689  24.664   7.646
  528POPC   NC310655  21.973  37.753   9.606
  528POPC   PO410656  22.471  37.408   9.423
  528POPC   GL110657  22.157  37.597   9.128
  528POPC   GL210658  21.900  37.902   9.133
  528POPC   C1A10659  21.945  37.572   8.741
  528POPC   D2A10660  21.986  37.443   8.323
  528POPC   C3A10661  22.138  37.711   8.004
  528POPC   C4A10662  22.336  37.595   7.572
  528POPC   C1B10663  21.628  38.006   8.774
  528POPC   C2B10664  21.764  37.889   8.354
  528POPC   C3B10665  21.644  37.924   7.944
  528POPC   C4B10666  21.800  37.647   7.641
  529POPC   NC310667   8.487  21.728   9.500
  529POPC   PO410668   9.194  21.748   9.524
  529POPC   GL110669   9.093  21.897   9.111
  529POPC   GL210670   8.749  22.002   9.157
  529POPC   C1A10671   9.174  21.834   8.646
  529POPC   D2A10672   9.360  22.186   8.412
  529POPC   C3A10673   9.326  22.320   7.973
  529POPC   C4A10674   8.922  22.515   7.793
  529POPC   C1B10675   8.585  22.068   8.762
  529POPC   C2B10676   8.730  22.002   8.362
  529POPC   C3B10677   8.626  22.063   7.943
  529POPC   C4B10678   9.003  22.019   7.734
  530POPC   NC310679  10.768  41.159   9.293
  530POPC   PO410680  10.331  41.536   9.718
  530POPC   GL110681  10.412  41.522   9.298
  530POPC   GL210682  10.582  41.791   9.221
  530POPC   C1A10683  10.390  41.537   8.833
  530POPC   D2A10684  10.301  41.608   8.407
  530POPC   C3A10685  10.640  41.521   8.102
  530POPC   C4A10686  10.534  41.487   7.677
  530POPC   C1B10687  10.819  41.839   8.839
  530POPC   C2B10688  10.716  41.933   8.437
  530POPC   C3B10689  10.919  42.004   8.033
  530POPC   C4B10690  10.784  41.922   7.652
  531POPC   NC310691   3.946  20.202   9.397
  531POPC   PO410692   3.214  20.008   9.453
  531POPC   GL110693   3.418  20.087   9.083
  531POPC   GL210694   3.723  19.928   9.032
  531POPC   C1A10695   3.373  19.853   8.678
  531POPC   D2A10696   3.712  19.733   8.369
  531POPC   C3A10697   3.534  19.621   7.956
  531POPC   C4A10698   3.253  19.859   7.678
  531POPC   C1B10699   3.714  20.241   8.695
  531POPC   C2B10700   3.917  20.280   8.329
  531POPC   C3B10701   3.966  19.995   7.979
  531POPC   C4B10702   3.814  19.819   7.569
  532POPC   NC310703  40.880  37.618   9.448
  532POPC   PO410704  41.356  37.713   9.178
  532POPC   GL110705  40.950  37.740   8.934
  532POPC   GL210706  40.657  37.512   8.995
  532POPC   C1A10707  40.658  37.806   8.570
  532POPC   D2A10708  40.428  37.663   8.204
  532POPC   C3A10709  40.647  37.686   7.782
  532POPC   C4A10710  41.054  37.915   7.575
  532POPC   C1B10711  40.475  37.309   8.612
  532POPC   C2B10712  40.394  37.152   8.185
  532POPC   C3B10713  40.259  37.342   7.816
  532POPC   C4B10714  40.373  37.357   7.392
  533POPC   NC310715  38.703  42.336   9.530
  533POPC   PO410716  38.140  42.631   9.765
  533POPC   GL110717  38.214  42.632   9.295
  533POPC   GL210718  38.551  42.634   9.145
  533POPC   C1A10719  38.167  42.342   8.924
  533POPC   D2A10720  38.318  42.205   8.507
  533POPC   C3A10721  38.106  42.380   8.109
  533POPC   C4A10722  38.223  42.676   7.761
  533POPC   C1B10723  38.712  42.366   8.831
  533POPC   C2B10724  38.765  42.480   8.424
  533POPC   C3B10725  38.620  42.444   8.046
  533POPC   C4B10726  38.721  42.561   7.633
  534POPC   NC310727   2.550   8.413   9.368
  534POPC   PO410728   1.914   8.142   9.396
  534POPC   GL110729   1.998   8.420   9.114
  534POPC   GL210730   1.682   8.406   8.933
  534POPC   C1A10731   2.137   8.396   8.698
  534POPC   D2A10732   2.203   7.963   8.556
  534POPC   C3A10733   2.263   7.948   8.141
  534POPC   C4A10734   2.049   8.021   7.772
  534POPC   C1B10735   1.686   8.103   8.619
  534POPC   C2B10736   1.862   8.248   8.253
  534POPC   C3B10737   1.654   8.321   7.883
  534POPC   C4B10738   1.642   8.162   7.488
  535POPC   NC310739  19.564   8.056   9.494
  535POPC   PO410740  20.240   8.309   9.432
  535POPC   GL110741  19.871   8.264   9.148
  535POPC   GL210742  19.655   7.954   9.015
  535POPC   C1A10743  19.766   8.397   8.757
  535POPC   D2A10744  19.745   8.151   8.409
  535POPC   C3A10745  19.882   8.330   8.075
  535POPC   C4A10746  19.777   8.432   7.695
  535POPC   C1B10747  20.000   7.911   8.781
  535POPC   C2B10748  20.062   7.717   8.399
  535POPC   C3B10749  20.091   7.865   8.023
  535POPC   C4B10750  19.986   7.983   7.642
  536POPC   NC310751  16.955  24.115   9.212
  536POPC   PO410752  16.467  24.181   9.650
  536POPC   GL110753  16.510  24.447   9.277
  536POPC   GL210754  16.486  24.221   9.039
  536POPC   C1A10755  16.613  24.636   8.838
  536POPC   D2A10756  16.891  24.605   8.523
  536POPC   C3A10757  16.789  24.757   8.112
  536POPC   C4A10758  16.937  24.502   7.786
  536POPC   C1B10759  16.603  24.182   8.591
  536POPC   C2B10760  16.544  24.294   8.132
  536POPC   C3B10761  16.406  24.158   7.711
  536POPC   C4B10762  16.471  24.065   7.232
  537POPC   NC310763  13.094  41.186   9.485
  537POPC   PO410764  12.856  41.823   9.659
  537POPC   GL110765  12.832  41.607   9.248
  537POPC   GL210766  12.585  41.320   9.350
  537POPC   C1A10767  12.816  41.693   8.791
  537POPC   D2A10768  12.923  41.452   8.397
  537POPC   C3A10769  12.998  41.315   7.955
  537POPC   C4A10770  13.095  41.616   7.591
  537POPC   C1B10771  12.498  41.318   8.916
  537POPC   C2B10772  12.392  41.475   8.508
  537POPC   C3B10773  12.498  41.325   8.093
  537POPC   C4B10774  12.610  41.475   7.670
  538POPC   NC310775  10.832   2.552   9.359
  538POPC   PO410776  10.250   2.920   9.511
  538POPC   GL110777  10.491   2.898   9.119
  538POPC   GL210778  10.382   2.573   9.113
  538POPC   C1A10779  10.712   2.732   8.722
  538POPC   D2A10780  10.561   2.539   8.325
  538POPC   C3A10781  10.648   2.821   8.011
  538POPC   C4A10782  10.959   2.820   7.700
  538POPC   C1B10783  10.214   2.722   8.743
  538POPC   C2B10784  10.192   2.887   8.370
  538POPC   C3B10785  10.136   2.807   7.961
  538POPC   C4B10786  10.250   3.157   7.812
  539POPC   NC310787   6.691  28.034   9.582
  539POPC   PO410788   6.271  28.537   9.514
  539POPC   GL110789   6.501  28.338   9.223
  539POPC   GL210790   6.258  28.141   9.118
  539POPC   C1A10791   6.654  28.463   8.819
  539POPC   D2A10792   6.536  28.574   8.393
  539POPC   C3A10793   6.783  28.446   8.005
  539POPC   C4A10794   6.829  28.115   7.660
  539POPC   C1B10795   6.076  27.979   8.738
  539POPC   C2B10796   6.104  28.156   8.353
  539POPC   C3B10797   6.248  28.341   7.999
  539POPC   C4B10798   6.298  28.061   7.666
  540POPC   NC310799  37.898   9.868   9.885
  540POPC   PO410800  37.391   9.479   9.541
  540POPC   GL110801  37.666   9.668   9.218
  540POPC   GL210802  38.015   9.745   9.238
  540POPC   C1A10803  37.764   9.531   8.805
  540POPC   D2A10804  37.603   9.457   8.415
  540POPC   C3A10805  37.730   9.720   8.083
  540POPC   C4A10806  37.503   9.564   7.740
  540POPC   C1B10807  37.946  10.019   8.857
  540POPC   C2B10808  38.074  10.151   8.419
  540POPC   C3B10809  37.921  10.261   7.992
  540POPC   C4B10810  37.560  10.091   7.757
  541POPC   NC310811  36.552  28.161   9.525
  541POPC   PO410812  35.959  28.375   9.597
  541POPC   GL110813  36.009  28.418   9.162
  541POPC   GL210814  35.856  28.077   9.114
  541POPC   C1A10815  36.299  28.503   8.776
  541POPC   D2A10816  36.479  28.697   8.376
  541POPC   C3A10817  36.263  28.515   7.977
  541POPC   C4A10818  36.333  28.136   7.695
  541POPC   C1B10819  35.620  28.256   8.763
  541POPC   C2B10820  35.574  28.375   8.317
  541POPC   C3B10821  35.735  28.560   7.954
  541POPC   C4B10822  35.914  28.414   7.529
  542POPC   NC310823  33.840   2.835   9.525
  542POPC   PO410824  33.213   2.816   9.466
  542POPC   GL110825  33.522   2.692   9.137
  542POPC   GL210826  33.914   2.719   9.045
  542POPC   C1A10827  33.558   2.502   8.748
  542POPC   D2A10828  33.403   2.601   8.359
  542POPC   C3A10829  33.678   2.545   8.008
  542POPC   C4A10830  33.741   2.892   7.740
  542POPC   C1B10831  33.756   2.993   8.759
  542POPC   C2B10832  33.827   2.923   8.336
  542POPC   C3B10833  34.148   2.847   8.047
  542POPC   C4B10834  34.136   2.574   7.722
  543POPC   NC310835   6.013  42.577   9.425
  543POPC   PO410836   5.473  42.138   9.335
  543POPC   GL110837   5.600  42.458   9.110
  543POPC   GL210838   5.896  42.267   9.057
  543POPC   C1A10839   5.761  42.673   8.749
  543POPC   D2A10840   6.030  42.631   8.368
  543POPC   C3A10841   5.808  42.563   8.021
  543POPC   C4A10842   6.003  42.630   7.603
  543POPC   C1B10843   6.113  42.272   8.714
  543POPC   C2B10844   6.383  42.136   8.411
  543POPC   C3B10845   6.084  42.092   8.139
  543POPC   C4B10846   5.939  42.156   7.753
  544POPC   NC310847  16.374  33.060   9.478
  544POPC   PO410848  15.679  33.096   9.627
  544POPC   GL110849  15.920  32.944   9.280
  544POPC   GL210850  15.804  33.235   9.127
  544POPC   C1A10851  16.080  32.778   8.884
  544POPC   D2A10852  16.250  32.874   8.469
  544POPC   C3A10853  16.266  32.836   8.038
  544POPC   C4A10854  16.020  33.056   7.756
  544POPC   C1B10855  15.709  33.341   8.691
  544POPC   C2B10856  15.735  33.160   8.282
  544POPC   C3B10857  15.557  33.318   7.902
  544POPC   C4B10858  15.732  33.396   7.475
  545POPC   NC310859  10.800  24.099   9.410
  545POPC   PO410860  10.437  24.658   9.474
  545POPC   GL110861  10.637  24.553   9.108
  545POPC   GL210862  10.458  24.271   9.050
  545POPC   C1A10863  10.615  24.668   8.655
  545POPC   D2A10864  10.536  24.471   8.250
  545POPC   C3A10865  10.498  24.688   7.834
  545POPC   C4A10866  10.561  24.677   7.401
  545POPC   C1B10867  10.829  24.200   8.767
  545POPC   C2B10868  10.828  24.012   8.344
  545POPC   C3B10869  10.746  24.074   7.921
  545POPC   C4B10870  10.889  24.340   7.612
  546POPC   NC310871   6.906  10.571   9.541
  546POPC   PO410872   6.243  10.362   9.464
  546POPC   GL110873   6.584  10.440   9.134
  546POPC   GL210874   6.844  10.726   9.075
  546POPC   C1A10875   6.691  10.416   8.683
  546POPC   D2A10876   6.427  10.518   8.334
  546POPC   C3A10877   6.557  10.428   7.920
  546POPC   C4A10878   6.882  10.235   7.683
  546POPC   C1B10879   6.943  10.902   8.700
  546POPC   C2B10880   6.954  10.686   8.287
  546POPC   C3B10881   6.939  10.776   7.841
  546POPC   C4B10882   6.944  10.728   7.384
  547POPC   NC310883  39.208  33.253   9.472
  547POPC   PO410884  39.564  32.747   9.575
  547POPC   GL110885  39.360  32.858   9.162
  547POPC   GL210886  39.498  33.167   9.028
  547POPC   C1A10887  39.034  32.961   8.830
  547POPC   D2A10888  38.972  33.043   8.380
  547POPC   C3A10889  39.272  32.778   8.145
  547POPC   C4A10890  39.503  32.768   7.751
  547POPC   C1B10891  39.310  33.356   8.632
  547POPC   C2B10892  39.195  33.490   8.218
  547POPC   C3B10893  39.268  33.342   7.800
  547POPC   C4B10894  39.267  33.139   7.372
  548POPC   NC310895   9.582  30.493   9.462
  548POPC   PO410896  10.048  31.007   9.514
  548POPC   GL110897   9.994  30.784   9.163
  548POPC   GL210898   9.681  30.894   9.156
  548POPC   C1A10899   9.905  30.713   8.740
  548POPC   D2A10900   9.729  30.709   8.360
  548POPC   C3A10901   9.967  30.669   7.998
  548POPC   C4A10902   9.925  30.825   7.627
  548POPC   C1B10903   9.503  31.040   8.759
  548POPC   C2B10904   9.262  30.923   8.396
  548POPC   C3B10905   9.421  30.827   7.964
  548POPC   C4B10906   9.483  31.139   7.622
  549POPC   NC310907  13.176  20.828  10.070
  549POPC   PO410908  13.600  20.545   9.574
  549POPC   GL110909  13.501  20.514   9.151
  549POPC   GL210910  13.651  20.187   9.168
  549POPC   C1A10911  13.416  20.673   8.732
  549POPC   D2A10912  13.447  20.888   8.322
  549POPC   C3A10913  13.562  20.603   8.003
  549POPC   C4A10914  13.457  20.455   7.571
  549POPC   C1B10915  13.788  20.302   8.772
  549POPC   C2B10916  13.867  20.620   8.488
  549POPC   C3B10917  14.061  20.604   8.112
  549POPC   C4B10918  13.951  20.573   7.679
  550POPC   NC310919  19.528   3.720   9.577
  550POPC   PO410920  20.164   3.709   9.372
  550POPC   GL110921  19.917   3.532   9.092
  550POPC   GL210922  19.579   3.554   9.108
  550POPC   C1A10923  19.881   3.558   8.672
  550POPC   D2A10924  20.050   3.786   8.396
  550POPC   C3A10925  19.687   3.809   8.178
  550POPC   C4A10926  19.658   3.710   7.764
  550POPC   C1B10927  19.513   3.255   8.784
  550POPC   C2B10928  19.435   3.379   8.385
  550POPC   C3B10929  19.588   3.270   8.012
  550POPC   C4B10930  19.359   3.299   7.647
  551POPC   NC310931  19.384   9.806   9.377
  551POPC   PO410932  18.910   9.306   9.438
  551POPC   GL110933  18.878   9.612   9.126
  551POPC   GL210934  18.774   9.986   9.194
  551POPC   C1A10935  18.908   9.461   8.717
  551POPC   D2A10936  18.956   9.374   8.282
  551POPC   C3A10937  19.215   9.663   8.099
  551POPC   C4A10938  19.201   9.822   7.684
  551POPC   C1B10939  18.986   9.983   8.776
  551POPC   C2B10940  18.792   9.852   8.383
  551POPC   C3B10941  18.743   9.841   7.952
  551POPC   C4B10942  18.774  10.138   7.622
  552POPC   NC310943  25.522  29.745   9.524
  552POPC   PO410944  24.917  30.049   9.504
  552POPC   GL110945  25.117  29.776   9.193
  552POPC   GL210946  25.361  30.016   9.121
  552POPC   C1A10947  25.336  29.575   8.850
  552POPC   D2A10948  25.300  29.793   8.448
  552POPC   C3A10949  25.364  29.577   8.075
  552POPC   C4A10950  25.430  29.686   7.688
  552POPC   C1B10951  25.291  30.248   8.777
  552POPC   C2B10952  25.229  30.317   8.373
  552POPC   C3B10953  25.261  30.077   8.005
  552POPC   C4B10954  25.186  30.129   7.576
  553POPC   NC310955  18.192   6.411   9.637
  553POPC   PO410956  18.655   6.846   9.601
  553POPC   GL110957  18.526   6.517   9.269
  553POPC   GL210958  18.296   6.736   9.197
  553POPC   C1A10959  18.361   6.380   8.855
  553POPC   D2A10960  18.333   6.287   8.412
  553POPC   C3A10961  18.265   6.418   7.981
  553POPC   C4A10962  18.481   6.422   7.590
  553POPC   C1B10963  18.532   6.849   8.784
  553POPC   C2B10964  18.346   6.891   8.346
  553POPC   C3B10965  18.278   7.168   7.958
  553POPC   C4B10966  18.088   7.400   7.565
  554POPC   NC310967  29.922   4.484   9.363
  554POPC   PO410968  30.021   3.832   9.338
  554POPC   GL110969  30.001   4.114   9.021
  554POPC   GL210970  29.668   4.191   9.041
  554POPC   C1A10971  30.199   4.304   8.675
  554POPC   D2A10972  30.357   4.182   8.303
  554POPC   C3A10973  30.030   4.210   8.011
  554POPC   C4A10974  29.989   3.997   7.669
  554POPC   C1B10975  29.742   4.492   8.749
  554POPC   C2B10976  29.703   4.315   8.380
  554POPC   C3B10977  29.550   4.425   7.994
  554POPC   C4B10978  29.754   4.736   7.723
  555POPC   NC310979  41.332  31.831   9.514
  555POPC   PO410980  41.927  31.473   9.550
  555POPC   GL110981  41.648  31.500   9.212
  555POPC   GL210982  41.352  31.281   9.156
  555POPC   C1A10983  41.777  31.436   8.812
  555POPC   D2A10984  41.721  31.301   8.403
  555POPC   C3A10985  41.824  31.525   8.057
  555POPC   C4A10986  41.801  31.276   7.699
  555POPC   C1B10987  41.287  31.304   8.701
  555POPC   C2B10988  41.216  31.219   8.258
  555POPC   C3B10989  41.352  31.362   7.869
  555POPC   C4B10990  41.267  31.615   7.504
  556POPC   NC310991  32.752  32.541   9.649
  556POPC   PO410992  32.889  33.266   9.683
  556POPC   GL110993  33.048  33.254   9.232
  556POPC   GL210994  33.420  33.236   9.165
  556POPC   C1A10995  32.975  33.076   8.795
  556POPC   D2A10996  32.864  33.257   8.389
  556POPC   C3A10997  32.910  33.188   7.949
  556POPC   C4A10998  32.831  32.897   7.630
  556POPC   C1B10999  33.467  32.930   8.827
  556POPC   C2B11000  33.295  32.926   8.404
  556POPC   C3B11001  33.411  33.134   8.036
  556POPC   C4B11002  33.289  33.090   7.616
  557POPC   NC311003   9.329  39.143   9.540
  557POPC   PO411004   9.877  38.902   9.666
  557POPC   GL111005   9.781  39.030   9.230
  557POPC   GL211006   9.683  39.388   9.242
  557POPC   C1A11007   9.651  38.969   8.773
  557POPC   D2A11008   9.434  39.012   8.362
  557POPC   C3A11009   9.597  38.912   7.952
  557POPC   C4A11010   9.885  39.133   7.702
  557POPC   C1B11011   9.948  39.371   8.878
  557POPC   C2B11012   9.839  39.318   8.424
  557POPC   C3B11013   9.870  39.532   8.019
  557POPC   C4B11014  10.081  39.724   7.636
  558POPC   NC311015  26.842  28.579   9.414
  558POPC   PO411016  26.454  28.076   9.233
  558POPC   GL111017  26.673  28.385   8.987
  558POPC   GL211018  26.558  28.747   9.031
  558POPC   C1A11019  26.951  28.295   8.668
  558POPC   D2A11020  26.758  28.122   8.299
  558POPC   C3A11021  26.927  28.185   7.866
  558POPC   C4A11022  26.867  28.072   7.406
  558POPC   C1B11023  26.933  28.820   8.748
  558POPC   C2B11024  27.015  28.688   8.319
  558POPC   C3B11025  26.807  28.703   7.925
  558POPC   C4B11026  26.946  28.567   7.499
  559POPC   NC311027   0.201  20.196   9.518
  559POPC   PO411028   0.615  20.785   9.505
  559POPC   GL111029   0.426  20.858   9.127
  559POPC   GL211030   0.236  20.559   9.146
  559POPC   C1A11031   0.507  20.673   8.712
  559POPC   D2A11032   0.487  20.524   8.283
  559POPC   C3A11033   0.471  20.896   7.992
  559POPC   C4A11034   0.439  20.998   7.548
  559POPC   C1B11035   0.153  20.287   8.789
  559POPC   C2B11036  44.969  20.411   8.395
  559POPC   C3B11037   0.085  20.338   7.986
  559POPC   C4B11038   0.482  20.451   7.760
  560POPC   NC311039   2.332  35.163   9.403
  560POPC   PO411040   1.729  35.148   9.567
  560POPC   GL111041   1.900  35.227   9.142
  560POPC   GL211042   1.713  35.497   8.953
  560POPC   C1A11043   1.956  35.086   8.752
  560POPC   D2A11044   2.139  35.142   8.379
  560POPC   C3A11045   1.969  35.440   8.132
  560POPC   C4A11046   2.010  35.326   7.725
  560POPC   C1B11047   2.070  35.580   8.682
  560POPC   C2B11048   2.407  35.640   8.381
  560POPC   C3B11049   2.371  35.641   7.918
  560POPC   C4B11050   1.946  35.828   7.759
  561POPC   NC311051  17.842   9.930   9.530
  561POPC   PO411052  18.063   9.301   9.516
  561POPC   GL111053  18.358   9.582   9.248
  561POPC   GL211054  18.108   9.823   9.116
  561POPC   C1A11055  18.489   9.776   8.810
  561POPC   D2A11056  18.119   9.787   8.548
  561POPC   C3A11057  17.859   9.887   8.150
  561POPC   C4A11058  17.939   9.692   7.765
  561POPC   C1B11059  17.863  10.109   8.856
  561POPC   C2B11060  17.993  10.262   8.461
  561POPC   C3B11061  18.328  10.093   8.198
  561POPC   C4B11062  18.292  10.051   7.781
  562POPC   NC311063  42.751  10.830   9.535
  562POPC   PO411064  43.039  11.471   9.495
  562POPC   GL111065  43.028  11.305   9.079
  562POPC   GL211066  42.739  11.045   9.073
  562POPC   C1A11067  43.255  11.328   8.662
  562POPC   D2A11068  43.589  11.168   8.363
  562POPC   C3A11069  43.373  11.078   7.991
  562POPC   C4A11070  43.101  11.356   7.743
  562POPC   C1B11071  42.705  11.242   8.666
  562POPC   C2B11072  42.935  11.169   8.263
  562POPC   C3B11073  42.884  10.907   7.887
  562POPC   C4B11074  42.886  10.998   7.391
  563POPC   NC311075   9.404  13.094   9.580
  563POPC   PO411076   9.966  12.745   9.579
  563POPC   GL111077   9.940  12.819   9.156
  563POPC   GL211078   9.600  12.905   9.110
  563POPC   C1A11079   9.888  12.654   8.747
  563POPC   D2A11080  10.008  12.779   8.381
  563POPC   C3A11081   9.851  12.689   8.045
  563POPC   C4A11082  10.013  12.779   7.632
  563POPC   C1B11083   9.783  13.152   8.736
  563POPC   C2B11084   9.726  13.328   8.302
  563POPC   C3B11085   9.715  13.150   7.871
  563POPC   C4B11086   9.521  12.760   7.674
  564POPC   NC311087  43.602   8.569   9.296
  564POPC   PO411088  44.126   9.023   9.533
  564POPC   GL111089  43.956   8.906   9.139
  564POPC   GL211090  43.784   9.147   9.004
  564POPC   C1A11091  43.907   8.704   8.714
  564POPC   D2A11092  44.027   8.514   8.321
  564POPC   C3A11093  43.806   8.739   8.001
  564POPC   C4A11094  44.021   9.078   7.763
  564POPC   C1B11095  43.799   9.247   8.624
  564POPC   C2B11096  43.757   9.168   8.241
  564POPC   C3B11097  43.551   9.219   7.876
  564POPC   C4B11098  43.518   9.080   7.502
  565POPC   NC311099  31.453  39.477   9.495
  565POPC   PO411100  32.042  39.112   9.517
  565POPC   GL111101  31.785  39.350   9.125
  565POPC   GL211102  31.445  39.265   9.044
  565POPC   C1A11103  31.650  39.572   8.714
  565POPC   D2A11104  31.397  39.344   8.429
  565POPC   C3A11105  31.485  39.424   8.019
  565POPC   C4A11106  31.455  39.180   7.677
  565POPC   C1B11107  31.218  38.978   8.819
  565POPC   C2B11108  31.257  38.833   8.429
  565POPC   C3B11109  31.140  39.035   8.085
  565POPC   C4B11110  31.022  38.906   7.685
  566POPC   NC311111  39.028  26.506   9.415
  566POPC   PO411112  39.675  26.561   9.620
  566POPC   GL111113  39.430  26.844   9.298
  566POPC   GL211114  39.051  26.997   9.300
  566POPC   C1A11115  39.403  26.814   8.832
  566POPC   D2A11116  39.617  26.923   8.421
  566POPC   C3A11117  39.470  26.803   7.990
  566POPC   C4A11118  39.410  26.644   7.553
  566POPC   C1B11119  38.878  26.940   8.879
  566POPC   C2B11120  39.013  26.831   8.482
  566POPC   C3B11121  38.974  26.741   8.056
  566POPC   C4B11122  39.065  26.991   7.696
  567POPC   NC311123  35.181  21.095   9.418
  567POPC   PO411124  35.683  21.547   9.495
  567POPC   GL111125  35.358  21.496   9.144
  567POPC   GL211126  35.267  21.155   8.942
  567POPC   C1A11127  35.303  21.687   8.764
  567POPC   D2A11128  35.569  21.692   8.400
  567POPC   C3A11129  35.388  21.687   7.989
  567POPC   C4A11130  35.443  21.847   7.585
  567POPC   C1B11131  35.570  21.240   8.663
  567POPC   C2B11132  35.503  21.229   8.244
  567POPC   C3B11133  35.526  21.223   7.863
  567POPC   C4B11134  35.194  21.171   7.635
  568POPC   NC311135  37.688   8.390   9.564
  568POPC   PO411136  37.515   7.813   9.236
  568POPC   GL111137  37.906   7.972   9.036
  568POPC   GL211138  37.975   8.304   9.134
  568POPC   C1A11139  38.044   8.040   8.628
  568POPC   D2A11140  37.767   8.010   8.272
  568POPC   C3A11141  37.820   8.196   7.876
  568POPC   C4A11142  37.420   8.333   7.724
  568POPC   C1B11143  37.715   8.434   8.845
  568POPC   C2B11144  37.829   8.497   8.451
  568POPC   C3B11145  37.585   8.590   8.130
  568POPC   C4B11146  37.766   8.712   7.777
  569POPC   NC311147  38.145  43.061   9.588
  569POPC   PO411148  38.863  42.843   9.509
  569POPC   GL111149  38.566  43.132   9.245
  569POPC   GL211150  38.256  43.324   9.152
  569POPC   C1A11151  38.544  43.064   8.780
  569POPC   D2A11152  38.773  43.018   8.377
  569POPC   C3A11153  38.601  42.978   7.956
  569POPC   C4A11154  38.566  43.231   7.563
  569POPC   C1B11155  38.043  43.181   8.752
  569POPC   C2B11156  38.230  43.107   8.312
  569POPC   C3B11157  38.138  43.192   7.861
  569POPC   C4B11158  38.092  43.174   7.392
  570POPC   NC311159  41.837   6.108   9.417
  570POPC   PO411160  41.207   5.679   9.423
  570POPC   GL111161  41.464   5.858   9.111
  570POPC   GL211162  41.343   6.200   9.054
  570POPC   C1A11163  41.787   5.812   8.778
  570POPC   D2A11164  41.952   6.045   8.409
  570POPC   C3A11165  41.676   6.239   8.130
  570POPC   C4A11166  41.498   6.047   7.777
  570POPC   C1B11167  41.422   6.125   8.610
  570POPC   C2B11168  41.393   5.824   8.279
  570POPC   C3B11169  41.285   5.532   7.953
  570POPC   C4B11170  41.337   5.618   7.514
  571POPC   NC311171   0.579  14.756   9.812
  571POPC   PO411172   0.232  15.365   9.527
  571POPC   GL111173   0.340  15.052   9.254
  571POPC   GL211174   0.639  15.266   9.179
  571POPC   C1A11175   0.340  15.017   8.807
  571POPC   D2A11176   0.385  15.246   8.399
  571POPC   C3A11177   0.406  15.001   8.029
  571POPC   C4A11178   0.174  14.936   7.664
  571POPC   C1B11179   0.565  15.529   8.813
  571POPC   C2B11180   0.720  15.626   8.388
  571POPC   C3B11181   0.591  15.492   7.947
  571POPC   C4B11182   0.452  15.395   7.525
  572POPC   NC311183  38.011  13.748   9.546
  572POPC   PO411184  37.347  13.635   9.549
  572POPC   GL111185  37.497  13.608   9.135
  572POPC   GL211186  37.749  13.842   9.082
  572POPC   C1A11187  37.610  13.401   8.757
  572POPC   D2A11188  37.626  13.175   8.363
  572POPC   C3A11189  37.769  13.456   8.069
  572POPC   C4A11190  37.387  13.532   7.870
  572POPC   C1B11191  37.943  13.773   8.676
  572POPC   C2B11192  37.716  13.905   8.353
  572POPC   C3B11193  37.682  13.944   7.937
  572POPC   C4B11194  37.712  13.685   7.539
  573POPC   NC311195   5.645  36.531   9.463
  573POPC   PO411196   5.941  37.111   9.331
  573POPC   GL111197   5.810  36.812   9.080
  573POPC   GL211198   6.123  36.634   9.221
  573POPC   C1A11199   5.697  36.955   8.685
  573POPC   D2A11200   5.993  37.146   8.378
  573POPC   C3A11201   5.774  37.284   8.019
  573POPC   C4A11202   5.804  37.087   7.644
  573POPC   C1B11203   6.132  36.614   8.738
  573POPC   C2B11204   5.867  36.593   8.367
  573POPC   C3B11205   5.944  36.756   7.992
  573POPC   C4B11206   6.200  36.789   7.617
  574POPC   NC311207  25.125  27.998   9.283
  574POPC   PO411208  25.340  27.383   9.587
  574POPC   GL111209  25.475  27.510   9.205
  574POPC   GL211210  25.620  27.849   9.290
  574POPC   C1A11211  25.359  27.350   8.806
  574POPC   D2A11212  25.458  27.208   8.406
  574POPC   C3A11213  25.211  27.428   8.110
  574POPC   C4A11214  25.483  27.437   7.762
  574POPC   C1B11215  25.648  27.806   8.835
  574POPC   C2B11216  25.410  27.751   8.471
  574POPC   C3B11217  25.473  27.857   8.063
  574POPC   C4B11218  25.132  27.865   7.823
  575POPC   NC311219  44.332   2.312   9.413
  575POPC   PO411220  44.806   1.910   9.634
  575POPC   GL111221  44.823   1.962   9.205
  575POPC   GL211222  44.994   1.650   9.180
  575POPC   C1A11223  44.683   2.088   8.797
  575POPC   D2A11224  44.414   2.146   8.447
  575POPC   C3A11225  44.644   2.097   8.076
  575POPC   C4A11226  44.439   2.197   7.711
  575POPC   C1B11227  44.806   1.596   8.798
  575POPC   C2B11228  44.955   1.797   8.430
  575POPC   C3B11229  44.983   1.686   8.014
  575POPC   C4B11230  44.628   1.694   7.737
  576POPC   NC311231  34.018  19.218   9.396
  576POPC   PO411232  34.680  19.198   9.515
  576POPC   GL111233  34.612  19.178   9.131
  576POPC   GL211234  34.328  18.982   9.048
  576POPC   C1A11235  34.765  18.980   8.785
  576POPC   D2A11236  35.004  18.928   8.384
  576POPC   C3A11237  34.765  19.010   8.041
  576POPC   C4A11238  34.379  18.923   7.821
  576POPC   C1B11239  34.333  19.278   8.718
  576POPC   C2B11240  34.322  19.213   8.274
  576POPC   C3B11241  34.377  19.419   7.884
  576POPC   C4B11242  34.330  19.341   7.433
  577POPC   NC311243  20.162   9.473   9.400
  577POPC   PO411244  19.847  10.110   9.433
  577POPC   GL111245  19.791   9.786   9.093
  577POPC   GL211246  19.986   9.508   8.929
  577POPC   C1A11247  19.576   9.671   8.683
  577POPC   D2A11248  19.840   9.560   8.328
  577POPC   C3A11249  19.692   9.738   7.948
  577POPC   C4A11250  19.611   9.578   7.537
  577POPC   C1B11251  20.056   9.875   8.688
  577POPC   C2B11252  20.213   9.918   8.295
  577POPC   C3B11253  20.205   9.703   7.940
  577POPC   C4B11254  20.057   9.861   7.589
  578POPC   NC311255  43.377  41.315   9.377
  578POPC   PO411256  42.872  41.640   9.331
  578POPC   GL111257  43.099  41.606   9.031
  578POPC   GL211258  43.390  41.830   9.185
  578POPC   C1A11259  42.866  41.583   8.655
  578POPC   D2A11260  42.844  41.780   8.294
  578POPC   C3A11261  42.915  41.554   7.957
  578POPC   C4A11262  42.946  41.717   7.560
  578POPC   C1B11263  43.535  41.636   8.795
  578POPC   C2B11264  43.331  41.514   8.429
  578POPC   C3B11265  43.470  41.470   8.039
  578POPC   C4B11266  43.439  41.593   7.634
  579POPC   NC311267  30.957  17.684   9.458
  579POPC   PO411268  30.496  17.207   9.443
  579POPC   GL111269  30.679  17.434   9.113
  579POPC   GL211270  30.994  17.270   9.087
  579POPC   C1A11271  30.577  17.786   8.797
  579POPC   D2A11272  30.666  17.616   8.392
  579POPC   C3A11273  30.699  17.770   7.978
  579POPC   C4A11274  30.516  17.450   7.737
  579POPC   C1B11275  31.030  17.564   8.767
  579POPC   C2B11276  31.180  17.680   8.386
  579POPC   C3B11277  31.087  17.417   8.060
  579POPC   C4B11278  31.040  17.431   7.658
  580POPC   NC311279  12.310  27.840   9.479
  580POPC   PO411280  12.982  27.841   9.659
  580POPC   GL111281  12.777  27.596   9.295
  580POPC   GL211282  12.927  27.243   9.174
  580POPC   C1A11283  12.782  27.735   8.876
  580POPC   D2A11284  13.067  27.887   8.562
  580POPC   C3A11285  12.987  27.850   8.120
  580POPC   C4A11286  12.648  27.820   7.858
  580POPC   C1B11287  12.667  27.252   8.793
  580POPC   C2B11288  12.756  27.138   8.349
  580POPC   C3B11289  12.928  27.346   7.988
  580POPC   C4B11290  13.145  27.565   7.675
  581POPC   NC311291   4.697  11.189   9.986
  581POPC   PO411292   5.058  11.417   9.469
  581POPC   GL111293   4.804  11.226   9.129
  581POPC   GL211294   4.655  10.860   9.166
  581POPC   C1A11295   4.906  11.416   8.722
  581POPC   D2A11296   5.316  11.474   8.519
  581POPC   C3A11297   5.336  11.376   8.084
  581POPC   C4A11298   5.316  11.056   7.791
  581POPC   C1B11299   4.738  10.939   8.712
  581POPC   C2B11300   4.970  11.068   8.346
  581POPC   C3B11301   4.816  11.012   7.948
  581POPC   C4B11302   5.020  10.650   7.864
  582POPC   NC311303  16.411  30.594   9.511
  582POPC   PO411304  16.989  30.704   9.761
  582POPC   GL111305  16.921  30.692   9.280
  582POPC   GL211306  17.048  31.037   9.196
  582POPC   C1A11307  16.701  30.518   8.877
  582POPC   D2A11308  16.628  30.602   8.409
  582POPC   C3A11309  16.534  30.479   7.939
  582POPC   C4A11310  16.752  30.669   7.531
  582POPC   C1B11311  16.685  31.024   8.895
  582POPC   C2B11312  16.686  31.117   8.440
  582POPC   C3B11313  16.732  30.934   8.014
  582POPC   C4B11314  16.850  31.149   7.635
  583POPC   NC311315  12.491  17.305   9.925
  583POPC   PO411316  13.010  17.319   9.471
  583POPC   GL111317  12.974  17.480   9.077
  583POPC   GL211318  12.755  17.703   9.066
  583POPC   C1A11319  13.053  17.508   8.656
  583POPC   D2A11320  13.130  17.735   8.294
  583POPC   C3A11321  13.077  17.451   7.983
  583POPC   C4A11322  13.189  17.455   7.547
  583POPC   C1B11323  12.556  17.666   8.712
  583POPC   C2B11324  12.599  17.528   8.303
  583POPC   C3B11325  12.612  17.678   7.909
  583POPC   C4B11326  12.677  17.405   7.570
  584POPC   NC311327   3.146  17.871   9.553
  584POPC   PO411328   2.607  17.419   9.540
  584POPC   GL111329   2.508  17.598   9.157
  584POPC   GL211330   2.802  17.840   9.159
  584POPC   C1A11331   2.649  17.554   8.743
  584POPC   D2A11332   2.986  17.419   8.473
  584POPC   C3A11333   2.880  17.330   8.064
  584POPC   C4A11334   2.611  17.350   7.720
  584POPC   C1B11335   2.826  18.040   8.751
  584POPC   C2B11336   2.685  17.866   8.331
  584POPC   C3B11337   2.733  17.809   7.892
  584POPC   C4B11338   2.881  17.871   7.493
  585POPC   NC311339  27.233  36.966   9.356
  585POPC   PO411340  27.908  36.749   9.556
  585POPC   GL111341  27.665  36.695   9.204
  585POPC   GL211342  27.974  36.627   9.061
  585POPC   C1A11343  27.526  36.640   8.765
  585POPC   D2A11344  27.729  36.665   8.356
  585POPC   C3A11345  27.411  36.706   8.022
  585POPC   C4A11346  27.164  36.701   7.633
  585POPC   C1B11347  27.873  37.027   8.820
  585POPC   C2B11348  27.702  37.156   8.390
  585POPC   C3B11349  27.827  37.012   7.969
  585POPC   C4B11350  27.881  37.230   7.587
  586POPC   NC311351  37.789  42.421   9.523
  586POPC   PO411352  37.107  42.589   9.346
  586POPC   GL111353  37.453  42.488   9.082
  586POPC   GL211354  37.473  42.135   9.181
  586POPC   C1A11355  37.622  42.493   8.634
  586POPC   D2A11356  37.582  42.364   8.175
  586POPC   C3A11357  37.740  42.458   7.724
  586POPC   C4A11358  37.933  42.673   7.346
  586POPC   C1B11359  37.746  42.029   8.832
  586POPC   C2B11360  37.870  41.978   8.408
  586POPC   C3B11361  37.819  41.935   7.971
  586POPC   C4B11362  38.043  41.995   7.628
  587POPC   NC311363  17.117  31.624   9.617
  587POPC   PO411364  17.707  31.750   9.844
  587POPC   GL111365  17.465  31.781   9.291
  587POPC   GL211366  17.159  31.605   9.133
  587POPC   C1A11367  17.540  31.523   8.836
  587POPC   D2A11368  17.735  31.272   8.483
  587POPC   C3A11369  17.547  31.287   8.071
  587POPC   C4A11370  17.345  31.293   7.674
  587POPC   C1B11371  17.160  31.876   8.804
  587POPC   C2B11372  17.441  31.896   8.474
  587POPC   C3B11373  17.316  31.762   8.101
  587POPC   C4B11374  17.346  31.819   7.684
  588POPC   NC311375  13.244  21.848   9.854
  588POPC   PO411376  12.619  22.063   9.586
  588POPC   GL111377  12.655  22.160   9.183
  588POPC   GL211378  12.990  22.031   9.175
  588POPC   C1A11379  12.779  22.438   8.873
  588POPC   D2A11380  12.964  22.559   8.485
  588POPC   C3A11381  12.821  22.319   8.162
  588POPC   C4A11382  12.676  22.427   7.778
  588POPC   C1B11383  12.862  21.912   8.729
  588POPC   C2B11384  12.923  21.638   8.335
  588POPC   C3B11385  13.124  21.733   7.953
  588POPC   C4B11386  12.846  21.814   7.609
  589POPC   NC311387  20.708  31.664   9.577
  589POPC   PO411388  20.414  31.055   9.483
  589POPC   GL111389  20.733  31.316   9.223
  589POPC   GL211390  20.468  31.539   9.128
  589POPC   C1A11391  20.883  31.550   8.847
  589POPC   D2A11392  20.587  31.527   8.479
  589POPC   C3A11393  20.709  31.557   8.098
  589POPC   C4A11394  20.764  31.582   7.686
  589POPC   C1B11395  20.363  31.247   8.826
  589POPC   C2B11396  20.130  31.275   8.410
  589POPC   C3B11397  20.310  31.238   7.993
  589POPC   C4B11398  20.172  31.326   7.576
  590POPC   NC311399  27.111  18.221   9.813
  590POPC   PO411400  27.700  18.410   9.511
  590POPC   GL111401  27.764  18.243   9.114
  590POPC   GL211402  27.488  18.488   9.036
  590POPC   C1A11403  27.622  18.084   8.739
  590POPC   D2A11404  27.491  18.369   8.417
  590POPC   C3A11405  27.571  18.196   8.021
  590POPC   C4A11406  27.496  18.149   7.604
  590POPC   C1B11407  27.879  18.651   8.841
  590POPC   C2B11408  27.894  18.809   8.429
  590POPC   C3B11409  27.687  18.692   8.073
  590POPC   C4B11410  27.827  18.552   7.678
  591POPC   NC311411  43.400  29.556   9.663
  591POPC   PO411412  42.753  29.895   9.583
  591POPC   GL111413  42.878  30.036   9.170
  591POPC   GL211414  42.922  30.363   9.189
  591POPC   C1A11415  43.043  29.876   8.747
  591POPC   D2A11416  43.450  29.929   8.515
  591POPC   C3A11417  43.420  29.876   8.064
  591POPC   C4A11418  43.404  30.200   7.768
  591POPC   C1B11419  42.712  30.264   8.764
  591POPC   C2B11420  42.658  30.024   8.362
  591POPC   C3B11421  42.923  30.008   7.974
  591POPC   C4B11422  42.947  30.321   7.620
  592POPC   NC311423   9.878  44.448   9.447
  592POPC   PO411424   9.569   0.075   9.430
  592POPC   GL111425   9.873  44.854   9.156
  592POPC   GL211426   9.646  44.579   9.011
  592POPC   C1A11427  10.046  44.790   8.733
  592POPC   D2A11428  10.170  44.913   8.310
  592POPC   C3A11429   9.849  44.899   7.960
  592POPC   C4A11430   9.732  44.786   7.511
  592POPC   C1B11431   9.772  44.355   8.632
  592POPC   C2B11432   9.939  44.371   8.197
  592POPC   C3B11433   9.736  44.367   7.789
  592POPC   C4B11434   9.596  44.309   7.336
  593POPC   NC311435  11.479  12.784   9.651
  593POPC   PO411436  11.108  13.236   9.427
  593POPC   GL111437  11.219  13.023   9.081
  593POPC   GL211438  11.170  12.684   9.199
  593POPC   C1A11439  11.412  12.796   8.747
  593POPC   D2A11440  11.583  12.920   8.359
  593POPC   C3A11441  11.319  12.993   8.017
  593POPC   C4A11442  11.408  12.724   7.741
  593POPC   C1B11443  10.895  12.697   8.806
  593POPC   C2B11444  11.017  12.787   8.387
  593POPC   C3B11445  10.915  12.622   7.991
  593POPC   C4B11446  10.942  12.910   7.656
  594POPC   NC311447   1.409  25.272   9.453
  594POPC   PO411448   0.922  24.785   9.418
  594POPC   GL111449   1.055  25.106   9.111
  594POPC   GL211450   1.417  25.091   8.999
  594POPC   C1A11451   1.081  25.285   8.685
  594POPC   D2A11452   0.967  25.498   8.323
  594POPC   C3A11453   1.055  25.268   7.961
  594POPC   C4A11454   1.009  25.309   7.536
  594POPC   C1B11455   1.586  25.239   8.616
  594POPC   C2B11456   1.488  25.313   8.222
  594POPC   C3B11457   1.485  25.579   7.898
  594POPC   C4B11458   1.666  25.616   7.530
  595POPC   NC311459   5.162  42.455   9.484
  595POPC   PO411460   4.596  42.047   9.578
  595POPC   GL111461   4.724  42.275   9.137
  595POPC   GL211462   5.091  42.253   9.030
  595POPC   C1A11463   4.806  42.265   8.640
  595POPC   D2A11464   5.046  42.277   8.275
  595POPC   C3A11465   4.810  42.355   7.910
  595POPC   C4A11466   4.896  42.576   7.492
  595POPC   C1B11467   5.261  42.545   8.703
  595POPC   C2B11468   5.256  42.772   8.304
  595POPC   C3B11469   5.234  42.610   7.909
  595POPC   C4B11470   5.499  42.387   7.660
  596POPC   NC311471   6.547  36.221   9.556
  596POPC   PO411472   6.290  35.598   9.248
  596POPC   GL111473   6.590  35.973   9.092
  596POPC   GL211474   6.466  36.289   9.063
  596POPC   C1A11475   6.971  35.994   8.815
  596POPC   D2A11476   6.977  35.846   8.405
  596POPC   C3A11477   6.623  35.961   8.161
  596POPC   C4A11478   6.809  36.039   7.757
  596POPC   C1B11479   6.527  36.225   8.649
  596POPC   C2B11480   6.322  36.367   8.314
  596POPC   C3B11481   6.447  36.599   8.013
  596POPC   C4B11482   6.560  36.452   7.645
  597POPC   NC311483  26.110  38.200   9.922
  597POPC   PO411484  26.513  38.588   9.619
  597POPC   GL111485  26.144  38.438   9.363
  597POPC   GL211486  26.092  38.678   9.071
  597POPC   C1A11487  25.949  38.172   9.024
  597POPC   D2A11488  25.876  38.187   8.570
  597POPC   C3A11489  26.014  38.065   8.162
  597POPC   C4A11490  25.936  38.253   7.759
  597POPC   C1B11491  26.373  38.722   8.697
  597POPC   C2B11492  26.264  38.503   8.320
  597POPC   C3B11493  26.231  38.648   7.899
  597POPC   C4B11494  25.870  38.714   7.601
  598POPC   NC311495  37.645  12.455   9.617
  598POPC   PO411496  37.500  11.830   9.590
  598POPC   GL111497  37.706  11.875   9.187
  598POPC   GL211498  37.813  12.190   9.199
  598POPC   C1A11499  37.625  11.984   8.737
  598POPC   D2A11500  37.584  12.195   8.328
  598POPC   C3A11501  37.645  11.978   7.941
  598POPC   C4A11502  37.510  12.030   7.518
  598POPC   C1B11503  37.901  12.403   8.839
  598POPC   C2B11504  38.082  12.299   8.463
  598POPC   C3B11505  38.003  12.340   8.040
  598POPC   C4B11506  37.988  12.203   7.599
  599POPC   NC311507  30.540  28.981   9.447
  599POPC   PO411508  30.692  29.609   9.413
  599POPC   GL111509  30.796  29.277   9.107
  599POPC   GL211510  30.482  29.180   8.975
  599POPC   C1A11511  30.907  29.091   8.702
  599POPC   D2A11512  30.651  29.213   8.383
  599POPC   C3A11513  30.861  29.393   8.090
  599POPC   C4A11514  31.115  29.476   7.737
  599POPC   C1B11515  30.416  28.875   8.688
  599POPC   C2B11516  30.678  28.706   8.379
  599POPC   C3B11517  30.799  28.893   7.992
  599POPC   C4B11518  30.456  29.194   7.851
  600POPC   NC311519  36.391  22.743   9.519
  600POPC   PO411520  35.775  22.935   9.340
  600POPC   GL111521  36.198  23.103   9.178
  600POPC   GL211522  36.427  23.434   9.132
  600POPC   C1A11523  36.367  22.883   8.829
  600POPC   D2A11524  36.154  22.793   8.432
  600POPC   C3A11525  36.253  22.889   8.006
  600POPC   C4A11526  36.025  22.979   7.612
  600POPC   C1B11527  36.640  23.299   8.713
  600POPC   C2B11528  36.565  23.246   8.233
  600POPC   C3B11529  36.373  23.342   7.798
  600POPC   C4B11530  36.294  23.289   7.348
  601POPC   NC311531  24.252  18.651   9.473
  601POPC   PO411532  24.624  19.161   9.308
  601POPC   GL111533  24.347  19.363   9.051
  601POPC   GL211534  24.073  19.279   9.228
  601POPC   C1A11535  24.459  19.300   8.613
  601POPC   D2A11536  24.656  18.960   8.415
  601POPC   C3A11537  24.784  19.073   8.014
  601POPC   C4A11538  24.660  18.924   7.650
  601POPC   C1B11539  24.173  18.914   8.889
  601POPC   C2B11540  24.180  18.770   8.440
  601POPC   C3B11541  24.267  18.965   8.040
  601POPC   C4B11542  24.162  18.968   7.612
  602POPC   NC311543  41.779  32.750   9.422
  602POPC   PO411544  41.448  32.267   9.590
  602POPC   GL111545  41.774  32.248   9.227
  602POPC   GL211546  41.903  31.926   9.060
  602POPC   C1A11547  41.724  32.343   8.780
  602POPC   D2A11548  41.583  32.169   8.375
  602POPC   C3A11549  41.620  32.377   7.982
  602POPC   C4A11550  41.264  32.417   7.720
  602POPC   C1B11551  41.493  31.853   8.790
  602POPC   C2B11552  41.292  31.725   8.365
  602POPC   C3B11553  41.413  31.889   7.940
  602POPC   C4B11554  41.850  31.945   7.771
  603POPC   NC311555  27.189  20.177   9.382
  603POPC   PO411556  26.725  19.777   9.661
  603POPC   GL111557  26.836  19.792   9.235
  603POPC   GL211558  27.153  19.720   9.145
  603POPC   C1A11559  26.758  19.768   8.782
  603POPC   D2A11560  26.851  19.897   8.333
  603POPC   C3A11561  26.821  19.692   7.909
  603POPC   C4A11562  26.691  19.735   7.446
  603POPC   C1B11563  27.303  19.842   8.755
  603POPC   C2B11564  27.308  19.674   8.339
  603POPC   C3B11565  27.280  19.955   7.973
  603POPC   C4B11566  27.192  19.821   7.536
  604POPC   NC311567  32.496  28.811   9.442
  604POPC   PO411568  32.650  29.533   9.558
  604POPC   GL111569  32.451  29.285   9.243
  604POPC   GL211570  32.164  29.386   9.155
  604POPC   C1A11571  32.375  29.025   8.840
  604POPC   D2A11572  32.274  29.146   8.414
  604POPC   C3A11573  32.192  29.015   7.964
  604POPC   C4A11574  32.431  29.005   7.560
  604POPC   C1B11575  32.441  29.536   8.800
  604POPC   C2B11576  32.292  29.713   8.457
  604POPC   C3B11577  32.132  29.527   8.106
  604POPC   C4B11578  32.186  29.459   7.692
  605POPC   NC311579  16.818  33.694   9.480
  605POPC   PO411580  16.169  33.555   9.467
  605POPC   GL111581  16.488  33.668   9.079
  605POPC   GL211582  16.869  33.728   8.988
  605POPC   C1A11583  16.525  33.733   8.609
  605POPC   D2A11584  16.854  33.641   8.296
  605POPC   C3A11585  16.828  33.774   7.838
  605POPC   C4A11586  16.659  33.605   7.418
  605POPC   C1B11587  16.982  34.071   8.697
  605POPC   C2B11588  16.948  34.154   8.245
  605POPC   C3B11589  17.083  34.240   7.793
  605POPC   C4B11590  16.869  34.087   7.438
  606POPC   NC311591   0.296  16.495   9.479
  606POPC   PO411592   0.895  16.879   9.517
  606POPC   GL111593   0.748  16.905   9.115
  606POPC   GL211594   0.512  16.649   9.064
  606POPC   C1A11595   0.658  16.896   8.668
  606POPC   D2A11596   0.508  16.673   8.344
  606POPC   C3A11597   0.439  16.829   7.902
  606POPC   C4A11598   0.668  16.711   7.505
  606POPC   C1B11599   0.314  16.411   8.775
  606POPC   C2B11600   0.109  16.311   8.406
  606POPC   C3B11601   0.289  16.331   8.053
  606POPC   C4B11602   0.373  16.351   7.675
  607POPC   NC311603   8.326  13.499   9.517
  607POPC   PO411604   7.699  13.803   9.584
  607POPC   GL111605   7.992  13.781   9.212
  607POPC   GL211606   8.183  14.094   9.187
  607POPC   C1A11607   8.182  13.471   8.895
  607POPC   D2A11608   8.456  13.494   8.527
  607POPC   C3A11609   8.288  13.378   8.138
  607POPC   C4A11610   8.130  13.530   7.754
  607POPC   C1B11611   8.255  13.940   8.743
  607POPC   C2B11612   8.267  13.887   8.258
  607POPC   C3B11613   8.477  13.908   7.859
  607POPC   C4B11614   8.354  13.840   7.422
  608POPC   NC311615   3.738  34.028   9.273
  608POPC   PO411616   4.120  33.542   9.537
  608POPC   GL111617   4.130  33.687   9.125
  608POPC   GL211618   4.464  33.822   9.095
  608POPC   C1A11619   4.108  33.786   8.674
  608POPC   D2A11620   4.313  33.867   8.259
  608POPC   C3A11621   4.103  33.694   7.922
  608POPC   C4A11622   4.277  33.500   7.552
  608POPC   C1B11623   4.715  34.139   8.903
  608POPC   C2B11624   4.621  34.176   8.502
  608POPC   C3B11625   4.757  34.145   8.054
  608POPC   C4B11626   4.594  33.838   7.765
  609POPC   NC311627  26.981  14.966   9.521
  609POPC   PO411628  26.843  14.303   9.524
  609POPC   GL111629  26.994  14.298   9.116
  609POPC   GL211630  27.003  14.657   9.114
  609POPC   C1A11631  26.907  14.181   8.694
  609POPC   D2A11632  27.056  14.153   8.281
  609POPC   C3A11633  26.800  14.253   7.880
  609POPC   C4A11634  26.787  14.132   7.419
  609POPC   C1B11635  26.736  14.661   8.750
  609POPC   C2B11636  26.665  14.562   8.312
  609POPC   C3B11637  26.744  14.764   7.909
  609POPC   C4B11638  26.945  14.605   7.515
  610POPC   NC311639  15.071  29.625   9.549
  610POPC   PO411640  15.277  28.947   9.500
  610POPC   GL111641  15.386  29.065   9.151
  610POPC   GL211642  15.366  29.408   9.174
  610POPC   C1A11643  15.308  29.040   8.750
  610POPC   D2A11644  14.970  29.117   8.480
  610POPC   C3A11645  15.263  29.154   8.145
  610POPC   C4A11646  15.356  29.179   7.715
  610POPC   C1B11647  15.161  29.532   8.790
  610POPC   C2B11648  15.071  29.617   8.362
  610POPC   C3B11649  14.915  29.457   7.952
  610POPC   C4B11650  15.092  29.641   7.615
  611POPC   NC311651  26.887  30.258   9.946
  611POPC   PO411652  26.466  30.610   9.514
  611POPC   GL111653  26.722  30.707   9.105
  611POPC   GL211654  26.534  30.960   8.890
  611POPC   C1A11655  26.959  30.556   8.719
  611POPC   D2A11656  27.100  30.680   8.320
  611POPC   C3A11657  27.111  30.489   7.945
  611POPC   C4A11658  26.934  30.668   7.598
  611POPC   C1B11659  26.468  30.641   8.590
  611POPC   C2B11660  26.699  30.359   8.316
  611POPC   C3B11661  26.633  30.652   8.017
  611POPC   C4B11662  26.398  30.573   7.692
  612POPC   NC311663   0.713  25.140   9.604
  612POPC   PO411664   0.049  25.285   9.634
  612POPC   GL111665   0.183  25.274   9.173
  612POPC   GL211666   0.534  25.181   9.102
  612POPC   C1A11667   0.147  25.118   8.723
  612POPC   D2A11668   0.104  24.961   8.270
  612POPC   C3A11669   0.243  25.252   7.930
  612POPC   C4A11670   0.603  25.483   7.813
  612POPC   C1B11671   0.639  25.041   8.662
  612POPC   C2B11672   0.625  25.108   8.211
  612POPC   C3B11673   0.671  24.993   7.764
  612POPC   C4B11674   0.723  24.970   7.283
  613POPC   NC311675  44.806   7.033   9.476
  613POPC   PO411676  44.823   7.732   9.455
  613POPC   GL111677  44.583   7.517   9.188
  613POPC   GL211678  44.749   7.248   9.033
  613POPC   C1A11679  44.486   7.628   8.774
  613POPC   D2A11680  44.374   7.600   8.346
  613POPC   C3A11681  44.608   7.640   7.971
  613POPC   C4A11682  44.470   7.400   7.602
  613POPC   C1B11683  44.974   7.405   8.694
  613POPC   C2B11684  44.933   7.375   8.257
  613POPC   C3B11685  44.904   7.211   7.833
  613POPC   C4B11686  44.987   7.355   7.398
  614POPC   NC311687  11.817   1.231   9.529
  614POPC   PO411688  12.562   1.261   9.311
  614POPC   GL111689  12.160   1.243   9.158
  614POPC   GL211690  11.923   0.944   9.132
  614POPC   C1A11691  12.043   1.264   8.754
  614POPC   D2A11692  12.064   1.375   8.370
  614POPC   C3A11693  12.339   1.135   8.108
  614POPC   C4A11694  12.383   1.281   7.734
  614POPC   C1B11695  11.763   0.835   8.732
  614POPC   C2B11696  11.921   0.891   8.324
  614POPC   C3B11697  11.863   1.147   7.938
  614POPC   C4B11698  11.772   1.116   7.483
  615POPC   NC311699  12.369  25.304   9.584
  615POPC   PO411700  11.793  25.072   9.343
  615POPC   GL111701  11.889  25.361   9.027
  615POPC   GL211702  12.263  25.414   9.047
  615POPC   C1A11703  11.934  25.273   8.579
  615POPC   D2A11704  12.155  25.078   8.230
  615POPC   C3A11705  11.938  25.082   7.830
  615POPC   C4A11706  12.248  25.185   7.523
  615POPC   C1B11707  12.211  25.694   8.696
  615POPC   C2B11708  12.125  25.734   8.248
  615POPC   C3B11709  12.092  25.572   7.828
  615POPC   C4B11710  11.985  25.628   7.373
  616POPC   NC311711   3.758  31.041   9.531
  616POPC   PO411712   3.344  31.535   9.673
  616POPC   GL111713   3.476  31.390   9.233
  616POPC   GL211714   3.813  31.350   9.136
  616POPC   C1A11715   3.546  31.641   8.832
  616POPC   D2A11716   3.509  31.914   8.497
  616POPC   C3A11717   3.497  31.713   8.103
  616POPC   C4A11718   3.599  31.588   7.697
  616POPC   C1B11719   3.679  31.132   8.781
  616POPC   C2B11720   3.647  31.296   8.408
  616POPC   C3B11721   3.754  31.224   8.009
  616POPC   C4B11722   3.935  31.185   7.581
  617POPC   NC311723  24.439  23.954   9.348
  617POPC   PO411724  23.977  23.379   9.198
  617POPC   GL111725  24.229  23.639   8.964
  617POPC   GL211726  24.588  23.635   8.998
  617POPC   C1A11727  24.241  23.690   8.527
  617POPC   D2A11728  24.319  24.020   8.250
  617POPC   C3A11729  24.460  23.990   7.839
  617POPC   C4A11730  24.590  24.034   7.409
  617POPC   C1B11731  24.631  23.389   8.676
  617POPC   C2B11732  24.709  23.635   8.339
  617POPC   C3B11733  24.621  23.520   7.997
  617POPC   C4B11734  24.746  23.597   7.609
  618POPC   NC311735  40.428  43.826   9.489
  618POPC   PO411736  40.972  44.188   9.402
  618POPC   GL111737  40.906  43.983   9.045
  618POPC   GL211738  40.570  43.935   9.023
  618POPC   C1A11739  40.990  43.816   8.634
  618POPC   D2A11740  41.069  43.889   8.201
  618POPC   C3A11741  40.728  44.146   8.094
  618POPC   C4A11742  40.608  44.285   7.739
  618POPC   C1B11743  40.547  43.610   8.748
  618POPC   C2B11744  40.538  43.720   8.341
  618POPC   C3B11745  40.685  43.677   7.930
  618POPC   C4B11746  40.533  43.828   7.563
  619POPC   NC311747   1.933  42.221   9.415
  619POPC   PO411748   1.514  42.753   9.454
  619POPC   GL111749   1.774  42.547   9.078
  619POPC   GL211750   2.151  42.612   8.954
  619POPC   C1A11751   1.878  42.259   8.717
  619POPC   D2A11752   2.013  42.465   8.335
  619POPC   C3A11753   1.948  42.454   7.877
  619POPC   C4A11754   2.152  42.535   7.491
  619POPC   C1B11755   2.376  42.226   8.815
  619POPC   C2B11756   2.305  42.056   8.406
  619POPC   C3B11757   2.386  42.239   8.024
  619POPC   C4B11758   2.481  42.051   7.629
  620POPC   NC311759  29.753  41.615   9.555
  620POPC   PO411760  30.316  41.297   9.530
  620POPC   GL111761  30.046  41.430   9.190
  620POPC   GL211762  29.949  41.793   9.128
  620POPC   C1A11763  29.814  41.332   8.824
  620POPC   D2A11764  29.937  41.230   8.414
  620POPC   C3A11765  30.072  41.493   8.072
  620POPC   C4A11766  30.020  41.396   7.662
  620POPC   C1B11767  30.079  42.004   8.784
  620POPC   C2B11768  29.941  41.862   8.410
  620POPC   C3B11769  30.030  42.059   8.044
  620POPC   C4B11770  30.161  41.903   7.679
  621POPC   NC311771  41.771  22.247   9.576
  621POPC   PO411772  41.900  21.653   9.243
  621POPC   GL111773  41.659  22.025   9.122
  621POPC   GL211774  41.664  22.393   9.116
  621POPC   C1A11775  41.481  22.129   8.717
  621POPC   D2A11776  41.596  22.051   8.303
  621POPC   C3A11777  41.523  22.118   7.879
  621POPC   C4A11778  41.920  22.015   7.679
  621POPC   C1B11779  41.665  22.599   8.776
  621POPC   C2B11780  41.480  22.563   8.371
  621POPC   C3B11781  41.750  22.542   8.027
  621POPC   C4B11782  41.721  22.486   7.597
  622POPC   NC311783   4.211  43.377   9.615
  622POPC   PO411784   4.712  42.852   9.485
  622POPC   GL111785   4.532  42.969   9.123
  622POPC   GL211786   4.345  43.247   9.150
  622POPC   C1A11787   4.643  43.235   8.743
  622POPC   D2A11788   4.401  43.286   8.393
  622POPC   C3A11789   4.543  43.286   8.004
  622POPC   C4A11790   4.329  43.391   7.661
  622POPC   C1B11791   4.090  43.366   8.800
  622POPC   C2B11792   3.912  43.162   8.429
  622POPC   C3B11793   3.993  43.299   8.039
  622POPC   C4B11794   3.930  43.075   7.684
  623POPC   NC311795   6.478   9.948   9.473
  623POPC   PO411796   6.294   9.342   9.194
  623POPC   GL111797   6.565   9.634   9.066
  623POPC   GL211798   6.873   9.550   9.246
  623POPC   C1A11799   6.606   9.911   8.710
  623POPC   D2A11800   6.622  10.044   8.267
  623POPC   C3A11801   6.577   9.788   7.878
  623POPC   C4A11802   6.500   9.976   7.454
  623POPC   C1B11803   7.011   9.586   8.825
  623POPC   C2B11804   6.968   9.675   8.410
  623POPC   C3B11805   7.078   9.890   8.049
  623POPC   C4B11806   7.053   9.695   7.673
  624POPC   NC311807  40.132   1.809   9.479
  624POPC   PO411808  39.905   2.400   9.482
  624POPC   GL111809  39.962   2.201   9.097
  624POPC   GL211810  39.791   1.874   9.090
  624POPC   C1A11811  39.788   2.157   8.674
  624POPC   D2A11812  39.896   1.997   8.291
  624POPC   C3A11813  39.886   2.337   8.015
  624POPC   C4A11814  40.229   2.337   7.758
  624POPC   C1B11815  40.036   1.711   8.741
  624POPC   C2B11816  40.303   1.667   8.412
  624POPC   C3B11817  40.208   1.616   8.016
  624POPC   C4B11818  39.972   1.892   7.766
  625POPC   NC311819  17.783   8.933   9.548
  625POPC   PO411820  17.157   9.053   9.568
  625POPC   GL111821  17.437   9.218   9.200
  625POPC   GL211822  17.740   9.440   9.153
  625POPC   C1A11823  17.439   9.235   8.724
  625POPC   D2A11824  17.668   9.044   8.355
  625POPC   C3A11825  17.493   8.971   7.933
  625POPC   C4A11826  17.436   8.572   7.682
  625POPC   C1B11827  17.931   9.358   8.724
  625POPC   C2B11828  17.991   9.400   8.239
  625POPC   C3B11829  17.935   9.200   7.807
  625POPC   C4B11830  17.782   9.147   7.362
  626POPC   NC311831  38.976  43.297   9.576
  626POPC   PO411832  39.629  43.050   9.476
  626POPC   GL111833  39.378  42.988   9.103
  626POPC   GL211834  39.053  43.134   9.106
  626POPC   C1A11835  39.329  43.199   8.695
  626POPC   D2A11836  39.083  43.435   8.418
  626POPC   C3A11837  39.200  43.178   8.114
  626POPC   C4A11838  39.486  43.164   7.792
  626POPC   C1B11839  39.003  42.802   8.801
  626POPC   C2B11840  39.206  42.726   8.405
  626POPC   C3B11841  39.048  42.716   7.999
  626POPC   C4B11842  39.005  43.002   7.636
  627POPC   NC311843  23.454  36.999   9.590
  627POPC   PO411844  23.094  37.628   9.583
  627POPC   GL111845  23.042  37.651   9.113
  627POPC   GL211846  22.705  37.591   9.015
  627POPC   C1A11847  23.113  37.423   8.710
  627POPC   D2A11848  23.037  37.464   8.299
  627POPC   C3A11849  23.298  37.400   7.964
  627POPC   C4A11850  23.001  37.350   7.666
  627POPC   C1B11851  22.433  37.693   8.665
  627POPC   C2B11852  22.470  37.953   8.309
  627POPC   C3B11853  22.598  37.892   7.887
  627POPC   C4B11854  22.651  38.059   7.485
  628POPC   NC311855  38.940  34.099   9.873
  628POPC   PO411856  39.434  33.662   9.527
  628POPC   GL111857  39.350  33.654   9.064
  628POPC   GL211858  39.044  33.457   9.036
  628POPC   C1A11859  39.396  33.858   8.650
  628POPC   D2A11860  39.633  33.727   8.323
  628POPC   C3A11861  39.475  33.819   7.930
  628POPC   C4A11862  39.687  33.861   7.585
  628POPC   C1B11863  38.906  33.751   8.734
  628POPC   C2B11864  38.993  34.076   8.426
  628POPC   C3B11865  39.006  34.015   8.038
  628POPC   C4B11866  38.950  33.734   7.783
  629POPC   NC311867  30.959   1.223   9.564
  629POPC   PO411868  30.437   1.532   9.500
  629POPC   GL111869  30.612   1.309   9.202
  629POPC   GL211870  30.460   1.019   9.288
  629POPC   C1A11871  30.833   1.371   8.838
  629POPC   D2A11872  30.645   1.437   8.466
  629POPC   C3A11873  30.821   1.593   8.109
  629POPC   C4A11874  30.985   1.347   7.797
  629POPC   C1B11875  30.458   1.017   8.825
  629POPC   C2B11876  30.407   0.987   8.387
  629POPC   C3B11877  30.410   1.235   8.036
  629POPC   C4B11878  30.292   1.251   7.618
  630POPC   NC311879  39.110  19.562   9.357
  630POPC   PO411880  39.401  20.134   9.484
  630POPC   GL111881  39.275  19.995   9.084
  630POPC   GL211882  39.493  19.743   9.026
  630POPC   C1A11883  39.346  19.974   8.620
  630POPC   D2A11884  39.301  19.751   8.293
  630POPC   C3A11885  39.456  19.976   7.969
  630POPC   C4A11886  39.339  19.821   7.571
  630POPC   C1B11887  39.528  19.467   8.676
  630POPC   C2B11888  39.604  19.337   8.269
  630POPC   C3B11889  39.665  19.521   7.918
  630POPC   C4B11890  39.737  19.418   7.512
  631POPC   NC311891  37.165  13.259   9.757
  631POPC   PO411892  36.648  12.920   9.520
  631POPC   GL111893  36.959  12.920   9.235
  631POPC   GL211894  37.126  13.249   9.246
  631POPC   C1A11895  36.951  12.670   8.865
  631POPC   D2A11896  36.713  12.637   8.485
  631POPC   C3A11897  36.843  12.783   8.117
  631POPC   C4A11898  36.841  12.625   7.753
  631POPC   C1B11899  37.193  13.115   8.826
  631POPC   C2B11900  36.927  13.149   8.478
  631POPC   C3B11901  36.972  13.276   8.049
  631POPC   C4B11902  37.142  13.140   7.664
  632POPC   NC311903  44.491  24.869   9.700
  632POPC   PO411904  44.700  25.500   9.295
  632POPC   GL111905  44.713  25.337   8.940
  632POPC   GL211906  44.445  25.133   8.946
  632POPC   C1A11907  44.717  25.310   8.542
  632POPC   D2A11908  44.891  25.437   8.237
  632POPC   C3A11909  44.743  25.195   7.941
  632POPC   C4A11910  44.811  25.299   7.534
  632POPC   C1B11911  44.269  25.502   8.705
  632POPC   C2B11912  44.401  25.626   8.261
  632POPC   C3B11913  44.412  25.555   7.796
  632POPC   C4B11914  44.339  25.361   7.375
  633POPC   NC311915  32.785  27.924   9.618
  633POPC   PO411916  33.424  28.209   9.436
  633POPC   GL111917  33.163  28.320   9.122
  633POPC   GL211918  32.908  28.558   9.193
  633POPC   C1A11919  32.852  28.142   8.871
  633POPC   D2A11920  33.007  28.204   8.469
  633POPC   C3A11921  32.774  28.271   8.107
  633POPC   C4A11922  32.865  28.273   7.670
  633POPC   C1B11923  32.893  28.639   8.735
  633POPC   C2B11924  32.693  28.759   8.338
  633POPC   C3B11925  32.782  28.765   7.892
  633POPC   C4B11926  32.932  28.718   7.458
  634POPC   NC311927  33.164   0.661   9.743
  634POPC   PO411928  32.897   0.238   9.234
  634POPC   GL111929  33.128   0.332   8.986
  634POPC   GL211930  33.227   0.659   9.105
  634POPC   C1A11931  33.048   0.169   8.601
  634POPC   D2A11932  33.042   0.310   8.212
  634POPC   C3A11933  32.735   0.177   7.918
  634POPC   C4A11934  32.704   0.229   7.456
  634POPC   C1B11935  33.288   0.648   8.657
  634POPC   C2B11936  33.243   0.804   8.284
  634POPC   C3B11937  33.122   0.699   7.910
  634POPC   C4B11938  33.168   0.321   7.684
  635POPC   NC311939   9.203   5.479   9.506
  635POPC   PO411940   8.877   6.024   9.514
  635POPC   GL111941   9.059   6.051   9.123
  635POPC   GL211942   8.985   5.713   9.059
  635POPC   C1A11943   9.187   6.018   8.685
  635POPC   D2A11944   9.407   5.931   8.311
  635POPC   C3A11945   9.160   5.910   7.972
  635POPC   C4A11946   9.090   6.009   7.585
  635POPC   C1B11947   9.241   5.509   8.725
  635POPC   C2B11948   9.261   5.445   8.247
  635POPC   C3B11949   8.945   5.446   7.908
  635POPC   C4B11950   8.673   5.718   7.660
  636POPC   NC311951  30.600   5.354   9.338
  636POPC   PO411952  30.256   4.785   9.464
  636POPC   GL111953  30.578   4.901   9.098
  636POPC   GL211954  30.916   4.684   9.031
  636POPC   C1A11955  30.613   5.135   8.706
  636POPC   D2A11956  30.460   5.119   8.286
  636POPC   C3A11957  30.627   5.437   7.995
  636POPC   C4A11958  31.068   5.442   7.842
  636POPC   C1B11959  31.097   4.873   8.657
  636POPC   C2B11960  30.992   5.125   8.281
  636POPC   C3B11961  30.820   4.979   7.891
  636POPC   C4B11962  30.724   4.634   7.651
  637POPC   NC311963   2.998  22.643   9.361
  637POPC   PO411964   2.520  23.125   9.448
  637POPC   GL111965   2.675  23.007   9.062
  637POPC   GL211966   2.384  23.224   8.937
  637POPC   C1A11967   2.860  22.763   8.684
  637POPC   D2A11968   3.229  22.728   8.371
  637POPC   C3A11969   3.133  22.712   7.922
  637POPC   C4A11970   2.808  22.829   7.660
  637POPC   C1B11971   2.639  23.219   8.593
  637POPC   C2B11972   2.651  22.977   8.227
  637POPC   C3B11973   2.528  23.186   7.872
  637POPC   C4B11974   2.777  23.504   7.664
  638POPC   NC311975  39.315  16.828   9.615
  638POPC   PO411976  38.925  16.438   9.324
  638POPC   GL111977  39.338  16.580   9.149
  638POPC   GL211978  39.419  16.947   9.135
  638POPC   C1A11979  39.401  16.642   8.723
  638POPC   D2A11980  39.029  16.727   8.508
  638POPC   C3A11981  39.048  16.529   8.152
  638POPC   C4A11982  38.912  16.653   7.775
  638POPC   C1B11983  39.472  17.147   8.759
  638POPC   C2B11984  39.512  17.042   8.325
  638POPC   C3B11985  39.327  16.914   7.972
  638POPC   C4B11986  39.522  16.522   7.925
  639POPC   NC311987   9.805  29.571   9.473
  639POPC   PO411988   9.989  30.203   9.526
  639POPC   GL111989   9.854  30.092   9.145
  639POPC   GL211990  10.090  30.282   8.957
  639POPC   C1A11991   9.873  29.756   8.850
  639POPC   D2A11992   9.697  29.703   8.453
  639POPC   C3A11993   9.929  29.724   8.101
  639POPC   C4A11994   9.762  29.889   7.720
  639POPC   C1B11995   9.752  30.235   8.622
  639POPC   C2B11996   9.798  30.214   8.162
  639POPC   C3B11997   9.578  30.366   7.771
  639POPC   C4B11998   9.606  30.213   7.324
  640POPC   NC311999   9.648  38.198   9.468
  640POPC   PO412000  10.107  38.586   9.282
  640POPC   GL112001   9.904  38.570   8.968
  640POPC   GL212002   9.560  38.579   9.117
  640POPC   C1A12003  10.000  38.672   8.555
  640POPC   D2A12004   9.666  38.543   8.358
  640POPC   C3A12005   9.683  38.233   8.044
  640POPC   C4A12006   9.896  38.459   7.731
  640POPC   C1B12007   9.505  38.250   8.801
  640POPC   C2B12008   9.229  38.330   8.478
  640POPC   C3B12009   9.265  38.535   8.058
  640POPC   C4B12010   9.397  38.390   7.639
  641POPC   NC312011  12.154   6.793   9.630
  641POPC   PO412012  12.330   6.262   9.584
  641POPC   GL112013  12.004   6.431   9.224
  641POPC   GL212014  12.146   6.699   9.051
  641POPC   C1A12015  11.782   6.462   8.748
  641POPC   D2A12016  11.847   6.338   8.294
  641POPC   C3A12017  11.811   6.656   7.972
  641POPC   C4A12018  11.692   6.852   7.575
  641POPC   C1B12019  12.281   6.422   8.666
  641POPC   C2B12020  12.347   6.357   8.193
  641POPC   C3B12021  12.425   6.602   7.822
  641POPC   C4B12022  12.509   6.540   7.373
  642POPC   NC312023  11.246  38.021   9.491
  642POPC   PO412024  11.661  37.457   9.448
  642POPC   GL112025  11.339  37.647   9.157
  642POPC   GL212026  11.119  37.969   9.013
  642POPC   C1A12027  11.151  37.485   8.800
  642POPC   D2A12028  10.989  37.350   8.418
  642POPC   C3A12029  11.240  37.339   8.068
  642POPC   C4A12030  11.062  37.417   7.725
  642POPC   C1B12031  11.464  37.942   8.771
  642POPC   C2B12032  11.421  37.696   8.406
  642POPC   C3B12033  11.210  37.844   8.020
  642POPC   C4B12034  11.437  38.079   7.726
  643POPC   NC312035   0.986  36.381   9.490
  643POPC   PO412036   1.050  35.764   9.435
  643POPC   GL112037   1.413  35.968   9.155
  643POPC   GL212038   1.435  36.356   9.208
  643POPC   C1A12039   1.609  35.927   8.723
  643POPC   D2A12040   1.534  35.655   8.359
  643POPC   C3A12041   1.383  35.864   7.975
  643POPC   C4A12042   0.978  36.002   7.764
  643POPC   C1B12043   1.262  36.310   8.781
  643POPC   C2B12044   1.427  36.301   8.338
  643POPC   C3B12045   1.278  36.415   7.901
  643POPC   C4B12046   1.183  36.403   7.462
  644POPC   NC312047  13.169  42.458   9.309
  644POPC   PO412048  13.841  42.375   9.484
  644POPC   GL112049  13.639  42.265   9.121
  644POPC   GL212050  13.788  42.508   8.904
  644POPC   C1A12051  13.559  42.081   8.727
  644POPC   D2A12052  13.716  42.262   8.389
  644POPC   C3A12053  13.647  42.118   7.990
  644POPC   C4A12054  13.882  42.242   7.648
  644POPC   C1B12055  13.373  42.551   8.712
  644POPC   C2B12056  13.255  42.693   8.348
  644POPC   C3B12057  13.558  42.618   8.041
  644POPC   C4B12058  13.430  42.457   7.663
  645POPC   NC312059  14.396  21.564   9.464
  645POPC   PO412060  14.118  20.944   9.430
  645POPC   GL112061  14.228  21.228   9.109
  645POPC   GL212062  14.568  21.278   8.981
  645POPC   C1A12063  14.148  21.446   8.722
  645POPC   D2A12064  14.363  21.449   8.328
  645POPC   C3A12065  14.125  21.431   7.973
  645POPC   C4A12066  14.099  21.477   7.582
  645POPC   C1B12067  14.602  21.663   8.725
  645POPC   C2B12068  14.742  21.807   8.307
  645POPC   C3B12069  14.561  21.689   7.911
  645POPC   C4B12070  14.656  21.261   7.847
  646POPC   NC312071  18.953  23.180   9.604
  646POPC   PO412072  19.055  23.845   9.533
  646POPC   GL112073  18.990  23.642   9.116
  646POPC   GL212074  18.692  23.454   9.162
  646POPC   C1A12075  18.874  23.807   8.677
  646POPC   D2A12076  18.704  23.902   8.252
  646POPC   C3A12077  19.011  24.027   7.913
  646POPC   C4A12078  19.036  24.082   7.426
  646POPC   C1B12079  18.717  23.309   8.717
  646POPC   C2B12080  19.065  23.379   8.426
  646POPC   C3B12081  19.267  23.405   8.050
  646POPC   C4B12082  19.094  23.578   7.718
  647POPC   NC312083  32.576  10.480   9.444
  647POPC   PO412084  32.195  11.030   9.495
  647POPC   GL112085  32.242  10.736   9.122
  647POPC   GL212086  32.141  10.368   9.101
  647POPC   C1A12087  32.467  10.526   8.751
  647POPC   D2A12088  32.281  10.496   8.333
  647POPC   C3A12089  32.459  10.574   7.965
  647POPC   C4A12090  32.380  10.292   7.635
  647POPC   C1B12091  31.957  10.527   8.711
  647POPC   C2B12092  31.852  10.814   8.384
  647POPC   C3B12093  31.790  10.877   7.972
  647POPC   C4B12094  32.060  10.698   7.652
  648POPC   NC312095   3.202  35.643   9.471
  648POPC   PO412096   2.788  35.065   9.416
  648POPC   GL112097   2.762  35.451   9.152
  648POPC   GL212098   2.416  35.563   9.083
  648POPC   C1A12099   2.871  35.553   8.706
  648POPC   D2A12100   3.143  35.382   8.376
  648POPC   C3A12101   3.024  35.298   7.980
  648POPC   C4A12102   2.867  35.582   7.713
  648POPC   C1B12103   2.469  35.236   8.762
  648POPC   C2B12104   2.650  35.177   8.344
  648POPC   C3B12105   2.479  35.099   7.924
  648POPC   C4B12106   2.486  35.314   7.522
  649POPC   NC312107   4.667  37.836   9.274
  649POPC   PO412108   4.335  37.270   9.458
  649POPC   GL112109   4.258  37.519   9.104
  649POPC   GL212110   3.956  37.766   9.092
  649POPC   C1A12111   4.354  37.329   8.723
  649POPC   D2A12112   4.342  37.513   8.343
  649POPC   C3A12113   4.336  37.309   7.986
  649POPC   C4A12114   4.615  37.475   7.700
  649POPC   C1B12115   4.186  37.875   8.717
  649POPC   C2B12116   4.241  37.998   8.258
  649POPC   C3B12117   4.229  37.805   7.842
  649POPC   C4B12118   3.940  37.875   7.495
  650POPC   NC312119  14.056  41.028   9.263
  650POPC   PO412120  13.761  40.652   9.728
  650POPC   GL112121  13.673  40.702   9.233
  650POPC   GL212122  13.379  40.583   9.045
  650POPC   C1A12123  13.799  40.741   8.768
  650POPC   D2A12124  13.865  40.642   8.332
  650POPC   C3A12125  13.673  40.828   8.018
  650POPC   C4A12126  13.614  40.731   7.609
  650POPC   C1B12127  13.467  40.392   8.623
  650POPC   C2B12128  13.515  40.275   8.183
  650POPC   C3B12129  13.357  40.327   7.756
  650POPC   C4B12130  13.354  40.398   7.280
  651POPC   NC312131  13.983  44.884   9.357
  651POPC   PO412132  13.508  44.471   9.655
  651POPC   GL112133  13.436  44.550   9.226
  651POPC   GL212134  13.561  44.281   9.070
  651POPC   C1A12135  13.495  44.761   8.820
  651POPC   D2A12136  13.709  44.879   8.429
  651POPC   C3A12137  13.516  44.831   8.019
  651POPC   C4A12138  13.593  44.731   7.596
  651POPC   C1B12139  13.433  44.244   8.683
  651POPC   C2B12140  13.448  44.407   8.284
  651POPC   C3B12141  13.476  44.304   7.834
  651POPC   C4B12142  13.315  44.358   7.373
  652POPC   NC312143  38.542  14.025   9.328
  652POPC   PO412144  38.238  13.341   9.476
  652POPC   GL112145  38.075  13.441   9.102
  652POPC   GL212146  38.272  13.715   9.041
  652POPC   C1A12147  38.226  13.324   8.704
  652POPC   D2A12148  38.143  13.187   8.314
  652POPC   C3A12149  38.315  13.458   8.019
  652POPC   C4A12150  38.651  13.399   7.746
  652POPC   C1B12151  38.479  13.908   8.662
  652POPC   C2B12152  38.528  13.917   8.202
  652POPC   C3B12153  38.367  13.947   7.780
  652POPC   C4B12154  38.186  13.737   7.422
  653POPC   NC312155  30.844  33.375   9.642
  653POPC   PO412156  30.534  34.085   9.726
  653POPC   GL112157  30.752  33.976   9.217
  653POPC   GL212158  30.513  33.982   8.962
  653POPC   C1A12159  30.950  33.853   8.790
  653POPC   D2A12160  30.726  33.727   8.431
  653POPC   C3A12161  30.890  33.688   8.016
  653POPC   C4A12162  30.559  33.795   7.733
  653POPC   C1B12163  30.435  34.124   8.569
  653POPC   C2B12164  30.602  34.151   8.130
  653POPC   C3B12165  30.324  34.233   7.780
  653POPC   C4B12166  30.188  34.014   7.422
  654POPC   NC312167  10.012  36.163   9.931
  654POPC   PO412168   9.577  36.374   9.361
  654POPC   GL112169   9.738  36.139   9.011
  654POPC   GL212170  10.095  35.968   9.021
  654POPC   C1A12171   9.803  36.108   8.609
  654POPC   D2A12172   9.706  35.948   8.238
  654POPC   C3A12173   9.784  36.273   7.964
  654POPC   C4A12174   9.765  36.162   7.559
  654POPC   C1B12175  10.240  35.799   8.663
  654POPC   C2B12176  10.231  36.010   8.264
  654POPC   C3B12177  10.135  35.929   7.839
  654POPC   C4B12178  10.164  35.890   7.381
  655POPC   NC312179   4.238  22.345   9.667
  655POPC   PO412180   4.796  22.014   9.596
  655POPC   GL112181   4.469  21.984   9.216
  655POPC   GL212182   4.149  22.229   9.177
  655POPC   C1A12183   4.391  22.081   8.755
  655POPC   D2A12184   4.205  22.132   8.338
  655POPC   C3A12185   4.466  22.172   7.978
  655POPC   C4A12186   4.547  21.970   7.540
  655POPC   C1B12187   4.110  22.533   8.817
  655POPC   C2B12188   4.212  22.640   8.415
  655POPC   C3B12189   4.063  22.533   8.028
  655POPC   C4B12190   4.110  22.339   7.640
  656POPC   NC312191  28.735  39.336   9.330
  656POPC   PO412192  28.153  38.954   9.412
  656POPC   GL112193  28.277  39.267   9.082
  656POPC   GL212194  28.250  39.645   9.162
  656POPC   C1A12195  28.439  39.317   8.669
  656POPC   D2A12196  28.411  39.028   8.314
  656POPC   C3A12197  28.621  39.086   7.918
  656POPC   C4A12198  28.578  39.242   7.490
  656POPC   C1B12199  27.977  39.600   8.793
  656POPC   C2B12200  27.997  39.358   8.401
  656POPC   C3B12201  28.132  39.272   7.961
  656POPC   C4B12202  27.989  39.536   7.646
  657POPC   NC312203  28.743  22.870   9.681
  657POPC   PO412204  28.511  23.306   9.296
  657POPC   GL112205  28.560  23.014   9.033
  657POPC   GL212206  28.233  22.856   9.118
  657POPC   C1A12207  28.648  23.138   8.616
  657POPC   D2A12208  28.417  23.015   8.248
  657POPC   C3A12209  28.496  23.181   7.879
  657POPC   C4A12210  28.835  23.381   7.721
  657POPC   C1B12211  28.216  22.779   8.675
  657POPC   C2B12212  27.942  22.947   8.352
  657POPC   C3B12213  27.997  22.952   7.939
  657POPC   C4B12214  28.277  22.779   7.643
  658POPC   NC312215  34.987   9.057   9.561
  658POPC   PO412216  35.665   8.775   9.549
  658POPC   GL112217  35.395   8.926   9.175
  658POPC   GL212218  35.110   9.170   9.092
  658POPC   C1A12219  35.422   8.949   8.739
  658POPC   D2A12220  35.589   9.172   8.380
  658POPC   C3A12221  35.482   9.026   7.975
  658POPC   C4A12222  35.547   8.813   7.578
  658POPC   C1B12223  34.907   9.049   8.708
  658POPC   C2B12224  35.075   9.100   8.351
  658POPC   C3B12225  34.975   9.023   7.987
  658POPC   C4B12226  35.067   9.007   7.622
  659POPC   NC312227  20.844  39.235   9.694
  659POPC   PO412228  20.265  39.403   9.632
  659POPC   GL112229  20.566  39.244   9.248
  659POPC   GL212230  20.938  39.218   9.165
  659POPC   C1A12231  20.569  39.184   8.790
  659POPC   D2A12232  20.471  38.874   8.497
  659POPC   C3A12233  20.296  38.961   8.094
  659POPC   C4A12234  20.430  39.151   7.703
  659POPC   C1B12235  20.947  39.515   8.832
  659POPC   C2B12236  20.783  39.613   8.440
  659POPC   C3B12237  20.658  39.433   8.076
  659POPC   C4B12238  20.820  39.536   7.690
  660POPC   NC312239  22.149  40.402   9.429
  660POPC   PO412240  21.790  39.799   9.380
  660POPC   GL112241  22.073  40.014   9.123
  660POPC   GL212242  21.793  40.271   9.100
  660POPC   C1A12243  22.363  39.999   8.767
  660POPC   D2A12244  22.211  39.790   8.374
  660POPC   C3A12245  22.362  39.882   7.937
  660POPC   C4A12246  22.349  39.982   7.467
  660POPC   C1B12247  21.999  40.386   8.719
  660POPC   C2B12248  22.042  40.254   8.293
  660POPC   C3B12249  21.861  39.960   8.011
  660POPC   C4B12250  21.889  40.148   7.643
  661POPC   NC312251  15.072  21.709   9.457
  661POPC   PO412252  15.481  22.242   9.376
  661POPC   GL112253  15.324  22.003   9.103
  661POPC   GL212254  15.012  22.133   9.147
  661POPC   C1A12255  15.414  22.150   8.714
  661POPC   D2A12256  15.600  22.185   8.321
  661POPC   C3A12257  15.280  22.158   7.958
  661POPC   C4A12258  15.332  21.975   7.532
  661POPC   C1B12259  14.907  22.057   8.745
  661POPC   C2B12260  14.643  22.281   8.477
  661POPC   C3B12261  14.752  22.263   8.079
  661POPC   C4B12262  14.838  22.058   7.711
  662POPC   NC312263  14.744  12.942   9.480
  662POPC   PO412264  14.309  13.256   9.228
  662POPC   GL112265  14.298  12.804   9.127
  662POPC   GL212266  13.961  12.602   9.192
  662POPC   C1A12267  14.361  12.806   8.693
  662POPC   D2A12268  14.231  13.122   8.382
  662POPC   C3A12269  14.530  13.038   8.066
  662POPC   C4A12270  14.528  13.122   7.636
  662POPC   C1B12271  13.853  12.769   8.770
  662POPC   C2B12272  14.035  12.646   8.340
  662POPC   C3B12273  14.176  12.716   7.895
  662POPC   C4B12274  14.290  12.682   7.446
  663POPC   NC312275  17.847  32.401   9.395
  663POPC   PO412276  17.414  32.837   9.721
  663POPC   GL112277  17.392  32.577   9.207
  663POPC   GL212278  17.583  32.759   8.900
  663POPC   C1A12279  17.390  32.322   8.800
  663POPC   D2A12280  17.223  32.368   8.367
  663POPC   C3A12281  17.463  32.244   7.998
  663POPC   C4A12282  17.418  32.306   7.554
  663POPC   C1B12283  17.843  32.560   8.679
  663POPC   C2B12284  17.667  32.638   8.281
  663POPC   C3B12285  17.782  32.627   7.852
  663POPC   C4B12286  17.898  32.518   7.462
  664POPC   NC312287  19.832  20.496   9.616
  664POPC   PO412288  19.662  21.188   9.463
  664POPC   GL112289  19.894  20.880   9.227
  664POPC   GL212290  20.133  21.107   9.072
  664POPC   C1A12291  19.906  20.672   8.797
  664POPC   D2A12292  20.044  20.670   8.339
  664POPC   C3A12293  19.793  20.381   8.059
  664POPC   C4A12294  19.640  20.300   7.625
  664POPC   C1B12295  19.765  21.168   8.811
  664POPC   C2B12296  19.500  21.065   8.477
  664POPC   C3B12297  19.558  20.853   8.100
  664POPC   C4B12298  19.842  20.780   7.740
  665POPC   NC312299  18.018   4.701   9.532
  665POPC   PO412300  18.392   5.339   9.550
  665POPC   GL112301  18.439   5.225   9.144
  665POPC   GL212302  18.153   5.049   9.177
  665POPC   C1A12303  18.467   5.473   8.749
  665POPC   D2A12304  18.527   5.290   8.353
  665POPC   C3A12305  18.512   5.378   7.927
  665POPC   C4A12306  18.235   5.113   7.687
  665POPC   C1B12307  18.234   5.015   8.718
  665POPC   C2B12308  18.093   4.942   8.270
  665POPC   C3B12309  17.825   4.891   7.882
  665POPC   C4B12310  17.873   4.815   7.417
  666POPC   NC312311   7.775  19.428   9.590
  666POPC   PO412312   7.215  19.676   9.478
  666POPC   GL112313   7.331  19.797   9.085
  666POPC   GL212314   7.647  19.760   9.153
  666POPC   C1A12315   7.351  19.782   8.624
  666POPC   D2A12316   7.094  19.967   8.302
  666POPC   C3A12317   7.214  19.951   7.885
  666POPC   C4A12318   7.182  19.550   7.687
  666POPC   C1B12319   7.705  19.439   8.870
  666POPC   C2B12320   7.767  19.440   8.433
  666POPC   C3B12321   7.529  19.642   8.141
  666POPC   C4B12322   7.673  19.750   7.759
  667POPC   NC312323  42.933   8.698   9.631
  667POPC   PO412324  43.513   9.012   9.408
  667POPC   GL112325  43.276   9.000   9.049
  667POPC   GL212326  42.916   9.138   9.113
  667POPC   C1A12327  43.405   8.925   8.616
  667POPC   D2A12328  43.224   9.160   8.256
  667POPC   C3A12329  43.167   8.878   7.876
  667POPC   C4A12330  43.066   8.871   7.415
  667POPC   C1B12331  42.905   9.035   8.654
  667POPC   C2B12332  42.782   8.862   8.238
  667POPC   C3B12333  42.640   8.925   7.808
  667POPC   C4B12334  42.639   9.145   7.405
  668POPC   NC312335   3.963   7.576   9.541
  668POPC   PO412336   3.385   7.793   9.637
  668POPC   GL112337   3.541   7.557   9.234
  668POPC   GL212338   3.527   7.221   9.111
  668POPC   C1A12339   3.691   7.638   8.803
  668POPC   D2A12340   3.529   7.445   8.406
  668POPC   C3A12341   3.673   7.592   8.006
  668POPC   C4A12342   3.579   7.462   7.572
  668POPC   C1B12343   3.752   7.136   8.719
  668POPC   C2B12344   3.850   7.032   8.291
  668POPC   C3B12345   3.576   7.076   7.931
  668POPC   C4B12346   3.172   7.049   7.691
  669POPC   NC312347  27.645  35.420   9.728
  669POPC   PO412348  28.374  35.321   9.555
  669POPC   GL112349  28.397  35.352   9.119
  669POPC   GL212350  28.232  35.614   9.107
  669POPC   C1A12351  28.400  35.134   8.699
  669POPC   D2A12352  28.548  35.001   8.278
  669POPC   C3A12353  28.436  35.202   7.902
  669POPC   C4A12354  28.204  35.377   7.560
  669POPC   C1B12355  28.351  35.648   8.704
  669POPC   C2B12356  28.296  35.477   8.316
  669POPC   C3B12357  28.216  35.691   7.963
  669POPC   C4B12358  28.396  35.853   7.606
  670POPC   NC312359  11.531  13.518   9.449
  670POPC   PO412360  11.164  14.034   9.708
  670POPC   GL112361  11.409  13.952   9.220
  670POPC   GL212362  11.218  13.645   9.080
  670POPC   C1A12363  11.318  13.963   8.725
  670POPC   D2A12364  11.248  13.771   8.328
  670POPC   C3A12365  11.509  13.551   7.989
  670POPC   C4A12366  11.331  13.860   7.687
  670POPC   C1B12367  11.333  13.435   8.752
  670POPC   C2B12368  11.186  13.274   8.409
  670POPC   C3B12369  11.030  13.442   8.012
  670POPC   C4B12370  11.226  13.336   7.628
  671POPC   NC312371  17.080  43.875   9.627
  671POPC   PO412372  16.392  43.913   9.416
  671POPC   GL112373  16.725  43.878   9.140
  671POPC   GL212374  16.796  43.534   9.255
  671POPC   C1A12375  16.660  44.008   8.705
  671POPC   D2A12376  16.344  43.972   8.394
  671POPC   C3A12377  16.482  43.694   8.085
  671POPC   C4A12378  16.633  43.792   7.698
  671POPC   C1B12379  16.794  43.371   8.807
  671POPC   C2B12380  16.998  43.472   8.418
  671POPC   C3B12381  17.010  43.670   8.013
  671POPC   C4B12382  17.026  43.487   7.597
  672POPC   NC312383  35.705  25.957   9.431
  672POPC   PO412384  35.147  26.352   9.450
  672POPC   GL112385  35.282  26.250   9.099
  672POPC   GL212386  35.321  25.927   9.088
  672POPC   C1A12387  35.306  26.240   8.671
  672POPC   D2A12388  35.399  26.100   8.308
  672POPC   C3A12389  35.288  26.313   7.949
  672POPC   C4A12390  35.043  26.060   7.679
  672POPC   C1B12391  35.583  25.730   8.780
  672POPC   C2B12392  35.775  25.729   8.360
  672POPC   C3B12393  35.628  25.905   7.916
  672POPC   C4B12394  35.413  25.704   7.581
  673POPC   NC312395  31.445  23.245   9.509
  673POPC   PO412396  31.645  22.570   9.345
  673POPC   GL112397  31.463  22.869   9.143
  673POPC   GL212398  31.744  23.084   9.122
  673POPC   C1A12399  31.293  22.831   8.740
  673POPC   D2A12400  31.548  22.911   8.377
  673POPC   C3A12401  31.325  22.917   8.009
  673POPC   C4A12402  31.500  22.791   7.633
  673POPC   C1B12403  31.784  23.261   8.716
  673POPC   C2B12404  31.903  23.304   8.280
  673POPC   C3B12405  31.762  23.182   7.863
  673POPC   C4B12406  31.899  23.043   7.427
  674POPC   NC312407  38.122  39.725   9.403
  674POPC   PO412408  37.469  39.962   9.588
  674POPC   GL112409  37.708  40.002   9.210
  674POPC   GL212410  37.484  39.840   9.000
  674POPC   C1A12411  37.779  40.254   8.813
  674POPC   D2A12412  37.595  40.262   8.391
  674POPC   C3A12413  37.721  40.313   7.963
  674POPC   C4A12414  37.625  40.028   7.613
  674POPC   C1B12415  37.879  39.757   8.764
  674POPC   C2B12416  37.968  39.894   8.397
  674POPC   C3B12417  37.754  39.816   8.053
  674POPC   C4B12418  38.006  39.661   7.745
  675POPC   NC312419  16.503  10.919   9.849
  675POPC   PO412420  15.939  10.834   9.466
  675POPC   GL112421  15.865  10.835   9.073
  675POPC   GL212422  15.588  10.625   9.012
  675POPC   C1A12423  15.868  10.896   8.658
  675POPC   D2A12424  15.712  10.674   8.317
  675POPC   C3A12425  15.943  10.870   8.011
  675POPC   C4A12426  15.975  10.812   7.625
  675POPC   C1B12427  15.906  10.388   8.770
  675POPC   C2B12428  16.100  10.325   8.358
  675POPC   C3B12429  15.945  10.358   7.927
  675POPC   C4B12430  15.848  10.332   7.487
  676POPC   NC312431  35.362  34.516   9.472
  676POPC   PO412432  36.012  34.815   9.555
  676POPC   GL112433  35.652  34.824   9.194
  676POPC   GL212434  35.553  34.481   9.010
  676POPC   C1A12435  35.437  34.923   8.775
  676POPC   D2A12436  35.610  34.942   8.381
  676POPC   C3A12437  35.426  34.821   7.995
  676POPC   C4A12438  35.279  34.768   7.567
  676POPC   C1B12439  35.605  34.472   8.605
  676POPC   C2B12440  35.330  34.375   8.291
  676POPC   C3B12441  35.158  34.395   7.883
  676POPC   C4B12442  35.403  34.284   7.491
  677POPC   NC312443  30.573  40.227   9.397
  677POPC   PO412444  31.105  39.816   9.491
  677POPC   GL112445  30.755  39.834   9.096
  677POPC   GL212446  30.424  40.054   8.961
  677POPC   C1A12447  30.610  39.724   8.650
  677POPC   D2A12448  30.780  39.945   8.300
  677POPC   C3A12449  30.687  39.856   7.876
  677POPC   C4A12450  30.852  39.911   7.442
  677POPC   C1B12451  30.781  40.309   8.726
  677POPC   C2B12452  31.091  40.344   8.353
  677POPC   C3B12453  30.933  40.314   7.910
  677POPC   C4B12454  30.522  40.251   7.629
  678POPC   NC312455  32.686  14.981   9.444
  678POPC   PO412456  33.180  15.403   9.422
  678POPC   GL112457  33.097  15.128   9.118
  678POPC   GL212458  32.772  15.315   9.080
  678POPC   C1A12459  33.055  15.137   8.675
  678POPC   D2A12460  33.275  15.162   8.282
  678POPC   C3A12461  32.972  15.097   7.981
  678POPC   C4A12462  32.857  14.911   7.611
  678POPC   C1B12463  32.669  15.527   8.727
  678POPC   C2B12464  32.839  15.460   8.330
  678POPC   C3B12465  32.741  15.588   7.940
  678POPC   C4B12466  32.928  15.416   7.552
  679POPC   NC312467   6.120  10.881   9.523
  679POPC   PO412468   5.427  10.560   9.515
  679POPC   GL112469   5.731  10.689   9.214
  679POPC   GL212470   6.086  10.643   9.079
  679POPC   C1A12471   5.696  10.733   8.785
  679POPC   D2A12472   6.008  10.832   8.480
  679POPC   C3A12473   5.941  10.544   8.184
  679POPC   C4A12474   6.070  10.563   7.791
  679POPC   C1B12475   6.113  10.383   8.715
  679POPC   C2B12476   6.111  10.082   8.370
  679POPC   C3B12477   6.155  10.073   7.918
  679POPC   C4B12478   6.031  10.159   7.471
  680POPC   NC312479  21.465   0.920   9.383
  680POPC   PO412480  21.178   0.382   9.663
  680POPC   GL112481  21.239   0.444   9.231
  680POPC   GL212482  21.161   0.724   9.021
  680POPC   C1A12483  21.448   0.342   8.845
  680POPC   D2A12484  21.469   0.475   8.421
  680POPC   C3A12485  21.468   0.216   8.046
  680POPC   C4A12486  21.562   0.005   7.671
  680POPC   C1B12487  21.025   0.624   8.608
  680POPC   C2B12488  21.179   0.849   8.230
  680POPC   C3B12489  21.125   0.907   7.789
  680POPC   C4B12490  21.099   0.913   7.324
  681POPC   NC312491  21.514  32.552   9.596
  681POPC   PO412492  21.068  31.964   9.576
  681POPC   GL112493  21.385  32.143   9.309
  681POPC   GL212494  21.414  31.846   9.140
  681POPC   C1A12495  21.648  32.236   8.925
  681POPC   D2A12496  21.499  32.356   8.530
  681POPC   C3A12497  21.461  32.204   8.093
  681POPC   C4A12498  21.505  32.327   7.671
  681POPC   C1B12499  21.261  31.913   8.736
  681POPC   C2B12500  21.020  32.153   8.470
  681POPC   C3B12501  21.006  31.965   8.102
  681POPC   C4B12502  21.144  31.956   7.690
  682POPC   NC312503  38.364  29.785   9.485
  682POPC   PO412504  38.824  30.248   9.421
  682POPC   GL112505  38.556  30.028   9.091
  682POPC   GL212506  38.538  29.651   9.030
  682POPC   C1A12507  38.390  30.046   8.694
  682POPC   D2A12508  38.430  30.303   8.353
  682POPC   C3A12509  38.290  30.086   8.007
  682POPC   C4A12510  38.437  29.818   7.671
  682POPC   C1B12511  38.108  29.633   8.820
  682POPC   C2B12512  37.999  29.803   8.380
  682POPC   C3B12513  38.006  29.686   7.925
  682POPC   C4B12514  37.984  29.910   7.499
  683POPC   NC312515  12.081  38.302   9.471
  683POPC   PO412516  12.374  38.925   9.348
  683POPC   GL112517  12.081  38.657   9.105
  683POPC   GL212518  12.329  38.394   9.047
  683POPC   C1A12519  11.833  38.337   8.825
  683POPC   D2A12520  11.828  38.042   8.427
  683POPC   C3A12521  11.822  38.247   8.043
  683POPC   C4A12522  11.889  38.695   7.941
  683POPC   C1B12523  12.383  38.701   8.703
  683POPC   C2B12524  12.356  38.722   8.244
  683POPC   C3B12525  12.310  38.394   7.952
  683POPC   C4B12526  12.398  38.443   7.569
  684POPC   NC312527  27.798  30.451   9.582
  684POPC   PO412528  27.777  31.101   9.434
  684POPC   GL112529  27.651  30.747   9.171
  684POPC   GL212530  27.341  30.591   9.070
  684POPC   C1A12531  27.773  30.455   8.847
  684POPC   D2A12532  27.475  30.318   8.513
  684POPC   C3A12533  27.573  30.527   8.134
  684POPC   C4A12534  27.831  30.439   7.785
  684POPC   C1B12535  27.461  30.840   8.672
  684POPC   C2B12536  27.399  31.065   8.254
  684POPC   C3B12537  27.353  30.928   7.845
  684POPC   C4B12538  27.436  30.611   7.537
  685POPC   NC312539  31.436  41.890   9.406
  685POPC   PO412540  31.626  41.251   9.399
  685POPC   GL112541  31.431  41.466   9.098
  685POPC   GL212542  31.725  41.688   9.010
  685POPC   C1A12543  31.241  41.345   8.722
  685POPC   D2A12544  31.390  41.527   8.378
  685POPC   C3A12545  31.403  41.317   8.010
  685POPC   C4A12546  31.432  41.098   7.700
  685POPC   C1B12547  31.384  41.889   8.754
  685POPC   C2B12548  31.303  42.071   8.344
  685POPC   C3B12549  31.302  41.813   7.979
  685POPC   C4B12550  31.561  41.682   7.671
  686POPC   NC312551  19.886   0.322   9.500
  686POPC   PO412552  19.660   0.961   9.683
  686POPC   GL112553  19.804   0.724   9.210
  686POPC   GL212554  20.118   0.519   9.096
  686POPC   C1A12555  19.711   0.628   8.754
  686POPC   D2A12556  19.769   0.649   8.300
  686POPC   C3A12557  19.485   0.470   7.971
  686POPC   C4A12558  19.418   0.689   7.560
  686POPC   C1B12559  20.019   0.203   8.758
  686POPC   C2B12560  19.862   0.135   8.374
  686POPC   C3B12561  20.008   0.257   7.993
  686POPC   C4B12562  20.192   0.404   7.631
  687POPC   NC312563  31.504  21.495   9.479
  687POPC   PO412564  31.134  20.882   9.451
  687POPC   GL112565  31.303  21.201   9.099
  687POPC   GL212566  31.655  21.362   9.011
  687POPC   C1A12567  31.328  21.202   8.643
  687POPC   D2A12568  31.467  21.475   8.297
  687POPC   C3A12569  31.259  21.373   7.921
  687POPC   C4A12570  31.237  20.941   7.770
  687POPC   C1B12571  31.867  21.269   8.620
  687POPC   C2B12572  31.843  21.089   8.190
  687POPC   C3B12573  31.760  21.370   7.877
  687POPC   C4B12574  31.762  21.861   7.962
  688POPC   NC312575  12.007  35.956   9.840
  688POPC   PO412576  12.203  36.539   9.556
  688POPC   GL112577  12.132  36.291   9.206
  688POPC   GL212578  12.102  36.557   9.052
  688POPC   C1A12579  12.035  36.099   8.830
  688POPC   D2A12580  12.312  36.026   8.515
  688POPC   C3A12581  12.085  35.973   8.169
  688POPC   C4A12582  12.097  35.917   7.765
  688POPC   C1B12583  11.956  36.608   8.696
  688POPC   C2B12584  11.967  36.434   8.344
  688POPC   C3B12585  12.066  36.670   8.018
  688POPC   C4B12586  12.166  36.452   7.694
  689POPC   NC312587  29.957  23.998   9.520
  689POPC   PO412588  29.456  23.594   9.445
  689POPC   GL112589  29.730  23.495   9.125
  689POPC   GL212590  30.007  23.694   9.113
  689POPC   C1A12591  29.793  23.428   8.722
  689POPC   D2A12592  29.640  23.617   8.356
  689POPC   C3A12593  29.880  23.575   7.997
  689POPC   C4A12594  29.720  23.705   7.647
  689POPC   C1B12595  30.067  23.849   8.713
  689POPC   C2B12596  30.188  23.613   8.393
  689POPC   C3B12597  30.343  23.827   8.062
  689POPC   C4B12598  30.248  23.767   7.650
  690POPC   NC312599  37.129  11.614   9.779
  690POPC   PO412600  37.460  11.157   9.386
  690POPC   GL112601  37.687  11.348   9.062
  690POPC   GL212602  38.007  11.480   9.093
  690POPC   C1A12603  37.679  11.471   8.644
  690POPC   D2A12604  37.438  11.697   8.344
  690POPC   C3A12605  37.436  11.511   7.943
  690POPC   C4A12606  37.346  11.561   7.521
  690POPC   C1B12607  38.187  11.400   8.681
  690POPC   C2B12608  38.015  11.215   8.318
  690POPC   C3B12609  37.940  11.390   7.938
  690POPC   C4B12610  37.833  11.648   7.567
  691POPC   NC312611  35.428  16.257   9.379
  691POPC   PO412612  35.180  15.629   9.534
  691POPC   GL112613  35.231  15.805   9.148
  691POPC   GL212614  35.547  15.714   9.022
  691POPC   C1A12615  35.055  15.818   8.731
  691POPC   D2A12616  35.078  16.061   8.355
  691POPC   C3A12617  35.214  15.872   7.966
  691POPC   C4A12618  35.615  15.761   7.735
  691POPC   C1B12619  35.517  16.064   8.681
  691POPC   C2B12620  35.634  16.095   8.221
  691POPC   C3B12621  35.548  16.285   7.818
  691POPC   C4B12622  35.726  16.171   7.397
  692POPC   NC312623  39.194  38.472   9.602
  692POPC   PO412624  39.590  37.974   9.482
  692POPC   GL112625  39.357  38.316   9.150
  692POPC   GL212626  38.961  38.320   9.126
  692POPC   C1A12627  39.211  38.514   8.717
  692POPC   D2A12628  39.228  38.480   8.243
  692POPC   C3A12629  39.604  38.519   7.934
  692POPC   C4A12630  39.792  38.140   7.705
  692POPC   C1B12631  38.851  38.089   8.699
  692POPC   C2B12632  39.107  37.949   8.306
  692POPC   C3B12633  39.300  38.121   7.879
  692POPC   C4B12634  39.252  38.529   7.556
  693POPC   NC312635  17.441  14.107   9.581
  693POPC   PO412636  17.917  14.464   9.348
  693POPC   GL112637  17.530  14.345   9.127
  693POPC   GL212638  17.681  14.012   9.141
  693POPC   C1A12639  17.425  14.510   8.687
  693POPC   D2A12640  17.604  14.404   8.255
  693POPC   C3A12641  17.493  14.603   7.846
  693POPC   C4A12642  17.625  14.939   7.511
  693POPC   C1B12643  17.724  14.108   8.718
  693POPC   C2B12644  17.499  13.928   8.360
  693POPC   C3B12645  17.355  14.067   7.976
  693POPC   C4B12646  17.541  14.141   7.603
  694POPC   NC312647  10.745  34.870   9.421
  694POPC   PO412648  10.485  34.209   9.520
  694POPC   GL112649  10.382  34.524   9.193
  694POPC   GL212650  10.185  34.204   9.083
  694POPC   C1A12651  10.537  34.830   8.805
  694POPC   D2A12652  10.795  34.809   8.399
  694POPC   C3A12653  10.721  34.673   7.962
  694POPC   C4A12654  10.728  34.228   7.770
  694POPC   C1B12655  10.296  34.397   8.725
  694POPC   C2B12656  10.473  34.405   8.346
  694POPC   C3B12657  10.287  34.391   7.975
  694POPC   C4B12658  10.154  34.155   7.668
  695POPC   NC312659  11.153  28.249   9.299
  695POPC   PO412660  10.509  28.661   9.481
  695POPC   GL112661  10.712  28.507   9.195
  695POPC   GL212662  10.647  28.174   9.162
  695POPC   C1A12663  10.636  28.509   8.781
  695POPC   D2A12664  10.494  28.319   8.411
  695POPC   C3A12665  10.243  28.534   8.118
  695POPC   C4A12666  10.341  28.360   7.708
  695POPC   C1B12667  10.675  27.977   8.777
  695POPC   C2B12668  10.590  27.827   8.389
  695POPC   C3B12669  10.698  28.035   8.016
  695POPC   C4B12670  10.700  27.884   7.619
  696POPC   NC312671  29.617  21.140   9.562
  696POPC   PO412672  29.261  21.636   9.322
  696POPC   GL112673  29.101  21.353   9.035
  696POPC   GL212674  29.288  21.106   9.184
  696POPC   C1A12675  28.982  21.286   8.601
  696POPC   D2A12676  28.867  21.145   8.178
  696POPC   C3A12677  29.031  21.390   7.823
  696POPC   C4A12678  29.477  21.528   7.749
  696POPC   C1B12679  29.454  21.032   8.793
  696POPC   C2B12680  29.324  20.927   8.421
  696POPC   C3B12681  29.382  21.152   8.098
  696POPC   C4B12682  29.375  21.017   7.702
  697POPC   NC312683  36.013  18.714   9.333
  697POPC   PO412684  36.400  19.287   9.516
  697POPC   GL112685  36.258  19.099   9.127
  697POPC   GL212686  35.901  19.136   9.045
  697POPC   C1A12687  36.309  18.969   8.692
  697POPC   D2A12688  36.433  19.052   8.262
  697POPC   C3A12689  36.168  19.316   7.997
  697POPC   C4A12690  36.083  19.311   7.547
  697POPC   C1B12691  35.752  18.937   8.673
  697POPC   C2B12692  35.894  18.885   8.235
  697POPC   C3B12693  35.811  18.940   7.776
  697POPC   C4B12694  35.728  18.921   7.297
  698POPC   NC312695  12.182  22.346   9.553
  698POPC   PO412696  11.998  21.647   9.525
  698POPC   GL112697  12.198  21.892   9.200
  698POPC   GL212698  11.943  22.163   9.129
  698POPC   C1A12699  12.303  22.038   8.761
  698POPC   D2A12700  12.051  22.211   8.372
  698POPC   C3A12701  12.163  22.163   7.905
  698POPC   C4A12702  11.984  21.972   7.511
  698POPC   C1B12703  11.709  22.443   8.845
  698POPC   C2B12704  11.602  22.479   8.391
  698POPC   C3B12705  11.817  22.562   8.013
  698POPC   C4B12706  11.771  22.432   7.599
  699POPC   NC312707  38.052  16.415   9.506
  699POPC   PO412708  38.667  16.694   9.786
  699POPC   GL112709  38.468  16.645   9.312
  699POPC   GL212710  38.445  16.312   9.204
  699POPC   C1A12711  38.556  16.667   8.847
  699POPC   D2A12712  38.548  16.458   8.464
  699POPC   C3A12713  38.550  16.760   8.136
  699POPC   C4A12714  38.566  17.013   7.759
  699POPC   C1B12715  38.156  16.307   8.853
  699POPC   C2B12716  38.017  16.240   8.437
  699POPC   C3B12717  38.289  16.296   8.063
  699POPC   C4B12718  38.308  16.560   7.714
  700POPC   NC312719  17.650  12.008   9.811
  700POPC   PO412720  18.195  12.142   9.469
  700POPC   GL112721  18.269  11.960   9.134
  700POPC   GL212722  18.519  11.711   9.187
  700POPC   C1A12723  18.333  12.202   8.769
  700POPC   D2A12724  18.211  12.115   8.359
  700POPC   C3A12725  18.447  12.309   8.037
  700POPC   C4A12726  18.541  12.209   7.618
  700POPC   C1B12727  18.491  11.720   8.755
  700POPC   C2B12728  18.667  11.906   8.423
  700POPC   C3B12729  18.751  11.907   8.034
  700POPC   C4B12730  18.612  11.724   7.706
  701POPC   NC312731   7.195  12.081   9.544
  701POPC   PO412732   7.837  12.262   9.694
  701POPC   GL112733   7.623  12.328   9.296
  701POPC   GL212734   7.499  11.995   9.136
  701POPC   C1A12735   7.780  12.328   8.861
  701POPC   D2A12736   7.575  12.151   8.498
  701POPC   C3A12737   7.661  12.214   8.050
  701POPC   C4A12738   7.449  11.900   7.783
  701POPC   C1B12739   7.248  12.313   8.930
  701POPC   C2B12740   7.081  12.359   8.534
  701POPC   C3B12741   7.170  12.207   8.140
  701POPC   C4B12742   7.179  12.332   7.749
  702POPC   NC312743  13.342  34.877   9.753
  702POPC   PO412744  13.661  34.345   9.443
  702POPC   GL112745  13.695  34.521   9.009
  702POPC   GL212746  13.974  34.668   9.092
  702POPC   C1A12747  13.416  34.743   8.686
  702POPC   D2A12748  13.358  34.990   8.330
  702POPC   C3A12749  13.583  34.717   8.050
  702POPC   C4A12750  13.795  34.554   7.665
  702POPC   C1B12751  13.894  34.969   8.763
  702POPC   C2B12752  13.881  35.116   8.312
  702POPC   C3B12753  13.990  34.959   7.878
  702POPC   C4B12754  14.001  34.952   7.377
  703POPC   NC312755  32.590  16.495   9.468
  703POPC   PO412756  32.425  15.844   9.455
  703POPC   GL112757  32.170  16.009   9.113
  703POPC   GL212758  32.422  16.219   9.051
  703POPC   C1A12759  32.017  16.170   8.694
  703POPC   D2A12760  31.946  15.942   8.297
  703POPC   C3A12761  32.014  16.134   7.872
  703POPC   C4A12762  31.752  16.099   7.503
  703POPC   C1B12763  32.504  16.034   8.654
  703POPC   C2B12764  32.444  16.104   8.214
  703POPC   C3B12765  32.510  16.026   7.782
  703POPC   C4B12766  32.498  15.671   7.457
  704POPC   NC312767  16.041  31.375   9.522
  704POPC   PO412768  16.652  31.645   9.717
  704POPC   GL112769  16.665  31.650   9.245
  704POPC   GL212770  16.377  31.546   9.060
  704POPC   C1A12771  16.817  31.498   8.794
  704POPC   D2A12772  17.166  31.394   8.505
  704POPC   C3A12773  17.027  31.341   8.090
  704POPC   C4A12774  16.888  31.635   7.813
  704POPC   C1B12775  16.437  31.802   8.664
  704POPC   C2B12776  16.625  31.619   8.293
  704POPC   C3B12777  16.474  31.359   7.977
  704POPC   C4B12778  16.436  31.415   7.545
  705POPC   NC312779  32.270  39.452   9.283
  705POPC   PO412780  32.675  38.896   9.516
  705POPC   GL112781  32.460  39.013   9.107
  705POPC   GL212782  32.146  39.007   9.038
  705POPC   C1A12783  32.411  38.930   8.615
  705POPC   D2A12784  32.291  38.928   8.187
  705POPC   C3A12785  32.474  39.233   7.873
  705POPC   C4A12786  32.301  39.213   7.472
  705POPC   C1B12787  32.073  39.290   8.704
  705POPC   C2B12788  31.896  39.268   8.310
  705POPC   C3B12789  31.925  39.138   7.891
  705POPC   C4B12790  31.876  39.478   7.609
  706POPC   NC312791  41.188  13.551   9.436
  706POPC   PO412792  40.550  13.506   9.639
  706POPC   GL112793  40.741  13.407   9.239
  706POPC   GL212794  40.891  13.737   9.086
  706POPC   C1A12795  40.830  13.298   8.819
  706POPC   D2A12796  40.641  13.506   8.451
  706POPC   C3A12797  40.678  13.397   8.022
  706POPC   C4A12798  40.806  13.643   7.633
  706POPC   C1B12799  40.499  13.733   8.883
  706POPC   C2B12800  40.329  13.930   8.525
  706POPC   C3B12801  40.519  13.904   8.116
  706POPC   C4B12802  40.438  14.019   7.706
  707POPC   NC312803  33.480   4.420   9.411
  707POPC   PO412804  33.928   3.968   9.516
  707POPC   GL112805  33.730   4.074   9.097
  707POPC   GL212806  33.350   4.046   9.058
  707POPC   C1A12807  33.928   4.168   8.670
  707POPC   D2A12808  34.059   4.018   8.240
  707POPC   C3A12809  33.903   4.257   7.879
  707POPC   C4A12810  33.650   4.595   7.679
  707POPC   C1B12811  33.444   4.347   8.707
  707POPC   C2B12812  33.580   4.356   8.262
  707POPC   C3B12813  33.362   4.212   7.868
  707POPC   C4B12814  33.315   4.284   7.411
  708POPC   NC312815  37.229   7.513   9.425
  708POPC   PO412816  36.618   7.261   9.427
  708POPC   GL112817  36.834   7.332   9.076
  708POPC   GL212818  37.104   7.117   9.125
  708POPC   C1A12819  36.770   7.291   8.635
  708POPC   D2A12820  36.616   7.150   8.225
  708POPC   C3A12821  36.781   7.293   7.842
  708POPC   C4A12822  36.707   7.157   7.429
  708POPC   C1B12823  37.287   7.268   8.747
  708POPC   C2B12824  37.155   7.203   8.323
  708POPC   C3B12825  37.284   7.220   7.916
  708POPC   C4B12826  37.181   7.026   7.527
  709POPC   NC312827  37.593  22.403   9.735
  709POPC   PO412828  38.063  21.959   9.516
  709POPC   GL112829  37.884  22.368   9.300
  709POPC   GL212830  37.545  22.463   9.188
  709POPC   C1A12831  37.865  22.339   8.843
  709POPC   D2A12832  37.680  22.065   8.514
  709POPC   C3A12833  37.568  22.124   8.083
  709POPC   C4A12834  37.766  22.334   7.755
  709POPC   C1B12835  37.311  22.228   8.847
  709POPC   C2B12836  37.151  22.088   8.436
  709POPC   C3B12837  37.066  22.238   8.024
  709POPC   C4B12838  37.187  21.962   7.731
  710POPC   NC312839  30.202  22.358   9.465
  710POPC   PO412840  30.201  21.606   9.331
  710POPC   GL112841  30.058  21.923   9.059
  710POPC   GL212842  29.864  22.235   9.111
  710POPC   C1A12843  29.855  21.955   8.671
  710POPC   D2A12844  30.108  22.121   8.351
  710POPC   C3A12845  29.996  22.355   8.059
  710POPC   C4A12846  30.073  22.187   7.705
  710POPC   C1B12847  29.669  22.504   8.808
  710POPC   C2B12848  29.720  22.653   8.386
  710POPC   C3B12849  29.590  22.656   7.956
  710POPC   C4B12850  29.602  22.356   7.631
  711POPC   NC312851  19.999  21.957   9.609
  711POPC   PO412852  19.525  22.491   9.631
  711POPC   GL112853  19.651  22.264   9.250
  711POPC   GL212854  20.023  22.214   9.168
  711POPC   C1A12855  19.682  22.376   8.807
  711POPC   D2A12856  19.942  22.305   8.432
  711POPC   C3A12857  19.793  22.046   8.116
  711POPC   C4A12858  19.808  22.324   7.780
  711POPC   C1B12859  20.033  21.977   8.786
  711POPC   C2B12860  20.216  21.835   8.369
  711POPC   C3B12861  20.093  21.638   8.005
  711POPC   C4B12862  19.972  21.854   7.651
  712POPC   NC312863  25.396  23.744   9.554
  712POPC   PO412864  24.744  23.505   9.475
  712POPC   GL112865  25.077  23.593   9.156
  712POPC   GL212866  25.248  23.950   9.098
  712POPC   C1A12867  25.071  23.683   8.708
  712POPC   D2A12868  25.314  23.819   8.349
  712POPC   C3A12869  25.143  23.725   7.925
  712POPC   C4A12870  25.245  23.521   7.502
  712POPC   C1B12871  25.462  24.190   8.733
  712POPC   C2B12872  25.701  24.194   8.340
  712POPC   C3B12873  25.672  23.933   7.970
  712POPC   C4B12874  25.444  23.983   7.564
  713POPC   NC312875  32.068  21.957   9.539
  713POPC   PO412876  32.432  22.523   9.455
  713POPC   GL112877  32.140  22.319   9.178
  713POPC   GL212878  32.256  21.974   9.074
  713POPC   C1A12879  32.052  22.365   8.747
  713POPC   D2A12880  31.941  22.285   8.315
  713POPC   C3A12881  32.229  22.185   7.984
  713POPC   C4A12882  32.080  22.175   7.569
  713POPC   C1B12883  32.512  22.106   8.717
  713POPC   C2B12884  32.635  21.912   8.305
  713POPC   C3B12885  32.601  21.789   7.874
  713POPC   C4B12886  32.521  21.928   7.479
  714POPC   NC312887  40.455   4.385   9.439
  714POPC   PO412888  41.067   4.020   9.384
  714POPC   GL112889  40.835   4.277   9.094
  714POPC   GL212890  41.000   4.604   8.973
  714POPC   C1A12891  40.559   4.136   8.766
  714POPC   D2A12892  40.523   3.965   8.347
  714POPC   C3A12893  40.794   4.087   8.040
  714POPC   C4A12894  40.870   4.344   7.687
  714POPC   C1B12895  40.595   4.641   8.793
  714POPC   C2B12896  40.443   4.493   8.408
  714POPC   C3B12897  40.514   4.706   8.006
  714POPC   C4B12898  40.680   4.797   7.592
  715POPC   NC312899  30.125  34.229   9.921
  715POPC   PO412900  29.744  34.679   9.577
  715POPC   GL112901  29.780  34.498   9.143
  715POPC   GL212902  29.709  34.824   9.070
  715POPC   C1A12903  29.957  34.384   8.692
  715POPC   D2A12904  30.101  34.287   8.237
  715POPC   C3A12905  29.829  34.221   7.859
  715POPC   C4A12906  29.908  34.440   7.464
  715POPC   C1B12907  29.960  34.915   8.728
  715POPC   C2B12908  30.034  34.778   8.344
  715POPC   C3B12909  29.898  34.717   7.931
  715POPC   C4B12910  29.751  34.968   7.612
  716POPC   NC312911   5.859  21.742   9.751
  716POPC   PO412912   5.645  22.333   9.780
  716POPC   GL112913   5.626  22.099   9.354
  716POPC   GL212914   5.712  21.760   9.231
  716POPC   C1A12915   5.579  22.135   8.890
  716POPC   D2A12916   5.745  22.087   8.459
  716POPC   C3A12917   5.492  21.994   8.102
  716POPC   C4A12918   5.422  22.298   7.820
  716POPC   C1B12919   5.953  21.763   8.815
  716POPC   C2B12920   6.030  21.686   8.374
  716POPC   C3B12921   5.989  21.921   7.970
  716POPC   C4B12922   6.344  22.098   7.708
  717POPC   NC312923  32.540  17.923   9.738
  717POPC   PO412924  32.252  18.524   9.504
  717POPC   GL112925  32.477  18.340   9.177
  717POPC   GL212926  32.388  17.998   9.224
  717POPC   C1A12927  32.353  18.385   8.745
  717POPC   D2A12928  32.411  18.210   8.331
  717POPC   C3A12929  32.145  18.423   8.038
  717POPC   C4A12930  32.322  18.663   7.714
  717POPC   C1B12931  32.480  17.884   8.789
  717POPC   C2B12932  32.200  17.765   8.444
  717POPC   C3B12933  32.116  17.889   8.038
  717POPC   C4B12934  32.429  18.105   7.793
  718POPC   NC312935  36.239  29.745   9.892
  718POPC   PO412936  35.861  30.114   9.531
  718POPC   GL112937  36.170  29.943   9.252
  718POPC   GL212938  36.334  30.189   9.086
  718POPC   C1A12939  36.205  29.687   8.877
  718POPC   D2A12940  36.359  29.860   8.523
  718POPC   C3A12941  36.329  29.685   8.113
  718POPC   C4A12942  36.205  29.794   7.700
  718POPC   C1B12943  35.948  30.141   8.820
  718POPC   C2B12944  35.719  30.002   8.453
  718POPC   C3B12945  35.843  29.915   8.037
  718POPC   C4B12946  35.971  30.271   7.775
  719POPC   NC312947  18.623  12.033   9.578
  719POPC   PO412948  19.202  11.808   9.545
  719POPC   GL112949  19.180  11.976   9.135
  719POPC   GL212950  18.892  12.147   9.117
  719POPC   C1A12951  19.121  11.835   8.726
  719POPC   D2A12952  19.377  11.931   8.361
  719POPC   C3A12953  19.233  11.788   7.964
  719POPC   C4A12954  19.041  12.056   7.638
  719POPC   C1B12955  18.844  12.275   8.699
  719POPC   C2B12956  18.998  12.311   8.256
  719POPC   C3B12957  18.939  12.513   7.810
  719POPC   C4B12958  18.865  12.444   7.315
  720POPC   NC312959  28.926  21.908   9.480
  720POPC   PO412960  29.635  22.035   9.521
  720POPC   GL112961  29.376  22.083   9.105
  720POPC   GL212962  29.004  22.167   9.050
  720POPC   C1A12963  29.349  22.067   8.633
  720POPC   D2A12964  29.466  22.214   8.191
  720POPC   C3A12965  29.141  22.424   7.874
  720POPC   C4A12966  29.154  22.567   7.424
  720POPC   C1B12967  28.915  21.789   8.752
  720POPC   C2B12968  28.966  21.689   8.277
  720POPC   C3B12969  29.159  21.900   7.886
  720POPC   C4B12970  28.951  22.082   7.497
  721POPC   NC312971  42.602  30.430   9.596
  721POPC   PO412972  42.332  31.031   9.403
  721POPC   GL112973  42.158  30.682   9.168
  721POPC   GL212974  42.425  30.493   9.131
  721POPC   C1A12975  42.060  30.488   8.768
  721POPC   D2A12976  42.284  30.425   8.402
  721POPC   C3A12977  42.192  30.630   7.999
  721POPC   C4A12978  42.148  30.440   7.552
  721POPC   C1B12979  42.526  30.731   8.797
  721POPC   C2B12980  42.744  30.650   8.431
  721POPC   C3B12981  42.678  30.463   8.051
  721POPC   C4B12982  42.583  30.658   7.664
  722POPC   NC312983  22.678  35.339   9.546
  722POPC   PO412984  23.245  35.701   9.541
  722POPC   GL112985  23.061  35.484   9.151
  722POPC   GL212986  22.870  35.139   9.146
  722POPC   C1A12987  22.932  35.417   8.739
  722POPC   D2A12988  22.976  35.188   8.397
  722POPC   C3A12989  22.851  35.455   8.087
  722POPC   C4A12990  23.023  35.520   7.681
  722POPC   C1B12991  22.646  34.968   8.839
  722POPC   C2B12992  22.459  35.165   8.486
  722POPC   C3B12993  22.579  34.999   8.094
  722POPC   C4B12994  22.707  35.133   7.707
  723POPC   NC312995  28.807   5.554   9.313
  723POPC   PO412996  29.368   5.159   9.589
  723POPC   GL112997  29.300   4.863   9.236
  723POPC   GL212998  28.969   4.893   9.120
  723POPC   C1A12999  29.309   4.724   8.785
  723POPC   D2A13000  29.532   4.806   8.391
  723POPC   C3A13001  29.382   4.931   8.001
  723POPC   C4A13002  29.262   4.656   7.643
  723POPC   C1B13003  29.091   5.172   8.807
  723POPC   C2B13004  29.159   5.218   8.373
  723POPC   C3B13005  28.941   5.208   7.994
  723POPC   C4B13006  28.867   4.974   7.628
  724POPC   NC313007  21.997  38.622   9.521
  724POPC   PO413008  22.597  38.392   9.407
  724POPC   GL113009  22.223  38.309   9.186
  724POPC   GL213010  22.395  38.040   9.036
  724POPC   C1A13011  22.060  38.540   8.847
  724POPC   D2A13012  22.337  38.578   8.448
  724POPC   C3A13013  22.355  38.800   8.068
  724POPC   C4A13014  22.084  38.720   7.769
  724POPC   C1B13015  22.114  38.083   8.677
  724POPC   C2B13016  21.896  38.364   8.367
  724POPC   C3B13017  22.159  38.279   8.023
  724POPC   C4B13018  22.151  38.076   7.629
  725POPC   NC313019  23.039   4.695   9.310
  725POPC   PO413020  22.704   5.329   9.316
  725POPC   GL113021  23.057   5.185   9.118
  725POPC   GL213022  23.397   5.228   9.199
  725POPC   C1A13023  23.217   4.993   8.770
  725POPC   D2A13024  23.285   5.115   8.361
  725POPC   C3A13025  22.893   5.092   8.162
  725POPC   C4A13026  22.887   4.977   7.736
  725POPC   C1B13027  23.375   5.476   8.775
  725POPC   C2B13028  23.098   5.573   8.390
  725POPC   C3B13029  23.148   5.455   7.923
  725POPC   C4B13030  23.043   5.415   7.456
  726POPC   NC313031  16.949   2.297   9.298
  726POPC   PO413032  16.878   2.920   9.487
  726POPC   GL113033  16.561   2.730   9.177
  726POPC   GL213034  16.837   2.642   8.958
  726POPC   C1A13035  16.451   2.818   8.707
  726POPC   D2A13036  16.870   2.826   8.451
  726POPC   C3A13037  16.870   3.083   8.083
  726POPC   C4A13038  16.533   3.079   7.768
  726POPC   C1B13039  16.557   2.313   8.753
  726POPC   C2B13040  16.648   2.361   8.359
  726POPC   C3B13041  16.594   2.612   8.052
  726POPC   C4B13042  16.709   2.316   7.764
  727POPC   NC313043   6.217  32.486   9.542
  727POPC   PO413044   5.944  33.022   9.558
  727POPC   GL113045   5.822  32.870   9.133
  727POPC   GL213046   5.754  33.216   9.118
  727POPC   C1A13047   5.593  32.982   8.716
  727POPC   D2A13048   5.698  33.104   8.302
  727POPC   C3A13049   5.487  32.913   7.944
  727POPC   C4A13050   5.723  32.743   7.592
  727POPC   C1B13051   6.115  33.149   8.805
  727POPC   C2B13052   6.170  33.309   8.352
  727POPC   C3B13053   6.044  33.324   7.875
  727POPC   C4B13054   6.199  33.474   7.441
  728POPC   NC313055  34.521   8.011   9.518
  728POPC   PO413056  34.686   8.693   9.735
  728POPC   GL113057  34.516   8.454   9.321
  728POPC   GL213058  34.880   8.235   9.241
  728POPC   C1A13059  34.538   8.236   8.885
  728POPC   D2A13060  34.760   8.191   8.518
  728POPC   C3A13061  34.519   8.037   8.228
  728POPC   C4A13062  34.396   8.143   7.832
  728POPC   C1B13063  35.039   7.981   8.887
  728POPC   C2B13064  35.247   7.822   8.535
  728POPC   C3B13065  35.075   7.871   8.132
  728POPC   C4B13066  34.905   8.208   7.916
  729POPC   NC313067  44.917  44.143   9.638
  729POPC   PO413068  44.522  43.680   9.780
  729POPC   GL113069  44.502  43.906   9.322
  729POPC   GL213070  44.756  44.143   9.162
  729POPC   C1A13071  44.547  43.759   8.879
  729POPC   D2A13072  44.821  43.698   8.546
  729POPC   C3A13073  44.708  43.843   8.183
  729POPC   C4A13074  44.635  43.725   7.777
  729POPC   C1B13075  44.735  44.196   8.706
  729POPC   C2B13076  44.375  44.178   8.400
  729POPC   C3B13077  44.474  44.240   7.948
  729POPC   C4B13078  44.860  44.307   7.667
  730POPC   NC313079  31.198  22.446   9.484
  730POPC   PO413080  31.625  21.963   9.677
  730POPC   GL113081  31.676  21.941   9.219
  730POPC   GL213082  31.382  21.796   9.057
  730POPC   C1A13083  31.822  21.890   8.801
  730POPC   D2A13084  31.550  21.945   8.445
  730POPC   C3A13085  31.438  22.291   8.187
  730POPC   C4A13086  31.673  22.361   7.829
  730POPC   C1B13087  31.125  21.729   8.674
  730POPC   C2B13088  31.071  21.888   8.223
  730POPC   C3B13089  31.280  21.882   7.811
  730POPC   C4B13090  31.127  21.866   7.363
  731POPC   NC313091  11.403  26.638   9.911
  731POPC   PO413092  11.456  27.087   9.427
  731POPC   GL113093  11.336  26.974   9.021
  731POPC   GL213094  11.005  26.829   9.046
  731POPC   C1A13095  11.567  26.825   8.684
  731POPC   D2A13096  11.544  26.550   8.341
  731POPC   C3A13097  11.561  26.825   7.996
  731POPC   C4A13098  11.321  26.765   7.657
  731POPC   C1B13099  10.971  27.062   8.691
  731POPC   C2B13100  11.200  27.033   8.305
  731POPC   C3B13101  11.000  27.084   7.917
  731POPC   C4B13102  11.164  27.217   7.514
  732POPC   NC313103   9.102   9.357   9.539
  732POPC   PO413104   8.752   9.884   9.645
  732POPC   GL113105   8.800   9.935   9.190
  732POPC   GL213106   9.097   9.730   9.170
  732POPC   C1A13107   8.858   9.792   8.740
  732POPC   D2A13108   9.076   9.657   8.379
  732POPC   C3A13109   8.923   9.523   7.984
  732POPC   C4A13110   8.812   9.814   7.720
  732POPC   C1B13111   9.320   9.451   8.883
  732POPC   C2B13112   9.431   9.317   8.466
  732POPC   C3B13113   9.445   9.545   8.039
  732POPC   C4B13114   9.308   9.750   7.643
  733POPC   NC313115  14.050  18.129   9.498
  733POPC   PO413116  13.364  18.200   9.461
  733POPC   GL113117  13.628  18.358   9.171
  733POPC   GL213118  13.847  18.124   9.024
  733POPC   C1A13119  13.462  18.320   8.764
  733POPC   D2A13120  13.666  18.254   8.373
  733POPC   C3A13121  13.431  18.103   8.047
  733POPC   C4A13122  13.279  18.338   7.712
  733POPC   C1B13123  13.930  18.486   8.749
  733POPC   C2B13124  13.964  18.694   8.328
  733POPC   C3B13125  14.010  18.467   7.914
  733POPC   C4B13126  14.108  18.563   7.423
  734POPC   NC313127   4.722  34.517   9.460
  734POPC   PO413128   4.025  34.489   9.552
  734POPC   GL113129   4.285  34.658   9.216
  734POPC   GL213130   4.329  34.312   9.175
  734POPC   C1A13131   4.494  34.667   8.788
  734POPC   D2A13132   4.371  34.938   8.453
  734POPC   C3A13133   4.298  34.786   8.013
  734POPC   C4A13134   4.092  35.000   7.708
  734POPC   C1B13135   4.184  34.270   8.775
  734POPC   C2B13136   4.217  34.425   8.360
  734POPC   C3B13137   4.288  34.271   7.933
  734POPC   C4B13138   4.508  34.262   7.517
  735POPC   NC313139  24.722  22.278   9.537
  735POPC   PO413140  24.126  22.168   9.622
  735POPC   GL113141  24.337  22.289   9.201
  735POPC   GL213142  24.657  22.439   9.062
  735POPC   C1A13143  24.386  21.995   8.848
  735POPC   D2A13144  24.633  21.820   8.500
  735POPC   C3A13145  24.506  22.046   8.135
  735POPC   C4A13146  24.464  22.130   7.711
  735POPC   C1B13147  24.333  22.528   8.751
  735POPC   C2B13148  24.413  22.521   8.339
  735POPC   C3B13149  24.700  22.503   8.003
  735POPC   C4B13150  24.527  22.625   7.632
  736POPC   NC313151  33.947   6.764   9.480
  736POPC   PO413152  33.325   6.393   9.407
  736POPC   GL113153  33.726   6.416   9.137
  736POPC   GL213154  34.099   6.492   9.090
  736POPC   C1A13155  33.745   6.405   8.682
  736POPC   D2A13156  33.434   6.525   8.380
  736POPC   C3A13157  33.607   6.627   7.951
  736POPC   C4A13158  33.978   6.482   7.753
  736POPC   C1B13159  34.168   6.676   8.701
  736POPC   C2B13160  33.957   6.714   8.321
  736POPC   C3B13161  34.029   6.943   7.979
  736POPC   C4B13162  34.313   6.843   7.627
  737POPC   NC313163  33.385   8.795   9.452
  737POPC   PO413164  32.875   9.273   9.520
  737POPC   GL113165  33.005   9.036   9.174
  737POPC   GL213166  32.939   8.652   9.180
  737POPC   C1A13167  33.135   9.168   8.769
  737POPC   D2A13168  33.175   8.909   8.401
  737POPC   C3A13169  33.140   9.177   8.045
  737POPC   C4A13170  32.881   9.150   7.657
  737POPC   C1B13171  32.753   8.805   8.768
  737POPC   C2B13172  32.735   8.654   8.342
  737POPC   C3B13173  32.987   8.689   7.942
  737POPC   C4B13174  32.842   8.587   7.505
  738POPC   NC313175   6.246  19.045   9.705
  738POPC   PO413176   5.620  19.260   9.515
  738POPC   GL113177   5.799  19.297   9.046
  738POPC   GL213178   6.012  19.014   8.985
  738POPC   C1A13179   5.829  19.244   8.548
  738POPC   D2A13180   5.600  18.948   8.217
  738POPC   C3A13181   5.547  18.935   7.740
  738POPC   C4A13182   5.473  18.754   7.283
  738POPC   C1B13183   6.253  18.888   8.620
  738POPC   C2B13184   6.051  18.592   8.339
  738POPC   C3B13185   6.038  18.804   7.963
  738POPC   C4B13186   6.416  18.887   7.802
  739POPC   NC313187  39.466  32.305   9.661
  739POPC   PO413188  39.116  31.746   9.764
  739POPC   GL113189  39.100  32.090   9.382
  739POPC   GL213190  38.853  32.052   9.113
  739POPC   C1A13191  39.306  32.218   8.935
  739POPC   D2A13192  39.217  32.388   8.495
  739POPC   C3A13193  39.378  32.270   8.066
  739POPC   C4A13194  39.261  32.195   7.633
  739POPC   C1B13195  38.897  31.986   8.667
  739POPC   C2B13196  39.001  31.956   8.222
  739POPC   C3B13197  38.766  31.982   7.830
  739POPC   C4B13198  38.911  31.895   7.407
  740POPC   NC313199  19.628   6.375   9.357
  740POPC   PO413200  20.012   6.831   9.640
  740POPC   GL113201  19.968   6.748   9.204
  740POPC   GL213202  20.134   6.445   9.131
  740POPC   C1A13203  19.765   6.714   8.801
  740POPC   D2A13204  19.559   7.005   8.565
  740POPC   C3A13205  19.524   6.844   8.150
  740POPC   C4A13206  19.444   6.996   7.730
  740POPC   C1B13207  20.277   6.677   8.768
  740POPC   C2B13208  20.097   6.705   8.351
  740POPC   C3B13209  20.152   6.432   7.954
  740POPC   C4B13210  20.061   6.360   7.476
  741POPC   NC313211  17.503  22.345   9.594
  741POPC   PO413212  17.169  21.726   9.623
  741POPC   GL113213  17.312  21.972   9.208
  741POPC   GL213214  17.599  22.147   9.130
  741POPC   C1A13215  17.388  21.948   8.714
  741POPC   D2A13216  17.206  21.992   8.299
  741POPC   C3A13217  17.425  22.143   7.949
  741POPC   C4A13218  17.362  22.073   7.537
  741POPC   C1B13219  17.338  22.432   8.852
  741POPC   C2B13220  17.301  22.579   8.396
  741POPC   C3B13221  17.490  22.646   7.972
  741POPC   C4B13222  17.710  22.442   7.618
  742POPC   NC313223  29.439   8.163   9.523
  742POPC   PO413224  28.806   8.345   9.499
  742POPC   GL113225  29.038   8.103   9.207
  742POPC   GL213226  28.730   8.097   9.049
  742POPC   C1A13227  29.180   7.961   8.799
  742POPC   D2A13228  29.049   7.891   8.389
  742POPC   C3A13229  29.347   8.008   8.104
  742POPC   C4A13230  29.458   8.053   7.684
  742POPC   C1B13231  28.942   8.432   8.817
  742POPC   C2B13232  28.840   8.371   8.391
  742POPC   C3B13233  29.007   8.378   7.983
  742POPC   C4B13234  28.963   8.658   7.663
  743POPC   NC313235   9.559  18.280   9.418
  743POPC   PO413236  10.172  18.014   9.481
  743POPC   GL113237   9.950  18.217   9.108
  743POPC   GL213238   9.614  18.049   8.971
  743POPC   C1A13239   9.855  18.520   8.808
  743POPC   D2A13240   9.661  18.823   8.527
  743POPC   C3A13241   9.564  18.635   8.106
  743POPC   C4A13242   9.940  18.405   7.962
  743POPC   C1B13243   9.898  18.025   8.634
  743POPC   C2B13244  10.188  17.979   8.288
  743POPC   C3B13245   9.935  17.900   7.945
  743POPC   C4B13246   9.590  17.834   7.731
  744POPC   NC313247  28.844  41.541   9.146
  744POPC   PO413248  29.388  41.293   9.484
  744POPC   GL113249  29.247  41.187   9.087
  744POPC   GL213250  28.939  41.045   9.027
  744POPC   C1A13251  29.395  41.013   8.696
  744POPC   D2A13252  29.417  41.288   8.370
  744POPC   C3A13253  29.565  41.326   7.974
  744POPC   C4A13254  29.673  41.732   7.844
  744POPC   C1B13255  28.902  41.141   8.578
  744POPC   C2B13256  28.973  41.541   8.349
  744POPC   C3B13257  29.166  41.745   8.004
  744POPC   C4B13258  29.113  41.450   7.725
  745POPC   NC313259  42.543  11.625   9.459
  745POPC   PO413260  42.328  10.993   9.470
  745POPC   GL113261  42.220  11.116   9.102
  745POPC   GL213262  41.922  10.952   9.081
  745POPC   C1A13263  42.205  11.472   8.824
  745POPC   D2A13264  42.176  11.609   8.396
  745POPC   C3A13265  42.467  11.398   8.130
  745POPC   C4A13266  42.545  11.240   7.725
  745POPC   C1B13267  41.951  11.032   8.665
  745POPC   C2B13268  42.012  10.832   8.317
  745POPC   C3B13269  42.100  11.065   7.971
  745POPC   C4B13270  42.042  11.179   7.567
  746POPC   NC313271   7.313  33.238   9.540
  746POPC   PO413272   7.598  32.637   9.464
  746POPC   GL113273   7.525  32.931   9.124
  746POPC   GL213274   7.183  33.009   9.080
  746POPC   C1A13275   7.519  32.982   8.660
  746POPC   D2A13276   7.374  33.149   8.263
  746POPC   C3A13277   7.697  33.113   7.914
  746POPC   C4A13278   7.654  33.121   7.453
  746POPC   C1B13279   7.044  33.262   8.726
  746POPC   C2B13280   6.897  33.367   8.333
  746POPC   C3B13281   6.996  33.317   7.904
  746POPC   C4B13282   7.230  33.015   7.735
  747POPC   NC313283  22.181  16.295   9.563
  747POPC   PO413284  22.034  15.603   9.538
  747POPC   GL113285  22.246  15.899   9.205
  747POPC   GL213286  22.058  16.207   9.070
  747POPC   C1A13287  22.473  16.062   8.814
  747POPC   D2A13288  22.500  15.917   8.375
  747POPC   C3A13289  22.332  16.076   7.977
  747POPC   C4A13290  22.138  16.191   7.585
  747POPC   C1B13291  22.002  15.883   8.723
  747POPC   C2B13292  21.964  15.917   8.285
  747POPC   C3B13293  21.794  16.116   7.934
  747POPC   C4B13294  21.729  15.913   7.534
  748POPC   NC313295   6.286  43.539   9.432
  748POPC   PO413296   5.646  43.731   9.640
  748POPC   GL113297   5.687  43.813   9.212
  748POPC   GL213298   6.004  43.830   9.113
  748POPC   C1A13299   5.624  43.942   8.808
  748POPC   D2A13300   5.833  44.022   8.458
  748POPC   C3A13301   5.537  43.858   8.177
  748POPC   C4A13302   5.803  43.839   7.826
  748POPC   C1B13303   6.183  43.629   8.760
  748POPC   C2B13304   6.334  43.866   8.430
  748POPC   C3B13305   6.302  43.851   8.013
  748POPC   C4B13306   6.188  43.481   7.831
  749POPC   NC313307   6.055   5.895   9.903
  749POPC   PO413308   6.129   5.665   9.488
  749POPC   GL113309   5.948   5.741   9.040
  749POPC   GL213310   5.687   6.005   9.047
  749POPC   C1A13311   5.928   5.602   8.590
  749POPC   D2A13312   5.995   5.370   8.192
  749POPC   C3A13313   5.840   5.633   7.826
  749POPC   C4A13314   5.550   5.885   7.541
  749POPC   C1B13315   5.807   6.110   8.628
  749POPC   C2B13316   5.690   5.963   8.241
  749POPC   C3B13317   5.823   6.152   7.874
  749POPC   C4B13318   6.182   6.024   7.627
  750POPC   NC313319  40.851  11.304   9.481
  750POPC   PO413320  40.347  10.883   9.489
  750POPC   GL113321  40.540  11.017   9.134
  750POPC   GL213322  40.514  11.390   9.117
  750POPC   C1A13323  40.451  11.096   8.701
  750POPC   D2A13324  40.782  11.111   8.439
  750POPC   C3A13325  40.785  11.260   8.067
  750POPC   C4A13326  40.663  11.064   7.708
  750POPC   C1B13327  40.724  11.561   8.735
  750POPC   C2B13328  41.080  11.567   8.459
  750POPC   C3B13329  41.116  11.630   8.019
  750POPC   C4B13330  40.833  11.580   7.666
  751POPC   NC313331  37.908  28.514   9.712
  751POPC   PO413332  37.606  27.977   9.494
  751POPC   GL113333  37.755  28.160   9.123
  751POPC   GL213334  37.733  28.496   9.207
  751POPC   C1A13335  37.838  28.078   8.674
  751POPC   D2A13336  37.953  28.197   8.230
  751POPC   C3A13337  37.659  28.304   7.915
  751POPC   C4A13338  37.571  28.210   7.485
  751POPC   C1B13339  37.803  28.591   8.764
  751POPC   C2B13340  37.735  28.720   8.329
  751POPC   C3B13341  37.970  28.700   7.968
  751POPC   C4B13342  37.954  28.638   7.510
  752POPC   NC313343  20.989  41.622   9.826
  752POPC   PO413344  21.596  41.342   9.673
  752POPC   GL113345  21.336  41.650   9.398
  752POPC   GL213346  21.611  41.638   9.199
  752POPC   C1A13347  21.188  41.609   8.938
  752POPC   D2A13348  21.271  41.665   8.506
  752POPC   C3A13349  21.192  41.699   8.092
  752POPC   C4A13350  21.045  41.638   7.703
  752POPC   C1B13351  21.682  41.406   8.808
  752POPC   C2B13352  21.659  41.343   8.366
  752POPC   C3B13353  21.632  41.469   7.915
  752POPC   C4B13354  21.666  41.443   7.429
  753POPC   NC313355  41.942  15.969   9.406
  753POPC   PO413356  41.370  15.689   9.539
  753POPC   GL113357  41.492  15.920   9.163
  753POPC   GL213358  41.447  16.228   9.089
  753POPC   C1A13359  41.776  15.932   8.783
  753POPC   D2A13360  41.846  15.832   8.370
  753POPC   C3A13361  41.658  15.564   8.099
  753POPC   C4A13362  41.479  15.700   7.710
  753POPC   C1B13363  41.571  16.398   8.735
  753POPC   C2B13364  41.419  16.152   8.418
  753POPC   C3B13365  41.593  16.102   8.025
  753POPC   C4B13366  41.486  16.202   7.623
  754POPC   NC313367  25.061  26.222   9.562
  754POPC   PO413368  25.656  25.911   9.534
  754POPC   GL113369  25.397  26.082   9.215
  754POPC   GL213370  25.097  25.863   9.185
  754POPC   C1A13371  25.142  26.268   8.866
  754POPC   D2A13372  25.147  26.088   8.446
  754POPC   C3A13373  25.408  25.991   8.097
  754POPC   C4A13374  25.311  26.224   7.727
  754POPC   C1B13375  24.868  25.816   8.783
  754POPC   C2B13376  24.669  25.941   8.366
  754POPC   C3B13377  24.884  25.989   7.968
  754POPC   C4B13378  25.107  25.721   7.672
  755POPC   NC313379  44.624   9.149   9.563
  755POPC   PO413380   0.052   8.648   9.556
  755POPC   GL113381  44.825   8.840   9.197
  755POPC   GL213382  44.468   8.968   9.135
  755POPC   C1A13383  44.808   8.936   8.771
  755POPC   D2A13384  44.978   9.154   8.456
  755POPC   C3A13385  44.828   8.967   8.116
  755POPC   C4A13386   0.056   9.053   7.741
  755POPC   C1B13387  44.266   9.060   8.737
  755POPC   C2B13388  44.227   8.984   8.301
  755POPC   C3B13389  44.359   8.759   7.946
  755POPC   C4B13390  44.542   9.101   7.725
  756POPC   NC313391  28.242  34.883   9.656
  756POPC   PO413392  28.083  34.253   9.544
  756POPC   GL113393  28.315  34.533   9.236
  756POPC   GL213394  28.237  34.874   9.161
  756POPC   C1A13395  28.422  34.439   8.812
  756POPC   D2A13396  28.660  34.541   8.449
  756POPC   C3A13397  28.517  34.492   8.016
  756POPC   C4A13398  28.364  34.237   7.662
  756POPC   C1B13399  28.030  34.794   8.796
  756POPC   C2B13400  28.168  34.655   8.406
  756POPC   C3B13401  28.111  34.818   8.018
  756POPC   C4B13402  28.242  34.800   7.611
  757POPC   NC313403  10.031   9.954   9.628
  757POPC   PO413404   9.438   9.659   9.539
  757POPC   GL113405   9.628   9.749   9.190
  757POPC   GL213406   9.974   9.745   9.171
  757POPC   C1A13407   9.589   9.906   8.801
  757POPC   D2A13408   9.349  10.062   8.485
  757POPC   C3A13409   9.631  10.005   8.161
  757POPC   C4A13410   9.853   9.785   7.828
  757POPC   C1B13411  10.108   9.879   8.739
  757POPC   C2B13412  10.160  10.017   8.283
  757POPC   C3B13413  10.009  10.296   7.936
  757POPC   C4B13414   9.991  10.198   7.460
  758POPC   NC313415  36.572   0.481   9.233
  758POPC   PO413416  36.169   0.281   9.699
  758POPC   GL113417  36.096   0.252   9.218
  758POPC   GL213418  35.939   0.524   9.164
  758POPC   C1A13419  36.159   0.415   8.741
  758POPC   D2A13420  36.369   0.234   8.436
  758POPC   C3A13421  36.248   0.398   8.054
  758POPC   C4A13422  36.147   0.470   7.657
  758POPC   C1B13423  35.830   0.813   8.814
  758POPC   C2B13424  35.868   0.934   8.408
  758POPC   C3B13425  35.903   0.823   7.964
  758POPC   C4B13426  35.682   0.648   7.603
  759POPC   NC313427   8.470  16.002   9.625
  759POPC   PO413428   7.801  16.303   9.583
  759POPC   GL113429   7.984  16.142   9.194
  759POPC   GL213430   8.300  16.130   9.177
  759POPC   C1A13431   8.077  15.903   8.781
  759POPC   D2A13432   8.205  15.806   8.337
  759POPC   C3A13433   8.090  15.984   7.929
  759POPC   C4A13434   8.238  15.935   7.502
  759POPC   C1B13435   8.503  16.221   8.815
  759POPC   C2B13436   8.388  16.329   8.422
  759POPC   C3B13437   8.606  16.457   8.090
  759POPC   C4B13438   8.492  16.307   7.722
  760POPC   NC313439   9.796   2.874   9.616
  760POPC   PO413440   9.401   2.407   9.639
  760POPC   GL113441   9.700   2.490   9.252
  760POPC   GL213442   9.906   2.795   9.126
  760POPC   C1A13443   9.662   2.508   8.789
  760POPC   D2A13444   9.514   2.659   8.387
  760POPC   C3A13445   9.659   2.590   7.971
  760POPC   C4A13446   9.482   2.683   7.552
  760POPC   C1B13447   9.790   2.993   8.687
  760POPC   C2B13448   9.753   3.076   8.198
  760POPC   C3B13449   9.760   3.069   7.713
  760POPC   C4B13450   9.657   3.074   7.237
  761POPC   NC313451  41.012  30.447   9.580
  761POPC   PO413452  40.506  30.901   9.528
  761POPC   GL113453  40.804  30.700   9.196
  761POPC   GL213454  40.985  30.382   9.086
  761POPC   C1A13455  40.939  30.791   8.782
  761POPC   D2A13456  40.661  30.705   8.451
  761POPC   C3A13457  40.791  30.794   8.061
  761POPC   C4A13458  40.884  31.178   7.833
  761POPC   C1B13459  40.575  30.386   8.858
  761POPC   C2B13460  40.331  30.289   8.502
  761POPC   C3B13461  40.542  30.324   8.121
  761POPC   C4B13462  40.489  30.521   7.761
  762POPC   NC313463  32.484   5.211   9.460
  762POPC   PO413464  31.808   5.309   9.458
  762POPC   GL113465  32.065   5.119   9.171
  762POPC   GL213466  32.128   4.799   9.320
  762POPC   C1A13467  32.264   5.216   8.798
  762POPC   D2A13468  32.413   5.357   8.391
  762POPC   C3A13469  32.426   5.131   8.045
  762POPC   C4A13470  32.360   5.259   7.665
  762POPC   C1B13471  32.125   4.704   8.866
  762POPC   C2B13472  32.162   4.866   8.429
  762POPC   C3B13473  32.114   4.697   8.013
  762POPC   C4B13474  32.122   4.804   7.594
  763POPC   NC313475   7.767   8.673   9.709
  763POPC   PO413476   8.399   8.952   9.564
  763POPC   GL113477   8.065   8.846   9.273
  763POPC   GL213478   8.301   8.697   9.036
  763POPC   C1A13479   7.946   9.059   8.890
  763POPC   D2A13480   8.083   9.337   8.582
  763POPC   C3A13481   8.128   9.282   8.125
  763POPC   C4A13482   7.960   9.215   7.692
  763POPC   C1B13483   7.980   8.574   8.750
  763POPC   C2B13484   7.968   8.844   8.402
  763POPC   C3B13485   8.059   8.788   7.986
  763POPC   C4B13486   7.824   8.589   7.687
  764POPC   NC313487  28.068   5.226   9.799
  764POPC   PO413488  28.673   5.004   9.516
  764POPC   GL113489  28.529   5.180   9.154
  764POPC   GL213490  28.217   5.204   9.108
  764POPC   C1A13491  28.596   5.078   8.754
  764POPC   D2A13492  28.535   5.203   8.335
  764POPC   C3A13493  28.476   4.985   7.949
  764POPC   C4A13494  28.415   5.149   7.506
  764POPC   C1B13495  28.181   5.368   8.694
  764POPC   C2B13496  28.009   5.162   8.326
  764POPC   C3B13497  28.047   5.288   7.897
  764POPC   C4B13498  27.970   5.406   7.461
  765POPC   NC313499  30.453  20.074   9.675
  765POPC   PO413500  31.026  19.938   9.455
  765POPC   GL113501  30.670  19.798   9.222
  765POPC   GL213502  30.854  19.469   9.225
  765POPC   C1A13503  30.579  19.815   8.770
  765POPC   D2A13504  30.968  19.922   8.504
  765POPC   C3A13505  30.912  19.863   8.054
  765POPC   C4A13506  30.877  20.086   7.647
  765POPC   C1B13507  30.936  19.459   8.789
  765POPC   C2B13508  30.704  19.489   8.376
  765POPC   C3B13509  30.718  19.397   7.914
  765POPC   C4B13510  30.354  19.290   7.629
  766POPC   NC313511  38.080  25.308   9.713
  766POPC   PO413512  38.607  25.123   9.249
  766POPC   GL113513  38.293  25.390   9.170
  766POPC   GL213514  38.114  25.198   8.922
  766POPC   C1A13515  38.378  25.628   8.795
  766POPC   D2A13516  38.199  25.667   8.379
  766POPC   C3A13517  38.391  25.439   8.035
  766POPC   C4A13518  38.790  25.279   7.825
  766POPC   C1B13519  38.404  25.152   8.558
  766POPC   C2B13520  38.576  24.955   8.181
  766POPC   C3B13521  38.354  24.983   7.800
  766POPC   C4B13522  37.962  25.063   7.597
  767POPC   NC313523  14.885  18.126   9.706
  767POPC   PO413524  14.271  18.578   9.568
  767POPC   GL113525  14.241  18.479   9.150
  767POPC   GL213526  14.470  18.236   9.173
  767POPC   C1A13527  14.414  18.595   8.700
  767POPC   D2A13528  14.468  18.726   8.232
  767POPC   C3A13529  14.523  18.487   7.829
  767POPC   C4A13530  14.586  18.496   7.383
  767POPC   C1B13531  14.296  18.104   8.791
  767POPC   C2B13532  14.189  18.219   8.378
  767POPC   C3B13533  14.317  18.048   8.001
  767POPC   C4B13534  14.156  18.096   7.601
  768POPC   NC313535  21.287  33.417   9.643
  768POPC   PO413536  21.079  32.703   9.512
  768POPC   GL113537  21.311  32.796   9.123
  768POPC   GL213538  21.600  32.680   9.133
  768POPC   C1A13539  21.376  33.123   8.804
  768POPC   D2A13540  21.215  33.357   8.450
  768POPC   C3A13541  21.328  33.154   8.075
  768POPC   C4A13542  21.646  33.191   7.755
  768POPC   C1B13543  21.746  32.781   8.767
  768POPC   C2B13544  21.574  32.831   8.386
  768POPC   C3B13545  21.628  32.719   7.972
  768POPC   C4B13546  21.899  32.752   7.610
  769POPC   NC313547   1.506  22.091   9.530
  769POPC   PO413548   2.154  22.225   9.456
  769POPC   GL113549   1.919  22.398   9.147
  769POPC   GL213550   1.591  22.339   9.091
  769POPC   C1A13551   1.959  22.437   8.706
  769POPC   D2A13552   2.026  22.134   8.420
  769POPC   C3A13553   2.053  22.243   8.040
  769POPC   C4A13554   1.906  22.264   7.700
  769POPC   C1B13555   1.748  21.990   8.855
  769POPC   C2B13556   1.618  21.824   8.458
  769POPC   C3B13557   1.621  21.961   8.042
  769POPC   C4B13558   1.576  21.857   7.610
  770POPC   NC313559  41.695  14.379   9.677
  770POPC   PO413560  41.360  13.964   9.272
  770POPC   GL113561  41.500  14.174   8.957
  770POPC   GL213562  41.713  14.463   9.079
  770POPC   C1A13563  41.385  14.315   8.600
  770POPC   D2A13564  41.535  14.693   8.459
  770POPC   C3A13565  41.686  14.571   8.063
  770POPC   C4A13566  41.427  14.257   7.824
  770POPC   C1B13567  41.927  14.369   8.675
  770POPC   C2B13568  41.932  14.135   8.275
  770POPC   C3B13569  41.923  14.175   7.825
  770POPC   C4B13570  41.815  14.004   7.425
  771POPC   NC313571  14.634  18.877   9.690
  771POPC   PO413572  14.235  19.308   9.491
  771POPC   GL113573  14.358  19.032   9.137
  771POPC   GL213574  14.075  18.916   8.968
  771POPC   C1A13575  14.457  19.114   8.681
  771POPC   D2A13576  14.268  19.196   8.275
  771POPC   C3A13577  14.562  19.248   7.945
  771POPC   C4A13578  14.739  18.937   7.657
  771POPC   C1B13579  13.984  19.284   8.763
  771POPC   C2B13580  13.782  19.309   8.382
  771POPC   C3B13581  13.846  19.111   7.990
  771POPC   C4B13582  14.217  18.910   7.794
  772POPC   NC313583  20.827  12.895   9.510
  772POPC   PO413584  20.380  12.499   9.774
  772POPC   GL113585  20.441  12.626   9.280
  772POPC   GL213586  20.271  12.913   9.140
  772POPC   C1A13587  20.714  12.820   8.888
  772POPC   D2A13588  20.760  13.084   8.488
  772POPC   C3A13589  20.904  12.931   8.105
  772POPC   C4A13590  21.049  13.158   7.762
  772POPC   C1B13591  20.264  12.901   8.696
  772POPC   C2B13592  20.297  12.985   8.289
  772POPC   C3B13593  20.444  12.825   7.935
  772POPC   C4B13594  20.246  12.965   7.630
  773POPC   NC313595   1.822  43.770   9.508
  773POPC   PO413596   2.380  43.595   9.429
  773POPC   GL113597   2.133  43.805   9.108
  773POPC   GL213598   1.897  44.111   9.148
  773POPC   C1A13599   2.165  44.059   8.724
  773POPC   D2A13600   2.174  44.166   8.305
  773POPC   C3A13601   1.926  43.884   8.051
  773POPC   C4A13602   2.038  43.757   7.633
  773POPC   C1B13603   1.713  43.800   8.838
  773POPC   C2B13604   1.566  43.762   8.415
  773POPC   C3B13605   1.551  43.490   8.063
  773POPC   C4B13606   1.557  43.656   7.681
  774POPC   NC313607   2.934  30.476   9.555
  774POPC   PO413608   2.700  29.847   9.806
  774POPC   GL113609   2.859  29.970   9.360
  774POPC   GL213610   2.597  30.004   9.115
  774POPC   C1A13611   3.040  29.988   8.889
  774POPC   D2A13612   2.880  30.094   8.430
  774POPC   C3A13613   2.794  29.874   8.011
  774POPC   C4A13614   3.003  29.530   7.800
  774POPC   C1B13615   2.704  30.384   8.842
  774POPC   C2B13616   2.692  30.567   8.423
  774POPC   C3B13617   2.588  30.380   8.025
  774POPC   C4B13618   2.673  30.202   7.616
  775POPC   NC313619   2.738  24.782   9.385
  775POPC   PO413620   2.871  25.387   9.517
  775POPC   GL113621   2.547  25.237   9.176
  775POPC   GL213622   2.421  24.898   9.014
  775POPC   C1A13623   2.518  25.319   8.739
  775POPC   D2A13624   2.507  25.636   8.403
  775POPC   C3A13625   2.427  25.411   8.004
  775POPC   C4A13626   2.690  25.294   7.645
  775POPC   C1B13627   2.793  24.847   8.719
  775POPC   C2B13628   2.982  24.781   8.285
  775POPC   C3B13629   3.051  24.943   7.830
  775POPC   C4B13630   2.932  24.938   7.376
  776POPC   NC313631  36.418   4.409   9.441
  776POPC   PO413632  35.824   4.044   9.473
  776POPC   GL113633  36.135   4.113   9.131
  776POPC   GL213634  36.181   4.438   9.001
  776POPC   C1A13635  36.397   4.049   8.746
  776POPC   D2A13636  36.161   4.237   8.417
  776POPC   C3A13637  36.040   4.137   7.999
  776POPC   C4A13638  36.418   4.040   7.788
  776POPC   C1B13639  35.904   4.536   8.727
  776POPC   C2B13640  36.088   4.747   8.375
  776POPC   C3B13641  36.357   4.571   8.079
  776POPC   C4B13642  36.183   4.547   7.694
  777POPC   NC313643  18.659  43.433   9.613
  777POPC   PO413644  18.071  43.132   9.727
  777POPC   GL113645  18.112  43.272   9.259
  777POPC   GL213646  18.079  42.969   9.153
  777POPC   C1A13647  18.197  43.325   8.804
  777POPC   D2A13648  18.498  43.207   8.486
  777POPC   C3A13649  18.510  43.315   8.082
  777POPC   C4A13650  18.203  43.338   7.778
  777POPC   C1B13651  18.403  42.852   8.833
  777POPC   C2B13652  18.290  42.719   8.470
  777POPC   C3B13653  18.187  42.838   8.095
  777POPC   C4B13654  18.498  42.870   7.814
  778POPC   NC313655   7.824  31.760   9.505
  778POPC   PO413656   8.510  31.471   9.578
  778POPC   GL113657   8.224  31.511   9.230
  778POPC   GL213658   8.223  31.811   9.156
  778POPC   C1A13659   8.080  31.464   8.801
  778POPC   D2A13660   8.006  31.343   8.390
  778POPC   C3A13661   8.195  31.602   8.116
  778POPC   C4A13662   8.154  31.482   7.720
  778POPC   C1B13663   7.930  31.989   8.884
  778POPC   C2B13664   7.815  31.915   8.475
  778POPC   C3B13665   7.694  31.696   8.147
  778POPC   C4B13666   7.744  31.814   7.750
  779POPC   NC313667  25.476  14.708   9.340
  779POPC   PO413668  25.269  14.029   9.533
  779POPC   GL113669  25.260  14.282   9.187
  779POPC   GL213670  25.624  14.230   9.166
  779POPC   C1A13671  25.150  14.507   8.798
  779POPC   D2A13672  25.388  14.558   8.432
  779POPC   C3A13673  25.210  14.469   8.031
  779POPC   C4A13674  24.916  14.668   7.794
  779POPC   C1B13675  25.539  14.155   8.743
  779POPC   C2B13676  25.633  14.128   8.297
  779POPC   C3B13677  25.732  14.045   7.861
  779POPC   C4B13678  25.444  13.907   7.530
  780POPC   NC313679  14.909  11.209   9.523
  780POPC   PO413680  15.462  11.660   9.486
  780POPC   GL113681  15.234  11.363   9.176
  780POPC   GL213682  15.378  11.085   9.027
  780POPC   C1A13683  15.106  11.434   8.752
  780POPC   D2A13684  15.288  11.744   8.450
  780POPC   C3A13685  15.318  11.584   8.009
  780POPC   C4A13686  15.258  11.546   7.550
  780POPC   C1B13687  15.353  10.916   8.621
  780POPC   C2B13688  15.117  10.988   8.241
  780POPC   C3B13689  15.155  11.076   7.797
  780POPC   C4B13690  15.375  11.071   7.392
  781POPC   NC313691  21.772   8.620   9.544
  781POPC   PO413692  21.089   8.712   9.514
  781POPC   GL113693  21.272   8.773   9.128
  781POPC   GL213694  21.614   8.688   9.021
  781POPC   C1A13695  21.143   8.765   8.716
  781POPC   D2A13696  21.168   8.978   8.304
  781POPC   C3A13697  21.180   8.777   7.903
  781POPC   C4A13698  20.947   8.889   7.505
  781POPC   C1B13699  21.588   9.015   8.662
  781POPC   C2B13700  21.604   9.219   8.219
  781POPC   C3B13701  21.544   9.121   7.759
  781POPC   C4B13702  21.815   8.947   7.411
  782POPC   NC313703  23.649  25.053   9.473
  782POPC   PO413704  23.434  25.670   9.494
  782POPC   GL113705  23.588  25.422   9.128
  782POPC   GL213706  23.392  25.142   9.039
  782POPC   C1A13707  23.835  25.206   8.795
  782POPC   D2A13708  24.117  25.355   8.497
  782POPC   C3A13709  24.014  25.209   8.093
  782POPC   C4A13710  23.989  25.360   7.668
  782POPC   C1B13711  23.324  25.336   8.668
  782POPC   C2B13712  23.637  25.524   8.402
  782POPC   C3B13713  23.615  25.526   7.967
  782POPC   C4B13714  23.554  25.120   7.756
  783POPC   NC313715   9.356  20.185   9.496
  783POPC   PO413716   8.654  20.249   9.453
  783POPC   GL113717   8.948  20.070   9.197
  783POPC   GL213718   9.010  19.744   9.244
  783POPC   C1A13719   9.142  20.089   8.827
  783POPC   D2A13720   9.062  20.204   8.411
  783POPC   C3A13721   9.148  19.887   8.114
  783POPC   C4A13722   9.325  19.873   7.715
  783POPC   C1B13723   9.109  19.576   8.836
  783POPC   C2B13724   9.059  19.346   8.472
  783POPC   C3B13725   8.884  19.425   8.069
  783POPC   C4B13726   9.183  19.387   7.733
  784POPC   NC313727  28.174  10.162   9.609
  784POPC   PO413728  28.492  10.721   9.545
  784POPC   GL113729  28.549  10.497   9.168
  784POPC   GL213730  28.382  10.195   9.148
  784POPC   C1A13731  28.649  10.546   8.727
  784POPC   D2A13732  28.356  10.849   8.526
  784POPC   C3A13733  28.230  10.814   8.106
  784POPC   C4A13734  28.422  10.609   7.804
  784POPC   C1B13735  28.180  10.398   8.803
  784POPC   C2B13736  28.328  10.338   8.364
  784POPC   C3B13737  28.083  10.288   7.988
  784POPC   C4B13738  28.170  10.291   7.499
  785POPC   NC313739  31.401   3.858   9.428
  785POPC   PO413740  31.214   4.507   9.521
  785POPC   GL113741  31.206   4.251   9.155
  785POPC   GL213742  31.570   4.189   9.078
  785POPC   C1A13743  31.199   4.352   8.722
  785POPC   D2A13744  31.308   4.397   8.305
  785POPC   C3A13745  31.707   4.296   8.128
  785POPC   C4A13746  31.700   4.539   7.758
  785POPC   C1B13747  31.718   4.130   8.661
  785POPC   C2B13748  31.978   3.894   8.360
  785POPC   C3B13749  31.810   3.801   7.995
  785POPC   C4B13750  31.668   4.022   7.657
  786POPC   NC313751  10.242  21.652   9.566
  786POPC   PO413752  10.815  22.036   9.733
  786POPC   GL113753  10.794  22.003   9.272
  786POPC   GL213754  10.513  22.177   9.100
  786POPC   C1A13755  10.864  21.946   8.825
  786POPC   D2A13756  10.643  22.035   8.447
  786POPC   C3A13757  10.681  22.136   7.996
  786POPC   C4A13758  10.483  22.349   7.644
  786POPC   C1B13759  10.312  22.320   8.720
  786POPC   C2B13760  10.229  22.315   8.264
  786POPC   C3B13761  10.235  22.662   7.932
  786POPC   C4B13762  10.164  22.707   7.445
  787POPC   NC313763  33.695  36.083   9.615
  787POPC   PO413764  34.383  36.164   9.484
  787POPC   GL113765  33.996  36.178   9.222
  787POPC   GL213766  33.807  35.873   9.173
  787POPC   C1A13767  33.836  36.237   8.808
  787POPC   D2A13768  33.938  36.431   8.394
  787POPC   C3A13769  33.642  36.259   8.154
  787POPC   C4A13770  33.623  36.139   7.736
  787POPC   C1B13771  34.044  35.733   8.845
  787POPC   C2B13772  34.076  35.930   8.476
  787POPC   C3B13773  33.914  35.820   8.108
  787POPC   C4B13774  33.969  35.760   7.705
  788POPC   NC313775  42.262  21.849   9.436
  788POPC   PO413776  42.106  22.580   9.547
  788POPC   GL113777  42.149  22.305   9.226
  788POPC   GL213778  42.428  22.332   9.117
  788POPC   C1A13779  42.031  22.189   8.813
  788POPC   D2A13780  41.981  22.363   8.442
  788POPC   C3A13781  42.150  22.158   8.109
  788POPC   C4A13782  42.198  22.448   7.797
  788POPC   C1B13783  42.529  22.070   8.831
  788POPC   C2B13784  42.503  22.240   8.474
  788POPC   C3B13785  42.715  22.127   8.158
  788POPC   C4B13786  42.567  22.077   7.763
  789POPC   NC313787  38.598  26.193   9.732
  789POPC   PO413788  38.197  25.729   9.566
  789POPC   GL113789  38.468  25.934   9.218
  789POPC   GL213790  38.595  26.288   9.218
  789POPC   C1A13791  38.355  26.156   8.804
  789POPC   D2A13792  38.077  26.167   8.462
  789POPC   C3A13793  38.320  26.093   8.100
  789POPC   C4A13794  38.392  26.226   7.702
  789POPC   C1B13795  38.818  26.413   8.828
  789POPC   C2B13796  38.710  26.393   8.415
  789POPC   C3B13797  38.817  26.243   8.017
  789POPC   C4B13798  38.907  26.435   7.628
  790POPC   NC313799  17.758  12.035   9.302
  790POPC   PO413800  17.091  11.938   9.467
  790POPC   GL113801  17.317  11.940   9.056
  790POPC   GL213802  17.468  12.253   8.964
  790POPC   C1A13803  17.468  11.902   8.623
  790POPC   D2A13804  17.476  12.081   8.225
  790POPC   C3A13805  17.642  11.836   7.863
  790POPC   C4A13806  17.741  11.959   7.432
  790POPC   C1B13807  17.828  12.264   8.688
  790POPC   C2B13808  17.807  12.450   8.306
  790POPC   C3B13809  17.912  12.256   7.943
  790POPC   C4B13810  18.072  12.375   7.564
  791POPC   NC313811  33.306   0.073   9.374
  791POPC   PO413812  33.026  44.411   9.473
  791POPC   GL113813  33.159  44.453   9.066
  791POPC   GL213814  33.097  44.797   9.002
  791POPC   C1A13815  32.934  44.383   8.693
  791POPC   D2A13816  33.059  44.320   8.278
  791POPC   C3A13817  32.777  44.388   7.938
  791POPC   C4A13818  32.824  44.747   7.645
  791POPC   C1B13819  33.313  44.712   8.632
  791POPC   C2B13820  33.385  44.933   8.296
  791POPC   C3B13821  33.198  44.885   7.965
  791POPC   C4B13822  33.261  44.497   7.831
  792POPC   NC313823  38.032  35.583   9.392
  792POPC   PO413824  38.459  35.041   9.502
  792POPC   GL113825  38.393  35.266   9.143
  792POPC   GL213826  38.076  35.130   9.114
  792POPC   C1A13827  38.590  35.209   8.746
  792POPC   D2A13828  38.491  34.990   8.390
  792POPC   C3A13829  38.666  35.204   8.091
  792POPC   C4A13830  38.801  35.267   7.705
  792POPC   C1B13831  38.104  35.307   8.682
  792POPC   C2B13832  38.117  35.332   8.227
  792POPC   C3B13833  38.273  35.449   7.860
  792POPC   C4B13834  38.348  35.360   7.447
  793POPC   NC313835  20.652  36.615   9.530
  793POPC   PO413836  20.851  37.273   9.615
  793POPC   GL113837  20.671  37.151   9.232
  793POPC   GL213838  20.908  36.890   9.175
  793POPC   C1A13839  20.641  37.063   8.755
  793POPC   D2A13840  20.836  36.958   8.339
  793POPC   C3A13841  20.537  36.946   7.961
  793POPC   C4A13842  20.441  36.949   7.495
  793POPC   C1B13843  20.915  36.639   8.794
  793POPC   C2B13844  20.895  36.450   8.365
  793POPC   C3B13845  20.899  36.597   7.941
  793POPC   C4B13846  20.908  36.714   7.516
  794POPC   NC313847  20.408   5.982   9.357
  794POPC   PO413848  20.972   5.790   9.647
  794POPC   GL113849  20.833   5.710   9.245
  794POPC   GL213850  20.598   5.502   9.348
  794POPC   C1A13851  20.864   5.882   8.811
  794POPC   D2A13852  20.977   6.039   8.398
  794POPC   C3A13853  20.816   5.807   8.043
  794POPC   C4A13854  20.473   5.952   7.774
  794POPC   C1B13855  20.460   5.530   8.888
  794POPC   C2B13856  20.489   5.741   8.466
  794POPC   C3B13857  20.338   5.563   8.074
  794POPC   C4B13858  20.349   5.456   7.632
  795POPC   NC313859  35.810  41.991   9.426
  795POPC   PO413860  36.123  42.559   9.460
  795POPC   GL113861  36.217  42.470   9.072
  795POPC   GL213862  36.220  42.102   9.114
  795POPC   C1A13863  36.061  42.320   8.665
  795POPC   D2A13864  36.282  42.206   8.302
  795POPC   C3A13865  36.218  42.565   8.115
  795POPC   C4A13866  36.247  42.743   7.734
  795POPC   C1B13867  36.457  41.994   8.751
  795POPC   C2B13868  36.583  41.806   8.367
  795POPC   C3B13869  36.637  41.973   7.955
  795POPC   C4B13870  36.416  42.274   7.746
  796POPC   NC313871  42.710  13.604   9.579
  796POPC   PO413872  42.265  14.090   9.498
  796POPC   GL113873  42.334  13.880   9.117
  796POPC   GL213874  42.685  13.820   9.116
  796POPC   C1A13875  42.213  13.918   8.671
  796POPC   D2A13876  42.095  13.633   8.336
  796POPC   C3A13877  42.226  13.761   7.936
  796POPC   C4A13878  42.208  13.698   7.492
  796POPC   C1B13879  42.652  13.632   8.694
  796POPC   C2B13880  42.632  13.560   8.247
  796POPC   C3B13881  42.582  13.435   7.824
  796POPC   C4B13882  42.552  13.338   7.440
  797POPC   NC313883  26.777  10.807   9.541
  797POPC   PO413884  26.969  10.221   9.561
  797POPC   GL113885  27.044  10.505   9.193
  797POPC   GL213886  26.749  10.626   9.033
  797POPC   C1A13887  27.145  10.445   8.728
  797POPC   D2A13888  27.016  10.201   8.318
  797POPC   C3A13889  26.949  10.377   7.864
  797POPC   C4A13890  26.917  10.641   7.465
  797POPC   C1B13891  26.635  10.396   8.632
  797POPC   C2B13892  26.530  10.370   8.175
  797POPC   C3B13893  26.479  10.596   7.775
  797POPC   C4B13894  26.517  10.953   7.525
  798POPC   NC313895  39.901  33.545   9.639
  798POPC   PO413896  40.141  34.166   9.683
  798POPC   GL113897  39.779  34.025   9.400
  798POPC   GL213898  39.854  33.751   9.172
  798POPC   C1A13899  39.581  34.163   9.002
  798POPC   D2A13900  39.863  34.125   8.611
  798POPC   C3A13901  39.880  34.144   8.142
  798POPC   C4A13902  40.100  34.095   7.770
  798POPC   C1B13903  39.776  33.535   8.790
  798POPC   C2B13904  40.027  33.406   8.452
  798POPC   C3B13905  40.094  33.671   8.087
  798POPC   C4B13906  40.086  33.559   7.657
  799POPC   NC313907  38.040   5.990   9.555
  799POPC   PO413908  37.485   5.579   9.633
  799POPC   GL113909  37.674   5.721   9.253
  799POPC   GL213910  37.979   5.562   9.252
  799POPC   C1A13911  37.703   6.088   8.938
  799POPC   D2A13912  37.517   6.153   8.521
  799POPC   C3A13913  37.703   5.999   8.138
  799POPC   C4A13914  37.507   6.100   7.710
  799POPC   C1B13915  38.043   5.723   8.864
  799POPC   C2B13916  37.796   5.627   8.526
  799POPC   C3B13917  37.918   5.522   8.127
  799POPC   C4B13918  37.784   5.687   7.742
  800POPC   NC313919  10.885  17.024   9.633
  800POPC   PO413920  11.490  16.741   9.787
  800POPC   GL113921  11.496  16.706   9.286
  800POPC   GL213922  11.148  16.833   9.246
  800POPC   C1A13923  11.289  16.602   8.840
  800POPC   D2A13924  11.165  16.791   8.453
  800POPC   C3A13925  11.018  16.543   8.114
  800POPC   C4A13926  11.302  16.634   7.792
  800POPC   C1B13927  10.897  16.954   8.865
  800POPC   C2B13928  10.847  17.197   8.500
  800POPC   C3B13929  10.897  17.064   8.093
  800POPC   C4B13930  11.046  17.084   7.687
  801POPC   NC313931  13.578  38.301   9.613
  801POPC   PO413932  13.371  38.938   9.421
  801POPC   GL113933  13.381  38.546   9.187
  801POPC   GL213934  13.326  38.175   9.192
  801POPC   C1A13935  13.610  38.523   8.809
  801POPC   D2A13936  13.726  38.746   8.457
  801POPC   C3A13937  13.766  38.487   8.100
  801POPC   C4A13938  13.733  38.474   7.658
  801POPC   C1B13939  13.497  38.030   8.802
  801POPC   C2B13940  13.664  38.041   8.368
  801POPC   C3B13941  13.739  37.994   7.914
  801POPC   C4B13942  13.579  38.023   7.472
  802POPC   NC313943  38.351  37.506   9.442
  802POPC   PO413944  38.624  36.847   9.506
  802POPC   GL113945  38.413  36.798   9.082
  802POPC   GL213946  38.132  37.037   9.063
  802POPC   C1A13947  38.377  36.839   8.629
  802POPC   D2A13948  38.720  36.684   8.374
  802POPC   C3A13949  38.802  36.911   7.997
  802POPC   C4A13950  38.679  36.658   7.673
  802POPC   C1B13951  37.935  37.124   8.639
  802POPC   C2B13952  38.083  37.085   8.209
  802POPC   C3B13953  38.317  37.009   7.810
  802POPC   C4B13954  38.152  37.050   7.361
  803POPC   NC313955   9.149   7.155   9.396
  803POPC   PO413956   8.688   7.637   9.386
  803POPC   GL113957   8.940   7.665   8.996
  803POPC   GL213958   9.061   7.384   8.968
  803POPC   C1A13959   9.076   7.741   8.580
  803POPC   D2A13960   9.216   7.540   8.242
  803POPC   C3A13961   8.909   7.340   8.101
  803POPC   C4A13962   8.670   7.509   7.799
  803POPC   C1B13963   8.991   7.218   8.599
  803POPC   C2B13964   9.298   7.058   8.344
  803POPC   C3B13965   9.448   7.076   7.983
  803POPC   C4B13966   9.439   7.182   7.633
  804POPC   NC313967  11.773  20.988   9.432
  804POPC   PO413968  12.093  20.412   9.354
  804POPC   GL113969  12.193  20.619   8.999
  804POPC   GL213970  12.459  20.888   9.005
  804POPC   C1A13971  12.060  20.395   8.625
  804POPC   D2A13972  11.748  20.333   8.318
  804POPC   C3A13973  11.841  20.438   7.886
  804POPC   C4A13974  11.789  20.780   7.596
  804POPC   C1B13975  12.540  20.668   8.631
  804POPC   C2B13976  12.308  20.631   8.247
  804POPC   C3B13977  12.212  20.796   7.877
  804POPC   C4B13978  12.455  21.002   7.597
  805POPC   NC313979  38.485  17.063   9.585
  805POPC   PO413980  38.453  17.735   9.366
  805POPC   GL113981  38.414  17.343   9.123
  805POPC   GL213982  38.044  17.224   9.153
  805POPC   C1A13983  38.634  17.216   8.705
  805POPC   D2A13984  38.629  17.272   8.215
  805POPC   C3A13985  38.512  17.651   7.986
  805POPC   C4A13986  38.608  17.769   7.541
  805POPC   C1B13987  38.172  16.997   8.832
  805POPC   C2B13988  38.198  17.126   8.439
  805POPC   C3B13989  38.170  17.174   8.007
  805POPC   C4B13990  38.201  17.436   7.654
  806POPC   NC313991  22.309   5.579   9.455
  806POPC   PO413992  22.240   6.210   9.217
  806POPC   GL113993  22.107   5.821   9.044
  806POPC   GL213994  22.444   5.764   8.999
  806POPC   C1A13995  22.125   5.650   8.619
  806POPC   D2A13996  22.383   5.923   8.368
  806POPC   C3A13997  22.113   6.099   8.055
  806POPC   C4A13998  21.748   5.894   7.833
  806POPC   C1B13999  22.652   5.567   8.660
  806POPC   C2B14000  22.487   5.396   8.294
  806POPC   C3B14001  22.188   5.567   8.015
  806POPC   C4B14002  22.254   5.824   7.675
  807POPC   NC314003  11.131   3.921   9.313
  807POPC   PO414004  11.456   3.482   9.681
  807POPC   GL114005  11.470   3.490   9.213
  807POPC   GL214006  11.627   3.811   9.168
  807POPC   C1A14007  11.316   3.365   8.759
  807POPC   D2A14008  11.074   3.248   8.355
  807POPC   C3A14009  11.221   3.352   7.947
  807POPC   C4A14010  11.071   3.405   7.520
  807POPC   C1B14011  11.441   3.856   8.749
  807POPC   C2B14012  11.296   3.734   8.327
  807POPC   C3B14013  11.431   3.798   7.905
  807POPC   C4B14014  11.589   3.454   7.589
  808POPC   NC314015  36.491  34.910   9.492
  808POPC   PO414016  36.484  35.582   9.442
  808POPC   GL114017  36.244  35.306   9.192
  808POPC   GL214018  35.923  35.471   9.091
  808POPC   C1A14019  36.378  35.053   8.855
  808POPC   D2A14020  36.300  35.136   8.435
  808POPC   C3A14021  36.429  34.931   8.054
  808POPC   C4A14022  36.432  35.296   7.808
  808POPC   C1B14023  35.900  35.173   8.763
  808POPC   C2B14024  35.854  35.372   8.337
  808POPC   C3B14025  35.945  35.088   8.022
  808POPC   C4B14026  36.026  35.081   7.604
  809POPC   NC314027  41.084  18.697   9.314
  809POPC   PO414028  40.747  18.187   9.618
  809POPC   GL114029  40.699  18.283   9.184
  809POPC   GL214030  40.632  18.619   9.109
  809POPC   C1A14031  40.474  18.294   8.776
  809POPC   D2A14032  40.626  18.481   8.379
  809POPC   C3A14033  40.565  18.279   7.986
  809POPC   C4A14034  40.808  18.045   7.737
  809POPC   C1B14035  40.967  18.443   8.755
  809POPC   C2B14036  41.248  18.378   8.410
  809POPC   C3B14037  41.097  18.377   7.981
  809POPC   C4B14038  40.799  18.667   7.765
  810POPC   NC314039  28.384  36.789   9.516
  810POPC   PO414040  28.642  37.351   9.273
  810POPC   GL114041  28.383  37.007   9.067
  810POPC   GL214042  28.632  36.754   9.061
  810POPC   C1A14043  28.289  36.743   8.689
  810POPC   D2A14044  28.177  36.948   8.351
  810POPC   C3A14045  28.298  36.757   8.000
  810POPC   C4A14046  28.111  36.787   7.589
  810POPC   C1B14047  28.712  37.039   8.687
  810POPC   C2B14048  28.718  36.912   8.303
  810POPC   C3B14049  28.715  37.060   7.929
  810POPC   C4B14050  28.608  36.787   7.601
  811POPC   NC314051  32.540  37.088   9.597
  811POPC   PO414052  31.951  36.761   9.891
  811POPC   GL114053  32.068  36.777   9.360
  811POPC   GL214054  32.404  36.916   9.156
  811POPC   C1A14055  32.039  36.830   8.854
  811POPC   D2A14056  32.310  36.912   8.470
  811POPC   C3A14057  32.322  36.771   8.025
  811POPC   C4A14058  32.014  36.715   7.705
  811POPC   C1B14059  32.701  36.962   8.794
  811POPC   C2B14060  32.795  37.013   8.340
  811POPC   C3B14061  32.601  37.180   7.953
  811POPC   C4B14062  32.173  37.310   7.804
  812POPC   NC314063  38.596  19.315   9.604
  812POPC   PO414064  38.281  18.718   9.435
  812POPC   GL114065  38.347  19.058   9.099
  812POPC   GL214066  38.315  19.419   9.176
  812POPC   C1A14067  38.588  19.029   8.677
  812POPC   D2A14068  38.843  18.844   8.368
  812POPC   C3A14069  38.644  18.705   8.009
  812POPC   C4A14070  38.339  18.927   7.785
  812POPC   C1B14071  38.553  19.498   8.832
  812POPC   C2B14072  38.655  19.486   8.407
  812POPC   C3B14073  38.652  19.250   8.052
  812POPC   C4B14074  38.832  19.084   7.694
  813POPC   NC314075  15.828  29.877   9.894
  813POPC   PO414076  16.215  30.168   9.423
  813POPC   GL114077  16.028  29.889   9.140
  813POPC   GL214078  15.763  29.732   9.296
  813POPC   C1A14079  16.051  29.980   8.683
  813POPC   D2A14080  16.241  29.959   8.268
  813POPC   C3A14081  16.030  29.842   7.877
  813POPC   C4A14082  16.232  30.001   7.499
  813POPC   C1B14083  15.657  29.699   8.844
  813POPC   C2B14084  15.651  29.821   8.372
  813POPC   C3B14085  15.446  29.638   7.986
  813POPC   C4B14086  15.609  29.602   7.537
  814POPC   NC314087  39.818  17.068   9.423
  814POPC   PO414088  40.078  17.673   9.367
  814POPC   GL114089  40.031  17.628   8.962
  814POPC   GL214090  39.922  17.270   8.958
  814POPC   C1A14091  40.283  17.679   8.616
  814POPC   D2A14092  40.321  17.349   8.324
  814POPC   C3A14093  40.123  17.389   7.926
  814POPC   C4A14094  40.130  17.555   7.496
  814POPC   C1B14095  39.851  17.392   8.522
  814POPC   C2B14096  39.926  17.740   8.253
  814POPC   C3B14097  39.833  17.824   7.824
  814POPC   C4B14098  39.743  18.081   7.459
  815POPC   NC314099  40.815  40.404   9.828
  815POPC   PO414100  40.693  41.001   9.546
  815POPC   GL114101  40.754  40.877   9.131
  815POPC   GL214102  40.471  40.661   9.163
  815POPC   C1A14103  41.030  40.870   8.759
  815POPC   D2A14104  40.877  40.800   8.363
  815POPC   C3A14105  41.139  40.762   8.023
  815POPC   C4A14106  40.949  40.893   7.599
  815POPC   C1B14107  40.664  40.511   8.773
  815POPC   C2B14108  40.490  40.474   8.353
  815POPC   C3B14109  40.583  40.670   7.942
  815POPC   C4B14110  40.599  40.539   7.518
  816POPC   NC314111   9.396   0.478   9.308
  816POPC   PO414112   8.766   0.359   9.511
  816POPC   GL114113   8.964   0.247   9.127
  816POPC   GL214114   8.715   0.028   9.091
  816POPC   C1A14115   9.178   0.334   8.735
  816POPC   D2A14116   9.231   0.595   8.357
  816POPC   C3A14117   8.969   0.494   7.945
  816POPC   C4A14118   9.096   0.187   7.621
  816POPC   C1B14119   8.613   0.299   8.762
  816POPC   C2B14120   8.807   0.321   8.396
  816POPC   C3B14121   8.887   0.013   8.101
  816POPC   C4B14122   8.583   0.127   7.770
  817POPC   NC314123  15.932  11.690   9.555
  817POPC   PO414124  15.760  12.311   9.444
  817POPC   GL114125  15.751  11.976   9.166
  817POPC   GL214126  16.103  11.844   9.099
  817POPC   C1A14127  15.715  11.832   8.754
  817POPC   D2A14128  16.018  11.812   8.439
  817POPC   C3A14129  15.832  11.965   8.071
  817POPC   C4A14130  15.927  12.293   7.798
  817POPC   C1B14131  16.051  12.208   8.808
  817POPC   C2B14132  16.134  12.324   8.359
  817POPC   C3B14133  16.361  12.019   8.091
  817POPC   C4B14134  16.220  11.823   7.730
  818POPC   NC314135  10.493  43.617   9.573
  818POPC   PO414136  10.215  44.175   9.296
  818POPC   GL114137  10.542  43.925   9.119
  818POPC   GL214138  10.858  43.724   9.210
  818POPC   C1A14139  10.578  43.985   8.708
  818POPC   D2A14140  10.375  44.269   8.458
  818POPC   C3A14141  10.379  44.030   8.086
  818POPC   C4A14142  10.291  43.641   7.834
  818POPC   C1B14143  10.844  43.572   8.784
  818POPC   C2B14144  10.826  43.704   8.320
  818POPC   C3B14145  10.870  43.836   7.856
  818POPC   C4B14146  11.005  43.677   7.417
  819POPC   NC314147  13.473  16.134   9.625
  819POPC   PO414148  13.899  15.569   9.475
  819POPC   GL114149  13.682  15.880   9.137
  819POPC   GL214150  13.342  16.087   9.118
  819POPC   C1A14151  13.591  16.007   8.666
  819POPC   D2A14152  13.796  16.103   8.244
  819POPC   C3A14153  13.601  15.857   7.897
  819POPC   C4A14154  13.164  15.754   7.923
  819POPC   C1B14155  13.366  16.447   8.784
  819POPC   C2B14156  13.518  16.542   8.369
  819POPC   C3B14157  13.358  16.279   8.060
  819POPC   C4B14158  13.248  16.175   7.667
  820POPC   NC314159  28.264  27.910   9.357
  820POPC   PO414160  28.712  27.490   9.653
  820POPC   GL114161  28.598  27.410   9.176
  820POPC   GL214162  28.450  27.682   8.937
  820POPC   C1A14163  28.504  27.213   8.765
  820POPC   D2A14164  28.213  27.198   8.429
  820POPC   C3A14165  28.354  27.380   8.035
  820POPC   C4A14166  28.455  27.350   7.576
  820POPC   C1B14167  28.652  27.967   8.646
  820POPC   C2B14168  28.770  27.805   8.265
  820POPC   C3B14169  28.678  27.748   7.865
  820POPC   C4B14170  28.265  27.800   7.761
  821POPC   NC314171  36.651  23.658   9.601
  821POPC   PO414172  37.410  23.747   9.611
  821POPC   GL114173  37.027  23.709   9.269
  821POPC   GL214174  36.681  23.911   9.166
  821POPC   C1A14175  36.982  23.677   8.829
  821POPC   D2A14176  36.862  23.652   8.410
  821POPC   C3A14177  37.213  23.614   8.143
  821POPC   C4A14178  37.190  23.668   7.707
  821POPC   C1B14179  36.814  24.184   8.800
  821POPC   C2B14180  37.003  24.190   8.378
  821POPC   C3B14181  36.888  23.989   8.002
  821POPC   C4B14182  36.716  23.811   7.632
  822POPC   NC314183  11.247  16.396   9.580
  822POPC   PO414184  11.164  15.754   9.520
  822POPC   GL114185  11.131  16.071   9.170
  822POPC   GL214186  11.478  16.213   9.139
  822POPC   C1A14187  11.221  16.095   8.704
  822POPC   D2A14188  11.401  15.918   8.312
  822POPC   C3A14189  11.198  16.056   7.942
  822POPC   C4A14190  10.999  15.844   7.578
  822POPC   C1B14191  11.684  16.314   8.721
  822POPC   C2B14192  11.534  16.422   8.302
  822POPC   C3B14193  11.657  16.286   7.870
  822POPC   C4B14194  11.373  16.214   7.473
  823POPC   NC314195  29.063  31.761   9.611
  823POPC   PO414196  29.092  32.375   9.630
  823POPC   GL114197  29.054  32.313   9.160
  823POPC   GL214198  29.391  32.330   9.036
  823POPC   C1A14199  29.017  32.513   8.719
  823POPC   D2A14200  28.983  32.378   8.294
  823POPC   C3A14201  29.264  32.524   7.992
  823POPC   C4A14202  29.225  32.536   7.534
  823POPC   C1B14203  29.204  32.039   8.711
  823POPC   C2B14204  29.291  31.940   8.271
  823POPC   C3B14205  29.336  32.059   7.832
  823POPC   C4B14206  29.561  32.186   7.418
  824POPC   NC314207  12.402  29.556   9.454
  824POPC   PO414208  12.164  28.946   9.466
  824POPC   GL114209  12.061  29.226   9.112
  824POPC   GL214210  11.737  29.426   9.042
  824POPC   C1A14211  11.949  29.027   8.732
  824POPC   D2A14212  12.202  28.982   8.363
  824POPC   C3A14213  12.065  29.053   7.942
  824POPC   C4A14214  12.173  29.401   7.673
  824POPC   C1B14215  11.972  29.522   8.669
  824POPC   C2B14216  12.034  29.495   8.219
  824POPC   C3B14217  11.723  29.468   7.886
  824POPC   C4B14218  11.723  29.616   7.463
  825POPC   NC314219  23.744   4.441   9.644
  825POPC   PO414220  24.038   3.919   9.448
  825POPC   GL114221  23.896   4.145   9.088
  825POPC   GL214222  23.635   4.353   9.151
  825POPC   C1A14223  24.046   4.159   8.665
  825POPC   D2A14224  23.865   3.895   8.344
  825POPC   C3A14225  23.806   4.111   7.956
  825POPC   C4A14226  24.129   4.280   7.760
  825POPC   C1B14227  23.655   4.546   8.758
  825POPC   C2B14228  23.609   4.351   8.390
  825POPC   C3B14229  23.318   4.335   8.087
  825POPC   C4B14230  23.311   4.730   7.866
  826POPC   NC314231  29.345  32.698   9.404
  826POPC   PO414232  29.684  33.286   9.550
  826POPC   GL114233  29.439  33.408   9.186
  826POPC   GL214234  29.167  33.168   9.163
  826POPC   C1A14235  29.472  33.229   8.773
  826POPC   D2A14236  29.409  32.863   8.552
  826POPC   C3A14237  29.251  33.001   8.197
  826POPC   C4A14238  29.262  32.984   7.769
  826POPC   C1B14239  28.977  33.098   8.734
  826POPC   C2B14240  28.780  32.864   8.418
  826POPC   C3B14241  28.825  32.821   7.992
  826POPC   C4B14242  28.801  33.159   7.678
  827POPC   NC314243  22.615  17.194   9.513
  827POPC   PO414244  23.162  17.700   9.643
  827POPC   GL114245  22.911  17.595   9.283
  827POPC   GL214246  23.052  17.916   9.178
  827POPC   C1A14247  22.874  17.506   8.836
  827POPC   D2A14248  23.090  17.325   8.419
  827POPC   C3A14249  22.895  17.224   8.017
  827POPC   C4A14250  22.709  17.308   7.612
  827POPC   C1B14251  23.205  17.921   8.784
  827POPC   C2B14252  22.984  17.803   8.442
  827POPC   C3B14253  22.882  17.894   8.046
  827POPC   C4B14254  23.013  17.751   7.667
  828POPC   NC314255   8.946  44.081   9.400
  828POPC   PO414256   9.436  43.548   9.308
  828POPC   GL114257   9.188  43.856   9.018
  828POPC   GL214258   9.247  44.190   8.996
  828POPC   C1A14259   8.821  43.659   8.737
  828POPC   D2A14260   8.629  43.538   8.323
  828POPC   C3A14261   8.892  43.585   7.943
  828POPC   C4A14262   8.966  43.922   7.653
  828POPC   C1B14263   8.895  44.150   8.690
  828POPC   C2B14264   9.010  43.933   8.316
  828POPC   C3B14265   9.289  44.123   8.028
  828POPC   C4B14266   9.237  44.346   7.687
  829POPC   NC314267  37.861  34.638   9.318
  829POPC   PO414268  37.256  34.195   9.473
  829POPC   GL114269  37.382  34.468   9.101
  829POPC   GL214270  37.698  34.499   8.890
  829POPC   C1A14271  37.288  34.727   8.728
  829POPC   D2A14272  37.541  34.741   8.389
  829POPC   C3A14273  37.586  34.610   7.987
  829POPC   C4A14274  37.625  34.259   7.759
  829POPC   C1B14275  37.521  34.272   8.629
  829POPC   C2B14276  37.714  34.103   8.328
  829POPC   C3B14277  38.009  34.230   8.084
  829POPC   C4B14278  38.126  34.082   7.705
  830POPC   NC314279  35.628  20.261   9.740
  830POPC   PO414280  35.063  20.681   9.573
  830POPC   GL114281  35.327  20.611   9.224
  830POPC   GL214282  35.193  20.265   9.135
  830POPC   C1A14283  35.368  20.632   8.767
  830POPC   D2A14284  35.613  20.770   8.427
  830POPC   C3A14285  35.350  20.775   8.053
  830POPC   C4A14286  35.499  20.779   7.633
  830POPC   C1B14287  34.966  20.282   8.737
  830POPC   C2B14288  34.945  20.509   8.319
  830POPC   C3B14289  35.067  20.329   7.925
  830POPC   C4B14290  35.263  20.338   7.519
  831POPC   NC314291  13.259  27.525   9.460
  831POPC   PO414292  13.913  27.721   9.322
  831POPC   GL114293  13.625  27.698   9.035
  831POPC   GL214294  13.576  27.369   9.049
  831POPC   C1A14295  13.712  27.612   8.615
  831POPC   D2A14296  13.852  27.402   8.262
  831POPC   C3A14297  13.762  27.701   7.928
  831POPC   C4A14298  13.415  27.961   7.855
  831POPC   C1B14299  13.235  27.417   8.747
  831POPC   C2B14300  13.308  27.495   8.302
  831POPC   C3B14301  13.467  27.274   7.947
  831POPC   C4B14302  13.899  27.218   7.777
  832POPC   NC314303   4.549  17.541   9.666
  832POPC   PO414304   4.110  17.189   9.475
  832POPC   GL114305   4.238  17.530   9.198
  832POPC   GL214306   4.563  17.700   9.154
  832POPC   C1A14307   4.063  17.754   8.840
  832POPC   D2A14308   4.207  17.893   8.436
  832POPC   C3A14309   4.001  17.708   8.083
  832POPC   C4A14310   4.149  17.409   7.785
  832POPC   C1B14311   4.523  17.546   8.695
  832POPC   C2B14312   4.488  17.509   8.224
  832POPC   C3B14313   4.581  17.179   7.921
  832POPC   C4B14314   4.576  17.102   7.452
  833POPC   NC314315  13.808  30.456   9.574
  833POPC   PO414316  13.648  29.738   9.607
  833POPC   GL114317  13.689  29.985   9.207
  833POPC   GL214318  13.992  30.166   9.179
  833POPC   C1A14319  13.504  30.112   8.805
  833POPC   D2A14320  13.280  30.007   8.430
  833POPC   C3A14321  13.513  29.889   8.120
  833POPC   C4A14322  13.586  30.031   7.718
  833POPC   C1B14323  14.026  29.926   8.781
  833POPC   C2B14324  13.969  29.711   8.384
  833POPC   C3B14325  13.985  29.832   7.950
  833POPC   C4B14326  13.933  29.738   7.497
  834POPC   NC314327  25.292  34.145   9.487
  834POPC   PO414328  25.066  33.450   9.634
  834POPC   GL114329  25.104  33.630   9.192
  834POPC   GL214330  25.425  33.822   9.132
  834POPC   C1A14331  25.235  33.589   8.736
  834POPC   D2A14332  25.468  33.630   8.339
  834POPC   C3A14333  25.288  33.712   7.937
  834POPC   C4A14334  25.433  33.724   7.505
  834POPC   C1B14335  25.638  33.953   8.733
  834POPC   C2B14336  25.817  34.018   8.332
  834POPC   C3B14337  25.627  34.091   7.936
  834POPC   C4B14338  25.374  34.246   7.593
  835POPC   NC314339   0.910  25.965   9.687
  835POPC   PO414340   0.298  26.195   9.697
  835POPC   GL114341   0.409  26.121   9.245
  835POPC   GL214342   0.204  25.819   9.173
  835POPC   C1A14343   0.463  26.200   8.775
  835POPC   D2A14344   0.248  26.449   8.415
  835POPC   C3A14345   0.362  26.312   7.970
  835POPC   C4A14346   0.580  25.982   7.708
  835POPC   C1B14347   0.122  25.624   8.778
  835POPC   C2B14348   0.362  25.508   8.419
  835POPC   C3B14349   0.273  25.771   8.072
  835POPC   C4B14350   0.135  25.683   7.654
  836POPC   NC314351   1.567  25.916   9.382
  836POPC   PO414352   1.023  25.509   9.638
  836POPC   GL114353   0.935  25.696   9.201
  836POPC   GL214354   1.220  25.618   9.040
  836POPC   C1A14355   0.937  25.956   8.745
  836POPC   D2A14356   0.813  26.289   8.371
  836POPC   C3A14357   1.037  26.302   7.935
  836POPC   C4A14358   1.399  26.066   7.744
  836POPC   C1B14359   1.383  25.711   8.607
  836POPC   C2B14360   1.273  25.920   8.228
  836POPC   C3B14361   1.014  25.776   7.869
  836POPC   C4B14362   1.006  25.795   7.403
  837POPC   NC314363   9.987   3.772   9.219
  837POPC   PO414364   9.661   3.329   9.598
  837POPC   GL114365   9.778   3.300   9.142
  837POPC   GL214366  10.139   3.271   9.133
  837POPC   C1A14367   9.680   3.487   8.704
  837POPC   D2A14368   9.470   3.658   8.340
  837POPC   C3A14369   9.578   3.486   7.938
  837POPC   C4A14370   9.605   3.511   7.494
  837POPC   C1B14371  10.183   3.328   8.675
  837POPC   C2B14372  10.028   3.509   8.249
  837POPC   C3B14373  10.058   3.618   7.783
  837POPC   C4B14374  10.099   3.369   7.365
  838POPC   NC314375  30.085  31.954   9.524
  838POPC   PO414376  29.843  32.586   9.416
  838POPC   GL114377  29.913  32.242   9.121
  838POPC   GL214378  30.266  32.168   9.105
  838POPC   C1A14379  29.738  32.118   8.731
  838POPC   D2A14380  29.520  32.371   8.442
  838POPC   C3A14381  29.733  32.242   8.081
  838POPC   C4A14382  29.994  32.329   7.743
  838POPC   C1B14383  30.204  32.345   8.692
  838POPC   C2B14384  30.251  32.296   8.240
  838POPC   C3B14385  30.474  32.395   7.857
  838POPC   C4B14386  30.371  32.371   7.355
  839POPC   NC314387  30.389  16.021   9.523
  839POPC   PO414388  29.761  15.912   9.412
  839POPC   GL114389  29.816  15.640   9.066
  839POPC   GL214390  30.203  15.603   9.135
  839POPC   C1A14391  29.699  15.774   8.627
  839POPC   D2A14392  29.911  16.045   8.308
  839POPC   C3A14393  29.762  16.161   7.897
  839POPC   C4A14394  29.997  16.326   7.483
  839POPC   C1B14395  30.184  15.590   8.682
  839POPC   C2B14396  30.295  15.706   8.239
  839POPC   C3B14397  30.018  15.745   7.857
  839POPC   C4B14398  30.101  15.827   7.409
  840POPC   NC314399  14.192  31.377   9.515
  840POPC   PO414400  14.872  31.426   9.533
  840POPC   GL114401  14.553  31.465   9.157
  840POPC   GL214402  14.174  31.576   9.065
  840POPC   C1A14403  14.468  31.323   8.734
  840POPC   D2A14404  14.320  31.527   8.374
  840POPC   C3A14405  14.543  31.371   8.065
  840POPC   C4A14406  14.631  31.491   7.698
  840POPC   C1B14407  14.075  31.800   8.718
  840POPC   C2B14408  14.039  31.975   8.294
  840POPC   C3B14409  14.189  31.779   7.917
  840POPC   C4B14410  13.994  31.617   7.547
  841POPC   NC314411  39.700  30.043   9.468
  841POPC   PO414412  40.156  29.620   9.406
  841POPC   GL114413  40.002  29.853   9.055
  841POPC   GL214414  40.108  30.201   9.101
  841POPC   C1A14415  40.008  29.798   8.600
  841POPC   D2A14416  39.796  29.571   8.269
  841POPC   C3A14417  39.865  29.799   7.917
  841POPC   C4A14418  40.169  29.680   7.597
  841POPC   C1B14419  39.864  30.295   8.724
  841POPC   C2B14420  39.862  30.178   8.275
  841POPC   C3B14421  40.082  30.258   7.889
  841POPC   C4B14422  40.183  30.184   7.450
  842POPC   NC314423  17.507  44.151   9.302
  842POPC   PO414424  17.674  43.552   9.366
  842POPC   GL114425  17.260  43.761   9.161
  842POPC   GL214426  17.146  43.673   8.911
  842POPC   C1A14427  17.140  44.136   8.808
  842POPC   D2A14428  17.083  44.008   8.396
  842POPC   C3A14429  17.382  44.075   8.072
  842POPC   C4A14430  17.462  44.067   7.622
  842POPC   C1B14431  17.488  43.767   8.667
  842POPC   C2B14432  17.506  43.533   8.308
  842POPC   C3B14433  17.499  43.608   7.898
  842POPC   C4B14434  17.831  43.674   7.702
  843POPC   NC314435  23.078  41.293   9.677
  843POPC   PO414436  22.653  41.687   9.421
  843POPC   GL114437  22.854  41.459   9.121
  843POPC   GL214438  23.180  41.240   9.158
  843POPC   C1A14439  22.743  41.521   8.665
  843POPC   D2A14440  22.539  41.769   8.327
  843POPC   C3A14441  22.768  41.677   7.930
  843POPC   C4A14442  22.951  41.287   7.746
  843POPC   C1B14443  23.240  41.505   8.794
  843POPC   C2B14444  23.157  41.333   8.388
  843POPC   C3B14445  23.274  41.558   8.024
  843POPC   C4B14446  23.340  41.925   7.782
  844POPC   NC314447  38.000  14.748   9.561
  844POPC   PO414448  38.097  14.132   9.328
  844POPC   GL114449  38.320  14.498   9.195
  844POPC   GL214450  38.711  14.520   9.241
  844POPC   C1A14451  38.398  14.457   8.779
  844POPC   D2A14452  38.607  14.377   8.425
  844POPC   C3A14453  38.504  14.629   8.098
  844POPC   C4A14454  38.384  14.472   7.715
  844POPC   C1B14455  38.913  14.474   8.854
  844POPC   C2B14456  39.062  14.573   8.457
  844POPC   C3B14457  38.991  14.425   8.045
  844POPC   C4B14458  38.884  14.710   7.743
  845POPC   NC314459  38.151  30.871   9.507
  845POPC   PO414460  38.788  30.867   9.705
  845POPC   GL114461  38.628  30.736   9.286
  845POPC   GL214462  38.362  30.465   9.279
  845POPC   C1A14463  38.487  30.893   8.872
  845POPC   D2A14464  38.695  31.028   8.473
  845POPC   C3A14465  38.616  30.841   8.081
  845POPC   C4A14466  38.628  30.440   7.873
  845POPC   C1B14467  38.177  30.495   8.863
  845POPC   C2B14468  38.161  30.733   8.467
  845POPC   C3B14469  38.145  30.602   8.022
  845POPC   C4B14470  38.188  30.393   7.598
  846POPC   NC314471  22.919  38.037   9.448
  846POPC   PO414472  23.182  38.653   9.227
  846POPC   GL114473  23.237  38.308   9.007
  846POPC   GL214474  22.890  38.165   8.964
  846POPC   C1A14475  23.183  38.297   8.569
  846POPC   D2A14476  22.767  38.344   8.461
  846POPC   C3A14477  22.674  38.383   8.026
  846POPC   C4A14478  23.025  38.322   7.778
  846POPC   C1B14479  22.909  37.876   8.618
  846POPC   C2B14480  23.003  37.969   8.176
  846POPC   C3B14481  23.091  37.839   7.732
  846POPC   C4B14482  23.121  38.070   7.304
  847POPC   NC314483  13.799  42.822   9.646
  847POPC   PO414484  13.252  42.915   9.257
  847POPC   GL114485  13.541  42.960   8.969
  847POPC   GL214486  13.852  43.015   9.096
  847POPC   C1A14487  13.765  42.932   8.593
  847POPC   D2A14488  13.947  43.025   8.217
  847POPC   C3A14489  13.596  43.122   8.008
  847POPC   C4A14490  13.466  42.951   7.668
  847POPC   C1B14491  13.908  43.391   8.815
  847POPC   C2B14492  14.039  43.494   8.391
  847POPC   C3B14493  13.932  43.483   7.943
  847POPC   C4B14494  13.944  43.159   7.626
  848POPC   NC314495  31.630   4.692   9.494
  848POPC   PO414496  30.982   5.061   9.388
  848POPC   GL114497  31.358   5.007   9.101
  848POPC   GL214498  31.442   4.690   9.026
  848POPC   C1A14499  31.554   5.151   8.673
  848POPC   D2A14500  31.500   5.287   8.203
  848POPC   C3A14501  31.881   5.181   7.926
  848POPC   C4A14502  31.905   5.252   7.455
  848POPC   C1B14503  31.660   4.634   8.646
  848POPC   C2B14504  31.652   4.791   8.248
  848POPC   C3B14505  31.323   4.834   7.958
  848POPC   C4B14506  31.433   5.142   7.679
  849POPC   NC314507  39.045  33.890   9.370
  849POPC   PO414508  39.140  34.477   9.686
  849POPC   GL114509  39.168  34.476   9.243
  849POPC   GL214510  38.820  34.450   9.182
  849POPC   C1A14511  39.150  34.379   8.797
  849POPC   D2A14512  39.274  34.589   8.412
  849POPC   C3A14513  39.406  34.301   8.159
  849POPC   C4A14514  39.550  34.323   7.755
  849POPC   C1B14515  38.709  34.681   8.771
  849POPC   C2B14516  38.792  34.558   8.328
  849POPC   C3B14517  38.990  34.503   7.928
  849POPC   C4B14518  39.147  34.716   7.582
  850POPC   NC314519  11.469  28.133   9.806
  850POPC   PO414520  11.493  28.673   9.452
  850POPC   GL114521  11.471  28.474   8.999
  850POPC   GL214522  11.136  28.633   8.947
  850POPC   C1A14523  11.413  28.114   8.692
  850POPC   D2A14524  11.095  27.978   8.368
  850POPC   C3A14525  11.226  28.086   7.963
  850POPC   C4A14526  11.184  28.450   7.735
  850POPC   C1B14527  11.102  28.488   8.522
  850POPC   C2B14528  11.418  28.532   8.189
  850POPC   C3B14529  11.625  28.725   7.806
  850POPC   C4B14530  11.718  28.641   7.340
  851POPC   NC314531   0.307  39.696   9.561
  851POPC   PO414532   0.589  40.285   9.591
  851POPC   GL114533   0.303  40.143   9.269
  851POPC   GL214534   0.590  40.097   9.106
  851POPC   C1A14535   0.129  40.179   8.851
  851POPC   D2A14536   0.345  40.046   8.493
  851POPC   C3A14537   0.217  40.192   8.099
  851POPC   C4A14538   0.097  39.912   7.812
  851POPC   C1B14539   0.765  39.886   8.781
  851POPC   C2B14540   0.851  40.034   8.361
  851POPC   C3B14541   0.694  40.099   7.971
  851POPC   C4B14542   0.746  39.764   7.714
  852POPC   NC314543  17.282  11.168   9.451
  852POPC   PO414544  17.859  11.642   9.530
  852POPC   GL114545  17.573  11.516   9.186
  852POPC   GL214546  17.649  11.175   9.106
  852POPC   C1A14547  17.409  11.417   8.729
  852POPC   D2A14548  17.385  11.567   8.255
  852POPC   C3A14549  17.271  11.311   7.893
  852POPC   C4A14550  16.918  11.020   7.859
  852POPC   C1B14551  17.837  11.079   8.756
  852POPC   C2B14552  17.765  11.223   8.359
  852POPC   C3B14553  17.984  11.336   8.008
  852POPC   C4B14554  17.757  11.385   7.667
  853POPC   NC314555  22.744  38.784   9.226
  853POPC   PO414556  22.724  39.448   9.446
  853POPC   GL114557  22.943  39.324   9.091
  853POPC   GL214558  23.254  39.132   9.039
  853POPC   C1A14559  22.762  39.211   8.736
  853POPC   D2A14560  22.688  39.000   8.392
  853POPC   C3A14561  22.947  39.192   8.106
  853POPC   C4A14562  22.953  39.362   7.688
  853POPC   C1B14563  23.153  38.900   8.621
  853POPC   C2B14564  23.055  38.692   8.209
  853POPC   C3B14565  23.002  38.821   7.766
  853POPC   C4B14566  23.349  38.961   7.509
  854POPC   NC314567  34.588  32.619   9.470
  854POPC   PO414568  34.344  32.021   9.689
  854POPC   GL114569  34.578  32.109   9.333
  854POPC   GL214570  34.275  32.285   9.185
  854POPC   C1A14571  34.729  32.197   8.907
  854POPC   D2A14572  34.711  32.424   8.491
  854POPC   C3A14573  34.622  32.231   8.079
  854POPC   C4A14574  34.651  32.315   7.647
  854POPC   C1B14575  34.331  32.559   8.806
  854POPC   C2B14576  34.210  32.597   8.349
  854POPC   C3B14577  34.221  32.577   7.882
  854POPC   C4B14578  34.161  32.182   7.670
  855POPC   NC314579  10.167  15.147   9.489
  855POPC   PO414580  10.813  14.929   9.432
  855POPC   GL114581  10.662  15.249   9.123
  855POPC   GL214582  10.299  15.305   9.033
  855POPC   C1A14583  10.675  15.070   8.703
  855POPC   D2A14584  10.868  14.933   8.325
  855POPC   C3A14585  10.753  15.097   7.909
  855POPC   C4A14586  10.639  15.504   7.736
  855POPC   C1B14587  10.380  15.479   8.629
  855POPC   C2B14588  10.404  15.235   8.244
  855POPC   C3B14589  10.241  15.185   7.822
  855POPC   C4B14590  10.121  14.905   7.494
  856POPC   NC314591  33.285  11.136   9.488
  856POPC   PO414592  32.893  11.727   9.661
  856POPC   GL114593  33.167  11.555   9.264
  856POPC   GL214594  32.938  11.284   9.120
  856POPC   C1A14595  33.266  11.553   8.835
  856POPC   D2A14596  32.988  11.319   8.583
  856POPC   C3A14597  33.069  11.417   8.185
  856POPC   C4A14598  33.230  11.203   7.851
  856POPC   C1B14599  32.629  11.019   8.876
  856POPC   C2B14600  32.546  10.936   8.455
  856POPC   C3B14601  32.797  10.967   8.109
  856POPC   C4B14602  32.718  10.967   7.693
  857POPC   NC314603  10.252  23.351   9.739
  857POPC   PO414604  10.367  23.942   9.492
  857POPC   GL114605  10.537  23.758   9.139
  857POPC   GL214606  10.723  23.469   9.236
  857POPC   C1A14607  10.721  23.699   8.757
  857POPC   D2A14608  10.726  23.405   8.458
  857POPC   C3A14609  10.602  23.576   8.076
  857POPC   C4A14610  10.370  23.720   7.740
  857POPC   C1B14611  10.418  23.305   8.915
  857POPC   C2B14612  10.229  23.360   8.489
  857POPC   C3B14613  10.073  23.479   8.081
  857POPC   C4B14614   9.880  23.517   7.662
  858POPC   NC314615  38.732  39.968   9.598
  858POPC   PO414616  38.179  40.250   9.431
  858POPC   GL114617  38.446  40.054   9.165
  858POPC   GL214618  38.675  40.288   9.088
  858POPC   C1A14619  38.390  39.892   8.773
  858POPC   D2A14620  38.636  39.773   8.407
  858POPC   C3A14621  38.447  39.809   8.002
  858POPC   C4A14622  38.429  39.970   7.585
  858POPC   C1B14623  38.804  40.330   8.666
  858POPC   C2B14624  38.877  40.359   8.233
  858POPC   C3B14625  38.730  40.267   7.859
  858POPC   C4B14626  38.786  40.345   7.377
  859POPC   NC314627  31.739  11.025   9.401
  859POPC   PO414628  31.175  11.398   9.525
  859POPC   GL114629  31.371  11.333   9.118
  859POPC   GL214630  31.308  10.993   9.110
  859POPC   C1A14631  31.597  11.199   8.716
  859POPC   D2A14632  31.598  11.288   8.275
  859POPC   C3A14633  31.752  11.366   7.858
  859POPC   C4A14634  31.762  11.100   7.490
  859POPC   C1B14635  31.048  11.002   8.757
  859POPC   C2B14636  31.108  11.287   8.428
  859POPC   C3B14637  31.222  11.342   7.955
  859POPC   C4B14638  31.025  11.192   7.589
  860POPC   NC314639  20.566   1.608   9.418
  860POPC   PO414640  20.449   1.065   9.713
  860POPC   GL114641  20.558   1.129   9.221
  860POPC   GL214642  20.386   1.373   9.018
  860POPC   C1A14643  20.821   1.288   8.825
  860POPC   D2A14644  20.612   1.326   8.435
  860POPC   C3A14645  20.903   1.274   8.097
  860POPC   C4A14646  20.785   1.288   7.678
  860POPC   C1B14647  20.166   1.460   8.675
  860POPC   C2B14648  20.162   1.506   8.253
  860POPC   C3B14649  20.364   1.237   7.960
  860POPC   C4B14650  20.208   1.068   7.577
  861POPC   NC314651  12.399   1.983   9.219
  861POPC   PO414652  12.087   1.592   9.602
  861POPC   GL114653  11.979   1.735   9.136
  861POPC   GL214654  11.912   2.115   9.130
  861POPC   C1A14655  12.129   1.803   8.671
  861POPC   D2A14656  11.953   1.944   8.277
  861POPC   C3A14657  12.055   1.657   7.939
  861POPC   C4A14658  12.392   1.802   7.723
  861POPC   C1B14659  11.709   2.126   8.724
  861POPC   C2B14660  11.432   2.007   8.386
  861POPC   C3B14661  11.548   2.017   7.944
  861POPC   C4B14662  11.936   2.093   7.714
  862POPC   NC314663   9.273   6.261   9.559
  862POPC   PO414664   9.953   6.373   9.463
  862POPC   GL114665   9.796   6.664   9.133
  862POPC   GL214666   9.482   6.675   9.290
  862POPC   C1A14667   9.594   6.820   8.721
  862POPC   D2A14668   9.761   6.850   8.325
  862POPC   C3A14669   9.850   6.566   7.998
  862POPC   C4A14670   9.744   6.757   7.623
  862POPC   C1B14671   9.404   6.401   8.922
  862POPC   C2B14672   9.480   6.411   8.457
  862POPC   C3B14673   9.347   6.593   8.081
  862POPC   C4B14674   9.435   6.337   7.748
  863POPC   NC314675  39.681  19.752   9.531
  863POPC   PO414676  40.120  20.198   9.503
  863POPC   GL114677  39.902  20.034   9.166
  863POPC   GL214678  39.990  19.664   9.138
  863POPC   C1A14679  39.819  20.076   8.747
  863POPC   D2A14680  39.800  19.838   8.365
  863POPC   C3A14681  39.976  20.020   8.014
  863POPC   C4A14682  39.829  19.903   7.621
  863POPC   C1B14683  40.038  19.563   8.718
  863POPC   C2B14684  40.108  19.422   8.284
  863POPC   C3B14685  40.162  19.556   7.861
  863POPC   C4B14686  40.269  19.444   7.453
  864POPC   NC314687  23.971  22.557   9.435
  864POPC   PO414688  23.706  23.118   9.649
  864POPC   GL114689  23.702  22.950   9.214
  864POPC   GL214690  23.402  23.092   9.072
  864POPC   C1A14691  23.725  22.764   8.791
  864POPC   D2A14692  23.917  22.745   8.380
  864POPC   C3A14693  23.813  23.100   8.096
  864POPC   C4A14694  23.716  22.840   7.814
  864POPC   C1B14695  23.235  23.023   8.677
  864POPC   C2B14696  23.361  22.948   8.275
  864POPC   C3B14697  23.297  23.113   7.884
  864POPC   C4B14698  23.598  23.295   7.601
  865POPC   NC314699  34.476  34.154   9.762
  865POPC   PO414700  34.498  33.552   9.467
  865POPC   GL114701  34.690  33.507   9.091
  865POPC   GL214702  34.663  33.850   9.054
  865POPC   C1A14703  34.841  33.432   8.678
  865POPC   D2A14704  34.894  33.737   8.348
  865POPC   C3A14705  34.889  33.590   7.921
  865POPC   C4A14706  34.675  33.724   7.530
  865POPC   C1B14707  34.452  33.829   8.666
  865POPC   C2B14708  34.401  33.944   8.249
  865POPC   C3B14709  34.213  33.898   7.856
  865POPC   C4B14710  34.245  34.147   7.500
  866POPC   NC314711  27.806   3.336   9.491
  866POPC   PO414712  27.411   3.905   9.603
  866POPC   GL114713  27.467   3.679   9.207
  866POPC   GL214714  27.320   3.374   9.170
  866POPC   C1A14715  27.698   3.676   8.801
  866POPC   D2A14716  27.683   3.924   8.412
  866POPC   C3A14717  27.834   3.775   8.032
  866POPC   C4A14718  27.618   3.613   7.712
  866POPC   C1B14719  27.225   3.493   8.749
  866POPC   C2B14720  27.499   3.443   8.365
  866POPC   C3B14721  27.673   3.188   7.975
  866POPC   C4B14722  27.569   3.198   7.459
  867POPC   NC314723  34.681  26.269   9.483
  867POPC   PO414724  34.603  25.618   9.624
  867POPC   GL114725  34.837  25.811   9.270
  867POPC   GL214726  34.516  25.823   9.123
  867POPC   C1A14727  34.858  26.081   8.870
  867POPC   D2A14728  34.735  26.347   8.552
  867POPC   C3A14729  34.786  26.239   8.107
  867POPC   C4A14730  34.567  26.286   7.725
  867POPC   C1B14731  34.357  26.005   8.707
  867POPC   C2B14732  34.430  25.886   8.272
  867POPC   C3B14733  34.190  26.011   7.898
  867POPC   C4B14734  34.221  25.991   7.466
  868POPC   NC314735  23.221  20.321   9.406
  868POPC   PO414736  22.769  20.799   9.458
  868POPC   GL114737  22.861  20.567   9.103
  868POPC   GL214738  23.184  20.713   9.021
  868POPC   C1A14739  22.803  20.490   8.672
  868POPC   D2A14740  22.998  20.508   8.263
  868POPC   C3A14741  22.691  20.627   7.935
  868POPC   C4A14742  22.637  20.955   7.630
  868POPC   C1B14743  23.311  20.372   8.742
  868POPC   C2B14744  23.509  20.357   8.335
  868POPC   C3B14745  23.390  20.424   7.914
  868POPC   C4B14746  23.172  20.790   7.827
  869POPC   NC314747   8.314   7.781   9.604
  869POPC   PO414748   8.133   7.102   9.754
  869POPC   GL114749   8.225   7.359   9.270
  869POPC   GL214750   8.531   7.362   9.002
  869POPC   C1A14751   8.128   7.511   8.780
  869POPC   D2A14752   8.362   7.490   8.338
  869POPC   C3A14753   8.158   7.554   7.985
  869POPC   C4A14754   8.096   7.274   7.700
  869POPC   C1B14755   8.563   7.768   8.688
  869POPC   C2B14756   8.341   7.986   8.305
  869POPC   C3B14757   8.418   7.944   7.831
  869POPC   C4B14758   8.305   7.686   7.466
  870POPC   NC314759   2.353  36.972   9.857
  870POPC   PO414760   2.930  36.927   9.440
  870POPC   GL114761   2.830  37.014   9.022
  870POPC   GL214762   2.977  37.333   9.029
  870POPC   C1A14763   2.628  36.850   8.648
  870POPC   D2A14764   2.282  36.844   8.372
  870POPC   C3A14765   2.449  36.575   8.099
  870POPC   C4A14766   2.552  36.681   7.687
  870POPC   C1B14767   2.853  37.306   8.606
  870POPC   C2B14768   2.609  37.241   8.260
  870POPC   C3B14769   2.778  37.217   7.875
  870POPC   C4B14770   3.243  37.270   7.926
  871POPC   NC314771  12.435   9.708   9.544
  871POPC   PO414772  13.096   9.470   9.510
  871POPC   GL114773  12.888   9.758   9.240
  871POPC   GL214774  12.613   9.658   9.080
  871POPC   C1A14775  12.994   9.897   8.825
  871POPC   D2A14776  13.047   9.840   8.396
  871POPC   C3A14777  12.950   9.503   8.092
  871POPC   C4A14778  13.145   9.444   7.697
  871POPC   C1B14779  12.516   9.904   8.715
  871POPC   C2B14780  12.553   9.839   8.299
  871POPC   C3B14781  12.783   9.958   7.985
  871POPC   C4B14782  12.761   9.750   7.628
  872POPC   NC314783   4.216  10.651   9.671
  872POPC   PO414784   4.470  10.099   9.592
  872POPC   GL114785   4.489  10.334   9.216
  872POPC   GL214786   4.207  10.499   9.143
  872POPC   C1A14787   4.638  10.445   8.815
  872POPC   D2A14788   4.488  10.616   8.410
  872POPC   C3A14789   4.567  10.467   8.019
  872POPC   C4A14790   4.258  10.402   7.724
  872POPC   C1B14791   4.235  10.825   8.806
  872POPC   C2B14792   4.111  10.944   8.350
  872POPC   C3B14793   4.256  10.881   7.890
  872POPC   C4B14794   4.154  10.783   7.405
  873POPC   NC314795  34.748  20.332   9.547
  873POPC   PO414796  34.351  20.708   9.214
  873POPC   GL114797  34.579  20.484   8.997
  873POPC   GL214798  34.838  20.616   9.121
  873POPC   C1A14799  34.500  20.476   8.583
  873POPC   D2A14800  34.521  20.848   8.360
  873POPC   C3A14801  34.533  20.697   7.967
  873POPC   C4A14802  34.437  20.710   7.543
  873POPC   C1B14803  34.887  20.808   8.743
  873POPC   C2B14804  35.095  21.001   8.455
  873POPC   C3B14805  34.922  21.039   8.059
  873POPC   C4B14806  34.945  20.749   7.684
  874POPC   NC314807  34.299  38.515   9.624
  874POPC   PO414808  34.733  38.048   9.649
  874POPC   GL114809  34.543  38.203   9.271
  874POPC   GL214810  34.455  38.540   9.132
  874POPC   C1A14811  34.319  38.063   8.940
  874POPC   D2A14812  34.276  38.063   8.468
  874POPC   C3A14813  34.290  38.412   8.168
  874POPC   C4A14814  34.321  38.315   7.726
  874POPC   C1B14815  34.610  38.392   8.715
  874POPC   C2B14816  34.775  38.344   8.311
  874POPC   C3B14817  34.758  38.548   7.913
  874POPC   C4B14818  34.605  38.790   7.574
  875POPC   NC314819  27.862  32.184   9.629
  875POPC   PO414820  27.169  32.443   9.612
  875POPC   GL114821  27.556  32.415   9.286
  875POPC   GL214822  27.735  32.080   9.161
  875POPC   C1A14823  27.793  32.484   8.873
  875POPC   D2A14824  27.806  32.254   8.506
  875POPC   C3A14825  27.957  32.463   8.155
  875POPC   C4A14826  27.769  32.408   7.765
  875POPC   C1B14827  27.660  31.849   8.800
  875POPC   C2B14828  27.827  31.750   8.435
  875POPC   C3B14829  27.840  31.957   8.064
  875POPC   C4B14830  27.961  31.938   7.669
  876POPC   NC314831  23.661   3.614   9.538
  876POPC   PO414832  24.251   3.197   9.548
  876POPC   GL114833  23.882   3.307   9.193
  876POPC   GL214834  23.478   3.388   9.117
  876POPC   C1A14835  23.792   3.409   8.732
  876POPC   D2A14836  23.610   3.426   8.322
  876POPC   C3A14837  23.804   3.563   7.919
  876POPC   C4A14838  23.968   3.337   7.559
  876POPC   C1B14839  23.491   3.810   8.909
  876POPC   C2B14840  23.368   3.916   8.495
  876POPC   C3B14841  23.406   3.824   8.087
  876POPC   C4B14842  23.350   4.015   7.704
  877POPC   NC314843  35.553   1.266   9.475
  877POPC   PO414844  34.900   1.050   9.374
  877POPC   GL114845  35.228   1.096   9.074
  877POPC   GL214846  35.592   1.220   8.994
  877POPC   C1A14847  35.314   1.022   8.659
  877POPC   D2A14848  35.414   1.331   8.424
  877POPC   C3A14849  35.611   1.252   8.073
  877POPC   C4A14850  35.519   1.108   7.703
  877POPC   C1B14851  35.623   1.633   8.851
  877POPC   C2B14852  35.548   1.826   8.479
  877POPC   C3B14853  35.732   1.761   8.094
  877POPC   C4B14854  35.662   1.604   7.706
  878POPC   NC314855   9.494  43.942   9.545
  878POPC   PO414856  10.084  43.795   9.677
  878POPC   GL114857   9.966  43.790   9.139
  878POPC   GL214858   9.736  44.071   9.110
  878POPC   C1A14859  10.072  43.926   8.710
  878POPC   D2A14860  10.035  43.722   8.322
  878POPC   C3A14861   9.863  43.902   7.953
  878POPC   C4A14862  10.011  43.977   7.521
  878POPC   C1B14863   9.581  43.884   8.745
  878POPC   C2B14864   9.522  43.813   8.364
  878POPC   C3B14865   9.418  43.643   7.992
  878POPC   C4B14866   9.467  43.878   7.603
  879POPC   NC314867   0.302  29.167   9.594
  879POPC   PO414868   0.773  29.577   9.502
  879POPC   GL114869   0.648  29.269   9.188
  879POPC   GL214870   0.279  29.255   9.110
  879POPC   C1A14871   0.787  29.099   8.794
  879POPC   D2A14872   0.702  29.002   8.382
  879POPC   C3A14873   0.874  28.948   7.977
  879POPC   C4A14874   0.670  29.174   7.643
  879POPC   C1B14875   0.267  28.957   8.827
  879POPC   C2B14876   0.217  29.137   8.451
  879POPC   C3B14877   0.323  29.110   8.040
  879POPC   C4B14878   0.242  29.523   7.879
  880POPC   NC314879  40.087   5.737   9.868
  880POPC   PO414880  39.635   6.024   9.484
  880POPC   GL114881  39.973   5.828   9.215
  880POPC   GL214882  39.731   5.862   8.982
  880POPC   C1A14883  40.123   5.605   8.846
  880POPC   D2A14884  39.832   5.518   8.506
  880POPC   C3A14885  39.876   5.664   8.066
  880POPC   C4A14886  40.280   5.665   7.869
  880POPC   C1B14887  39.591   6.213   8.773
  880POPC   C2B14888  39.401   6.203   8.342
  880POPC   C3B14889  39.497   5.999   7.927
  880POPC   C4B14890  39.573   6.000   7.441
  881POPC   NC314891   5.119   7.805   9.564
  881POPC   PO414892   5.415   7.207   9.634
  881POPC   GL114893   5.155   7.207   9.255
  881POPC   GL214894   4.845   7.391   9.203
  881POPC   C1A14895   5.181   7.264   8.801
  881POPC   D2A14896   5.159   7.546   8.410
  881POPC   C3A14897   5.137   7.297   8.040
  881POPC   C4A14898   4.951   7.159   7.677
  881POPC   C1B14899   4.738   7.514   8.762
  881POPC   C2B14900   4.658   7.676   8.324
  881POPC   C3B14901   4.672   7.550   7.879
  881POPC   C4B14902   4.719   7.661   7.411
  882POPC   NC314903   7.157  32.505   9.495
  882POPC   PO414904   6.546  32.164   9.528
  882POPC   GL114905   6.689  31.909   9.169
  882POPC   GL214906   7.011  32.060   9.142
  882POPC   C1A14907   6.733  31.940   8.696
  882POPC   D2A14908   6.442  32.005   8.378
  882POPC   C3A14909   6.465  32.206   7.997
  882POPC   C4A14910   6.767  32.114   7.630
  882POPC   C1B14911   6.755  32.398   8.928
  882POPC   C2B14912   6.680  32.461   8.478
  882POPC   C3B14913   6.913  32.352   8.090
  882POPC   C4B14914   7.012  32.563   7.736
  883POPC   NC314915   1.491  43.220   9.506
  883POPC   PO414916   0.892  43.076   9.618
  883POPC   GL114917   1.076  43.091   9.189
  883POPC   GL214918   1.267  43.398   9.066
  883POPC   C1A14919   1.102  43.041   8.719
  883POPC   D2A14920   1.120  43.298   8.317
  883POPC   C3A14921   1.020  43.060   7.928
  883POPC   C4A14922   1.150  42.748   7.574
  883POPC   C1B14923   1.514  43.334   8.676
  883POPC   C2B14924   1.571  43.025   8.336
  883POPC   C3B14925   1.523  43.003   7.888
  883POPC   C4B14926   1.311  43.222   7.511
  884POPC   NC314927  10.098   1.149   9.525
  884POPC   PO414928   9.545   0.888   9.172
  884POPC   GL114929   9.907   1.125   9.040
  884POPC   GL214930  10.075   1.446   9.091
  884POPC   C1A14931   9.922   1.175   8.611
  884POPC   D2A14932   9.943   0.867   8.293
  884POPC   C3A14933   9.568   0.833   8.058
  884POPC   C4A14934   9.498   1.136   7.728
  884POPC   C1B14935  10.185   1.606   8.654
  884POPC   C2B14936   9.954   1.560   8.245
  884POPC   C3B14937   9.976   1.299   7.832
  884POPC   C4B14938   9.927   1.327   7.350
  885POPC   NC314939  14.635   8.811   9.880
  885POPC   PO414940  14.873   9.290   9.756
  885POPC   GL114941  14.762   9.182   9.288
  885POPC   GL214942  14.651   9.435   9.038
  885POPC   C1A14943  14.639   8.929   8.880
  885POPC   D2A14944  14.550   8.811   8.404
  885POPC   C3A14945  14.413   8.852   7.941
  885POPC   C4A14946  14.389   8.939   7.476
  885POPC   C1B14947  14.656   9.330   8.572
  885POPC   C2B14948  14.362   9.277   8.223
  885POPC   C3B14949  14.481   9.338   7.790
  885POPC   C4B14950  14.899   9.357   7.603
  886POPC   NC314951  14.586  41.891   9.501
  886POPC   PO414952  14.152  41.425   9.518
  886POPC   GL114953  14.285  41.553   9.124
  886POPC   GL214954  14.623  41.600   9.098
  886POPC   C1A14955  14.332  41.498   8.687
  886POPC   D2A14956  14.518  41.650   8.307
  886POPC   C3A14957  14.285  41.553   7.956
  886POPC   C4A14958  13.942  41.247   7.841
  886POPC   C1B14959  14.602  41.928   8.767
  886POPC   C2B14960  14.735  42.105   8.359
  886POPC   C3B14961  14.685  41.957   7.923
  886POPC   C4B14962  14.658  41.614   7.626
  887POPC   NC314963  34.066  20.519   9.522
  887POPC   PO414964  33.457  20.343   9.476
  887POPC   GL114965  33.656  20.544   9.165
  887POPC   GL214966  33.786  20.843   9.243
  887POPC   C1A14967  33.791  20.509   8.749
  887POPC   D2A14968  33.637  20.735   8.393
  887POPC   C3A14969  33.720  20.469   8.033
  887POPC   C4A14970  33.564  20.467   7.653
  887POPC   C1B14971  33.915  21.016   8.834
  887POPC   C2B14972  34.000  21.141   8.413
  887POPC   C3B14973  34.048  20.832   8.107
  887POPC   C4B14974  33.961  20.859   7.672
  888POPC   NC314975  20.842  44.079   9.541
  888POPC   PO414976  20.470  43.581   9.369
  888POPC   GL114977  20.396  43.938   9.115
  888POPC   GL214978  20.738  43.939   9.033
  888POPC   C1A14979  20.343  43.764   8.729
  888POPC   D2A14980  20.642  43.630   8.450
  888POPC   C3A14981  20.492  43.679   8.070
  888POPC   C4A14982  20.598  43.638   7.656
  888POPC   C1B14983  20.592  44.195   8.688
  888POPC   C2B14984  20.378  44.124   8.283
  888POPC   C3B14985  20.387  44.092   7.812
  888POPC   C4B14986  20.722  44.175   7.476
  889POPC   NC314987   8.143  21.086   9.769
  889POPC   PO414988   7.940  21.647   9.445
  889POPC   GL114989   8.252  21.371   9.219
  889POPC   GL214990   8.017  21.242   9.013
  889POPC   C1A14991   8.461  21.181   8.821
  889POPC   D2A14992   8.285  21.218   8.424
  889POPC   C3A14993   8.471  21.279   8.040
  889POPC   C4A14994   8.631  21.580   7.798
  889POPC   C1B14995   7.877  21.005   8.664
  889POPC   C2B14996   7.916  20.958   8.220
  889POPC   C3B14997   8.003  21.219   7.802
  889POPC   C4B14998   7.954  21.107   7.335
  890POPC   NC314999  25.481  40.842   9.495
  890POPC   PO415000  24.827  40.977   9.627
  890POPC   GL115001  24.910  40.758   9.164
  890POPC   GL215002  25.253  40.614   9.120
  890POPC   C1A15003  25.011  40.537   8.705
  890POPC   D2A15004  25.200  40.501   8.256
  890POPC   C3A15005  25.026  40.683   7.852
  890POPC   C4A15006  25.190  40.567   7.412
  890POPC   C1B15007  25.399  40.860   8.741
  890POPC   C2B15008  25.248  41.008   8.342
  890POPC   C3B15009  25.370  41.054   7.920
  890POPC   C4B15010  25.556  41.386   7.696
  891POPC   NC315011  16.726  21.770   9.849
  891POPC   PO415012  16.955  22.268   9.423
  891POPC   GL115013  16.900  22.202   8.994
  891POPC   GL215014  16.915  21.846   8.850
  891POPC   C1A15015  16.912  22.284   8.600
  891POPC   D2A15016  16.659  22.285   8.285
  891POPC   C3A15017  16.909  22.264   7.942
  891POPC   C4A15018  16.614  22.420   7.653
  891POPC   C1B15019  16.507  21.942   8.661
  891POPC   C2B15020  16.295  21.882   8.263
  891POPC   C3B15021  16.516  21.962   7.886
  891POPC   C4B15022  16.915  21.819   7.663
  892POPC   NC315023  31.213  29.372   9.386
  892POPC   PO415024  31.859  29.033   9.458
  892POPC   GL115025  31.631  29.174   9.134
  892POPC   GL215026  31.672  29.526   9.147
  892POPC   C1A15027  31.393  29.274   8.758
  892POPC   D2A15028  31.284  29.462   8.371
  892POPC   C3A15029  31.288  29.119   8.062
  892POPC   C4A15030  31.333  29.022   7.617
  892POPC   C1B15031  31.902  29.343   8.734
  892POPC   C2B15032  31.754  29.251   8.317
  892POPC   C3B15033  31.701  29.354   7.871
  892POPC   C4B15034  31.793  29.205   7.475
  893POPC   NC315035  13.961  11.458   9.328
  893POPC   PO415036  13.391  11.076   9.471
  893POPC   GL115037  13.604  11.133   9.097
  893POPC   GL215038  13.970  11.041   9.051
  893POPC   C1A15039  13.644  11.257   8.685
  893POPC   D2A15040  13.721  11.027   8.331
  893POPC   C3A15041  13.431  11.198   8.026
  893POPC   C4A15042  13.491  11.531   7.726
  893POPC   C1B15043  14.139  11.321   8.730
  893POPC   C2B15044  13.999  11.519   8.335
  893POPC   C3B15045  13.943  11.310   7.931
  893POPC   C4B15046  13.958  11.417   7.493
  894POPC   NC315047   6.376  40.295   9.538
  894POPC   PO415048   5.793  39.844   9.589
  894POPC   GL115049   5.915  40.192   9.295
  894POPC   GL215050   5.623  40.173   9.136
  894POPC   C1A15051   6.035  40.353   8.874
  894POPC   D2A15052   6.244  40.148   8.534
  894POPC   C3A15053   6.149  40.139   8.098
  894POPC   C4A15054   5.980  39.929   7.715
  894POPC   C1B15055   5.783  39.920   8.801
  894POPC   C2B15056   5.719  40.065   8.382
  894POPC   C3B15057   5.567  39.975   7.981
  894POPC   C4B15058   5.363  39.747   7.617
  895POPC   NC315059   8.640  38.565   9.486
  895POPC   PO415060   9.191  38.092   9.490
  895POPC   GL115061   9.065  38.324   9.120
  895POPC   GL215062   9.037  38.695   9.181
  895POPC   C1A15063   8.752  38.187   8.818
  895POPC   D2A15064   8.528  38.194   8.433
  895POPC   C3A15065   8.806  38.365   8.201
  895POPC   C4A15066   8.845  38.437   7.793
  895POPC   C1B15067   8.851  38.900   8.819
  895POPC   C2B15068   8.991  38.788   8.433
  895POPC   C3B15069   8.887  38.896   8.022
  895POPC   C4B15070   9.146  38.824   7.644
  896POPC   NC315071  27.308  17.241   9.787
  896POPC   PO415072  27.698  16.682   9.566
  896POPC   GL115073  27.637  16.661   9.113
  896POPC   GL215074  27.403  16.356   9.072
  896POPC   C1A15075  27.698  16.870   8.724
  896POPC   D2A15076  28.012  16.786   8.423
  896POPC   C3A15077  27.861  16.849   8.009
  896POPC   C4A15078  28.025  16.786   7.579
  896POPC   C1B15079  27.253  16.612   8.746
  896POPC   C2B15080  27.393  16.711   8.330
  896POPC   C3B15081  27.182  16.628   7.943
  896POPC   C4B15082  27.295  16.504   7.520
  897POPC   NC315083  35.874  33.592   9.446
  897POPC   PO415084  36.346  33.895   9.759
  897POPC   GL115085  36.326  33.806   9.266
  897POPC   GL215086  36.007  33.917   9.094
  897POPC   C1A15087  36.310  33.666   8.775
  897POPC   D2A15088  36.279  33.888   8.365
  897POPC   C3A15089  36.393  33.766   7.959
  897POPC   C4A15090  36.259  33.942   7.579
  897POPC   C1B15091  36.038  34.173   8.742
  897POPC   C2B15092  35.835  34.118   8.339
  897POPC   C3B15093  35.911  34.082   7.921
  897POPC   C4B15094  35.743  33.838   7.598
  898POPC   NC315095  13.559  30.994   9.345
  898POPC   PO415096  13.351  30.307   9.420
  898POPC   GL115097  13.364  30.590   9.067
  898POPC   GL215098  13.682  30.569   9.092
  898POPC   C1A15099  13.583  30.885   8.720
  898POPC   D2A15100  13.801  30.803   8.374
  898POPC   C3A15101  13.500  30.839   8.054
  898POPC   C4A15102  13.614  30.776   7.676
  898POPC   C1B15103  13.885  30.437   8.756
  898POPC   C2B15104  13.855  30.225   8.387
  898POPC   C3B15105  13.778  30.387   8.015
  898POPC   C4B15106  13.965  30.365   7.619
  899POPC   NC315107  31.131  19.229   9.876
  899POPC   PO415108  31.725  19.334   9.643
  899POPC   GL115109  31.763  19.166   9.275
  899POPC   GL215110  31.429  19.168   9.170
  899POPC   C1A15111  31.888  19.310   8.929
  899POPC   D2A15112  31.922  19.194   8.512
  899POPC   C3A15113  31.749  19.378   8.172
  899POPC   C4A15114  31.793  19.200   7.752
  899POPC   C1B15115  31.522  18.962   8.774
  899POPC   C2B15116  31.430  19.013   8.331
  899POPC   C3B15117  31.309  19.179   7.902
  899POPC   C4B15118  31.358  18.910   7.500
  900POPC   NC315119  15.806  21.919   9.314
  900POPC   PO415120  16.419  21.929   9.524
  900POPC   GL115121  16.405  22.158   9.117
  900POPC   GL215122  16.070  22.143   8.920
  900POPC   C1A15123  16.431  22.456   8.737
  900POPC   D2A15124  16.131  22.404   8.396
  900POPC   C3A15125  16.232  22.402   7.982
  900POPC   C4A15126  16.151  22.171   7.590
  900POPC   C1B15127  15.792  22.511   8.764
  900POPC   C2B15128  15.681  22.686   8.336
  900POPC   C3B15129  15.718  22.492   7.935
  900POPC   C4B15130  15.752  22.036   7.853
  901POPC   NC315131  41.171   8.543   9.518
  901POPC   PO415132  40.559   8.190   9.371
  901POPC   GL115133  40.716   8.180   9.048
  901POPC   GL215134  41.039   8.265   9.118
  901POPC   C1A15135  40.519   8.229   8.655
  901POPC   D2A15136  40.619   8.371   8.254
  901POPC   C3A15137  40.492   8.103   7.955
  901POPC   C4A15138  40.473   7.785   7.654
  901POPC   C1B15139  41.003   8.409   8.709
  901POPC   C2B15140  41.067   8.151   8.381
  901POPC   C3B15141  41.086   8.364   8.029
  901POPC   C4B15142  40.924   8.154   7.699
  902POPC   NC315143  44.109   0.595   9.498
  902POPC   PO415144  43.756   0.055   9.462
  902POPC   GL115145  43.687   0.231   9.054
  902POPC   GL215146  43.675   0.585   9.045
  902POPC   C1A15147  43.778   0.356   8.600
  902POPC   D2A15148  44.079   0.234   8.251
  902POPC   C3A15149  43.872   0.321   7.861
  902POPC   C4A15150  43.895   0.369   7.427
  902POPC   C1B15151  43.934   0.828   8.762
  902POPC   C2B15152  43.978   0.756   8.306
  902POPC   C3B15153  44.065   0.813   7.879
  902POPC   C4B15154  43.750   0.839   7.614
  903POPC   NC315155  26.202  16.636   9.365
  903POPC   PO415156  25.621  16.981   9.515
  903POPC   GL115157  25.945  17.065   9.201
  903POPC   GL215158  25.824  16.798   8.973
  903POPC   C1A15159  26.244  17.061   8.819
  903POPC   D2A15160  26.032  16.848   8.466
  903POPC   C3A15161  26.133  16.982   8.037
  903POPC   C4A15162  26.338  16.906   7.643
  903POPC   C1B15163  25.548  16.768   8.593
  903POPC   C2B15164  25.575  16.791   8.145
  903POPC   C3B15165  25.750  16.661   7.828
  903POPC   C4B15166  26.118  16.499   7.845
  904POPC   NC315167  10.970  19.609   9.511
  904POPC   PO415168  10.273  19.626   9.398
  904POPC   GL115169  10.420  19.873   9.068
  904POPC   GL215170  10.760  19.931   9.167
  904POPC   C1A15171  10.397  19.839   8.622
  904POPC   D2A15172  10.388  19.990   8.242
  904POPC   C3A15173  10.202  19.713   7.957
  904POPC   C4A15174  10.354  19.826   7.596
  904POPC   C1B15175  10.893  19.952   8.756
  904POPC   C2B15176  10.916  19.849   8.323
  904POPC   C3B15177  10.762  19.983   7.890
  904POPC   C4B15178  10.984  20.192   7.516
  905POPC   NC315179  44.363  10.664   9.324
  905POPC   PO415180  44.889  10.288   9.578
  905POPC   GL115181  44.733  10.296   9.165
  905POPC   GL215182  44.938  10.580   9.090
  905POPC   C1A15183  44.775  10.312   8.694
  905POPC   D2A15184  44.855  10.461   8.278
  905POPC   C3A15185  44.642  10.450   7.884
  905POPC   C4A15186  44.493  10.594   7.487
  905POPC   C1B15187  44.858  10.821   8.675
  905POPC   C2B15188   0.158  10.883   8.336
  905POPC   C3B15189   0.157  10.724   7.922
  905POPC   C4B15190  44.976  10.713   7.545
  906POPC   NC315191  32.457  13.017   9.322
  906POPC   PO415192  32.923  12.716   9.711
  906POPC   GL115193  32.955  12.761   9.258
  906POPC   GL215194  33.198  13.004   9.207
  906POPC   C1A15195  32.978  12.739   8.792
  906POPC   D2A15196  32.927  12.915   8.372
  906POPC   C3A15197  32.897  12.673   8.005
  906POPC   C4A15198  33.072  12.716   7.647
  906POPC   C1B15199  33.307  13.156   8.791
  906POPC   C2B15200  33.310  13.279   8.360
  906POPC   C3B15201  33.298  13.159   7.934
  906POPC   C4B15202  33.520  13.293   7.582
  907POPC   NC315203   8.713  39.680   9.398
  907POPC   PO415204   8.852  39.007   9.544
  907POPC   GL115205   8.940  39.251   9.193
  907POPC   GL215206   9.258  39.141   9.038
  907POPC   C1A15207   8.922  39.456   8.795
  907POPC   D2A15208   9.024  39.300   8.400
  907POPC   C3A15209   8.792  39.412   8.045
  907POPC   C4A15210   8.865  39.262   7.647
  907POPC   C1B15211   9.444  39.460   8.778
  907POPC   C2B15212   9.427  39.612   8.376
  907POPC   C3B15213   9.336  39.396   7.986
  907POPC   C4B15214   9.399  39.243   7.572
  908POPC   NC315215  29.369  44.268   9.647
  908POPC   PO415216  29.907  43.840   9.593
  908POPC   GL115217  29.481  43.774   9.277
  908POPC   GL215218  29.172  43.973   9.264
  908POPC   C1A15219  29.248  43.734   8.820
  908POPC   D2A15220  29.092  43.951   8.416
  908POPC   C3A15221  29.220  43.816   7.986
  908POPC   C4A15222  29.319  43.857   7.539
  908POPC   C1B15223  29.450  44.186   8.941
  908POPC   C2B15224  29.433  44.339   8.487
  908POPC   C3B15225  29.408  44.338   8.033
  908POPC   C4B15226  29.403  44.346   7.584
  909POPC   NC315227  11.871  23.041   9.529
  909POPC   PO415228  12.459  22.748   9.516
  909POPC   GL115229  12.268  22.981   9.211
  909POPC   GL215230  12.031  22.701   9.177
  909POPC   C1A15231  12.102  23.062   8.818
  909POPC   D2A15232  12.255  23.078   8.407
  909POPC   C3A15233  11.972  23.074   8.041
  909POPC   C4A15234  11.964  23.088   7.614
  909POPC   C1B15235  12.262  22.535   8.872
  909POPC   C2B15236  12.446  22.567   8.471
  909POPC   C3B15237  12.336  22.690   8.071
  909POPC   C4B15238  12.217  22.635   7.669
  910POPC   NC315239  15.652   1.546   9.407
  910POPC   PO415240  15.619   2.278   9.434
  910POPC   GL115241  15.875   2.042   9.114
  910POPC   GL215242  16.022   1.680   9.077
  910POPC   C1A15243  15.973   1.987   8.686
  910POPC   D2A15244  16.221   2.075   8.347
  910POPC   C3A15245  16.025   2.011   7.941
  910POPC   C4A15246  15.989   2.247   7.512
  910POPC   C1B15247  15.759   1.531   8.736
  910POPC   C2B15248  15.996   1.585   8.366
  910POPC   C3B15249  16.246   1.506   8.046
  910POPC   C4B15250  16.021   1.588   7.661
  911POPC   NC315251  44.228  42.675   9.545
  911POPC   PO415252  43.740  42.107   9.499
  911POPC   GL115253  44.013  42.313   9.245
  911POPC   GL215254  43.779  42.592   9.259
  911POPC   C1A15255  44.190  42.217   8.859
  911POPC   D2A15256  44.240  42.459   8.484
  911POPC   C3A15257  44.034  42.309   8.141
  911POPC   C4A15258  43.970  42.284   7.709
  911POPC   C1B15259  43.873  42.630   8.828
  911POPC   C2B15260  43.663  42.493   8.460
  911POPC   C3B15261  43.539  42.394   8.051
  911POPC   C4B15262  43.560  42.610   7.686
  912POPC   NC315263  24.833  20.563   9.474
  912POPC   PO415264  24.290  20.798   9.441
  912POPC   GL115265  24.417  20.661   9.036
  912POPC   GL215266  24.324  20.318   8.861
  912POPC   C1A15267  24.178  20.739   8.643
  912POPC   D2A15268  23.908  20.686   8.319
  912POPC   C3A15269  24.206  20.693   8.029
  912POPC   C4A15270  24.246  20.813   7.628
  912POPC   C1B15271  24.693  20.522   8.655
  912POPC   C2B15272  24.668  20.667   8.265
  912POPC   C3B15273  24.664  20.599   7.810
  912POPC   C4B15274  24.297  20.327   7.603
  913POPC   NC315275  11.412  44.386   9.524
  913POPC   PO415276  10.939  44.750   9.288
  913POPC   GL115277  11.304  44.650   9.096
  913POPC   GL215278  11.532  44.898   9.160
  913POPC   C1A15279  11.395  44.415   8.756
  913POPC   D2A15280  11.228  44.560   8.398
  913POPC   C3A15281  11.407  44.616   8.019
  913POPC   C4A15282  11.308  44.526   7.595
  913POPC   C1B15283  11.739  44.788   8.762
  913POPC   C2B15284  11.747  44.884   8.344
  913POPC   C3B15285  11.633   0.081   7.985
  913POPC   C4B15286  11.387   0.014   7.676
  914POPC   NC315287   7.392  34.888   9.590
  914POPC   PO415288   7.741  35.423   9.711
  914POPC   GL115289   7.593  35.326   9.262
  914POPC   GL215290   7.256  35.206   9.199
  914POPC   C1A15291   7.532  35.330   8.778
  914POPC   D2A15292   7.603  35.150   8.340
  914POPC   C3A15293   7.640  35.375   7.933
  914POPC   C4A15294   7.306  35.599   7.680
  914POPC   C1B15295   7.156  34.890   8.858
  914POPC   C2B15296   7.126  34.879   8.394
  914POPC   C3B15297   7.177  35.161   8.055
  914POPC   C4B15298   7.256  35.096   7.647
  915POPC   NC315299  24.319  35.396   9.595
  915POPC   PO415300  24.980  35.530   9.573
  915POPC   GL115301  24.655  35.568   9.247
  915POPC   GL215302  24.553  35.223   9.176
  915POPC   C1A15303  24.449  35.577   8.840
  915POPC   D2A15304  24.617  35.456   8.462
  915POPC   C3A15305  24.601  35.519   8.041
  915POPC   C4A15306  24.929  35.459   7.786
  915POPC   C1B15307  24.275  35.091   8.853
  915POPC   C2B15308  24.180  35.140   8.413
  915POPC   C3B15309  24.280  35.126   7.984
  915POPC   C4B15310  24.222  35.466   7.674
  916POPC   NC315311  23.018   0.263   9.500
  916POPC   PO415312  22.813   0.893   9.670
  916POPC   GL115313  22.953   0.710   9.229
  916POPC   GL215314  23.122   0.938   8.988
  916POPC   C1A15315  23.013   0.397   8.867
  916POPC   D2A15316  23.088   0.458   8.413
  916POPC   C3A15317  22.983   0.261   8.011
  916POPC   C4A15318  23.065   0.443   7.596
  916POPC   C1B15319  22.726   0.775   8.758
  916POPC   C2B15320  22.627   0.698   8.317
  916POPC   C3B15321  22.845   0.785   7.931
  916POPC   C4B15322  22.663   0.731   7.521
  917POPC   NC315323  21.357  31.565   9.571
  917POPC   PO415324  21.989  31.575   9.603
  917POPC   GL115325  21.712  31.435   9.174
  917POPC   GL215326  21.307  31.329   9.114
  917POPC   C1A15327  21.553  31.501   8.701
  917POPC   D2A15328  21.158  31.452   8.414
  917POPC   C3A15329  21.228  31.521   7.959
  917POPC   C4A15330  21.454  31.525   7.548
  917POPC   C1B15331  21.382  31.038   8.753
  917POPC   C2B15332  21.522  31.070   8.294
  917POPC   C3B15333  21.357  31.043   7.862
  917POPC   C4B15334  21.066  31.193   7.557
  918POPC   NC315335  22.360  22.546   9.406
  918POPC   PO415336  21.769  22.896   9.229
  918POPC   GL115337  22.160  22.864   9.056
  918POPC   GL215338  22.369  23.074   9.264
  918POPC   C1A15339  22.258  22.781   8.626
  918POPC   D2A15340  22.000  22.956   8.308
  918POPC   C3A15341  21.990  22.748   7.935
  918POPC   C4A15342  21.905  22.912   7.534
  918POPC   C1B15343  22.449  23.202   8.824
  918POPC   C2B15344  22.402  23.357   8.388
  918POPC   C3B15345  22.356  23.146   7.988
  918POPC   C4B15346  22.490  22.786   7.774
  919POPC   NC315347  31.902  37.831   9.507
  919POPC   PO415348  32.461  37.555   9.560
  919POPC   GL115349  32.567  37.703   9.156
  919POPC   GL215350  32.637  37.380   9.105
  919POPC   C1A15351  32.460  37.823   8.696
  919POPC   D2A15352  32.081  37.781   8.399
  919POPC   C3A15353  32.006  37.817   7.923
  919POPC   C4A15354  32.050  38.075   7.541
  919POPC   C1B15355  32.350  37.326   8.792
  919POPC   C2B15356  32.438  37.401   8.378
  919POPC   C3B15357  32.495  37.708   8.079
  919POPC   C4B15358  32.486  37.786   7.673
  920POPC   NC315359  39.030  21.219   9.580
  920POPC   PO415360  39.578  21.622   9.552
  920POPC   GL115361  39.393  21.338   9.213
  920POPC   GL215362  39.024  21.330   9.086
  920POPC   C1A15363  39.410  21.468   8.774
  920POPC   D2A15364  39.150  21.619   8.423
  920POPC   C3A15365  39.264  21.415   8.078
  920POPC   C4A15366  39.337  21.298   7.683
  920POPC   C1B15367  38.848  21.274   8.652
  920POPC   C2B15368  38.837  21.166   8.209
  920POPC   C3B15369  38.835  21.333   7.787
  920POPC   C4B15370  38.798  21.532   7.358
  921POPC   NC315371   9.310   0.978   9.557
  921POPC   PO415372   8.802   1.356   9.586
  921POPC   GL115373   8.924   1.125   9.198
  921POPC   GL215374   8.950   0.766   9.256
  921POPC   C1A15375   8.760   1.202   8.771
  921POPC   D2A15376   8.896   1.357   8.370
  921POPC   C3A15377   8.710   1.355   7.959
  921POPC   C4A15378   9.118   1.475   7.790
  921POPC   C1B15379   8.878   0.722   8.817
  921POPC   C2B15380   8.790   0.849   8.372
  921POPC   C3B15381   9.062   0.985   8.016
  921POPC   C4B15382   8.923   1.022   7.594
  922POPC   NC315383  30.570  37.055   9.469
  922POPC   PO415384  31.071  36.834   9.732
  922POPC   GL115385  30.850  36.672   9.308
  922POPC   GL215386  30.964  36.961   9.135
  922POPC   C1A15387  30.665  36.679   8.833
  922POPC   D2A15388  30.880  36.669   8.386
  922POPC   C3A15389  30.721  36.795   7.975
  922POPC   C4A15390  30.491  36.616   7.630
  922POPC   C1B15391  30.953  37.088   8.697
  922POPC   C2B15392  30.934  37.199   8.253
  922POPC   C3B15393  31.105  37.107   7.831
  922POPC   C4B15394  30.858  37.113   7.456
  923POPC   NC315395  43.196  15.434   9.494
  923POPC   PO415396  42.833  14.806   9.463
  923POPC   GL115397  43.183  14.958   9.117
  923POPC   GL215398  43.416  15.267   9.087
  923POPC   C1A15399  43.181  15.122   8.680
  923POPC   D2A15400  43.020  15.250   8.314
  923POPC   C3A15401  43.257  15.141   8.016
  923POPC   C4A15402  43.111  15.174   7.642
  923POPC   C1B15403  43.637  15.368   8.734
  923POPC   C2B15404  43.466  15.502   8.345
  923POPC   C3B15405  43.694  15.403   7.975
  923POPC   C4B15406  43.601  15.241   7.621
  924POPC   NC315407   7.463  10.126   9.475
  924POPC   PO415408   7.354  10.782   9.508
  924POPC   GL115409   7.280  10.495   9.189
  924POPC   GL215410   7.615  10.503   9.154
  924POPC   C1A15411   7.223  10.483   8.757
  924POPC   D2A15412   7.462  10.494   8.369
  924POPC   C3A15413   7.322  10.429   7.927
  924POPC   C4A15414   7.415  10.734   7.602
  924POPC   C1B15415   7.714  10.277   8.801
  924POPC   C2B15416   7.903  10.240   8.410
  924POPC   C3B15417   7.842  10.417   8.007
  924POPC   C4B15418   7.765  10.370   7.580
  925POPC   NC315419  13.351  13.077   9.686
  925POPC   PO415420  12.696  12.876   9.706
  925POPC   GL115421  12.888  12.861   9.245
  925POPC   GL215422  12.950  12.528   9.092
  925POPC   C1A15423  12.891  13.049   8.790
  925POPC   D2A15424  13.072  13.239   8.380
  925POPC   C3A15425  13.225  12.909   8.130
  925POPC   C4A15426  13.187  12.806   7.698
  925POPC   C1B15427  12.885  12.569   8.648
  925POPC   C2B15428  12.752  12.821   8.319
  925POPC   C3B15429  12.679  12.721   7.900
  925POPC   C4B15430  12.727  12.753   7.461
  926POPC   NC315431  24.923  35.074   9.544
  926POPC   PO415432  25.410  34.627   9.571
  926POPC   GL115433  25.263  34.576   9.177
  926POPC   GL215434  25.493  34.337   9.055
  926POPC   C1A15435  25.099  34.669   8.770
  926POPC   D2A15436  24.995  34.547   8.347
  926POPC   C3A15437  25.363  34.535   8.037
  926POPC   C4A15438  25.520  34.793   7.691
  926POPC   C1B15439  25.174  34.147   8.764
  926POPC   C2B15440  25.236  34.090   8.314
  926POPC   C3B15441  24.979  34.201   7.960
  926POPC   C4B15442  24.902  34.469   7.611
  927POPC   NC315443  35.157  26.795   9.565
  927POPC   PO415444  35.689  27.186   9.552
  927POPC   GL115445  35.443  27.002   9.193
  927POPC   GL215446  35.051  26.981   9.120
  927POPC   C1A15447  35.529  26.658   8.949
  927POPC   D2A15448  35.561  26.675   8.535
  927POPC   C3A15449  35.432  26.991   8.225
  927POPC   C4A15450  35.415  26.827   7.797
  927POPC   C1B15451  35.066  26.681   8.773
  927POPC   C2B15452  35.092  26.617   8.316
  927POPC   C3B15453  34.924  26.700   7.894
  927POPC   C4B15454  34.977  26.948   7.502
  928POPC   NC315455  37.257  35.429   9.604
  928POPC   PO415456  37.824  35.012   9.577
  928POPC   GL115457  37.610  35.266   9.254
  928POPC   GL215458  37.436  34.966   9.169
  928POPC   C1A15459  37.641  35.536   8.841
  928POPC   D2A15460  37.881  35.712   8.481
  928POPC   C3A15461  37.723  35.613   8.033
  928POPC   C4A15462  37.856  35.545   7.590
  928POPC   C1B15463  37.691  35.026   8.794
  928POPC   C2B15464  37.645  35.238   8.399
  928POPC   C3B15465  37.717  35.107   7.969
  928POPC   C4B15466  37.819  35.049   7.548
  929POPC   NC315467  15.783  14.371   9.641
  929POPC   PO415468  16.357  14.675   9.448
  929POPC   GL115469  16.022  14.375   9.197
  929POPC   GL215470  15.839  14.576   8.982
  929POPC   C1A15471  15.841  14.085   8.834
  929POPC   D2A15472  15.683  14.091   8.382
  929POPC   C3A15473  15.958  13.979   7.995
  929POPC   C4A15474  15.953  14.093   7.531
  929POPC   C1B15475  16.210  14.436   8.738
  929POPC   C2B15476  16.141  14.312   8.344
  929POPC   C3B15477  16.006  14.463   7.951
  929POPC   C4B15478  16.203  14.532   7.560
  930POPC   NC315479  40.946  22.700   9.385
  930POPC   PO415480  40.624  23.278   9.520
  930POPC   GL115481  40.645  23.054   9.107
  930POPC   GL215482  40.404  22.797   9.169
  930POPC   C1A15483  40.859  22.944   8.681
  930POPC   D2A15484  41.100  23.014   8.295
  930POPC   C3A15485  40.776  23.116   8.017
  930POPC   C4A15486  40.540  22.810   7.818
  930POPC   C1B15487  40.521  22.600   8.789
  930POPC   C2B15488  40.444  22.591   8.316
  930POPC   C3B15489  40.372  22.348   7.908
  930POPC   C4B15490  40.392  22.452   7.427
  931POPC   NC315491  33.373   1.594   9.449
  931POPC   PO415492  32.758   1.928   9.525
  931POPC   GL115493  32.758   2.001   9.148
  931POPC   GL215494  33.111   1.939   9.104
  931POPC   C1A15495  32.581   1.935   8.783
  931POPC   D2A15496  32.690   2.151   8.465
  931POPC   C3A15497  32.675   2.026   8.053
  931POPC   C4A15498  32.912   2.064   7.696
  931POPC   C1B15499  33.150   2.166   8.708
  931POPC   C2B15500  33.164   2.054   8.269
  931POPC   C3B15501  33.373   1.967   7.888
  931POPC   C4B15502  33.590   1.584   7.805
  932POPC   NC315503  38.691  24.302   9.738
  932POPC   PO415504  38.390  24.937   9.680
  932POPC   GL115505  38.473  24.647   9.298
  932POPC   GL215506  38.216  24.462   9.256
  932POPC   C1A15507  38.313  24.723   8.826
  932POPC   D2A15508  38.448  24.538   8.462
  932POPC   C3A15509  38.287  24.525   8.079
  932POPC   C4A15510  38.542  24.527   7.763
  932POPC   C1B15511  38.523  24.275   8.901
  932POPC   C2B15512  38.424  24.033   8.478
  932POPC   C3B15513  38.222  24.007   8.044
  932POPC   C4B15514  38.119  24.266   7.674
  933POPC   NC315515  31.850  30.294   9.646
  933POPC   PO415516  31.380  29.762   9.577
  933POPC   GL115517  31.332  29.920   9.197
  933POPC   GL215518  31.649  30.064   9.199
  933POPC   C1A15519  31.404  29.801   8.784
  933POPC   D2A15520  31.342  29.985   8.371
  933POPC   C3A15521  31.481  29.793   8.006
  933POPC   C4A15522  31.424  29.831   7.563
  933POPC   C1B15523  31.742  30.226   8.803
  933POPC   C2B15524  31.723  30.379   8.407
  933POPC   C3B15525  31.611  30.295   7.990
  933POPC   C4B15526  31.754  30.482   7.642
  934POPC   NC315527   7.595  35.887   9.745
  934POPC   PO415528   6.963  36.001   9.463
  934POPC   GL115529   7.343  36.123   9.212
  934POPC   GL215530   7.572  35.840   9.107
  934POPC   C1A15531   7.482  36.316   8.826
  934POPC   D2A15532   7.320  36.252   8.420
  934POPC   C3A15533   7.446  36.343   8.005
  934POPC   C4A15534   7.283  36.154   7.661
  934POPC   C1B15535   7.484  35.825   8.646
  934POPC   C2B15536   7.430  35.778   8.175
  934POPC   C3B15537   7.689  35.896   7.808
  934POPC   C4B15538   7.615  35.812   7.342
  935POPC   NC315539  36.539   5.163   9.393
  935POPC   PO415540  36.008   4.714   9.399
  935POPC   GL115541  36.118   4.990   9.098
  935POPC   GL215542  36.102   5.341   9.236
  935POPC   C1A15543  36.351   5.033   8.723
  935POPC   D2A15544  36.539   5.006   8.296
  935POPC   C3A15545  36.288   5.061   7.922
  935POPC   C4A15546  36.287   5.017   7.464
  935POPC   C1B15547  36.007   5.412   8.813
  935POPC   C2B15548  36.179   5.414   8.397
  935POPC   C3B15549  36.308   5.686   8.057
  935POPC   C4B15550  36.327   5.509   7.635
  936POPC   NC315551  34.946  23.595   9.486
  936POPC   PO415552  35.598  23.831   9.406
  936POPC   GL115553  35.369  23.668   9.119
  936POPC   GL215554  35.122  23.897   9.104
  936POPC   C1A15555  35.297  23.475   8.717
  936POPC   D2A15556  35.457  23.404   8.309
  936POPC   C3A15557  35.196  23.331   7.941
  936POPC   C4A15558  35.343  23.553   7.576
  936POPC   C1B15559  35.311  23.980   8.720
  936POPC   C2B15560  35.153  23.836   8.366
  936POPC   C3B15561  35.241  23.844   7.974
  936POPC   C4B15562  35.026  24.025   7.653
  937POPC   NC315563  33.712  16.243   9.700
  937POPC   PO415564  33.929  16.935   9.522
  937POPC   GL115565  33.958  16.820   9.081
  937POPC   GL215566  34.130  16.503   9.067
  937POPC   C1A15567  33.964  16.890   8.607
  937POPC   D2A15568  33.681  16.669   8.275
  937POPC   C3A15569  33.492  16.906   7.952
  937POPC   C4A15570  33.712  16.782   7.615
  937POPC   C1B15571  33.852  16.421   8.726
  937POPC   C2B15572  34.105  16.411   8.358
  937POPC   C3B15573  34.103  16.610   7.962
  937POPC   C4B15574  34.010  16.386   7.627
  938POPC   NC315575  31.822  32.279   9.906
  938POPC   PO415576  31.304  32.194   9.541
  938POPC   GL115577  31.312  32.143   9.096
  938POPC   GL215578  31.664  32.047   9.023
  938POPC   C1A15579  31.118  31.927   8.722
  938POPC   D2A15580  31.168  31.882   8.298
  938POPC   C3A15581  31.344  32.197   8.115
  938POPC   C4A15582  31.549  32.320   7.787
  938POPC   C1B15583  31.542  32.198   8.597
  938POPC   C2B15584  31.815  32.310   8.287
  938POPC   C3B15585  32.002  32.150   7.992
  938POPC   C4B15586  31.875  31.952   7.639
  939POPC   NC315587  36.141  40.932   9.695
  939POPC   PO415588  35.996  41.570   9.538
  939POPC   GL115589  35.948  41.627   9.099
  939POPC   GL215590  35.816  41.330   8.968
  939POPC   C1A15591  35.981  41.806   8.687
  939POPC   D2A15592  36.106  41.649   8.285
  939POPC   C3A15593  36.123  41.843   7.886
  939POPC   C4A15594  35.859  41.688   7.545
  939POPC   C1B15595  35.994  41.078   8.663
  939POPC   C2B15596  35.957  41.124   8.235
  939POPC   C3B15597  36.079  41.329   7.873
  939POPC   C4B15598  36.312  41.466   7.538
  940POPC   NC315599  38.278  10.185   9.449
  940POPC   PO415600  37.879  10.682   9.608
  940POPC   GL115601  38.172  10.624   9.227
  940POPC   GL215602  38.521  10.615   9.143
  940POPC   C1A15603  38.151  10.496   8.798
  940POPC   D2A15604  38.110  10.683   8.379
  940POPC   C3A15605  38.386  10.548   8.070
  940POPC   C4A15606  38.275  10.431   7.658
  940POPC   C1B15607  38.717  10.541   8.747
  940POPC   C2B15608  38.914  10.602   8.364
  940POPC   C3B15609  38.897  10.451   7.969
  940POPC   C4B15610  38.761  10.787   7.779
  941POPC   NC315611  39.088  18.587   9.493
  941POPC   PO415612  39.048  19.203   9.631
  941POPC   GL115613  39.144  19.032   9.211
  941POPC   GL215614  38.839  19.172   9.121
  941POPC   C1A15615  39.341  18.942   8.793
  941POPC   D2A15616  39.339  18.702   8.404
  941POPC   C3A15617  39.234  18.897   8.033
  941POPC   C4A15618  39.485  19.047   7.752
  941POPC   C1B15619  39.031  19.354   8.753
  941POPC   C2B15620  39.114  19.275   8.347
  941POPC   C3B15621  39.171  19.415   7.921
  941POPC   C4B15622  39.217  19.351   7.451
  942POPC   NC315623  13.620  31.432   9.684
  942POPC   PO415624  13.977  31.120   9.208
  942POPC   GL115625  13.741  31.308   8.990
  942POPC   GL215626  13.620  31.565   9.200
  942POPC   C1A15627  13.865  31.344   8.591
  942POPC   D2A15628  13.620  31.280   8.274
  942POPC   C3A15629  13.856  31.201   7.910
  942POPC   C4A15630  13.556  31.460   7.740
  942POPC   C1B15631  13.582  31.736   8.807
  942POPC   C2B15632  13.478  31.768   8.403
  942POPC   C3B15633  13.307  31.804   8.012
  942POPC   C4B15634  13.613  31.964   7.676
  943POPC   NC315635  32.965   6.081   9.351
  943POPC   PO415636  32.735   6.624   9.618
  943POPC   GL115637  32.926   6.642   9.169
  943POPC   GL215638  32.875   6.361   8.968
  943POPC   C1A15639  33.093   6.770   8.743
  943POPC   D2A15640  32.981   6.931   8.323
  943POPC   C3A15641  33.105   6.644   8.014
  943POPC   C4A15642  33.035   6.642   7.588
  943POPC   C1B15643  33.136   6.195   8.698
  943POPC   C2B15644  33.096   6.129   8.281
  943POPC   C3B15645  32.778   6.098   8.050
  943POPC   C4B15646  32.790   6.213   7.681
  944POPC   NC315647  15.771   3.495   9.569
  944POPC   PO415648  16.388   3.777   9.624
  944POPC   GL115649  16.207   3.478   9.221
  944POPC   GL215650  15.856   3.383   9.090
  944POPC   C1A15651  16.228   3.387   8.751
  944POPC   D2A15652  16.313   3.600   8.350
  944POPC   C3A15653  16.251   3.575   7.878
  944POPC   C4A15654  16.405   3.447   7.425
  944POPC   C1B15655  15.604   3.358   8.716
  944POPC   C2B15656  15.728   3.396   8.266
  944POPC   C3B15657  15.659   3.579   7.833
  944POPC   C4B15658  15.464   3.567   7.374
  945POPC   NC315659  11.553  32.699   9.445
  945POPC   PO415660  10.860  32.667   9.465
  945POPC   GL115661  11.133  32.431   9.188
  945POPC   GL215662  11.266  32.697   8.986
  945POPC   C1A15663  11.238  32.180   8.794
  945POPC   D2A15664  11.049  32.347   8.400
  945POPC   C3A15665  11.091  32.112   8.020
  945POPC   C4A15666  11.403  31.925   7.791
  945POPC   C1B15667  11.620  32.497   8.751
  945POPC   C2B15668  11.602  32.213   8.368
  945POPC   C3B15669  11.739  32.289   7.947
  945POPC   C4B15670  11.621  32.266   7.493
  946POPC   NC315671  36.576  33.026   9.441
  946POPC   PO415672  37.230  32.677   9.594
  946POPC   GL115673  37.033  32.833   9.201
  946POPC   GL215674  36.742  32.676   9.078
  946POPC   C1A15675  37.091  33.071   8.806
  946POPC   D2A15676  37.200  32.943   8.352
  946POPC   C3A15677  37.070  33.183   7.986
  946POPC   C4A15678  36.629  33.323   7.844
  946POPC   C1B15679  36.708  32.795   8.628
  946POPC   C2B15680  36.649  32.950   8.214
  946POPC   C3B15681  36.759  32.837   7.795
  946POPC   C4B15682  37.197  32.717   7.761
  947POPC   NC315683  12.526   0.820   9.460
  947POPC   PO415684  12.857   0.183   9.522
  947POPC   GL115685  12.683   0.338   9.163
  947POPC   GL215686  12.882   0.604   9.150
  947POPC   C1A15687  12.639   0.475   8.717
  947POPC   D2A15688  12.824   0.619   8.324
  947POPC   C3A15689  12.723   0.429   7.939
  947POPC   C4A15690  12.948   0.525   7.576
  947POPC   C1B15691  13.129   0.353   8.838
  947POPC   C2B15692  13.188   0.036   8.483
  947POPC   C3B15693  13.110   0.129   8.027
  947POPC   C4B15694  13.269   0.137   7.590
  948POPC   NC315695  11.102  27.383   9.314
  948POPC   PO415696  11.496  27.944   9.391
  948POPC   GL115697  11.361  27.735   9.038
  948POPC   GL215698  11.536  27.435   9.049
  948POPC   C1A15699  11.038  27.618   8.716
  948POPC   D2A15700  10.876  27.416   8.329
  948POPC   C3A15701  10.999  27.609   7.951
  948POPC   C4A15702  11.301  27.709   7.630
  948POPC   C1B15703  11.439  27.325   8.660
  948POPC   C2B15704  11.395  27.551   8.306
  948POPC   C3B15705  11.446  27.338   7.956
  948POPC   C4B15706  11.700  27.324   7.643
  949POPC   NC315707  44.087  12.279   9.475
  949POPC   PO415708  43.708  11.624   9.520
  949POPC   GL115709  43.903  11.899   9.153
  949POPC   GL215710  43.737  12.275   9.089
  949POPC   C1A15711  43.900  12.015   8.699
  949POPC   D2A15712  43.637  12.182   8.367
  949POPC   C3A15713  43.734  12.045   7.955
  949POPC   C4A15714  43.985  11.738   7.767
  949POPC   C1B15715  43.889  12.516   8.691
  949POPC   C2B15716  43.974  12.531   8.219
  949POPC   C3B15717  43.784  12.534   7.790
  949POPC   C4B15718  43.786  12.631   7.321
  950POPC   NC315719   5.197  29.018   9.681
  950POPC   PO415720   4.616  29.219   9.559
  950POPC   GL115721   4.960  29.330   9.314
  950POPC   GL215722   5.126  29.027   9.170
  950POPC   C1A15723   4.933  29.427   8.888
  950POPC   D2A15724   4.861  29.188   8.500
  950POPC   C3A15725   5.011  29.292   8.092
  950POPC   C4A15726   4.896  29.050   7.741
  950POPC   C1B15727   5.306  29.120   8.764
  950POPC   C2B15728   5.385  29.447   8.440
  950POPC   C3B15729   5.544  29.345   8.040
  950POPC   C4B15730   5.437  28.960   7.857
  951POPC   NC315731   0.179   5.461   9.453
  951POPC   PO415732   0.642   5.904   9.769
  951POPC   GL115733   0.470   5.886   9.299
  951POPC   GL215734   0.636   5.568   9.207
  951POPC   C1A15735   0.204   5.855   8.867
  951POPC   D2A15736   0.178   6.037   8.405
  951POPC   C3A15737   0.122   5.803   7.992
  951POPC   C4A15738   0.303   5.903   7.561
  951POPC   C1B15739   0.677   5.665   8.772
  951POPC   C2B15740   0.489   5.630   8.400
  951POPC   C3B15741   0.630   5.730   8.011
  951POPC   C4B15742   0.885   5.597   7.715
  952POPC   NC315743  34.524  31.622   9.556
  952POPC   PO415744  34.514  30.969   9.553
  952POPC   GL115745  34.458  31.206   9.188
  952POPC   GL215746  34.819  31.241   9.139
  952POPC   C1A15747  34.470  31.216   8.721
  952POPC   D2A15748  34.721  31.231   8.298
  952POPC   C3A15749  34.483  31.362   7.918
  952POPC   C4A15750  34.472  31.774   7.720
  952POPC   C1B15751  34.803  31.650   8.912
  952POPC   C2B15752  34.945  31.880   8.542
  952POPC   C3B15753  34.845  31.753   8.119
  952POPC   C4B15754  34.979  31.924   7.744
  953POPC   NC315755  43.339  25.833   9.404
  953POPC   PO415756  42.621  25.679   9.411
  953POPC   GL115757  42.864  25.939   9.105
  953POPC   GL215758  43.138  26.197   9.088
  953POPC   C1A15759  42.966  25.973   8.677
  953POPC   D2A15760  43.065  25.766   8.351
  953POPC   C3A15761  42.956  25.984   8.028
  953POPC   C4A15762  43.062  25.740   7.689
  953POPC   C1B15763  43.455  26.009   8.787
  953POPC   C2B15764  43.511  26.022   8.368
  953POPC   C3B15765  43.459  25.925   7.957
  953POPC   C4B15766  43.252  26.232   7.666
  954POPC   NC315767  10.777  41.316   9.797
  954POPC   PO415768  10.514  40.798   9.448
  954POPC   GL115769  10.309  40.966   9.111
  954POPC   GL215770  10.294  40.629   9.024
  954POPC   C1A15771  10.386  40.996   8.672
  954POPC   D2A15772  10.338  41.110   8.263
  954POPC   C3A15773  10.621  41.015   7.927
  954POPC   C4A15774  10.776  41.034   7.502
  954POPC   C1B15775  10.608  40.514   8.735
  954POPC   C2B15776  10.753  40.635   8.345
  954POPC   C3B15777  10.746  40.502   7.929
  954POPC   C4B15778  10.493  40.624   7.600
  955POPC   NC315779   0.065  42.395   9.631
  955POPC   PO415780  44.434  42.272   9.570
  955POPC   GL115781  44.634  42.450   9.267
  955POPC   GL215782  44.665  42.121   9.110
  955POPC   C1A15783  44.521  42.609   8.885
  955POPC   D2A15784  44.707  42.765   8.508
  955POPC   C3A15785  44.686  42.498   8.160
  955POPC   C4A15786  44.377  42.563   7.881
  955POPC   C1B15787  44.648  42.147   8.657
  955POPC   C2B15788  44.342  41.964   8.367
  955POPC   C3B15789  44.393  42.021   7.916
  955POPC   C4B15790  44.753  42.147   7.695
  956POPC   NC315791  42.220  28.144   9.326
  956POPC   PO415792  42.108  27.490   9.452
  956POPC   GL115793  42.380  27.568   9.118
  956POPC   GL215794  42.429  27.239   9.001
  956POPC   C1A15795  42.352  27.690   8.686
  956POPC   D2A15796  42.385  27.892   8.278
  956POPC   C3A15797  42.149  27.690   7.947
  956POPC   C4A15798  42.323  27.651   7.523
  956POPC   C1B15799  42.649  27.280   8.609
  956POPC   C2B15800  42.457  27.360   8.229
  956POPC   C3B15801  42.433  27.241   7.804
  956POPC   C4B15802  42.405  27.192   7.335
  957POPC   NC315803   3.466  43.048   9.565
  957POPC   PO415804   4.124  42.928   9.567
  957POPC   GL115805   3.849  43.122   9.192
  957POPC   GL215806   3.590  42.911   9.114
  957POPC   C1A15807   3.577  43.295   8.796
  957POPC   D2A15808   3.293  43.306   8.445
  957POPC   C3A15809   3.317  43.538   8.038
  957POPC   C4A15810   3.576  43.448   7.666
  957POPC   C1B15811   3.739  42.799   8.743
  957POPC   C2B15812   3.500  42.829   8.374
  957POPC   C3B15813   3.536  43.056   8.018
  957POPC   C4B15814   3.462  42.880   7.626
  958POPC   NC315815   1.364  33.851   9.523
  958POPC   PO415816   0.911  33.361   9.409
  958POPC   GL115817   1.175  33.557   9.099
  958POPC   GL215818   1.270  33.929   9.037
  958POPC   C1A15819   1.040  33.627   8.688
  958POPC   D2A15820   1.105  33.775   8.284
  958POPC   C3A15821   1.396  33.583   8.085
  958POPC   C4A15822   1.342  33.440   7.702
  958POPC   C1B15823   1.118  34.139   8.666
  958POPC   C2B15824   1.366  34.215   8.287
  958POPC   C3B15825   1.390  34.049   7.870
  958POPC   C4B15826   1.188  33.891   7.482
  959POPC   NC315827  12.431  41.834   9.469
  959POPC   PO415828  12.001  41.343   9.464
  959POPC   GL115829  12.100  41.554   9.101
  959POPC   GL215830  12.042  41.889   9.163
  959POPC   C1A15831  11.912  41.675   8.697
  959POPC   D2A15832  11.681  41.572   8.337
  959POPC   C3A15833  11.810  41.677   7.921
  959POPC   C4A15834  12.094  41.375   7.786
  959POPC   C1B15835  12.350  41.935   8.821
  959POPC   C2B15836  12.227  41.973   8.408
  959POPC   C3B15837  12.326  41.784   8.043
  959POPC   C4B15838  12.251  41.831   7.639
  960POPC   NC315839  13.134  19.363   9.539
  960POPC   PO415840  12.671  18.884   9.491
  960POPC   GL115841  12.848  19.000   9.125
  960POPC   GL215842  13.147  19.173   9.085
  960POPC   C1A15843  12.651  18.940   8.738
  960POPC   D2A15844  12.418  19.173   8.415
  960POPC   C3A15845  12.532  19.060   8.007
  960POPC   C4A15846  12.545  19.022   7.577
  960POPC   C1B15847  13.152  19.006   8.706
  960POPC   C2B15848  12.930  19.078   8.339
  960POPC   C3B15849  13.035  19.119   7.934
  960POPC   C4B15850  13.274  18.964   7.681
  961POPC   NC315851  10.815  17.874   9.374
  961POPC   PO415852  10.503  17.280   9.627
  961POPC   GL115853  10.499  17.471   9.196
  961POPC   GL215854  10.287  17.297   9.007
  961POPC   C1A15855  10.644  17.576   8.770
  961POPC   D2A15856  10.528  17.550   8.302
  961POPC   C3A15857  10.864  17.587   8.004
  961POPC   C4A15858  10.816  17.927   7.717
  961POPC   C1B15859  10.364  17.112   8.655
  961POPC   C2B15860  10.288  17.112   8.238
  961POPC   C3B15861  10.481  17.201   7.826
  961POPC   C4B15862  10.320  17.361   7.423
  962POPC   NC315863  30.371  14.665   9.444
  962POPC   PO415864  29.826  14.212   9.523
  962POPC   GL115865  29.841  14.380   9.152
  962POPC   GL215866  30.182  14.339   9.101
  962POPC   C1A15867  29.768  14.246   8.763
  962POPC   D2A15868  29.899  14.436   8.419
  962POPC   C3A15869  29.801  14.230   8.093
  962POPC   C4A15870  29.722  14.435   7.736
  962POPC   C1B15871  30.194  14.648   8.794
  962POPC   C2B15872  30.394  14.597   8.397
  962POPC   C3B15873  30.210  14.532   8.005
  962POPC   C4B15874  30.056  14.835   7.698
  963POPC   NC315875  16.464  14.220   9.398
  963POPC   PO415876  17.090  14.404   9.542
  963POPC   GL115877  16.944  14.207   9.178
  963POPC   GL215878  17.145  13.925   9.203
  963POPC   C1A15879  16.725  14.274   8.771
  963POPC   D2A15880  16.614  14.532   8.400
  963POPC   C3A15881  16.519  14.360   7.988
  963POPC   C4A15882  16.671  14.658   7.682
  963POPC   C1B15883  17.232  14.044   8.787
  963POPC   C2B15884  17.079  14.244   8.395
  963POPC   C3B15885  17.017  14.456   8.004
  963POPC   C4B15886  17.042  14.309   7.599
  964POPC   NC315887  41.176  20.548   9.223
  964POPC   PO415888  41.647  20.867   9.637
  964POPC   GL115889  41.641  20.788   9.161
  964POPC   GL215890  41.651  20.433   9.084
  964POPC   C1A15891  41.526  20.710   8.678
  964POPC   D2A15892  41.337  20.816   8.281
  964POPC   C3A15893  41.574  20.667   7.977
  964POPC   C4A15894  41.820  20.854   7.730
  964POPC   C1B15895  41.771  20.262   8.698
  964POPC   C2B15896  41.732  20.292   8.269
  964POPC   C3B15897  41.860  20.182   7.812
  964POPC   C4B15898  41.793  20.052   7.313
  965POPC   NC315899  39.412  23.610   9.440
  965POPC   PO415900  39.018  24.197   9.438
  965POPC   GL115901  39.134  23.943   9.113
  965POPC   GL215902  38.981  23.626   9.162
  965POPC   C1A15903  39.333  23.778   8.759
  965POPC   D2A15904  39.345  23.615   8.343
  965POPC   C3A15905  39.130  23.886   8.061
  965POPC   C4A15906  39.322  24.221   7.837
  965POPC   C1B15907  39.036  23.344   8.810
  965POPC   C2B15908  39.104  23.169   8.405
  965POPC   C3B15909  39.026  23.365   8.016
  965POPC   C4B15910  38.926  23.610   7.649
  966POPC   NC315911   4.434  38.722   9.498
  966POPC   PO415912   4.201  38.033   9.452
  966POPC   GL115913   4.144  38.270   9.082
  966POPC   GL215914   4.492  38.365   9.110
  966POPC   C1A15915   4.251  38.380   8.627
  966POPC   D2A15916   4.346  38.484   8.174
  966POPC   C3A15917   4.063  38.303   7.824
  966POPC   C4A15918   3.993  38.407   7.354
  966POPC   C1B15919   4.751  38.405   8.736
  966POPC   C2B15920   4.756  38.216   8.310
  966POPC   C3B15921   4.776  38.430   7.898
  966POPC   C4B15922   4.455  38.567   7.622
  967POPC   NC315923  40.766  14.607   9.384
  967POPC   PO415924  41.364  14.693   9.624
  967POPC   GL115925  41.216  14.578   9.149
  967POPC   GL215926  40.996  14.263   9.083
  967POPC   C1A15927  40.988  14.621   8.710
  967POPC   D2A15928  40.607  14.490   8.440
  967POPC   C3A15929  40.628  14.477   7.969
  967POPC   C4A15930  40.562  14.511   7.514
  967POPC   C1B15931  40.878  14.095   8.674
  967POPC   C2B15932  41.001  14.216   8.246
  967POPC   C3B15933  40.942  14.094   7.815
  967POPC   C4B15934  40.823  14.080   7.364
  968POPC   NC315935  30.044  11.305   9.623
  968POPC   PO415936  29.616  11.873   9.450
  968POPC   GL115937  29.711  11.532   9.151
  968POPC   GL215938  30.070  11.392   9.134
  968POPC   C1A15939  29.767  11.565   8.681
  968POPC   D2A15940  29.822  11.717   8.240
  968POPC   C3A15941  29.904  11.340   7.969
  968POPC   C4A15942  29.748  10.970   7.804
  968POPC   C1B15943  30.292  11.501   8.795
  968POPC   C2B15944  30.230  11.417   8.394
  968POPC   C3B15945  30.293  11.641   8.047
  968POPC   C4B15946  30.129  11.667   7.641
  969POPC   NC315947  39.610   9.416   9.529
  969POPC   PO415948  40.224   9.916   9.527
  969POPC   GL115949  40.193   9.727   9.095
  969POPC   GL215950  39.910   9.461   9.098
  969POPC   C1A15951  40.220   9.928   8.665
  969POPC   D2A15952  40.327  10.149   8.269
  969POPC   C3A15953  40.154   9.885   7.921
  969POPC   C4A15954  39.833   9.561   7.842
  969POPC   C1B15955  39.782   9.702   8.722
  969POPC   C2B15956  39.737   9.933   8.318
  969POPC   C3B15957  39.491   9.926   7.937
  969POPC   C4B15958  39.279   9.566   7.806
  970POPC   NC315959   2.864   1.865   9.436
  970POPC   PO415960   2.343   2.148   9.605
  970POPC   GL115961   2.513   2.129   9.185
  970POPC   GL215962   2.803   2.328   9.189
  970POPC   C1A15963   2.449   1.793   8.850
  970POPC   D2A15964   2.401   1.598   8.430
  970POPC   C3A15965   2.716   1.649   8.103
  970POPC   C4A15966   2.693   1.825   7.684
  970POPC   C1B15967   2.827   2.125   8.772
  970POPC   C2B15968   2.588   2.086   8.394
  970POPC   C3B15969   2.630   2.249   7.954
  970POPC   C4B15970   3.029   2.284   7.768
  971POPC   NC315971  27.188  13.960   9.468
  971POPC   PO415972  26.716  13.411   9.542
  971POPC   GL115973  26.854  13.657   9.216
  971POPC   GL215974  26.527  13.762   9.144
  971POPC   C1A15975  27.063  13.661   8.823
  971POPC   D2A15976  26.870  13.721   8.479
  971POPC   C3A15977  26.939  13.694   8.043
  971POPC   C4A15978  26.648  13.780   7.780
  971POPC   C1B15979  26.565  13.456   8.791
  971POPC   C2B15980  26.454  13.502   8.322
  971POPC   C3B15981  26.563  13.310   7.931
  971POPC   C4B15982  26.336  13.295   7.528
  972POPC   NC315983   7.500   0.957   9.585
  972POPC   PO415984   7.301   1.554   9.429
  972POPC   GL115985   7.396   1.203   9.134
  972POPC   GL215986   7.194   0.910   9.161
  972POPC   C1A15987   7.178   1.153   8.721
  972POPC   D2A15988   7.192   1.382   8.332
  972POPC   C3A15989   7.301   1.180   7.942
  972POPC   C4A15990   7.738   1.121   7.876
  972POPC   C1B15991   7.181   0.626   8.799
  972POPC   C2B15992   6.994   0.696   8.403
  972POPC   C3B15993   6.920   0.723   7.979
  972POPC   C4B15994   7.082   0.851   7.569
  973POPC   NC315995  30.069   1.797   9.591
  973POPC   PO415996  29.743   2.362   9.539
  973POPC   GL115997  29.748   1.950   9.249
  973POPC   GL215998  30.124   1.917   9.110
  973POPC   C1A15999  29.745   1.844   8.787
  973POPC   D2A16000  29.714   1.781   8.294
  973POPC   C3A16001  29.939   1.983   7.909
  973POPC   C4A16002  29.842   2.118   7.459
  973POPC   C1B16003  30.266   1.609   8.788
  973POPC   C2B16004  30.198   1.612   8.309
  973POPC   C3B16005  30.364   1.704   7.849
  973POPC   C4B16006  30.285   1.691   7.368
  974POPC   NC316007   0.455  24.251   9.314
  974POPC   PO416008  44.943  24.582   9.433
  974POPC   GL116009   0.210  24.740   9.074
  974POPC   GL216010   0.602  24.670   9.031
  974POPC   C1A16011   0.299  24.630   8.631
  974POPC   D2A16012   0.641  24.619   8.339
  974POPC   C3A16013   0.433  24.602   7.980
  974POPC   C4A16014   0.475  24.592   7.540
  974POPC   C1B16015   0.704  24.311   8.730
  974POPC   C2B16016   0.858  24.144   8.366
  974POPC   C3B16017   0.841  24.290   7.959
  974POPC   C4B16018   0.526  24.114   7.714
  975POPC   NC316019   9.677  14.708   9.660
  975POPC   PO416020   9.523  14.196   9.255
  975POPC   GL116021   9.755  14.518   9.128
  975POPC   GL216022   9.830  14.869   9.191
  975POPC   C1A16023   9.885  14.447   8.742
  975POPC   D2A16024   9.793  14.147   8.426
  975POPC   C3A16025   9.733  14.313   8.020
  975POPC   C4A16026   9.464  14.201   7.673
  975POPC   C1B16027   9.696  14.909   8.766
  975POPC   C2B16028   9.678  14.714   8.366
  975POPC   C3B16029   9.891  14.815   8.001
  975POPC   C4B16030   9.689  14.656   7.644
  976POPC   NC316031  18.531  34.866   9.398
  976POPC   PO416032  18.496  34.179   9.584
  976POPC   GL116033  18.305  34.350   9.235
  976POPC   GL216034  18.629  34.431   9.145
  976POPC   C1A16035  18.193  34.564   8.847
  976POPC   D2A16036  18.204  34.768   8.450
  976POPC   C3A16037  18.267  34.628   8.052
  976POPC   C4A16038  18.576  34.758   7.774
  976POPC   C1B16039  18.572  34.190   8.800
  976POPC   C2B16040  18.479  34.332   8.422
  976POPC   C3B16041  18.678  34.321   8.045
  976POPC   C4B16042  18.408  34.235   7.726
  977POPC   NC316043  43.797  17.602   9.649
  977POPC   PO416044  43.756  17.071   9.273
  977POPC   GL116045  43.817  17.511   9.138
  977POPC   GL216046  44.158  17.516   9.072
  977POPC   C1A16047  43.798  17.651   8.707
  977POPC   D2A16048  43.872  17.288   8.404
  977POPC   C3A16049  43.895  17.408   7.976
  977POPC   C4A16050  43.749  17.756   7.726
  977POPC   C1B16051  44.295  17.492   8.658
  977POPC   C2B16052  44.157  17.720   8.301
  977POPC   C3B16053  44.350  17.804   7.930
  977POPC   C4B16054  44.198  17.964   7.571
  978POPC   NC316055  12.005   4.357   9.529
  978POPC   PO416056  11.776   4.994   9.457
  978POPC   GL116057  11.814   4.624   9.135
  978POPC   GL216058  11.889   4.250   9.067
  978POPC   C1A16059  11.969   4.614   8.719
  978POPC   D2A16060  11.934   4.350   8.372
  978POPC   C3A16061  12.086   4.490   7.989
  978POPC   C4A16062  11.829   4.614   7.686
  978POPC   C1B16063  11.936   3.994   8.744
  978POPC   C2B16064  11.794   3.867   8.346
  978POPC   C3B16065  11.873   4.034   7.919
  978POPC   C4B16066  11.851   3.882   7.507
  979POPC   NC316067  17.127  34.260   9.346
  979POPC   PO416068  17.781  34.480   9.379
  979POPC   GL116069  17.468  34.531   9.068
  979POPC   GL216070  17.363  34.861   8.968
  979POPC   C1A16071  17.397  34.448   8.636
  979POPC   D2A16072  17.265  34.541   8.227
  979POPC   C3A16073  17.551  34.329   7.936
  979POPC   C4A16074  17.478  34.452   7.509
  979POPC   C1B16075  17.745  34.839   8.708
  979POPC   C2B16076  17.750  34.680   8.286
  979POPC   C3B16077  17.609  34.834   7.935
  979POPC   C4B16078  17.677  34.917   7.539
  980POPC   NC316079  42.090  19.399   9.462
  980POPC   PO416080  42.534  18.999   9.560
  980POPC   GL116081  42.355  19.036   9.169
  980POPC   GL216082  42.511  19.342   9.058
  980POPC   C1A16083  42.231  18.875   8.764
  980POPC   D2A16084  42.286  19.050   8.388
  980POPC   C3A16085  42.126  18.763   8.097
  980POPC   C4A16086  42.135  18.790   7.700
  980POPC   C1B16087  42.163  19.367   8.777
  980POPC   C2B16088  41.906  19.371   8.394
  980POPC   C3B16089  42.013  19.260   7.947
  980POPC   C4B16090  41.933  19.211   7.477
  981POPC   NC316091  21.154   1.594   9.730
  981POPC   PO416092  21.017   1.023   9.409
  981POPC   GL116093  21.229   1.267   9.100
  981POPC   GL216094  21.573   1.315   9.084
  981POPC   C1A16095  21.344   1.083   8.696
  981POPC   D2A16096  21.379   1.314   8.342
  981POPC   C3A16097  21.520   1.214   7.968
  981POPC   C4A16098  21.254   1.447   7.720
  981POPC   C1B16099  21.510   1.596   8.772
  981POPC   C2B16100  21.487   1.789   8.413
  981POPC   C3B16101  21.597   1.741   8.009
  981POPC   C4B16102  21.736   1.584   7.643
  982POPC   NC316103   1.469  33.233   9.422
  982POPC   PO416104   1.069  32.916   9.854
  982POPC   GL116105   1.111  32.881   9.320
  982POPC   GL216106   1.403  32.723   9.131
  982POPC   C1A16107   1.150  33.090   8.863
  982POPC   D2A16108   1.293  33.229   8.465
  982POPC   C3A16109   1.199  32.953   8.140
  982POPC   C4A16110   0.972  33.076   7.776
  982POPC   C1B16111   1.693  32.648   8.767
  982POPC   C2B16112   1.710  32.818   8.367
  982POPC   C3B16113   1.619  32.657   7.967
  982POPC   C4B16114   1.251  32.648   7.712
  983POPC   NC316115  39.325  22.615   9.399
  983POPC   PO416116  39.052  23.270   9.517
  983POPC   GL116117  39.319  23.145   9.201
  983POPC   GL216118  39.053  22.947   9.111
  983POPC   C1A16119  39.443  22.968   8.785
  983POPC   D2A16120  39.370  22.724   8.392
  983POPC   C3A16121  39.450  23.010   8.032
  983POPC   C4A16122  39.277  23.127   7.639
  983POPC   C1B16123  38.849  22.848   8.735
  983POPC   C2B16124  38.840  22.705   8.349
  983POPC   C3B16125  38.947  22.855   8.002
  983POPC   C4B16126  38.995  22.696   7.650
  984POPC   NC316127  30.736  27.180   9.575
  984POPC   PO416128  30.680  27.887   9.490
  984POPC   GL116129  30.813  27.623   9.160
  984POPC   GL216130  31.133  27.811   9.008
  984POPC   C1A16131  30.590  27.510   8.757
  984POPC   D2A16132  30.762  27.368   8.340
  984POPC   C3A16133  30.605  27.449   7.931
  984POPC   C4A16134  30.811  27.361   7.563
  984POPC   C1B16135  30.784  27.973   8.802
  984POPC   C2B16136  30.596  27.909   8.427
  984POPC   C3B16137  30.781  27.889   8.074
  984POPC   C4B16138  30.797  27.886   7.669
  985POPC   NC316139   6.552  44.475   9.447
  985POPC   PO416140   7.167  44.200   9.543
  985POPC   GL116141   6.921  44.317   9.082
  985POPC   GL216142   6.613  44.586   8.970
  985POPC   C1A16143   7.032  44.583   8.703
  985POPC   D2A16144   6.948  44.829   8.336
  985POPC   C3A16145   6.675  44.693   8.038
  985POPC   C4A16146   6.732  44.716   7.614
  985POPC   C1B16147   6.522  44.630   8.538
  985POPC   C2B16148   6.349  44.345   8.228
  985POPC   C3B16149   6.189  44.575   7.868
  985POPC   C4B16150   6.331  44.997   7.755
  986POPC   NC316151  21.542  22.509   9.371
  986POPC   PO416152  21.061  23.009   9.422
  986POPC   GL116153  21.273  22.968   9.028
  986POPC   GL216154  21.536  23.195   8.889
  986POPC   C1A16155  21.311  22.735   8.674
  986POPC   D2A16156  21.567  22.664   8.290
  986POPC   C3A16157  21.490  22.907   7.883
  986POPC   C4A16158  21.442  22.715   7.457
  986POPC   C1B16159  21.513  23.157   8.461
  986POPC   C2B16160  21.159  23.017   8.275
  986POPC   C3B16161  20.965  23.128   7.948
  986POPC   C4B16162  21.054  23.021   7.555
  987POPC   NC316163  12.673  31.228   9.435
  987POPC   PO416164  13.231  31.662   9.596
  987POPC   GL116165  13.093  31.512   9.196
  987POPC   GL216166  12.753  31.644   9.098
  987POPC   C1A16167  13.239  31.346   8.787
  987POPC   D2A16168  13.019  31.458   8.399
  987POPC   C3A16169  13.130  31.288   8.007
  987POPC   C4A16170  13.012  31.548   7.659
  987POPC   C1B16171  12.579  31.847   8.718
  987POPC   C2B16172  12.488  31.692   8.294
  987POPC   C3B16173  12.602  31.430   7.959
  987POPC   C4B16174  12.722  31.061   7.737
  988POPC   NC316175  26.729  27.798   9.470
  988POPC   PO416176  26.986  27.171   9.541
  988POPC   GL116177  26.882  27.398   9.212
  988POPC   GL216178  26.504  27.361   9.317
  988POPC   C1A16179  26.941  27.651   8.838
  988POPC   D2A16180  26.792  27.529   8.437
  988POPC   C3A16181  27.006  27.719   8.126
  988POPC   C4A16182  26.849  27.685   7.769
  988POPC   C1B16183  26.491  27.405   8.882
  988POPC   C2B16184  26.324  27.299   8.513
  988POPC   C3B16185  26.444  27.289   8.097
  988POPC   C4B16186  26.358  27.595   7.780
  989POPC   NC316187   6.821   7.158   9.421
  989POPC   PO416188   6.314   7.540   9.386
  989POPC   GL116189   6.619   7.563   9.121
  989POPC   GL216190   6.865   7.792   9.280
  989POPC   C1A16191   6.575   7.462   8.659
  989POPC   D2A16192   6.693   7.274   8.255
  989POPC   C3A16193   6.495   7.338   7.846
  989POPC   C4A16194   6.431   7.479   7.421
  989POPC   C1B16195   6.874   7.835   8.813
  989POPC   C2B16196   6.945   7.840   8.365
  989POPC   C3B16197   6.881   7.664   7.969
  989POPC   C4B16198   6.901   7.633   7.524
  990POPC   NC316199  33.924  29.337   9.983
  990POPC   PO416200  34.478  29.358   9.503
  990POPC   GL116201  34.607  29.059   9.230
  990POPC   GL216202  34.275  28.934   9.251
  990POPC   C1A16203  34.876  29.001   8.875
  990POPC   D2A16204  34.718  29.028   8.456
  990POPC   C3A16205  34.782  29.081   8.042
  990POPC   C4A16206  34.617  29.358   7.732
  990POPC   C1B16207  34.332  28.959   8.815
  990POPC   C2B16208  34.231  28.835   8.410
  990POPC   C3B16209  34.263  29.051   8.030
  990POPC   C4B16210  34.387  28.922   7.635
  991POPC   NC316211  39.813  21.209   9.517
  991POPC   PO416212  40.304  21.674   9.487
  991POPC   GL116213  40.184  21.386   9.186
  991POPC   GL216214  39.869  21.531   9.111
  991POPC   C1A16215  40.124  21.221   8.794
  991POPC   D2A16216  39.829  21.269   8.478
  991POPC   C3A16217  40.094  21.272   8.109
  991POPC   C4A16218  40.098  21.016   7.755
  991POPC   C1B16219  39.809  21.799   8.753
  991POPC   C2B16220  39.642  21.713   8.333
  991POPC   C3B16221  39.728  21.569   7.925
  991POPC   C4B16222  39.746  21.661   7.516
  992POPC   NC316223  38.764   9.434   9.640
  992POPC   PO416224  39.366   9.840   9.553
  992POPC   GL116225  39.386   9.976   9.102
  992POPC   GL216226  39.400   9.646   9.035
  992POPC   C1A16227  39.317   9.938   8.652
  992POPC   D2A16228  39.215   9.688   8.308
  992POPC   C3A16229  38.966   9.923   8.007
  992POPC   C4A16230  39.088  10.128   7.621
  992POPC   C1B16231  39.021   9.514   8.760
  992POPC   C2B16232  39.026   9.214   8.423
  992POPC   C3B16233  39.102   9.144   8.023
  992POPC   C4B16234  38.890   9.276   7.630
  993POPC   NC316235  13.268  20.226   9.937
  993POPC   PO416236  12.897  19.838   9.508
  993POPC   GL116237  12.758  19.518   9.201
  993POPC   GL216238  12.659  19.826   9.036
  993POPC   C1A16239  12.857  19.437   8.778
  993POPC   D2A16240  12.894  19.791   8.511
  993POPC   C3A16241  12.883  19.569   8.120
  993POPC   C4A16242  12.759  19.464   7.700
  993POPC   C1B16243  12.474  20.108   8.730
  993POPC   C2B16244  12.647  20.255   8.365
  993POPC   C3B16245  12.864  20.080   8.058
  993POPC   C4B16246  12.610  19.939   7.738
  994POPC   NC316247  39.296   7.929   9.307
  994POPC   PO416248  38.972   7.433   9.408
  994POPC   GL116249  39.184   7.451   9.071
  994POPC   GL216250  39.498   7.409   9.197
  994POPC   C1A16251  39.192   7.644   8.687
  994POPC   D2A16252  39.080   7.424   8.328
  994POPC   C3A16253  38.970   7.622   7.937
  994POPC   C4A16254  39.095   7.603   7.492
  994POPC   C1B16255  39.588   7.283   8.771
  994POPC   C2B16256  39.595   7.524   8.365
  994POPC   C3B16257  39.471   7.574   7.924
  994POPC   C4B16258  39.561   7.324   7.544
  995POPC   NC316259  44.760  25.028   9.338
  995POPC   PO416260  44.448  24.414   9.682
  995POPC   GL116261  44.484  24.336   9.235
  995POPC   GL216262  44.550  24.644   9.097
  995POPC   C1A16263  44.649  24.264   8.790
  995POPC   D2A16264  44.500  24.290   8.346
  995POPC   C3A16265  44.721  24.108   7.988
  995POPC   C4A16266   0.063  24.298   7.795
  995POPC   C1B16267  44.755  24.787   8.720
  995POPC   C2B16268  44.582  24.846   8.322
  995POPC   C3B16269  44.737  24.660   7.980
  995POPC   C4B16270   0.044  24.820   7.713
  996POPC   NC316271  30.329  25.632   9.751
  996POPC   PO416272  30.907  25.846   9.534
  996POPC   GL116273  30.843  25.906   9.137
  996POPC   GL216274  30.595  26.149   9.196
  996POPC   C1A16275  31.009  26.031   8.775
  996POPC   D2A16276  31.046  26.256   8.417
  996POPC   C3A16277  30.973  26.009   8.058
  996POPC   C4A16278  30.718  25.852   7.727
  996POPC   C1B16279  30.511  26.162   8.785
  996POPC   C2B16280  30.494  26.020   8.383
  996POPC   C3B16281  30.508  26.220   8.013
  996POPC   C4B16282  30.272  26.200   7.695
  997POPC   NC316283  15.003  41.154   9.560
  997POPC   PO416284  15.033  41.769   9.488
  997POPC   GL116285  15.132  41.731   9.075
  997POPC   GL216286  15.074  41.368   9.088
  997POPC   C1A16287  15.396  41.613   8.703
  997POPC   D2A16288  15.606  41.460   8.311
  997POPC   C3A16289  15.443  41.517   7.883
  997POPC   C4A16290  15.074  41.335   7.636
  997POPC   C1B16291  14.900  41.529   8.676
  997POPC   C2B16292  15.053  41.639   8.296
  997POPC   C3B16293  15.169  41.936   8.038
  997POPC   C4B16294  15.113  41.848   7.644
  998POPC   NC316295   5.532  30.489   9.468
  998POPC   PO416296   5.057  30.892   9.627
  998POPC   GL116297   5.095  30.674   9.235
  998POPC   GL216298   4.786  30.491   9.114
  998POPC   C1A16299   5.368  30.707   8.860
  998POPC   D2A16300   5.189  30.773   8.458
  998POPC   C3A16301   5.461  30.868   8.145
  998POPC   C4A16302   5.333  30.650   7.800
  998POPC   C1B16303   4.829  30.842   8.817
  998POPC   C2B16304   4.715  30.999   8.416
  998POPC   C3B16305   4.641  30.762   8.073
  998POPC   C4B16306   4.837  30.594   7.752
  999POPC   NC316307  14.258  10.451   9.476
  999POPC   PO416308  14.799  10.115   9.507
  999POPC   GL116309  14.637  10.392   9.105
  999POPC   GL216310  14.391  10.710   9.056
  999POPC   C1A16311  14.518  10.451   8.639
  999POPC   D2A16312  14.675  10.700   8.284
  999POPC   C3A16313  14.602  10.499   7.909
  999POPC   C4A16314  14.454  10.550   7.508
  999POPC   C1B16315  14.097  10.751   8.668
  999POPC   C2B16316  14.023  10.617   8.229
  999POPC   C3B16317  13.999  10.573   7.775
  999POPC   C4B16318  14.001  10.359   7.370
 1000POPC   NC316319  39.086  36.726   9.615
 1000POPC   PO416320  39.524  37.275   9.590
 1000POPC   GL116321  39.342  37.173   9.189
 1000POPC   GL216322  39.065  36.902   9.138
 1000POPC   C1A16323  39.342  37.124   8.756
 1000POPC   D2A16324  39.148  36.994   8.379
 1000POPC   C3A16325  39.262  37.173   7.981
 1000POPC   C4A16326  39.085  37.173   7.584
 1000POPC   C1B16327  39.396  36.631   8.944
 1000POPC   C2B16328  39.365  36.363   8.541
 1000POPC   C3B16329  39.161  36.506   8.155
 1000POPC   C4B16330  39.195  36.664   7.753
 1001POPC   NC316331  31.151  16.188   9.245
 1001POPC   PO416332  30.765  15.778   9.641
 1001POPC   GL116333  30.740  15.760   9.145
 1001POPC   GL216334  30.897  16.004   8.866
 1001POPC   C1A16335  30.696  15.575   8.735
 1001POPC   D2A16336  30.896  15.830   8.380
 1001POPC   C3A16337  30.684  15.945   7.997
 1001POPC   C4A16338  30.479  15.651   7.704
 1001POPC   C1B16339  30.503  16.061   8.647
 1001POPC   C2B16340  30.382  16.284   8.284
 1001POPC   C3B16341  30.272  16.228   7.889
 1001POPC   C4B16342  30.480  16.161   7.510
 1002POPC   NC316343  38.620  13.049   9.533
 1002POPC   PO416344  38.099  12.541   9.469
 1002POPC   GL116345  38.268  12.695   9.086
 1002POPC   GL216346  38.393  13.032   9.089
 1002POPC   C1A16347  38.154  12.803   8.662
 1002POPC   D2A16348  38.354  12.705   8.287
 1002POPC   C3A16349  38.396  12.941   7.921
 1002POPC   C4A16350  38.358  12.553   7.746
 1002POPC   C1B16351  38.621  12.918   8.753
 1002POPC   C2B16352  38.659  13.117   8.398
 1002POPC   C3B16353  38.853  12.889   8.128
 1002POPC   C4B16354  38.910  12.962   7.729
 1003POPC   NC316355  37.061  44.093   9.558
 1003POPC   PO416356  36.874  43.420   9.441
 1003POPC   GL116357  37.015  43.705   9.150
 1003POPC   GL216358  36.785  43.976   9.159
 1003POPC   C1A16359  36.944  43.820   8.716
 1003POPC   D2A16360  37.074  43.999   8.339
 1003POPC   C3A16361  36.966  43.733   8.005
 1003POPC   C4A16362  37.136  43.802   7.633
 1003POPC   C1B16363  36.591  44.259   8.854
 1003POPC   C2B16364  36.612  44.173   8.465
 1003POPC   C3B16365  36.566  44.050   8.077
 1003POPC   C4B16366  36.644  44.204   7.696
 1004POPC   NC316367  38.186  19.936   9.431
 1004POPC   PO416368  38.495  20.518   9.659
 1004POPC   GL116369  38.563  20.651   9.258
 1004POPC   GL216370  38.276  20.440   9.186
 1004POPC   C1A16371  38.614  20.580   8.815
 1004POPC   D2A16372  38.585  20.378   8.423
 1004POPC   C3A16373  38.737  20.629   8.082
 1004POPC   C4A16374  38.583  20.743   7.659
 1004POPC   C1B16375  38.201  20.261   8.799
 1004POPC   C2B16376  38.063  20.348   8.400
 1004POPC   C3B16377  38.234  20.529   8.028
 1004POPC   C4B16378  38.126  20.315   7.659
 1005POPC   NC316379  37.271   0.567   9.390
 1005POPC   PO416380  37.732   0.082   9.461
 1005POPC   GL116381  37.656   0.344   9.121
 1005POPC   GL216382  37.400   0.189   9.067
 1005POPC   C1A16383  37.597   0.600   8.751
 1005POPC   D2A16384  37.551   0.442   8.318
 1005POPC   C3A16385  37.724   0.689   7.979
 1005POPC   C4A16386  37.757   0.562   7.531
 1005POPC   C1B16387  37.562   0.050   8.692
 1005POPC   C2B16388  37.418  44.857   8.334
 1005POPC   C3B16389  37.213  44.916   7.958
 1005POPC   C4B16390  37.494   0.231   7.812
 1006POPC   NC316391   1.711   5.003   9.387
 1006POPC   PO416392   2.232   5.453   9.453
 1006POPC   GL116393   2.020   5.302   9.108
 1006POPC   GL216394   2.077   4.975   9.029
 1006POPC   C1A16395   1.715   5.392   8.809
 1006POPC   D2A16396   1.681   5.432   8.372
 1006POPC   C3A16397   1.861   5.115   8.123
 1006POPC   C4A16398   2.196   5.122   7.817
 1006POPC   C1B16399   2.058   5.030   8.587
 1006POPC   C2B16400   2.311   4.856   8.232
 1006POPC   C3B16401   2.197   4.511   7.997
 1006POPC   C4B16402   1.908   4.714   7.791
 1007POPC   NC316403  35.195  38.088   9.502
 1007POPC   PO416404  35.510  37.424   9.568
 1007POPC   GL116405  35.491  37.569   9.170
 1007POPC   GL216406  35.495  37.917   9.102
 1007POPC   C1A16407  35.376  37.468   8.773
 1007POPC   D2A16408  35.517  37.330   8.366
 1007POPC   C3A16409  35.410  37.627   8.017
 1007POPC   C4A16410  35.340  37.527   7.572
 1007POPC   C1B16411  35.181  37.954   8.738
 1007POPC   C2B16412  35.025  37.894   8.324
 1007POPC   C3B16413  35.052  38.110   7.956
 1007POPC   C4B16414  35.250  38.010   7.611
 1008POPC   NC316415  36.776  33.993   9.604
 1008POPC   PO416416  37.139  33.377   9.456
 1008POPC   GL116417  36.839  33.614   9.238
 1008POPC   GL216418  36.983  33.921   9.146
 1008POPC   C1A16419  36.811  33.549   8.807
 1008POPC   D2A16420  37.037  33.440   8.445
 1008POPC   C3A16421  36.925  33.664   8.095
 1008POPC   C4A16422  37.028  33.590   7.671
 1008POPC   C1B16423  36.626  34.029   8.912
 1008POPC   C2B16424  36.753  33.965   8.491
 1008POPC   C3B16425  36.734  34.137   8.074
 1008POPC   C4B16426  36.747  34.026   7.644
 1009POPC   NC316427  24.643  33.388   9.408
 1009POPC   PO416428  24.236  33.825   9.743
 1009POPC   GL116429  24.248  33.738   9.332
 1009POPC   GL216430  24.576  33.881   9.237
 1009POPC   C1A16431  24.227  33.712   8.902
 1009POPC   D2A16432  24.364  33.743   8.469
 1009POPC   C3A16433  24.169  33.557   8.126
 1009POPC   C4A16434  24.212  33.732   7.729
 1009POPC   C1B16435  24.757  33.825   8.812
 1009POPC   C2B16436  24.885  33.720   8.376
 1009POPC   C3B16437  24.785  33.742   7.936
 1009POPC   C4B16438  24.977  33.929   7.507
 1010POPC   NC316439  20.329   2.268   9.592
 1010POPC   PO416440  20.909   1.932   9.520
 1010POPC   GL116441  20.581   2.034   9.174
 1010POPC   GL216442  20.515   2.402   9.139
 1010POPC   C1A16443  20.580   1.776   8.783
 1010POPC   D2A16444  20.529   1.878   8.378
 1010POPC   C3A16445  20.595   1.673   8.018
 1010POPC   C4A16446  20.750   1.805   7.658
 1010POPC   C1B16447  20.852   2.299   8.846
 1010POPC   C2B16448  20.783   2.345   8.421
 1010POPC   C3B16449  20.776   2.161   8.031
 1010POPC   C4B16450  20.498   2.245   7.703
 1011POPC   NC316451  15.157  23.406   9.568
 1011POPC   PO416452  14.845  23.891   9.181
 1011POPC   GL116453  15.116  23.679   8.968
 1011POPC   GL216454  15.409  23.618   9.174
 1011POPC   C1A16455  15.242  23.871   8.569
 1011POPC   D2A16456  15.391  24.094   8.193
 1011POPC   C3A16457  15.088  23.952   7.878
 1011POPC   C4A16458  14.989  23.560   7.656
 1011POPC   C1B16459  15.546  23.513   8.764
 1011POPC   C2B16460  15.361  23.433   8.352
 1011POPC   C3B16461  15.427  23.554   7.946
 1011POPC   C4B16462  15.451  23.344   7.558
 1012POPC   NC316463  33.840  28.054   9.322
 1012POPC   PO416464  33.785  27.442   9.721
 1012POPC   GL116465  33.946  27.546   9.290
 1012POPC   GL216466  33.646  27.611   9.093
 1012POPC   C1A16467  34.057  27.585   8.798
 1012POPC   D2A16468  33.911  27.798   8.413
 1012POPC   C3A16469  33.952  27.680   7.963
 1012POPC   C4A16470  34.105  27.538   7.552
 1012POPC   C1B16471  33.582  27.419   8.661
 1012POPC   C2B16472  33.414  27.219   8.276
 1012POPC   C3B16473  33.366  27.183   7.818
 1012POPC   C4B16474  33.674  27.290   7.506
 1013POPC   NC316475  31.157   3.858   9.897
 1013POPC   PO416476  31.637   3.455   9.489
 1013POPC   GL116477  31.682   3.627   9.079
 1013POPC   GL216478  31.338   3.490   9.039
 1013POPC   C1A16479  31.689   3.594   8.637
 1013POPC   D2A16480  31.384   3.374   8.357
 1013POPC   C3A16481  31.456   3.456   7.909
 1013POPC   C4A16482  31.695   3.526   7.520
 1013POPC   C1B16483  31.272   3.846   8.760
 1013POPC   C2B16484  31.423   3.891   8.327
 1013POPC   C3B16485  31.276   3.975   7.953
 1013POPC   C4B16486  30.928   3.919   7.711
 1014POPC   NC316487  38.763   6.036   9.501
 1014POPC   PO416488  38.301   5.620   9.646
 1014POPC   GL116489  38.407   5.837   9.221
 1014POPC   GL216490  38.391   6.239   9.236
 1014POPC   C1A16491  38.553   5.693   8.823
 1014POPC   D2A16492  38.326   5.496   8.484
 1014POPC   C3A16493  38.434   5.695   8.077
 1014POPC   C4A16494  38.260   5.554   7.703
 1014POPC   C1B16495  38.319   6.247   8.818
 1014POPC   C2B16496  38.394   6.050   8.443
 1014POPC   C3B16497  38.299   6.208   8.028
 1014POPC   C4B16498  38.045   6.150   7.684
 1015POPC   NC316499  36.905  38.159   9.474
 1015POPC   PO416500  36.471  38.721   9.371
 1015POPC   GL116501  36.774  38.536   9.127
 1015POPC   GL216502  37.114  38.631   9.224
 1015POPC   C1A16503  36.702  38.399   8.722
 1015POPC   D2A16504  36.567  38.542   8.297
 1015POPC   C3A16505  36.566  38.280   7.932
 1015POPC   C4A16506  36.914  38.152   7.664
 1015POPC   C1B16507  37.210  38.410   8.839
 1015POPC   C2B16508  37.089  38.279   8.411
 1015POPC   C3B16509  37.044  38.503   8.042
 1015POPC   C4B16510  37.224  38.916   7.960
 1016POPC   NC316511   1.910  29.258   9.370
 1016POPC   PO416512   2.115  28.593   9.426
 1016POPC   GL116513   1.910  28.802   9.064
 1016POPC   GL216514   2.114  29.103   8.942
 1016POPC   C1A16515   1.669  28.969   8.720
 1016POPC   D2A16516   1.712  29.295   8.436
 1016POPC   C3A16517   1.852  29.152   8.046
 1016POPC   C4A16518   1.680  29.181   7.643
 1016POPC   C1B16519   2.202  29.431   8.646
 1016POPC   C2B16520   2.094  29.593   8.239
 1016POPC   C3B16521   2.198  29.518   7.839
 1016POPC   C4B16522   2.207  29.100   7.649
 1017POPC   NC316523   8.874  15.300   9.724
 1017POPC   PO416524   8.846  14.839   9.316
 1017POPC   GL116525   8.981  15.215   9.186
 1017POPC   GL216526   8.806  15.510   9.270
 1017POPC   C1A16527   8.755  15.267   8.824
 1017POPC   D2A16528   8.685  15.021   8.498
 1017POPC   C3A16529   8.906  15.106   8.122
 1017POPC   C4A16530   8.821  14.889   7.778
 1017POPC   C1B16531   9.049  15.675   8.905
 1017POPC   C2B16532   9.031  15.505   8.487
 1017POPC   C3B16533   9.019  15.646   8.101
 1017POPC   C4B16534   9.213  15.426   7.802
 1018POPC   NC316535  25.634  13.770   9.438
 1018POPC   PO416536  25.771  13.198   9.293
 1018POPC   GL116537  25.565  13.537   8.976
 1018POPC   GL216538  25.304  13.784   9.065
 1018POPC   C1A16539  25.377  13.696   8.563
 1018POPC   D2A16540  25.305  13.473   8.201
 1018POPC   C3A16541  25.554  13.562   7.872
 1018POPC   C4A16542  25.453  13.401   7.461
 1018POPC   C1B16543  25.035  14.010   8.799
 1018POPC   C2B16544  25.113  14.136   8.403
 1018POPC   C3B16545  25.227  13.958   8.014
 1018POPC   C4B16546  25.049  13.649   7.754
 1019POPC   NC316547  15.291  43.538   9.638
 1019POPC   PO416548  15.127  44.125   9.553
 1019POPC   GL116549  15.137  43.848   9.239
 1019POPC   GL216550  14.880  43.643   9.177
 1019POPC   C1A16551  15.305  43.780   8.790
 1019POPC   D2A16552  15.232  43.908   8.406
 1019POPC   C3A16553  15.278  43.680   8.036
 1019POPC   C4A16554  15.402  43.888   7.687
 1019POPC   C1B16555  14.841  43.954   8.854
 1019POPC   C2B16556  14.705  43.920   8.506
 1019POPC   C3B16557  14.807  43.866   8.131
 1019POPC   C4B16558  14.768  43.938   7.752
 1020POPC   NC316559  32.483   7.721   9.369
 1020POPC   PO416560  32.018   7.209   9.492
 1020POPC   GL116561  32.259   7.320   9.156
 1020POPC   GL216562  32.487   7.048   9.124
 1020POPC   C1A16563  32.218   7.562   8.757
 1020POPC   D2A16564  32.065   7.385   8.360
 1020POPC   C3A16565  32.231   7.509   7.967
 1020POPC   C4A16566  32.422   7.559   7.566
 1020POPC   C1B16567  32.227   7.056   8.730
 1020POPC   C2B16568  32.463   7.009   8.365
 1020POPC   C3B16569  32.574   7.106   7.953
 1020POPC   C4B16570  32.250   7.088   7.669
 1021POPC   NC316571  29.764  27.006   9.419
 1021POPC   PO416572  30.220  26.437   9.442
 1021POPC   GL116573  30.071  26.693   9.124
 1021POPC   GL216574  30.385  26.678   8.952
 1021POPC   C1A16575  29.807  26.858   8.770
 1021POPC   D2A16576  29.943  26.868   8.339
 1021POPC   C3A16577  29.760  26.862   7.950
 1021POPC   C4A16578  29.830  26.977   7.525
 1021POPC   C1B16579  30.135  26.475   8.640
 1021POPC   C2B16580  30.070  26.386   8.216
 1021POPC   C3B16581  30.225  26.668   7.890
 1021POPC   C4B16582  30.263  26.674   7.443
 1022POPC   NC316583  14.329  11.547   9.781
 1022POPC   PO416584  14.222  10.932   9.491
 1022POPC   GL116585  14.474  11.220   9.210
 1022POPC   GL216586  14.803  11.066   9.051
 1022POPC   C1A16587  14.595  11.490   8.865
 1022POPC   D2A16588  14.506  11.623   8.430
 1022POPC   C3A16589  14.447  11.454   8.018
 1022POPC   C4A16590  14.828  11.470   7.806
 1022POPC   C1B16591  14.559  11.009   8.681
 1022POPC   C2B16592  14.281  11.070   8.322
 1022POPC   C3B16593  14.317  10.945   7.943
 1022POPC   C4B16594  14.658  10.981   7.709
 1023POPC   NC316595   1.011   9.562   9.436
 1023POPC   PO416596   1.558   9.199   9.479
 1023POPC   GL116597   1.436   9.585   9.154
 1023POPC   GL216598   1.157   9.925   9.132
 1023POPC   C1A16599   1.177   9.577   8.772
 1023POPC   D2A16600   1.027   9.778   8.429
 1023POPC   C3A16601   1.195   9.592   8.071
 1023POPC   C4A16602   1.070   9.532   7.666
 1023POPC   C1B16603   1.329  10.096   8.755
 1023POPC   C2B16604   1.465  10.052   8.338
 1023POPC   C3B16605   1.173  10.074   8.016
 1023POPC   C4B16606   1.132  10.012   7.588
 1024POPC   NC316607  32.803   0.684   9.357
 1024POPC   PO416608  33.306   1.097   9.625
 1024POPC   GL116609  33.051   1.151   9.268
 1024POPC   GL216610  32.853   1.475   9.259
 1024POPC   C1A16611  33.041   1.073   8.829
 1024POPC   D2A16612  33.198   1.284   8.455
 1024POPC   C3A16613  32.920   1.164   8.116
 1024POPC   C4A16614  33.082   1.163   7.715
 1024POPC   C1B16615  32.929   1.568   8.817
 1024POPC   C2B16616  32.855   1.661   8.384
 1024POPC   C3B16617  32.976   1.628   7.946
 1024POPC   C4B16618  32.693   1.521   7.579
 1025POPC   NC316619   6.819  34.683   9.793
 1025POPC   PO416620   6.323  34.535   9.383
 1025POPC   GL116621   6.703  34.567   9.066
 1025POPC   GL216622   7.007  34.313   9.040
 1025POPC   C1A16623   6.683  34.740   8.621
 1025POPC   D2A16624   6.357  34.717   8.285
 1025POPC   C3A16625   6.510  34.680   7.854
 1025POPC   C4A16626   6.914  34.777   7.831
 1025POPC   C1B16627   6.762  34.246   8.646
 1025POPC   C2B16628   6.797  34.414   8.221
 1025POPC   C3B16629   6.910  34.275   7.825
 1025POPC   C4B16630   6.616  34.257   7.529
 1026POPC   NC316631  33.599   6.029   9.516
 1026POPC   PO416632  34.218   6.297   9.549
 1026POPC   GL116633  34.035   5.996   9.227
 1026POPC   GL216634  33.907   5.644   9.261
 1026POPC   C1A16635  33.687   5.952   8.889
 1026POPC   D2A16636  33.535   5.979   8.472
 1026POPC   C3A16637  33.772   6.188   8.165
 1026POPC   C4A16638  33.799   6.003   7.768
 1026POPC   C1B16639  34.107   5.666   8.846
 1026POPC   C2B16640  33.989   5.777   8.403
 1026POPC   C3B16641  33.963   5.559   7.972
 1026POPC   C4B16642  33.647   5.500   7.616
 1027POPC   NC316643  30.012  39.399   9.415
 1027POPC   PO416644  29.543  38.851   9.460
 1027POPC   GL116645  29.893  38.971   9.163
 1027POPC   GL216646  30.248  38.897   9.049
 1027POPC   C1A16647  29.901  39.136   8.745
 1027POPC   D2A16648  29.853  39.037   8.318
 1027POPC   C3A16649  29.937  39.273   7.954
 1027POPC   C4A16650  29.849  39.563   7.583
 1027POPC   C1B16651  30.361  39.287   8.815
 1027POPC   C2B16652  30.354  39.260   8.378
 1027POPC   C3B16653  30.322  39.582   8.083
 1027POPC   C4B16654  30.360  39.557   7.624
 1028POPC   NC316655  30.265   6.110   9.458
 1028POPC   PO416656  30.898   5.716   9.379
 1028POPC   GL116657  30.758   5.985   9.070
 1028POPC   GL216658  30.444   5.892   9.043
 1028POPC   C1A16659  30.908   5.969   8.644
 1028POPC   D2A16660  30.972   5.684   8.300
 1028POPC   C3A16661  30.923   5.921   7.911
 1028POPC   C4A16662  30.856   5.761   7.475
 1028POPC   C1B16663  30.484   5.682   8.646
 1028POPC   C2B16664  30.495   5.882   8.239
 1028POPC   C3B16665  30.423   5.884   7.803
 1028POPC   C4B16666  30.514   6.120   7.470
 1029POPC   NC316667  39.549  15.441   9.564
 1029POPC   PO416668  40.091  15.079   9.507
 1029POPC   GL116669  39.826  15.179   9.164
 1029POPC   GL216670  40.134  15.307   9.054
 1029POPC   C1A16671  39.840  15.041   8.699
 1029POPC   D2A16672  39.991  14.939   8.276
 1029POPC   C3A16673  39.769  15.088   7.913
 1029POPC   C4A16674  39.876  15.053   7.472
 1029POPC   C1B16675  39.950  15.514   8.769
 1029POPC   C2B16676  39.983  15.449   8.377
 1029POPC   C3B16677  40.245  15.607   8.094
 1029POPC   C4B16678  40.158  15.375   7.754
 1030POPC   NC316679  13.855  13.227   9.360
 1030POPC   PO416680  13.570  12.675   9.569
 1030POPC   GL116681  13.433  12.726   9.174
 1030POPC   GL216682  13.377  13.064   9.156
 1030POPC   C1A16683  13.378  12.503   8.794
 1030POPC   D2A16684  13.567  12.460   8.401
 1030POPC   C3A16685  13.421  12.442   7.985
 1030POPC   C4A16686  13.706  12.556   7.660
 1030POPC   C1B16687  13.401  13.023   8.724
 1030POPC   C2B16688  13.661  13.068   8.379
 1030POPC   C3B16689  13.723  12.914   8.008
 1030POPC   C4B16690  13.862  13.044   7.609
 1031POPC   NC316691  34.298  35.716   9.444
 1031POPC   PO416692  35.002  35.969   9.360
 1031POPC   GL116693  34.765  36.158   9.027
 1031POPC   GL216694  34.425  36.042   8.995
 1031POPC   C1A16695  34.768  36.154   8.605
 1031POPC   D2A16696  34.528  36.009   8.255
 1031POPC   C3A16697  34.735  36.046   7.877
 1031POPC   C4A16698  34.885  36.414   7.732
 1031POPC   C1B16699  34.323  36.348   8.716
 1031POPC   C2B16700  34.488  36.549   8.362
 1031POPC   C3B16701  34.440  36.484   7.960
 1031POPC   C4B16702  34.118  36.225   7.876
 1032POPC   NC316703  26.513  22.429   9.497
 1032POPC   PO416704  26.855  21.937   9.837
 1032POPC   GL116705  26.858  21.910   9.346
 1032POPC   GL216706  26.744  22.187   9.106
 1032POPC   C1A16707  27.057  21.841   8.920
 1032POPC   D2A16708  26.856  21.888   8.524
 1032POPC   C3A16709  26.997  21.961   8.128
 1032POPC   C4A16710  26.719  21.989   7.779
 1032POPC   C1B16711  26.981  22.332   8.743
 1032POPC   C2B16712  27.059  22.512   8.294
 1032POPC   C3B16713  26.909  22.487   7.828
 1032POPC   C4B16714  27.028  22.569   7.348
 1033POPC   NC316715  37.368  27.588   9.512
 1033POPC   PO416716  38.045  27.318   9.577
 1033POPC   GL116717  37.899  27.449   9.141
 1033POPC   GL216718  37.593  27.669   9.072
 1033POPC   C1A16719  37.862  27.515   8.693
 1033POPC   D2A16720  37.884  27.691   8.323
 1033POPC   C3A16721  37.855  27.424   7.972
 1033POPC   C4A16722  37.515  27.259   7.699
 1033POPC   C1B16723  37.389  27.837   8.677
 1033POPC   C2B16724  37.441  27.936   8.219
 1033POPC   C3B16725  37.598  27.808   7.794
 1033POPC   C4B16726  37.775  27.768   7.352
 1034POPC   NC316727  31.872   3.763   9.771
 1034POPC   PO416728  32.466   3.472   9.571
 1034POPC   GL116729  32.163   3.555   9.263
 1034POPC   GL216730  32.337   3.775   9.091
 1034POPC   C1A16731  32.133   3.384   8.821
 1034POPC   D2A16732  32.306   3.478   8.412
 1034POPC   C3A16733  32.155   3.416   7.980
 1034POPC   C4A16734  32.167   3.757   7.649
 1034POPC   C1B16735  32.601   3.777   8.740
 1034POPC   C2B16736  32.558   3.952   8.349
 1034POPC   C3B16737  32.577   3.757   7.935
 1034POPC   C4B16738  32.647   3.625   7.481
 1035POPC   NC316739  22.286  31.920   9.672
 1035POPC   PO416740  22.721  31.413   9.678
 1035POPC   GL116741  22.554  31.696   9.250
 1035POPC   GL216742  22.197  31.722   9.184
 1035POPC   C1A16743  22.399  31.584   8.760
 1035POPC   D2A16744  22.061  31.465   8.477
 1035POPC   C3A16745  22.204  31.574   8.078
 1035POPC   C4A16746  22.402  31.317   7.745
 1035POPC   C1B16747  21.924  31.828   8.833
 1035POPC   C2B16748  21.729  31.895   8.403
 1035POPC   C3B16749  21.742  31.766   7.936
 1035POPC   C4B16750  21.871  31.326   7.777
 1036POPC   NC316751   0.505   0.857   9.422
 1036POPC   PO416752   0.299   0.227   9.504
 1036POPC   GL116753   0.446   0.425   9.150
 1036POPC   GL216754   0.636   0.177   9.054
 1036POPC   C1A16755   0.318   0.577   8.746
 1036POPC   D2A16756   0.376   0.412   8.317
 1036POPC   C3A16757   0.096   0.380   7.967
 1036POPC   C4A16758   0.073   0.769   7.738
 1036POPC   C1B16759   0.773   0.319   8.653
 1036POPC   C2B16760   0.818   0.229   8.214
 1036POPC   C3B16761   0.663   0.351   7.816
 1036POPC   C4B16762   0.731   0.335   7.364
 1037POPC   NC316763   8.617  29.349   9.331
 1037POPC   PO416764   7.926  29.561   9.430
 1037POPC   GL116765   8.163  29.477   9.085
 1037POPC   GL216766   8.240  29.116   9.057
 1037POPC   C1A16767   8.114  29.400   8.652
 1037POPC   D2A16768   8.022  29.598   8.314
 1037POPC   C3A16769   8.016  29.304   8.016
 1037POPC   C4A16770   8.145  29.318   7.582
 1037POPC   C1B16771   8.525  29.131   8.677
 1037POPC   C2B16772   8.326  28.993   8.309
 1037POPC   C3B16773   8.309  28.892   7.870
 1037POPC   C4B16774   7.872  28.898   7.732
 1038POPC   NC316775  21.943  24.069   9.550
 1038POPC   PO416776  22.539  24.376   9.472
 1038POPC   GL116777  22.287  24.638   9.205
 1038POPC   GL216778  22.026  24.440   9.226
 1038POPC   C1A16779  22.309  24.705   8.758
 1038POPC   D2A16780  22.608  24.533   8.459
 1038POPC   C3A16781  22.535  24.379   8.024
 1038POPC   C4A16782  22.624  24.661   7.655
 1038POPC   C1B16783  22.175  24.219   8.871
 1038POPC   C2B16784  22.135  24.333   8.425
 1038POPC   C3B16785  22.103  24.594   8.077
 1038POPC   C4B16786  22.161  24.483   7.635
 1039POPC   NC316787  40.655  41.442   9.699
 1039POPC   PO416788  41.116  41.820   9.451
 1039POPC   GL116789  40.697  41.724   9.234
 1039POPC   GL216790  40.617  41.370   9.193
 1039POPC   C1A16791  40.540  41.683   8.798
 1039POPC   D2A16792  40.872  41.743   8.460
 1039POPC   C3A16793  40.746  41.696   8.017
 1039POPC   C4A16794  40.639  41.838   7.593
 1039POPC   C1B16795  40.925  41.351   8.853
 1039POPC   C2B16796  41.033  41.272   8.401
 1039POPC   C3B16797  40.813  41.177   8.011
 1039POPC   C4B16798  40.769  41.352   7.612
 1040POPC   NC316799  36.278   5.999   9.524
 1040POPC   PO416800  35.722   5.672   9.421
 1040POPC   GL116801  35.888   5.859   9.061
 1040POPC   GL216802  36.225   5.798   9.062
 1040POPC   C1A16803  35.975   5.872   8.601
 1040POPC   D2A16804  35.793   6.128   8.322
 1040POPC   C3A16805  36.120   6.228   8.050
 1040POPC   C4A16806  36.147   6.077   7.686
 1040POPC   C1B16807  36.276   6.179   8.852
 1040POPC   C2B16808  36.446   6.123   8.425
 1040POPC   C3B16809  36.650   6.286   8.064
 1040POPC   C4B16810  36.513   6.449   7.674
 1041POPC   NC316811  40.779   1.396   9.937
 1041POPC   PO416812  40.885   0.970   9.496
 1041POPC   GL116813  40.811   1.137   9.110
 1041POPC   GL216814  40.837   1.475   9.219
 1041POPC   C1A16815  41.025   1.068   8.707
 1041POPC   D2A16816  41.138   0.846   8.335
 1041POPC   C3A16817  40.906   1.010   8.006
 1041POPC   C4A16818  40.725   1.133   7.622
 1041POPC   C1B16819  40.772   1.521   8.783
 1041POPC   C2B16820  40.686   1.317   8.389
 1041POPC   C3B16821  40.717   1.491   7.983
 1041POPC   C4B16822  40.526   1.643   7.596
 1042POPC   NC316823  18.750  36.207   9.823
 1042POPC   PO416824  18.129  36.205   9.636
 1042POPC   GL116825  18.217  36.091   9.190
 1042POPC   GL216826  18.526  35.901   9.146
 1042POPC   C1A16827  18.000  35.975   8.799
 1042POPC   D2A16828  18.010  36.224   8.418
 1042POPC   C3A16829  18.149  36.103   8.008
 1042POPC   C4A16830  18.516  36.183   7.737
 1042POPC   C1B16831  18.488  36.103   8.691
 1042POPC   C2B16832  18.614  35.992   8.246
 1042POPC   C3B16833  18.768  35.766   7.873
 1042POPC   C4B16834  18.675  35.782   7.416
 1043POPC   NC316835  41.451  10.016   9.638
 1043POPC   PO416836  41.123   9.551   9.766
 1043POPC   GL116837  41.203   9.788   9.279
 1043POPC   GL216838  41.218   9.554   8.999
 1043POPC   C1A16839  41.539   9.957   8.934
 1043POPC   D2A16840  41.824  10.026   8.553
 1043POPC   C3A16841  41.668   9.969   8.114
 1043POPC   C4A16842  41.678  10.162   7.693
 1043POPC   C1B16843  41.478   9.309   8.776
 1043POPC   C2B16844  41.718   9.372   8.427
 1043POPC   C3B16845  41.509   9.463   8.070
 1043POPC   C4B16846  41.460   9.316   7.690
 1044POPC   NC316847  14.740  14.687   9.364
 1044POPC   PO416848  15.350  14.512   9.612
 1044POPC   GL116849  15.454  14.304   9.190
 1044POPC   GL216850  15.087  14.223   9.078
 1044POPC   C1A16851  15.424  14.391   8.748
 1044POPC   D2A16852  15.159  14.246   8.430
 1044POPC   C3A16853  15.335  14.334   8.024
 1044POPC   C4A16854  15.424  14.133   7.644
 1044POPC   C1B16855  14.821  14.448   8.773
 1044POPC   C2B16856  14.644  14.502   8.377
 1044POPC   C3B16857  14.818  14.290   8.040
 1044POPC   C4B16858  14.934  14.322   7.650
 1045POPC   NC316859  11.898   9.252   9.396
 1045POPC   PO416860  11.960   9.885   9.568
 1045POPC   GL116861  12.084   9.710   9.184
 1045POPC   GL216862  12.248   9.998   9.138
 1045POPC   C1A16863  12.084   9.655   8.755
 1045POPC   D2A16864  11.829   9.802   8.435
 1045POPC   C3A16865  12.054   9.778   8.067
 1045POPC   C4A16866  11.970   9.560   7.669
 1045POPC   C1B16867  12.136  10.236   8.818
 1045POPC   C2B16868  12.190  10.167   8.412
 1045POPC   C3B16869  12.364  10.232   8.015
 1045POPC   C4B16870  12.315   9.988   7.669
 1046POPC   NC316871  26.462  38.927   9.331
 1046POPC   PO416872  26.067  39.483   9.599
 1046POPC   GL116873  25.934  39.489   9.166
 1046POPC   GL216874  26.187  39.277   9.077
 1046POPC   C1A16875  25.611  39.324   8.839
 1046POPC   D2A16876  25.671  39.216   8.375
 1046POPC   C3A16877  26.002  39.509   8.154
 1046POPC   C4A16878  25.881  39.489   7.668
 1046POPC   C1B16879  26.018  39.066   8.729
 1046POPC   C2B16880  26.138  39.012   8.320
 1046POPC   C3B16881  25.960  39.062   7.942
 1046POPC   C4B16882  26.195  39.086   7.543
 1047POPC   NC316883  29.551  18.761   9.540
 1047POPC   PO416884  29.942  19.266   9.520
 1047POPC   GL116885  29.703  19.233   9.167
 1047POPC   GL216886  29.782  18.945   9.109
 1047POPC   C1A16887  29.883  19.278   8.746
 1047POPC   D2A16888  29.759  19.151   8.355
 1047POPC   C3A16889  29.980  19.249   8.013
 1047POPC   C4A16890  29.823  19.171   7.646
 1047POPC   C1B16891  29.952  18.769   8.714
 1047POPC   C2B16892  29.926  18.645   8.275
 1047POPC   C3B16893  30.020  18.744   7.843
 1047POPC   C4B16894  30.045  18.836   7.356
 1048POPC   NC316895  12.189  24.915   9.183
 1048POPC   PO416896  11.931  24.289   9.426
 1048POPC   GL116897  11.908  24.377   9.031
 1048POPC   GL216898  12.268  24.415   9.009
 1048POPC   C1A16899  11.952  24.426   8.590
 1048POPC   D2A16900  11.794  24.727   8.294
 1048POPC   C3A16901  11.853  24.572   7.870
 1048POPC   C4A16902  12.152  24.329   7.635
 1048POPC   C1B16903  12.448  24.571   8.624
 1048POPC   C2B16904  12.276  24.560   8.193
 1048POPC   C3B16905  12.359  24.786   7.835
 1048POPC   C4B16906  12.437  24.714   7.414
 1049POPC   NC316907  20.935   9.148   9.397
 1049POPC   PO416908  20.310   8.962   9.443
 1049POPC   GL116909  20.455   9.125   9.087
 1049POPC   GL216910  20.725   8.849   9.018
 1049POPC   C1A16911  20.447   9.060   8.655
 1049POPC   D2A16912  20.716   8.804   8.426
 1049POPC   C3A16913  20.657   8.884   7.988
 1049POPC   C4A16914  20.318   9.201   7.952
 1049POPC   C1B16915  20.415   8.562   8.783
 1049POPC   C2B16916  20.255   8.607   8.330
 1049POPC   C3B16917  20.340   8.480   7.877
 1049POPC   C4B16918  20.479   8.561   7.429
 1050POPC   NC316919  42.907  17.159   9.537
 1050POPC   PO416920  43.335  17.582   9.810
 1050POPC   GL116921  43.341  17.510   9.320
 1050POPC   GL216922  43.179  17.251   9.113
 1050POPC   C1A16923  43.284  17.713   8.866
 1050POPC   D2A16924  42.941  17.877   8.549
 1050POPC   C3A16925  42.989  17.884   8.061
 1050POPC   C4A16926  43.219  17.746   7.659
 1050POPC   C1B16927  43.019  17.310   8.685
 1050POPC   C2B16928  43.345  17.246   8.362
 1050POPC   C3B16929  43.378  17.340   7.924
 1050POPC   C4B16930  42.964  17.261   7.734
 1051POPC   NC316931   4.059  28.224   9.310
 1051POPC   PO416932   4.719  28.299   9.359
 1051POPC   GL116933   4.487  28.527   9.035
 1051POPC   GL216934   4.134  28.590   8.950
 1051POPC   C1A16935   4.482  28.395   8.616
 1051POPC   D2A16936   4.665  28.042   8.430
 1051POPC   C3A16937   4.721  28.137   8.040
 1051POPC   C4A16938   4.502  28.266   7.656
 1051POPC   C1B16939   3.961  28.316   8.619
 1051POPC   C2B16940   4.014  28.248   8.157
 1051POPC   C3B16941   3.987  28.052   7.716
 1051POPC   C4B16942   3.817  27.996   7.248
 1052POPC   NC316943  39.339   1.379   9.520
 1052POPC   PO416944  38.687   1.244   9.474
 1052POPC   GL116945  39.068   1.109   9.181
 1052POPC   GL216946  39.232   1.436   9.033
 1052POPC   C1A16947  39.341   0.988   8.807
 1052POPC   D2A16948  39.363   1.167   8.387
 1052POPC   C3A16949  39.279   0.966   8.011
 1052POPC   C4A16950  39.260   1.322   7.735
 1052POPC   C1B16951  39.606   1.439   8.754
 1052POPC   C2B16952  39.777   1.489   8.316
 1052POPC   C3B16953  39.743   1.448   7.850
 1052POPC   C4B16954  39.646   1.398   7.394
 1053POPC   NC316955  30.269   8.575   9.455
 1053POPC   PO416956  29.848   8.062   9.716
 1053POPC   GL116957  29.904   8.145   9.231
 1053POPC   GL216958  30.091   8.396   9.016
 1053POPC   C1A16959  29.777   8.031   8.772
 1053POPC   D2A16960  29.801   8.120   8.336
 1053POPC   C3A16961  29.816   7.814   7.993
 1053POPC   C4A16962  29.909   7.828   7.588
 1053POPC   C1B16963  30.056   8.663   8.642
 1053POPC   C2B16964  29.982   8.590   8.206
 1053POPC   C3B16965  29.884   8.311   7.861
 1053POPC   C4B16966  30.068   8.291   7.477
 1054POPC   NC316967  25.177  27.956   9.786
 1054POPC   PO416968  24.769  28.306   9.336
 1054POPC   GL116969  24.884  28.348   8.963
 1054POPC   GL216970  25.198  28.447   9.057
 1054POPC   C1A16971  24.865  28.420   8.532
 1054POPC   D2A16972  24.984  28.102   8.254
 1054POPC   C3A16973  25.100  28.357   7.908
 1054POPC   C4A16974  25.117  28.753   7.745
 1054POPC   C1B16975  25.301  28.200   8.701
 1054POPC   C2B16976  25.486  28.285   8.333
 1054POPC   C3B16977  25.603  28.356   7.931
 1054POPC   C4B16978  25.514  28.086   7.601
 1055POPC   NC316979  30.037  17.199   9.351
 1055POPC   PO416980  29.700  17.753   9.466
 1055POPC   GL116981  29.859  17.608   9.077
 1055POPC   GL216982  30.210  17.621   9.115
 1055POPC   C1A16983  29.798  17.323   8.696
 1055POPC   D2A16984  29.684  17.264   8.243
 1055POPC   C3A16985  29.666  17.707   8.111
 1055POPC   C4A16986  29.729  17.868   7.712
 1055POPC   C1B16987  30.313  17.342   8.735
 1055POPC   C2B16988  30.182  17.426   8.285
 1055POPC   C3B16989  30.020  17.437   7.841
 1055POPC   C4B16990  30.162  17.184   7.478
 1056POPC   NC316991  43.885  23.423   9.724
 1056POPC   PO416992  43.579  23.969   9.461
 1056POPC   GL116993  43.834  23.811   9.143
 1056POPC   GL216994  43.764  23.464   9.169
 1056POPC   C1A16995  43.997  23.624   8.750
 1056POPC   D2A16996  43.866  23.491   8.350
 1056POPC   C3A16997  43.883  23.826   8.096
 1056POPC   C4A16998  43.997  24.010   7.746
 1056POPC   C1B16999  43.503  23.492   8.753
 1056POPC   C2B17000  43.282  23.307   8.367
 1056POPC   C3B17001  43.438  23.409   7.976
 1056POPC   C4B17002  43.864  23.397   7.811
 1057POPC   NC317003  10.304  38.952   9.481
 1057POPC   PO417004  10.648  39.524   9.381
 1057POPC   GL117005  10.590  39.145   9.064
 1057POPC   GL217006  10.255  38.969   8.976
 1057POPC   C1A17007  10.770  39.181   8.637
 1057POPC   D2A17008  10.694  39.116   8.215
 1057POPC   C3A17009  10.875  39.370   7.896
 1057POPC   C4A17010  10.691  39.097   7.595
 1057POPC   C1B17011  10.279  39.103   8.574
 1057POPC   C2B17012  10.317  39.453   8.300
 1057POPC   C3B17013  10.329  39.322   7.863
 1057POPC   C4B17014  10.284  39.285   7.382
 1058POPC   NC317015  37.841   3.091   9.299
 1058POPC   PO417016  37.450   2.480   9.409
 1058POPC   GL117017  37.510   2.751   9.127
 1058POPC   GL217018  37.804   2.630   9.035
 1058POPC   C1A17019  37.439   2.909   8.728
 1058POPC   D2A17020  37.488   3.188   8.395
 1058POPC   C3A17021  37.459   3.034   7.995
 1058POPC   C4A17022  37.844   3.109   7.858
 1058POPC   C1B17023  37.990   2.772   8.676
 1058POPC   C2B17024  37.793   2.777   8.293
 1058POPC   C3B17025  37.841   2.576   7.909
 1058POPC   C4B17026  37.995   2.416   7.491
 1059POPC   NC317027  39.787   9.910   9.396
 1059POPC   PO417028  39.767  10.579   9.506
 1059POPC   GL117029  40.014  10.604   9.145
 1059POPC   GL217030  40.062  10.233   9.104
 1059POPC   C1A17031  40.072  10.731   8.736
 1059POPC   D2A17032  39.873  11.015   8.436
 1059POPC   C3A17033  39.884  10.830   8.046
 1059POPC   C4A17034  40.301  10.647   7.898
 1059POPC   C1B17035  39.758  10.238   8.782
 1059POPC   C2B17036  39.778  10.446   8.392
 1059POPC   C3B17037  39.904  10.316   7.990
 1059POPC   C4B17038  39.795  10.132   7.594
 1060POPC   NC317039  42.144  24.531   9.497
 1060POPC   PO417040  42.699  24.163   9.674
 1060POPC   GL117041  42.442  24.183   9.248
 1060POPC   GL217042  42.473  24.489   9.102
 1060POPC   C1A17043  42.331  24.174   8.742
 1060POPC   D2A17044  42.155  24.379   8.326
 1060POPC   C3A17045  42.260  24.329   7.896
 1060POPC   C4A17046  42.366  23.969   7.679
 1060POPC   C1B17047  42.244  24.691   8.768
 1060POPC   C2B17048  42.185  24.897   8.357
 1060POPC   C3B17049  42.119  24.826   7.899
 1060POPC   C4B17050  42.120  24.782   7.426
 1061POPC   NC317051   4.311  42.514   9.557
 1061POPC   PO417052   3.984  41.924   9.387
 1061POPC   GL117053   4.178  42.283   9.128
 1061POPC   GL217054   4.092  42.660   9.092
 1061POPC   C1A17055   4.311  42.327   8.721
 1061POPC   D2A17056   4.101  42.263   8.340
 1061POPC   C3A17057   4.301  42.341   7.967
 1061POPC   C4A17058   4.064  42.304   7.610
 1061POPC   C1B17059   4.262  42.853   8.668
 1061POPC   C2B17060   4.246  42.838   8.165
 1061POPC   C3B17061   4.318  42.763   7.693
 1061POPC   C4B17062   4.420  42.642   7.263
 1062POPC   NC317063  31.734   8.486   9.831
 1062POPC   PO417064  31.482   7.984   9.439
 1062POPC   GL117065  31.305   8.222   9.091
 1062POPC   GL217066  31.502   8.485   8.895
 1062POPC   C1A17067  31.316   8.070   8.663
 1062POPC   D2A17068  31.290   7.899   8.259
 1062POPC   C3A17069  31.267   8.254   7.984
 1062POPC   C4A17070  31.562   8.570   7.844
 1062POPC   C1B17071  31.825   8.308   8.673
 1062POPC   C2B17072  31.710   8.247   8.289
 1062POPC   C3B17073  31.769   8.127   7.914
 1062POPC   C4B17074  31.852   8.283   7.504
 1063POPC   NC317075  22.606  33.730   9.381
 1063POPC   PO417076  23.311  33.560   9.559
 1063POPC   GL117077  23.075  33.698   9.221
 1063POPC   GL217078  22.993  34.057   9.263
 1063POPC   C1A17079  22.901  33.549   8.833
 1063POPC   D2A17080  22.702  33.729   8.489
 1063POPC   C3A17081  22.806  33.550   8.100
 1063POPC   C4A17082  22.932  33.698   7.702
 1063POPC   C1B17083  23.054  34.032   8.828
 1063POPC   C2B17084  23.200  34.168   8.459
 1063POPC   C3B17085  23.163  34.012   8.078
 1063POPC   C4B17086  23.337  34.137   7.714
 1064POPC   NC317087  44.149   7.771   9.388
 1064POPC   PO417088  44.272   7.091   9.369
 1064POPC   GL117089  44.109   7.350   9.076
 1064POPC   GL217090  43.777   7.316   9.128
 1064POPC   C1A17091  43.985   7.521   8.684
 1064POPC   D2A17092  43.924   7.282   8.300
 1064POPC   C3A17093  44.061   7.445   7.937
 1064POPC   C4A17094  43.849   7.309   7.618
 1064POPC   C1B17095  43.550   7.249   8.725
 1064POPC   C2B17096  43.442   7.493   8.358
 1064POPC   C3B17097  43.488   7.509   7.902
 1064POPC   C4B17098  43.594   7.702   7.475
 1065POPC   NC317099   6.056  19.601   9.373
 1065POPC   PO417100   5.770  20.124   9.735
 1065POPC   GL117101   5.639  20.036   9.199
 1065POPC   GL217102   5.927  19.804   8.956
 1065POPC   C1A17103   5.628  20.073   8.715
 1065POPC   D2A17104   5.881  19.801   8.418
 1065POPC   C3A17105   5.735  19.823   7.993
 1065POPC   C4A17106   5.641  20.185   7.724
 1065POPC   C1B17107   6.220  19.543   8.705
 1065POPC   C2B17108   6.294  19.418   8.288
 1065POPC   C3B17109   6.150  19.406   7.859
 1065POPC   C4B17110   6.279  19.230   7.455
 1066POPC   NC317111  13.050  43.338   9.271
 1066POPC   PO417112  12.915  42.726   9.624
 1066POPC   GL117113  12.785  42.777   9.141
 1066POPC   GL217114  12.631  43.114   9.093
 1066POPC   C1A17115  12.936  42.991   8.687
 1066POPC   D2A17116  12.997  43.378   8.389
 1066POPC   C3A17117  13.099  43.217   7.967
 1066POPC   C4A17118  13.046  42.749   7.869
 1066POPC   C1B17119  12.447  42.909   8.789
 1066POPC   C2B17120  12.438  42.915   8.409
 1066POPC   C3B17121  12.612  43.132   8.129
 1066POPC   C4B17122  12.650  43.062   7.746
 1067POPC   NC317123  38.513  27.247   9.640
 1067POPC   PO417124  38.623  26.632   9.613
 1067POPC   GL117125  38.498  26.806   9.224
 1067POPC   GL217126  38.196  27.012   9.196
 1067POPC   C1A17127  38.414  26.715   8.792
 1067POPC   D2A17128  38.522  26.891   8.402
 1067POPC   C3A17129  38.483  26.638   8.024
 1067POPC   C4A17130  38.579  26.838   7.648
 1067POPC   C1B17131  38.269  27.215   8.791
 1067POPC   C2B17132  38.279  27.336   8.344
 1067POPC   C3B17133  38.174  27.030   8.008
 1067POPC   C4B17134  38.000  27.104   7.607
 1068POPC   NC317135   5.207  34.444   9.704
 1068POPC   PO417136   4.883  34.924   9.280
 1068POPC   GL117137   5.091  34.578   9.075
 1068POPC   GL217138   5.226  34.228   9.131
 1068POPC   C1A17139   4.993  34.491   8.636
 1068POPC   D2A17140   4.711  34.612   8.280
 1068POPC   C3A17141   4.853  34.703   7.879
 1068POPC   C4A17142   5.260  34.807   7.685
 1068POPC   C1B17143   5.476  34.390   8.782
 1068POPC   C2B17144   5.414  34.697   8.435
 1068POPC   C3B17145   5.464  34.533   8.053
 1068POPC   C4B17146   5.185  34.295   7.784
 1069POPC   NC317147  38.020   0.551   9.400
 1069POPC   PO417148  38.647   0.245   9.499
 1069POPC   GL117149  38.420   0.327   9.133
 1069POPC   GL217150  38.121   0.116   9.129
 1069POPC   C1A17151  38.506   0.486   8.721
 1069POPC   D2A17152  38.746   0.557   8.365
 1069POPC   C3A17153  38.530   0.817   8.122
 1069POPC   C4A17154  38.246   0.711   7.859
 1069POPC   C1B17155  38.022   0.307   8.733
 1069POPC   C2B17156  38.083   0.466   8.298
 1069POPC   C3B17157  38.011   0.257   7.871
 1069POPC   C4B17158  38.065   0.164   7.396
 1070POPC   NC317159   6.766  30.882   9.652
 1070POPC   PO417160   6.575  31.476   9.483
 1070POPC   GL117161   6.826  31.376   9.159
 1070POPC   GL217162   7.153  31.246   9.267
 1070POPC   C1A17163   6.675  31.422   8.757
 1070POPC   D2A17164   6.613  31.535   8.332
 1070POPC   C3A17165   6.791  31.811   8.048
 1070POPC   C4A17166   6.813  31.616   7.646
 1070POPC   C1B17167   7.156  31.158   8.810
 1070POPC   C2B17168   6.884  31.111   8.421
 1070POPC   C3B17169   6.934  31.257   8.016
 1070POPC   C4B17170   6.846  31.086   7.619
 1071POPC   NC317171   0.211  19.461   9.404
 1071POPC   PO417172   0.636  19.965   9.519
 1071POPC   GL117173   0.530  20.104   9.112
 1071POPC   GL217174   0.397  19.792   9.052
 1071POPC   C1A17175   0.586  20.052   8.647
 1071POPC   D2A17176   0.296  20.012   8.304
 1071POPC   C3A17177   0.470  19.961   7.878
 1071POPC   C4A17178   0.598  20.080   7.413
 1071POPC   C1B17179   0.126  19.739   8.712
 1071POPC   C2B17180   0.002  19.575   8.327
 1071POPC   C3B17181  44.953  19.817   7.942
 1071POPC   C4B17182  44.978  19.638   7.539
 1072POPC   NC317183  31.853  32.963   9.529
 1072POPC   PO417184  31.178  33.034   9.477
 1072POPC   GL117185  31.467  32.983   9.213
 1072POPC   GL217186  31.521  32.617   9.323
 1072POPC   C1A17187  31.486  33.101   8.805
 1072POPC   D2A17188  31.582  33.189   8.395
 1072POPC   C3A17189  31.208  33.088   8.156
 1072POPC   C4A17190  31.208  33.180   7.730
 1072POPC   C1B17191  31.487  32.590   8.899
 1072POPC   C2B17192  31.696  32.719   8.547
 1072POPC   C3B17193  31.596  32.750   8.114
 1072POPC   C4B17194  31.567  32.811   7.688
 1073POPC   NC317195   6.008  39.400   9.524
 1073POPC   PO417196   5.710  38.851   9.673
 1073POPC   GL117197   5.823  39.057   9.222
 1073POPC   GL217198   6.102  39.026   9.068
 1073POPC   C1A17199   5.704  39.355   8.841
 1073POPC   D2A17200   5.804  39.566   8.421
 1073POPC   C3A17201   5.568  39.461   8.025
 1073POPC   C4A17202   5.642  39.241   7.611
 1073POPC   C1B17203   6.186  39.229   8.685
 1073POPC   C2B17204   6.241  39.326   8.259
 1073POPC   C3B17205   6.054  39.144   7.897
 1073POPC   C4B17206   6.113  38.980   7.467
 1074POPC   NC317207  33.598  19.876   9.562
 1074POPC   PO417208  34.197  19.679   9.369
 1074POPC   GL117209  33.877  19.719   9.094
 1074POPC   GL217210  33.809  20.063   9.143
 1074POPC   C1A17211  33.863  19.876   8.671
 1074POPC   D2A17212  34.053  20.162   8.377
 1074POPC   C3A17213  33.921  19.998   7.991
 1074POPC   C4A17214  33.974  19.670   7.705
 1074POPC   C1B17215  33.447  20.116   8.849
 1074POPC   C2B17216  33.537  20.180   8.406
 1074POPC   C3B17217  33.413  20.046   7.995
 1074POPC   C4B17218  33.572  19.964   7.579
 1075POPC   NC317219  11.878  21.384   9.879
 1075POPC   PO417220  11.347  21.544   9.411
 1075POPC   GL117221  11.266  21.416   9.014
 1075POPC   GL217222  11.441  21.095   9.040
 1075POPC   C1A17223  11.260  21.660   8.642
 1075POPC   D2A17224  11.013  21.733   8.276
 1075POPC   C3A17225  11.221  21.785   7.877
 1075POPC   C4A17226  11.259  21.596   7.419
 1075POPC   C1B17227  11.562  21.195   8.618
 1075POPC   C2B17228  11.459  21.412   8.221
 1075POPC   C3B17229  11.320  21.278   7.818
 1075POPC   C4B17230  11.552  21.183   7.437
 1076POPC   NC317231  32.591   3.965   9.480
 1076POPC   PO417232  31.865   4.186   9.532
 1076POPC   GL117233  32.129   4.246   9.176
 1076POPC   GL217234  32.443   4.406   9.243
 1076POPC   C1A17235  32.212   4.120   8.756
 1076POPC   D2A17236  32.202   4.359   8.394
 1076POPC   C3A17237  32.218   4.165   7.986
 1076POPC   C4A17238  32.084   4.272   7.565
 1076POPC   C1B17239  32.561   4.461   8.808
 1076POPC   C2B17240  32.713   4.477   8.418
 1076POPC   C3B17241  32.625   4.660   8.057
 1076POPC   C4B17242  32.519   4.463   7.692
 1077POPC   NC317243   2.079  39.607   9.528
 1077POPC   PO417244   1.679  39.029   9.414
 1077POPC   GL117245   1.951  39.264   9.140
 1077POPC   GL217246   1.870  39.590   9.054
 1077POPC   C1A17247   2.171  39.179   8.742
 1077POPC   D2A17248   2.215  38.992   8.338
 1077POPC   C3A17249   2.011  39.043   7.937
 1077POPC   C4A17250   1.680  39.207   7.645
 1077POPC   C1B17251   2.107  39.684   8.718
 1077POPC   C2B17252   2.254  39.541   8.361
 1077POPC   C3B17253   2.096  39.542   7.976
 1077POPC   C4B17254   2.145  39.361   7.560
 1078POPC   NC317255  13.059  10.731   9.476
 1078POPC   PO417256  12.624  10.142   9.503
 1078POPC   GL117257  12.709  10.227   9.091
 1078POPC   GL217258  13.043  10.261   9.189
 1078POPC   C1A17259  12.602  10.429   8.686
 1078POPC   D2A17260  12.712  10.797   8.418
 1078POPC   C3A17261  12.760  10.683   7.976
 1078POPC   C4A17262  13.102  10.783   7.671
 1078POPC   C1B17263  13.138  10.375   8.759
 1078POPC   C2B17264  12.983  10.345   8.333
 1078POPC   C3B17265  13.154  10.337   7.927
 1078POPC   C4B17266  13.208   9.994   7.668
 1079POPC   NC317267  21.647   4.847   9.619
 1079POPC   PO417268  21.007   5.048   9.486
 1079POPC   GL117269  21.242   5.056   9.127
 1079POPC   GL217270  21.549   4.859   9.099
 1079POPC   C1A17271  21.159   4.956   8.691
 1079POPC   D2A17272  21.225   4.721   8.333
 1079POPC   C3A17273  21.426   4.913   7.989
 1079POPC   C4A17274  21.317   5.166   7.634
 1079POPC   C1B17275  21.593   5.226   8.787
 1079POPC   C2B17276  21.515   5.296   8.333
 1079POPC   C3B17277  21.696   5.383   7.903
 1079POPC   C4B17278  21.678   5.517   7.456
 1080POPC   NC317279  29.364  39.255   9.602
 1080POPC   PO417280  28.884  38.902   9.423
 1080POPC   GL117281  29.142  39.074   9.116
 1080POPC   GL217282  29.465  39.258   9.102
 1080POPC   C1A17283  28.947  39.223   8.738
 1080POPC   D2A17284  28.957  39.014   8.368
 1080POPC   C3A17285  29.023  39.303   8.123
 1080POPC   C4A17286  28.952  39.463   7.762
 1080POPC   C1B17287  29.418  39.094   8.658
 1080POPC   C2B17288  29.492  39.402   8.321
 1080POPC   C3B17289  29.455  39.361   7.882
 1080POPC   C4B17290  29.242  38.971   7.785
 1081POPC   NC317291  17.046  32.620   9.554
 1081POPC   PO417292  16.867  33.229   9.532
 1081POPC   GL117293  16.740  33.214   9.135
 1081POPC   GL217294  16.752  32.854   9.189
 1081POPC   C1A17295  16.891  33.274   8.723
 1081POPC   D2A17296  16.718  33.117   8.361
 1081POPC   C3A17297  16.691  33.277   7.966
 1081POPC   C4A17298  16.537  33.091   7.644
 1081POPC   C1B17299  16.611  32.796   8.798
 1081POPC   C2B17300  16.697  32.619   8.376
 1081POPC   C3B17301  16.767  32.734   7.970
 1081POPC   C4B17302  16.774  32.557   7.573
 1082POPC   NC317303   8.940  31.309   9.581
 1082POPC   PO417304   9.126  30.659   9.477
 1082POPC   GL117305   9.226  30.705   9.092
 1082POPC   GL217306   9.186  31.071   9.146
 1082POPC   C1A17307   9.222  30.493   8.698
 1082POPC   D2A17308   9.337  30.385   8.286
 1082POPC   C3A17309   9.088  30.385   7.924
 1082POPC   C4A17310   8.716  30.467   7.714
 1082POPC   C1B17311   8.861  30.902   8.825
 1082POPC   C2B17312   8.739  31.030   8.408
 1082POPC   C3B17313   8.884  30.847   8.030
 1082POPC   C4B17314   9.059  30.865   7.613
 1083POPC   NC317315   7.995  40.208   9.474
 1083POPC   PO417316   8.249  39.545   9.475
 1083POPC   GL117317   8.184  39.806   9.106
 1083POPC   GL217318   8.304  40.135   9.064
 1083POPC   C1A17319   8.290  39.727   8.680
 1083POPC   D2A17320   8.408  39.672   8.262
 1083POPC   C3A17321   8.121  39.756   7.968
 1083POPC   C4A17322   7.974  40.078   7.702
 1083POPC   C1B17323   8.120  40.234   8.622
 1083POPC   C2B17324   8.101  40.315   8.156
 1083POPC   C3B17325   7.944  40.565   7.818
 1083POPC   C4B17326   7.826  40.450   7.367
 1084POPC   NC317327  17.017  42.953   9.609
 1084POPC   PO417328  16.279  42.989   9.699
 1084POPC   GL117329  16.495  42.892   9.264
 1084POPC   GL217330  16.801  43.019   9.161
 1084POPC   C1A17331  16.507  42.920   8.756
 1084POPC   D2A17332  16.510  43.260   8.405
 1084POPC   C3A17333  16.654  43.214   7.975
 1084POPC   C4A17334  16.387  42.892   7.779
 1084POPC   C1B17335  17.018  42.922   8.760
 1084POPC   C2B17336  16.890  42.933   8.326
 1084POPC   C3B17337  16.914  42.781   7.859
 1084POPC   C4B17338  17.108  42.860   7.426
 1085POPC   NC317339  19.365   0.930   9.323
 1085POPC   PO417340  18.837   1.230   9.680
 1085POPC   GL117341  18.995   1.287   9.216
 1085POPC   GL217342  19.090   1.617   9.062
 1085POPC   C1A17343  18.847   1.232   8.779
 1085POPC   D2A17344  18.587   1.015   8.484
 1085POPC   C3A17345  18.765   1.104   8.075
 1085POPC   C4A17346  18.922   1.358   7.720
 1085POPC   C1B17347  19.276   1.498   8.692
 1085POPC   C2B17348  19.145   1.437   8.271
 1085POPC   C3B17349  19.395   1.552   7.915
 1085POPC   C4B17350  19.375   1.532   7.470
 1086POPC   NC317351  28.370  35.790   9.552
 1086POPC   PO417352  28.667  36.404   9.480
 1086POPC   GL117353  28.376  36.320   9.159
 1086POPC   GL217354  28.115  36.096   9.151
 1086POPC   C1A17355  28.400  36.232   8.729
 1086POPC   D2A17356  28.642  36.422   8.403
 1086POPC   C3A17357  28.576  36.256   7.989
 1086POPC   C4A17358  28.339  36.344   7.643
 1086POPC   C1B17359  27.901  35.843   8.824
 1086POPC   C2B17360  27.941  35.858   8.393
 1086POPC   C3B17361  27.708  35.770   8.018
 1086POPC   C4B17362  27.888  35.986   7.682
 1087POPC   NC317363  27.380  31.335   9.413
 1087POPC   PO417364  27.776  31.734   9.548
 1087POPC   GL117365  27.775  31.521   9.151
 1087POPC   GL217366  27.596  31.233   8.969
 1087POPC   C1A17367  28.014  31.444   8.807
 1087POPC   D2A17368  27.796  31.243   8.484
 1087POPC   C3A17369  27.741  31.417   8.050
 1087POPC   C4A17370  27.999  31.433   7.674
 1087POPC   C1B17371  27.305  31.468   8.711
 1087POPC   C2B17372  27.076  31.463   8.312
 1087POPC   C3B17373  27.202  31.513   7.881
 1087POPC   C4B17374  27.498  31.339   7.595
 1088POPC   NC317375   3.290  10.012   9.535
 1088POPC   PO417376   3.278   9.301   9.537
 1088POPC   GL117377   3.410   9.600   9.212
 1088POPC   GL217378   3.722   9.767   9.363
 1088POPC   C1A17379   3.310   9.702   8.753
 1088POPC   D2A17380   3.258   9.530   8.304
 1088POPC   C3A17381   3.396   9.733   7.902
 1088POPC   C4A17382   3.734   9.562   7.645
 1088POPC   C1B17383   3.826   9.962   8.970
 1088POPC   C2B17384   3.717   9.980   8.554
 1088POPC   C3B17385   3.798   9.881   8.157
 1088POPC   C4B17386   3.879  10.055   7.789
 1089POPC   NC317387  37.544   9.069   9.399
 1089POPC   PO417388  38.052   8.665   9.482
 1089POPC   GL117389  37.884   8.843   9.112
 1089POPC   GL217390  37.963   9.214   9.149
 1089POPC   C1A17391  37.693   8.958   8.723
 1089POPC   D2A17392  37.858   8.999   8.317
 1089POPC   C3A17393  37.538   9.119   8.045
 1089POPC   C4A17394  37.431   9.050   7.663
 1089POPC   C1B17395  38.151   9.174   8.737
 1089POPC   C2B17396  38.118   9.448   8.344
 1089POPC   C3B17397  38.005   9.315   7.907
 1089POPC   C4B17398  38.040   9.355   7.452
 1090POPC   NC317399  23.394  17.344   9.822
 1090POPC   PO417400  23.952  17.544   9.472
 1090POPC   GL117401  23.763  17.416   9.149
 1090POPC   GL217402  23.390  17.443   9.230
 1090POPC   C1A17403  23.881  17.634   8.772
 1090POPC   D2A17404  24.121  17.698   8.397
 1090POPC   C3A17405  23.824  17.752   8.071
 1090POPC   C4A17406  23.802  17.965   7.683
 1090POPC   C1B17407  23.395  17.404   8.805
 1090POPC   C2B17408  23.488  17.646   8.448
 1090POPC   C3B17409  23.321  17.630   8.061
 1090POPC   C4B17410  23.508  17.546   7.696
 1091POPC   NC317411  43.979  29.976   9.370
 1091POPC   PO417412  43.305  29.925   9.407
 1091POPC   GL117413  43.396  30.097   9.040
 1091POPC   GL217414  43.630  29.838   9.030
 1091POPC   C1A17415  43.710  30.286   8.795
 1091POPC   D2A17416  43.967  30.150   8.466
 1091POPC   C3A17417  43.852  30.163   8.031
 1091POPC   C4A17418  44.128  30.112   7.683
 1091POPC   C1B17419  43.881  29.707   8.728
 1091POPC   C2B17420  43.843  29.678   8.299
 1091POPC   C3B17421  44.034  29.672   7.931
 1091POPC   C4B17422  43.997  29.408   7.521
 1092POPC   NC317423   4.793  37.051   9.531
 1092POPC   PO417424   5.205  36.511   9.644
 1092POPC   GL117425   5.222  36.767   9.249
 1092POPC   GL217426   5.380  37.122   9.182
 1092POPC   C1A17427   5.266  36.677   8.814
 1092POPC   D2A17428   5.161  36.890   8.423
 1092POPC   C3A17429   5.251  36.697   8.022
 1092POPC   C4A17430   4.913  36.689   7.759
 1092POPC   C1B17431   5.025  37.152   8.864
 1092POPC   C2B17432   4.812  37.284   8.468
 1092POPC   C3B17433   4.832  37.138   8.041
 1092POPC   C4B17434   5.030  37.157   7.627
 1093POPC   NC317435   8.415  10.175   9.520
 1093POPC   PO417436   8.352  10.842   9.513
 1093POPC   GL117437   8.132  10.640   9.163
 1093POPC   GL217438   8.081  10.286   9.160
 1093POPC   C1A17439   8.187  10.542   8.725
 1093POPC   D2A17440   8.550  10.564   8.453
 1093POPC   C3A17441   8.397  10.789   8.094
 1093POPC   C4A17442   8.209  10.601   7.729
 1093POPC   C1B17443   8.380  10.101   8.877
 1093POPC   C2B17444   8.363  10.024   8.495
 1093POPC   C3B17445   8.335  10.254   8.112
 1093POPC   C4B17446   8.559  10.239   7.731
 1094POPC   NC317447  14.183  17.366   9.450
 1094POPC   PO417448  14.448  17.896   9.558
 1094POPC   GL117449  14.336  17.731   9.125
 1094POPC   GL217450  14.000  17.651   9.061
 1094POPC   C1A17451  14.325  17.451   8.722
 1094POPC   D2A17452  14.203  17.455   8.266
 1094POPC   C3A17453  14.500  17.287   7.920
 1094POPC   C4A17454  14.855  17.342   7.598
 1094POPC   C1B17455  13.950  17.791   8.601
 1094POPC   C2B17456  13.879  17.837   8.147
 1094POPC   C3B17457  14.075  17.629   7.781
 1094POPC   C4B17458  14.027  17.713   7.299
 1095POPC   NC317459   3.766  22.633   9.350
 1095POPC   PO417460   3.237  23.052   9.457
 1095POPC   GL117461   3.386  22.858   9.073
 1095POPC   GL217462   3.564  23.148   9.071
 1095POPC   C1A17463   3.646  22.820   8.663
 1095POPC   D2A17464   3.616  23.147   8.305
 1095POPC   C3A17465   3.525  23.013   7.910
 1095POPC   C4A17466   3.611  22.560   7.776
 1095POPC   C1B17467   3.789  23.292   8.772
 1095POPC   C2B17468   4.080  23.126   8.496
 1095POPC   C3B17469   4.111  23.032   8.086
 1095POPC   C4B17470   3.959  23.041   7.686
 1096POPC   NC317471  10.183   6.761   9.479
 1096POPC   PO417472  10.752   6.421   9.540
 1096POPC   GL117473  10.673   6.662   9.191
 1096POPC   GL217474  10.335   6.634   9.008
 1096POPC   C1A17475  10.786   6.721   8.771
 1096POPC   D2A17476  10.448   6.689   8.473
 1096POPC   C3A17477  10.548   6.847   8.082
 1096POPC   C4A17478  10.784   6.627   7.781
 1096POPC   C1B17479  10.084   6.945   8.764
 1096POPC   C2B17480  10.154   7.157   8.337
 1096POPC   C3B17481  10.056   7.050   7.930
 1096POPC   C4B17482  10.269   6.736   7.664
 1097POPC   NC317483  11.682  23.870   9.436
 1097POPC   PO417484  11.450  23.223   9.482
 1097POPC   GL117485  11.437  23.536   9.142
 1097POPC   GL217486  11.122  23.758   9.076
 1097POPC   C1A17487  11.544  23.815   8.791
 1097POPC   D2A17488  11.303  23.865   8.431
 1097POPC   C3A17489  11.502  23.802   8.044
 1097POPC   C4A17490  11.784  24.038   7.824
 1097POPC   C1B17491  11.168  23.444   8.710
 1097POPC   C2B17492  11.167  23.401   8.230
 1097POPC   C3B17493  11.059  23.609   7.850
 1097POPC   C4B17494  11.160  23.516   7.426
 1098POPC   NC317495  44.008   1.365   9.418
 1098POPC   PO417496  43.675   0.788   9.504
 1098POPC   GL117497  43.577   1.092   9.199
 1098POPC   GL217498  43.413   1.405   9.258
 1098POPC   C1A17499  43.589   1.221   8.781
 1098POPC   D2A17500  43.844   1.247   8.442
 1098POPC   C3A17501  43.682   1.126   8.042
 1098POPC   C4A17502  43.822   1.353   7.663
 1098POPC   C1B17503  43.552   1.701   8.926
 1098POPC   C2B17504  43.497   1.646   8.471
 1098POPC   C3B17505  43.749   1.636   8.093
 1098POPC   C4B17506  43.648   1.839   7.710
 1099POPC   NC317507  36.113   0.761   9.627
 1099POPC   PO417508  36.301   1.399   9.500
 1099POPC   GL117509  36.022   1.339   9.237
 1099POPC   GL217510  36.108   1.011   9.182
 1099POPC   C1A17511  36.062   1.351   8.809
 1099POPC   D2A17512  35.909   1.442   8.445
 1099POPC   C3A17513  36.128   1.291   8.097
 1099POPC   C4A17514  36.079   1.253   7.665
 1099POPC   C1B17515  36.335   0.920   8.783
 1099POPC   C2B17516  36.364   0.871   8.316
 1099POPC   C3B17517  36.425   0.872   7.858
 1099POPC   C4B17518  36.327   0.878   7.403
 1100POPC   NC317519  36.768   1.423   9.503
 1100POPC   PO417520  36.668   0.746   9.593
 1100POPC   GL117521  36.670   0.995   9.184
 1100POPC   GL217522  36.632   1.348   9.011
 1100POPC   C1A17523  37.015   0.987   8.885
 1100POPC   D2A17524  37.200   0.820   8.492
 1100POPC   C3A17525  36.950   0.991   8.196
 1100POPC   C4A17526  36.910   1.030   7.784
 1100POPC   C1B17527  37.020   1.484   8.713
 1100POPC   C2B17528  37.090   1.654   8.265
 1100POPC   C3B17529  37.094   1.516   7.790
 1100POPC   C4B17530  37.211   1.518   7.288
 1101POPC   NC317531  43.512   7.844   9.604
 1101POPC   PO417532  43.321   8.438   9.639
 1101POPC   GL117533  43.245   8.126   9.268
 1101POPC   GL217534  42.930   7.887   9.273
 1101POPC   C1A17535  43.286   8.094   8.815
 1101POPC   D2A17536  43.216   8.443   8.515
 1101POPC   C3A17537  43.140   8.374   8.081
 1101POPC   C4A17538  43.101   8.420   7.650
 1101POPC   C1B17539  42.777   7.951   8.849
 1101POPC   C2B17540  42.962   7.936   8.427
 1101POPC   C3B17541  42.842   7.960   8.001
 1101POPC   C4B17542  43.197   7.908   7.754
 1102POPC   NC317543   5.649  41.139   9.732
 1102POPC   PO417544   6.042  40.653   9.499
 1102POPC   GL117545   5.961  40.893   9.117
 1102POPC   GL217546   5.745  41.160   9.233
 1102POPC   C1A17547   6.040  40.817   8.686
 1102POPC   D2A17548   5.909  40.519   8.376
 1102POPC   C3A17549   5.788  40.474   7.952
 1102POPC   C4A17550   5.950  40.834   7.750
 1102POPC   C1B17551   5.510  41.050   8.874
 1102POPC   C2B17552   5.605  40.954   8.449
 1102POPC   C3B17553   5.504  40.882   8.043
 1102POPC   C4B17554   5.462  40.746   7.633
 1103POPC   NC317555  11.114   9.097   9.591
 1103POPC   PO417556  11.712   8.824   9.516
 1103POPC   GL117557  11.386   8.869   9.200
 1103POPC   GL217558  11.359   9.240   9.167
 1103POPC   C1A17559  11.452   8.938   8.739
 1103POPC   D2A17560  11.603   8.844   8.300
 1103POPC   C3A17561  11.419   9.087   8.036
 1103POPC   C4A17562  11.150   8.984   7.733
 1103POPC   C1B17563  11.112   9.328   8.761
 1103POPC   C2B17564  10.995   9.190   8.326
 1103POPC   C3B17565  11.027   9.433   7.926
 1103POPC   C4B17566  10.968   9.343   7.456
 1104POPC   NC317567  40.216  41.104   9.439
 1104POPC   PO417568  39.741  40.605   9.533
 1104POPC   GL117569  39.935  40.777   9.167
 1104POPC   GL217570  39.725  41.053   9.161
 1104POPC   C1A17571  40.139  40.651   8.764
 1104POPC   D2A17572  39.913  40.469   8.390
 1104POPC   C3A17573  40.077  40.559   7.986
 1104POPC   C4A17574  40.006  40.692   7.565
 1104POPC   C1B17575  39.855  41.095   8.758
 1104POPC   C2B17576  40.077  40.986   8.379
 1104POPC   C3B17577  40.175  41.099   7.989
 1104POPC   C4B17578  39.894  41.189   7.641
 1105POPC   NC317579  35.117  32.131   9.550
 1105POPC   PO417580  35.688  32.424   9.693
 1105POPC   GL117581  35.590  32.262   9.265
 1105POPC   GL217582  35.274  32.108   9.073
 1105POPC   C1A17583  35.673  32.282   8.823
 1105POPC   D2A17584  35.450  32.024   8.529
 1105POPC   C3A17585  35.486  32.151   8.111
 1105POPC   C4A17586  35.491  32.129   7.688
 1105POPC   C1B17587  35.170  32.412   8.731
 1105POPC   C2B17588  35.167  32.529   8.280
 1105POPC   C3B17589  35.084  32.449   7.857
 1105POPC   C4B17590  35.015  32.728   7.491
 1106POPC   NC317591  33.911  43.486   9.500
 1106POPC   PO417592  33.634  42.784   9.473
 1106POPC   GL117593  33.899  43.005   9.196
 1106POPC   GL217594  34.020  42.769   8.975
 1106POPC   C1A17595  33.842  43.219   8.797
 1106POPC   D2A17596  33.901  43.365   8.382
 1106POPC   C3A17597  33.633  43.370   8.041
 1106POPC   C4A17598  33.729  43.222   7.642
 1106POPC   C1B17599  33.607  42.737   8.745
 1106POPC   C2B17600  33.512  42.945   8.324
 1106POPC   C3B17601  33.455  42.807   7.842
 1106POPC   C4B17602  33.379  42.989   7.382
 1107POPC   NC317603   2.037  26.337   9.286
 1107POPC   PO417604   1.991  25.753   9.575
 1107POPC   GL117605   2.039  25.861   9.116
 1107POPC   GL217606   2.302  25.726   8.962
 1107POPC   C1A17607   1.874  25.873   8.672
 1107POPC   D2A17608   1.842  25.729   8.236
 1107POPC   C3A17609   1.858  26.062   7.935
 1107POPC   C4A17610   1.823  26.115   7.486
 1107POPC   C1B17611   2.316  26.118   8.716
 1107POPC   C2B17612   2.424  26.207   8.313
 1107POPC   C3B17613   2.338  25.927   7.991
 1107POPC   C4B17614   2.147  25.707   7.685
 1108POPC   NC317615  21.573  13.694   9.602
 1108POPC   PO417616  20.999  13.331   9.505
 1108POPC   GL117617  21.257  13.592   9.203
 1108POPC   GL217618  21.059  13.805   9.106
 1108POPC   C1A17619  21.423  13.783   8.762
 1108POPC   D2A17620  21.614  13.697   8.331
 1108POPC   C3A17621  21.457  13.813   7.899
 1108POPC   C4A17622  21.585  13.802   7.423
 1108POPC   C1B17623  20.921  13.663   8.736
 1108POPC   C2B17624  21.087  13.701   8.329
 1108POPC   C3B17625  20.936  13.639   7.928
 1108POPC   C4B17626  21.109  13.623   7.530
 1109POPC   NC317627  17.695  24.543   9.547
 1109POPC   PO417628  17.000  24.638   9.389
 1109POPC   GL117629  17.322  24.442   9.107
 1109POPC   GL217630  17.671  24.425   9.049
 1109POPC   C1A17631  17.344  24.273   8.681
 1109POPC   D2A17632  17.332  24.511   8.308
 1109POPC   C3A17633  17.521  24.423   7.954
 1109POPC   C4A17634  17.452  24.528   7.544
 1109POPC   C1B17635  17.579  24.737   8.715
 1109POPC   C2B17636  17.677  24.904   8.287
 1109POPC   C3B17637  17.776  24.851   7.831
 1109POPC   C4B17638  17.940  24.593   7.463
 1110POPC   NC317639  22.521   6.338   9.554
 1110POPC   PO417640  23.018   6.763   9.613
 1110POPC   GL117641  22.761   6.768   9.242
 1110POPC   GL217642  22.880   6.466   9.159
 1110POPC   C1A17643  22.694   6.743   8.771
 1110POPC   D2A17644  22.957   6.723   8.367
 1110POPC   C3A17645  22.922   6.442   7.996
 1110POPC   C4A17646  22.805   6.449   7.550
 1110POPC   C1B17647  23.156   6.475   8.782
 1110POPC   C2B17648  23.386   6.435   8.389
 1110POPC   C3B17649  23.504   6.450   7.959
 1110POPC   C4B17650  23.277   6.628   7.639
 1111POPC   NC317651  44.053  28.097   9.773
 1111POPC   PO417652  43.605  28.527   9.708
 1111POPC   GL117653  43.742  28.303   9.293
 1111POPC   GL217654  44.036  28.080   9.239
 1111POPC   C1A17655  43.872  28.361   8.839
 1111POPC   D2A17656  43.990  28.588   8.468
 1111POPC   C3A17657  44.093  28.458   8.047
 1111POPC   C4A17658  43.811  28.285   7.758
 1111POPC   C1B17659  44.121  27.919   8.803
 1111POPC   C2B17660  44.169  28.065   8.368
 1111POPC   C3B17661  44.166  27.949   7.915
 1111POPC   C4B17662  44.041  27.927   7.435
 1112POPC   NC317663   1.334   2.325   9.433
 1112POPC   PO417664   1.072   2.877   9.766
 1112POPC   GL117665   1.022   2.792   9.247
 1112POPC   GL217666   1.293   3.018   9.062
 1112POPC   C1A17667   1.238   2.584   8.820
 1112POPC   D2A17668   1.424   2.495   8.399
 1112POPC   C3A17669   1.225   2.624   8.016
 1112POPC   C4A17670   1.225   2.837   7.654
 1112POPC   C1B17671   1.563   3.007   8.718
 1112POPC   C2B17672   1.383   3.030   8.302
 1112POPC   C3B17673   1.628   3.084   7.912
 1112POPC   C4B17674   1.653   2.986   7.461
 1113POPC   NC317675  24.189  20.337   9.352
 1113POPC   PO417676  23.526  20.698   9.412
 1113POPC   GL117677  23.718  20.471   9.129
 1113POPC   GL217678  23.920  20.724   9.063
 1113POPC   C1A17679  23.838  20.320   8.729
 1113POPC   D2A17680  24.099  20.197   8.388
 1113POPC   C3A17681  23.905  20.291   7.991
 1113POPC   C4A17682  23.778  20.337   7.588
 1113POPC   C1B17683  23.602  20.781   8.721
 1113POPC   C2B17684  23.372  20.880   8.357
 1113POPC   C3B17685  23.514  21.103   8.019
 1113POPC   C4B17686  23.753  20.804   7.808
 1114POPC   NC317687  22.221  14.637   9.809
 1114POPC   PO417688  21.921  14.029   9.607
 1114POPC   GL117689  22.184  14.215   9.220
 1114POPC   GL217690  22.258  14.597   9.132
 1114POPC   C1A17691  22.055  14.292   8.770
 1114POPC   D2A17692  21.838  14.447   8.377
 1114POPC   C3A17693  21.827  14.203   7.992
 1114POPC   C4A17694  21.907  14.176   7.567
 1114POPC   C1B17695  22.517  14.489   8.734
 1114POPC   C2B17696  22.499  14.174   8.363
 1114POPC   C3B17697  22.358  14.167   7.935
 1114POPC   C4B17698  22.306  14.593   7.772
 1115POPC   NC317699  14.925  35.056   9.582
 1115POPC   PO417700  15.431  35.521   9.644
 1115POPC   GL117701  15.338  35.247   9.293
 1115POPC   GL217702  15.003  35.321   9.153
 1115POPC   C1A17703  15.400  35.196   8.851
 1115POPC   D2A17704  15.120  35.147   8.509
 1115POPC   C3A17705  15.094  35.397   8.189
 1115POPC   C4A17706  15.258  35.252   7.786
 1115POPC   C1B17707  14.727  35.269   8.810
 1115POPC   C2B17708  14.591  35.083   8.421
 1115POPC   C3B17709  14.756  35.102   8.005
 1115POPC   C4B17710  14.783  35.460   7.762
 1116POPC   NC317711  18.141  30.404   9.464
 1116POPC   PO417712  17.956  29.742   9.424
 1116POPC   GL117713  18.023  30.060   9.085
 1116POPC   GL217714  17.923  30.432   9.015
 1116POPC   C1A17715  18.210  29.998   8.681
 1116POPC   D2A17716  18.026  29.884   8.279
 1116POPC   C3A17717  18.298  29.941   7.904
 1116POPC   C4A17718  18.390  29.742   7.491
 1116POPC   C1B17719  17.798  30.276   8.640
 1116POPC   C2B17720  18.048  30.395   8.310
 1116POPC   C3B17721  18.054  30.394   7.892
 1116POPC   C4B17722  18.414  30.402   7.665
 1117POPC   NC317723  30.949  32.537   9.492
 1117POPC   PO417724  30.590  31.922   9.446
 1117POPC   GL117725  30.790  32.127   9.116
 1117POPC   GL217726  30.673  32.460   9.035
 1117POPC   C1A17727  30.639  32.075   8.688
 1117POPC   D2A17728  30.778  32.228   8.298
 1117POPC   C3A17729  30.586  31.931   8.016
 1117POPC   C4A17730  30.473  31.934   7.605
 1117POPC   C1B17731  31.027  32.416   8.750
 1117POPC   C2B17732  31.213  32.597   8.395
 1117POPC   C3B17733  31.110  32.614   7.939
 1117POPC   C4B17734  30.945  32.213   7.791
 1118POPC   NC317735  23.811  16.299   9.478
 1118POPC   PO417736  23.651  15.635   9.527
 1118POPC   GL117737  23.639  15.710   9.142
 1118POPC   GL217738  23.479  16.008   9.096
 1118POPC   C1A17739  23.923  15.898   8.848
 1118POPC   D2A17740  23.957  16.084   8.454
 1118POPC   C3A17741  23.716  15.876   8.161
 1118POPC   C4A17742  23.929  15.893   7.794
 1118POPC   C1B17743  23.452  16.205   8.701
 1118POPC   C2B17744  23.572  16.383   8.301
 1118POPC   C3B17745  23.455  16.208   7.884
 1118POPC   C4B17746  23.161  16.026   7.573
 1119POPC   NC317747   5.421  33.803   9.475
 1119POPC   PO417748   6.060  33.677   9.323
 1119POPC   GL117749   5.783  33.717   9.064
 1119POPC   GL217750   5.697  34.024   9.083
 1119POPC   C1A17751   5.776  33.506   8.678
 1119POPC   D2A17752   5.772  33.625   8.274
 1119POPC   C3A17753   6.089  33.802   8.078
 1119POPC   C4A17754   6.001  33.878   7.660
 1119POPC   C1B17755   5.859  34.053   8.675
 1119POPC   C2B17756   5.550  34.081   8.370
 1119POPC   C3B17757   5.566  34.002   7.966
 1119POPC   C4B17758   5.736  34.294   7.694
 1120POPC   NC317759  11.620  24.658   9.435
 1120POPC   PO417760  11.270  24.107   9.425
 1120POPC   GL117761  11.339  24.356   9.124
 1120POPC   GL217762  11.127  24.632   9.266
 1120POPC   C1A17763  11.464  24.329   8.709
 1120POPC   D2A17764  11.563  24.276   8.277
 1120POPC   C3A17765  11.238  24.221   8.027
 1120POPC   C4A17766  11.376  24.469   7.710
 1120POPC   C1B17767  11.088  24.679   8.829
 1120POPC   C2B17768  11.067  24.489   8.422
 1120POPC   C3B17769  10.969  24.639   8.032
 1120POPC   C4B17770  11.015  24.825   7.673
 1121POPC   NC317771   2.266  33.429   9.436
 1121POPC   PO417772   1.794  32.892   9.381
 1121POPC   GL117773   2.051  32.861   9.042
 1121POPC   GL217774   2.074  33.215   9.031
 1121POPC   C1A17775   2.167  32.956   8.602
 1121POPC   D2A17776   2.265  33.208   8.229
 1121POPC   C3A17777   2.131  33.025   7.863
 1121POPC   C4A17778   2.144  32.939   7.416
 1121POPC   C1B17779   1.721  33.196   8.765
 1121POPC   C2B17780   1.776  33.329   8.349
 1121POPC   C3B17781   1.658  33.161   7.970
 1121POPC   C4B17782   1.781  33.255   7.553
 1122POPC   NC317783  12.445  20.684   9.462
 1122POPC   PO417784  13.019  20.562   9.702
 1122POPC   GL117785  12.923  20.617   9.235
 1122POPC   GL217786  12.667  20.373   9.120
 1122POPC   C1A17787  12.962  20.879   8.846
 1122POPC   D2A17788  12.962  21.089   8.428
 1122POPC   C3A17789  12.743  20.891   8.050
 1122POPC   C4A17790  12.937  20.896   7.601
 1122POPC   C1B17791  12.958  20.361   8.769
 1122POPC   C2B17792  13.034  20.581   8.374
 1122POPC   C3B17793  13.075  20.521   7.927
 1122POPC   C4B17794  13.010  20.227   7.586
 1123POPC   NC317795  32.553  27.225   9.912
 1123POPC   PO417796  32.051  26.796   9.607
 1123POPC   GL117797  32.160  26.819   9.176
 1123POPC   GL217798  32.507  26.714   9.080
 1123POPC   C1A17799  31.928  26.848   8.781
 1123POPC   D2A17800  31.810  26.891   8.356
 1123POPC   C3A17801  32.128  26.699   8.073
 1123POPC   C4A17802  32.014  26.372   7.745
 1123POPC   C1B17803  32.405  27.074   8.784
 1123POPC   C2B17804  32.446  27.191   8.368
 1123POPC   C3B17805  32.519  27.046   7.964
 1123POPC   C4B17806  32.343  26.789   7.605
 1124POPC   NC317807   6.829  11.513   9.482
 1124POPC   PO417808   6.587  10.908   9.543
 1124POPC   GL117809   6.452  11.018   9.159
 1124POPC   GL217810   6.696  11.240   9.030
 1124POPC   C1A17811   6.431  10.841   8.766
 1124POPC   D2A17812   6.563  11.010   8.378
 1124POPC   C3A17813   6.367  10.909   8.014
 1124POPC   C4A17814   6.511  10.954   7.605
 1124POPC   C1B17815   6.761  11.516   8.669
 1124POPC   C2B17816   6.615  11.488   8.237
 1124POPC   C3B17817   6.772  11.264   7.890
 1124POPC   C4B17818   6.803  11.390   7.441
 1125POPC   NC317819  20.369  41.499   9.431
 1125POPC   PO417820  20.959  41.983   9.542
 1125POPC   GL117821  20.754  41.831   9.169
 1125POPC   GL217822  20.735  41.466   9.081
 1125POPC   C1A17823  20.793  41.845   8.723
 1125POPC   D2A17824  20.804  41.475   8.481
 1125POPC   C3A17825  20.700  41.477   8.049
 1125POPC   C4A17826  20.552  41.717   7.698
 1125POPC   C1B17827  20.380  41.485   8.786
 1125POPC   C2B17828  20.310  41.367   8.388
 1125POPC   C3B17829  20.163  41.436   8.002
 1125POPC   C4B17830  20.219  41.355   7.572
 1126POPC   NC317831  39.533  12.680   9.362
 1126POPC   PO417832  39.943  13.261   9.478
 1126POPC   GL117833  40.098  12.953   9.185
 1126POPC   GL217834  40.439  13.010   9.087
 1126POPC   C1A17835  40.035  12.793   8.776
 1126POPC   D2A17836  39.774  12.846   8.432
 1126POPC   C3A17837  39.937  12.704   8.067
 1126POPC   C4A17838  39.750  12.761   7.703
 1126POPC   C1B17839  40.341  13.190   8.720
 1126POPC   C2B17840  40.286  12.991   8.356
 1126POPC   C3B17841  40.200  13.125   7.978
 1126POPC   C4B17842  40.272  12.931   7.637
 1127POPC   NC317843  27.723  38.632   9.413
 1127POPC   PO417844  27.348  38.107   9.684
 1127POPC   GL117845  27.560  38.098   9.203
 1127POPC   GL217846  27.820  38.326   9.014
 1127POPC   C1A17847  27.507  38.113   8.699
 1127POPC   D2A17848  27.429  38.466   8.390
 1127POPC   C3A17849  27.444  38.313   7.959
 1127POPC   C4A17850  27.854  38.200   7.859
 1127POPC   C1B17851  27.951  38.687   8.765
 1127POPC   C2B17852  27.922  38.853   8.383
 1127POPC   C3B17853  27.781  38.684   8.052
 1127POPC   C4B17854  27.964  38.689   7.672
 1128POPC   NC317855  38.750  31.668   9.423
 1128POPC   PO417856  38.259  31.306   9.680
 1128POPC   GL117857  38.416  31.261   9.255
 1128POPC   GL217858  38.215  31.516   9.135
 1128POPC   C1A17859  38.648  31.372   8.847
 1128POPC   D2A17860  38.678  31.581   8.434
 1128POPC   C3A17861  38.535  31.392   8.065
 1128POPC   C4A17862  38.531  31.562   7.650
 1128POPC   C1B17863  38.344  31.769   8.776
 1128POPC   C2B17864  38.205  31.758   8.370
 1128POPC   C3B17865  38.243  31.857   7.977
 1128POPC   C4B17866  38.040  31.706   7.679
 1129POPC   NC317867  34.899  11.489   9.481
 1129POPC   PO417868  34.485  10.945   9.445
 1129POPC   GL117869  34.578  11.298   9.131
 1129POPC   GL217870  34.378  11.578   8.987
 1129POPC   C1A17871  34.849  11.499   8.802
 1129POPC   D2A17872  34.871  11.325   8.399
 1129POPC   C3A17873  34.646  11.447   8.029
 1129POPC   C4A17874  34.923  11.418   7.693
 1129POPC   C1B17875  34.383  11.304   8.621
 1129POPC   C2B17876  34.206  11.199   8.214
 1129POPC   C3B17877  34.185  10.965   7.821
 1129POPC   C4B17878  34.522  11.132   7.578
 1130POPC   NC317879  27.829   9.389   9.475
 1130POPC   PO417880  28.038   8.835   9.700
 1130POPC   GL117881  27.559   8.981   9.336
 1130POPC   GL217882  27.599   9.245   9.044
 1130POPC   C1A17883  27.545   8.799   8.822
 1130POPC   D2A17884  27.977   8.697   8.605
 1130POPC   C3A17885  28.029   8.693   8.140
 1130POPC   C4A17886  27.928   8.674   7.688
 1130POPC   C1B17887  27.466   9.258   8.591
 1130POPC   C2B17888  27.451   8.956   8.244
 1130POPC   C3B17889  27.606   9.036   7.838
 1130POPC   C4B17890  27.897   9.355   7.735
 1131POPC   NC317891  35.335  44.336   9.472
 1131POPC   PO417892  35.216   0.053   9.500
 1131POPC   GL117893  35.330  44.767   9.154
 1131POPC   GL217894  35.524  44.473   9.022
 1131POPC   C1A17895  35.265  44.876   8.720
 1131POPC   D2A17896  35.340   0.047   8.294
 1131POPC   C3A17897  35.571  44.734   8.029
 1131POPC   C4A17898  35.509  44.439   7.683
 1131POPC   C1B17899  35.320  44.286   8.658
 1131POPC   C2B17900  35.320  44.276   8.193
 1131POPC   C3B17901  35.007  44.319   7.860
 1131POPC   C4B17902  35.001  44.495   7.446
 1132POPC   NC317903  34.110  44.959   9.555
 1132POPC   PO417904  33.535  44.678   9.343
 1132POPC   GL117905  33.669  44.722   8.989
 1132POPC   GL217906  34.010  44.721   9.094
 1132POPC   C1A17907  33.809  44.564   8.621
 1132POPC   D2A17908  33.637  44.500   8.237
 1132POPC   C3A17909  33.971  44.401   8.013
 1132POPC   C4A17910  34.100  44.529   7.591
 1132POPC   C1B17911  34.046   0.006   8.736
 1132POPC   C2B17912  33.895  44.988   8.328
 1132POPC   C3B17913  34.130  44.873   8.002
 1132POPC   C4B17914  34.120   0.026   7.636
 1133POPC   NC317915  27.947  17.014   9.361
 1133POPC   PO417916  28.598  17.142   9.374
 1133POPC   GL117917  28.447  16.700   9.168
 1133POPC   GL217918  28.130  16.744   8.977
 1133POPC   C1A17919  28.381  16.363   8.790
 1133POPC   D2A17920  28.458  16.498   8.364
 1133POPC   C3A17921  28.212  16.480   7.985
 1133POPC   C4A17922  28.496  16.622   7.665
 1133POPC   C1B17923  28.459  16.912   8.705
 1133POPC   C2B17924  28.403  17.113   8.338
 1133POPC   C3B17925  28.338  17.002   7.947
 1133POPC   C4B17926  28.427  17.113   7.520
 1134POPC   NC317927  24.530  33.122   9.871
 1134POPC   PO417928  24.739  32.612   9.459
 1134POPC   GL117929  24.575  32.685   9.042
 1134POPC   GL217930  24.462  33.046   9.078
 1134POPC   C1A17931  24.465  32.862   8.620
 1134POPC   D2A17932  24.135  33.102   8.420
 1134POPC   C3A17933  24.248  33.027   8.003
 1134POPC   C4A17934  24.721  32.914   7.815
 1134POPC   C1B17935  24.557  33.345   8.711
 1134POPC   C2B17936  24.616  33.307   8.233
 1134POPC   C3B17937  24.521  33.357   7.769
 1134POPC   C4B17938  24.212  33.314   7.413
 1135POPC   NC317939   7.774  34.144   9.570
 1135POPC   PO417940   7.172  34.442   9.617
 1135POPC   GL117941   7.481  34.479   9.256
 1135POPC   GL217942   7.602  34.825   9.143
 1135POPC   C1A17943   7.499  34.484   8.803
 1135POPC   D2A17944   7.241  34.368   8.465
 1135POPC   C3A17945   7.318  34.533   8.054
 1135POPC   C4A17946   7.329  34.597   7.618
 1135POPC   C1B17947   7.810  34.892   8.750
 1135POPC   C2B17948   7.750  34.662   8.343
 1135POPC   C3B17949   7.698  34.850   7.906
 1135POPC   C4B17950   7.801  34.788   7.445
 1136POPC   NC317951  34.683   2.433   9.221
 1136POPC   PO417952  34.613   1.856   9.531
 1136POPC   GL117953  34.466   1.804   9.124
 1136POPC   GL217954  34.304   2.126   9.038
 1136POPC   C1A17955  34.610   1.856   8.693
 1136POPC   D2A17956  34.616   2.179   8.347
 1136POPC   C3A17957  34.809   1.965   7.992
 1136POPC   C4A17958  34.757   1.545   7.880
 1136POPC   C1B17959  34.270   2.439   8.681
 1136POPC   C2B17960  34.143   2.377   8.245
 1136POPC   C3B17961  34.359   2.171   7.885
 1136POPC   C4B17962  34.689   2.287   7.579
 1137POPC   NC317963  37.913   7.685   9.447
 1137POPC   PO417964  37.514   7.136   9.424
 1137POPC   GL117965  37.721   7.365   9.074
 1137POPC   GL217966  38.003   7.158   9.035
 1137POPC   C1A17967  37.692   7.623   8.657
 1137POPC   D2A17968  37.364   7.683   8.345
 1137POPC   C3A17969  37.540   7.683   7.922
 1137POPC   C4A17970  37.716   7.405   7.585
 1137POPC   C1B17971  37.785   7.126   8.621
 1137POPC   C2B17972  37.802   7.335   8.211
 1137POPC   C3B17973  38.107   7.252   7.878
 1137POPC   C4B17974  38.103   7.025   7.448
 1138POPC   NC317975  35.864  44.117   9.508
 1138POPC   PO417976  35.256  43.887   9.605
 1138POPC   GL117977  35.192  43.898   9.172
 1138POPC   GL217978  35.526  43.958   9.145
 1138POPC   C1A17979  35.031  43.845   8.735
 1138POPC   D2A17980  34.919  43.956   8.288
 1138POPC   C3A17981  35.181  43.834   7.954
 1138POPC   C4A17982  35.218  43.599   7.589
 1138POPC   C1B17983  35.501  43.644   8.822
 1138POPC   C2B17984  35.431  43.746   8.403
 1138POPC   C3B17985  35.697  43.688   8.063
 1138POPC   C4B17986  35.636  43.898   7.727
 1139POPC   NC317987  40.665  19.596   9.441
 1139POPC   PO417988  40.938  20.202   9.400
 1139POPC   GL117989  40.758  19.963   9.082
 1139POPC   GL217990  40.427  19.956   9.183
 1139POPC   C1A17991  40.777  19.748   8.700
 1139POPC   D2A17992  40.978  19.874   8.330
 1139POPC   C3A17993  41.089  19.626   7.986
 1139POPC   C4A17994  40.951  19.967   7.724
 1139POPC   C1B17995  40.318  20.010   8.789
 1139POPC   C2B17996  40.336  19.874   8.373
 1139POPC   C3B17997  40.488  19.938   7.944
 1139POPC   C4B17998  40.303  19.974   7.505
 1140POPC   NC317999  25.499  21.648   9.535
 1140POPC   PO418000  24.983  21.942   9.360
 1140POPC   GL118001  25.343  21.927   9.075
 1140POPC   GL218002  25.586  22.171   9.217
 1140POPC   C1A18003  25.290  21.966   8.613
 1140POPC   D2A18004  24.980  22.195   8.330
 1140POPC   C3A18005  24.987  22.007   7.915
 1140POPC   C4A18006  25.337  22.008   7.596
 1140POPC   C1B18007  25.465  22.384   8.832
 1140POPC   C2B18008  25.463  22.394   8.354
 1140POPC   C3B18009  25.297  22.397   7.914
 1140POPC   C4B18010  25.358  22.531   7.473
 1141POPC   NC318011  42.613  32.775   9.330
 1141POPC   PO418012  42.062  33.112   9.499
 1141POPC   GL118013  42.139  32.977   9.109
 1141POPC   GL218014  42.411  33.130   8.970
 1141POPC   C1A18015  41.936  32.818   8.772
 1141POPC   D2A18016  42.025  33.012   8.406
 1141POPC   C3A18017  41.912  32.841   8.028
 1141POPC   C4A18018  42.095  32.838   7.663
 1141POPC   C1B18019  42.436  32.724   8.699
 1141POPC   C2B18020  42.546  32.459   8.313
 1141POPC   C3B18021  42.538  32.669   7.891
 1141POPC   C4B18022  42.485  33.143   7.799
 1142POPC   NC318023  29.729  21.632   9.323
 1142POPC   PO418024  30.090  21.134   9.568
 1142POPC   GL118025  29.935  21.165   9.135
 1142POPC   GL218026  29.830  21.442   8.887
 1142POPC   C1A18027  30.073  21.048   8.726
 1142POPC   D2A18028  29.788  21.155   8.411
 1142POPC   C3A18029  29.876  21.325   8.016
 1142POPC   C4A18030  29.878  21.222   7.616
 1142POPC   C1B18031  29.455  21.537   8.661
 1142POPC   C2B18032  29.486  21.673   8.257
 1142POPC   C3B18033  29.796  21.858   8.007
 1142POPC   C4B18034  29.981  21.702   7.653
 1143POPC   NC318035  16.823  14.767   9.462
 1143POPC   PO418036  16.727  15.336   9.538
 1143POPC   GL118037  16.586  15.109   9.148
 1143POPC   GL218038  16.365  15.375   9.083
 1143POPC   C1A18039  16.748  14.949   8.734
 1143POPC   D2A18040  16.957  15.183   8.393
 1143POPC   C3A18041  16.842  15.023   7.990
 1143POPC   C4A18042  16.751  15.172   7.574
 1143POPC   C1B18043  16.489  15.393   8.676
 1143POPC   C2B18044  16.466  15.253   8.275
 1143POPC   C3B18045  16.460  15.461   7.880
 1143POPC   C4B18046  16.362  15.480   7.411
 1144POPC   NC318047  41.204  40.960   9.392
 1144POPC   PO418048  41.432  40.317   9.566
 1144POPC   GL118049  41.546  40.612   9.204
 1144POPC   GL218050  41.517  40.946   9.008
 1144POPC   C1A18051  41.718  40.561   8.784
 1144POPC   D2A18052  41.452  40.754   8.475
 1144POPC   C3A18053  41.676  40.699   8.103
 1144POPC   C4A18054  41.585  40.641   7.697
 1144POPC   C1B18055  41.470  41.216   8.671
 1144POPC   C2B18056  41.518  41.184   8.208
 1144POPC   C3B18057  41.367  41.138   7.772
 1144POPC   C4B18058  41.262  41.269   7.325
 1145POPC   NC318059  41.998   8.398   9.438
 1145POPC   PO418060  41.420   8.029   9.644
 1145POPC   GL118061  41.511   8.060   9.227
 1145POPC   GL218062  41.548   8.407   9.183
 1145POPC   C1A18063  41.375   8.049   8.793
 1145POPC   D2A18064  41.578   7.952   8.398
 1145POPC   C3A18065  41.430   8.015   7.997
 1145POPC   C4A18066  41.580   7.922   7.606
 1145POPC   C1B18067  41.593   8.589   8.803
 1145POPC   C2B18068  41.433   8.511   8.406
 1145POPC   C3B18069  41.586   8.509   8.003
 1145POPC   C4B18070  41.382   8.420   7.594
 1146POPC   NC318071  43.789   9.381   9.460
 1146POPC   PO418072  43.261   9.876   9.576
 1146POPC   GL118073  43.520   9.980   9.160
 1146POPC   GL218074  43.679   9.667   9.011
 1146POPC   C1A18075  43.701  10.113   8.743
 1146POPC   D2A18076  43.949   9.943   8.415
 1146POPC   C3A18077  44.098  10.048   8.013
 1146POPC   C4A18078  43.866   9.963   7.617
 1146POPC   C1B18079  44.106   9.608   8.786
 1146POPC   C2B18080  44.166   9.498   8.330
 1146POPC   C3B18081  43.909   9.570   7.947
 1146POPC   C4B18082  43.863   9.461   7.481
 1147POPC   NC318083  31.968  14.708   9.635
 1147POPC   PO418084  32.227  14.112   9.438
 1147POPC   GL118085  32.038  14.301   9.087
 1147POPC   GL218086  31.950  14.681   9.106
 1147POPC   C1A18087  32.101  14.191   8.660
 1147POPC   D2A18088  31.993  14.456   8.325
 1147POPC   C3A18089  32.129  14.387   7.912
 1147POPC   C4A18090  31.939  14.083   7.671
 1147POPC   C1B18091  32.341  14.631   8.845
 1147POPC   C2B18092  32.507  14.515   8.419
 1147POPC   C3B18093  32.594  14.695   8.008
 1147POPC   C4B18094  32.351  14.748   7.631
 1148POPC   NC318095  41.412  24.783   9.507
 1148POPC   PO418096  41.847  24.160   9.397
 1148POPC   GL118097  41.901  24.394   9.061
 1148POPC   GL218098  41.567  24.562   9.067
 1148POPC   C1A18099  41.788  24.313   8.660
 1148POPC   D2A18100  41.621  24.430   8.287
 1148POPC   C3A18101  41.765  24.458   7.909
 1148POPC   C4A18102  41.661  24.799   7.656
 1148POPC   C1B18103  41.296  24.526   8.698
 1148POPC   C2B18104  41.126  24.366   8.287
 1148POPC   C3B18105  41.247  24.542   7.908
 1148POPC   C4B18106  41.402  24.357   7.529
 1149POPC   NC318107  23.397  27.520   9.555
 1149POPC   PO418108  23.847  27.976   9.539
 1149POPC   GL118109  23.847  27.646   9.229
 1149POPC   GL218110  23.518  27.538   9.075
 1149POPC   C1A18111  23.913  27.633   8.787
 1149POPC   D2A18112  23.622  27.768   8.483
 1149POPC   C3A18113  23.873  27.797   8.160
 1149POPC   C4A18114  23.765  27.611   7.782
 1149POPC   C1B18115  23.502  27.296   8.683
 1149POPC   C2B18116  23.384  27.368   8.226
 1149POPC   C3B18117  23.396  27.249   7.781
 1149POPC   C4B18118  23.514  27.445   7.360
 1150POPC   NC318119  41.345  15.173   9.508
 1150POPC   PO418120  42.041  15.416   9.486
 1150POPC   GL118121  41.833  15.528   9.107
 1150POPC   GL218122  41.474  15.420   9.077
 1150POPC   C1A18123  41.751  15.415   8.662
 1150POPC   D2A18124  41.414  15.231   8.451
 1150POPC   C3A18125  41.556  15.059   8.106
 1150POPC   C4A18126  41.604  15.214   7.703
 1150POPC   C1B18127  41.315  15.713   8.738
 1150POPC   C2B18128  41.194  15.700   8.300
 1150POPC   C3B18129  41.170  15.371   7.986
 1150POPC   C4B18130  41.152  15.361   7.526
 1151POPC   NC318131  41.975   9.169   9.551
 1151POPC   PO418132  42.649   9.086   9.610
 1151POPC   GL118133  42.403   9.045   9.249
 1151POPC   GL218134  42.134   8.822   9.205
 1151POPC   C1A18135  42.419   9.079   8.822
 1151POPC   D2A18136  42.253   9.321   8.515
 1151POPC   C3A18137  42.244   9.119   8.132
 1151POPC   C4A18138  42.035   9.300   7.790
 1151POPC   C1B18139  42.141   8.610   8.810
 1151POPC   C2B18140  42.313   8.678   8.395
 1151POPC   C3B18141  42.122   8.633   7.986
 1151POPC   C4B18142  42.209   8.717   7.557
 1152POPC   NC318143  33.747   0.925   9.656
 1152POPC   PO418144  34.078   1.436   9.441
 1152POPC   GL118145  33.773   1.322   9.138
 1152POPC   GL218146  33.582   1.016   9.191
 1152POPC   C1A18147  33.558   1.577   8.788
 1152POPC   D2A18148  33.574   1.654   8.342
 1152POPC   C3A18149  33.920   1.438   8.189
 1152POPC   C4A18150  34.010   1.268   7.795
 1152POPC   C1B18151  33.551   1.069   8.766
 1152POPC   C2B18152  33.694   1.021   8.364
 1152POPC   C3B18153  33.539   1.074   7.937
 1152POPC   C4B18154  33.505   0.753   7.599
 1153POPC   NC318155  30.197  27.688   9.412
 1153POPC   PO418156  29.504  27.406   9.468
 1153POPC   GL118157  29.791  27.484   9.148
 1153POPC   GL218158  29.752  27.861   9.200
 1153POPC   C1A18159  30.040  27.364   8.755
 1153POPC   D2A18160  30.256  27.497   8.361
 1153POPC   C3A18161  30.121  27.252   8.035
 1153POPC   C4A18162  29.782  27.400   7.809
 1153POPC   C1B18163  29.665  27.796   8.766
 1153POPC   C2B18164  29.616  27.828   8.338
 1153POPC   C3B18165  29.771  27.882   7.956
 1153POPC   C4B18166  30.199  27.747   7.860
 1154POPC   NC318167   0.516  44.242   9.230
 1154POPC   PO418168   0.238  43.699   9.505
 1154POPC   GL118169   0.181  43.845   9.125
 1154POPC   GL218170   0.534  43.750   9.052
 1154POPC   C1A18171   0.219  44.004   8.707
 1154POPC   D2A18172   0.276  43.824   8.330
 1154POPC   C3A18173   0.148  44.003   7.981
 1154POPC   C4A18174   0.377  44.100   7.637
 1154POPC   C1B18175   0.678  43.693   8.618
 1154POPC   C2B18176   0.646  43.478   8.209
 1154POPC   C3B18177   0.580  43.528   7.761
 1154POPC   C4B18178   0.833  43.449   7.397
 1155POPC   NC318179  42.790  27.769   9.403
 1155POPC   PO418180  43.206  27.293   9.454
 1155POPC   GL118181  43.201  27.575   9.123
 1155POPC   GL218182  42.896  27.439   9.029
 1155POPC   C1A18183  43.286  27.481   8.692
 1155POPC   D2A18184  43.571  27.387   8.386
 1155POPC   C3A18185  43.399  27.424   7.976
 1155POPC   C4A18186  43.142  27.731   7.827
 1155POPC   C1B18187  42.864  27.777   8.730
 1155POPC   C2B18188  42.876  27.686   8.288
 1155POPC   C3B18189  42.665  27.684   7.884
 1155POPC   C4B18190  42.794  27.510   7.454
 1156POPC   NC318191   2.730  28.106   9.781
 1156POPC   PO418192   3.109  28.596   9.538
 1156POPC   GL118193   2.892  28.462   9.215
 1156POPC   GL218194   2.934  28.149   9.289
 1156POPC   C1A18195   2.833  28.573   8.790
 1156POPC   D2A18196   3.014  28.418   8.412
 1156POPC   C3A18197   2.688  28.315   8.148
 1156POPC   C4A18198   2.664  28.452   7.717
 1156POPC   C1B18199   3.076  28.131   8.859
 1156POPC   C2B18200   3.004  27.898   8.513
 1156POPC   C3B18201   3.085  27.991   8.123
 1156POPC   C4B18202   2.794  27.926   7.842
 1157POPC   NC318203   4.164   0.118   9.427
 1157POPC   PO418204   4.490   0.671   9.474
 1157POPC   GL118205   4.387   0.453   9.109
 1157POPC   GL218206   4.053   0.585   9.128
 1157POPC   C1A18207   4.504   0.349   8.698
 1157POPC   D2A18208   4.734   0.366   8.305
 1157POPC   C3A18209   4.495   0.354   7.966
 1157POPC   C4A18210   4.327   0.513   7.602
 1157POPC   C1B18211   3.985   0.379   8.734
 1157POPC   C2B18212   4.147   0.251   8.332
 1157POPC   C3B18213   3.979   0.271   7.890
 1157POPC   C4B18214   3.834   0.676   7.688
 1158POPC   NC318215  23.820   0.254   9.423
 1158POPC   PO418216  23.591   0.856   9.363
 1158POPC   GL118217  23.422   0.460   9.157
 1158POPC   GL218218  23.734   0.488   8.980
 1158POPC   C1A18219  23.443   0.171   8.730
 1158POPC   D2A18220  23.563   0.314   8.281
 1158POPC   C3A18221  23.470   0.201   7.834
 1158POPC   C4A18222  23.804   0.133   7.536
 1158POPC   C1B18223  23.451   0.683   8.696
 1158POPC   C2B18224  23.482   0.824   8.296
 1158POPC   C3B18225  23.540   0.687   7.863
 1158POPC   C4B18226  23.520   0.604   7.421
 1159POPC   NC318227  13.855  13.931   9.555
 1159POPC   PO418228  13.395  13.481   9.457
 1159POPC   GL118229  13.577  13.554   9.113
 1159POPC   GL218230  13.559  13.844   9.128
 1159POPC   C1A18231  13.731  13.433   8.731
 1159POPC   D2A18232  13.548  13.619   8.370
 1159POPC   C3A18233  13.711  13.455   7.991
 1159POPC   C4A18234  13.421  13.251   7.759
 1159POPC   C1B18235  13.451  14.032   8.777
 1159POPC   C2B18236  13.360  14.181   8.413
 1159POPC   C3B18237  13.438  14.021   8.042
 1159POPC   C4B18238  13.589  13.863   7.692
 1160POPC   NC318239  32.033  22.784   9.456
 1160POPC   PO418240  32.570  23.198   9.521
 1160POPC   GL118241  32.262  23.186   9.201
 1160POPC   GL218242  32.457  23.369   9.011
 1160POPC   C1A18243  32.147  22.898   8.837
 1160POPC   D2A18244  32.282  22.722   8.437
 1160POPC   C3A18245  31.993  22.774   8.107
 1160POPC   C4A18246  32.069  22.662   7.701
 1160POPC   C1B18247  32.481  23.203   8.619
 1160POPC   C2B18248  32.397  23.170   8.202
 1160POPC   C3B18249  32.282  23.116   7.822
 1160POPC   C4B18250  32.549  22.937   7.572
 1161POPC   NC318251  33.437  31.223   9.513
 1161POPC   PO418252  34.059  31.522   9.476
 1161POPC   GL118253  33.984  31.528   9.068
 1161POPC   GL218254  33.663  31.456   9.104
 1161POPC   C1A18255  33.932  31.312   8.676
 1161POPC   D2A18256  34.099  31.387   8.295
 1161POPC   C3A18257  33.838  31.373   7.951
 1161POPC   C4A18258  33.997  31.550   7.614
 1161POPC   C1B18259  33.459  31.501   8.715
 1161POPC   C2B18260  33.526  31.577   8.323
 1161POPC   C3B18261  33.316  31.688   7.983
 1161POPC   C4B18262  33.459  31.600   7.598
 1162POPC   NC318263  36.478  36.647   9.240
 1162POPC   PO418264  37.153  36.775   9.441
 1162POPC   GL118265  36.988  36.737   9.050
 1162POPC   GL218266  36.827  37.023   9.104
 1162POPC   C1A18267  37.062  36.620   8.619
 1162POPC   D2A18268  37.109  36.757   8.183
 1162POPC   C3A18269  36.777  36.607   7.917
 1162POPC   C4A18270  36.564  36.944   7.768
 1162POPC   C1B18271  36.709  37.053   8.665
 1162POPC   C2B18272  36.464  37.010   8.278
 1162POPC   C3B18273  36.224  37.249   7.967
 1162POPC   C4B18274  36.219  37.197   7.480
 1163POPC   NC318275  10.320  41.986   9.631
 1163POPC   PO418276  10.592  42.483   9.403
 1163POPC   GL118277  10.505  42.266   9.066
 1163POPC   GL218278  10.190  42.103   9.145
 1163POPC   C1A18279  10.477  42.357   8.649
 1163POPC   D2A18280  10.650  42.382   8.229
 1163POPC   C3A18281  10.478  42.422   7.809
 1163POPC   C4A18282  10.618  42.322   7.376
 1163POPC   C1B18283  10.041  41.949   8.756
 1163POPC   C2B18284  10.170  42.094   8.347
 1163POPC   C3B18285  10.394  41.958   8.023
 1163POPC   C4B18286  10.291  41.982   7.637
 1164POPC   NC318287  21.119   8.255   9.631
 1164POPC   PO418288  21.691   8.179   9.637
 1164POPC   GL118289  21.437   8.263   9.245
 1164POPC   GL218290  21.235   7.947   9.153
 1164POPC   C1A18291  21.368   8.279   8.778
 1164POPC   D2A18292  21.275   8.441   8.342
 1164POPC   C3A18293  21.582   8.381   8.004
 1164POPC   C4A18294  21.542   8.215   7.593
 1164POPC   C1B18295  21.349   7.748   8.729
 1164POPC   C2B18296  21.441   7.890   8.275
 1164POPC   C3B18297  21.163   8.103   7.969
 1164POPC   C4B18298  20.957   7.969   7.613
 1165POPC   NC318299  32.007  40.984   9.477
 1165POPC   PO418300  32.478  40.550   9.477
 1165POPC   GL118301  32.411  40.869   9.173
 1165POPC   GL218302  32.493  40.649   8.970
 1165POPC   C1A18303  32.171  40.978   8.793
 1165POPC   D2A18304  32.222  41.006   8.343
 1165POPC   C3A18305  32.122  40.639   8.088
 1165POPC   C4A18306  32.394  40.752   7.755
 1165POPC   C1B18307  32.649  40.849   8.608
 1165POPC   C2B18308  32.523  40.549   8.369
 1165POPC   C3B18309  32.589  40.361   8.012
 1165POPC   C4B18310  32.516  40.217   7.628
 1166POPC   NC318311  12.546  36.217   9.471
 1166POPC   PO418312  13.145  35.961   9.392
 1166POPC   GL118313  12.861  36.059   9.077
 1166POPC   GL218314  12.513  35.989   9.014
 1166POPC   C1A18315  12.959  36.181   8.688
 1166POPC   D2A18316  12.770  36.168   8.361
 1166POPC   C3A18317  12.976  36.291   7.989
 1166POPC   C4A18318  13.011  36.333   7.534
 1166POPC   C1B18319  12.697  35.715   8.716
 1166POPC   C2B18320  12.619  35.638   8.286
 1166POPC   C3B18321  12.563  35.939   7.979
 1166POPC   C4B18322  12.886  35.856   7.743
 1167POPC   NC318323  44.256   4.047   9.386
 1167POPC   PO418324  44.678   4.378   9.793
 1167POPC   GL118325  44.633   4.435   9.362
 1167POPC   GL218326  44.754   4.104   9.238
 1167POPC   C1A18327  44.673   4.652   8.964
 1167POPC   D2A18328  44.730   4.785   8.544
 1167POPC   C3A18329  44.798   4.513   8.229
 1167POPC   C4A18330  44.762   4.591   7.810
 1167POPC   C1B18331  44.819   3.881   8.850
 1167POPC   C2B18332  44.712   4.017   8.432
 1167POPC   C3B18333  44.801   4.054   8.002
 1167POPC   C4B18334  44.520   3.938   7.707
 1168POPC   NC318335  11.679   0.289   9.490
 1168POPC   PO418336  11.038   0.530   9.535
 1168POPC   GL118337  11.257   0.363   9.170
 1168POPC   GL218338  11.504   0.624   9.139
 1168POPC   C1A18339  11.460   0.224   8.755
 1168POPC   D2A18340  11.273   0.080   8.350
 1168POPC   C3A18341  11.183   0.378   8.000
 1168POPC   C4A18342  11.089   0.393   7.557
 1168POPC   C1B18343  11.263   0.690   8.760
 1168POPC   C2B18344  11.431   0.611   8.384
 1168POPC   C3B18345  11.548   0.740   7.996
 1168POPC   C4B18346  11.596   0.490   7.694
 1169POPC   NC318347  33.764  26.298   9.317
 1169POPC   PO418348  33.745  26.979   9.479
 1169POPC   GL118349  33.828  27.092   9.071
 1169POPC   GL218350  34.189  27.172   9.047
 1169POPC   C1A18351  33.782  26.764   8.778
 1169POPC   D2A18352  33.853  26.586   8.397
 1169POPC   C3A18353  33.652  26.791   8.078
 1169POPC   C4A18354  33.702  26.816   7.691
 1169POPC   C1B18355  34.147  27.090   8.669
 1169POPC   C2B18356  33.912  27.121   8.354
 1169POPC   C3B18357  33.997  27.169   7.934
 1169POPC   C4B18358  34.120  27.022   7.556
 1170POPC   NC318359  35.920  38.638   9.916
 1170POPC   PO418360  35.530  38.562   9.362
 1170POPC   GL118361  35.317  38.412   9.035
 1170POPC   GL218362  34.971  38.469   9.055
 1170POPC   C1A18363  35.503  38.330   8.638
 1170POPC   D2A18364  35.578  37.980   8.370
 1170POPC   C3A18365  35.572  38.208   7.973
 1170POPC   C4A18366  35.704  38.646   7.839
 1170POPC   C1B18367  35.077  38.640   8.613
 1170POPC   C2B18368  35.228  38.615   8.161
 1170POPC   C3B18369  35.232  38.926   7.809
 1170POPC   C4B18370  35.051  38.966   7.370
 1171POPC   NC318371  30.185  30.570   9.557
 1171POPC   PO418372  29.557  30.778   9.618
 1171POPC   GL118373  29.700  30.712   9.212
 1171POPC   GL218374  29.816  30.378   9.204
 1171POPC   C1A18375  29.933  30.920   8.877
 1171POPC   D2A18376  30.189  30.974   8.495
 1171POPC   C3A18377  29.994  30.986   8.108
 1171POPC   C4A18378  29.738  30.860   7.767
 1171POPC   C1B18379  29.957  30.368   8.775
 1171POPC   C2B18380  30.043  30.505   8.346
 1171POPC   C3B18381  30.080  30.494   7.893
 1171POPC   C4B18382  29.875  30.393   7.514
 1172POPC   NC318383  21.926  18.077   9.642
 1172POPC   PO418384  22.209  17.437   9.492
 1172POPC   GL118385  22.072  17.518   9.092
 1172POPC   GL218386  21.734  17.340   9.040
 1172POPC   C1A18387  22.347  17.564   8.739
 1172POPC   D2A18388  22.603  17.437   8.400
 1172POPC   C3A18389  22.478  17.562   8.014
 1172POPC   C4A18390  22.321  17.647   7.629
 1172POPC   C1B18391  21.982  17.207   8.695
 1172POPC   C2B18392  22.078  17.390   8.303
 1172POPC   C3B18393  21.947  17.409   7.873
 1172POPC   C4B18394  21.997  17.166   7.503
 1173POPC   NC318395  39.648  24.566   9.617
 1173POPC   PO418396  40.243  24.403   9.454
 1173POPC   GL118397  39.882  24.385   9.129
 1173POPC   GL218398  39.633  24.110   9.201
 1173POPC   C1A18399  39.844  24.597   8.693
 1173POPC   D2A18400  40.187  24.813   8.414
 1173POPC   C3A18401  40.207  24.647   7.994
 1173POPC   C4A18402  40.008  24.734   7.555
 1173POPC   C1B18403  39.776  24.050   8.718
 1173POPC   C2B18404  39.926  24.222   8.297
 1173POPC   C3B18405  39.877  24.283   7.827
 1173POPC   C4B18406  39.681  24.038   7.488
 1174POPC   NC318407  35.369   7.644   9.502
 1174POPC   PO418408  35.255   7.000   9.433
 1174POPC   GL118409  35.235   7.306   9.103
 1174POPC   GL218410  35.410   7.643   9.008
 1174POPC   C1A18411  35.214   7.301   8.665
 1174POPC   D2A18412  34.936   7.441   8.368
 1174POPC   C3A18413  35.124   7.359   8.021
 1174POPC   C4A18414  35.125   7.276   7.634
 1174POPC   C1B18415  35.697   7.335   8.830
 1174POPC   C2B18416  35.779   7.465   8.413
 1174POPC   C3B18417  35.567   7.693   8.136
 1174POPC   C4B18418  35.508   7.580   7.737
 1175POPC   NC318419  33.791  22.370   9.483
 1175POPC   PO418420  33.572  21.756   9.391
 1175POPC   GL118421  33.722  21.939   9.012
 1175POPC   GL218422  33.911  22.220   9.031
 1175POPC   C1A18423  33.594  22.217   8.646
 1175POPC   D2A18424  33.824  22.402   8.300
 1175POPC   C3A18425  33.824  22.418   7.874
 1175POPC   C4A18426  33.920  22.002   7.756
 1175POPC   C1B18427  34.095  22.118   8.649
 1175POPC   C2B18428  34.339  22.376   8.408
 1175POPC   C3B18429  34.329  22.346   7.987
 1175POPC   C4B18430  34.262  22.441   7.561
 1176POPC   NC318431  27.691  28.064   9.533
 1176POPC   PO418432  27.040  28.169   9.492
 1176POPC   GL118433  27.260  28.399   9.126
 1176POPC   GL218434  27.640  28.490   9.194
 1176POPC   C1A18435  27.498  28.336   8.713
 1176POPC   D2A18436  27.747  28.103   8.381
 1176POPC   C3A18437  27.544  28.158   7.986
 1176POPC   C4A18438  27.308  28.528   7.846
 1176POPC   C1B18439  27.883  28.669   8.834
 1176POPC   C2B18440  27.977  28.570   8.417
 1176POPC   C3B18441  27.781  28.632   8.027
 1176POPC   C4B18442  27.829  28.690   7.597
 1177POPC   NC318443  39.441  31.489   9.531
 1177POPC   PO418444  40.126  31.399   9.511
 1177POPC   GL118445  40.101  31.626   9.113
 1177POPC   GL218446  40.391  31.478   9.073
 1177POPC   C1A18447  39.882  31.828   8.741
 1177POPC   D2A18448  39.499  31.962   8.490
 1177POPC   C3A18449  39.458  31.742   8.080
 1177POPC   C4A18450  39.798  31.577   7.822
 1177POPC   C1B18451  40.385  31.670   8.662
 1177POPC   C2B18452  40.150  31.611   8.272
 1177POPC   C3B18453  40.304  31.504   7.857
 1177POPC   C4B18454  40.216  31.645   7.429
 1178POPC   NC318455   9.189  10.077   9.557
 1178POPC   PO418456   8.724  10.439   9.299
 1178POPC   GL118457   9.096  10.531   9.110
 1178POPC   GL218458   9.240  10.204   9.038
 1178POPC   C1A18459   9.128  10.746   8.710
 1178POPC   D2A18460   9.176  10.514   8.308
 1178POPC   C3A18461   8.866  10.549   7.989
 1178POPC   C4A18462   8.672  10.803   7.664
 1178POPC   C1B18463   8.907  10.282   8.700
 1178POPC   C2B18464   8.824  10.109   8.301
 1178POPC   C3B18465   9.132  10.075   8.011
 1178POPC   C4B18466   9.074  10.253   7.622
 1179POPC   NC318467  14.143  32.376   9.482
 1179POPC   PO418468  14.780  32.272   9.444
 1179POPC   GL118469  14.491  32.339   9.123
 1179POPC   GL218470  14.404  32.005   9.191
 1179POPC   C1A18471  14.267  32.280   8.742
 1179POPC   D2A18472  14.322  32.488   8.351
 1179POPC   C3A18473  14.406  32.292   7.960
 1179POPC   C4A18474  14.223  32.139   7.554
 1179POPC   C1B18475  14.561  31.856   8.802
 1179POPC   C2B18476  14.532  32.002   8.397
 1179POPC   C3B18477  14.683  31.879   8.024
 1179POPC   C4B18478  14.734  32.026   7.629
 1180POPC   NC318479  14.083  29.711   9.417
 1180POPC   PO418480  14.339  30.275   9.572
 1180POPC   GL118481  14.487  30.296   9.149
 1180POPC   GL218482  14.463  29.941   9.078
 1180POPC   C1A18483  14.383  30.289   8.705
 1180POPC   D2A18484  14.374  30.023   8.353
 1180POPC   C3A18485  14.330  30.211   7.972
 1180POPC   C4A18486  14.468  30.459   7.668
 1180POPC   C1B18487  14.666  29.760   8.697
 1180POPC   C2B18488  14.545  29.528   8.308
 1180POPC   C3B18489  14.440  29.652   7.882
 1180POPC   C4B18490  14.391  29.545   7.445
 1181POPC   NC318491   7.570  17.169   9.443
 1181POPC   PO418492   7.365  17.838   9.529
 1181POPC   GL118493   7.348  17.563   9.170
 1181POPC   GL218494   7.683  17.431   9.022
 1181POPC   C1A18495   7.343  17.768   8.764
 1181POPC   D2A18496   7.202  17.627   8.381
 1181POPC   C3A18497   7.241  17.808   7.956
 1181POPC   C4A18498   7.014  18.010   7.591
 1181POPC   C1B18499   7.372  17.220   8.732
 1181POPC   C2B18500   7.255  17.041   8.324
 1181POPC   C3B18501   7.461  17.238   7.949
 1181POPC   C4B18502   7.248  17.257   7.549
 1182POPC   NC318503  11.740  21.537   9.166
 1182POPC   PO418504  12.214  21.149   9.567
 1182POPC   GL118505  12.229  21.338   9.160
 1182POPC   GL218506  11.992  21.129   8.985
 1182POPC   C1A18507  12.221  21.520   8.737
 1182POPC   D2A18508  11.976  21.380   8.390
 1182POPC   C3A18509  11.933  21.656   8.051
 1182POPC   C4A18510  11.683  21.613   7.702
 1182POPC   C1B18511  12.015  20.903   8.616
 1182POPC   C2B18512  11.815  20.855   8.235
 1182POPC   C3B18513  11.813  21.159   7.927
 1182POPC   C4B18514  12.046  21.278   7.566
 1183POPC   NC318515   1.025  42.634   9.490
 1183POPC   PO418516   1.587  42.315   9.722
 1183POPC   GL118517   1.358  42.303   9.263
 1183POPC   GL218518   1.263  42.638   9.038
 1183POPC   C1A18519   1.383  42.221   8.817
 1183POPC   D2A18520   1.505  42.503   8.466
 1183POPC   C3A18521   1.506  42.284   8.070
 1183POPC   C4A18522   1.170  42.260   7.761
 1183POPC   C1B18523   1.026  42.541   8.667
 1183POPC   C2B18524   1.006  42.366   8.269
 1183POPC   C3B18525   0.811  42.583   7.926
 1183POPC   C4B18526   0.723  42.418   7.522
 1184POPC   NC318527  35.040  37.290   9.481
 1184POPC   PO418528  35.273  36.620   9.479
 1184POPC   GL118529  35.272  36.686   9.090
 1184POPC   GL218530  35.337  37.057   9.129
 1184POPC   C1A18531  35.188  36.479   8.688
 1184POPC   D2A18532  34.994  36.466   8.261
 1184POPC   C3A18533  35.277  36.634   7.963
 1184POPC   C4A18534  35.560  36.778   7.644
 1184POPC   C1B18535  35.184  37.005   8.711
 1184POPC   C2B18536  35.110  36.990   8.299
 1184POPC   C3B18537  35.287  37.131   7.916
 1184POPC   C4B18538  34.973  37.175   7.612
 1185POPC   NC318539  43.479  20.938   9.817
 1185POPC   PO418540  42.980  20.565   9.497
 1185POPC   GL118541  43.040  20.677   9.107
 1185POPC   GL218542  43.276  20.400   9.066
 1185POPC   C1A18543  43.010  20.956   8.753
 1185POPC   D2A18544  43.323  20.988   8.402
 1185POPC   C3A18545  43.254  20.761   8.020
 1185POPC   C4A18546  43.197  20.934   7.587
 1185POPC   C1B18547  43.154  20.490   8.630
 1185POPC   C2B18548  43.172  20.300   8.240
 1185POPC   C3B18549  42.907  20.357   7.914
 1185POPC   C4B18550  42.865  20.249   7.471
 1186POPC   NC318551  40.175  23.133   9.533
 1186POPC   PO418552  39.791  22.521   9.626
 1186POPC   GL118553  39.890  22.789   9.230
 1186POPC   GL218554  39.832  23.113   9.121
 1186POPC   C1A18555  40.019  22.777   8.760
 1186POPC   D2A18556  39.889  22.616   8.334
 1186POPC   C3A18557  40.008  22.752   7.912
 1186POPC   C4A18558  39.901  22.562   7.509
 1186POPC   C1B18559  40.197  23.240   8.866
 1186POPC   C2B18560  40.411  23.219   8.444
 1186POPC   C3B18561  40.289  23.327   7.989
 1186POPC   C4B18562  39.859  23.318   7.812
 1187POPC   NC318563  10.626  44.390   9.365
 1187POPC   PO418564  10.270  44.891   9.561
 1187POPC   GL118565  10.414  44.820   9.122
 1187POPC   GL218566  10.392  44.482   8.933
 1187POPC   C1A18567  10.580  44.879   8.683
 1187POPC   D2A18568  10.744  44.707   8.313
 1187POPC   C3A18569  10.466  44.560   8.053
 1187POPC   C4A18570  10.312  44.758   7.744
 1187POPC   C1B18571  10.817  44.423   8.727
 1187POPC   C2B18572  10.866  44.210   8.313
 1187POPC   C3B18573  10.935  44.369   7.918
 1187POPC   C4B18574  10.796  44.635   7.575
 1188POPC   NC318575  30.711   9.894   9.529
 1188POPC   PO418576  31.262   9.931   9.249
 1188POPC   GL118577  30.871   9.958   9.053
 1188POPC   GL218578  30.733   9.613   9.105
 1188POPC   C1A18579  30.589   9.926   8.699
 1188POPC   D2A18580  30.525  10.130   8.311
 1188POPC   C3A18581  30.623   9.881   7.947
 1188POPC   C4A18582  31.011   9.871   7.737
 1188POPC   C1B18583  30.982   9.591   8.727
 1188POPC   C2B18584  30.860   9.619   8.313
 1188POPC   C3B18585  30.780   9.397   7.940
 1188POPC   C4B18586  30.374   9.442   7.721
 1189POPC   NC318587  28.020  28.875   9.452
 1189POPC   PO418588  28.522  29.247   9.511
 1189POPC   GL118589  28.300  29.165   9.136
 1189POPC   GL218590  28.468  28.827   9.108
 1189POPC   C1A18591  28.437  29.133   8.716
 1189POPC   D2A18592  28.373  28.897   8.374
 1189POPC   C3A18593  28.386  29.249   8.157
 1189POPC   C4A18594  28.454  29.323   7.747
 1189POPC   C1B18595  28.859  28.851   8.787
 1189POPC   C2B18596  28.860  29.083   8.374
 1189POPC   C3B18597  28.738  28.940   7.943
 1189POPC   C4B18598  28.688  28.977   7.451
 1190POPC   NC318599  32.187   0.623   9.592
 1190POPC   PO418600  32.810   0.359   9.708
 1190POPC   GL118601  32.422   0.303   9.290
 1190POPC   GL218602  32.088   0.428   9.118
 1190POPC   C1A18603  32.472   0.348   8.792
 1190POPC   D2A18604  32.415   0.170   8.364
 1190POPC   C3A18605  32.316   0.472   8.022
 1190POPC   C4A18606  32.640   0.669   7.750
 1190POPC   C1B18607  31.987   0.285   8.675
 1190POPC   C2B18608  31.807   0.377   8.288
 1190POPC   C3B18609  31.844   0.296   7.852
 1190POPC   C4B18610  31.810   0.180   7.430
 1191POPC   NC318611  23.455  28.239   9.556
 1191POPC   PO418612  23.917  28.671   9.462
 1191POPC   GL118613  23.859  28.332   9.183
 1191POPC   GL218614  23.962  28.472   8.876
 1191POPC   C1A18615  23.616  28.100   8.873
 1191POPC   D2A18616  23.654  28.297   8.458
 1191POPC   C3A18617  23.494  28.114   8.081
 1191POPC   C4A18618  23.827  28.212   7.807
 1191POPC   C1B18619  23.580  28.706   8.796
 1191POPC   C2B18620  23.354  28.719   8.406
 1191POPC   C3B18621  23.542  28.635   8.006
 1191POPC   C4B18622  23.719  28.676   7.592
 1192POPC   NC318623  30.445  35.773   9.390
 1192POPC   PO418624  29.776  36.015   9.530
 1192POPC   GL118625  29.733  36.093   9.086
 1192POPC   GL218626  30.063  36.129   9.011
 1192POPC   C1A18627  29.680  36.318   8.690
 1192POPC   D2A18628  29.895  36.393   8.325
 1192POPC   C3A18629  29.633  36.295   7.970
 1192POPC   C4A18630  29.573  35.905   7.727
 1192POPC   C1B18631  30.278  36.313   8.691
 1192POPC   C2B18632  30.394  36.160   8.303
 1192POPC   C3B18633  30.343  36.186   7.892
 1192POPC   C4B18634  30.022  36.148   7.661
 1193POPC   NC318635  16.472  32.066   9.548
 1193POPC   PO418636  17.045  32.184   9.415
 1193POPC   GL118637  16.755  32.343   9.157
 1193POPC   GL218638  16.521  32.100   9.048
 1193POPC   C1A18639  16.867  32.315   8.736
 1193POPC   D2A18640  16.741  32.112   8.342
 1193POPC   C3A18641  16.958  32.200   7.944
 1193POPC   C4A18642  16.924  32.070   7.521
 1193POPC   C1B18643  16.355  32.363   8.705
 1193POPC   C2B18644  16.244  32.364   8.275
 1193POPC   C3B18645  16.458  32.317   7.914
 1193POPC   C4B18646  16.465  31.888   7.776
 1194POPC   NC318647  32.570  27.086   9.413
 1194POPC   PO418648  32.409  27.661   9.797
 1194POPC   GL118649  32.379  27.588   9.343
 1194POPC   GL218650  32.108  27.323   9.311
 1194POPC   C1A18651  32.432  27.849   8.938
 1194POPC   D2A18652  32.585  27.902   8.474
 1194POPC   C3A18653  32.388  27.650   8.143
 1194POPC   C4A18654  32.525  27.525   7.742
 1194POPC   C1B18655  32.078  27.475   8.882
 1194POPC   C2B18656  31.968  27.405   8.448
 1194POPC   C3B18657  32.026  27.244   8.064
 1194POPC   C4B18658  32.136  27.238   7.698
 1195POPC   NC318659  34.072  27.832   9.726
 1195POPC   PO418660  34.615  27.422   9.507
 1195POPC   GL118661  34.666  27.363   9.047
 1195POPC   GL218662  34.529  27.677   8.945
 1195POPC   C1A18663  34.574  27.362   8.570
 1195POPC   D2A18664  34.297  27.452   8.271
 1195POPC   C3A18665  34.476  27.579   7.893
 1195POPC   C4A18666  34.551  27.792   7.495
 1195POPC   C1B18667  34.915  27.711   8.706
 1195POPC   C2B18668  34.822  27.751   8.261
 1195POPC   C3B18669  34.958  27.746   7.839
 1195POPC   C4B18670  35.053  27.968   7.472
 1196POPC   NC318671  29.721  38.326   9.502
 1196POPC   PO418672  30.423  38.396   9.595
 1196POPC   GL118673  30.120  38.422   9.209
 1196POPC   GL218674  30.154  38.150   8.985
 1196POPC   C1A18675  29.873  38.589   8.827
 1196POPC   D2A18676  29.611  38.597   8.448
 1196POPC   C3A18677  29.776  38.624   8.020
 1196POPC   C4A18678  30.175  38.664   7.769
 1196POPC   C1B18679  29.807  38.085   8.736
 1196POPC   C2B18680  30.019  38.264   8.397
 1196POPC   C3B18681  30.044  38.185   7.983
 1196POPC   C4B18682  29.694  38.186   7.742
 1197POPC   NC318683  36.446  43.621   9.452
 1197POPC   PO418684  36.258  44.156   9.724
 1197POPC   GL118685  36.302  44.074   9.235
 1197POPC   GL218686  36.023  43.992   9.050
 1197POPC   C1A18687  36.411  43.793   8.797
 1197POPC   D2A18688  36.621  43.605   8.398
 1197POPC   C3A18689  36.445  43.545   8.000
 1197POPC   C4A18690  36.576  43.685   7.631
 1197POPC   C1B18691  35.888  43.950   8.628
 1197POPC   C2B18692  36.140  43.837   8.283
 1197POPC   C3B18693  36.139  43.916   7.827
 1197POPC   C4B18694  36.026  43.660   7.477
 1198POPC   NC318695  28.957  26.379   9.529
 1198POPC   PO418696  29.264  25.736   9.550
 1198POPC   GL118697  29.208  25.980   9.180
 1198POPC   GL218698  29.257  26.309   9.114
 1198POPC   C1A18699  29.324  25.929   8.742
 1198POPC   D2A18700  29.146  25.792   8.387
 1198POPC   C3A18701  29.361  25.893   7.987
 1198POPC   C4A18702  29.287  25.965   7.539
 1198POPC   C1B18703  29.115  26.415   8.697
 1198POPC   C2B18704  29.145  26.297   8.271
 1198POPC   C3B18705  29.123  26.340   7.840
 1198POPC   C4B18706  29.334  26.473   7.484
 1199POPC   NC318707  14.187  25.667   9.499
 1199POPC   PO418708  14.353  24.972   9.450
 1199POPC   GL118709  14.343  25.122   9.071
 1199POPC   GL218710  14.468  25.446   9.133
 1199POPC   C1A18711  14.431  25.043   8.656
 1199POPC   D2A18712  14.187  25.201   8.313
 1199POPC   C3A18713  14.393  25.235   7.957
 1199POPC   C4A18714  14.283  25.026   7.610
 1199POPC   C1B18715  14.325  25.549   8.736
 1199POPC   C2B18716  14.585  25.488   8.396
 1199POPC   C3B18717  14.668  25.658   7.994
 1199POPC   C4B18718  14.311  25.696   7.717
 1200POPC   NC318719  11.714  29.105   9.463
 1200POPC   PO418720  11.138  29.404   9.465
 1200POPC   GL118721  11.208  29.171   9.098
 1200POPC   GL218722  11.521  28.974   9.029
 1200POPC   C1A18723  11.335  29.354   8.730
 1200POPC   D2A18724  11.546  29.375   8.372
 1200POPC   C3A18725  11.232  29.391   8.042
 1200POPC   C4A18726  11.271  29.517   7.637
 1200POPC   C1B18727  11.474  28.857   8.628
 1200POPC   C2B18728  11.184  28.985   8.363
 1200POPC   C3B18729  11.117  28.903   7.949
 1200POPC   C4B18730  11.273  28.967   7.512
 1201POPC   NC318731  44.444  27.138   9.574
 1201POPC   PO418732   0.015  26.921   9.317
 1201POPC   GL118733  44.716  26.702   9.072
 1201POPC   GL218734  44.433  26.923   9.107
 1201POPC   C1A18735  44.770  26.558   8.639
 1201POPC   D2A18736  44.816  26.837   8.281
 1201POPC   C3A18737  44.878  26.675   7.874
 1201POPC   C4A18738  44.537  26.636   7.625
 1201POPC   C1B18739  44.505  26.992   8.686
 1201POPC   C2B18740  44.317  27.131   8.312
 1201POPC   C3B18741  44.283  27.006   7.890
 1201POPC   C4B18742  44.100  27.018   7.465
 1202POPC   NC318743  26.912  24.122   9.407
 1202POPC   PO418744  26.729  23.469   9.383
 1202POPC   GL118745  26.879  23.718   9.070
 1202POPC   GL218746  27.191  23.583   9.146
 1202POPC   C1A18747  26.717  23.984   8.726
 1202POPC   D2A18748  26.599  24.133   8.316
 1202POPC   C3A18749  26.735  23.879   7.958
 1202POPC   C4A18750  26.927  23.906   7.554
 1202POPC   C1B18751  27.181  23.465   8.739
 1202POPC   C2B18752  27.098  23.507   8.330
 1202POPC   C3B18753  27.208  23.604   7.953
 1202POPC   C4B18754  27.153  23.409   7.593
 1203POPC   NC318755  15.934  36.448   9.660
 1203POPC   PO418756  16.182  35.845   9.621
 1203POPC   GL118757  16.013  35.734   9.168
 1203POPC   GL218758  15.661  35.636   9.193
 1203POPC   C1A18759  16.033  35.824   8.669
 1203POPC   D2A18760  16.022  35.770   8.180
 1203POPC   C3A18761  16.331  36.050   7.926
 1203POPC   C4A18762  16.415  36.220   7.485
 1203POPC   C1B18763  15.583  35.947   8.904
 1203POPC   C2B18764  15.533  36.104   8.509
 1203POPC   C3B18765  15.557  36.017   8.097
 1203POPC   C4B18766  15.830  36.085   7.782
 1204POPC   NC318767  28.829  15.118   9.851
 1204POPC   PO418768  29.304  14.863   9.325
 1204POPC   GL118769  29.230  14.952   8.973
 1204POPC   GL218770  29.203  15.254   9.009
 1204POPC   C1A18771  29.141  15.003   8.563
 1204POPC   D2A18772  28.948  14.785   8.267
 1204POPC   C3A18773  29.132  14.898   7.895
 1204POPC   C4A18774  29.034  14.919   7.473
 1204POPC   C1B18775  29.547  15.295   8.744
 1204POPC   C2B18776  29.629  15.333   8.322
 1204POPC   C3B18777  29.254  15.367   8.072
 1204POPC   C4B18778  29.071  15.387   7.667
 1205POPC   NC318779   9.466   3.735   9.725
 1205POPC   PO418780   8.894   3.934   9.808
 1205POPC   GL118781   9.079   3.723   9.358
 1205POPC   GL218782   8.942   3.385   9.203
 1205POPC   C1A18783   9.188   3.664   8.860
 1205POPC   D2A18784   8.945   3.671   8.444
 1205POPC   C3A18785   9.075   3.527   8.030
 1205POPC   C4A18786   9.256   3.886   7.843
 1205POPC   C1B18787   8.847   3.259   8.731
 1205POPC   C2B18788   8.657   3.290   8.269
 1205POPC   C3B18789   8.586   3.574   7.886
 1205POPC   C4B18790   8.614   3.479   7.427
 1206POPC   NC318791  41.180  21.994   9.605
 1206POPC   PO418792  40.605  22.396   9.439
 1206POPC   GL118793  40.843  22.270   9.101
 1206POPC   GL218794  41.173  22.192   9.130
 1206POPC   C1A18795  40.721  22.149   8.687
 1206POPC   D2A18796  40.496  22.072   8.335
 1206POPC   C3A18797  40.685  21.938   7.996
 1206POPC   C4A18798  40.578  21.963   7.594
 1206POPC   C1B18799  41.150  22.513   8.791
 1206POPC   C2B18800  40.964  22.504   8.402
 1206POPC   C3B18801  41.043  22.296   8.031
 1206POPC   C4B18802  40.849  22.410   7.653
 1207POPC   NC318803  25.349  36.966   9.632
 1207POPC   PO418804  25.071  36.369   9.654
 1207POPC   GL118805  25.429  36.535   9.335
 1207POPC   GL218806  25.343  36.891   9.122
 1207POPC   C1A18807  25.576  36.502   8.892
 1207POPC   D2A18808  25.445  36.830   8.602
 1207POPC   C3A18809  25.311  36.723   8.201
 1207POPC   C4A18810  25.340  36.872   7.802
 1207POPC   C1B18811  24.988  37.020   8.793
 1207POPC   C2B18812  24.855  36.879   8.376
 1207POPC   C3B18813  24.890  37.079   7.990
 1207POPC   C4B18814  25.031  37.275   7.633
 1208POPC   NC318815  23.910   1.209   9.365
 1208POPC   PO418816  23.357   1.569   9.478
 1208POPC   GL118817  23.477   1.333   9.132
 1208POPC   GL218818  23.552   1.631   8.994
 1208POPC   C1A18819  23.548   1.188   8.722
 1208POPC   D2A18820  23.852   1.239   8.375
 1208POPC   C3A18821  23.781   1.126   7.954
 1208POPC   C4A18822  23.609   1.091   7.535
 1208POPC   C1B18823  23.944   1.548   8.780
 1208POPC   C2B18824  24.127   1.680   8.379
 1208POPC   C3B18825  24.178   1.456   7.985
 1208POPC   C4B18826  23.935   1.476   7.614
 1209POPC   NC318827  25.047  19.048   9.441
 1209POPC   PO418828  25.565  18.722   9.283
 1209POPC   GL118829  25.334  18.942   9.021
 1209POPC   GL218830  25.444  19.255   9.145
 1209POPC   C1A18831  25.026  19.128   8.749
 1209POPC   D2A18832  25.048  19.337   8.356
 1209POPC   C3A18833  25.305  19.100   8.028
 1209POPC   C4A18834  25.343  18.777   7.699
 1209POPC   C1B18835  25.608  19.253   8.725
 1209POPC   C2B18836  25.555  19.437   8.346
 1209POPC   C3B18837  25.459  19.581   7.942
 1209POPC   C4B18838  25.296  19.353   7.582
 1210POPC   NC318839  42.571  12.614   9.609
 1210POPC   PO418840  42.230  11.975   9.482
 1210POPC   GL118841  42.272  12.238   9.151
 1210POPC   GL218842  42.627  12.223   9.198
 1210POPC   C1A18843  42.340  12.314   8.716
 1210POPC   D2A18844  42.553  12.050   8.398
 1210POPC   C3A18845  42.379  11.997   7.988
 1210POPC   C4A18846  42.305  12.274   7.648
 1210POPC   C1B18847  42.578  11.881   8.881
 1210POPC   C2B18848  42.896  11.720   8.623
 1210POPC   C3B18849  42.878  11.684   8.190
 1210POPC   C4B18850  42.743  11.720   7.782
 1211POPC   NC318851   5.418  38.547   9.475
 1211POPC   PO418852   4.817  38.168   9.559
 1211POPC   GL118853   4.988  38.479   9.195
 1211POPC   GL218854   4.798  38.829   9.144
 1211POPC   C1A18855   5.280  38.494   8.812
 1211POPC   D2A18856   5.399  38.690   8.430
 1211POPC   C3A18857   5.440  38.474   8.037
 1211POPC   C4A18858   5.285  38.495   7.629
 1211POPC   C1B18859   4.956  38.887   8.721
 1211POPC   C2B18860   4.912  38.702   8.327
 1211POPC   C3B18861   5.079  38.839   7.950
 1211POPC   C4B18862   4.894  38.812   7.554
 1212POPC   NC318863  38.357  33.331   9.511
 1212POPC   PO418864  37.915  32.828   9.507
 1212POPC   GL118865  38.287  32.926   9.189
 1212POPC   GL218866  38.650  33.085   9.165
 1212POPC   C1A18867  38.441  32.813   8.759
 1212POPC   D2A18868  38.275  32.685   8.352
 1212POPC   C3A18869  38.507  32.849   7.981
 1212POPC   C4A18870  38.400  33.166   7.656
 1212POPC   C1B18871  38.639  33.303   8.752
 1212POPC   C2B18872  38.693  33.507   8.340
 1212POPC   C3B18873  38.772  33.299   7.965
 1212POPC   C4B18874  38.977  32.937   7.767
 1213POPC   NC318875  44.886  44.955   9.477
 1213POPC   PO418876  44.488  44.354   9.595
 1213POPC   GL118877  44.490  44.600   9.203
 1213POPC   GL218878  44.819  44.654   9.063
 1213POPC   C1A18879  44.432  44.597   8.736
 1213POPC   D2A18880  44.683  44.574   8.333
 1213POPC   C3A18881  44.496  44.752   7.965
 1213POPC   C4A18882  44.460  44.604   7.532
 1213POPC   C1B18883  44.987  44.990   8.791
 1213POPC   C2B18884   0.119  44.958   8.365
 1213POPC   C3B18885   0.025  44.813   7.969
 1213POPC   C4B18886  44.797   0.005   7.655
 1214POPC   NC318887  13.587  41.862   9.467
 1214POPC   PO418888  13.577  41.168   9.432
 1214POPC   GL118889  13.432  41.498   9.137
 1214POPC   GL218890  13.770  41.661   9.049
 1214POPC   C1A18891  13.322  41.633   8.703
 1214POPC   D2A18892  13.315  41.867   8.304
 1214POPC   C3A18893  13.430  41.618   7.955
 1214POPC   C4A18894  13.434  41.209   7.715
 1214POPC   C1B18895  13.851  41.673   8.620
 1214POPC   C2B18896  13.868  41.708   8.192
 1214POPC   C3B18897  13.876  41.738   7.724
 1214POPC   C4B18898  13.928  41.913   7.254
 1215POPC   NC318899  27.080  13.127   9.458
 1215POPC   PO418900  26.521  12.867   9.161
 1215POPC   GL118901  26.915  12.927   9.029
 1215POPC   GL218902  27.049  12.654   9.208
 1215POPC   C1A18903  27.113  13.138   8.710
 1215POPC   D2A18904  26.965  13.252   8.294
 1215POPC   C3A18905  27.089  13.066   7.894
 1215POPC   C4A18906  27.019  12.817   7.518
 1215POPC   C1B18907  27.070  12.519   8.770
 1215POPC   C2B18908  26.963  12.359   8.362
 1215POPC   C3B18909  26.937  12.550   7.955
 1215POPC   C4B18910  26.595  12.816   7.814
 1216POPC   NC318911  30.489  24.808   9.769
 1216POPC   PO418912  29.898  24.490   9.497
 1216POPC   GL118913  29.871  24.514   9.055
 1216POPC   GL218914  30.017  24.209   9.063
 1216POPC   C1A18915  29.950  24.432   8.603
 1216POPC   D2A18916  30.154  24.320   8.202
 1216POPC   C3A18917  30.010  24.624   7.874
 1216POPC   C4A18918  29.999  24.655   7.432
 1216POPC   C1B18919  29.622  24.053   8.879
 1216POPC   C2B18920  29.543  24.129   8.438
 1216POPC   C3B18921  29.704  24.069   8.026
 1216POPC   C4B18922  29.915  24.178   7.635
 1217POPC   NC318923  35.967  17.648   9.627
 1217POPC   PO418924  35.881  18.308   9.516
 1217POPC   GL118925  35.805  18.147   9.120
 1217POPC   GL218926  36.119  18.291   9.038
 1217POPC   C1A18927  35.864  18.021   8.683
 1217POPC   D2A18928  35.860  18.287   8.306
 1217POPC   C3A18929  35.965  18.123   7.903
 1217POPC   C4A18930  36.382  18.068   7.730
 1217POPC   C1B18931  36.082  18.520   8.706
 1217POPC   C2B18932  36.296  18.564   8.367
 1217POPC   C3B18933  36.198  18.569   7.979
 1217POPC   C4B18934  36.343  18.898   7.774
 1218POPC   NC318935  22.463   0.855   9.363
 1218POPC   PO418936  21.871   1.123   9.424
 1218POPC   GL118937  22.075   0.996   9.070
 1218POPC   GL218938  22.271   1.277   9.077
 1218POPC   C1A18939  22.281   0.989   8.642
 1218POPC   D2A18940  22.422   1.297   8.336
 1218POPC   C3A18941  22.409   1.058   7.963
 1218POPC   C4A18942  22.042   0.919   7.759
 1218POPC   C1B18943  21.936   1.330   8.722
 1218POPC   C2B18944  21.947   1.568   8.374
 1218POPC   C3B18945  22.021   1.394   8.003
 1218POPC   C4B18946  22.194   1.379   7.586
 1219POPC   NC318947  33.169  36.646   9.547
 1219POPC   PO418948  32.974  37.244   9.690
 1219POPC   GL118949  32.963  37.016   9.245
 1219POPC   GL218950  32.999  36.649   9.077
 1219POPC   C1A18951  33.209  37.026   8.828
 1219POPC   D2A18952  33.110  36.672   8.550
 1219POPC   C3A18953  33.329  36.687   8.200
 1219POPC   C4A18954  33.171  37.048   7.968
 1219POPC   C1B18955  32.713  36.462   8.778
 1219POPC   C2B18956  32.591  36.479   8.363
 1219POPC   C3B18957  32.837  36.599   8.050
 1219POPC   C4B18958  32.807  36.816   7.669
 1220POPC   NC318959  25.972   7.086   9.875
 1220POPC   PO418960  26.071   7.631   9.509
 1220POPC   GL118961  26.124   7.491   9.140
 1220POPC   GL218962  25.797   7.603   9.010
 1220POPC   C1A18963  26.097   7.203   8.851
 1220POPC   D2A18964  26.229   7.190   8.459
 1220POPC   C3A18965  25.981   7.310   8.128
 1220POPC   C4A18966  26.161   7.465   7.802
 1220POPC   C1B18967  25.876   7.577   8.579
 1220POPC   C2B18968  25.737   7.741   8.212
 1220POPC   C3B18969  25.721   7.696   7.793
 1220POPC   C4B18970  25.768   7.613   7.377
 1221POPC   NC318971  18.852   8.143   9.444
 1221POPC   PO418972  19.473   8.525   9.471
 1221POPC   GL118973  19.351   8.362   9.104
 1221POPC   GL218974  19.067   8.515   9.083
 1221POPC   C1A18975  19.304   8.160   8.704
 1221POPC   D2A18976  19.077   7.998   8.371
 1221POPC   C3A18977  19.134   8.062   7.964
 1221POPC   C4A18978  19.518   7.967   7.808
 1221POPC   C1B18979  18.876   8.468   8.651
 1221POPC   C2B18980  18.822   8.428   8.211
 1221POPC   C3B18981  19.007   8.548   7.844
 1221POPC   C4B18982  19.295   8.395   7.598
 1222POPC   NC318983  28.943  29.412   9.517
 1222POPC   PO418984  29.507  29.078   9.482
 1222POPC   GL118985  29.216  29.241   9.123
 1222POPC   GL218986  28.816  29.272   9.057
 1222POPC   C1A18987  29.269  29.181   8.696
 1222POPC   D2A18988  29.500  29.248   8.324
 1222POPC   C3A18989  29.246  29.112   7.980
 1222POPC   C4A18990  29.131  28.892   7.627
 1222POPC   C1B18991  28.880  29.539   8.697
 1222POPC   C2B18992  29.221  29.717   8.398
 1222POPC   C3B18993  29.313  29.614   7.944
 1222POPC   C4B18994  28.960  29.397   7.660
 1223POPC   NC318995  18.244  11.396   9.488
 1223POPC   PO418996  18.468  10.857   9.161
 1223POPC   GL118997  18.307  11.233   8.967
 1223POPC   GL218998  18.066  11.472   9.040
 1223POPC   C1A18999  18.231  11.351   8.528
 1223POPC   D2A19000  18.469  11.483   8.162
 1223POPC   C3A19001  18.434  11.208   7.765
 1223POPC   C4A19002  18.560  10.887   7.393
 1223POPC   C1B19003  17.948  11.740   8.741
 1223POPC   C2B19004  17.883  11.743   8.312
 1223POPC   C3B19005  18.160  11.821   7.940
 1223POPC   C4B19006  18.154  11.671   7.530
 1224POPC   NC319007  37.395  24.058   9.272
 1224POPC   PO419008  37.658  24.677   9.462
 1224POPC   GL119009  37.743  24.607   9.076
 1224POPC   GL219010  37.659  24.961   9.027
 1224POPC   C1A19011  37.968  24.349   8.775
 1224POPC   D2A19012  37.887  24.114   8.414
 1224POPC   C3A19013  37.783  24.350   8.052
 1224POPC   C4A19014  37.594  24.222   7.677
 1224POPC   C1B19015  37.675  24.816   8.636
 1224POPC   C2B19016  37.970  24.724   8.412
 1224POPC   C3B19017  37.891  24.868   8.047
 1224POPC   C4B19018  37.522  24.811   7.817
 1225POPC   NC319019   8.094  37.319   9.353
 1225POPC   PO419020   8.326  36.738   9.658
 1225POPC   GL119021   8.279  36.824   9.209
 1225POPC   GL219022   8.613  36.819   9.174
 1225POPC   C1A19023   8.375  36.542   8.792
 1225POPC   D2A19024   8.240  36.451   8.368
 1225POPC   C3A19025   8.425  36.697   8.022
 1225POPC   C4A19026   8.686  36.595   7.651
 1225POPC   C1B19027   8.483  37.033   8.794
 1225POPC   C2B19028   8.391  37.281   8.459
 1225POPC   C3B19029   8.497  37.235   8.043
 1225POPC   C4B19030   8.201  37.075   7.747
 1226POPC   NC319031  19.008  32.674   9.568
 1226POPC   PO419032  18.896  32.069   9.714
 1226POPC   GL119033  18.994  32.116   9.268
 1226POPC   GL219034  19.305  32.270   9.281
 1226POPC   C1A19035  19.067  31.999   8.820
 1226POPC   D2A19036  18.725  31.983   8.483
 1226POPC   C3A19037  18.881  32.139   8.091
 1226POPC   C4A19038  19.261  32.282   7.906
 1226POPC   C1B19039  19.336  32.439   8.855
 1226POPC   C2B19040  19.327  32.461   8.403
 1226POPC   C3B19041  19.365  32.773   8.075
 1226POPC   C4B19042  19.329  32.771   7.640
 1227POPC   NC319043  34.040  10.982   9.544
 1227POPC   PO419044  33.648  11.507   9.504
 1227POPC   GL119045  33.706  11.233   9.188
 1227POPC   GL219046  34.050  11.203   9.082
 1227POPC   C1A19047  33.571  11.121   8.780
 1227POPC   D2A19048  33.531  11.419   8.411
 1227POPC   C3A19049  33.746  11.351   8.017
 1227POPC   C4A19050  33.675  11.177   7.612
 1227POPC   C1B19051  33.915  11.501   8.772
 1227POPC   C2B19052  33.990  11.671   8.365
 1227POPC   C3B19053  34.153  11.707   7.956
 1227POPC   C4B19054  34.116  11.423   7.619
 1228POPC   NC319055  39.839  18.063   9.326
 1228POPC   PO419056  40.193  18.618   9.429
 1228POPC   GL119057  40.013  18.449   9.036
 1228POPC   GL219058  39.762  18.653   8.892
 1228POPC   C1A19059  40.005  18.112   8.701
 1228POPC   D2A19060  40.260  18.108   8.350
 1228POPC   C3A19061  40.049  18.233   8.004
 1228POPC   C4A19062  40.239  18.068   7.631
 1228POPC   C1B19063  39.553  18.326   8.675
 1228POPC   C2B19064  39.569  18.125   8.298
 1228POPC   C3B19065  39.514  18.263   7.898
 1228POPC   C4B19066  39.754  18.616   7.785
 1229POPC   NC319067   6.936  34.025   9.465
 1229POPC   PO419068   7.586  33.687   9.491
 1229POPC   GL119069   7.312  33.827   9.196
 1229POPC   GL219070   7.085  33.529   9.192
 1229POPC   C1A19071   7.375  33.994   8.810
 1229POPC   D2A19072   7.697  34.125   8.505
 1229POPC   C3A19073   7.518  34.068   8.110
 1229POPC   C4A19074   7.380  34.090   7.694
 1229POPC   C1B19075   7.474  33.453   8.896
 1229POPC   C2B19076   7.490  33.620   8.489
 1229POPC   C3B19077   7.548  33.574   8.070
 1229POPC   C4B19078   7.522  33.591   7.653
 1230POPC   NC319079  10.643  25.082   9.505
 1230POPC   PO419080  10.378  25.650   9.362
 1230POPC   GL119081  10.636  25.356   9.087
 1230POPC   GL219082  10.468  25.028   9.029
 1230POPC   C1A19083  10.943  25.178   8.804
 1230POPC   D2A19084  10.979  24.990   8.403
 1230POPC   C3A19085  10.769  25.130   8.020
 1230POPC   C4A19086  10.645  25.137   7.578
 1230POPC   C1B19087  10.474  25.159   8.597
 1230POPC   C2B19088  10.330  24.988   8.221
 1230POPC   C3B19089  10.219  25.194   7.844
 1230POPC   C4B19090  10.310  25.521   7.534
 1231POPC   NC319091   5.334  29.794   9.612
 1231POPC   PO419092   4.858  30.190   9.547
 1231POPC   GL119093   5.150  30.147   9.200
 1231POPC   GL219094   5.064  29.818   9.180
 1231POPC   C1A19095   5.084  30.300   8.749
 1231POPC   D2A19096   4.884  30.360   8.332
 1231POPC   C3A19097   5.074  30.194   7.942
 1231POPC   C4A19098   5.113  29.843   7.624
 1231POPC   C1B19099   5.256  29.817   8.775
 1231POPC   C2B19100   5.247  29.971   8.369
 1231POPC   C3B19101   5.408  29.809   8.015
 1231POPC   C4B19102   5.693  29.679   7.656
 1232POPC   NC319103  42.170  23.730   9.486
 1232POPC   PO419104  42.797  23.800   9.260
 1232POPC   GL119105  42.397  23.723   9.031
 1232POPC   GL219106  42.136  23.445   9.070
 1232POPC   C1A19107  42.366  23.671   8.630
 1232POPC   D2A19108  42.401  23.887   8.249
 1232POPC   C3A19109  42.557  23.586   7.951
 1232POPC   C4A19110  42.505  23.495   7.515
 1232POPC   C1B19111  42.112  23.237   8.701
 1232POPC   C2B19112  42.258  23.297   8.277
 1232POPC   C3B19113  42.094  23.414   7.847
 1232POPC   C4B19114  42.015  23.327   7.375
 1233POPC   NC319115   3.147  37.367   9.508
 1233POPC   PO419116   3.778  36.972   9.495
 1233POPC   GL119117   3.659  36.868   9.114
 1233POPC   GL219118   3.320  36.879   9.092
 1233POPC   C1A19119   3.660  36.869   8.697
 1233POPC   D2A19120   3.459  37.089   8.379
 1233POPC   C3A19121   3.507  36.823   8.039
 1233POPC   C4A19122   3.557  37.005   7.639
 1233POPC   C1B19123   3.143  36.810   8.671
 1233POPC   C2B19124   2.996  36.903   8.230
 1233POPC   C3B19125   3.069  36.814   7.769
 1233POPC   C4B19126   3.093  36.861   7.340
 1234POPC   NC319127  39.848  14.688   9.425
 1234POPC   PO419128  40.415  14.276   9.368
 1234POPC   GL119129  40.069  14.348   9.107
 1234POPC   GL219130  39.757  14.210   9.172
 1234POPC   C1A19131  39.858  14.549   8.773
 1234POPC   D2A19132  39.937  14.422   8.350
 1234POPC   C3A19133  39.749  14.580   7.975
 1234POPC   C4A19134  40.098  14.658   7.723
 1234POPC   C1B19135  39.851  14.057   8.736
 1234POPC   C2B19136  39.860  13.934   8.272
 1234POPC   C3B19137  39.936  14.122   7.847
 1234POPC   C4B19138  40.077  14.230   7.430
 1235POPC   NC319139  35.968   9.248   9.606
 1235POPC   PO419140  36.646   8.965   9.532
 1235POPC   GL119141  36.261   8.889   9.257
 1235POPC   GL219142  35.909   9.011   9.156
 1235POPC   C1A19143  36.252   8.887   8.803
 1235POPC   D2A19144  36.054   8.931   8.423
 1235POPC   C3A19145  36.340   8.795   8.127
 1235POPC   C4A19146  36.312   8.785   7.709
 1235POPC   C1B19147  35.894   9.275   8.783
 1235POPC   C2B19148  36.007   9.464   8.371
 1235POPC   C3B19149  35.996   9.229   8.000
 1235POPC   C4B19150  35.957   9.114   7.591
 1236POPC   NC319151   3.593   1.541   9.465
 1236POPC   PO419152   3.265   0.896   9.518
 1236POPC   GL119153   3.437   1.160   9.147
 1236POPC   GL219154   3.735   0.985   8.937
 1236POPC   C1A19155   3.371   1.376   8.755
 1236POPC   D2A19156   3.533   1.150   8.374
 1236POPC   C3A19157   3.364   1.336   7.997
 1236POPC   C4A19158   3.351   1.206   7.547
 1236POPC   C1B19159   3.874   1.350   8.703
 1236POPC   C2B19160   3.918   1.448   8.258
 1236POPC   C3B19161   3.839   1.152   7.924
 1236POPC   C4B19162   3.855   1.187   7.470
 1237POPC   NC319163   4.226   8.248   9.487
 1237POPC   PO419164   4.775   8.669   9.360
 1237POPC   GL119165   4.566   8.291   9.108
 1237POPC   GL219166   4.239   8.041   9.047
 1237POPC   C1A19167   4.640   8.022   8.754
 1237POPC   D2A19168   4.451   8.141   8.398
 1237POPC   C3A19169   4.661   8.265   8.010
 1237POPC   C4A19170   4.491   8.006   7.707
 1237POPC   C1B19171   4.147   8.390   8.799
 1237POPC   C2B19172   4.009   8.426   8.395
 1237POPC   C3B19173   4.139   8.234   8.013
 1237POPC   C4B19174   3.964   8.005   7.690
 1238POPC   NC319175  28.247  33.059   9.333
 1238POPC   PO419176  28.868  32.770   9.289
 1238POPC   GL119177  28.604  32.903   9.005
 1238POPC   GL219178  28.648  33.264   9.102
 1238POPC   C1A19179  28.318  32.917   8.674
 1238POPC   D2A19180  28.330  33.116   8.284
 1238POPC   C3A19181  28.322  32.782   7.970
 1238POPC   C4A19182  28.586  32.690   7.572
 1238POPC   C1B19183  28.439  33.417   8.750
 1238POPC   C2B19184  28.610  33.589   8.398
 1238POPC   C3B19185  28.622  33.444   8.031
 1238POPC   C4B19186  28.301  33.234   7.758
 1239POPC   NC319187  21.295  19.480   9.633
 1239POPC   PO419188  21.072  18.905   9.649
 1239POPC   GL119189  21.370  18.996   9.255
 1239POPC   GL219190  21.670  18.803   9.188
 1239POPC   C1A19191  21.573  19.217   8.846
 1239POPC   D2A19192  21.725  19.196   8.385
 1239POPC   C3A19193  21.437  19.198   7.977
 1239POPC   C4A19194  20.998  19.069   7.856
 1239POPC   C1B19195  21.432  18.729   8.790
 1239POPC   C2B19196  21.328  18.847   8.349
 1239POPC   C3B19197  21.327  18.661   7.929
 1239POPC   C4B19198  21.287  18.827   7.502
 1240POPC   NC319199  13.706  14.769   9.316
 1240POPC   PO419200  14.215  14.962   9.637
 1240POPC   GL119201  14.075  15.114   9.187
 1240POPC   GL219202  14.408  15.039   9.103
 1240POPC   C1A19203  14.193  15.252   8.711
 1240POPC   D2A19204  14.419  15.504   8.417
 1240POPC   C3A19205  14.291  15.479   8.012
 1240POPC   C4A19206  14.186  15.223   7.674
 1240POPC   C1B19207  14.641  14.964   8.710
 1240POPC   C2B19208  14.457  15.011   8.305
 1240POPC   C3B19209  14.604  15.061   7.909
 1240POPC   C4B19210  14.626  14.692   7.770
 1241POPC   NC319211  14.703  12.105   9.484
 1241POPC   PO419212  14.060  11.862   9.576
 1241POPC   GL119213  14.347  11.812   9.216
 1241POPC   GL219214  14.421  12.180   9.069
 1241POPC   C1A19215  14.216  11.834   8.778
 1241POPC   D2A19216  14.398  12.137   8.489
 1241POPC   C3A19217  14.345  11.989   8.082
 1241POPC   C4A19218  14.510  11.868   7.702
 1241POPC   C1B19219  14.694  12.429   8.780
 1241POPC   C2B19220  14.659  12.576   8.301
 1241POPC   C3B19221  14.669  12.569   7.806
 1241POPC   C4B19222  15.033  12.444   7.518
 1242POPC   NC319223  26.151  33.634   9.456
 1242POPC   PO419224  25.744  34.173   9.498
 1242POPC   GL119225  25.944  33.977   9.141
 1242POPC   GL219226  25.879  33.618   9.045
 1242POPC   C1A19227  26.160  33.935   8.738
 1242POPC   D2A19228  26.344  33.993   8.340
 1242POPC   C3A19229  26.163  34.046   7.930
 1242POPC   C4A19230  26.509  34.171   7.650
 1242POPC   C1B19231  25.870  33.499   8.638
 1242POPC   C2B19232  26.031  33.529   8.232
 1242POPC   C3B19233  25.801  33.606   7.853
 1242POPC   C4B19234  25.894  33.508   7.396
 1243POPC   NC319235  34.108  36.987   9.502
 1243POPC   PO419236  33.619  36.547   9.576
 1243POPC   GL119237  33.569  36.537   9.135
 1243POPC   GL219238  33.910  36.671   9.098
 1243POPC   C1A19239  33.599  36.686   8.688
 1243POPC   D2A19240  33.605  37.069   8.440
 1243POPC   C3A19241  33.683  37.031   8.008
 1243POPC   C4A19242  33.738  36.632   7.833
 1243POPC   C1B19243  33.829  37.093   8.909
 1243POPC   C2B19244  34.033  37.340   8.579
 1243POPC   C3B19245  34.007  37.427   8.130
 1243POPC   C4B19246  33.962  37.338   7.699
 1244POPC   NC319247  10.078  20.830   9.380
 1244POPC   PO419248   9.739  21.296   9.767
 1244POPC   GL119249   9.662  21.369   9.333
 1244POPC   GL219250   9.982  21.409   9.135
 1244POPC   C1A19251   9.509  21.244   8.919
 1244POPC   D2A19252   9.717  21.086   8.540
 1244POPC   C3A19253   9.530  21.035   8.107
 1244POPC   C4A19254   9.594  21.294   7.758
 1244POPC   C1B19255  10.195  21.283   8.728
 1244POPC   C2B19256  10.108  21.311   8.263
 1244POPC   C3B19257   9.973  21.575   7.935
 1244POPC   C4B19258   9.891  21.715   7.531
 1245POPC   NC319259   9.562  33.339   9.508
 1245POPC   PO419260   9.814  33.988   9.413
 1245POPC   GL119261   9.830  33.827   9.056
 1245POPC   GL219262   9.607  33.583   9.066
 1245POPC   C1A19263   9.836  33.854   8.639
 1245POPC   D2A19264   9.807  33.572   8.316
 1245POPC   C3A19265   9.952  33.688   7.942
 1245POPC   C4A19266   9.717  33.873   7.653
 1245POPC   C1B19267   9.444  33.495   8.673
 1245POPC   C2B19268   9.395  33.269   8.287
 1245POPC   C3B19269   9.447  33.500   7.884
 1245POPC   C4B19270   9.505  33.491   7.399
 1246POPC   NC319271   6.727  35.608   9.392
 1246POPC   PO419272   6.955  35.064   9.604
 1246POPC   GL119273   6.745  35.154   9.156
 1246POPC   GL219274   6.897  35.485   8.935
 1246POPC   C1A19275   6.527  35.200   8.755
 1246POPC   D2A19276   6.823  35.319   8.426
 1246POPC   C3A19277   6.656  35.114   8.116
 1246POPC   C4A19278   6.246  35.106   7.947
 1246POPC   C1B19279   6.556  35.695   8.656
 1246POPC   C2B19280   6.328  35.481   8.320
 1246POPC   C3B19281   6.425  35.567   7.912
 1246POPC   C4B19282   6.868  35.555   7.916
 1247POPC   NC319283  22.935  24.614   9.495
 1247POPC   PO419284  23.148  23.971   9.459
 1247POPC   GL119285  23.062  24.289   9.098
 1247POPC   GL219286  22.735  24.452   9.013
 1247POPC   C1A19287  23.062  24.409   8.631
 1247POPC   D2A19288  22.975  24.238   8.260
 1247POPC   C3A19289  22.993  24.350   7.837
 1247POPC   C4A19290  22.661  24.164   7.537
 1247POPC   C1B19291  22.953  24.829   8.873
 1247POPC   C2B19292  23.056  24.930   8.476
 1247POPC   C3B19293  23.189  24.740   8.118
 1247POPC   C4B19294  23.096  24.863   7.720
 1248POPC   NC319295  28.065  26.459   9.419
 1248POPC   PO419296  28.643  26.080   9.689
 1248POPC   GL119297  28.429  26.105   9.334
 1248POPC   GL219298  28.698  25.933   9.203
 1248POPC   C1A19299  28.284  26.025   8.909
 1248POPC   D2A19300  28.036  26.142   8.552
 1248POPC   C3A19301  28.254  26.187   8.183
 1248POPC   C4A19302  28.220  26.052   7.771
 1248POPC   C1B19303  28.814  26.001   8.804
 1248POPC   C2B19304  28.709  26.083   8.398
 1248POPC   C3B19305  28.846  25.949   8.008
 1248POPC   C4B19306  28.734  25.982   7.616
 1249POPC   NC319307   3.294  18.700   9.457
 1249POPC   PO419308   3.624  18.063   9.482
 1249POPC   GL119309   3.483  18.311   9.205
 1249POPC   GL219310   3.241  18.125   9.077
 1249POPC   C1A19311   3.408  18.553   8.837
 1249POPC   D2A19312   3.510  18.501   8.437
 1249POPC   C3A19313   3.235  18.684   8.165
 1249POPC   C4A19314   3.270  18.640   7.735
 1249POPC   C1B19315   3.608  18.047   8.793
 1249POPC   C2B19316   3.711  18.034   8.387
 1249POPC   C3B19317   3.531  18.191   8.011
 1249POPC   C4B19318   3.644  17.863   7.731
 1250POPC   NC319319  11.577  35.059   9.728
 1250POPC   PO419320  11.244  35.640   9.565
 1250POPC   GL119321  11.109  35.641   9.169
 1250POPC   GL219322  11.272  35.293   9.133
 1250POPC   C1A19323  11.104  35.575   8.750
 1250POPC   D2A19324  11.078  35.244   8.515
 1250POPC   C3A19325  11.313  35.362   8.151
 1250POPC   C4A19326  11.398  35.437   7.717
 1250POPC   C1B19327  11.515  35.123   8.780
 1250POPC   C2B19328  11.729  35.148   8.392
 1250POPC   C3B19329  11.683  35.037   7.951
 1250POPC   C4B19330  11.689  35.007   7.519
 1251POPC   NC319331  35.717  13.779   9.368
 1251POPC   PO419332  35.252  13.304   9.479
 1251POPC   GL119333  35.277  13.556   9.100
 1251POPC   GL219334  35.094  13.391   8.841
 1251POPC   C1A19335  35.397  13.851   8.746
 1251POPC   D2A19336  35.436  13.981   8.319
 1251POPC   C3A19337  35.723  13.682   8.088
 1251POPC   C4A19338  35.687  13.358   7.745
 1251POPC   C1B19339  34.892  13.801   8.824
 1251POPC   C2B19340  34.888  14.028   8.422
 1251POPC   C3B19341  35.058  14.041   7.989
 1251POPC   C4B19342  35.257  13.638   7.879
 1252POPC   NC319343  19.413  33.356   9.518
 1252POPC   PO419344  19.109  33.953   9.581
 1252POPC   GL119345  19.130  33.680   9.184
 1252POPC   GL219346  18.843  33.428   9.091
 1252POPC   C1A19347  18.955  33.846   8.785
 1252POPC   D2A19348  18.834  33.934   8.349
 1252POPC   C3A19349  19.165  33.852   8.021
 1252POPC   C4A19350  19.312  34.065   7.638
 1252POPC   C1B19351  18.912  33.365   8.632
 1252POPC   C2B19352  18.670  33.452   8.250
 1252POPC   C3B19353  18.773  33.582   7.838
 1252POPC   C4B19354  18.620  33.519   7.453
 1253POPC   NC319355  44.126  13.091   9.489
 1253POPC   PO419356  43.697  12.567   9.517
 1253POPC   GL119357  43.735  12.880   9.198
 1253POPC   GL219358  44.026  12.739   9.138
 1253POPC   C1A19359  43.647  13.058   8.773
 1253POPC   D2A19360  43.850  13.204   8.391
 1253POPC   C3A19361  43.873  12.991   8.039
 1253POPC   C4A19362  43.783  13.034   7.633
 1253POPC   C1B19363  44.146  12.934   8.797
 1253POPC   C2B19364  44.271  12.935   8.392
 1253POPC   C3B19365  44.359  13.246   8.115
 1253POPC   C4B19366  44.260  13.156   7.720
 1254POPC   NC319367  41.363  19.440   9.536
 1254POPC   PO419368  41.854  18.957   9.439
 1254POPC   GL119369  41.836  19.123   9.057
 1254POPC   GL219370  41.691  19.433   9.120
 1254POPC   C1A19371  41.553  19.154   8.696
 1254POPC   D2A19372  41.235  18.896   8.478
 1254POPC   C3A19373  41.367  18.785   8.075
 1254POPC   C4A19374  41.648  18.900   7.784
 1254POPC   C1B19375  41.282  19.540   8.893
 1254POPC   C2B19376  41.127  19.405   8.484
 1254POPC   C3B19377  41.441  19.293   8.172
 1254POPC   C4B19378  41.532  19.393   7.759
 1255POPC   NC319379  26.800  36.277   9.476
 1255POPC   PO419380  26.424  35.809   9.343
 1255POPC   GL119381  26.744  35.987   9.064
 1255POPC   GL219382  26.633  36.318   9.002
 1255POPC   C1A19383  26.988  35.840   8.717
 1255POPC   D2A19384  27.082  35.736   8.293
 1255POPC   C3A19385  26.811  35.881   7.930
 1255POPC   C4A19386  26.938  36.044   7.503
 1255POPC   C1B19387  26.623  36.191   8.584
 1255POPC   C2B19388  26.901  36.262   8.258
 1255POPC   C3B19389  26.785  36.414   7.852
 1255POPC   C4B19390  26.628  36.436   7.428
 1256POPC   NC319391  22.833  16.500   9.536
 1256POPC   PO419392  23.100  17.136   9.532
 1256POPC   GL119393  23.017  16.891   9.215
 1256POPC   GL219394  22.715  16.784   9.133
 1256POPC   C1A19395  23.002  17.019   8.812
 1256POPC   D2A19396  22.869  16.875   8.430
 1256POPC   C3A19397  23.139  16.637   8.165
 1256POPC   C4A19398  23.051  16.495   7.771
 1256POPC   C1B19399  22.889  16.489   8.823
 1256POPC   C2B19400  22.719  16.386   8.420
 1256POPC   C3B19401  22.630  16.603   8.054
 1256POPC   C4B19402  22.540  16.468   7.676
 1257POPC   NC319403  41.002  12.378   9.525
 1257POPC   PO419404  40.947  11.710   9.312
 1257POPC   GL119405  40.976  12.078   9.093
 1257POPC   GL219406  40.705  12.313   9.130
 1257POPC   C1A19407  40.841  12.078   8.687
 1257POPC   D2A19408  40.723  11.879   8.293
 1257POPC   C3A19409  40.835  12.081   7.936
 1257POPC   C4A19410  40.959  12.137   7.523
 1257POPC   C1B19411  40.373  12.427   8.884
 1257POPC   C2B19412  40.275  12.470   8.431
 1257POPC   C3B19413  40.401  12.413   8.002
 1257POPC   C4B19414  40.605  12.521   7.613
 1258POPC   NC319415  20.094   3.237   9.516
 1258POPC   PO419416  19.361   3.233   9.527
 1258POPC   GL119417  19.711   3.078   9.231
 1258POPC   GL219418  19.793   2.745   9.242
 1258POPC   C1A19419  19.985   3.075   8.846
 1258POPC   D2A19420  19.875   3.086   8.413
 1258POPC   C3A19421  19.842   2.801   8.067
 1258POPC   C4A19422  19.690   2.884   7.670
 1258POPC   C1B19423  20.056   2.589   8.913
 1258POPC   C2B19424  20.017   2.538   8.486
 1258POPC   C3B19425  20.184   2.420   8.092
 1258POPC   C4B19426  19.950   2.400   7.708
 1259POPC   NC319427  33.457  34.448   9.527
 1259POPC   PO419428  34.112  34.286   9.501
 1259POPC   GL119429  33.967  34.580   9.165
 1259POPC   GL219430  33.652  34.758   9.128
 1259POPC   C1A19431  33.988  34.735   8.724
 1259POPC   D2A19432  34.072  34.846   8.280
 1259POPC   C3A19433  33.753  34.784   7.967
 1259POPC   C4A19434  33.772  34.926   7.532
 1259POPC   C1B19435  33.544  34.448   8.838
 1259POPC   C2B19436  33.625  34.479   8.407
 1259POPC   C3B19437  33.417  34.383   8.038
 1259POPC   C4B19438  33.348  34.114   7.682
 1260POPC   NC319439  11.740  30.869   9.448
 1260POPC   PO419440  12.404  30.628   9.444
 1260POPC   GL119441  12.084  30.607   9.130
 1260POPC   GL219442  11.943  30.307   9.028
 1260POPC   C1A19443  12.038  30.666   8.697
 1260POPC   D2A19444  12.113  30.954   8.389
 1260POPC   C3A19445  12.297  30.928   8.015
 1260POPC   C4A19446  12.218  30.688   7.695
 1260POPC   C1B19447  11.596  30.413   8.794
 1260POPC   C2B19448  11.601  30.649   8.423
 1260POPC   C3B19449  11.839  30.601   8.056
 1260POPC   C4B19450  11.857  30.336   7.690
 1261POPC   NC319451  37.449  33.738   9.463
 1261POPC   PO419452  37.902  34.212   9.441
 1261POPC   GL119453  37.824  33.909   9.100
 1261POPC   GL219454  37.484  33.980   9.034
 1261POPC   C1A19455  37.715  33.703   8.693
 1261POPC   D2A19456  37.493  33.635   8.274
 1261POPC   C3A19457  37.752  33.776   7.919
 1261POPC   C4A19458  37.977  33.572   7.573
 1261POPC   C1B19459  37.223  33.862   8.686
 1261POPC   C2B19460  37.202  34.075   8.287
 1261POPC   C3B19461  37.210  34.019   7.868
 1261POPC   C4B19462  37.429  33.871   7.507
 1262POPC   NC319463   1.074   8.011   9.643
 1262POPC   PO419464   0.360   8.101   9.634
 1262POPC   GL119465   0.276   8.252   9.212
 1262POPC   GL219466   0.485   7.989   9.134
 1262POPC   C1A19467   0.218   8.220   8.727
 1262POPC   D2A19468   0.539   8.443   8.411
 1262POPC   C3A19469   0.581   8.315   7.960
 1262POPC   C4A19470   0.210   8.305   7.665
 1262POPC   C1B19471   0.692   8.112   8.758
 1262POPC   C2B19472   0.517   7.942   8.360
 1262POPC   C3B19473   0.687   7.820   7.978
 1262POPC   C4B19474   0.547   7.949   7.578
 1263POPC   NC319475  34.810   7.071   9.335
 1263POPC   PO419476  34.918   7.757   9.470
 1263POPC   GL119477  34.766   7.549   9.083
 1263POPC   GL219478  34.431   7.384   9.174
 1263POPC   C1A19479  34.599   7.727   8.680
 1263POPC   D2A19480  34.155   7.753   8.481
 1263POPC   C3A19481  34.213   7.664   8.046
 1263POPC   C4A19482  34.666   7.636   7.928
 1263POPC   C1B19483  34.323   7.313   8.754
 1263POPC   C2B19484  34.448   7.316   8.357
 1263POPC   C3B19485  34.467   7.183   7.978
 1263POPC   C4B19486  34.181   7.342   7.655
 1264POPC   NC319487  25.997   1.184  10.102
 1264POPC   PO419488  26.195   1.083   9.672
 1264POPC   GL119489  26.147   1.121   9.174
 1264POPC   GL219490  25.857   0.933   9.046
 1264POPC   C1A19491  26.105   1.219   8.696
 1264POPC   D2A19492  25.939   1.090   8.286
 1264POPC   C3A19493  26.005   1.331   7.911
 1264POPC   C4A19494  26.402   1.540   7.772
 1264POPC   C1B19495  25.979   0.720   8.651
 1264POPC   C2B19496  26.049   0.596   8.214
 1264POPC   C3B19497  25.966   0.813   7.819
 1264POPC   C4B19498  25.797   1.133   7.491
 1265POPC   NC319499  36.978   9.273   9.692
 1265POPC   PO419500  37.316   8.703   9.554
 1265POPC   GL119501  37.065   8.810   9.235
 1265POPC   GL219502  37.025   9.154   9.179
 1265POPC   C1A19503  37.210   8.804   8.827
 1265POPC   D2A19504  37.268   8.884   8.412
 1265POPC   C3A19505  36.921   8.844   8.112
 1265POPC   C4A19506  37.057   8.714   7.699
 1265POPC   C1B19507  36.785   9.088   8.744
 1265POPC   C2B19508  36.499   9.262   8.410
 1265POPC   C3B19509  36.518   9.245   7.953
 1265POPC   C4B19510  36.692   9.101   7.578
 1266POPC   NC319511  36.889  17.654   9.650
 1266POPC   PO419512  36.321  17.394   9.376
 1266POPC   GL119513  36.642  17.650   9.216
 1266POPC   GL219514  36.930  17.469   9.182
 1266POPC   C1A19515  36.715  17.826   8.832
 1266POPC   D2A19516  36.639  17.607   8.444
 1266POPC   C3A19517  36.889  17.681   8.107
 1266POPC   C4A19518  36.676  17.661   7.759
 1266POPC   C1B19519  36.753  17.271   8.840
 1266POPC   C2B19520  36.802  17.106   8.435
 1266POPC   C3B19521  36.649  17.199   8.053
 1266POPC   C4B19522  36.958  17.245   7.772
 1267POPC   NC319523  26.696  18.858   9.457
 1267POPC   PO419524  27.227  19.287   9.427
 1267POPC   GL119525  26.961  19.205   9.119
 1267POPC   GL219526  27.052  18.865   9.089
 1267POPC   C1A19527  26.958  19.308   8.677
 1267POPC   D2A19528  26.611  19.391   8.364
 1267POPC   C3A19529  26.744  19.175   7.994
 1267POPC   C4A19530  27.103  19.304   7.732
 1267POPC   C1B19531  26.749  18.844   8.766
 1267POPC   C2B19532  26.715  18.570   8.440
 1267POPC   C3B19533  26.628  18.637   8.040
 1267POPC   C4B19534  26.798  18.721   7.647
 1268POPC   NC319535  36.875  19.086   9.486
 1268POPC   PO419536  36.458  18.611   9.270
 1268POPC   GL119537  36.725  18.943   9.019
 1268POPC   GL219538  37.095  18.991   9.047
 1268POPC   C1A19539  36.855  18.920   8.597
 1268POPC   D2A19540  36.794  18.696   8.229
 1268POPC   C3A19541  36.912  18.929   7.844
 1268POPC   C4A19542  36.721  18.862   7.431
 1268POPC   C1B19543  37.339  19.085   8.712
 1268POPC   C2B19544  37.258  19.249   8.329
 1268POPC   C3B19545  37.381  19.471   7.973
 1268POPC   C4B19546  37.098  19.445   7.674
 1269POPC   NC319547  21.562  34.229   9.384
 1269POPC   PO419548  20.933  34.598   9.420
 1269POPC   GL119549  21.247  34.560   9.121
 1269POPC   GL219550  21.346  34.892   9.092
 1269POPC   C1A19551  21.501  34.387   8.773
 1269POPC   D2A19552  21.622  34.181   8.432
 1269POPC   C3A19553  21.311  34.194   8.150
 1269POPC   C4A19554  21.296  34.470   7.810
 1269POPC   C1B19555  21.210  34.784   8.664
 1269POPC   C2B19556  21.450  34.653   8.324
 1269POPC   C3B19557  21.619  34.821   7.975
 1269POPC   C4B19558  21.285  34.980   7.764
 1270POPC   NC319559  13.413  33.932   9.433
 1270POPC   PO419560  13.974  33.535   9.425
 1270POPC   GL119561  13.733  33.675   9.075
 1270POPC   GL219562  13.815  34.016   9.084
 1270POPC   C1A19563  13.822  33.797   8.637
 1270POPC   D2A19564  14.027  33.570   8.322
 1270POPC   C3A19565  13.944  33.728   7.921
 1270POPC   C4A19566  13.657  33.734   7.588
 1270POPC   C1B19567  13.473  34.137   8.770
 1270POPC   C2B19568  13.465  34.301   8.346
 1270POPC   C3B19569  13.617  34.148   7.916
 1270POPC   C4B19570  13.515  34.193   7.438
 1271POPC   NC319571  24.442   6.302   9.308
 1271POPC   PO419572  24.630   5.667   9.562
 1271POPC   GL119573  24.574   5.827   9.155
 1271POPC   GL219574  24.212   5.808   9.101
 1271POPC   C1A19575  24.464   6.002   8.709
 1271POPC   D2A19576  24.409   5.817   8.302
 1271POPC   C3A19577  24.374   6.081   7.955
 1271POPC   C4A19578  24.698   6.164   7.646
 1271POPC   C1B19579  24.461   5.505   8.791
 1271POPC   C2B19580  24.607   5.362   8.381
 1271POPC   C3B19581  24.500   5.440   7.960
 1271POPC   C4B19582  24.366   5.714   7.644
 1272POPC   NC319583  32.680  13.992   9.302
 1272POPC   PO419584  33.077  14.637   9.413
 1272POPC   GL119585  33.367  14.604   9.030
 1272POPC   GL219586  33.502  14.220   8.950
 1272POPC   C1A19587  33.315  14.561   8.604
 1272POPC   D2A19588  33.002  14.706   8.339
 1272POPC   C3A19589  33.096  14.572   7.939
 1272POPC   C4A19590  33.299  14.679   7.559
 1272POPC   C1B19591  33.078  14.153   8.784
 1272POPC   C2B19592  32.850  14.103   8.376
 1272POPC   C3B19593  32.625  14.194   7.985
 1272POPC   C4B19594  32.757  14.428   7.578
 1273POPC   NC319595   3.375  28.214   9.582
 1273POPC   PO419596   3.832  28.634   9.349
 1273POPC   GL119597   3.539  28.343   9.116
 1273POPC   GL219598   3.413  27.954   9.161
 1273POPC   C1A19599   3.446  28.463   8.701
 1273POPC   D2A19600   3.665  28.631   8.342
 1273POPC   C3A19601   3.396  28.773   8.050
 1273POPC   C4A19602   3.173  28.499   7.782
 1273POPC   C1B19603   3.631  27.942   8.796
 1273POPC   C2B19604   3.524  28.050   8.403
 1273POPC   C3B19605   3.523  28.241   8.034
 1273POPC   C4B19606   3.495  28.126   7.627
 1274POPC   NC319607  28.840  31.014   9.524
 1274POPC   PO419608  29.338  31.413   9.747
 1274POPC   GL119609  29.333  31.621   9.224
 1274POPC   GL219610  29.192  31.358   9.006
 1274POPC   C1A19611  29.517  31.643   8.779
 1274POPC   D2A19612  29.399  31.308   8.491
 1274POPC   C3A19613  29.188  31.458   8.113
 1274POPC   C4A19614  29.209  31.585   7.672
 1274POPC   C1B19615  28.916  31.504   8.671
 1274POPC   C2B19616  28.690  31.409   8.264
 1274POPC   C3B19617  28.775  31.382   7.811
 1274POPC   C4B19618  28.754  31.620   7.400
 1275POPC   NC319619  37.875   2.245   9.374
 1275POPC   PO419620  38.070   1.687   9.684
 1275POPC   GL119621  37.672   1.782   9.264
 1275POPC   GL219622  37.494   2.074   9.095
 1275POPC   C1A19623  37.624   1.665   8.814
 1275POPC   D2A19624  37.562   1.854   8.418
 1275POPC   C3A19625  37.566   1.647   8.039
 1275POPC   C4A19626  37.476   1.812   7.655
 1275POPC   C1B19627  37.768   2.222   8.731
 1275POPC   C2B19628  37.920   2.254   8.304
 1275POPC   C3B19629  37.923   2.055   7.885
 1275POPC   C4B19630  37.981   1.626   7.741
 1276POPC   NC319631  33.141  39.029   9.543
 1276POPC   PO419632  33.036  38.349   9.757
 1276POPC   GL119633  33.025  38.535   9.258
 1276POPC   GL219634  33.333  38.672   9.121
 1276POPC   C1A19635  33.125  38.390   8.763
 1276POPC   D2A19636  33.216  38.580   8.322
 1276POPC   C3A19637  32.993  38.458   7.913
 1276POPC   C4A19638  32.845  38.532   7.481
 1276POPC   C1B19639  33.566  38.676   8.724
 1276POPC   C2B19640  33.559  38.954   8.338
 1276POPC   C3B19641  33.353  38.921   7.947
 1276POPC   C4B19642  33.316  38.714   7.556
 1277POPC   NC319643  14.150  42.642   9.246
 1277POPC   PO419644  14.742  42.327   9.428
 1277POPC   GL119645  14.459  42.246   9.121
 1277POPC   GL219646  14.155  42.048   9.244
 1277POPC   C1A19647  14.458  42.424   8.688
 1277POPC   D2A19648  14.115  42.586   8.433
 1277POPC   C3A19649  14.132  42.579   7.969
 1277POPC   C4A19650  14.515  42.414   7.748
 1277POPC   C1B19651  14.067  42.088   8.827
 1277POPC   C2B19652  14.201  42.042   8.429
 1277POPC   C3B19653  14.193  42.067   8.008
 1277POPC   C4B19654  14.302  41.955   7.587
 1278POPC   NC319655  36.894  35.738   9.277
 1278POPC   PO419656  36.977  35.075   9.504
 1278POPC   GL119657  36.798  35.250   9.135
 1278POPC   GL219658  37.134  35.359   9.086
 1278POPC   C1A19659  36.728  35.425   8.697
 1278POPC   D2A19660  36.724  35.314   8.250
 1278POPC   C3A19661  36.853  35.552   7.912
 1278POPC   C4A19662  37.178  35.843   7.954
 1278POPC   C1B19663  37.225  35.251   8.718
 1278POPC   C2B19664  37.198  35.519   8.386
 1278POPC   C3B19665  37.287  35.345   8.021
 1278POPC   C4B19666  37.360  35.386   7.611
 1279POPC   NC319667  28.684  14.302   9.509
 1279POPC   PO419668  28.306  14.925   9.339
 1279POPC   GL119669  28.171  14.644   9.036
 1279POPC   GL219670  28.438  14.451   9.079
 1279POPC   C1A19671  28.251  14.571   8.594
 1279POPC   D2A19672  28.143  14.350   8.251
 1279POPC   C3A19673  28.165  14.547   7.854
 1279POPC   C4A19674  28.366  14.360   7.495
 1279POPC   C1B19675  28.712  14.647   8.749
 1279POPC   C2B19676  28.704  14.344   8.396
 1279POPC   C3B19677  28.578  14.265   7.974
 1279POPC   C4B19678  28.687  14.659   7.765
 1280POPC   NC319679  28.914  20.315   9.556
 1280POPC   PO419680  28.286  20.657   9.577
 1280POPC   GL119681  28.400  20.551   9.164
 1280POPC   GL219682  28.685  20.379   9.100
 1280POPC   C1A19683  28.445  20.670   8.749
 1280POPC   D2A19684  28.459  20.921   8.405
 1280POPC   C3A19685  28.418  20.612   8.065
 1280POPC   C4A19686  28.388  20.692   7.648
 1280POPC   C1B19687  28.828  20.292   8.693
 1280POPC   C2B19688  28.690  20.124   8.289
 1280POPC   C3B19689  28.688  20.221   7.824
 1280POPC   C4B19690  28.658  20.173   7.349
 1281POPC   NC319691  23.185   5.593   9.490
 1281POPC   PO419692  22.620   5.878   9.644
 1281POPC   GL119693  22.827   5.968   9.248
 1281POPC   GL219694  22.958   5.695   9.047
 1281POPC   C1A19695  22.744   6.120   8.797
 1281POPC   D2A19696  22.950   6.118   8.406
 1281POPC   C3A19697  22.794   5.846   8.092
 1281POPC   C4A19698  22.738   5.978   7.710
 1281POPC   C1B19699  23.234   5.962   8.830
 1281POPC   C2B19700  23.441   5.936   8.431
 1281POPC   C3B19701  23.293   5.955   7.974
 1281POPC   C4B19702  23.472   5.705   7.608
 1282POPC   NC319703   5.987  28.908   9.505
 1282POPC   PO419704   5.460  29.356   9.502
 1282POPC   GL119705   5.643  29.059   9.141
 1282POPC   GL219706   5.974  29.119   9.013
 1282POPC   C1A19707   5.722  28.830   8.734
 1282POPC   D2A19708   5.590  28.958   8.360
 1282POPC   C3A19709   5.939  29.049   8.039
 1282POPC   C4A19710   5.857  29.168   7.626
 1282POPC   C1B19711   5.905  29.314   8.576
 1282POPC   C2B19712   6.077  29.515   8.177
 1282POPC   C3B19713   6.236  29.485   7.729
 1282POPC   C4B19714   6.027  29.528   7.290
 1283POPC   NC319715  44.309  19.168   9.403
 1283POPC   PO419716  44.934  19.098   9.488
 1283POPC   GL119717  44.721  19.101   9.101
 1283POPC   GL219718  44.464  18.789   9.091
 1283POPC   C1A19719  44.908  19.155   8.691
 1283POPC   D2A19720  44.799  18.938   8.314
 1283POPC   C3A19721  44.881  19.212   7.964
 1283POPC   C4A19722  44.630  19.303   7.620
 1283POPC   C1B19723  44.377  19.023   8.718
 1283POPC   C2B19724  44.155  19.094   8.343
 1283POPC   C3B19725  44.378  19.025   7.990
 1283POPC   C4B19726  44.440  18.845   7.590
 1284POPC   NC319727  40.421   1.176   9.455
 1284POPC   PO419728  39.775   1.524   9.453
 1284POPC   GL119729  40.009   1.370   9.130
 1284POPC   GL219730  40.337   1.530   9.102
 1284POPC   C1A19731  39.897   1.019   8.848
 1284POPC   D2A19732  39.739   0.844   8.460
 1284POPC   C3A19733  39.844   0.996   8.051
 1284POPC   C4A19734  39.646   0.960   7.651
 1284POPC   C1B19735  40.364   1.224   8.790
 1284POPC   C2B19736  40.180   1.175   8.417
 1284POPC   C3B19737  40.375   1.092   8.026
 1284POPC   C4B19738  40.200   1.232   7.682
 1285POPC   NC319739  40.137   8.021   9.394
 1285POPC   PO419740  39.554   8.277   9.472
 1285POPC   GL119741  39.866   8.389   9.159
 1285POPC   GL219742  40.181   8.500   9.229
 1285POPC   C1A19743  39.966   8.120   8.765
 1285POPC   D2A19744  39.917   7.932   8.348
 1285POPC   C3A19745  39.992   8.176   7.985
 1285POPC   C4A19746  39.841   8.276   7.595
 1285POPC   C1B19747  40.159   8.587   8.782
 1285POPC   C2B19748  40.128   8.472   8.372
 1285POPC   C3B19749  40.262   8.603   7.946
 1285POPC   C4B19750  40.373   8.388   7.549
 1286POPC   NC319751   2.089  16.598   9.710
 1286POPC   PO419752   1.613  16.216   9.731
 1286POPC   GL119753   1.738  16.515   9.316
 1286POPC   GL219754   2.057  16.763   9.214
 1286POPC   C1A19755   1.668  16.762   8.890
 1286POPC   D2A19756   1.491  16.883   8.476
 1286POPC   C3A19757   1.693  16.875   8.093
 1286POPC   C4A19758   1.633  16.541   7.804
 1286POPC   C1B19759   2.138  17.056   8.826
 1286POPC   C2B19760   2.350  17.286   8.402
 1286POPC   C3B19761   2.246  17.130   7.993
 1286POPC   C4B19762   2.121  16.729   7.844
 1287POPC   NC319763  20.358   7.849   9.419
 1287POPC   PO419764  20.740   7.259   9.538
 1287POPC   GL119765  20.425   7.358   9.230
 1287POPC   GL219766  20.692   7.581   9.137
 1287POPC   C1A19767  20.341   7.527   8.792
 1287POPC   D2A19768  20.552   7.578   8.399
 1287POPC   C3A19769  20.366   7.389   8.051
 1287POPC   C4A19770  20.232   7.531   7.664
 1287POPC   C1B19771  20.860   7.704   8.795
 1287POPC   C2B19772  20.948   7.898   8.411
 1287POPC   C3B19773  21.035   7.626   8.066
 1287POPC   C4B19774  20.770   7.494   7.754
 1288POPC   NC319775  15.659   0.015   9.235
 1288POPC   PO419776  16.034  44.544   9.585
 1288POPC   GL119777  15.909  44.545   9.155
 1288POPC   GL219778  16.021  44.210   9.130
 1288POPC   C1A19779  15.812  44.669   8.722
 1288POPC   D2A19780  15.722  44.840   8.317
 1288POPC   C3A19781  16.090   0.004   8.136
 1288POPC   C4A19782  16.253  44.929   7.729
 1288POPC   C1B19783  16.180  44.304   8.739
 1288POPC   C2B19784  16.008  44.381   8.346
 1288POPC   C3B19785  16.176  44.469   7.980
 1288POPC   C4B19786  16.366  44.227   7.730
 1289POPC   NC319787  39.862  37.602   9.624
 1289POPC   PO419788  40.483  37.553   9.640
 1289POPC   GL119789  40.197  37.507   9.233
 1289POPC   GL219790  39.803  37.465   9.144
 1289POPC   C1A19791  40.168  37.678   8.793
 1289POPC   D2A19792  39.870  37.743   8.436
 1289POPC   C3A19793  39.980  37.725   7.979
 1289POPC   C4A19794  40.116  37.765   7.560
 1289POPC   C1B19795  39.846  37.283   8.711
 1289POPC   C2B19796  39.890  37.266   8.250
 1289POPC   C3B19797  39.746  37.277   7.843
 1289POPC   C4B19798  39.879  37.321   7.439
 1290POPC   NC319799  24.345  28.469   9.463
 1290POPC   PO419800  24.768  27.867   9.569
 1290POPC   GL119801  24.634  27.913   9.085
 1290POPC   GL219802  24.348  28.163   9.058
 1290POPC   C1A19803  24.574  28.015   8.647
 1290POPC   D2A19804  24.163  28.148   8.500
 1290POPC   C3A19805  24.264  28.297   8.103
 1290POPC   C4A19806  24.633  28.161   7.838
 1290POPC   C1B19807  24.444  28.578   8.804
 1290POPC   C2B19808  24.426  28.736   8.366
 1290POPC   C3B19809  24.650  28.660   7.966
 1290POPC   C4B19810  24.698  28.528   7.501
 1291POPC   NC319811  14.107  34.068   9.512
 1291POPC   PO419812  14.711  33.793   9.564
 1291POPC   GL119813  14.421  33.764   9.227
 1291POPC   GL219814  14.382  34.081   9.082
 1291POPC   C1A19815  14.251  33.647   8.839
 1291POPC   D2A19816  14.340  33.916   8.543
 1291POPC   C3A19817  14.402  33.893   8.129
 1291POPC   C4A19818  14.426  33.755   7.732
 1291POPC   C1B19819  14.125  34.302   8.782
 1291POPC   C2B19820  13.968  34.225   8.373
 1291POPC   C3B19821  14.125  34.303   7.991
 1291POPC   C4B19822  14.076  34.122   7.597
 1292POPC   NC319823  15.743  30.261   9.387
 1292POPC   PO419824  16.041  30.878   9.496
 1292POPC   GL119825  16.032  30.624   9.125
 1292POPC   GL219826  15.699  30.698   9.025
 1292POPC   C1A19827  16.178  30.647   8.692
 1292POPC   D2A19828  16.204  30.945   8.341
 1292POPC   C3A19829  15.984  30.889   7.957
 1292POPC   C4A19830  16.313  30.886   7.682
 1292POPC   C1B19831  15.730  30.390   8.689
 1292POPC   C2B19832  15.924  30.384   8.262
 1292POPC   C3B19833  16.026  30.383   7.807
 1292POPC   C4B19834  15.873  30.635   7.465
 1293POPC   NC319835  25.103   5.586   9.537
 1293POPC   PO419836  25.511   6.140   9.579
 1293POPC   GL119837  25.218   5.977   9.222
 1293POPC   GL219838  25.317   5.615   9.080
 1293POPC   C1A19839  24.966   5.898   8.825
 1293POPC   D2A19840  25.059   5.728   8.397
 1293POPC   C3A19841  24.853   5.841   8.014
 1293POPC   C4A19842  25.083   5.865   7.618
 1293POPC   C1B19843  25.490   5.907   8.781
 1293POPC   C2B19844  25.515   6.015   8.328
 1293POPC   C3B19845  25.269   6.185   7.996
 1293POPC   C4B19846  25.412   6.262   7.594
 1294POPC   NC319847  44.915  14.130   9.404
 1294POPC   PO419848  44.550  13.497   9.504
 1294POPC   GL119849  44.617  13.744   9.168
 1294POPC   GL219850  44.823  13.509   9.021
 1294POPC   C1A19851  44.483  13.830   8.765
 1294POPC   D2A19852  44.626  13.569   8.436
 1294POPC   C3A19853  44.558  13.758   8.048
 1294POPC   C4A19854  44.366  13.647   7.714
 1294POPC   C1B19855  44.984  13.790   8.735
 1294POPC   C2B19856  44.827  14.045   8.385
 1294POPC   C3B19857  44.997  14.009   7.948
 1294POPC   C4B19858   0.074  13.665   7.679
 1295POPC   NC319859  10.096  24.318   9.492
 1295POPC   PO419860   9.475  24.394   9.513
 1295POPC   GL119861   9.712  24.519   9.110
 1295POPC   GL219862  10.085  24.645   9.083
 1295POPC   C1A19863   9.636  24.519   8.645
 1295POPC   D2A19864   9.464  24.370   8.238
 1295POPC   C3A19865   9.701  24.363   7.861
 1295POPC   C4A19866   9.483  24.427   7.494
 1295POPC   C1B19867  10.104  24.753   8.634
 1295POPC   C2B19868   9.894  24.714   8.210
 1295POPC   C3B19869   9.984  24.762   7.764
 1295POPC   C4B19870  10.051  24.530   7.384
 1296POPC   NC319871   3.217   6.262   9.581
 1296POPC   PO419872   2.693   5.873   9.550
 1296POPC   GL119873   2.560   6.048   9.141
 1296POPC   GL219874   2.362   5.756   9.039
 1296POPC   C1A19875   2.654   6.000   8.679
 1296POPC   D2A19876   2.557   5.835   8.281
 1296POPC   C3A19877   2.820   5.858   7.899
 1296POPC   C4A19878   3.217   5.762   7.637
 1296POPC   C1B19879   2.213   5.516   8.688
 1296POPC   C2B19880   2.274   5.400   8.249
 1296POPC   C3B19881   2.339   5.644   7.855
 1296POPC   C4B19882   2.459   5.621   7.415
 1297POPC   NC319883  21.747  14.400   9.401
 1297POPC   PO419884  21.186  14.060   9.543
 1297POPC   GL119885  21.340  14.235   9.160
 1297POPC   GL219886  21.295  14.577   9.235
 1297POPC   C1A19887  21.532  14.283   8.758
 1297POPC   D2A19888  21.381  14.164   8.357
 1297POPC   C3A19889  21.390  14.438   7.993
 1297POPC   C4A19890  21.342  14.237   7.635
 1297POPC   C1B19891  21.183  14.646   8.806
 1297POPC   C2B19892  21.293  14.730   8.387
 1297POPC   C3B19893  21.021  14.803   8.020
 1297POPC   C4B19894  21.029  14.877   7.601
 1298POPC   NC319895  27.898   2.605   9.341
 1298POPC   PO419896  27.393   3.047   9.610
 1298POPC   GL119897  27.490   2.907   9.206
 1298POPC   GL219898  27.277   2.641   9.235
 1298POPC   C1A19899  27.552   3.087   8.760
 1298POPC   D2A19900  27.423   2.929   8.356
 1298POPC   C3A19901  27.657   2.680   8.052
 1298POPC   C4A19902  27.782   2.767   7.637
 1298POPC   C1B19903  27.378   2.598   8.773
 1298POPC   C2B19904  27.296   2.420   8.336
 1298POPC   C3B19905  27.250   2.378   7.880
 1298POPC   C4B19906  27.510   2.358   7.501
 1299POPC   NC319907  26.245   3.379   9.593
 1299POPC   PO419908  25.715   3.720   9.743
 1299POPC   GL119909  25.963   3.687   9.270
 1299POPC   GL219910  26.272   3.514   9.119
 1299POPC   C1A19911  25.878   3.797   8.794
 1299POPC   D2A19912  25.773   3.535   8.443
 1299POPC   C3A19913  25.942   3.687   8.040
 1299POPC   C4A19914  26.280   3.498   7.801
 1299POPC   C1B19915  26.359   3.728   8.774
 1299POPC   C2B19916  26.418   3.623   8.377
 1299POPC   C3B19917  26.476   3.886   8.054
 1299POPC   C4B19918  26.243   4.000   7.698
 1300POPC   NC319919   5.646   8.352   9.659
 1300POPC   PO419920   6.134   7.869   9.841
 1300POPC   GL119921   5.980   8.092   9.355
 1300POPC   GL219922   6.115   8.348   9.146
 1300POPC   C1A19923   5.871   8.035   8.852
 1300POPC   D2A19924   6.005   8.194   8.468
 1300POPC   C3A19925   5.690   8.178   8.140
 1300POPC   C4A19926   5.786   8.014   7.741
 1300POPC   C1B19927   5.798   8.526   8.812
 1300POPC   C2B19928   5.921   8.698   8.416
 1300POPC   C3B19929   6.073   8.506   8.035
 1300POPC   C4B19930   5.801   8.523   7.703
 1301POPC   NC319931  42.687  33.618   9.430
 1301POPC   PO419932  43.296  33.574   9.776
 1301POPC   GL119933  43.226  33.553   9.313
 1301POPC   GL219934  43.102  33.891   9.237
 1301POPC   C1A19935  43.187  33.542   8.843
 1301POPC   D2A19936  42.850  33.605   8.523
 1301POPC   C3A19937  42.973  33.629   8.080
 1301POPC   C4A19938  43.003  33.423   7.691
 1301POPC   C1B19939  42.975  34.023   8.803
 1301POPC   C2B19940  43.008  34.066   8.345
 1301POPC   C3B19941  43.012  34.140   7.894
 1301POPC   C4B19942  43.238  34.345   7.549
 1302POPC   NC319943  42.729   2.033   9.464
 1302POPC   PO419944  43.150   1.594   9.655
 1302POPC   GL119945  43.106   1.822   9.177
 1302POPC   GL219946  42.791   1.835   9.018
 1302POPC   C1A19947  43.176   1.991   8.720
 1302POPC   D2A19948  43.060   1.914   8.268
 1302POPC   C3A19949  43.182   1.983   7.843
 1302POPC   C4A19950  43.433   2.326   7.691
 1302POPC   C1B19951  42.708   1.749   8.631
 1302POPC   C2B19952  42.619   1.687   8.215
 1302POPC   C3B19953  42.802   1.592   7.816
 1302POPC   C4B19954  42.821   1.804   7.426
 1303POPC   NC319955  12.767  42.284   9.676
 1303POPC   PO419956  13.209  41.990   9.253
 1303POPC   GL119957  12.984  42.152   8.965
 1303POPC   GL219958  12.693  42.189   9.147
 1303POPC   C1A19959  13.006  42.178   8.566
 1303POPC   D2A19960  12.717  41.931   8.357
 1303POPC   C3A19961  12.859  41.806   8.007
 1303POPC   C4A19962  13.111  42.129   7.868
 1303POPC   C1B19963  12.568  42.413   8.755
 1303POPC   C2B19964  12.671  42.468   8.306
 1303POPC   C3B19965  12.554  42.240   7.945
 1303POPC   C4B19966  12.308  42.337   7.569
 1304POPC   NC319967   9.870  41.637   9.726
 1304POPC   PO419968   9.383  41.240   9.602
 1304POPC   GL119969   9.563  41.562   9.272
 1304POPC   GL219970   9.929  41.649   9.201
 1304POPC   C1A19971   9.599  41.619   8.807
 1304POPC   D2A19972   9.351  41.485   8.439
 1304POPC   C3A19973   9.527  41.506   8.002
 1304POPC   C4A19974   9.391  41.787   7.672
 1304POPC   C1B19975   9.958  41.278   8.859
 1304POPC   C2B19976   9.866  41.336   8.382
 1304POPC   C3B19977  10.084  41.411   7.949
 1304POPC   C4B19978  10.192  41.112   7.589
 1305POPC   NC319979   5.721  27.553   9.536
 1305POPC   PO419980   6.263  27.844   9.573
 1305POPC   GL119981   6.072  27.672   9.177
 1305POPC   GL219982   5.778  27.823   9.114
 1305POPC   C1A19983   5.895  27.465   8.780
 1305POPC   D2A19984   5.980  27.189   8.421
 1305POPC   C3A19985   5.917  27.221   7.966
 1305POPC   C4A19986   6.058  27.068   7.539
 1305POPC   C1B19987   5.569  27.871   8.727
 1305POPC   C2B19988   5.735  27.672   8.340
 1305POPC   C3B19989   5.916  27.718   7.925
 1305POPC   C4B19990   6.209  27.556   7.620
 1306POPC   NC319991  38.857  35.760   9.498
 1306POPC   PO419992  39.257  36.307   9.673
 1306POPC   GL119993  39.065  36.328   9.280
 1306POPC   GL219994  39.207  36.000   9.204
 1306POPC   C1A19995  38.968  36.380   8.856
 1306POPC   D2A19996  38.948  36.007   8.594
 1306POPC   C3A19997  39.076  36.001   8.172
 1306POPC   C4A19998  38.882  36.198   7.820
 1306POPC   C1B19999  39.382  35.859   8.830
 1306POPC   C2B20000  39.428  35.693   8.425
 1306POPC   C3B20001  39.537  35.817   8.023
 1306POPC   C4B20002  39.609  35.609   7.676
 1307POPC   NC320003   1.160   5.720   9.461
 1307POPC   PO420004   0.820   6.304   9.337
 1307POPC   GL120005   0.984   5.964   9.042
 1307POPC   GL220006   1.116   5.574   9.002
 1307POPC   C1A20007   1.060   5.945   8.593
 1307POPC   D2A20008   1.147   6.174   8.215
 1307POPC   C3A20009   1.216   5.994   7.821
 1307POPC   C4A20010   1.557   6.058   7.473
 1307POPC   C1B20011   1.206   5.440   8.637
 1307POPC   C2B20012   1.025   5.524   8.264
 1307POPC   C3B20013   1.352   5.533   7.991
 1307POPC   C4B20014   1.435   5.580   7.571
 1308POPC   NC320015  30.295  33.883   9.395
 1308POPC   PO420016  29.739  34.057   9.692
 1308POPC   GL120017  29.806  33.770   9.283
 1308POPC   GL220018  29.960  34.015   9.041
 1308POPC   C1A20019  29.647  33.699   8.820
 1308POPC   D2A20020  29.788  33.895   8.403
 1308POPC   C3A20021  29.602  33.786   7.966
 1308POPC   C4A20022  29.693  33.874   7.488
 1308POPC   C1B20023  30.151  33.698   8.766
 1308POPC   C2B20024  30.224  33.566   8.383
 1308POPC   C3B20025  30.143  33.802   8.029
 1308POPC   C4B20026  30.063  33.589   7.673
 1309POPC   NC320027  10.581  32.933   9.740
 1309POPC   PO420028  10.087  33.309   9.487
 1309POPC   GL120029  10.352  33.109   9.199
 1309POPC   GL220030  10.602  33.294   9.020
 1309POPC   C1A20031  10.317  32.985   8.769
 1309POPC   D2A20032  10.529  32.818   8.448
 1309POPC   C3A20033  10.265  32.810   8.113
 1309POPC   C4A20034  10.521  32.878   7.747
 1309POPC   C1B20035  10.657  33.302   8.561
 1309POPC   C2B20036  10.738  33.232   8.109
 1309POPC   C3B20037  10.806  33.315   7.655
 1309POPC   C4B20038  10.697  33.342   7.205
 1310POPC   NC320039  41.013  27.821   9.261
 1310POPC   PO420040  40.705  28.291   9.638
 1310POPC   GL120041  40.765  28.252   9.169
 1310POPC   GL220042  41.027  28.515   9.173
 1310POPC   C1A20043  40.781  28.111   8.681
 1310POPC   D2A20044  40.554  28.063   8.256
 1310POPC   C3A20045  40.716  28.083   7.810
 1310POPC   C4A20046  40.546  28.292   7.429
 1310POPC   C1B20047  40.728  28.615   8.825
 1310POPC   C2B20048  40.759  28.544   8.394
 1310POPC   C3B20049  40.909  28.524   7.992
 1310POPC   C4B20050  40.823  28.678   7.611
 1311POPC   NC320051   7.163  14.920   9.504
 1311POPC   PO420052   7.633  15.325   9.463
 1311POPC   GL120053   7.768  15.153   9.086
 1311POPC   GL220054   7.505  14.947   9.094
 1311POPC   C1A20055   7.858  15.217   8.677
 1311POPC   D2A20056   7.843  15.426   8.278
 1311POPC   C3A20057   7.758  15.147   7.919
 1311POPC   C4A20058   7.626  15.129   7.487
 1311POPC   C1B20059   7.374  15.026   8.672
 1311POPC   C2B20060   7.361  15.190   8.241
 1311POPC   C3B20061   7.232  15.194   7.801
 1311POPC   C4B20062   6.952  14.927   7.546
 1312POPC   NC320063   6.228  31.815   9.509
 1312POPC   PO420064   5.749  32.349   9.516
 1312POPC   GL120065   5.901  32.346   9.136
 1312POPC   GL220066   6.224  32.176   9.132
 1312POPC   C1A20067   5.749  32.494   8.758
 1312POPC   D2A20068   5.516  32.590   8.380
 1312POPC   C3A20069   5.773  32.510   8.027
 1312POPC   C4A20070   5.713  32.246   7.622
 1312POPC   C1B20071   6.083  32.052   8.752
 1312POPC   C2B20072   6.014  32.252   8.376
 1312POPC   C3B20073   5.993  32.046   7.974
 1312POPC   C4B20074   6.242  32.131   7.560
 1313POPC   NC320075  10.856   6.002   9.414
 1313POPC   PO420076  10.361   5.541   9.575
 1313POPC   GL120077  10.384   5.773   9.185
 1313POPC   GL220078  10.412   6.151   9.179
 1313POPC   C1A20079  10.448   5.730   8.745
 1313POPC   D2A20080  10.205   5.556   8.430
 1313POPC   C3A20081  10.260   5.757   8.056
 1313POPC   C4A20082  10.525   5.565   7.795
 1313POPC   C1B20083  10.685   6.188   8.770
 1313POPC   C2B20084  10.753   5.963   8.334
 1313POPC   C3B20085  10.642   6.073   7.910
 1313POPC   C4B20086  10.283   6.296   7.896
 1314POPC   NC320087  30.810   6.940   9.578
 1314POPC   PO420088  30.293   7.288   9.536
 1314POPC   GL120089  30.597   7.487   9.248
 1314POPC   GL220090  30.837   7.229   9.154
 1314POPC   C1A20091  30.640   7.520   8.804
 1314POPC   D2A20092  30.589   7.417   8.408
 1314POPC   C3A20093  30.903   7.558   8.142
 1314POPC   C4A20094  30.765   7.612   7.754
 1314POPC   C1B20095  30.556   7.017   8.873
 1314POPC   C2B20096  30.718   6.905   8.463
 1314POPC   C3B20097  30.798   7.067   8.066
 1314POPC   C4B20098  30.540   7.151   7.739
 1315POPC   NC320099   4.410  41.837   9.220
 1315POPC   PO420100   4.388  41.294   9.607
 1315POPC   GL120101   4.253  41.279   9.166
 1315POPC   GL220102   4.018  41.526   9.066
 1315POPC   C1A20103   4.342  41.371   8.698
 1315POPC   D2A20104   4.601  41.435   8.298
 1315POPC   C3A20105   4.382  41.421   7.926
 1315POPC   C4A20106   4.437  41.369   7.455
 1315POPC   C1B20107   4.019  41.804   8.704
 1315POPC   C2B20108   4.135  41.689   8.308
 1315POPC   C3B20109   4.125  41.873   7.928
 1315POPC   C4B20110   4.266  41.827   7.528
 1316POPC   NC320111  15.532  24.894   9.331
 1316POPC   PO420112  16.179  25.117   9.449
 1316POPC   GL120113  15.920  25.320   9.121
 1316POPC   GL220114  15.657  25.581   9.222
 1316POPC   C1A20115  15.667  25.237   8.752
 1316POPC   D2A20116  15.660  25.095   8.319
 1316POPC   C3A20117  16.064  25.060   8.152
 1316POPC   C4A20118  16.025  25.114   7.734
 1316POPC   C1B20119  15.777  25.720   8.803
 1316POPC   C2B20120  15.972  25.539   8.428
 1316POPC   C3B20121  15.868  25.527   8.011
 1316POPC   C4B20122  15.653  25.858   7.835
 1317POPC   NC320123   7.821  43.671   9.385
 1317POPC   PO420124   8.500  43.888   9.411
 1317POPC   GL120125   8.247  43.794   9.085
 1317POPC   GL220126   8.016  44.036   9.084
 1317POPC   C1A20127   8.346  43.829   8.668
 1317POPC   D2A20128   8.510  44.099   8.310
 1317POPC   C3A20129   8.261  43.998   7.945
 1317POPC   C4A20130   8.117  43.581   7.798
 1317POPC   C1B20131   7.845  44.159   8.755
 1317POPC   C2B20132   7.991  44.053   8.396
 1317POPC   C3B20133   7.796  43.879   8.120
 1317POPC   C4B20134   7.756  44.008   7.745
 1318POPC   NC320135  10.997  20.482   9.566
 1318POPC   PO420136  10.338  20.512   9.582
 1318POPC   GL120137  10.589  20.428   9.221
 1318POPC   GL220138  10.775  20.752   9.197
 1318POPC   C1A20139  10.520  20.316   8.779
 1318POPC   D2A20140  10.505  20.529   8.391
 1318POPC   C3A20141  10.313  20.462   7.984
 1318POPC   C4A20142  10.485  20.322   7.612
 1318POPC   C1B20143  10.619  20.894   8.809
 1318POPC   C2B20144  10.802  20.942   8.404
 1318POPC   C3B20145  10.528  20.940   8.072
 1318POPC   C4B20146  10.562  20.831   7.666
 1319POPC   NC320147  30.804   2.474   9.567
 1319POPC   PO420148  30.499   3.004   9.408
 1319POPC   GL120149  30.719   2.758   9.118
 1319POPC   GL220150  31.048   2.761   9.183
 1319POPC   C1A20151  30.646   2.607   8.696
 1319POPC   D2A20152  30.474   2.475   8.315
 1319POPC   C3A20153  30.702   2.631   7.951
 1319POPC   C4A20154  30.441   2.837   7.660
 1319POPC   C1B20155  31.060   2.959   8.780
 1319POPC   C2B20156  30.954   2.869   8.353
 1319POPC   C3B20157  31.117   3.019   7.965
 1319POPC   C4B20158  30.935   2.901   7.547
 1320POPC   NC320159  36.969   2.304   9.439
 1320POPC   PO420160  37.203   1.623   9.535
 1320POPC   GL120161  37.057   1.784   9.131
 1320POPC   GL220162  36.749   1.972   9.124
 1320POPC   C1A20163  37.135   2.046   8.737
 1320POPC   D2A20164  37.353   2.324   8.432
 1320POPC   C3A20165  37.274   2.117   8.043
 1320POPC   C4A20166  36.990   2.176   7.700
 1320POPC   C1B20167  36.651   1.857   8.696
 1320POPC   C2B20168  36.776   2.083   8.315
 1320POPC   C3B20169  36.710   1.836   7.958
 1320POPC   C4B20170  36.576   1.405   7.834
 1321POPC   NC320171  16.886  20.905   9.550
 1321POPC   PO420172  16.237  20.750   9.672
 1321POPC   GL120173  16.412  20.932   9.274
 1321POPC   GL220174  16.601  20.652   9.174
 1321POPC   C1A20175  16.592  21.007   8.809
 1321POPC   D2A20176  16.855  21.007   8.387
 1321POPC   C3A20177  16.662  20.960   7.972
 1321POPC   C4A20178  16.328  20.663   7.809
 1321POPC   C1B20179  16.467  20.524   8.733
 1321POPC   C2B20180  16.579  20.555   8.274
 1321POPC   C3B20181  16.827  20.469   7.881
 1321POPC   C4B20182  17.093  20.432   7.488
 1322POPC   NC320183  12.477  21.588   9.556
 1322POPC   PO420184  13.208  21.465   9.592
 1322POPC   GL120185  13.009  21.507   9.154
 1322POPC   GL220186  12.657  21.639   9.092
 1322POPC   C1A20187  13.190  21.475   8.725
 1322POPC   D2A20188  13.435  21.412   8.330
 1322POPC   C3A20189  13.194  21.228   7.997
 1322POPC   C4A20190  12.788  21.352   7.848
 1322POPC   C1B20191  12.676  21.307   8.791
 1322POPC   C2B20192  12.443  21.130   8.426
 1322POPC   C3B20193  12.315  21.277   8.018
 1322POPC   C4B20194  12.359  21.659   7.751
 1323POPC   NC320195  38.749  44.066   9.570
 1323POPC   PO420196  38.228  43.611   9.588
 1323POPC   GL120197  38.406  43.825   9.265
 1323POPC   GL220198  38.706  43.640   9.274
 1323POPC   C1A20199  38.522  43.956   8.859
 1323POPC   D2A20200  38.241  44.082   8.510
 1323POPC   C3A20201  38.309  43.958   8.083
 1323POPC   C4A20202  38.283  44.141   7.678
 1323POPC   C1B20203  38.797  43.517   8.859
 1323POPC   C2B20204  38.581  43.593   8.460
 1323POPC   C3B20205  38.533  43.493   8.025
 1323POPC   C4B20206  38.601  43.727   7.633
 1324POPC   NC320207  37.294  10.006   9.434
 1324POPC   PO420208  36.715   9.664   9.567
 1324POPC   GL120209  36.869   9.744   9.162
 1324POPC   GL220210  37.179   9.632   9.086
 1324POPC   C1A20211  36.796   9.616   8.721
 1324POPC   D2A20212  36.824   9.862   8.361
 1324POPC   C3A20213  37.044   9.771   7.993
 1324POPC   C4A20214  36.761   9.639   7.690
 1324POPC   C1B20215  37.244   9.331   8.751
 1324POPC   C2B20216  37.039   9.338   8.331
 1324POPC   C3B20217  37.055   9.277   7.887
 1324POPC   C4B20218  37.095   9.327   7.417
 1325POPC   NC320219  25.036  17.318   9.389
 1325POPC   PO420220  25.455  17.755   9.335
 1325POPC   GL120221  25.364  17.577   9.029
 1325POPC   GL220222  25.465  17.261   9.123
 1325POPC   C1A20223  25.442  17.686   8.620
 1325POPC   D2A20224  25.102  17.590   8.341
 1325POPC   C3A20225  25.162  17.823   7.981
 1325POPC   C4A20226  25.485  17.676   7.729
 1325POPC   C1B20227  25.301  17.195   8.713
 1325POPC   C2B20228  25.512  17.247   8.349
 1325POPC   C3B20229  25.374  17.229   7.958
 1325POPC   C4B20230  25.000  17.366   7.868
 1326POPC   NC320231  10.774  35.630   9.563
 1326POPC   PO420232  10.358  35.146   9.426
 1326POPC   GL120233  10.212  35.421   9.113
 1326POPC   GL220234  10.493  35.659   9.118
 1326POPC   C1A20235  10.125  35.306   8.694
 1326POPC   D2A20236  10.055  35.534   8.267
 1326POPC   C3A20237  10.410  35.521   8.014
 1326POPC   C4A20238  10.332  35.051   7.944
 1326POPC   C1B20239  10.641  35.361   8.828
 1326POPC   C2B20240  10.541  35.237   8.423
 1326POPC   C3B20241  10.806  35.218   8.095
 1326POPC   C4B20242  10.914  35.544   7.855
 1327POPC   NC320243   0.134   2.294   9.494
 1327POPC   PO420244   0.790   1.983   9.473
 1327POPC   GL120245   0.429   1.947   9.193
 1327POPC   GL220246   0.405   2.303   9.061
 1327POPC   C1A20247   0.372   1.760   8.768
 1327POPC   D2A20248   0.504   1.932   8.331
 1327POPC   C3A20249   0.496   1.730   7.903
 1327POPC   C4A20250   0.552   1.877   7.452
 1327POPC   C1B20251   0.161   2.224   8.672
 1327POPC   C2B20252   0.108   2.258   8.209
 1327POPC   C3B20253   0.353   2.230   7.799
 1327POPC   C4B20254   0.454   2.357   7.350
 1328POPC   NC320255  14.788   1.394   9.469
 1328POPC   PO420256  15.475   1.112   9.465
 1328POPC   GL120257  15.321   1.216   9.065
 1328POPC   GL220258  14.953   1.171   9.040
 1328POPC   C1A20259  15.244   1.375   8.658
 1328POPC   D2A20260  15.019   1.503   8.274
 1328POPC   C3A20261  15.326   1.379   7.987
 1328POPC   C4A20262  15.542   1.422   7.591
 1328POPC   C1B20263  15.137   0.865   8.727
 1328POPC   C2B20264  15.131   0.993   8.301
 1328POPC   C3B20265  14.877   1.110   7.947
 1328POPC   C4B20266  14.845   0.918   7.553
 1329POPC   NC320267   3.408   2.178  10.214
 1329POPC   PO420268   3.309   1.893   9.572
 1329POPC   GL120269   3.251   1.792   9.107
 1329POPC   GL220270   3.261   2.137   9.061
 1329POPC   C1A20271   3.259   1.875   8.625
 1329POPC   D2A20272   3.068   2.037   8.221
 1329POPC   C3A20273   3.186   1.780   7.851
 1329POPC   C4A20274   3.652   1.644   7.722
 1329POPC   C1B20275   3.577   2.281   8.762
 1329POPC   C2B20276   3.603   2.577   8.412
 1329POPC   C3B20277   3.433   2.515   8.015
 1329POPC   C4B20278   3.528   2.141   7.834
 1330POPC   NC320279  25.048  18.048   9.457
 1330POPC   PO420280  25.627  17.902   9.797
 1330POPC   GL120281  25.494  18.244   9.361
 1330POPC   GL220282  25.148  18.461   9.206
 1330POPC   C1A20283  25.433  18.201   8.870
 1330POPC   D2A20284  25.113  18.103   8.555
 1330POPC   C3A20285  25.256  18.277   8.180
 1330POPC   C4A20286  25.318  18.264   7.728
 1330POPC   C1B20287  25.031  18.590   8.776
 1330POPC   C2B20288  25.123  18.757   8.356
 1330POPC   C3B20289  24.954  18.603   7.953
 1330POPC   C4B20290  24.812  18.176   7.802
 1331POPC   NC320291  27.199  25.039   9.348
 1331POPC   PO420292  26.639  25.382   9.530
 1331POPC   GL120293  26.790  25.305   9.061
 1331POPC   GL220294  27.078  25.404   8.884
 1331POPC   C1A20295  26.665  25.447   8.598
 1331POPC   D2A20296  26.866  25.638   8.212
 1331POPC   C3A20297  26.748  25.619   7.755
 1331POPC   C4A20298  26.654  25.192   7.741
 1331POPC   C1B20299  27.355  25.624   8.597
 1331POPC   C2B20300  27.430  25.605   8.148
 1331POPC   C3B20301  27.156  25.351   7.885
 1331POPC   C4B20302  27.055  25.332   7.432
 1332POPC   NC320303  35.566  41.397   9.415
 1332POPC   PO420304  34.895  41.229   9.411
 1332POPC   GL120305  35.155  41.408   9.061
 1332POPC   GL220306  35.448  41.674   8.961
 1332POPC   C1A20307  35.232  41.395   8.617
 1332POPC   D2A20308  35.653  41.467   8.471
 1332POPC   C3A20309  35.627  41.528   8.030
 1332POPC   C4A20310  35.181  41.498   7.906
 1332POPC   C1B20311  35.046  41.842   8.814
 1332POPC   C2B20312  34.926  41.909   8.413
 1332POPC   C3B20313  35.292  41.935   8.171
 1332POPC   C4B20314  35.485  41.957   7.767
 1333POPC   NC320315   7.898   0.435   9.508
 1333POPC   PO420316   7.223   0.571   9.528
 1333POPC   GL120317   7.477   0.449   9.204
 1333POPC   GL220318   7.676   0.725   9.163
 1333POPC   C1A20319   7.633   0.389   8.801
 1333POPC   D2A20320   7.540   0.362   8.406
 1333POPC   C3A20321   7.189   0.271   8.195
 1333POPC   C4A20322   7.213   0.366   7.761
 1333POPC   C1B20323   7.624   0.899   8.778
 1333POPC   C2B20324   7.464   0.908   8.384
 1333POPC   C3B20325   7.441   0.706   8.042
 1333POPC   C4B20326   7.697   0.634   7.741
 1334POPC   NC320327  32.266  25.475   9.494
 1334POPC   PO420328  32.421  24.880   9.140
 1334POPC   GL120329  32.478  25.290   9.073
 1334POPC   GL220330  32.111  25.307   9.045
 1334POPC   C1A20331  32.458  25.492   8.703
 1334POPC   D2A20332  32.235  25.475   8.325
 1334POPC   C3A20333  32.444  25.480   7.926
 1334POPC   C4A20334  32.472  25.189   7.604
 1334POPC   C1B20335  31.911  25.534   8.743
 1334POPC   C2B20336  31.727  25.434   8.349
 1334POPC   C3B20337  31.864  25.355   7.929
 1334POPC   C4B20338  31.595  25.411   7.581
 1335POPC   NC320339  28.783  28.242   9.567
 1335POPC   PO420340  28.065  28.358   9.481
 1335POPC   GL120341  28.189  28.344   9.079
 1335POPC   GL220342  28.542  28.312   9.095
 1335POPC   C1A20343  28.159  28.091   8.700
 1335POPC   D2A20344  28.233  27.893   8.282
 1335POPC   C3A20345  28.090  28.226   7.984
 1335POPC   C4A20346  28.289  28.646   7.853
 1335POPC   C1B20347  28.496  28.500   8.704
 1335POPC   C2B20348  28.440  28.365   8.325
 1335POPC   C3B20349  28.626  28.247   7.977
 1335POPC   C4B20350  28.779  28.516   7.660
 1336POPC   NC320351   3.127  32.034   9.433
 1336POPC   PO420352   2.447  32.305   9.461
 1336POPC   GL120353   2.721  32.187   9.131
 1336POPC   GL220354   2.694  31.827   9.055
 1336POPC   C1A20355   2.658  32.142   8.673
 1336POPC   D2A20356   2.573  32.344   8.297
 1336POPC   C3A20357   2.892  32.383   7.998
 1336POPC   C4A20358   2.815  32.375   7.542
 1336POPC   C1B20359   3.010  31.768   8.742
 1336POPC   C2B20360   3.004  31.924   8.308
 1336POPC   C3B20361   3.017  31.901   7.858
 1336POPC   C4B20362   3.032  31.944   7.404
 1337POPC   NC320363   8.174   8.338   9.354
 1337POPC   PO420364   7.842   7.789   9.570
 1337POPC   GL120365   8.049   7.871   9.140
 1337POPC   GL220366   8.420   7.966   9.120
 1337POPC   C1A20367   7.933   7.999   8.680
 1337POPC   D2A20368   7.858   8.308   8.315
 1337POPC   C3A20369   8.097   8.284   7.970
 1337POPC   C4A20370   8.086   8.177   7.497
 1337POPC   C1B20371   8.386   8.249   8.761
 1337POPC   C2B20372   8.385   8.495   8.389
 1337POPC   C3B20373   8.610   8.384   8.012
 1337POPC   C4B20374   8.421   8.534   7.659
 1338POPC   NC320375  39.810  34.485   9.618
 1338POPC   PO420376  40.196  34.190   9.151
 1338POPC   GL120377  39.970  34.578   9.108
 1338POPC   GL220378  39.631  34.743   9.209
 1338POPC   C1A20379  40.106  34.774   8.736
 1338POPC   D2A20380  40.362  34.627   8.394
 1338POPC   C3A20381  40.174  34.569   7.999
 1338POPC   C4A20382  40.315  34.829   7.684
 1338POPC   C1B20383  39.616  34.632   8.774
 1338POPC   C2B20384  39.789  34.602   8.370
 1338POPC   C3B20385  39.638  34.763   7.987
 1338POPC   C4B20386  39.643  34.778   7.517
 1339POPC   NC320387  13.037  15.508   9.385
 1339POPC   PO420388  12.551  15.035   9.360
 1339POPC   GL120389  12.710  15.272   9.036
 1339POPC   GL220390  13.061  15.246   8.965
 1339POPC   C1A20391  12.724  15.165   8.607
 1339POPC   D2A20392  12.607  15.251   8.258
 1339POPC   C3A20393  12.952  15.306   8.072
 1339POPC   C4A20394  12.742  15.225   7.707
 1339POPC   C1B20395  13.260  15.044   8.611
 1339POPC   C2B20396  13.034  14.822   8.322
 1339POPC   C3B20397  12.978  14.839   7.896
 1339POPC   C4B20398  13.253  14.842   7.533
 1340POPC   NC320399   9.678   4.683   9.522
 1340POPC   PO420400   9.838   4.063   9.546
 1340POPC   GL120401   9.871   4.317   9.183
 1340POPC   GL220402  10.145   4.492   9.143
 1340POPC   C1A20403   9.965   4.259   8.733
 1340POPC   D2A20404   9.828   4.296   8.295
 1340POPC   C3A20405   9.739   3.974   8.010
 1340POPC   C4A20406   9.594   4.195   7.646
 1340POPC   C1B20407  10.236   4.733   8.835
 1340POPC   C2B20408  10.106   4.699   8.456
 1340POPC   C3B20409  10.173   4.615   8.065
 1340POPC   C4B20410  10.064   4.292   7.792
 1341POPC   NC320411   9.241  43.121   9.388
 1341POPC   PO420412   9.082  43.715   9.649
 1341POPC   GL120413   8.953  43.475   9.185
 1341POPC   GL220414   8.915  43.193   9.019
 1341POPC   C1A20415   9.262  43.423   8.737
 1341POPC   D2A20416   9.121  43.363   8.352
 1341POPC   C3A20417   9.305  43.133   8.025
 1341POPC   C4A20418   9.271  43.335   7.632
 1341POPC   C1B20419   9.012  42.953   8.697
 1341POPC   C2B20420   8.775  42.789   8.391
 1341POPC   C3B20421   8.783  43.079   8.068
 1341POPC   C4B20422   8.926  42.981   7.690
 1342POPC   NC320423   8.512  28.503   9.509
 1342POPC   PO420424   7.830  28.578   9.585
 1342POPC   GL120425   8.091  28.639   9.225
 1342POPC   GL220426   8.170  28.298   9.183
 1342POPC   C1A20427   8.225  28.607   8.785
 1342POPC   D2A20428   8.388  28.320   8.485
 1342POPC   C3A20429   8.188  28.444   8.136
 1342POPC   C4A20430   8.104  28.430   7.730
 1342POPC   C1B20431   8.116  28.054   8.824
 1342POPC   C2B20432   7.924  28.104   8.420
 1342POPC   C3B20433   7.859  28.030   7.982
 1342POPC   C4B20434   8.184  27.925   7.712
 1343POPC   NC320435  15.112   0.836   9.393
 1343POPC   PO420436  15.657   0.416   9.474
 1343POPC   GL120437  15.379   0.457   9.155
 1343POPC   GL220438  15.528   0.748   9.075
 1343POPC   C1A20439  15.055   0.314   8.838
 1343POPC   D2A20440  14.857   0.022   8.510
 1343POPC   C3A20441  14.971   0.144   8.046
 1343POPC   C4A20442  15.321   0.190   7.726
 1343POPC   C1B20443  15.532   0.509   8.677
 1343POPC   C2B20444  15.213   0.458   8.359
 1343POPC   C3B20445  15.125   0.623   7.937
 1343POPC   C4B20446  15.341   0.942   7.742
 1344POPC   NC320447  25.053   8.044   9.496
 1344POPC   PO420448  25.509   8.409   9.356
 1344POPC   GL120449  25.435   7.974   9.116
 1344POPC   GL220450  25.079   7.877   9.029
 1344POPC   C1A20451  25.405   7.734   8.697
 1344POPC   D2A20452  25.099   7.718   8.369
 1344POPC   C3A20453  25.268   7.837   7.984
 1344POPC   C4A20454  25.200   8.238   7.758
 1344POPC   C1B20455  25.094   8.147   8.671
 1344POPC   C2B20456  24.968   8.197   8.227
 1344POPC   C3B20457  24.700   8.292   7.853
 1344POPC   C4B20458  24.788   8.262   7.371
 1345POPC   NC320459   7.708  15.787   9.499
 1345POPC   PO420460   7.099  16.169   9.504
 1345POPC   GL120461   7.470  16.165   9.199
 1345POPC   GL220462   7.606  15.807   9.022
 1345POPC   C1A20463   7.675  16.241   8.798
 1345POPC   D2A20464   7.759  16.012   8.389
 1345POPC   C3A20465   7.616  16.163   7.984
 1345POPC   C4A20466   7.242  16.023   7.727
 1345POPC   C1B20467   7.484  15.567   8.672
 1345POPC   C2B20468   7.357  15.712   8.280
 1345POPC   C3B20469   7.535  15.642   7.915
 1345POPC   C4B20470   7.459  15.591   7.494
 1346POPC   NC320471  22.831   4.158   9.662
 1346POPC   PO420472  23.489   4.048   9.594
 1346POPC   GL120473  23.193   4.112   9.215
 1346POPC   GL220474  22.865   4.233   9.158
 1346POPC   C1A20475  23.197   4.311   8.775
 1346POPC   D2A20476  23.123   4.631   8.443
 1346POPC   C3A20477  22.857   4.587   8.088
 1346POPC   C4A20478  22.894   4.319   7.764
 1346POPC   C1B20479  22.635   4.257   8.793
 1346POPC   C2B20480  22.824   4.188   8.409
 1346POPC   C3B20481  22.534   4.181   8.087
 1346POPC   C4B20482  22.487   4.024   7.694
 1347POPC   NC320483   0.286  26.605   9.492
 1347POPC   PO420484   0.782  27.028   9.431
 1347POPC   GL120485   0.482  26.899   9.077
 1347POPC   GL220486   0.223  26.595   8.985
 1347POPC   C1A20487   0.622  26.699   8.689
 1347POPC   D2A20488   0.956  26.802   8.416
 1347POPC   C3A20489   0.765  26.741   8.022
 1347POPC   C4A20490   0.375  26.822   7.830
 1347POPC   C1B20491   0.153  26.938   8.675
 1347POPC   C2B20492   0.242  27.165   8.297
 1347POPC   C3B20493   0.007  27.172   7.911
 1347POPC   C4B20494   0.063  27.049   7.481
 1348POPC   NC320495   4.636  19.984   9.500
 1348POPC   PO420496   3.973  19.687   9.408
 1348POPC   GL120497   4.222  19.777   9.120
 1348POPC   GL220498   4.339  20.088   9.090
 1348POPC   C1A20499   4.109  19.897   8.700
 1348POPC   D2A20500   4.357  20.057   8.419
 1348POPC   C3A20501   4.397  19.736   8.133
 1348POPC   C4A20502   4.203  19.557   7.779
 1348POPC   C1B20503   4.637  19.866   8.835
 1348POPC   C2B20504   4.839  19.866   8.423
 1348POPC   C3B20505   4.720  20.128   8.085
 1348POPC   C4B20506   4.399  20.033   7.704
 1349POPC   NC320507  21.800  42.876   9.452
 1349POPC   PO420508  22.439  43.112   9.589
 1349POPC   GL120509  22.225  42.988   9.181
 1349POPC   GL220510  22.207  43.264   9.022
 1349POPC   C1A20511  21.967  42.953   8.744
 1349POPC   D2A20512  21.767  42.838   8.336
 1349POPC   C3A20513  21.919  43.116   8.001
 1349POPC   C4A20514  21.972  43.101   7.536
 1349POPC   C1B20515  22.435  43.476   8.751
 1349POPC   C2B20516  22.269  43.272   8.400
 1349POPC   C3B20517  22.446  43.181   8.028
 1349POPC   C4B20518  22.463  43.255   7.613
 1350POPC   NC320519  22.444   4.954   9.331
 1350POPC   PO420520  21.892   5.219   9.476
 1350POPC   GL120521  22.024   5.099   9.064
 1350POPC   GL220522  22.309   5.284   8.959
 1350POPC   C1A20523  22.032   4.948   8.631
 1350POPC   D2A20524  22.018   5.136   8.232
 1350POPC   C3A20525  21.928   4.917   7.844
 1350POPC   C4A20526  21.752   5.005   7.446
 1350POPC   C1B20527  22.561   5.025   8.666
 1350POPC   C2B20528  22.441   4.833   8.270
 1350POPC   C3B20529  22.416   5.070   7.887
 1350POPC   C4B20530  22.639   5.453   7.787
 1351POPC   NC320531  41.206  25.556   9.554
 1351POPC   PO420532  41.768  25.150   9.512
 1351POPC   GL120533  41.477  25.256   9.196
 1351POPC   GL220534  41.700  25.558   9.182
 1351POPC   C1A20535  41.341  25.055   8.787
 1351POPC   D2A20536  41.514  24.922   8.377
 1351POPC   C3A20537  41.292  25.049   7.980
 1351POPC   C4A20538  41.428  25.246   7.597
 1351POPC   C1B20539  41.555  25.513   8.746
 1351POPC   C2B20540  41.728  25.396   8.370
 1351POPC   C3B20541  41.776  25.188   8.013
 1351POPC   C4B20542  41.942  25.265   7.641
 1352POPC   NC320543  44.083  14.646   9.446
 1352POPC   PO420544  43.553  14.242   9.438
 1352POPC   GL120545  43.867  14.197   9.144
 1352POPC   GL220546  43.596  13.976   8.989
 1352POPC   C1A20547  44.045  14.501   8.816
 1352POPC   D2A20548  44.118  14.789   8.491
 1352POPC   C3A20549  44.163  14.650   8.068
 1352POPC   C4A20550  44.036  14.566   7.654
 1352POPC   C1B20551  43.569  14.317   8.740
 1352POPC   C2B20552  43.712  14.493   8.382
 1352POPC   C3B20553  43.740  14.345   7.999
 1352POPC   C4B20554  43.636  14.255   7.581
 1353POPC   NC320555  34.636  29.819   9.508
 1353POPC   PO420556  34.933  30.342   9.238
 1353POPC   GL120557  34.785  29.940   8.999
 1353POPC   GL220558  34.810  29.552   9.125
 1353POPC   C1A20559  34.746  30.046   8.526
 1353POPC   D2A20560  34.492  30.298   8.219
 1353POPC   C3A20561  34.536  30.251   7.812
 1353POPC   C4A20562  34.246  30.051   7.517
 1353POPC   C1B20563  34.594  29.443   8.778
 1353POPC   C2B20564  34.720  29.548   8.365
 1353POPC   C3B20565  34.562  29.784   8.037
 1353POPC   C4B20566  34.757  29.829   7.644
 1354POPC   NC320567  14.714  27.948   9.399
 1354POPC   PO420568  14.369  28.542   9.393
 1354POPC   GL120569  14.339  28.388   9.022
 1354POPC   GL220570  14.627  28.256   9.005
 1354POPC   C1A20571  14.262  28.185   8.648
 1354POPC   D2A20572  14.331  28.172   8.237
 1354POPC   C3A20573  14.324  28.540   7.968
 1354POPC   C4A20574  14.133  28.530   7.548
 1354POPC   C1B20575  14.763  28.241   8.624
 1354POPC   C2B20576  14.734  28.485   8.312
 1354POPC   C3B20577  14.851  28.390   7.928
 1354POPC   C4B20578  15.078  28.359   7.577
 1355POPC   NC320579  42.915   3.784   9.582
 1355POPC   PO420580  43.404   3.270   9.707
 1355POPC   GL120581  43.298   3.481   9.271
 1355POPC   GL220582  43.307   3.874   9.272
 1355POPC   C1A20583  43.150   3.439   8.806
 1355POPC   D2A20584  42.935   3.247   8.451
 1355POPC   C3A20585  43.162   3.386   8.100
 1355POPC   C4A20586  43.222   3.478   7.685
 1355POPC   C1B20587  43.073   3.941   8.884
 1355POPC   C2B20588  43.129   3.809   8.445
 1355POPC   C3B20589  43.080   3.890   7.987
 1355POPC   C4B20590  42.946   4.038   7.577
 1356POPC   NC320591   1.099   0.591   9.698
 1356POPC   PO420592   1.633   0.294   9.569
 1356POPC   GL120593   1.372   0.505   9.240
 1356POPC   GL220594   1.002   0.510   9.195
 1356POPC   C1A20595   1.377   0.671   8.816
 1356POPC   D2A20596   1.157   0.588   8.442
 1356POPC   C3A20597   1.241   0.402   8.035
 1356POPC   C4A20598   1.114   0.520   7.624
 1356POPC   C1B20599   0.838   0.771   8.871
 1356POPC   C2B20600   0.696   0.813   8.461
 1356POPC   C3B20601   0.863   0.775   8.047
 1356POPC   C4B20602   0.581   0.828   7.696
 1357POPC   NC320603  41.838  21.256   9.462
 1357POPC   PO420604  42.494  21.378   9.492
 1357POPC   GL120605  42.321  21.394   9.130
 1357POPC   GL220606  42.152  21.105   9.082
 1357POPC   C1A20607  42.331  21.596   8.744
 1357POPC   D2A20608  42.583  21.723   8.425
 1357POPC   C3A20609  42.443  21.619   8.039
 1357POPC   C4A20610  42.576  21.271   7.782
 1357POPC   C1B20611  42.482  21.099   8.739
 1357POPC   C2B20612  42.409  21.138   8.295
 1357POPC   C3B20613  42.087  21.221   7.981
 1357POPC   C4B20614  41.944  21.333   7.575
 1358POPC   NC320615  41.752  33.374   9.687
 1358POPC   PO420616  41.232  32.938   9.546
 1358POPC   GL120617  41.376  33.024   9.154
 1358POPC   GL220618  41.669  33.224   9.162
 1358POPC   C1A20619  41.383  32.744   8.805
 1358POPC   D2A20620  41.577  32.717   8.401
 1358POPC   C3A20621  41.399  32.835   7.997
 1358POPC   C4A20622  41.583  32.807   7.615
 1358POPC   C1B20623  41.590  33.194   8.683
 1358POPC   C2B20624  41.600  33.249   8.216
 1358POPC   C3B20625  41.751  33.267   7.774
 1358POPC   C4B20626  41.565  33.258   7.346
 1359POPC   NC320627  27.938  29.776   9.349
 1359POPC   PO420628  27.375  30.195   9.563
 1359POPC   GL120629  27.562  30.120   9.181
 1359POPC   GL220630  27.436  29.788   9.177
 1359POPC   C1A20631  27.737  29.957   8.780
 1359POPC   D2A20632  27.752  29.742   8.429
 1359POPC   C3A20633  27.687  30.016   8.088
 1359POPC   C4A20634  27.813  29.913   7.685
 1359POPC   C1B20635  27.380  29.577   8.793
 1359POPC   C2B20636  27.435  29.352   8.388
 1359POPC   C3B20637  27.488  29.563   7.956
 1359POPC   C4B20638  27.178  29.652   7.580
 1360POPC   NC320639   2.458  40.528   9.479
 1360POPC   PO420640   1.829  40.803   9.374
 1360POPC   GL120641   1.974  40.841   9.002
 1360POPC   GL220642   2.341  40.833   9.025
 1360POPC   C1A20643   1.774  40.944   8.640
 1360POPC   D2A20644   1.715  40.912   8.235
 1360POPC   C3A20645   1.780  41.153   7.896
 1360POPC   C4A20646   1.932  40.745   7.736
 1360POPC   C1B20647   2.285  40.841   8.565
 1360POPC   C2B20648   2.173  40.614   8.214
 1360POPC   C3B20649   1.799  40.410   8.218
 1360POPC   C4B20650   1.526  40.396   7.894
 1361POPC   NC320651  25.403  26.973   9.795
 1361POPC   PO420652  26.045  26.832   9.523
 1361POPC   GL120653  25.933  26.900   9.115
 1361POPC   GL220654  26.213  26.978   8.916
 1361POPC   C1A20655  25.762  26.842   8.720
 1361POPC   D2A20656  25.954  26.976   8.359
 1361POPC   C3A20657  25.767  26.870   7.986
 1361POPC   C4A20658  25.910  26.643   7.607
 1361POPC   C1B20659  26.178  26.544   8.731
 1361POPC   C2B20660  26.223  26.373   8.296
 1361POPC   C3B20661  26.287  26.383   7.835
 1361POPC   C4B20662  26.215  26.303   7.378
 1362POPC   NC320663  11.649  34.442   9.446
 1362POPC   PO420664  11.191  34.948   9.511
 1362POPC   GL120665  11.373  34.755   9.130
 1362POPC   GL220666  11.391  34.366   9.022
 1362POPC   C1A20667  11.190  34.736   8.708
 1362POPC   D2A20668  11.312  34.856   8.279
 1362POPC   C3A20669  11.175  34.964   7.847
 1362POPC   C4A20670  11.198  35.094   7.403
 1362POPC   C1B20671  11.712  34.604   8.751
 1362POPC   C2B20672  11.775  34.643   8.289
 1362POPC   C3B20673  11.474  34.545   7.900
 1362POPC   C4B20674  11.236  34.231   7.616
 1363POPC   NC320675  27.253  16.696   9.412
 1363POPC   PO420676  26.757  16.914   9.811
 1363POPC   GL120677  26.726  16.849   9.316
 1363POPC   GL220678  26.838  16.522   9.138
 1363POPC   C1A20679  26.764  16.935   8.840
 1363POPC   D2A20680  26.855  16.715   8.427
 1363POPC   C3A20681  26.708  16.923   8.032
 1363POPC   C4A20682  26.841  16.792   7.585
 1363POPC   C1B20683  26.504  16.493   8.777
 1363POPC   C2B20684  26.387  16.523   8.341
 1363POPC   C3B20685  26.598  16.438   7.966
 1363POPC   C4B20686  26.492  16.427   7.518
 1364POPC   NC320687  25.641  20.965   9.614
 1364POPC   PO420688  25.116  21.364   9.557
 1364POPC   GL120689  25.206  21.435   9.161
 1364POPC   GL220690  25.545  21.274   9.178
 1364POPC   C1A20691  25.008  21.548   8.767
 1364POPC   D2A20692  24.866  21.304   8.410
 1364POPC   C3A20693  24.974  21.454   8.033
 1364POPC   C4A20694  25.158  21.554   7.643
 1364POPC   C1B20695  25.555  21.520   8.790
 1364POPC   C2B20696  25.362  21.506   8.378
 1364POPC   C3B20697  25.481  21.338   7.973
 1364POPC   C4B20698  25.690  21.612   7.666
 1365POPC   NC320699  21.418  44.955   9.642
 1365POPC   PO420700  21.118  44.422   9.387
 1365POPC   GL120701  21.219  44.795   9.160
 1365POPC   GL220702  20.972  44.999   9.340
 1365POPC   C1A20703  21.324  44.872   8.693
 1365POPC   D2A20704  21.574  44.773   8.306
 1365POPC   C3A20705  21.352  44.458   8.041
 1365POPC   C4A20706  21.266  44.575   7.639
 1365POPC   C1B20707  20.945   0.164   8.916
 1365POPC   C2B20708  20.884   0.104   8.476
 1365POPC   C3B20709  21.073  44.895   8.128
 1365POPC   C4B20710  21.059   0.028   7.711
 1366POPC   NC320711  13.830  15.206   9.734
 1366POPC   PO420712  13.257  14.928   9.352
 1366POPC   GL120713  13.537  15.119   9.034
 1366POPC   GL220714  13.525  15.400   9.179
 1366POPC   C1A20715  13.784  14.962   8.708
 1366POPC   D2A20716  13.880  15.043   8.294
 1366POPC   C3A20717  13.453  15.042   8.069
 1366POPC   C4A20718  13.327  15.302   7.724
 1366POPC   C1B20719  13.757  15.510   8.785
 1366POPC   C2B20720  13.902  15.586   8.357
 1366POPC   C3B20721  13.796  15.403   7.949
 1366POPC   C4B20722  13.779  15.487   7.528
 1367POPC   NC320723  12.350  32.689   9.391
 1367POPC   PO420724  11.791  32.306   9.401
 1367POPC   GL120725  12.030  32.261   9.108
 1367POPC   GL220726  12.304  32.005   9.133
 1367POPC   C1A20727  11.924  32.056   8.740
 1367POPC   D2A20728  12.110  31.995   8.400
 1367POPC   C3A20729  11.904  31.842   8.062
 1367POPC   C4A20730  11.938  31.897   7.653
 1367POPC   C1B20731  12.369  32.319   8.763
 1367POPC   C2B20732  12.522  32.288   8.338
 1367POPC   C3B20733  12.295  32.202   7.968
 1367POPC   C4B20734  12.124  32.366   7.590
 1368POPC   NC320735   8.548   6.193   9.258
 1368POPC   PO420736   9.007   6.695   9.489
 1368POPC   GL120737   8.931   6.556   9.087
 1368POPC   GL220738   9.132   6.855   8.979
 1368POPC   C1A20739   8.765   6.343   8.681
 1368POPC   D2A20740   8.999   6.285   8.284
 1368POPC   C3A20741   8.914   6.419   7.853
 1368POPC   C4A20742   8.633   6.266   7.554
 1368POPC   C1B20743   9.086   6.699   8.597
 1368POPC   C2B20744   8.877   6.798   8.215
 1368POPC   C3B20745   8.968   6.934   7.812
 1368POPC   C4B20746   9.216   6.747   7.530
 1369POPC   NC320747  38.561  21.983   9.534
 1369POPC   PO420748  38.853  22.526   9.281
 1369POPC   GL120749  38.653  22.189   9.077
 1369POPC   GL220750  38.299  22.149   9.113
 1369POPC   C1A20751  38.514  22.033   8.684
 1369POPC   D2A20752  38.338  22.259   8.381
 1369POPC   C3A20753  38.515  22.094   8.048
 1369POPC   C4A20754  38.642  22.249   7.696
 1369POPC   C1B20755  38.053  21.876   8.825
 1369POPC   C2B20756  38.113  21.803   8.381
 1369POPC   C3B20757  38.042  21.945   7.960
 1369POPC   C4B20758  37.977  21.913   7.520
 1370POPC   NC320759  10.833  14.462   9.454
 1370POPC   PO420760  10.103  14.549   9.507
 1370POPC   GL120761  10.239  14.308   9.099
 1370POPC   GL220762  10.579  14.385   9.024
 1370POPC   C1A20763  10.320  14.258   8.610
 1370POPC   D2A20764  10.317  14.707   8.436
 1370POPC   C3A20765  10.404  14.715   8.006
 1370POPC   C4A20766  10.151  14.450   7.730
 1370POPC   C1B20767  10.783  14.500   8.636
 1370POPC   C2B20768  11.034  14.240   8.354
 1370POPC   C3B20769  10.943  14.024   7.982
 1370POPC   C4B20770  10.576  14.120   7.747
 1371POPC   NC320771   6.774  19.769   9.541
 1371POPC   PO420772   6.335  19.238   9.295
 1371POPC   GL120773   6.524  19.605   9.087
 1371POPC   GL220774   6.518  19.900   9.134
 1371POPC   C1A20775   6.812  19.742   8.733
 1371POPC   D2A20776   6.827  19.546   8.318
 1371POPC   C3A20777   6.729  19.809   7.953
 1371POPC   C4A20778   6.486  19.706   7.601
 1371POPC   C1B20779   6.370  20.048   8.754
 1371POPC   C2B20780   6.426  19.910   8.368
 1371POPC   C3B20781   6.235  19.976   7.987
 1371POPC   C4B20782   6.439  20.264   7.723
 1372POPC   NC320783  44.349  25.688   9.528
 1372POPC   PO420784  43.784  25.862   9.467
 1372POPC   GL120785  44.023  26.002   9.149
 1372POPC   GL220786  43.745  26.244   9.110
 1372POPC   C1A20787  43.975  25.995   8.709
 1372POPC   D2A20788  43.901  25.699   8.373
 1372POPC   C3A20789  44.010  25.843   7.958
 1372POPC   C4A20790  44.026  25.738   7.489
 1372POPC   C1B20791  43.751  26.450   8.761
 1372POPC   C2B20792  43.864  26.380   8.371
 1372POPC   C3B20793  43.650  26.408   7.977
 1372POPC   C4B20794  43.772  26.147   7.632
 1373POPC   NC320795  31.072  24.721   9.395
 1373POPC   PO420796  31.611  24.399   9.356
 1373POPC   GL120797  31.327  24.399   9.038
 1373POPC   GL220798  31.058  24.246   9.210
 1373POPC   C1A20799  31.247  24.716   8.698
 1373POPC   D2A20800  31.554  24.872   8.370
 1373POPC   C3A20801  31.574  24.706   7.927
 1373POPC   C4A20802  31.585  24.750   7.447
 1373POPC   C1B20803  30.916  24.198   8.828
 1373POPC   C2B20804  31.201  24.240   8.504
 1373POPC   C3B20805  31.198  24.364   8.083
 1373POPC   C4B20806  31.266  24.394   7.640
 1374POPC   NC320807  24.504  30.303   9.468
 1374POPC   PO420808  24.324  29.584   9.470
 1374POPC   GL120809  24.302  29.878   9.139
 1374POPC   GL220810  24.620  29.997   9.090
 1374POPC   C1A20811  24.368  29.801   8.676
 1374POPC   D2A20812  24.356  29.948   8.242
 1374POPC   C3A20813  24.361  29.684   7.870
 1374POPC   C4A20814  24.291  29.696   7.406
 1374POPC   C1B20815  24.750  30.224   8.745
 1374POPC   C2B20816  24.831  30.041   8.345
 1374POPC   C3B20817  24.745  30.147   7.928
 1374POPC   C4B20818  24.697  29.999   7.492
 1375POPC   NC320819  18.900  34.313   9.782
 1375POPC   PO420820  19.113  34.952   9.539
 1375POPC   GL120821  19.105  34.614   9.282
 1375POPC   GL220822  18.946  34.833   9.051
 1375POPC   C1A20823  19.079  34.333   8.927
 1375POPC   D2A20824  18.988  34.423   8.487
 1375POPC   C3A20825  19.205  34.362   8.093
 1375POPC   C4A20826  19.037  34.492   7.698
 1375POPC   C1B20827  18.658  34.749   8.724
 1375POPC   C2B20828  18.699  34.807   8.291
 1375POPC   C3B20829  19.059  34.858   8.046
 1375POPC   C4B20830  19.013  35.051   7.669
 1376POPC   NC320831  41.015   6.091   9.439
 1376POPC   PO420832  40.355   5.927   9.551
 1376POPC   GL120833  40.560   5.875   9.151
 1376POPC   GL220834  40.926   5.832   9.021
 1376POPC   C1A20835  40.532   5.870   8.719
 1376POPC   D2A20836  40.323   5.779   8.368
 1376POPC   C3A20837  40.684   5.844   8.112
 1376POPC   C4A20838  40.815   5.664   7.727
 1376POPC   C1B20839  40.927   6.203   8.736
 1376POPC   C2B20840  41.028   6.216   8.281
 1376POPC   C3B20841  40.998   6.134   7.835
 1376POPC   C4B20842  40.735   6.367   7.598
 1377POPC   NC320843  44.812  12.367   9.413
 1377POPC   PO420844  44.371  11.907   9.458
 1377POPC   GL120845  44.491  12.103   9.110
 1377POPC   GL220846  44.269  12.320   8.997
 1377POPC   C1A20847  44.836  12.012   8.832
 1377POPC   D2A20848  44.822  11.755   8.473
 1377POPC   C3A20849  44.654  11.939   8.099
 1377POPC   C4A20850  44.905  11.978   7.733
 1377POPC   C1B20851  44.389  12.118   8.605
 1377POPC   C2B20852  44.156  12.052   8.250
 1377POPC   C3B20853  44.232  12.200   7.856
 1377POPC   C4B20854  44.419  11.898   7.591
 1378POPC   NC320855  22.319   2.506   9.436
 1378POPC   PO420856  22.007   2.993   9.819
 1378POPC   GL120857  22.046   3.026   9.322
 1378POPC   GL220858  21.914   2.718   9.203
 1378POPC   C1A20859  22.169   2.942   8.847
 1378POPC   D2A20860  21.914   2.976   8.466
 1378POPC   C3A20861  22.109   2.966   8.078
 1378POPC   C4A20862  22.271   2.827   7.683
 1378POPC   C1B20863  21.899   2.515   8.756
 1378POPC   C2B20864  22.189   2.476   8.412
 1378POPC   C3B20865  22.078   2.452   7.993
 1378POPC   C4B20866  21.788   2.676   7.772
 1379POPC   NC320867  24.064  39.463   9.438
 1379POPC   PO420868  24.139  38.775   9.362
 1379POPC   GL120869  23.857  39.105   9.092
 1379POPC   GL220870  23.805  39.464   9.007
 1379POPC   C1A20871  23.616  39.140   8.675
 1379POPC   D2A20872  23.474  39.097   8.262
 1379POPC   C3A20873  23.761  39.304   8.051
 1379POPC   C4A20874  23.623  39.341   7.675
 1379POPC   C1B20875  23.379  39.592   8.838
 1379POPC   C2B20876  23.176  39.446   8.485
 1379POPC   C3B20877  23.308  39.546   8.047
 1379POPC   C4B20878  23.315  39.749   7.662
 1380POPC   NC320879  18.269   3.167   9.268
 1380POPC   PO420880  18.322   2.576   9.601
 1380POPC   GL120881  18.450   2.675   9.168
 1380POPC   GL220882  18.144   2.707   8.998
 1380POPC   C1A20883  18.579   2.737   8.722
 1380POPC   D2A20884  18.236   2.592   8.443
 1380POPC   C3A20885  18.249   2.623   7.989
 1380POPC   C4A20886  17.905   2.510   7.721
 1380POPC   C1B20887  18.176   3.041   8.676
 1380POPC   C2B20888  18.444   3.121   8.342
 1380POPC   C3B20889  18.360   3.116   7.903
 1380POPC   C4B20890  18.198   2.896   7.534
 1381POPC   NC320891   2.411  28.257   9.321
 1381POPC   PO420892   1.720  27.970   9.363
 1381POPC   GL120893   1.741  28.273   8.998
 1381POPC   GL220894   2.079  28.324   8.972
 1381POPC   C1A20895   1.833  28.482   8.574
 1381POPC   D2A20896   2.228  28.399   8.365
 1381POPC   C3A20897   2.216  28.277   7.929
 1381POPC   C4A20898   1.950  28.206   7.605
 1381POPC   C1B20899   2.307  28.669   8.781
 1381POPC   C2B20900   2.131  28.931   8.449
 1381POPC   C3B20901   2.190  28.777   8.026
 1381POPC   C4B20902   1.840  28.695   7.735
 1382POPC   NC320903  16.105   2.436   9.384
 1382POPC   PO420904  15.886   3.043   9.499
 1382POPC   GL120905  15.988   2.876   9.120
 1382POPC   GL220906  15.765   2.600   9.063
 1382POPC   C1A20907  15.925   2.968   8.699
 1382POPC   D2A20908  16.074   2.797   8.310
 1382POPC   C3A20909  15.836   2.982   7.989
 1382POPC   C4A20910  16.014   3.187   7.670
 1382POPC   C1B20911  16.008   2.476   8.726
 1382POPC   C2B20912  15.790   2.361   8.352
 1382POPC   C3B20913  15.840   2.478   7.950
 1382POPC   C4B20914  16.198   2.675   7.756
 1383POPC   NC320915  27.977  12.946   9.366
 1383POPC   PO420916  27.429  12.721   9.554
 1383POPC   GL120917  27.539  12.775   9.129
 1383POPC   GL220918  27.793  12.557   9.093
 1383POPC   C1A20919  27.502  12.765   8.676
 1383POPC   D2A20920  27.306  12.733   8.261
 1383POPC   C3A20921  27.455  12.651   7.814
 1383POPC   C4A20922  27.489  12.692   7.332
 1383POPC   C1B20923  27.998  12.697   8.738
 1383POPC   C2B20924  27.911  12.864   8.355
 1383POPC   C3B20925  27.960  12.679   7.972
 1383POPC   C4B20926  27.869  12.923   7.615
 1384POPC   NC320927  25.440   2.365   9.527
 1384POPC   PO420928  25.069   1.872   9.620
 1384POPC   GL120929  25.052   1.985   9.178
 1384POPC   GL220930  25.131   2.308   9.120
 1384POPC   C1A20931  25.168   2.010   8.709
 1384POPC   D2A20932  25.265   2.185   8.284
 1384POPC   C3A20933  25.145   1.971   7.910
 1384POPC   C4A20934  25.491   1.841   7.643
 1384POPC   C1B20935  25.464   2.432   8.777
 1384POPC   C2B20936  25.664   2.518   8.342
 1384POPC   C3B20937  25.608   2.361   7.881
 1384POPC   C4B20938  25.586   2.307   7.396
 1385POPC   NC320939  13.315  34.639   9.304
 1385POPC   PO420940  12.747  34.791   9.558
 1385POPC   GL120941  12.805  34.595   9.113
 1385POPC   GL220942  13.083  34.405   8.938
 1385POPC   C1A20943  12.815  34.724   8.676
 1385POPC   D2A20944  13.020  34.588   8.323
 1385POPC   C3A20945  12.747  34.648   7.994
 1385POPC   C4A20946  12.784  34.784   7.587
 1385POPC   C1B20947  12.803  34.216   8.673
 1385POPC   C2B20948  13.014  34.050   8.373
 1385POPC   C3B20949  13.118  34.189   7.977
 1385POPC   C4B20950  12.846  34.272   7.668
 1386POPC   NC320951   5.508  32.808   9.528
 1386POPC   PO420952   4.989  33.309   9.479
 1386POPC   GL120953   4.888  33.209   9.089
 1386POPC   GL220954   5.200  32.975   9.112
 1386POPC   C1A20955   4.904  33.154   8.668
 1386POPC   D2A20956   5.173  33.000   8.365
 1386POPC   C3A20957   4.986  33.125   7.984
 1386POPC   C4A20958   5.246  33.188   7.589
 1386POPC   C1B20959   4.948  32.674   8.882
 1386POPC   C2B20960   4.791  32.661   8.470
 1386POPC   C3B20961   5.016  32.616   8.045
 1386POPC   C4B20962   4.889  32.792   7.616
 1387POPC   NC320963  37.249  31.293   9.343
 1387POPC   PO420964  36.815  31.771   9.516
 1387POPC   GL120965  36.800  31.541   9.126
 1387POPC   GL220966  37.077  31.437   8.901
 1387POPC   C1A20967  36.589  31.510   8.759
 1387POPC   D2A20968  36.855  31.505   8.393
 1387POPC   C3A20969  36.666  31.356   8.032
 1387POPC   C4A20970  36.558  31.177   7.657
 1387POPC   C1B20971  37.360  31.725   8.762
 1387POPC   C2B20972  37.325  31.940   8.373
 1387POPC   C3B20973  37.200  31.676   8.041
 1387POPC   C4B20974  37.061  31.377   7.728
 1388POPC   NC320975  20.985  33.113   9.333
 1388POPC   PO420976  20.407  32.702   9.424
 1388POPC   GL120977  20.561  32.909   9.087
 1388POPC   GL220978  20.803  32.684   9.068
 1388POPC   C1A20979  20.605  33.008   8.641
 1388POPC   D2A20980  20.450  33.147   8.215
 1388POPC   C3A20981  20.826  33.191   7.946
 1388POPC   C4A20982  21.154  33.202   7.596
 1388POPC   C1B20983  20.633  32.485   8.696
 1388POPC   C2B20984  20.439  32.618   8.289
 1388POPC   C3B20985  20.533  32.774   7.852
 1388POPC   C4B20986  20.434  33.136   7.566
 1389POPC   NC320987  30.405  40.869   9.412
 1389POPC   PO420988  30.978  40.555   9.355
 1389POPC   GL120989  30.743  40.764   9.026
 1389POPC   GL220990  30.422  40.587   8.995
 1389POPC   C1A20991  30.785  40.982   8.618
 1389POPC   D2A20992  30.790  40.729   8.234
 1389POPC   C3A20993  30.955  40.843   7.855
 1389POPC   C4A20994  30.676  40.835   7.509
 1389POPC   C1B20995  30.289  40.434   8.610
 1389POPC   C2B20996  30.407  40.327   8.186
 1389POPC   C3B20997  30.357  40.639   7.887
 1389POPC   C4B20998  30.190  40.892   7.549
 1390POPC   NC320999   7.745  30.679   9.441
 1390POPC   PO421000   7.131  30.646   9.528
 1390POPC   GL121001   7.322  30.746   9.135
 1390POPC   GL221002   7.561  30.996   9.084
 1390POPC   C1A21003   7.487  30.632   8.721
 1390POPC   D2A21004   7.296  30.837   8.435
 1390POPC   C3A21005   7.256  30.841   8.007
 1390POPC   C4A21006   7.254  30.750   7.593
 1390POPC   C1B21007   7.820  31.007   8.724
 1390POPC   C2B21008   7.767  30.888   8.301
 1390POPC   C3B21009   7.776  30.756   7.904
 1390POPC   C4B21010   7.934  31.034   7.586
 1391POPC   NC321011   5.875   9.284   9.378
 1391POPC   PO421012   6.086   8.636   9.553
 1391POPC   GL121013   5.903   8.819   9.190
 1391POPC   GL221014   6.151   8.893   8.984
 1391POPC   C1A21015   5.697   9.030   8.783
 1391POPC   D2A21016   5.837   9.227   8.371
 1391POPC   C3A21017   5.815   8.973   7.981
 1391POPC   C4A21018   5.808   9.009   7.544
 1391POPC   C1B21019   6.314   8.554   8.736
 1391POPC   C2B21020   6.451   8.660   8.360
 1391POPC   C3B21021   6.304   8.962   8.123
 1391POPC   C4B21022   6.269   8.848   7.694
 1392POPC   NC321023  11.813  42.618   9.418
 1392POPC   PO421024  12.341  42.283   9.502
 1392POPC   GL121025  12.193  42.365   9.111
 1392POPC   GL221026  12.267  42.694   9.185
 1392POPC   C1A21027  11.886  42.185   8.772
 1392POPC   D2A21028  11.732  42.075   8.346
 1392POPC   C3A21029  12.007  42.171   7.967
 1392POPC   C4A21030  11.850  42.093   7.512
 1392POPC   C1B21031  12.008  42.671   8.768
 1392POPC   C2B21032  12.152  42.478   8.395
 1392POPC   C3B21033  12.249  42.641   7.991
 1392POPC   C4B21034  11.879  42.650   7.754
 1393POPC   NC321035  27.685   4.310   9.684
 1393POPC   PO421036  27.692   4.804   9.266
 1393POPC   GL121037  27.386   4.538   9.041
 1393POPC   GL221038  27.309   4.187   9.156
 1393POPC   C1A21039  27.531   4.438   8.634
 1393POPC   D2A21040  27.908   4.382   8.411
 1393POPC   C3A21041  27.715   4.286   8.014
 1393POPC   C4A21042  27.643   4.504   7.637
 1393POPC   C1B21043  27.296   4.007   8.730
 1393POPC   C2B21044  27.233   4.141   8.252
 1393POPC   C3B21045  27.290   4.003   7.773
 1393POPC   C4B21046  27.455   3.882   7.313
 1394POPC   NC321047   1.735  10.441   9.514
 1394POPC   PO421048   2.151  10.946   9.533
 1394POPC   GL121049   1.952  10.765   9.171
 1394POPC   GL221050   1.963  10.394   9.065
 1394POPC   C1A21051   2.047  10.831   8.755
 1394POPC   D2A21052   2.273  10.611   8.445
 1394POPC   C3A21053   2.109  10.720   8.043
 1394POPC   C4A21054   1.918  10.547   7.656
 1394POPC   C1B21055   2.162  10.084   8.821
 1394POPC   C2B21056   2.264  10.083   8.450
 1394POPC   C3B21057   1.998  10.135   8.126
 1394POPC   C4B21058   2.044  10.031   7.726
 1395POPC   NC321059  23.194  35.215   9.538
 1395POPC   PO421060  23.872  35.295   9.597
 1395POPC   GL121061  23.961  35.342   9.188
 1395POPC   GL221062  23.586  35.357   9.142
 1395POPC   C1A21063  23.943  35.492   8.766
 1395POPC   D2A21064  23.691  35.439   8.420
 1395POPC   C3A21065  23.850  35.370   8.051
 1395POPC   C4A21066  23.773  35.191   7.687
 1395POPC   C1B21067  23.424  35.617   8.815
 1395POPC   C2B21068  23.234  35.678   8.391
 1395POPC   C3B21069  23.421  35.632   7.973
 1395POPC   C4B21070  23.531  35.621   7.509
 1396POPC   NC321071  27.998   6.027   9.662
 1396POPC   PO421072  28.425   5.491   9.584
 1396POPC   GL121073  28.344   5.698   9.152
 1396POPC   GL221074  28.434   6.044   9.173
 1396POPC   C1A21075  28.543   5.729   8.719
 1396POPC   D2A21076  28.820   5.616   8.384
 1396POPC   C3A21077  28.579   5.598   7.995
 1396POPC   C4A21078  28.667   5.874   7.671
 1396POPC   C1B21079  28.192   6.079   8.769
 1396POPC   C2B21080  28.168   5.874   8.338
 1396POPC   C3B21081  28.301   6.122   7.960
 1396POPC   C4B21082  28.014   6.310   7.649
 1397POPC   NC321083  31.636   1.452   9.502
 1397POPC   PO421084  31.264   0.862   9.579
 1397POPC   GL121085  31.331   1.131   9.215
 1397POPC   GL221086  31.663   1.090   9.123
 1397POPC   C1A21087  31.344   1.398   8.840
 1397POPC   D2A21088  31.170   1.379   8.430
 1397POPC   C3A21089  31.384   1.194   8.082
 1397POPC   C4A21090  31.373   1.027   7.669
 1397POPC   C1B21091  31.853   1.399   8.858
 1397POPC   C2B21092  31.834   1.500   8.447
 1397POPC   C3B21093  31.893   1.297   8.075
 1397POPC   C4B21094  31.687   1.427   7.718
 1398POPC   NC321095   0.832  17.339   9.480
 1398POPC   PO421096   0.150  17.545   9.482
 1398POPC   GL121097   0.394  17.327   9.217
 1398POPC   GL221098   0.294  17.017   9.336
 1398POPC   C1A21099   0.652  17.369   8.845
 1398POPC   D2A21100   0.720  17.637   8.483
 1398POPC   C3A21101   0.722  17.619   8.058
 1398POPC   C4A21102   0.395  17.827   7.850
 1398POPC   C1B21103   0.203  17.020   8.872
 1398POPC   C2B21104   0.299  17.224   8.477
 1398POPC   C3B21105   0.279  17.340   8.050
 1398POPC   C4B21106   0.555  17.311   7.689
 1399POPC   NC321107  26.791   6.887   9.526
 1399POPC   PO421108  26.992   6.280   9.546
 1399POPC   GL121109  27.050   6.605   9.188
 1399POPC   GL221110  26.748   6.702   9.051
 1399POPC   C1A21111  27.112   6.904   8.772
 1399POPC   D2A21112  27.237   7.046   8.330
 1399POPC   C3A21113  26.954   6.979   7.979
 1399POPC   C4A21114  26.812   6.619   7.780
 1399POPC   C1B21115  26.882   6.439   8.703
 1399POPC   C2B21116  26.835   6.502   8.279
 1399POPC   C3B21117  26.422   6.621   8.086
 1399POPC   C4B21118  26.310   6.482   7.666
 1400POPC   NC321119   7.246   8.600   9.332
 1400POPC   PO421120   7.683   9.098   9.555
 1400POPC   GL121121   7.513   9.011   9.151
 1400POPC   GL221122   7.220   9.177   9.023
 1400POPC   C1A21123   7.505   8.878   8.708
 1400POPC   D2A21124   7.492   8.712   8.304
 1400POPC   C3A21125   7.563   8.953   7.923
 1400POPC   C4A21126   7.537   8.963   7.468
 1400POPC   C1B21127   7.062   9.133   8.608
 1400POPC   C2B21128   7.169   9.119   8.194
 1400POPC   C3B21129   7.104   9.196   7.767
 1400POPC   C4B21130   7.134   9.303   7.324
 1401POPC   NC321131   1.540  35.550   9.438
 1401POPC   PO421132   1.064  35.021   9.485
 1401POPC   GL121133   1.154  35.312   9.173
 1401POPC   GL221134   1.415  35.125   9.125
 1401POPC   C1A21135   1.200  35.499   8.765
 1401POPC   D2A21136   1.133  35.245   8.390
 1401POPC   C3A21137   1.205  35.352   7.993
 1401POPC   C4A21138   0.899  35.478   7.747
 1401POPC   C1B21139   1.455  35.057   8.726
 1401POPC   C2B21140   1.615  35.154   8.328
 1401POPC   C3B21141   1.606  35.060   7.891
 1401POPC   C4B21142   1.624  35.139   7.439
 1402POPC   NC321143  27.944  39.358   9.462
 1402POPC   PO421144  27.376  39.061   9.571
 1402POPC   GL121145  27.571  39.119   9.190
 1402POPC   GL221146  27.534  39.453   9.079
 1402POPC   C1A21147  27.610  39.066   8.746
 1402POPC   D2A21148  27.468  39.143   8.327
 1402POPC   C3A21149  27.279  38.830   8.040
 1402POPC   C4A21150  27.179  38.943   7.603
 1402POPC   C1B21151  27.456  39.743   8.737
 1402POPC   C2B21152  27.726  39.804   8.368
 1402POPC   C3B21153  27.672  39.513   8.035
 1402POPC   C4B21154  27.668  39.109   7.814
 1403POPC   NC321155  42.577  22.613   9.506
 1403POPC   PO421156  42.279  23.267   9.532
 1403POPC   GL121157  42.208  22.943   9.174
 1403POPC   GL221158  42.501  22.835   9.076
 1403POPC   C1A21159  42.154  22.730   8.750
 1403POPC   D2A21160  42.376  22.736   8.348
 1403POPC   C3A21161  42.348  22.937   7.933
 1403POPC   C4A21162  41.970  22.930   7.735
 1403POPC   C1B21163  42.698  22.612   8.778
 1403POPC   C2B21164  42.862  22.617   8.372
 1403POPC   C3B21165  42.714  22.587   7.963
 1403POPC   C4B21166  42.595  22.563   7.534
 1404POPC   NC321167  19.492   1.909   9.292
 1404POPC   PO421168  20.166   1.813   9.543
 1404POPC   GL121169  20.082   1.783   9.106
 1404POPC   GL221170  20.050   2.143   9.151
 1404POPC   C1A21171  19.759   1.731   8.738
 1404POPC   D2A21172  19.495   1.865   8.379
 1404POPC   C3A21173  19.676   2.125   8.057
 1404POPC   C4A21174  19.658   1.939   7.656
 1404POPC   C1B21175  20.243   2.144   8.751
 1404POPC   C2B21176  20.042   1.998   8.386
 1404POPC   C3B21177  20.156   1.933   7.956
 1404POPC   C4B21178  20.140   1.945   7.521
 1405POPC   NC321179   4.984  27.922   9.461
 1405POPC   PO421180   4.653  27.371   9.576
 1405POPC   GL121181   4.933  27.500   9.172
 1405POPC   GL221182   5.291  27.624   9.133
 1405POPC   C1A21183   4.965  27.769   8.768
 1405POPC   D2A21184   5.206  27.832   8.353
 1405POPC   C3A21185   5.003  27.725   7.958
 1405POPC   C4A21186   4.658  27.795   7.677
 1405POPC   C1B21187   5.353  27.414   8.738
 1405POPC   C2B21188   5.461  27.252   8.334
 1405POPC   C3B21189   5.451  27.463   7.938
 1405POPC   C4B21190   5.448  27.841   7.703
 1406POPC   NC321191  21.352  37.325   9.614
 1406POPC   PO421192  21.737  36.812   9.571
 1406POPC   GL121193  21.502  36.990   9.244
 1406POPC   GL221194  21.792  37.034   9.031
 1406POPC   C1A21195  21.271  37.035   8.858
 1406POPC   D2A21196  21.292  37.162   8.441
 1406POPC   C3A21197  21.273  37.004   8.042
 1406POPC   C4A21198  21.619  37.060   7.758
 1406POPC   C1B21199  21.583  36.634   8.877
 1406POPC   C2B21200  21.334  36.647   8.516
 1406POPC   C3B21201  21.372  36.506   8.131
 1406POPC   C4B21202  21.371  36.619   7.742
 1407POPC   NC321203   6.377   8.980   9.465
 1407POPC   PO421204   7.036   9.002   9.446
 1407POPC   GL121205   6.719   9.063   9.091
 1407POPC   GL221206   6.604   8.711   9.122
 1407POPC   C1A21207   6.525   9.108   8.632
 1407POPC   D2A21208   6.694   9.285   8.237
 1407POPC   C3A21209   6.578   9.261   7.807
 1407POPC   C4A21210   6.732   9.012   7.469
 1407POPC   C1B21211   6.817   8.711   8.754
 1407POPC   C2B21212   6.977   8.660   8.352
 1407POPC   C3B21213   6.788   8.812   7.991
 1407POPC   C4B21214   6.670   8.530   7.692
 1408POPC   NC321215  27.964  20.003   9.561
 1408POPC   PO421216  28.434  19.670   9.509
 1408POPC   GL121217  28.594  19.888   9.190
 1408POPC   GL221218  28.288  20.054   9.168
 1408POPC   C1A21219  28.713  19.802   8.762
 1408POPC   D2A21220  28.611  19.537   8.398
 1408POPC   C3A21221  28.711  19.692   7.996
 1408POPC   C4A21222  28.545  19.763   7.599
 1408POPC   C1B21223  28.311  20.152   8.757
 1408POPC   C2B21224  28.187  19.902   8.419
 1408POPC   C3B21225  28.257  19.940   7.995
 1408POPC   C4B21226  28.184  20.226   7.657
 1409POPC   NC321227   8.137  32.674   9.606
 1409POPC   PO421228   8.274  31.961   9.653
 1409POPC   GL121229   8.280  32.285   9.291
 1409POPC   GL221230   7.974  32.410   9.191
 1409POPC   C1A21231   8.415  32.240   8.840
 1409POPC   D2A21232   8.205  32.327   8.434
 1409POPC   C3A21233   8.378  32.107   8.072
 1409POPC   C4A21234   8.255  31.972   7.665
 1409POPC   C1B21235   7.719  32.498   8.809
 1409POPC   C2B21236   7.667  32.401   8.395
 1409POPC   C3B21237   7.866  32.218   8.037
 1409POPC   C4B21238   7.834  32.342   7.613
 1410POPC   NC321239  23.580  23.931   9.612
 1410POPC   PO421240  23.634  24.635   9.681
 1410POPC   GL121241  23.447  24.621   9.248
 1410POPC   GL221242  23.568  24.299   9.219
 1410POPC   C1A21243  23.448  24.728   8.777
 1410POPC   D2A21244  23.584  24.968   8.401
 1410POPC   C3A21245  23.718  24.729   8.053
 1410POPC   C4A21246  24.011  24.818   7.749
 1410POPC   C1B21247  23.487  24.218   8.776
 1410POPC   C2B21248  23.482  24.356   8.330
 1410POPC   C3B21249  23.499  24.246   7.870
 1410POPC   C4B21250  23.607  24.179   7.385
 1411POPC   NC321251  32.819  41.547   9.631
 1411POPC   PO421252  33.276  41.139   9.374
 1411POPC   GL121253  32.879  41.324   9.158
 1411POPC   GL221254  32.944  41.642   9.114
 1411POPC   C1A21255  32.736  41.347   8.705
 1411POPC   D2A21256  32.959  41.475   8.307
 1411POPC   C3A21257  32.977  41.436   7.851
 1411POPC   C4A21258  32.741  41.682   7.538
 1411POPC   C1B21259  33.224  41.475   8.796
 1411POPC   C2B21260  33.458  41.481   8.433
 1411POPC   C3B21261  33.473  41.635   8.020
 1411POPC   C4B21262  33.499  41.370   7.656
 1412POPC   NC321263   9.051  16.419   9.558
 1412POPC   PO421264   8.880  15.755   9.715
 1412POPC   GL121265   9.097  15.944   9.348
 1412POPC   GL221266   8.791  16.013   9.218
 1412POPC   C1A21267   9.176  16.173   8.923
 1412POPC   D2A21268   9.194  15.991   8.509
 1412POPC   C3A21269   9.050  16.216   8.188
 1412POPC   C4A21270   9.004  16.124   7.777
 1412POPC   C1B21271   8.564  15.749   8.901
 1412POPC   C2B21272   8.687  15.884   8.473
 1412POPC   C3B21273   8.598  15.919   8.030
 1412POPC   C4B21274   8.705  15.659   7.673
 1413POPC   NC321275   2.319  20.836   9.238
 1413POPC   PO421276   2.866  20.771   9.639
 1413POPC   GL121277   2.814  20.637   9.184
 1413POPC   GL221278   2.988  20.371   9.074
 1413POPC   C1A21279   2.684  20.604   8.727
 1413POPC   D2A21280   2.389  20.794   8.434
 1413POPC   C3A21281   2.414  20.634   8.029
 1413POPC   C4A21282   2.723  20.573   7.713
 1413POPC   C1B21283   3.158  20.345   8.685
 1413POPC   C2B21284   2.984  20.499   8.302
 1413POPC   C3B21285   3.088  20.289   7.931
 1413POPC   C4B21286   3.164  20.413   7.519
 1414POPC   NC321287  38.869  41.646   9.431
 1414POPC   PO421288  39.497  41.398   9.546
 1414POPC   GL121289  39.335  41.564   9.200
 1414POPC   GL221290  39.235  41.218   9.095
 1414POPC   C1A21291  39.186  41.732   8.801
 1414POPC   D2A21292  39.387  41.762   8.368
 1414POPC   C3A21293  39.093  41.709   7.996
 1414POPC   C4A21294  38.799  41.662   7.632
 1414POPC   C1B21295  39.350  41.257   8.653
 1414POPC   C2B21296  39.287  41.261   8.191
 1414POPC   C3B21297  39.402  41.333   7.757
 1414POPC   C4B21298  39.514  41.290   7.288
 1415POPC   NC321299   2.209   5.932   9.499
 1415POPC   PO421300   1.462   6.086   9.535
 1415POPC   GL121301   1.810   6.140   9.203
 1415POPC   GL221302   1.847   5.777   9.164
 1415POPC   C1A21303   2.025   6.058   8.772
 1415POPC   D2A21304   2.046   5.852   8.346
 1415POPC   C3A21305   2.220   6.122   8.011
 1415POPC   C4A21306   2.434   6.115   7.653
 1415POPC   C1B21307   1.524   5.869   8.843
 1415POPC   C2B21308   1.542   5.934   8.393
 1415POPC   C3B21309   1.708   5.934   7.969
 1415POPC   C4B21310   1.858   5.534   7.850
 1416POPC   NC321311  16.344  23.340   9.378
 1416POPC   PO421312  15.767  23.760   9.544
 1416POPC   GL121313  15.816  23.937   9.140
 1416POPC   GL221314  15.931  23.583   9.080
 1416POPC   C1A21315  15.724  24.003   8.697
 1416POPC   D2A21316  15.778  23.711   8.349
 1416POPC   C3A21317  15.848  23.868   7.949
 1416POPC   C4A21318  16.028  23.853   7.527
 1416POPC   C1B21319  16.065  23.415   8.694
 1416POPC   C2B21320  16.279  23.402   8.318
 1416POPC   C3B21321  16.134  23.440   7.911
 1416POPC   C4B21322  16.141  23.348   7.479
 1417POPC   NC321323  27.445  27.099   9.447
 1417POPC   PO421324  27.890  27.642   9.489
 1417POPC   GL121325  27.759  27.415   9.141
 1417POPC   GL221326  28.095  27.282   9.086
 1417POPC   C1A21327  27.494  27.509   8.756
 1417POPC   D2A21328  27.322  27.386   8.346
 1417POPC   C3A21329  27.429  27.545   7.897
 1417POPC   C4A21330  27.283  27.887   7.617
 1417POPC   C1B21331  28.013  27.576   8.730
 1417POPC   C2B21332  27.820  27.572   8.346
 1417POPC   C3B21333  27.841  27.279   8.053
 1417POPC   C4B21334  27.932  27.350   7.626
 1418POPC   NC321335  32.765  18.734   9.401
 1418POPC   PO421336  33.186  18.165   9.488
 1418POPC   GL121337  33.066  18.417   9.128
 1418POPC   GL221338  33.328  18.563   8.912
 1418POPC   C1A21339  32.854  18.287   8.761
 1418POPC   D2A21340  33.091  18.245   8.393
 1418POPC   C3A21341  32.855  18.012   8.118
 1418POPC   C4A21342  32.919  17.996   7.686
 1418POPC   C1B21343  32.948  18.780   8.709
 1418POPC   C2B21344  32.684  18.635   8.353
 1418POPC   C3B21345  32.764  18.477   7.923
 1418POPC   C4B21346  33.120  18.512   7.633
 1419POPC   NC321347  28.957  10.677   9.453
 1419POPC   PO421348  29.260  10.100   9.388
 1419POPC   GL121349  29.332  10.452   9.113
 1419POPC   GL221350  29.015  10.370   9.030
 1419POPC   C1A21351  29.210  10.720   8.705
 1419POPC   D2A21352  29.195  10.912   8.257
 1419POPC   C3A21353  29.312  10.731   7.818
 1419POPC   C4A21354  29.403  10.955   7.379
 1419POPC   C1B21355  29.188  10.214   8.665
 1419POPC   C2B21356  28.938  10.372   8.341
 1419POPC   C3B21357  28.920  10.451   7.928
 1419POPC   C4B21358  29.163  10.230   7.621
 1420POPC   NC321359   3.412  28.851   9.297
 1420POPC   PO421360   3.266  29.459   9.353
 1420POPC   GL121361   3.594  29.360   9.060
 1420POPC   GL221362   3.849  29.089   9.113
 1420POPC   C1A21363   3.428  29.192   8.687
 1420POPC   D2A21364   3.132  28.921   8.500
 1420POPC   C3A21365   3.100  29.209   8.186
 1420POPC   C4A21366   3.450  29.288   7.901
 1420POPC   C1B21367   3.869  28.951   8.707
 1420POPC   C2B21368   3.789  29.127   8.291
 1420POPC   C3B21369   3.893  28.957   7.901
 1420POPC   C4B21370   3.842  28.540   7.761
 1421POPC   NC321371  24.912  14.290   9.627
 1421POPC   PO421372  24.349  14.399   9.661
 1421POPC   GL121373  24.419  14.381   9.196
 1421POPC   GL221374  24.747  14.240   9.163
 1421POPC   C1A21375  24.634  14.550   8.792
 1421POPC   D2A21376  24.839  14.599   8.379
 1421POPC   C3A21377  24.491  14.533   8.072
 1421POPC   C4A21378  24.333  14.806   7.777
 1421POPC   C1B21379  24.525  14.046   8.818
 1421POPC   C2B21380  24.602  14.142   8.397
 1421POPC   C3B21381  24.651  14.059   7.956
 1421POPC   C4B21382  24.228  14.055   7.719
 1422POPC   NC321383  33.973  39.442   9.443
 1422POPC   PO421384  33.642  38.918   9.522
 1422POPC   GL121385  33.493  39.152   9.175
 1422POPC   GL221386  33.495  39.494   9.196
 1422POPC   C1A21387  33.657  39.189   8.769
 1422POPC   D2A21388  33.884  39.422   8.435
 1422POPC   C3A21389  33.975  39.188   8.044
 1422POPC   C4A21390  33.754  39.116   7.654
 1422POPC   C1B21391  33.209  39.413   8.835
 1422POPC   C2B21392  33.332  39.424   8.429
 1422POPC   C3B21393  33.508  39.404   8.047
 1422POPC   C4B21394  33.612  39.598   7.684
 1423POPC   NC321395  20.129  10.473   9.420
 1423POPC   PO421396  20.778  10.504   9.484
 1423POPC   GL121397  20.528  10.679   9.102
 1423POPC   GL221398  20.291  10.475   8.950
 1423POPC   C1A21399  20.556  10.774   8.644
 1423POPC   D2A21400  20.810  10.563   8.322
 1423POPC   C3A21401  20.812  10.642   7.869
 1423POPC   C4A21402  21.013  10.778   7.440
 1423POPC   C1B21403  20.109  10.362   8.561
 1423POPC   C2B21404  20.328  10.414   8.212
 1423POPC   C3B21405  20.307  10.521   7.831
 1423POPC   C4B21406  20.070  10.365   7.479
 1424POPC   NC321407  37.703  38.828   9.546
 1424POPC   PO421408  37.343  38.291   9.589
 1424POPC   GL121409  37.736  38.303   9.350
 1424POPC   GL221410  37.625  38.542   9.143
 1424POPC   C1A21411  37.815  38.131   8.923
 1424POPC   D2A21412  37.630  38.279   8.537
 1424POPC   C3A21413  37.835  38.088   8.161
 1424POPC   C4A21414  38.109  37.957   7.846
 1424POPC   C1B21415  37.515  38.832   8.840
 1424POPC   C2B21416  37.355  38.728   8.426
 1424POPC   C3B21417  37.586  38.545   8.105
 1424POPC   C4B21418  37.996  38.537   7.887
 1425POPC   NC321419  38.919  28.819   9.619
 1425POPC   PO421420  38.619  29.400   9.562
 1425POPC   GL121421  38.478  29.148   9.201
 1425POPC   GL221422  38.656  28.833   9.179
 1425POPC   C1A21423  38.529  29.184   8.746
 1425POPC   D2A21424  38.478  29.560   8.503
 1425POPC   C3A21425  38.482  29.542   8.097
 1425POPC   C4A21426  38.350  29.326   7.731
 1425POPC   C1B21427  38.266  28.751   8.939
 1425POPC   C2B21428  38.204  28.834   8.509
 1425POPC   C3B21429  38.368  29.003   8.138
 1425POPC   C4B21430  38.415  28.806   7.726
 1426POPC   NC321431  42.459  13.226   9.209
 1426POPC   PO421432  42.104  12.757   9.588
 1426POPC   GL121433  42.186  12.768   9.179
 1426POPC   GL221434  42.480  12.702   9.123
 1426POPC   C1A21435  42.163  12.820   8.736
 1426POPC   D2A21436  42.006  12.598   8.412
 1426POPC   C3A21437  42.310  12.515   8.115
 1426POPC   C4A21438  42.075  12.725   7.806
 1426POPC   C1B21439  42.693  12.721   8.760
 1426POPC   C2B21440  42.591  13.091   8.517
 1426POPC   C3B21441  42.368  13.077   8.130
 1426POPC   C4B21442  42.532  12.923   7.739
 1427POPC   NC321443  39.291  37.636   9.433
 1427POPC   PO421444  38.704  37.843   9.528
 1427POPC   GL121445  38.881  37.745   9.105
 1427POPC   GL221446  39.194  37.869   9.005
 1427POPC   C1A21447  38.954  37.559   8.670
 1427POPC   D2A21448  38.873  37.436   8.235
 1427POPC   C3A21449  39.037  37.667   7.874
 1427POPC   C4A21450  39.037  37.678   7.445
 1427POPC   C1B21451  39.467  37.628   8.783
 1427POPC   C2B21452  39.415  37.467   8.389
 1427POPC   C3B21453  39.496  37.675   8.060
 1427POPC   C4B21454  39.537  37.690   7.632
 1428POPC   NC321455   0.685  28.246   9.517
 1428POPC   PO421456   0.276  28.710   9.530
 1428POPC   GL121457   0.488  28.560   9.145
 1428POPC   GL221458   0.483  28.191   9.043
 1428POPC   C1A21459   0.587  28.574   8.720
 1428POPC   D2A21460   0.358  28.641   8.363
 1428POPC   C3A21461   0.502  28.508   7.970
 1428POPC   C4A21462   0.591  28.692   7.575
 1428POPC   C1B21463   0.161  28.195   8.725
 1428POPC   C2B21464  44.990  28.312   8.346
 1428POPC   C3B21465   0.080  28.186   7.927
 1428POPC   C4B21466   0.222  28.350   7.546
 1429POPC   NC321467  38.117  41.482   9.419
 1429POPC   PO421468  38.539  41.950   9.343
 1429POPC   GL121469  38.466  41.611   9.086
 1429POPC   GL221470  38.225  41.794   8.925
 1429POPC   C1A21471  38.555  41.331   8.759
 1429POPC   D2A21472  38.533  41.164   8.354
 1429POPC   C3A21473  38.597  41.482   8.072
 1429POPC   C4A21474  38.311  41.586   7.742
 1429POPC   C1B21475  38.663  41.858   8.706
 1429POPC   C2B21476  38.760  41.965   8.317
 1429POPC   C3B21477  38.408  41.961   8.069
 1429POPC   C4B21478  38.524  42.086   7.708
 1430POPC   NC321479  28.095  19.368   9.433
 1430POPC   PO421480  28.386  18.799   9.386
 1430POPC   GL121481  28.373  19.105   9.075
 1430POPC   GL221482  28.579  19.392   9.078
 1430POPC   C1A21483  28.403  19.042   8.661
 1430POPC   D2A21484  28.381  18.673   8.412
 1430POPC   C3A21485  28.449  18.703   7.989
 1430POPC   C4A21486  28.159  18.927   7.732
 1430POPC   C1B21487  28.264  19.540   8.795
 1430POPC   C2B21488  28.126  19.367   8.395
 1430POPC   C3B21489  28.264  19.415   7.989
 1430POPC   C4B21490  28.604  19.175   7.818
 1431POPC   NC321491  24.054   6.958   9.402
 1431POPC   PO421492  24.713   6.656   9.443
 1431POPC   GL121493  24.738   6.790   9.048
 1431POPC   GL221494  24.414   6.869   9.061
 1431POPC   C1A21495  24.620   6.507   8.720
 1431POPC   D2A21496  24.418   6.378   8.355
 1431POPC   C3A21497  24.622   6.533   7.999
 1431POPC   C4A21498  24.421   6.575   7.616
 1431POPC   C1B21499  24.239   6.839   8.670
 1431POPC   C2B21500  24.480   6.884   8.333
 1431POPC   C3B21501  24.230   6.896   7.970
 1431POPC   C4B21502  24.320   7.050   7.563
 1432POPC   NC321503  13.109  17.799   9.455
 1432POPC   PO421504  13.730  17.444   9.481
 1432POPC   GL121505  13.499  17.681   9.150
 1432POPC   GL221506  13.458  17.356   8.998
 1432POPC   C1A21507  13.465  17.794   8.699
 1432POPC   D2A21508  13.568  17.472   8.350
 1432POPC   C3A21509  13.581  17.491   7.905
 1432POPC   C4A21510  13.629  17.831   7.635
 1432POPC   C1B21511  13.825  17.296   8.748
 1432POPC   C2B21512  13.899  17.033   8.381
 1432POPC   C3B21513  13.994  17.120   7.939
 1432POPC   C4B21514  13.851  17.239   7.531
 1433POPC   NC321515  28.560  38.571   9.512
 1433POPC   PO421516  28.001  38.263   9.478
 1433POPC   GL121517  28.308  38.245   9.154
 1433POPC   GL221518  28.287  38.586   9.104
 1433POPC   C1A21519  28.307  38.312   8.696
 1433POPC   D2A21520  27.999  38.316   8.383
 1433POPC   C3A21521  28.250  38.462   8.052
 1433POPC   C4A21522  28.353  38.263   7.655
 1433POPC   C1B21523  28.508  38.793   8.773
 1433POPC   C2B21524  28.668  38.600   8.380
 1433POPC   C3B21525  28.722  38.575   7.904
 1433POPC   C4B21526  28.449  38.760   7.568
 1434POPC   NC321527  19.594  33.024   9.071
 1434POPC   PO421528  19.001  33.127   9.477
 1434POPC   GL121529  19.089  32.908   9.101
 1434POPC   GL221530  18.900  32.611   9.087
 1434POPC   C1A21531  19.101  32.870   8.639
 1434POPC   D2A21532  18.941  33.017   8.250
 1434POPC   C3A21533  19.173  33.291   8.015
 1434POPC   C4A21534  19.138  33.245   7.591
 1434POPC   C1B21535  18.840  32.438   8.704
 1434POPC   C2B21536  18.729  32.567   8.327
 1434POPC   C3B21537  18.876  32.629   7.895
 1434POPC   C4B21538  18.852  32.686   7.455
 1435POPC   NC321539  38.619   1.679   9.667
 1435POPC   PO421540  38.145   1.886   9.199
 1435POPC   GL121541  38.450   1.877   8.969
 1435POPC   GL221542  38.754   1.923   9.163
 1435POPC   C1A21543  38.388   1.620   8.620
 1435POPC   D2A21544  38.131   1.698   8.235
 1435POPC   C3A21545  38.412   1.858   7.911
 1435POPC   C4A21546  38.445   2.143   7.578
 1435POPC   C1B21547  38.858   1.904   8.691
 1435POPC   C2B21548  38.753   1.715   8.286
 1435POPC   C3B21549  38.862   1.609   7.870
 1435POPC   C4B21550  38.878   1.846   7.496
 1436POPC   NC321551  26.411  29.289   9.494
 1436POPC   PO421552  26.998  29.012   9.398
 1436POPC   GL121553  27.018  29.258   9.037
 1436POPC   GL221554  26.700  29.317   9.077
 1436POPC   C1A21555  26.962  29.373   8.625
 1436POPC   D2A21556  26.798  29.182   8.295
 1436POPC   C3A21557  27.030  29.332   7.971
 1436POPC   C4A21558  27.033  29.052   7.638
 1436POPC   C1B21559  26.520  29.149   8.732
 1436POPC   C2B21560  26.255  29.354   8.469
 1436POPC   C3B21561  26.292  29.507   8.086
 1436POPC   C4B21562  26.556  29.212   7.837
 1437POPC   NC321563  13.694  44.067   9.500
 1437POPC   PO421564  13.196  43.784   9.278
 1437POPC   GL121565  13.592  43.755   9.094
 1437POPC   GL221566  13.573  43.423   9.203
 1437POPC   C1A21567  13.849  43.933   8.763
 1437POPC   D2A21568  13.709  43.962   8.334
 1437POPC   C3A21569  13.929  44.078   7.978
 1437POPC   C4A21570  13.752  43.879   7.676
 1437POPC   C1B21571  13.406  43.396   8.752
 1437POPC   C2B21572  13.535  43.472   8.371
 1437POPC   C3B21573  13.424  43.637   7.993
 1437POPC   C4B21574  13.465  43.444   7.598
 1438POPC   NC321575  19.680  33.943   9.279
 1438POPC   PO421576  19.946  33.407   9.564
 1438POPC   GL121577  20.116  33.655   9.058
 1438POPC   GL221578  20.112  34.005   9.053
 1438POPC   C1A21579  20.009  33.709   8.592
 1438POPC   D2A21580  19.679  33.850   8.254
 1438POPC   C3A21581  19.632  33.704   7.806
 1438POPC   C4A21582  19.978  33.517   7.533
 1438POPC   C1B21583  19.984  34.214   8.695
 1438POPC   C2B21584  20.134  34.129   8.279
 1438POPC   C3B21585  20.067  33.928   7.901
 1438POPC   C4B21586  20.135  34.016   7.480
 1439POPC   NC321587  18.488   9.074   9.482
 1439POPC   PO421588  18.025   8.575   9.699
 1439POPC   GL121589  18.200   8.685   9.254
 1439POPC   GL221590  18.102   9.025   9.103
 1439POPC   C1A21591  18.379   8.727   8.816
 1439POPC   D2A21592  18.200   8.978   8.482
 1439POPC   C3A21593  18.130   8.824   8.085
 1439POPC   C4A21594  18.430   8.703   7.785
 1439POPC   C1B21595  18.422   9.262   8.856
 1439POPC   C2B21596  18.472   9.409   8.436
 1439POPC   C3B21597  18.416   9.273   8.014
 1439POPC   C4B21598  18.421   9.530   7.679
 1440POPC   NC321599  25.152   6.470   9.498
 1440POPC   PO421600  25.683   6.854   9.587
 1440POPC   GL121601  25.483   6.768   9.188
 1440POPC   GL221602  25.508   6.411   9.118
 1440POPC   C1A21603  25.253   6.793   8.778
 1440POPC   D2A21604  24.968   6.726   8.427
 1440POPC   C3A21605  25.054   6.849   8.020
 1440POPC   C4A21606  25.018   6.571   7.660
 1440POPC   C1B21607  25.579   6.397   8.677
 1440POPC   C2B21608  25.468   6.565   8.301
 1440POPC   C3B21609  25.503   6.655   7.892
 1440POPC   C4B21610  25.380   6.920   7.578
 1441POPC   NC321611  19.276  35.396   9.651
 1441POPC   PO421612  18.712  35.784   9.661
 1441POPC   GL121613  18.829  35.400   9.331
 1441POPC   GL221614  19.179  35.294   9.163
 1441POPC   C1A21615  18.775  35.302   8.865
 1441POPC   D2A21616  18.808  35.550   8.478
 1441POPC   C3A21617  18.874  35.329   8.096
 1441POPC   C4A21618  18.565  35.278   7.758
 1441POPC   C1B21619  19.293  35.522   8.776
 1441POPC   C2B21620  19.282  35.734   8.378
 1441POPC   C3B21621  19.272  35.744   7.941
 1441POPC   C4B21622  19.126  35.542   7.553
 1442POPC   NC321623   5.423  31.973   9.486
 1442POPC   PO421624   5.060  32.562   9.568
 1442POPC   GL121625   5.065  32.269   9.236
 1442POPC   GL221626   5.375  32.447   9.137
 1442POPC   C1A21627   4.928  32.152   8.823
 1442POPC   D2A21628   5.065  32.241   8.425
 1442POPC   C3A21629   4.861  32.066   8.055
 1442POPC   C4A21630   4.837  32.290   7.692
 1442POPC   C1B21631   5.441  32.105   8.835
 1442POPC   C2B21632   5.546  32.058   8.400
 1442POPC   C3B21633   5.369  32.215   8.021
 1442POPC   C4B21634   5.254  32.005   7.701
 1443POPC   NC321635  43.518  16.673   9.364
 1443POPC   PO421636  44.206  16.559   9.437
 1443POPC   GL121637  44.038  16.670   9.056
 1443POPC   GL221638  43.844  16.449   9.052
 1443POPC   C1A21639  43.825  16.794   8.653
 1443POPC   D2A21640  43.867  16.794   8.194
 1443POPC   C3A21641  43.752  16.941   7.801
 1443POPC   C4A21642  43.859  17.019   7.383
 1443POPC   C1B21643  44.019  16.292   8.691
 1443POPC   C2B21644  43.907  16.283   8.275
 1443POPC   C3B21645  44.158  16.439   7.964
 1443POPC   C4B21646  44.066  16.600   7.577
 1444POPC   NC321647  44.130  32.429   9.551
 1444POPC   PO421648  43.642  31.876   9.577
 1444POPC   GL121649  43.931  32.048   9.267
 1444POPC   GL221650  43.792  32.410   9.189
 1444POPC   C1A21651  44.064  32.125   8.843
 1444POPC   D2A21652  43.837  32.245   8.451
 1444POPC   C3A21653  44.000  32.155   8.041
 1444POPC   C4A21654  43.980  32.080   7.616
 1444POPC   C1B21655  43.622  32.577   8.823
 1444POPC   C2B21656  43.717  32.750   8.411
 1444POPC   C3B21657  43.658  32.528   8.019
 1444POPC   C4B21658  43.654  32.477   7.568
 1445POPC   NC321659  39.774  25.411   9.490
 1445POPC   PO421660  40.315  25.060   9.571
 1445POPC   GL121661  40.080  25.151   9.182
 1445POPC   GL221662  39.732  24.953   9.219
 1445POPC   C1A21663  40.030  25.510   8.868
 1445POPC   D2A21664  40.125  25.350   8.461
 1445POPC   C3A21665  39.919  25.495   8.112
 1445POPC   C4A21666  40.054  25.425   7.714
 1445POPC   C1B21667  39.687  25.139   8.800
 1445POPC   C2B21668  39.718  25.016   8.361
 1445POPC   C3B21669  39.858  25.018   7.941
 1445POPC   C4B21670  39.699  25.152   7.483
 1446POPC   NC321671  41.018  32.475   9.548
 1446POPC   PO421672  40.774  31.801   9.706
 1446POPC   GL121673  40.746  32.126   9.298
 1446POPC   GL221674  40.606  31.938   9.027
 1446POPC   C1A21675  40.794  32.408   8.880
 1446POPC   D2A21676  40.690  32.619   8.456
 1446POPC   C3A21677  40.859  32.575   8.006
 1446POPC   C4A21678  40.723  32.468   7.531
 1446POPC   C1B21679  40.871  31.951   8.644
 1446POPC   C2B21680  40.978  32.133   8.257
 1446POPC   C3B21681  40.753  32.106   7.882
 1446POPC   C4B21682  40.988  32.034   7.550
 1447POPC   NC321683  19.823  38.152   9.505
 1447POPC   PO421684  19.479  38.573   9.419
 1447POPC   GL121685  19.904  38.494   9.133
 1447POPC   GL221686  19.960  38.141   9.012
 1447POPC   C1A21687  20.126  38.542   8.716
 1447POPC   D2A21688  19.908  38.642   8.316
 1447POPC   C3A21689  19.992  38.472   7.923
 1447POPC   C4A21690  20.174  38.690   7.644
 1447POPC   C1B21691  19.717  38.247   8.638
 1447POPC   C2B21692  19.632  38.199   8.192
 1447POPC   C3B21693  19.513  38.371   7.804
 1447POPC   C4B21694  19.249  38.392   7.445
 1448POPC   NC321695  40.595  16.957   9.461
 1448POPC   PO421696  41.144  16.606   9.445
 1448POPC   GL121697  40.825  16.620   9.152
 1448POPC   GL221698  40.575  16.431   9.237
 1448POPC   C1A21699  40.730  16.816   8.776
 1448POPC   D2A21700  40.717  17.042   8.392
 1448POPC   C3A21701  40.528  16.959   8.017
 1448POPC   C4A21702  40.967  16.878   7.901
 1448POPC   C1B21703  40.568  16.320   8.782
 1448POPC   C2B21704  40.498  16.564   8.387
 1448POPC   C3B21705  40.638  16.465   7.975
 1448POPC   C4B21706  40.446  16.350   7.577
 1449POPC   NC321707   0.068  34.345   9.581
 1449POPC   PO421708   0.435  34.982   9.539
 1449POPC   GL121709   0.356  34.828   9.193
 1449POPC   GL221710   0.371  34.522   9.205
 1449POPC   C1A21711   0.460  34.855   8.794
 1449POPC   D2A21712   0.296  35.027   8.431
 1449POPC   C3A21713   0.276  34.689   8.145
 1449POPC   C4A21714   0.482  34.660   7.752
 1449POPC   C1B21715   0.690  34.407   8.902
 1449POPC   C2B21716   0.656  34.454   8.475
 1449POPC   C3B21717   0.616  34.288   8.074
 1449POPC   C4B21718   0.363  34.144   7.723
 1450POPC   NC321719  26.654  18.046   9.403
 1450POPC   PO421720  27.080  18.578   9.530
 1450POPC   GL121721  27.003  18.353   9.172
 1450POPC   GL221722  26.693  18.455   9.066
 1450POPC   C1A21723  27.085  18.372   8.722
 1450POPC   D2A21724  27.009  18.158   8.280
 1450POPC   C3A21725  26.952  18.255   7.811
 1450POPC   C4A21726  27.087  18.391   7.351
 1450POPC   C1B21727  26.630  18.125   8.739
 1450POPC   C2B21728  26.591  17.862   8.393
 1450POPC   C3B21729  26.531  18.000   7.973
 1450POPC   C4B21730  26.365  18.326   7.738
 1451POPC   NC321731  37.280  28.332   9.478
 1451POPC   PO421732  36.604  28.618   9.564
 1451POPC   GL121733  36.781  28.616   9.157
 1451POPC   GL221734  37.129  28.720   9.131
 1451POPC   C1A21735  36.832  28.423   8.747
 1451POPC   D2A21736  36.952  28.049   8.485
 1451POPC   C3A21737  36.728  28.090   8.091
 1451POPC   C4A21738  36.747  28.431   7.796
 1451POPC   C1B21739  37.336  28.402   8.852
 1451POPC   C2B21740  37.369  28.390   8.436
 1451POPC   C3B21741  37.200  28.497   8.045
 1451POPC   C4B21742  37.160  28.116   7.819
 1452POPC   NC321743  42.545  41.956   9.359
 1452POPC   PO421744  42.209  42.621   9.309
 1452POPC   GL121745  42.398  42.375   9.057
 1452POPC   GL221746  42.254  42.073   8.958
 1452POPC   C1A21747  42.379  42.503   8.631
 1452POPC   D2A21748  42.171  42.528   8.244
 1452POPC   C3A21749  42.496  42.581   7.885
 1452POPC   C4A21750  42.629  42.549   7.425
 1452POPC   C1B21751  42.632  42.055   8.700
 1452POPC   C2B21752  42.603  42.226   8.284
 1452POPC   C3B21753  42.306  42.120   7.967
 1452POPC   C4B21754  42.555  42.049   7.649
 1453POPC   NC321755   0.156  11.006   9.422
 1453POPC   PO421756   0.615  11.407   9.311
 1453POPC   GL121757   0.582  11.066   9.018
 1453POPC   GL221758   0.262  10.942   8.939
 1453POPC   C1A21759   0.599  11.023   8.571
 1453POPC   D2A21760   0.705  11.257   8.199
 1453POPC   C3A21761   0.417  11.251   7.857
 1453POPC   C4A21762   0.266  11.622   7.581
 1453POPC   C1B21763   0.164  11.324   8.746
 1453POPC   C2B21764   0.289  11.528   8.376
 1453POPC   C3B21765   0.032  11.563   8.019
 1453POPC   C4B21766  44.890  11.158   7.839
 1454POPC   NC321767   0.333   9.485   9.661
 1454POPC   PO421768   0.777   9.958   9.506
 1454POPC   GL121769   0.622   9.763   9.153
 1454POPC   GL221770   0.277   9.698   9.166
 1454POPC   C1A21771   0.640   9.595   8.744
 1454POPC   D2A21772   0.490   9.793   8.363
 1454POPC   C3A21773   0.723   9.757   7.991
 1454POPC   C4A21774   0.639   9.900   7.571
 1454POPC   C1B21775   0.063   9.710   8.749
 1454POPC   C2B21776  44.997   9.967   8.360
 1454POPC   C3B21777   0.169   9.933   7.937
 1454POPC   C4B21778   0.317   9.541   7.769
 1455POPC   NC321779  39.778   2.798   9.664
 1455POPC   PO421780  40.262   3.014   9.340
 1455POPC   GL121781  39.983   2.759   9.114
 1455POPC   GL221782  39.809   3.008   9.038
 1455POPC   C1A21783  40.102   2.557   8.731
 1455POPC   D2A21784  40.392   2.783   8.418
 1455POPC   C3A21785  40.234   2.767   8.027
 1455POPC   C4A21786  40.134   2.834   7.644
 1455POPC   C1B21787  39.992   3.043   8.651
 1455POPC   C2B21788  39.836   2.740   8.341
 1455POPC   C3B21789  39.711   2.839   7.940
 1455POPC   C4B21790  39.578   3.237   7.772
 1456POPC   NC321791  27.054   2.742   9.777
 1456POPC   PO421792  26.691   3.268   9.683
 1456POPC   GL121793  26.950   3.045   9.349
 1456POPC   GL221794  26.758   2.775   9.242
 1456POPC   C1A21795  27.058   3.000   8.893
 1456POPC   D2A21796  26.924   2.711   8.537
 1456POPC   C3A21797  27.019   2.803   8.080
 1456POPC   C4A21798  27.292   2.864   7.720
 1456POPC   C1B21799  26.524   2.914   8.841
 1456POPC   C2B21800  26.518   2.972   8.361
 1456POPC   C3B21801  26.553   2.625   8.037
 1456POPC   C4B21802  26.408   2.525   7.603
 1457POPC   NC321803  24.291  32.454   9.468
 1457POPC   PO421804  24.494  31.786   9.607
 1457POPC   GL121805  24.545  32.045   9.253
 1457POPC   GL221806  24.188  32.040   9.165
 1457POPC   C1A21807  24.544  32.035   8.797
 1457POPC   D2A21808  24.398  32.372   8.550
 1457POPC   C3A21809  24.531  32.613   8.178
 1457POPC   C4A21810  24.337  32.595   7.766
 1457POPC   C1B21811  23.995  32.127   8.773
 1457POPC   C2B21812  24.020  32.095   8.359
 1457POPC   C3B21813  24.334  32.139   8.071
 1457POPC   C4B21814  24.283  32.122   7.631
 1458POPC   NC321815   6.331  41.046   9.427
 1458POPC   PO421816   6.836  40.591   9.490
 1458POPC   GL121817   6.691  40.772   9.155
 1458POPC   GL221818   6.395  40.608   9.132
 1458POPC   C1A21819   6.765  40.997   8.776
 1458POPC   D2A21820   6.746  41.056   8.362
 1458POPC   C3A21821   6.878  40.746   8.128
 1458POPC   C4A21822   6.848  40.826   7.722
 1458POPC   C1B21823   6.535  40.508   8.742
 1458POPC   C2B21824   6.414  40.639   8.348
 1458POPC   C3B21825   6.394  40.590   7.928
 1458POPC   C4B21826   6.185  40.382   7.632
 1459POPC   NC321827  39.458   3.189   9.361
 1459POPC   PO421828  39.362   3.741   9.768
 1459POPC   GL121829  39.322   3.682   9.269
 1459POPC   GL221830  39.203   3.407   9.000
 1459POPC   C1A21831  39.325   3.828   8.782
 1459POPC   D2A21832  39.258   3.542   8.408
 1459POPC   C3A21833  39.300   3.677   8.010
 1459POPC   C4A21834  39.560   3.906   7.765
 1459POPC   C1B21835  39.498   3.202   8.705
 1459POPC   C2B21836  39.629   3.196   8.311
 1459POPC   C3B21837  39.273   3.061   8.144
 1459POPC   C4B21838  39.083   3.250   7.838
 1460POPC   NC321839   0.919   2.408   9.715
 1460POPC   PO421840   1.309   1.908   9.686
 1460POPC   GL121841   1.303   1.851   9.216
 1460POPC   GL221842   1.136   1.521   9.177
 1460POPC   C1A21843   1.346   2.065   8.796
 1460POPC   D2A21844   1.057   2.126   8.447
 1460POPC   C3A21845   1.267   2.117   8.054
 1460POPC   C4A21846   1.431   2.261   7.667
 1460POPC   C1B21847   1.036   1.664   8.793
 1460POPC   C2B21848   1.225   1.639   8.412
 1460POPC   C3B21849   1.021   1.675   8.018
 1460POPC   C4B21850   1.016   1.932   7.650
 1461POPC   NC321851   4.233  28.944   9.427
 1461POPC   PO421852   4.039  29.508   9.325
 1461POPC   GL121853   4.380  29.331   9.091
 1461POPC   GL221854   4.608  29.036   9.073
 1461POPC   C1A21855   4.469  29.443   8.700
 1461POPC   D2A21856   4.402  29.524   8.272
 1461POPC   C3A21857   4.444  29.162   8.004
 1461POPC   C4A21858   4.235  29.243   7.619
 1461POPC   C1B21859   4.410  28.933   8.691
 1461POPC   C2B21860   4.179  28.738   8.361
 1461POPC   C3B21861   4.314  28.620   7.984
 1461POPC   C4B21862   4.414  28.772   7.609
 1462POPC   NC321863  43.992   8.589   9.674
 1462POPC   PO421864  43.774   8.054   9.293
 1462POPC   GL121865  43.789   8.262   8.955
 1462POPC   GL221866  44.074   8.416   9.124
 1462POPC   C1A21867  43.766   8.135   8.546
 1462POPC   D2A21868  43.920   7.822   8.269
 1462POPC   C3A21869  43.786   7.930   7.889
 1462POPC   C4A21870  43.579   8.300   7.785
 1462POPC   C1B21871  44.232   8.099   8.794
 1462POPC   C2B21872  44.384   8.125   8.377
 1462POPC   C3B21873  44.263   8.211   7.949
 1462POPC   C4B21874  44.247   7.861   7.685
 1463POPC   NC321875  12.832   3.917   9.509
 1463POPC   PO421876  12.970   3.262   9.405
 1463POPC   GL121877  12.741   3.259   9.073
 1463POPC   GL221878  12.662   3.606   9.126
 1463POPC   C1A21879  12.800   3.125   8.635
 1463POPC   D2A21880  12.737   3.395   8.264
 1463POPC   C3A21881  13.076   3.446   7.942
 1463POPC   C4A21882  13.293   3.673   7.629
 1463POPC   C1B21883  12.887   3.623   8.727
 1463POPC   C2B21884  13.047   3.808   8.320
 1463POPC   C3B21885  12.952   3.947   7.889
 1463POPC   C4B21886  12.849   3.855   7.428
 1464POPC   NC321887  38.920  31.316   9.816
 1464POPC   PO421888  39.152  31.629   9.212
 1464POPC   GL121889  39.377  31.675   8.899
 1464POPC   GL221890  39.630  31.452   9.037
 1464POPC   C1A21891  39.184  31.560   8.506
 1464POPC   D2A21892  39.033  31.292   8.202
 1464POPC   C3A21893  38.993  31.534   7.876
 1464POPC   C4A21894  38.974  31.362   7.484
 1464POPC   C1B21895  39.556  31.265   8.647
 1464POPC   C2B21896  39.532  31.239   8.211
 1464POPC   C3B21897  39.400  31.246   7.816
 1464POPC   C4B21898  39.463  31.186   7.396
 1465POPC   NC321899   1.513  14.434   9.660
 1465POPC   PO421900   0.948  14.615   9.525
 1465POPC   GL121901   1.190  14.405   9.207
 1465POPC   GL221902   1.227  14.058   9.222
 1465POPC   C1A21903   1.240  14.409   8.752
 1465POPC   D2A21904   1.054  14.642   8.410
 1465POPC   C3A21905   1.076  14.513   7.980
 1465POPC   C4A21906   0.809  14.462   7.654
 1465POPC   C1B21907   1.039  13.950   8.784
 1465POPC   C2B21908   1.113  14.091   8.316
 1465POPC   C3B21909   1.124  14.022   7.828
 1465POPC   C4B21910   1.248  13.846   7.406
 1466POPC   NC321911  11.455  10.963   9.553
 1466POPC   PO421912  11.100  10.325   9.595
 1466POPC   GL121913  11.288  10.287   9.209
 1466POPC   GL221914  11.279  10.646   9.191
 1466POPC   C1A21915  11.144  10.334   8.796
 1466POPC   D2A21916  11.198  10.626   8.496
 1466POPC   C3A21917  11.294  10.451   8.100
 1466POPC   C4A21918  11.103  10.371   7.681
 1466POPC   C1B21919  11.575  10.630   8.862
 1466POPC   C2B21920  11.655  10.861   8.470
 1466POPC   C3B21921  11.784  10.824   8.055
 1466POPC   C4B21922  11.592  10.587   7.713
 1467POPC   NC321923  15.230  24.117   9.307
 1467POPC   PO421924  15.125  24.785   9.531
 1467POPC   GL121925  15.147  24.635   9.098
 1467POPC   GL221926  14.861  24.475   9.085
 1467POPC   C1A21927  15.195  24.356   8.709
 1467POPC   D2A21928  14.914  24.279   8.362
 1467POPC   C3A21929  15.028  24.454   7.970
 1467POPC   C4A21930  15.212  24.377   7.558
 1467POPC   C1B21931  14.882  24.752   8.671
 1467POPC   C2B21932  14.631  24.732   8.297
 1467POPC   C3B21933  14.657  24.810   7.877
 1467POPC   C4B21934  14.935  24.820   7.536
 1468POPC   NC321935  24.029  31.739   9.560
 1468POPC   PO421936  23.379  31.376   9.611
 1468POPC   GL121937  23.592  31.628   9.310
 1468POPC   GL221938  23.804  31.369   9.217
 1468POPC   C1A21939  23.682  31.729   8.860
 1468POPC   D2A21940  23.559  31.834   8.423
 1468POPC   C3A21941  23.810  31.745   8.068
 1468POPC   C4A21942  23.895  31.390   7.835
 1468POPC   C1B21943  23.841  31.250   8.784
 1468POPC   C2B21944  23.980  31.356   8.370
 1468POPC   C3B21945  24.274  31.137   8.082
 1468POPC   C4B21946  24.202  30.895   7.693
 1469POPC   NC321947  31.767  23.946   9.433
 1469POPC   PO421948  31.086  23.567   9.487
 1469POPC   GL121949  31.345  23.817   9.190
 1469POPC   GL221950  31.566  23.571   9.080
 1469POPC   C1A21951  31.541  23.964   8.791
 1469POPC   D2A21952  31.540  23.654   8.461
 1469POPC   C3A21953  31.470  23.928   8.163
 1469POPC   C4A21954  31.647  24.134   7.829
 1469POPC   C1B21955  31.288  23.319   8.874
 1469POPC   C2B21956  31.158  23.246   8.451
 1469POPC   C3B21957  31.207  23.434   8.070
 1469POPC   C4B21958  31.465  23.608   7.785
 1470POPC   NC321959  22.292  39.636   9.447
 1470POPC   PO421960  21.851  39.056   9.460
 1470POPC   GL121961  22.208  38.943   9.183
 1470POPC   GL221962  22.411  39.217   9.149
 1470POPC   C1A21963  22.266  38.972   8.747
 1470POPC   D2A21964  21.903  38.895   8.465
 1470POPC   C3A21965  21.948  39.102   8.077
 1470POPC   C4A21966  22.070  39.213   7.716
 1470POPC   C1B21967  22.338  39.482   8.794
 1470POPC   C2B21968  22.279  39.302   8.384
 1470POPC   C3B21969  22.473  39.342   8.003
 1470POPC   C4B21970  22.465  39.512   7.594
 1471POPC   NC321971  44.168  34.726   9.785
 1471POPC   PO421972  43.874  34.263   9.593
 1471POPC   GL121973  44.026  34.402   9.168
 1471POPC   GL221974  44.273  34.655   9.222
 1471POPC   C1A21975  43.917  34.226   8.745
 1471POPC   D2A21976  43.827  34.308   8.293
 1471POPC   C3A21977  43.930  34.107   7.896
 1471POPC   C4A21978  43.807  34.421   7.605
 1471POPC   C1B21979  44.232  34.692   8.755
 1471POPC   C2B21980  44.231  34.687   8.294
 1471POPC   C3B21981  44.176  34.707   7.849
 1471POPC   C4B21982  44.016  35.041   7.578
 1472POPC   NC321983  35.107  12.924   9.682
 1472POPC   PO421984  35.688  12.643   9.564
 1472POPC   GL121985  35.411  12.853   9.233
 1472POPC   GL221986  35.109  12.666   9.164
 1472POPC   C1A21987  35.301  12.922   8.769
 1472POPC   D2A21988  35.098  13.127   8.397
 1472POPC   C3A21989  35.328  13.115   8.026
 1472POPC   C4A21990  35.251  13.050   7.598
 1472POPC   C1B21991  35.075  12.453   8.747
 1472POPC   C2B21992  35.160  12.607   8.300
 1472POPC   C3B21993  35.393  12.603   7.871
 1472POPC   C4B21994  35.481  12.654   7.395
 1473POPC   NC321995  12.391  44.970   9.461
 1473POPC   PO421996  12.035   0.600   9.493
 1473POPC   GL121997  12.219   0.531   9.096
 1473POPC   GL221998  12.408   0.829   8.979
 1473POPC   C1A21999  12.123   0.456   8.663
 1473POPC   D2A22000  11.892   0.380   8.292
 1473POPC   C3A22001  12.127   0.177   7.934
 1473POPC   C4A22002  11.927   0.141   7.497
 1473POPC   C1B22003  12.387   0.899   8.555
 1473POPC   C2B22004  12.332   0.626   8.197
 1473POPC   C3B22005  12.043   0.672   7.858
 1473POPC   C4B22006  11.977   0.648   7.410
 1474POPC   NC322007  28.118  40.992   9.516
 1474POPC   PO422008  28.661  40.550   9.526
 1474POPC   GL122009  28.525  40.824   9.212
 1474POPC   GL222010  28.239  40.700   9.119
 1474POPC   C1A22011  28.545  40.786   8.734
 1474POPC   D2A22012  28.439  40.609   8.316
 1474POPC   C3A22013  28.649  40.786   7.934
 1474POPC   C4A22014  28.644  40.692   7.465
 1474POPC   C1B22015  28.050  40.966   8.829
 1474POPC   C2B22016  28.227  41.072   8.439
 1474POPC   C3B22017  28.110  40.902   8.041
 1474POPC   C4B22018  28.251  40.925   7.665
 1475POPC   NC322019   1.990  32.468   9.432
 1475POPC   PO422020   1.852  31.870   9.263
 1475POPC   GL122021   1.884  32.190   9.017
 1475POPC   GL222022   2.229  32.274   8.998
 1475POPC   C1A22023   1.805  32.103   8.628
 1475POPC   D2A22024   1.774  32.295   8.297
 1475POPC   C3A22025   1.955  32.083   7.986
 1475POPC   C4A22026   1.714  32.171   7.648
 1475POPC   C1B22027   2.160  32.449   8.603
 1475POPC   C2B22028   2.148  32.622   8.189
 1475POPC   C3B22029   2.070  32.534   7.756
 1475POPC   C4B22030   2.303  32.456   7.388
 1476POPC   NC322031  13.177   1.386   9.414
 1476POPC   PO422032  12.791   1.961   9.459
 1476POPC   GL122033  12.831   2.148   9.019
 1476POPC   GL222034  12.758   1.793   8.954
 1476POPC   C1A22035  12.552   2.273   8.638
 1476POPC   D2A22036  12.434   2.143   8.188
 1476POPC   C3A22037  12.739   2.160   7.808
 1476POPC   C4A22038  12.697   2.373   7.379
 1476POPC   C1B22039  12.771   1.835   8.570
 1476POPC   C2B22040  12.924   2.001   8.263
 1476POPC   C3B22041  13.138   1.884   7.948
 1476POPC   C4B22042  13.005   1.795   7.499
 1477POPC   NC322043  13.047  18.550   9.497
 1477POPC   PO422044  12.627  17.917   9.498
 1477POPC   GL122045  12.863  18.179   9.183
 1477POPC   GL222046  12.696  18.510   9.127
 1477POPC   C1A22047  12.990  18.032   8.750
 1477POPC   D2A22048  12.726  18.025   8.370
 1477POPC   C3A22049  12.915  18.118   8.013
 1477POPC   C4A22050  13.047  17.890   7.726
 1477POPC   C1B22051  13.004  18.539   8.826
 1477POPC   C2B22052  13.127  18.412   8.406
 1477POPC   C3B22053  13.044  18.629   8.082
 1477POPC   C4B22054  12.863  18.663   7.721
 1478POPC   NC322055  23.405   6.628   9.403
 1478POPC   PO422056  24.040   6.419   9.507
 1478POPC   GL122057  24.010   6.552   9.099
 1478POPC   GL222058  23.675   6.566   8.959
 1478POPC   C1A22059  24.091   6.374   8.736
 1478POPC   D2A22060  23.891   6.485   8.354
 1478POPC   C3A22061  24.037   6.445   7.963
 1478POPC   C4A22062  23.916   6.471   7.564
 1478POPC   C1B22063  23.703   6.874   8.619
 1478POPC   C2B22064  23.570   6.922   8.183
 1478POPC   C3B22065  23.713   6.912   7.736
 1478POPC   C4B22066  23.886   7.064   7.311
 1479POPC   NC322067   1.129   8.939   9.663
 1479POPC   PO422068   1.330   8.499   9.266
 1479POPC   GL122069   1.127   8.874   9.142
 1479POPC   GL222070   0.809   8.829   9.272
 1479POPC   C1A22071   0.895   9.140   8.814
 1479POPC   D2A22072   0.853   9.277   8.343
 1479POPC   C3A22073   1.118   9.121   7.968
 1479POPC   C4A22074   1.506   9.275   7.788
 1479POPC   C1B22075   0.742   8.651   8.861
 1479POPC   C2B22076   0.954   8.751   8.478
 1479POPC   C3B22077   0.787   8.774   8.093
 1479POPC   C4B22078   0.955   8.748   7.674
 1480POPC   NC322079   2.863  29.478   9.578
 1480POPC   PO422080   2.273  29.575   9.323
 1480POPC   GL122081   2.550  29.370   9.072
 1480POPC   GL222082   2.852  29.540   9.057
 1480POPC   C1A22083   2.653  29.121   8.693
 1480POPC   D2A22084   2.609  28.786   8.378
 1480POPC   C3A22085   2.863  28.783   8.058
 1480POPC   C4A22086   3.012  28.999   7.722
 1480POPC   C1B22087   2.659  29.693   8.682
 1480POPC   C2B22088   2.625  29.483   8.303
 1480POPC   C3B22089   2.606  29.222   7.953
 1480POPC   C4B22090   2.598  29.383   7.513
 1481POPC   NC322091   7.795   7.333   9.566
 1481POPC   PO422092   7.173   7.419   9.542
 1481POPC   GL122093   7.459   7.531   9.202
 1481POPC   GL222094   7.174   7.488   9.015
 1481POPC   C1A22095   7.622   7.433   8.767
 1481POPC   D2A22096   7.858   7.347   8.364
 1481POPC   C3A22097   7.668   7.407   7.953
 1481POPC   C4A22098   7.358   7.446   7.656
 1481POPC   C1B22099   7.108   7.412   8.584
 1481POPC   C2B22100   7.194   7.317   8.147
 1481POPC   C3B22101   6.974   7.152   7.770
 1481POPC   C4B22102   7.237   6.995   7.405
 1482POPC   NC322103  23.611  40.987   9.455
 1482POPC   PO422104  24.054  40.516   9.480
 1482POPC   GL122105  23.818  40.621   9.136
 1482POPC   GL222106  23.506  40.506   9.247
 1482POPC   C1A22107  23.853  40.733   8.704
 1482POPC   D2A22108  24.178  40.930   8.448
 1482POPC   C3A22109  24.117  40.859   8.003
 1482POPC   C4A22110  23.944  40.943   7.594
 1482POPC   C1B22111  23.539  40.312   8.829
 1482POPC   C2B22112  23.610  40.267   8.369
 1482POPC   C3B22113  23.760  40.482   7.981
 1482POPC   C4B22114  23.644  40.551   7.515
 1483POPC   NC322115  12.697  16.440   9.518
 1483POPC   PO422116  13.343  16.525   9.411
 1483POPC   GL122117  13.016  16.561   9.141
 1483POPC   GL222118  12.860  16.871   9.269
 1483POPC   C1A22119  12.718  16.656   8.824
 1483POPC   D2A22120  12.653  16.591   8.406
 1483POPC   C3A22121  13.015  16.666   8.144
 1483POPC   C4A22122  12.717  16.610   7.810
 1483POPC   C1B22123  13.056  17.019   8.887
 1483POPC   C2B22124  12.851  17.073   8.477
 1483POPC   C3B22125  12.729  17.080   8.050
 1483POPC   C4B22126  13.015  17.009   7.731
 1484POPC   NC322127  38.784   4.480   9.287
 1484POPC   PO422128  38.269   4.090   9.561
 1484POPC   GL122129  38.282   4.232   9.176
 1484POPC   GL222130  38.552   4.086   9.068
 1484POPC   C1A22131  38.209   4.410   8.776
 1484POPC   D2A22132  38.085   4.604   8.403
 1484POPC   C3A22133  38.330   4.635   8.023
 1484POPC   C4A22134  38.216   4.339   7.739
 1484POPC   C1B22135  38.532   4.018   8.668
 1484POPC   C2B22136  38.429   4.165   8.273
 1484POPC   C3B22137  38.650   4.153   7.923
 1484POPC   C4B22138  38.747   4.515   7.736
 1485POPC   NC322139  18.571  31.011   9.546
 1485POPC   PO422140  17.969  30.808   9.632
 1485POPC   GL122141  18.172  30.851   9.212
 1485POPC   GL222142  18.330  31.157   9.133
 1485POPC   C1A22143  18.251  30.747   8.769
 1485POPC   D2A22144  18.097  30.908   8.374
 1485POPC   C3A22145  18.310  30.820   7.996
 1485POPC   C4A22146  18.123  30.810   7.580
 1485POPC   C1B22147  18.649  31.082   8.848
 1485POPC   C2B22148  18.705  31.208   8.429
 1485POPC   C3B22149  18.699  31.174   7.988
 1485POPC   C4B22150  18.606  30.982   7.607
 1486POPC   NC322151  11.491  42.943   9.834
 1486POPC   PO422152  10.977  43.361   9.563
 1486POPC   GL122153  11.198  43.241   9.214
 1486POPC   GL222154  11.481  43.055   9.313
 1486POPC   C1A22155  11.100  43.125   8.792
 1486POPC   D2A22156  10.810  43.201   8.444
 1486POPC   C3A22157  11.091  43.165   8.109
 1486POPC   C4A22158  11.134  43.306   7.719
 1486POPC   C1B22159  11.586  43.029   8.882
 1486POPC   C2B22160  11.478  43.017   8.424
 1486POPC   C3B22161  11.586  43.124   7.954
 1486POPC   C4B22162  11.696  43.048   7.507
 1487POPC   NC322163   2.998  34.664   9.495
 1487POPC   PO422164   2.641  34.080   9.583
 1487POPC   GL122165   2.732  34.310   9.190
 1487POPC   GL222166   2.616  34.668   9.092
 1487POPC   C1A22167   3.001  34.469   8.860
 1487POPC   D2A22168   3.018  34.869   8.583
 1487POPC   C3A22169   2.941  34.804   8.140
 1487POPC   C4A22170   2.827  34.589   7.802
 1487POPC   C1B22171   2.528  34.389   8.707
 1487POPC   C2B22172   2.587  34.387   8.244
 1487POPC   C3B22173   2.353  34.423   7.842
 1487POPC   C4B22174   2.442  34.733   7.501
 1488POPC   NC322175  37.462  33.033   9.388
 1488POPC   PO422176  37.922  33.495   9.473
 1488POPC   GL122177  37.715  33.355   9.089
 1488POPC   GL222178  37.800  32.962   9.022
 1488POPC   C1A22179  37.570  33.213   8.658
 1488POPC   D2A22180  37.745  32.902   8.378
 1488POPC   C3A22181  37.571  32.991   7.964
 1488POPC   C4A22182  37.497  33.372   7.718
 1488POPC   C1B22183  38.104  33.205   8.796
 1488POPC   C2B22184  38.272  33.217   8.398
 1488POPC   C3B22185  38.070  33.103   8.042
 1488POPC   C4B22186  37.990  32.684   7.936
 1489POPC   NC322187  40.346  28.061   9.435
 1489POPC   PO422188  39.983  28.636   9.414
 1489POPC   GL122189  39.924  28.310   9.071
 1489POPC   GL222190  40.190  28.062   8.955
 1489POPC   C1A22191  39.776  28.159   8.661
 1489POPC   D2A22192  39.531  28.033   8.291
 1489POPC   C3A22193  39.767  28.254   7.996
 1489POPC   C4A22194  39.855  28.648   7.803
 1489POPC   C1B22195  40.296  28.375   8.642
 1489POPC   C2B22196  40.274  28.682   8.283
 1489POPC   C3B22197  40.367  28.519   7.866
 1489POPC   C4B22198  40.211  28.085   7.787
 1490POPC   NC322199  14.591  13.639   9.344
 1490POPC   PO422200  14.019  13.530   9.668
 1490POPC   GL122201  14.071  13.674   9.178
 1490POPC   GL222202  14.206  13.949   9.150
 1490POPC   C1A22203  14.372  13.671   8.742
 1490POPC   D2A22204  14.601  13.498   8.401
 1490POPC   C3A22205  14.419  13.540   8.015
 1490POPC   C4A22206  14.494  13.840   7.724
 1490POPC   C1B22207  13.933  13.887   8.759
 1490POPC   C2B22208  14.042  13.682   8.347
 1490POPC   C3B22209  14.027  13.879   7.931
 1490POPC   C4B22210  14.058  13.943   7.456
 1491POPC   NC322211   9.838  35.287   9.480
 1491POPC   PO422212   9.768  35.931   9.607
 1491POPC   GL122213   9.740  35.637   9.123
 1491POPC   GL222214   9.661  35.248   8.991
 1491POPC   C1A22215   9.731  35.608   8.654
 1491POPC   D2A22216   9.719  35.150   8.428
 1491POPC   C3A22217   9.804  35.184   7.989
 1491POPC   C4A22218  10.033  35.450   7.699
 1491POPC   C1B22219   9.304  35.359   8.656
 1491POPC   C2B22220   9.417  35.510   8.204
 1491POPC   C3B22221   9.530  35.548   7.745
 1491POPC   C4B22222   9.448  35.482   7.278
 1492POPC   NC322223   9.995  12.305   9.409
 1492POPC   PO422224   9.389  11.944   9.421
 1492POPC   GL122225   9.644  11.933   9.074
 1492POPC   GL222226   9.677  12.296   9.023
 1492POPC   C1A22227   9.499  12.039   8.636
 1492POPC   D2A22228   9.625  12.345   8.359
 1492POPC   C3A22229   9.713  12.040   8.083
 1492POPC   C4A22230   9.531  11.912   7.705
 1492POPC   C1B22231   9.981  12.159   8.683
 1492POPC   C2B22232  10.192  12.302   8.329
 1492POPC   C3B22233  10.128  12.281   7.897
 1492POPC   C4B22234   9.785  12.339   7.680
 1493POPC   NC322235  10.121   5.971   9.598
 1493POPC   PO422236   9.488   5.825   9.603
 1493POPC   GL122237   9.822   5.671   9.320
 1493POPC   GL222238   9.883   5.998   9.139
 1493POPC   C1A22239   9.961   5.582   8.893
 1493POPC   D2A22240   9.699   5.555   8.519
 1493POPC   C3A22241   9.767   5.624   8.102
 1493POPC   C4A22242   9.506   5.607   7.744
 1493POPC   C1B22243   9.741   6.036   8.706
 1493POPC   C2B22244   9.889   6.097   8.259
 1493POPC   C3B22245   9.855   6.047   7.797
 1493POPC   C4B22246  10.006   6.345   7.435
 1494POPC   NC322247  11.911   3.533   9.571
 1494POPC   PO422248  12.343   4.034   9.503
 1494POPC   GL122249  12.143   3.723   9.147
 1494POPC   GL222250  12.205   3.341   9.175
 1494POPC   C1A22251  11.839   3.503   8.815
 1494POPC   D2A22252  11.654   3.367   8.387
 1494POPC   C3A22253  11.860   3.508   7.999
 1494POPC   C4A22254  12.099   3.416   7.605
 1494POPC   C1B22255  12.358   3.396   8.772
 1494POPC   C2B22256  12.169   3.417   8.406
 1494POPC   C3B22257  12.308   3.270   8.040
 1494POPC   C4B22258  12.561   3.597   7.797
 1495POPC   NC322259  25.729  39.337   9.873
 1495POPC   PO422260  25.084  39.314   9.659
 1495POPC   GL122261  25.235  39.348   9.214
 1495POPC   GL222262  25.191  39.003   9.123
 1495POPC   C1A22263  25.218  39.638   8.840
 1495POPC   D2A22264  25.007  39.638   8.482
 1495POPC   C3A22265  25.192  39.369   8.221
 1495POPC   C4A22266  25.130  39.537   7.795
 1495POPC   C1B22267  25.237  38.926   8.668
 1495POPC   C2B22268  25.080  38.738   8.273
 1495POPC   C3B22269  25.101  38.988   7.897
 1495POPC   C4B22270  25.490  39.177   7.795
 1496POPC   NC322271  24.386  37.236   9.607
 1496POPC   PO422272  24.217  37.827   9.496
 1496POPC   GL122273  24.410  37.931   9.130
 1496POPC   GL222274  24.730  37.757   9.162
 1496POPC   C1A22275  24.268  37.861   8.725
 1496POPC   D2A22276  24.487  37.871   8.341
 1496POPC   C3A22277  24.184  37.806   8.016
 1496POPC   C4A22278  24.210  37.621   7.602
 1496POPC   C1B22279  24.721  37.553   8.756
 1496POPC   C2B22280  24.675  37.385   8.335
 1496POPC   C3B22281  24.649  37.583   7.907
 1496POPC   C4B22282  24.697  37.608   7.423
 1497POPC   NC322283  10.111  18.485   9.515
 1497POPC   PO422284  10.866  18.411   9.360
 1497POPC   GL122285  10.470  18.309   9.180
 1497POPC   GL222286  10.304  18.625   9.059
 1497POPC   C1A22287  10.388  18.047   8.818
 1497POPC   D2A22288  10.709  18.004   8.486
 1497POPC   C3A22289  10.652  18.245   8.131
 1497POPC   C4A22290  10.373  18.199   7.773
 1497POPC   C1B22291  10.615  18.514   8.738
 1497POPC   C2B22292  10.928  18.638   8.483
 1497POPC   C3B22293  11.033  18.622   8.051
 1497POPC   C4B22294  10.834  18.431   7.688
 1498POPC   NC322295  22.520  21.568   9.416
 1498POPC   PO422296  21.929  21.322   9.602
 1498POPC   GL122297  21.944  21.271   9.127
 1498POPC   GL222298  22.309  21.233   9.077
 1498POPC   C1A22299  22.042  21.301   8.662
 1498POPC   D2A22300  22.152  21.507   8.277
 1498POPC   C3A22301  21.847  21.438   7.949
 1498POPC   C4A22302  21.859  21.287   7.522
 1498POPC   C1B22303  22.541  21.347   8.687
 1498POPC   C2B22304  22.683  21.622   8.374
 1498POPC   C3B22305  22.596  21.507   7.962
 1498POPC   C4B22306  22.248  21.622   7.679
 1499POPC   NC322307  35.597   9.958   9.520
 1499POPC   PO422308  35.145   9.493   9.494
 1499POPC   GL122309  35.340   9.712   9.157
 1499POPC   GL222310  35.560   9.432   9.133
 1499POPC   C1A22311  35.170   9.937   8.783
 1499POPC   D2A22312  35.267  10.168   8.420
 1499POPC   C3A22313  35.239   9.977   8.046
 1499POPC   C4A22314  35.467   9.917   7.715
 1499POPC   C1B22315  35.306   9.439   8.734
 1499POPC   C2B22316  35.254   9.577   8.341
 1499POPC   C3B22317  35.543   9.515   7.999
 1499POPC   C4B22318  35.509   9.332   7.551
 1500POPC   NC322319   1.963   7.575   9.503
 1500POPC   PO422320   1.488   7.042   9.243
 1500POPC   GL122321   1.840   7.280   9.096
 1500POPC   GL222322   2.199   7.124   9.103
 1500POPC   C1A22323   1.878   7.671   8.844
 1500POPC   D2A22324   1.842   7.595   8.392
 1500POPC   C3A22325   1.693   7.810   8.063
 1500POPC   C4A22326   1.713   7.665   7.659
 1500POPC   C1B22327   2.139   7.271   8.682
 1500POPC   C2B22328   2.329   7.478   8.355
 1500POPC   C3B22329   2.145   7.492   7.943
 1500POPC   C4B22330   2.233   7.124   7.741
 1501POPC   NC322331  17.775  23.669   9.447
 1501POPC   PO422332  17.318  24.104   9.527
 1501POPC   GL122333  17.505  23.943   9.106
 1501POPC   GL222334  17.495  23.599   8.989
 1501POPC   C1A22335  17.754  23.955   8.693
 1501POPC   D2A22336  17.545  23.973   8.293
 1501POPC   C3A22337  17.702  23.963   7.883
 1501POPC   C4A22338  17.397  24.014   7.516
 1501POPC   C1B22339  17.653  23.434   8.627
 1501POPC   C2B22340  17.829  23.532   8.242
 1501POPC   C3B22341  17.560  23.484   7.912
 1501POPC   C4B22342  17.487  23.506   7.506
 1502POPC   NC322343   5.012  44.912   9.508
 1502POPC   PO422344   5.405  44.365   9.549
 1502POPC   GL122345   5.192  44.406   9.163
 1502POPC   GL222346   4.840  44.539   9.175
 1502POPC   C1A22347   5.148  44.655   8.780
 1502POPC   D2A22348   4.947  44.607   8.400
 1502POPC   C3A22349   5.140  44.505   7.997
 1502POPC   C4A22350   5.013  44.445   7.547
 1502POPC   C1B22351   4.716  44.917   8.885
 1502POPC   C2B22352   4.552  44.912   8.441
 1502POPC   C3B22353   4.722  44.900   8.011
 1502POPC   C4B22354   5.057  44.938   7.719
 1503POPC   NC322355  44.903   8.190   9.577
 1503POPC   PO422356  44.192   8.170   9.637
 1503POPC   GL122357  44.486   8.121   9.271
 1503POPC   GL222358  44.566   8.427   9.254
 1503POPC   C1A22359  44.734   8.120   8.868
 1503POPC   D2A22360  44.849   7.868   8.487
 1503POPC   C3A22361   0.022   8.033   8.103
 1503POPC   C4A22362  44.746   8.073   7.726
 1503POPC   C1B22363  44.446   8.567   8.839
 1503POPC   C2B22364  44.544   8.615   8.434
 1503POPC   C3B22365  44.731   8.447   8.082
 1503POPC   C4B22366  44.796   8.625   7.676
 1504POPC   NC322367  21.241  16.516   9.650
 1504POPC   PO422368  21.405  17.113   9.461
 1504POPC   GL122369  21.448  16.744   9.205
 1504POPC   GL222370  21.748  16.611   9.284
 1504POPC   C1A22371  21.371  16.654   8.741
 1504POPC   D2A22372  21.425  16.814   8.301
 1504POPC   C3A22373  21.128  16.773   7.966
 1504POPC   C4A22374  20.842  16.578   7.665
 1504POPC   C1B22375  21.871  16.647   8.826
 1504POPC   C2B22376  21.929  16.808   8.397
 1504POPC   C3B22377  21.796  16.926   7.964
 1504POPC   C4B22378  21.551  16.630   7.705
 1505POPC   NC322379   1.381  24.407   9.478
 1505POPC   PO422380   0.823  23.989   9.371
 1505POPC   GL122381   0.995  24.338   9.130
 1505POPC   GL222382   1.248  24.615   9.061
 1505POPC   C1A22383   1.214  24.224   8.749
 1505POPC   D2A22384   1.286  24.405   8.359
 1505POPC   C3A22385   1.368  24.168   8.010
 1505POPC   C4A22386   1.214  24.215   7.615
 1505POPC   C1B22387   1.045  24.730   8.714
 1505POPC   C2B22388   1.073  24.911   8.330
 1505POPC   C3B22389   1.134  24.730   7.945
 1505POPC   C4B22390   0.979  24.648   7.565
 1506POPC   NC322391  33.159   6.927   9.515
 1506POPC   PO422392  32.897   7.607   9.531
 1506POPC   GL122393  33.026   7.382   9.185
 1506POPC   GL222394  32.750   7.472   9.016
 1506POPC   C1A22395  33.199   7.527   8.768
 1506POPC   D2A22396  33.124   7.757   8.362
 1506POPC   C3A22397  33.204   7.424   8.057
 1506POPC   C4A22398  33.067   7.104   7.801
 1506POPC   C1B22399  32.713   7.778   8.735
 1506POPC   C2B22400  32.551   7.660   8.353
 1506POPC   C3B22401  32.741   7.639   7.969
 1506POPC   C4B22402  32.907   7.521   7.566
 1507POPC   NC322403   7.619  42.111   9.611
 1507POPC   PO422404   7.172  42.637   9.426
 1507POPC   GL122405   7.295  42.462   9.053
 1507POPC   GL222406   7.611  42.360   9.164
 1507POPC   C1A22407   7.300  42.179   8.733
 1507POPC   D2A22408   7.267  41.895   8.447
 1507POPC   C3A22409   7.400  42.064   8.044
 1507POPC   C4A22410   7.283  42.219   7.629
 1507POPC   C1B22411   7.794  42.357   8.758
 1507POPC   C2B22412   7.634  42.409   8.347
 1507POPC   C3B22413   7.661  42.517   7.911
 1507POPC   C4B22414   7.781  42.293   7.520
 1508POPC   NC322415  35.161  33.918   9.423
 1508POPC   PO422416  35.475  33.365   9.563
 1508POPC   GL122417  35.472  33.656   9.132
 1508POPC   GL222418  35.151  33.739   8.954
 1508POPC   C1A22419  35.569  33.938   8.756
 1508POPC   D2A22420  35.394  33.817   8.363
 1508POPC   C3A22421  35.374  33.940   7.942
 1508POPC   C4A22422  35.184  33.832   7.530
 1508POPC   C1B22423  35.065  34.109   8.703
 1508POPC   C2B22424  34.821  34.252   8.335
 1508POPC   C3B22425  34.741  34.094   7.909
 1508POPC   C4B22426  34.843  34.216   7.504
 1509POPC   NC322427  33.512  40.712   9.375
 1509POPC   PO422428  34.175  40.724   9.514
 1509POPC   GL122429  33.930  40.985   9.212
 1509POPC   GL222430  33.940  40.709   9.006
 1509POPC   C1A22431  33.661  41.062   8.793
 1509POPC   D2A22432  33.898  40.956   8.446
 1509POPC   C3A22433  33.707  40.737   8.151
 1509POPC   C4A22434  33.638  40.854   7.733
 1509POPC   C1B22435  33.904  40.460   8.628
 1509POPC   C2B22436  33.540  40.314   8.469
 1509POPC   C3B22437  33.409  40.349   8.067
 1509POPC   C4B22438  33.270  40.518   7.659
 1510POPC   NC322439  44.182  44.817   9.569
 1510POPC   PO422440  43.777  44.321   9.595
 1510POPC   GL122441  43.945  44.520   9.193
 1510POPC   GL222442  44.056  44.866   9.091
 1510POPC   C1A22443  43.944  44.402   8.741
 1510POPC   D2A22444  43.867  44.074   8.403
 1510POPC   C3A22445  43.959  44.284   8.037
 1510POPC   C4A22446  43.933  44.379   7.617
 1510POPC   C1B22447  44.035  44.920   8.678
 1510POPC   C2B22448  44.133  44.691   8.318
 1510POPC   C3B22449  43.984  44.808   7.910
 1510POPC   C4B22450  44.039  44.883   7.485
 1511POPC   NC322451  17.257  23.274   9.319
 1511POPC   PO422452  17.639  22.804   9.641
 1511POPC   GL122453  17.682  22.675   9.191
 1511POPC   GL222454  17.453  22.901   9.024
 1511POPC   C1A22455  17.785  22.631   8.729
 1511POPC   D2A22456  17.909  22.684   8.300
 1511POPC   C3A22457  17.796  23.043   8.065
 1511POPC   C4A22458  17.630  23.026   7.630
 1511POPC   C1B22459  17.217  23.127   8.696
 1511POPC   C2B22460  17.330  23.210   8.290
 1511POPC   C3B22461  17.173  23.145   7.908
 1511POPC   C4B22462  17.145  23.123   7.472
 1512POPC   NC322463  27.272  32.868   9.441
 1512POPC   PO422464  27.974  32.701   9.464
 1512POPC   GL122465  27.706  32.924   9.147
 1512POPC   GL222466  27.383  32.774   8.963
 1512POPC   C1A22467  27.846  33.142   8.777
 1512POPC   D2A22468  27.867  32.935   8.397
 1512POPC   C3A22469  27.874  33.191   8.041
 1512POPC   C4A22470  27.697  32.948   7.713
 1512POPC   C1B22471  27.330  33.168   8.805
 1512POPC   C2B22472  27.479  33.311   8.413
 1512POPC   C3B22473  27.368  33.232   7.968
 1512POPC   C4B22474  27.211  33.406   7.560
 1513POPC   NC322475  35.028   3.801   9.513
 1513POPC   PO422476  35.477   3.394   9.548
 1513POPC   GL122477  35.549   3.420   9.126
 1513POPC   GL222478  35.263   3.615   9.099
 1513POPC   C1A22479  35.586   3.503   8.684
 1513POPC   D2A22480  35.497   3.762   8.349
 1513POPC   C3A22481  35.658   3.636   7.948
 1513POPC   C4A22482  35.602   3.299   7.644
 1513POPC   C1B22483  35.068   3.644   8.729
 1513POPC   C2B22484  35.117   3.405   8.380
 1513POPC   C3B22485  35.142   3.577   8.000
 1513POPC   C4B22486  35.266   3.690   7.613
 1514POPC   NC322487  36.059   1.802   9.512
 1514POPC   PO422488  36.481   2.254   9.493
 1514POPC   GL122489  36.246   2.128   9.112
 1514POPC   GL222490  36.292   1.752   9.067
 1514POPC   C1A22491  35.953   2.318   8.777
 1514POPC   D2A22492  35.810   2.228   8.334
 1514POPC   C3A22493  35.982   2.174   7.951
 1514POPC   C4A22494  35.962   1.991   7.502
 1514POPC   C1B22495  36.111   1.856   8.672
 1514POPC   C2B22496  36.242   1.803   8.268
 1514POPC   C3B22497  36.213   1.749   7.858
 1514POPC   C4B22498  36.448   2.070   7.591
 1515POPC   NC322499  15.742  32.573   9.622
 1515POPC   PO422500  16.410  32.586   9.515
 1515POPC   GL122501  16.105  32.347   9.206
 1515POPC   GL222502  15.752  32.426   9.134
 1515POPC   C1A22503  15.978  32.051   8.819
 1515POPC   D2A22504  15.692  31.908   8.489
 1515POPC   C3A22505  15.725  32.155   8.145
 1515POPC   C4A22506  16.005  32.113   7.814
 1515POPC   C1B22507  15.586  32.368   8.731
 1515POPC   C2B22508  15.829  32.584   8.455
 1515POPC   C3B22509  15.765  32.675   8.046
 1515POPC   C4B22510  15.463  32.443   7.792
 1516POPC   NC322511  40.489   5.384   9.428
 1516POPC   PO422512  40.762   4.767   9.446
 1516POPC   GL122513  40.840   5.074   9.165
 1516POPC   GL222514  40.498   5.052   9.046
 1516POPC   C1A22515  40.980   5.079   8.758
 1516POPC   D2A22516  40.801   4.885   8.399
 1516POPC   C3A22517  40.982   4.971   8.008
 1516POPC   C4A22518  41.012   5.201   7.651
 1516POPC   C1B22519  40.538   5.339   8.697
 1516POPC   C2B22520  40.639   5.353   8.258
 1516POPC   C3B22521  40.545   5.218   7.849
 1516POPC   C4B22522  40.458   5.409   7.451
 1517POPC   NC322523  29.000  23.493   9.467
 1517POPC   PO422524  28.953  24.191   9.362
 1517POPC   GL122525  29.113  23.813   9.106
 1517POPC   GL222526  28.878  23.493   8.976
 1517POPC   C1A22527  29.313  23.617   8.757
 1517POPC   D2A22528  29.094  23.387   8.425
 1517POPC   C3A22529  29.273  23.483   7.990
 1517POPC   C4A22530  29.226  23.639   7.546
 1517POPC   C1B22531  28.659  23.860   8.813
 1517POPC   C2B22532  28.606  24.054   8.401
 1517POPC   C3B22533  28.699  23.798   8.028
 1517POPC   C4B22534  28.760  23.920   7.621
 1518POPC   NC322535  39.408  40.935   9.543
 1518POPC   PO422536  38.941  40.414   9.513
 1518POPC   GL122537  39.086  40.674   9.192
 1518POPC   GL222538  39.426  40.602   9.146
 1518POPC   C1A22539  39.123  40.733   8.755
 1518POPC   D2A22540  38.977  40.896   8.397
 1518POPC   C3A22541  39.189  40.766   8.047
 1518POPC   C4A22542  39.090  40.580   7.701
 1518POPC   C1B22543  39.628  40.645   8.780
 1518POPC   C2B22544  39.566  40.868   8.404
 1518POPC   C3B22545  39.687  40.895   8.001
 1518POPC   C4B22546  39.500  40.871   7.608
 1519POPC   NC322547  42.173  41.185   9.500
 1519POPC   PO422548  42.076  41.831   9.511
 1519POPC   GL122549  42.203  41.589   9.159
 1519POPC   GL222550  42.489  41.359   9.152
 1519POPC   C1A22551  42.327  41.600   8.735
 1519POPC   D2A22552  42.314  41.802   8.360
 1519POPC   C3A22553  42.375  41.615   7.943
 1519POPC   C4A22554  42.098  41.766   7.633
 1519POPC   C1B22555  42.580  41.157   8.765
 1519POPC   C2B22556  42.507  41.304   8.343
 1519POPC   C3B22557  42.483  41.117   7.936
 1519POPC   C4B22558  42.724  41.230   7.588
 1520POPC   NC322559  11.660  27.527   9.532
 1520POPC   PO422560  12.311  27.364   9.390
 1520POPC   GL122561  12.092  27.508   9.091
 1520POPC   GL222562  11.911  27.755   9.144
 1520POPC   C1A22563  12.286  27.637   8.732
 1520POPC   D2A22564  12.604  27.614   8.390
 1520POPC   C3A22565  12.429  27.399   8.034
 1520POPC   C4A22566  12.165  27.563   7.755
 1520POPC   C1B22567  11.778  27.711   8.703
 1520POPC   C2B22568  11.939  27.669   8.285
 1520POPC   C3B22569  11.732  27.795   7.895
 1520POPC   C4B22570  11.832  27.786   7.441
 1521POPC   NC322571  18.313   1.336   9.540
 1521POPC   PO422572  18.759   1.823   9.367
 1521POPC   GL122573  18.543   1.474   9.118
 1521POPC   GL222574  18.510   1.081   9.137
 1521POPC   C1A22575  18.294   1.400   8.751
 1521POPC   D2A22576  18.082   1.464   8.354
 1521POPC   C3A22577  18.246   1.173   8.055
 1521POPC   C4A22578  18.393   1.201   7.630
 1521POPC   C1B22579  18.202   0.868   8.837
 1521POPC   C2B22580  17.913   1.001   8.487
 1521POPC   C3B22581  17.739   1.115   8.084
 1521POPC   C4B22582  17.861   0.953   7.662
 1522POPC   NC322583  28.268  40.295   9.427
 1522POPC   PO422584  28.710  39.785   9.424
 1522POPC   GL122585  28.620  40.007   9.080
 1522POPC   GL222586  28.669  40.352   9.070
 1522POPC   C1A22587  28.436  39.849   8.707
 1522POPC   D2A22588  28.212  40.052   8.391
 1522POPC   C3A22589  28.177  39.781   8.064
 1522POPC   C4A22590  28.487  39.697   7.739
 1522POPC   C1B22591  28.652  40.299   8.656
 1522POPC   C2B22592  28.778  40.090   8.324
 1522POPC   C3B22593  28.579  40.169   7.966
 1522POPC   C4B22594  28.270  40.443   7.870
 1523POPC   NC322595  18.497  13.527   9.598
 1523POPC   PO422596  17.978  13.118   9.429
 1523POPC   GL122597  18.289  13.358   9.094
 1523POPC   GL222598  18.438  13.664   9.115
 1523POPC   C1A22599  18.256  13.421   8.706
 1523POPC   D2A22600  18.391  13.542   8.382
 1523POPC   C3A22601  18.057  13.485   8.114
 1523POPC   C4A22602  18.244  13.706   7.847
 1523POPC   C1B22603  18.473  13.914   8.703
 1523POPC   C2B22604  18.515  14.031   8.236
 1523POPC   C3B22605  18.312  14.206   7.851
 1523POPC   C4B22606  18.032  14.010   7.503
 1524POPC   NC322607  42.576   1.533   9.904
 1524POPC   PO422608  42.198   2.044   9.547
 1524POPC   GL122609  42.357   2.120   9.139
 1524POPC   GL222610  42.282   1.814   9.048
 1524POPC   C1A22611  42.194   2.186   8.731
 1524POPC   D2A22612  41.946   2.034   8.419
 1524POPC   C3A22613  42.253   2.026   8.099
 1524POPC   C4A22614  42.678   2.090   7.892
 1524POPC   C1B22615  42.220   1.599   8.646
 1524POPC   C2B22616  42.144   1.530   8.239
 1524POPC   C3B22617  42.283   1.496   7.869
 1524POPC   C4B22618  42.317   1.852   7.622
 1525POPC   NC322619  20.173  35.573   9.454
 1525POPC   PO422620  19.995  34.943   9.460
 1525POPC   GL122621  20.025  35.191   9.102
 1525POPC   GL222622  19.693  35.339   9.077
 1525POPC   C1A22623  20.056  35.541   8.795
 1525POPC   D2A22624  19.780  35.603   8.446
 1525POPC   C3A22625  19.888  35.315   8.136
 1525POPC   C4A22626  19.989  35.231   7.715
 1525POPC   C1B22627  19.637  35.158   8.653
 1525POPC   C2B22628  19.386  35.240   8.263
 1525POPC   C3B22629  19.470  35.290   7.818
 1525POPC   C4B22630  19.579  35.282   7.367
 1526POPC   NC322631  27.505  24.301   9.485
 1526POPC   PO422632  27.656  25.020   9.505
 1526POPC   GL122633  27.578  24.795   9.097
 1526POPC   GL222634  27.654  24.459   9.049
 1526POPC   C1A22635  27.444  24.676   8.655
 1526POPC   D2A22636  27.648  24.697   8.265
 1526POPC   C3A22637  27.469  24.626   7.840
 1526POPC   C4A22638  27.844  24.691   7.631
 1526POPC   C1B22639  27.704  24.195   8.701
 1526POPC   C2B22640  27.583  24.205   8.322
 1526POPC   C3B22641  27.812  24.282   7.982
 1526POPC   C4B22642  27.734  24.212   7.634
 1527POPC   NC322643  15.685  20.391   9.552
 1527POPC   PO422644  15.762  20.964   9.847
 1527POPC   GL122645  15.875  20.865   9.343
 1527POPC   GL222646  15.632  20.748   9.091
 1527POPC   C1A22647  16.072  20.934   8.891
 1527POPC   D2A22648  16.209  20.884   8.446
 1527POPC   C3A22649  15.875  20.787   8.133
 1527POPC   C4A22650  15.848  20.793   7.675
 1527POPC   C1B22651  15.735  20.628   8.638
 1527POPC   C2B22652  15.543  20.394   8.283
 1527POPC   C3B22653  15.750  20.317   7.867
 1527POPC   C4B22654  15.969  20.316   7.454
 1528POPC   NC322655  38.053  27.837   9.447
 1528POPC   PO422656  38.686  27.673   9.568
 1528POPC   GL122657  38.434  27.569   9.207
 1528POPC   GL222658  38.640  27.299   9.153
 1528POPC   C1A22659  38.307  27.745   8.790
 1528POPC   D2A22660  38.459  27.839   8.370
 1528POPC   C3A22661  38.260  27.768   7.996
 1528POPC   C4A22662  38.234  27.834   7.581
 1528POPC   C1B22663  38.731  27.433   8.764
 1528POPC   C2B22664  38.802  27.418   8.360
 1528POPC   C3B22665  38.696  27.188   8.013
 1528POPC   C4B22666  38.435  27.349   7.701
 1529POPC   NC322667   3.219  36.504   9.440
 1529POPC   PO422668   2.799  35.941   9.546
 1529POPC   GL122669   2.784  35.968   9.157
 1529POPC   GL222670   3.134  35.997   9.084
 1529POPC   C1A22671   2.568  35.957   8.803
 1529POPC   D2A22672   2.568  36.181   8.443
 1529POPC   C3A22673   2.755  35.933   8.118
 1529POPC   C4A22674   2.630  36.020   7.698
 1529POPC   C1B22675   2.980  36.318   8.796
 1529POPC   C2B22676   3.017  36.413   8.352
 1529POPC   C3B22677   2.886  36.382   7.932
 1529POPC   C4B22678   2.898  36.393   7.464
 1530POPC   NC322679   0.085  17.980   9.351
 1530POPC   PO422680   0.627  18.421   9.557
 1530POPC   GL122681   0.518  18.219   9.221
 1530POPC   GL222682   0.646  17.865   9.341
 1530POPC   C1A22683   0.311  18.363   8.848
 1530POPC   D2A22684   0.100  18.524   8.453
 1530POPC   C3A22685   0.424  18.495   8.197
 1530POPC   C4A22686   0.446  18.335   7.790
 1530POPC   C1B22687   0.782  17.917   8.906
 1530POPC   C2B22688   0.645  18.146   8.530
 1530POPC   C3B22689   0.780  18.132   8.127
 1530POPC   C4B22690   0.863  18.027   7.729
 1531POPC   NC322691  23.164   2.672   9.542
 1531POPC   PO422692  22.583   3.008   9.413
 1531POPC   GL122693  22.984   2.927   9.126
 1531POPC   GL222694  23.069   2.577   9.058
 1531POPC   C1A22695  22.990   2.960   8.684
 1531POPC   D2A22696  22.626   2.739   8.538
 1531POPC   C3A22697  22.553   2.709   8.101
 1531POPC   C4A22698  22.726   2.567   7.733
 1531POPC   C1B22699  23.107   2.468   8.633
 1531POPC   C2B22700  23.096   2.581   8.200
 1531POPC   C3B22701  23.235   2.633   7.780
 1531POPC   C4B22702  23.121   2.376   7.430
 1532POPC   NC322703  23.302  32.442   9.317
 1532POPC   PO422704  23.887  32.234   9.556
 1532POPC   GL122705  23.677  32.131   9.179
 1532POPC   GL222706  23.777  32.474   9.078
 1532POPC   C1A22707  23.474  32.200   8.761
 1532POPC   D2A22708  23.603  32.380   8.410
 1532POPC   C3A22709  23.474  32.169   8.043
 1532POPC   C4A22710  23.461  32.340   7.641
 1532POPC   C1B22711  23.989  32.643   8.694
 1532POPC   C2B22712  24.034  32.612   8.248
 1532POPC   C3B22713  23.912  32.357   7.900
 1532POPC   C4B22714  23.917  32.436   7.456
 1533POPC   NC322715  17.606  21.597   9.486
 1533POPC   PO422716  17.262  21.010   9.325
 1533POPC   GL122717  17.569  21.246   9.097
 1533POPC   GL222718  17.378  21.520   9.014
 1533POPC   C1A22719  17.714  21.253   8.662
 1533POPC   D2A22720  17.529  21.393   8.292
 1533POPC   C3A22721  17.612  21.120   7.944
 1533POPC   C4A22722  17.500  21.202   7.534
 1533POPC   C1B22723  17.794  21.691   8.882
 1533POPC   C2B22724  17.937  21.711   8.477
 1533POPC   C3B22725  17.782  21.789   8.102
 1533POPC   C4B22726  17.446  21.641   7.831
 1534POPC   NC322727   4.214  27.325   9.687
 1534POPC   PO422728   3.787  27.864   9.481
 1534POPC   GL122729   4.156  27.732   9.205
 1534POPC   GL222730   4.511  27.792   9.266
 1534POPC   C1A22731   4.315  27.942   8.808
 1534POPC   D2A22732   4.139  27.856   8.447
 1534POPC   C3A22733   4.313  27.823   8.056
 1534POPC   C4A22734   4.145  27.549   7.756
 1534POPC   C1B22735   4.522  27.498   8.873
 1534POPC   C2B22736   4.598  27.535   8.393
 1534POPC   C3B22737   4.597  27.366   7.933
 1534POPC   C4B22738   4.628  27.357   7.437
 1535POPC   NC322739  11.117  31.339   9.613
 1535POPC   PO422740  11.736  31.365   9.346
 1535POPC   GL122741  11.372  31.305   9.078
 1535POPC   GL222742  10.995  31.281   9.137
 1535POPC   C1A22743  11.388  31.410   8.636
 1535POPC   D2A22744  11.428  31.713   8.270
 1535POPC   C3A22745  11.572  31.472   7.894
 1535POPC   C4A22746  11.301  31.123   7.767
 1535POPC   C1B22747  10.915  31.547   8.777
 1535POPC   C2B22748  10.975  31.427   8.345
 1535POPC   C3B22749  11.053  31.560   7.938
 1535POPC   C4B22750  10.836  31.756   7.621
 1536POPC   NC322751  29.048  27.290   9.410
 1536POPC   PO422752  29.409  26.671   9.438
 1536POPC   GL122753  29.066  26.809   9.202
 1536POPC   GL222754  29.309  27.055   9.041
 1536POPC   C1A22755  28.892  26.870   8.792
 1536POPC   D2A22756  29.200  26.956   8.468
 1536POPC   C3A22757  29.047  26.783   8.096
 1536POPC   C4A22758  29.061  26.853   7.661
 1536POPC   C1B22759  29.516  27.302   8.727
 1536POPC   C2B22760  29.655  27.288   8.315
 1536POPC   C3B22761  29.370  27.161   7.991
 1536POPC   C4B22762  29.363  27.259   7.560
 1537POPC   NC322763   0.096  22.502   9.464
 1537POPC   PO422764  44.510  22.149   9.598
 1537POPC   GL122765  44.755  22.191   9.207
 1537POPC   GL222766  44.464  22.349   9.108
 1537POPC   C1A22767  44.968  22.369   8.826
 1537POPC   D2A22768  44.902  22.523   8.390
 1537POPC   C3A22769  44.997  22.249   8.022
 1537POPC   C4A22770  44.986  21.967   7.679
 1537POPC   C1B22771  44.488  22.363   8.684
 1537POPC   C2B22772  44.438  22.172   8.303
 1537POPC   C3B22773  44.483  22.228   7.867
 1537POPC   C4B22774  44.410  22.073   7.461
 1538POPC   NC322775  30.094   9.318   9.432
 1538POPC   PO422776  29.715   8.755   9.422
 1538POPC   GL122777  29.854   8.962   9.096
 1538POPC   GL222778  30.195   8.923   9.071
 1538POPC   C1A22779  29.744   9.093   8.692
 1538POPC   D2A22780  29.630   8.943   8.314
 1538POPC   C3A22781  29.660   9.241   7.983
 1538POPC   C4A22782  29.644   9.014   7.568
 1538POPC   C1B22783  30.273   9.157   8.700
 1538POPC   C2B22784  30.091   9.184   8.282
 1538POPC   C3B22785  30.069   8.976   7.871
 1538POPC   C4B22786  30.129   8.800   7.460
 1539POPC   NC322787  12.550  35.223   9.576
 1539POPC   PO422788  13.192  35.294   9.637
 1539POPC   GL122789  12.978  35.092   9.222
 1539POPC   GL222790  12.601  35.066   9.101
 1539POPC   C1A22791  13.067  35.129   8.763
 1539POPC   D2A22792  13.071  35.465   8.476
 1539POPC   C3A22793  13.074  35.426   8.053
 1539POPC   C4A22794  13.126  35.017   7.876
 1539POPC   C1B22795  12.561  35.209   8.682
 1539POPC   C2B22796  12.752  35.076   8.297
 1539POPC   C3B22797  12.649  35.179   7.885
 1539POPC   C4B22798  12.414  35.512   7.758
 1540POPC   NC322799   0.141  20.984   9.562
 1540POPC   PO422800   0.644  21.468   9.654
 1540POPC   GL122801   0.373  21.367   9.262
 1540POPC   GL222802   0.016  21.271   9.159
 1540POPC   C1A22803   0.437  21.327   8.798
 1540POPC   D2A22804   0.636  21.150   8.419
 1540POPC   C3A22805   0.753  21.419   8.047
 1540POPC   C4A22806   0.721  21.420   7.596
 1540POPC   C1B22807  44.973  21.553   8.798
 1540POPC   C2B22808   0.146  21.544   8.377
 1540POPC   C3B22809   0.223  21.354   7.972
 1540POPC   C4B22810   0.225  21.529   7.582
 1541POPC   NC322811  29.819   2.809   9.611
 1541POPC   PO422812  29.062   2.844   9.545
 1541POPC   GL122813  29.040   2.840   9.071
 1541POPC   GL222814  29.271   3.061   8.914
 1541POPC   C1A22815  29.069   2.734   8.605
 1541POPC   D2A22816  29.413   2.612   8.370
 1541POPC   C3A22817  29.323   2.774   7.979
 1541POPC   C4A22818  29.004   2.627   7.695
 1541POPC   C1B22819  28.876   3.182   8.658
 1541POPC   C2B22820  28.876   3.046   8.186
 1541POPC   C3B22821  29.025   3.122   7.733
 1541POPC   C4B22822  28.934   3.344   7.343
 1542POPC   NC322823  10.840  12.307   9.335
 1542POPC   PO422824  11.429  12.297   9.553
 1542POPC   GL122825  11.435  12.027   9.165
 1542POPC   GL222826  11.109  11.916   9.109
 1542POPC   C1A22827  11.478  12.216   8.800
 1542POPC   D2A22828  11.197  12.337   8.537
 1542POPC   C3A22829  11.367  12.428   8.154
 1542POPC   C4A22830  11.485  12.228   7.763
 1542POPC   C1B22831  10.872  11.899   8.731
 1542POPC   C2B22832  11.025  11.898   8.315
 1542POPC   C3B22833  11.031  12.074   7.900
 1542POPC   C4B22834  10.834  11.870   7.549
 1543POPC   NC322835  24.181  38.284   9.448
 1543POPC   PO422836  24.887  38.406   9.452
 1543POPC   GL122837  24.621  38.440   9.111
 1543POPC   GL222838  24.756  38.770   8.965
 1543POPC   C1A22839  24.620  38.238   8.733
 1543POPC   D2A22840  24.878  38.239   8.372
 1543POPC   C3A22841  24.657  38.247   7.998
 1543POPC   C4A22842  24.494  38.025   7.674
 1543POPC   C1B22843  24.422  38.728   8.709
 1543POPC   C2B22844  24.212  38.438   8.425
 1543POPC   C3B22845  24.255  38.587   8.010
 1543POPC   C4B22846  24.621  38.795   7.852
 1544POPC   NC322847  44.903  29.618   9.237
 1544POPC   PO422848  44.425  30.100   9.482
 1544POPC   GL122849  44.482  29.938   9.086
 1544POPC   GL222850  44.811  30.013   8.972
 1544POPC   C1A22851  44.527  29.660   8.717
 1544POPC   D2A22852  44.819  29.524   8.371
 1544POPC   C3A22853  44.639  29.631   7.979
 1544POPC   C4A22854  44.407  29.662   7.598
 1544POPC   C1B22855  44.647  30.164   8.622
 1544POPC   C2B22856  44.976  30.170   8.322
 1544POPC   C3B22857   0.012  29.988   7.931
 1544POPC   C4B22858  44.638  30.093   7.738
 1545POPC   NC322859  33.989  10.263   9.301
 1545POPC   PO422860  33.615  10.781   9.515
 1545POPC   GL122861  33.820  10.734   9.116
 1545POPC   GL222862  34.163  10.702   9.110
 1545POPC   C1A22863  33.785  10.605   8.685
 1545POPC   D2A22864  33.766  10.377   8.282
 1545POPC   C3A22865  33.725  10.617   7.871
 1545POPC   C4A22866  33.595  10.368   7.497
 1545POPC   C1B22867  34.289  10.722   8.668
 1545POPC   C2B22868  34.187  10.670   8.226
 1545POPC   C3B22869  34.129  10.329   7.882
 1545POPC   C4B22870  34.077  10.497   7.404
 1546POPC   NC322871  20.460  20.003   9.467
 1546POPC   PO422872  21.135  19.891   9.491
 1546POPC   GL122873  20.860  20.013   9.145
 1546POPC   GL222874  20.783  20.364   9.163
 1546POPC   C1A22875  20.745  19.938   8.703
 1546POPC   D2A22876  20.696  20.088   8.276
 1546POPC   C3A22877  20.707  19.862   7.900
 1546POPC   C4A22878  20.985  19.792   7.565
 1546POPC   C1B22879  20.412  20.290   8.873
 1546POPC   C2B22880  20.212  20.189   8.448
 1546POPC   C3B22881  20.297  20.270   7.984
 1546POPC   C4B22882  20.184  20.432   7.551
 1547POPC   NC322883  11.849  12.136   9.417
 1547POPC   PO422884  12.363  12.547   9.301
 1547POPC   GL122885  12.091  12.346   9.026
 1547POPC   GL222886  12.129  11.955   9.004
 1547POPC   C1A22887  11.983  12.286   8.625
 1547POPC   D2A22888  12.160  11.962   8.417
 1547POPC   C3A22889  12.123  12.132   8.030
 1547POPC   C4A22890  12.194  11.917   7.663
 1547POPC   C1B22891  11.774  11.814   8.728
 1547POPC   C2B22892  11.642  11.984   8.311
 1547POPC   C3B22893  11.745  11.828   7.886
 1547POPC   C4B22894  11.756  11.932   7.400
 1548POPC   NC322895  28.450   2.902   9.647
 1548POPC   PO422896  28.003   3.023   9.210
 1548POPC   GL122897  28.429   2.895   9.113
 1548POPC   GL222898  28.611   2.588   9.250
 1548POPC   C1A22899  28.398   3.006   8.654
 1548POPC   D2A22900  28.035   2.907   8.350
 1548POPC   C3A22901  28.190   2.746   7.951
 1548POPC   C4A22902  28.549   2.938   7.800
 1548POPC   C1B22903  28.501   2.520   8.797
 1548POPC   C2B22904  28.587   2.647   8.359
 1548POPC   C3B22905  28.622   2.439   7.986
 1548POPC   C4B22906  28.536   2.475   7.583
 1549POPC   NC322907  14.505  30.705   9.563
 1549POPC   PO422908  13.908  30.931   9.673
 1549POPC   GL122909  14.159  30.675   9.211
 1549POPC   GL222910  14.543  30.822   9.088
 1549POPC   C1A22911  14.223  30.800   8.713
 1549POPC   D2A22912  14.265  31.019   8.330
 1549POPC   C3A22913  14.131  30.751   7.987
 1549POPC   C4A22914  14.110  30.847   7.577
 1549POPC   C1B22915  14.723  30.662   8.698
 1549POPC   C2B22916  14.547  30.594   8.279
 1549POPC   C3B22917  14.614  30.885   7.916
 1549POPC   C4B22918  14.614  30.889   7.447
 1550POPC   NC322919  33.639   7.735   9.428
 1550POPC   PO422920  33.598   7.080   9.497
 1550POPC   GL122921  33.905   7.269   9.240
 1550POPC   GL222922  34.032   7.012   9.040
 1550POPC   C1A22923  33.839   7.433   8.819
 1550POPC   D2A22924  33.936   7.271   8.409
 1550POPC   C3A22925  33.705   7.544   8.180
 1550POPC   C4A22926  33.723   7.612   7.777
 1550POPC   C1B22927  33.684   6.926   8.722
 1550POPC   C2B22928  33.498   7.030   8.283
 1550POPC   C3B22929  33.572   7.128   7.837
 1550POPC   C4B22930  33.817   6.971   7.502
 1551POPC   NC322931  42.084   2.507   9.355
 1551POPC   PO422932  42.453   3.010   9.594
 1551POPC   GL122933  42.448   2.870   9.163
 1551POPC   GL222934  42.645   2.557   9.219
 1551POPC   C1A22935  42.326   2.683   8.724
 1551POPC   D2A22936  42.061   2.530   8.343
 1551POPC   C3A22937  42.094   2.780   7.967
 1551POPC   C4A22938  42.275   3.005   7.617
 1551POPC   C1B22939  42.744   2.310   8.837
 1551POPC   C2B22940  42.632   2.214   8.416
 1551POPC   C3B22941  42.521   2.522   8.120
 1551POPC   C4B22942  42.501   2.540   7.690
 1552POPC   NC322943  34.233  30.713   9.313
 1552POPC   PO422944  33.574  30.649   9.526
 1552POPC   GL122945  33.764  30.681   9.108
 1552POPC   GL222946  33.951  30.375   9.018
 1552POPC   C1A22947  33.987  30.789   8.710
 1552POPC   D2A22948  34.036  30.589   8.331
 1552POPC   C3A22949  34.061  30.912   8.115
 1552POPC   C4A22950  33.744  30.849   7.876
 1552POPC   C1B22951  33.626  30.416   8.653
 1552POPC   C2B22952  33.571  30.448   8.177
 1552POPC   C3B22953  33.625  30.336   7.736
 1552POPC   C4B22954  33.531  30.279   7.294
 1553POPC   NC322955  20.076  40.564   9.230
 1553POPC   PO422956  20.017  41.163   9.462
 1553POPC   GL122957  19.956  41.185   9.023
 1553POPC   GL222958  20.266  41.029   8.999
 1553POPC   C1A22959  19.932  41.091   8.566
 1553POPC   D2A22960  20.166  40.910   8.182
 1553POPC   C3A22961  19.979  40.955   7.788
 1553POPC   C4A22962  19.618  40.751   7.604
 1553POPC   C1B22963  20.303  40.758   8.640
 1553POPC   C2B22964  20.168  40.393   8.418
 1553POPC   C3B22965  20.083  40.255   8.004
 1553POPC   C4B22966  20.248  40.531   7.746
 1554POPC   NC322967  30.643  26.605   9.405
 1554POPC   PO422968  30.254  27.205   9.418
 1554POPC   GL122969  30.597  27.131   9.100
 1554POPC   GL222970  30.903  26.932   9.138
 1554POPC   C1A22971  30.684  27.014   8.700
 1554POPC   D2A22972  30.406  27.002   8.412
 1554POPC   C3A22973  30.596  26.968   8.053
 1554POPC   C4A22974  31.016  27.060   7.936
 1554POPC   C1B22975  30.870  26.555   8.818
 1554POPC   C2B22976  30.633  26.538   8.423
 1554POPC   C3B22977  30.888  26.548   8.035
 1554POPC   C4B22978  30.750  26.683   7.666
 1555POPC   NC322979  19.230  30.830   9.505
 1555POPC   PO422980  18.603  30.564   9.391
 1555POPC   GL122981  18.927  30.733   9.101
 1555POPC   GL222982  19.231  30.517   9.084
 1555POPC   C1A22983  18.997  30.761   8.649
 1555POPC   D2A22984  18.778  30.726   8.253
 1555POPC   C3A22985  19.003  30.781   7.870
 1555POPC   C4A22986  18.877  30.557   7.521
 1555POPC   C1B22987  19.318  30.353   8.659
 1555POPC   C2B22988  19.299  30.542   8.237
 1555POPC   C3B22989  19.194  30.311   7.849
 1555POPC   C4B22990  19.302  30.140   7.441
 1556POPC   NC322991   3.722   9.111   9.503
 1556POPC   PO422992   3.222   8.755   9.711
 1556POPC   GL122993   3.360   8.970   9.187
 1556POPC   GL222994   3.143   9.105   9.018
 1556POPC   C1A22995   3.591   9.255   8.857
 1556POPC   D2A22996   3.734   9.457   8.476
 1556POPC   C3A22997   3.682   9.259   8.061
 1556POPC   C4A22998   3.939   9.104   7.693
 1556POPC   C1B22999   3.276   8.895   8.640
 1556POPC   C2B23000   3.190   8.892   8.177
 1556POPC   C3B23001   3.439   8.881   7.770
 1556POPC   C4B23002   3.509   9.158   7.396
 1557POPC   NC323003  43.408  13.784   9.430
 1557POPC   PO423004  42.901  13.362   9.239
 1557POPC   GL123005  43.153  13.615   9.003
 1557POPC   GL223006  43.486  13.479   9.020
 1557POPC   C1A23007  43.172  13.565   8.569
 1557POPC   D2A23008  43.359  13.244   8.323
 1557POPC   C3A23009  43.405  13.459   7.979
 1557POPC   C4A23010  43.010  13.684   7.891
 1557POPC   C1B23011  43.689  13.609   8.643
 1557POPC   C2B23012  43.653  13.904   8.288
 1557POPC   C3B23013  43.378  14.005   7.934
 1557POPC   C4B23014  43.274  13.867   7.474
 1558POPC   NC323015  21.577  21.056   9.419
 1558POPC   PO423016  21.367  21.716   9.380
 1558POPC   GL123017  21.364  21.409   9.069
 1558POPC   GL223018  21.218  21.060   9.080
 1558POPC   C1A23019  21.105  21.306   8.678
 1558POPC   D2A23020  21.095  21.395   8.290
 1558POPC   C3A23021  21.371  21.226   8.027
 1558POPC   C4A23022  21.131  21.427   7.725
 1558POPC   C1B23023  21.582  21.133   8.735
 1558POPC   C2B23024  21.795  21.039   8.302
 1558POPC   C3B23025  21.751  20.918   7.882
 1558POPC   C4B23026  21.421  21.025   7.570
 1559POPC   NC323027  12.136  44.284   9.468
 1559POPC   PO423028  11.903  44.886   9.516
 1559POPC   GL123029  12.019  44.670   9.165
 1559POPC   GL223030  11.762  44.413   9.144
 1559POPC   C1A23031  12.264  44.686   8.788
 1559POPC   D2A23032  12.261  44.879   8.383
 1559POPC   C3A23033  12.094  44.654   8.042
 1559POPC   C4A23034  11.806  44.688   7.709
 1559POPC   C1B23035  11.899  44.284   8.754
 1559POPC   C2B23036  11.753  44.375   8.346
 1559POPC   C3B23037  11.819  44.218   7.931
 1559POPC   C4B23038  12.169  44.338   7.631
 1560POPC   NC323039  26.448  31.069   9.386
 1560POPC   PO423040  26.945  31.486   9.458
 1560POPC   GL123041  26.874  31.290   9.095
 1560POPC   GL223042  27.119  31.047   9.066
 1560POPC   C1A23043  26.699  31.469   8.716
 1560POPC   D2A23044  26.724  31.824   8.433
 1560POPC   C3A23045  26.691  31.654   8.011
 1560POPC   C4A23046  26.754  31.522   7.595
 1560POPC   C1B23047  26.990  31.059   8.646
 1560POPC   C2B23048  26.712  31.080   8.304
 1560POPC   C3B23049  26.870  31.106   7.877
 1560POPC   C4B23050  27.054  31.135   7.429
 1561POPC   NC323051   8.389  39.108   9.622
 1561POPC   PO423052   7.871  39.006   9.250
 1561POPC   GL123053   8.130  38.899   9.007
 1561POPC   GL223054   8.468  38.918   9.166
 1561POPC   C1A23055   8.091  39.011   8.590
 1561POPC   D2A23056   7.976  39.412   8.408
 1561POPC   C3A23057   7.834  39.327   7.988
 1561POPC   C4A23058   8.026  39.217   7.549
 1561POPC   C1B23059   8.461  39.267   8.912
 1561POPC   C2B23060   8.532  39.264   8.504
 1561POPC   C3B23061   8.327  39.169   8.120
 1561POPC   C4B23062   8.435  39.012   7.754
 1562POPC   NC323063  31.264  42.368   9.704
 1562POPC   PO423064  31.868  42.106   9.466
 1562POPC   GL123065  31.664  42.196   9.077
 1562POPC   GL223066  31.411  42.370   9.196
 1562POPC   C1A23067  31.753  42.287   8.661
 1562POPC   D2A23068  31.710  42.420   8.252
 1562POPC   C3A23069  31.719  42.111   7.950
 1562POPC   C4A23070  31.429  42.168   7.612
 1562POPC   C1B23071  31.272  42.403   8.776
 1562POPC   C2B23072  31.209  42.601   8.401
 1562POPC   C3B23073  31.276  42.513   7.976
 1562POPC   C4B23074  31.250  42.656   7.542
 1563POPC   NC323075  12.968  37.889   9.550
 1563POPC   PO423076  12.617  37.310   9.563
 1563POPC   GL123077  12.674  37.636   9.207
 1563POPC   GL223078  12.995  37.806   9.046
 1563POPC   C1A23079  12.575  37.673   8.783
 1563POPC   D2A23080  12.441  37.519   8.406
 1563POPC   C3A23081  12.702  37.658   8.103
 1563POPC   C4A23082  12.629  37.525   7.701
 1563POPC   C1B23083  12.985  37.378   8.837
 1563POPC   C2B23084  12.992  37.291   8.379
 1563POPC   C3B23085  13.082  37.357   7.921
 1563POPC   C4B23086  13.082  37.430   7.452
 1564POPC   NC323087  25.819  27.248   9.491
 1564POPC   PO423088  26.175  27.789   9.784
 1564POPC   GL123089  26.113  27.717   9.266
 1564POPC   GL223090  26.028  27.442   9.098
 1564POPC   C1A23091  26.164  27.774   8.745
 1564POPC   D2A23092  26.325  27.763   8.303
 1564POPC   C3A23093  25.981  27.897   8.025
 1564POPC   C4A23094  25.890  27.730   7.628
 1564POPC   C1B23095  25.862  27.338   8.747
 1564POPC   C2B23096  25.860  27.529   8.377
 1564POPC   C3B23097  25.941  27.375   8.005
 1564POPC   C4B23098  25.972  27.166   7.628
 1565POPC   NC323099   0.672  12.552   9.500
 1565POPC   PO423100   0.301  13.078   9.642
 1565POPC   GL123101   0.237  12.854   9.241
 1565POPC   GL223102   0.005  13.027   9.015
 1565POPC   C1A23103   0.380  12.773   8.811
 1565POPC   D2A23104   0.647  12.783   8.467
 1565POPC   C3A23105   0.493  12.569   8.124
 1565POPC   C4A23106   0.457  12.745   7.734
 1565POPC   C1B23107   0.130  13.249   8.610
 1565POPC   C2B23108   0.272  13.053   8.177
 1565POPC   C3B23109   0.258  13.205   7.704
 1565POPC   C4B23110   0.009  13.320   7.298
 1566POPC   NC323111  37.311  14.057   9.344
 1566POPC   PO423112  37.517  14.596   9.683
 1566POPC   GL123113  37.576  14.654   9.238
 1566POPC   GL223114  37.682  14.353   9.134
 1566POPC   C1A23115  37.584  14.655   8.743
 1566POPC   D2A23116  37.632  14.458   8.341
 1566POPC   C3A23117  37.582  14.681   7.948
 1566POPC   C4A23118  37.488  14.477   7.530
 1566POPC   C1B23119  37.913  14.271   8.743
 1566POPC   C2B23120  38.122  14.227   8.375
 1566POPC   C3B23121  37.991  14.351   7.989
 1566POPC   C4B23122  37.938  14.181   7.576
 1567POPC   NC323123   8.361  42.829   9.386
 1567POPC   PO423124   8.023  42.317   9.539
 1567POPC   GL123125   8.121  42.458   9.140
 1567POPC   GL223126   7.923  42.783   9.084
 1567POPC   C1A23127   8.333  42.220   8.804
 1567POPC   D2A23128   8.561  42.074   8.413
 1567POPC   C3A23129   8.622  42.342   8.059
 1567POPC   C4A23130   8.533  42.129   7.658
 1567POPC   C1B23131   8.209  42.717   8.714
 1567POPC   C2B23132   8.168  42.418   8.367
 1567POPC   C3B23133   8.129  42.339   7.939
 1567POPC   C4B23134   8.070  42.677   7.658
 1568POPC   NC323135   3.017  31.205   9.685
 1568POPC   PO423136   2.749  31.797   9.544
 1568POPC   GL123137   2.640  31.404   9.331
 1568POPC   GL223138   2.969  31.362   9.195
 1568POPC   C1A23139   2.587  31.321   8.867
 1568POPC   D2A23140   2.626  31.547   8.449
 1568POPC   C3A23141   2.592  31.364   8.004
 1568POPC   C4A23142   2.722  31.579   7.598
 1568POPC   C1B23143   3.179  31.284   8.796
 1568POPC   C2B23144   3.152  31.423   8.365
 1568POPC   C3B23145   3.114  31.386   7.919
 1568POPC   C4B23146   2.897  31.101   7.629
 1569POPC   NC323147   2.092  22.809   9.467
 1569POPC   PO423148   1.871  23.284   9.066
 1569POPC   GL123149   1.883  22.885   8.966
 1569POPC   GL223150   2.236  22.752   8.992
 1569POPC   C1A23151   1.670  22.827   8.567
 1569POPC   D2A23152   1.830  22.656   8.201
 1569POPC   C3A23153   2.051  22.995   7.995
 1569POPC   C4A23154   1.778  23.319   7.788
 1569POPC   C1B23155   2.234  22.875   8.580
 1569POPC   C2B23156   2.324  22.562   8.327
 1569POPC   C3B23157   2.414  22.595   7.905
 1569POPC   C4B23158   2.306  22.828   7.556
 1570POPC   NC323159  36.250  39.676   9.719
 1570POPC   PO423160  36.120  39.015   9.716
 1570POPC   GL123161  36.203  39.157   9.267
 1570POPC   GL223162  36.407  39.472   9.249
 1570POPC   C1A23163  36.115  39.056   8.802
 1570POPC   D2A23164  35.874  39.201   8.424
 1570POPC   C3A23165  36.042  39.186   8.017
 1570POPC   C4A23166  36.012  39.523   7.742
 1570POPC   C1B23167  36.114  39.550   8.945
 1570POPC   C2B23168  36.254  39.537   8.524
 1570POPC   C3B23169  36.387  39.561   8.108
 1570POPC   C4B23170  36.472  39.314   7.724
 1571POPC   NC323171  36.480  41.601   9.766
 1571POPC   PO423172  36.952  41.329   9.374
 1571POPC   GL123173  36.735  41.640   9.180
 1571POPC   GL223174  36.429  41.506   9.263
 1571POPC   C1A23175  36.877  41.706   8.765
 1571POPC   D2A23176  36.978  41.472   8.370
 1571POPC   C3A23177  37.069  41.696   7.975
 1571POPC   C4A23178  37.077  41.782   7.518
 1571POPC   C1B23179  36.359  41.480   8.824
 1571POPC   C2B23180  36.453  41.307   8.439
 1571POPC   C3B23181  36.567  41.454   8.007
 1571POPC   C4B23182  36.819  41.347   7.666
 1572POPC   NC323183  23.009  29.569   9.501
 1572POPC   PO423184  22.629  29.096   9.658
 1572POPC   GL123185  22.956  29.024   9.263
 1572POPC   GL223186  23.244  29.255   9.160
 1572POPC   C1A23187  23.087  28.947   8.789
 1572POPC   D2A23188  22.938  29.135   8.375
 1572POPC   C3A23189  23.067  28.934   7.971
 1572POPC   C4A23190  23.221  28.734   7.596
 1572POPC   C1B23191  23.138  29.471   8.768
 1572POPC   C2B23192  23.105  29.656   8.356
 1572POPC   C3B23193  23.077  29.447   7.938
 1572POPC   C4B23194  23.126  29.234   7.526
 1573POPC   NC323195  18.150  10.880   9.492
 1573POPC   PO423196  18.244  10.201   9.463
 1573POPC   GL123197  18.117  10.470   9.121
 1573POPC   GL223198  18.349  10.270   8.943
 1573POPC   C1A23199  18.145  10.674   8.680
 1573POPC   D2A23200  18.340  10.613   8.299
 1573POPC   C3A23201  18.085  10.499   7.982
 1573POPC   C4A23202  18.117  10.795   7.672
 1573POPC   C1B23203  18.600  10.278   8.599
 1573POPC   C2B23204  18.765  10.347   8.165
 1573POPC   C3B23205  18.555  10.544   7.806
 1573POPC   C4B23206  18.356  10.393   7.411
 1574POPC   NC323207  28.417   9.270   9.327
 1574POPC   PO423208  28.514   9.852   9.556
 1574POPC   GL123209  28.554   9.715   9.141
 1574POPC   GL223210  28.177   9.701   9.163
 1574POPC   C1A23211  28.621   9.533   8.724
 1574POPC   D2A23212  28.534   9.739   8.298
 1574POPC   C3A23213  28.650   9.580   7.863
 1574POPC   C4A23214  28.361   9.423   7.529
 1574POPC   C1B23215  28.234   9.892   8.748
 1574POPC   C2B23216  28.055   9.899   8.333
 1574POPC   C3B23217  28.176   9.777   7.899
 1574POPC   C4B23218  27.989   9.804   7.498
 1575POPC   NC323219  44.323  40.060   9.601
 1575POPC   PO423220  44.928  39.951   9.576
 1575POPC   GL123221  44.750  40.077   9.187
 1575POPC   GL223222  44.799  40.437   9.208
 1575POPC   C1A23223  44.708  39.895   8.751
 1575POPC   D2A23224  44.855  39.925   8.308
 1575POPC   C3A23225  44.603  39.864   7.905
 1575POPC   C4A23226  44.763  39.656   7.505
 1575POPC   C1B23227  44.658  40.409   8.772
 1575POPC   C2B23228  44.878  40.467   8.382
 1575POPC   C3B23229  44.749  40.359   7.963
 1575POPC   C4B23230  44.519  40.295   7.589
 1576POPC   NC323231  12.024   2.421   9.533
 1576POPC   PO423232  11.998   3.088   9.561
 1576POPC   GL123233  11.918   2.820   9.212
 1576POPC   GL223234  11.737   3.074   9.069
 1576POPC   C1A23235  12.097   2.529   8.883
 1576POPC   D2A23236  12.063   2.428   8.459
 1576POPC   C3A23237  12.262   2.666   8.123
 1576POPC   C4A23238  12.326   2.437   7.757
 1576POPC   C1B23239  11.991   3.014   8.715
 1576POPC   C2B23240  11.858   2.909   8.317
 1576POPC   C3B23241  11.886   3.000   7.880
 1576POPC   C4B23242  12.264   2.935   7.649
 1577POPC   NC323243   3.972  18.432   9.507
 1577POPC   PO423244   4.192  17.816   9.722
 1577POPC   GL123245   4.140  18.022   9.268
 1577POPC   GL223246   4.439  18.214   9.198
 1577POPC   C1A23247   4.127  18.266   8.812
 1577POPC   D2A23248   4.337  18.379   8.394
 1577POPC   C3A23249   4.046  18.242   8.067
 1577POPC   C4A23250   3.884  18.341   7.649
 1577POPC   C1B23251   4.604  18.521   8.846
 1577POPC   C2B23252   4.832  18.520   8.422
 1577POPC   C3B23253   4.744  18.410   7.971
 1577POPC   C4B23254   4.387  18.383   7.742
 1578POPC   NC323255  35.703  36.828   9.452
 1578POPC   PO423256  36.347  37.077   9.321
 1578POPC   GL123257  36.196  37.260   8.953
 1578POPC   GL223258  35.840  37.191   9.052
 1578POPC   C1A23259  36.028  37.100   8.554
 1578POPC   D2A23260  36.047  36.643   8.435
 1578POPC   C3A23261  36.241  36.590   8.040
 1578POPC   C4A23262  36.074  36.756   7.681
 1578POPC   C1B23263  35.672  36.825   8.801
 1578POPC   C2B23264  35.559  36.780   8.391
 1578POPC   C3B23265  35.787  36.964   8.069
 1578POPC   C4B23266  35.762  37.296   7.760
 1579POPC   NC323267  29.627  35.406   9.831
 1579POPC   PO423268  30.235  35.263   9.469
 1579POPC   GL123269  29.791  35.265   9.296
 1579POPC   GL223270  29.689  35.582   9.278
 1579POPC   C1A23271  29.624  35.279   8.836
 1579POPC   D2A23272  29.962  35.373   8.476
 1579POPC   C3A23273  29.999  35.208   8.059
 1579POPC   C4A23274  29.684  35.416   7.861
 1579POPC   C1B23275  29.985  35.634   8.930
 1579POPC   C2B23276  29.986  35.902   8.559
 1579POPC   C3B23277  29.954  35.907   8.130
 1579POPC   C4B23278  30.132  35.656   7.849
 1580POPC   NC323279  28.611  12.728   9.517
 1580POPC   PO423280  28.219  13.333   9.399
 1580POPC   GL123281  28.469  13.099   9.134
 1580POPC   GL223282  28.365  12.758   9.087
 1580POPC   C1A23283  28.410  13.057   8.688
 1580POPC   D2A23284  28.427  12.884   8.292
 1580POPC   C3A23285  28.200  13.112   7.993
 1580POPC   C4A23286  28.397  12.887   7.676
 1580POPC   C1B23287  28.468  12.524   8.718
 1580POPC   C2B23288  28.240  12.401   8.356
 1580POPC   C3B23289  28.449  12.454   7.959
 1580POPC   C4B23290  28.380  12.347   7.530
 1581POPC   NC323291  41.170  17.811   9.466
 1581POPC   PO423292  41.707  17.354   9.437
 1581POPC   GL123293  41.437  17.368   9.076
 1581POPC   GL223294  41.421  17.732   8.978
 1581POPC   C1A23295  41.581  17.343   8.645
 1581POPC   D2A23296  41.660  17.477   8.246
 1581POPC   C3A23297  41.460  17.515   7.892
 1581POPC   C4A23298  41.641  17.500   7.546
 1581POPC   C1B23299  41.284  17.749   8.519
 1581POPC   C2B23300  41.396  17.974   8.123
 1581POPC   C3B23301  41.403  17.991   7.661
 1581POPC   C4B23302  41.424  17.792   7.194
 1582POPC   NC323303  42.383  31.404   9.653
 1582POPC   PO423304  42.746  31.932   9.272
 1582POPC   GL123305  42.397  31.760   9.013
 1582POPC   GL223306  42.213  31.460   9.125
 1582POPC   C1A23307  42.224  31.638   8.635
 1582POPC   D2A23308  42.249  31.837   8.246
 1582POPC   C3A23309  42.413  31.574   7.931
 1582POPC   C4A23310  42.186  31.567   7.620
 1582POPC   C1B23311  42.172  31.114   8.787
 1582POPC   C2B23312  42.342  30.984   8.409
 1582POPC   C3B23313  42.180  31.151   8.082
 1582POPC   C4B23314  42.242  31.048   7.692
 1583POPC   NC323315  43.484  44.679   9.479
 1583POPC   PO423316  42.902  44.419   9.230
 1583POPC   GL123317  43.252  44.500   9.048
 1583POPC   GL223318  43.492  44.253   9.183
 1583POPC   C1A23319  43.155  44.714   8.675
 1583POPC   D2A23320  42.767  44.693   8.423
 1583POPC   C3A23321  42.946  44.742   8.024
 1583POPC   C4A23322  43.142   0.114   7.844
 1583POPC   C1B23323  43.491  44.149   8.760
 1583POPC   C2B23324  43.433  44.347   8.371
 1583POPC   C3B23325  43.402  44.332   7.924
 1583POPC   C4B23326  43.222  44.610   7.606
 1584POPC   NC323327  17.057   4.066   9.470
 1584POPC   PO423328  17.756   4.226   9.538
 1584POPC   GL123329  17.837   4.149   9.142
 1584POPC   GL223330  17.475   4.123   9.051
 1584POPC   C1A23331  17.844   4.276   8.738
 1584POPC   D2A23332  17.564   4.162   8.430
 1584POPC   C3A23333  17.605   4.450   8.092
 1584POPC   C4A23334  17.718   4.406   7.680
 1584POPC   C1B23335  17.149   4.022   8.717
 1584POPC   C2B23336  17.071   4.137   8.255
 1584POPC   C3B23337  17.188   4.276   7.819
 1584POPC   C4B23338  16.979   4.223   7.402
 1585POPC   NC323339  25.563   3.199   9.467
 1585POPC   PO423340  25.105   2.679   9.496
 1585POPC   GL123341  25.427   2.783   9.175
 1585POPC   GL223342  25.156   2.789   9.006
 1585POPC   C1A23343  25.526   2.948   8.718
 1585POPC   D2A23344  25.445   3.122   8.306
 1585POPC   C3A23345  25.550   2.865   7.978
 1585POPC   C4A23346  25.468   2.785   7.550
 1585POPC   C1B23347  24.970   2.585   8.720
 1585POPC   C2B23348  25.186   2.661   8.398
 1585POPC   C3B23349  25.117   2.628   8.006
 1585POPC   C4B23350  25.141   2.409   7.668
 1586POPC   NC323351  11.489  10.025   9.616
 1586POPC   PO423352  11.021   9.545   9.509
 1586POPC   GL123353  11.208   9.769   9.198
 1586POPC   GL223354  11.573   9.749   9.199
 1586POPC   C1A23355  11.240   9.838   8.775
 1586POPC   D2A23356  11.342  10.025   8.400
 1586POPC   C3A23357  11.131   9.953   8.031
 1586POPC   C4A23358  11.288   9.895   7.640
 1586POPC   C1B23359  11.602   9.509   8.828
 1586POPC   C2B23360  11.419   9.498   8.397
 1586POPC   C3B23361  11.545   9.632   8.013
 1586POPC   C4B23362  11.461   9.421   7.658
 1587POPC   NC323363  17.235  42.214   9.332
 1587POPC   PO423364  17.629  42.627   9.545
 1587POPC   GL123365  17.618  42.482   9.136
 1587POPC   GL223366  17.800  42.187   9.211
 1587POPC   C1A23367  17.355  42.529   8.728
 1587POPC   D2A23368  17.242  42.581   8.264
 1587POPC   C3A23369  17.438  42.707   7.862
 1587POPC   C4A23370  17.463  42.488   7.447
 1587POPC   C1B23371  17.702  42.134   8.750
 1587POPC   C2B23372  17.514  42.159   8.309
 1587POPC   C3B23373  17.613  42.211   7.845
 1587POPC   C4B23374  17.789  42.112   7.406
 1588POPC   NC323375  41.571  28.453   9.600
 1588POPC   PO423376  41.450  27.853   9.441
 1588POPC   GL123377  41.393  28.069   9.032
 1588POPC   GL223378  41.531  28.417   9.065
 1588POPC   C1A23379  41.626  28.139   8.635
 1588POPC   D2A23380  41.779  28.562   8.549
 1588POPC   C3A23381  41.925  28.717   8.140
 1588POPC   C4A23382  41.799  28.574   7.724
 1588POPC   C1B23383  41.202  28.419   8.694
 1588POPC   C2B23384  41.153  28.171   8.287
 1588POPC   C3B23385  41.378  28.324   7.918
 1588POPC   C4B23386  41.415  28.787   7.994
 1589POPC   NC323387  43.474   4.534   9.820
 1589POPC   PO423388  43.800   4.076   9.420
 1589POPC   GL123389  43.958   4.075   8.980
 1589POPC   GL223390  44.304   3.931   8.896
 1589POPC   C1A23391  43.914   4.029   8.557
 1589POPC   D2A23392  43.917   4.287   8.286
 1589POPC   C3A23393  43.816   4.215   7.901
 1589POPC   C4A23394  43.759   4.485   7.616
 1589POPC   C1B23395  44.385   4.319   8.725
 1589POPC   C2B23396  44.308   4.575   8.387
 1589POPC   C3B23397  44.338   4.359   8.001
 1589POPC   C4B23398  44.313   4.417   7.583
 1590POPC   NC323399  39.412  40.253   9.539
 1590POPC   PO423400  39.069  39.783   9.839
 1590POPC   GL123401  39.086  39.876   9.287
 1590POPC   GL223402  39.164  40.157   9.128
 1590POPC   C1A23403  38.891  39.858   8.850
 1590POPC   D2A23404  39.109  39.948   8.437
 1590POPC   C3A23405  38.974  39.822   8.020
 1590POPC   C4A23406  39.044  39.972   7.608
 1590POPC   C1B23407  39.340  40.231   8.785
 1590POPC   C2B23408  39.349  40.411   8.397
 1590POPC   C3B23409  39.330  40.221   7.995
 1590POPC   C4B23410  39.614  40.403   7.723
 1591POPC   NC323411  28.236  15.670   9.826
 1591POPC   PO423412  28.817  15.677   9.643
 1591POPC   GL123413  28.512  15.902   9.336
 1591POPC   GL223414  28.170  15.762   9.222
 1591POPC   C1A23415  28.545  15.850   8.872
 1591POPC   D2A23416  28.438  15.650   8.458
 1591POPC   C3A23417  28.393  16.004   8.186
 1591POPC   C4A23418  28.526  16.131   7.791
 1591POPC   C1B23419  28.024  15.839   8.756
 1591POPC   C2B23420  27.943  15.766   8.277
 1591POPC   C3B23421  28.024  15.893   7.819
 1591POPC   C4B23422  27.851  15.909   7.378
 1592POPC   NC323423  28.770  35.135   9.392
 1592POPC   PO423424  29.239  35.542   9.560
 1592POPC   GL123425  29.237  35.366   9.185
 1592POPC   GL223426  29.303  35.034   9.298
 1592POPC   C1A23427  29.130  35.504   8.763
 1592POPC   D2A23428  28.805  35.417   8.454
 1592POPC   C3A23429  28.961  35.292   8.043
 1592POPC   C4A23430  29.200  35.552   7.746
 1592POPC   C1B23431  29.149  34.986   8.857
 1592POPC   C2B23432  29.255  35.081   8.448
 1592POPC   C3B23433  29.469  35.009   8.079
 1592POPC   C4B23434  29.256  35.043   7.674
 1593POPC   NC323435  12.081  17.944   9.600
 1593POPC   PO423436  11.838  18.617   9.477
 1593POPC   GL123437  11.985  18.304   9.207
 1593POPC   GL223438  12.308  18.188   9.200
 1593POPC   C1A23439  12.011  18.337   8.769
 1593POPC   D2A23440  11.746  18.090   8.491
 1593POPC   C3A23441  11.888  18.200   8.074
 1593POPC   C4A23442  11.778  18.001   7.698
 1593POPC   C1B23443  12.499  18.188   8.799
 1593POPC   C2B23444  12.617  18.502   8.479
 1593POPC   C3B23445  12.541  18.435   8.039
 1593POPC   C4B23446  12.320  18.133   7.768
 1594POPC   NC323447  29.447  33.663   9.643
 1594POPC   PO423448  29.032  34.049   9.552
 1594POPC   GL123449  29.210  33.897   9.194
 1594POPC   GL223450  29.455  34.097   9.159
 1594POPC   C1A23451  29.117  33.747   8.778
 1594POPC   D2A23452  29.151  33.453   8.421
 1594POPC   C3A23453  29.162  33.473   7.970
 1594POPC   C4A23454  28.970  33.742   7.694
 1594POPC   C1B23455  29.473  34.165   8.725
 1594POPC   C2B23456  29.275  33.992   8.354
 1594POPC   C3B23457  29.085  34.160   7.996
 1594POPC   C4B23458  29.297  34.145   7.624
 1595POPC   NC323459  33.309  17.705   9.510
 1595POPC   PO423460  32.727  17.513   9.846
 1595POPC   GL123461  32.789  17.651   9.343
 1595POPC   GL223462  32.882  17.938   9.156
 1595POPC   C1A23463  32.908  17.531   8.854
 1595POPC   D2A23464  33.094  17.302   8.462
 1595POPC   C3A23465  33.266  17.389   8.048
 1595POPC   C4A23466  33.004  17.402   7.683
 1595POPC   C1B23467  33.237  17.960   8.851
 1595POPC   C2B23468  33.328  17.759   8.461
 1595POPC   C3B23469  33.347  17.904   8.042
 1595POPC   C4B23470  33.372  17.751   7.648
 1596POPC   NC323471  29.345  35.953   9.398
 1596POPC   PO423472  29.497  36.562   9.343
 1596POPC   GL123473  29.270  36.323   9.035
 1596POPC   GL223474  28.910  36.320   9.018
 1596POPC   C1A23475  29.273  36.008   8.709
 1596POPC   D2A23476  29.160  35.846   8.298
 1596POPC   C3A23477  29.101  36.205   8.028
 1596POPC   C4A23478  29.246  36.321   7.620
 1596POPC   C1B23479  28.784  35.920   8.837
 1596POPC   C2B23480  28.649  35.905   8.397
 1596POPC   C3B23481  28.732  35.755   8.010
 1596POPC   C4B23482  28.895  35.947   7.643
 1597POPC   NC323483  10.064  40.685   9.489
 1597POPC   PO423484   9.345  40.563   9.602
 1597POPC   GL123485   9.559  40.630   9.233
 1597POPC   GL223486   9.822  40.430   9.100
 1597POPC   C1A23487   9.432  40.657   8.824
 1597POPC   D2A23488   9.401  40.634   8.378
 1597POPC   C3A23489   9.442  41.029   8.182
 1597POPC   C4A23490   9.740  41.051   7.855
 1597POPC   C1B23491   9.918  40.725   8.731
 1597POPC   C2B23492   9.901  40.830   8.312
 1597POPC   C3B23493  10.143  40.761   7.950
 1597POPC   C4B23494   9.989  40.631   7.577
 1598POPC   NC323495   5.833   0.105   9.496
 1598POPC   PO423496   6.332   0.540   9.380
 1598POPC   GL123497   6.021   0.351   9.088
 1598POPC   GL223498   6.061  44.981   9.046
 1598POPC   C1A23499   5.793   0.490   8.694
 1598POPC   D2A23500   5.633   0.383   8.263
 1598POPC   C3A23501   5.615   0.694   7.905
 1598POPC   C4A23502   5.606   0.646   7.459
 1598POPC   C1B23503   5.944   0.008   8.606
 1598POPC   C2B23504   6.033   0.048   8.166
 1598POPC   C3B23505   5.964   0.335   7.816
 1598POPC   C4B23506   6.195   0.395   7.440
 1599POPC   NC323507   9.158  34.973   9.524
 1599POPC   PO423508   8.859  34.278   9.475
 1599POPC   GL123509   8.846  34.509   9.085
 1599POPC   GL223510   9.142  34.729   9.074
 1599POPC   C1A23511   8.774  34.404   8.622
 1599POPC   D2A23512   9.019  34.426   8.212
 1599POPC   C3A23513   8.819  34.249   7.809
 1599POPC   C4A23514   8.587  34.444   7.457
 1599POPC   C1B23515   9.275  34.506   8.725
 1599POPC   C2B23516   9.519  34.617   8.385
 1599POPC   C3B23517   9.436  34.795   7.988
 1599POPC   C4B23518   9.153  34.603   7.707
 1600POPC   NC323519  10.025  36.271   9.399
 1600POPC   PO423520  10.630  36.086   9.633
 1600POPC   GL123521  10.694  36.108   9.236
 1600POPC   GL223522  10.477  36.333   9.150
 1600POPC   C1A23523  10.799  35.982   8.820
 1600POPC   D2A23524  10.696  35.731   8.441
 1600POPC   C3A23525  10.724  35.990   8.081
 1600POPC   C4A23526  10.621  35.936   7.673
 1600POPC   C1B23527  10.373  36.278   8.721
 1600POPC   C2B23528  10.487  36.442   8.337
 1600POPC   C3B23529  10.357  36.398   7.908
 1600POPC   C4B23530  10.043  36.574   7.624
 1601POPC   NC323531  28.271   7.733   9.610
 1601POPC   PO423532  28.691   7.309   9.508
 1601POPC   GL123533  28.411   7.310   9.166
 1601POPC   GL223534  28.357   7.652   9.118
 1601POPC   C1A23535  28.456   7.239   8.713
 1601POPC   D2A23536  28.161   7.307   8.326
 1601POPC   C3A23537  28.266   7.107   7.942
 1601POPC   C4A23538  28.547   7.208   7.607
 1601POPC   C1B23539  28.142   7.619   8.736
 1601POPC   C2B23540  28.266   7.799   8.341
 1601POPC   C3B23541  28.375   7.612   7.934
 1601POPC   C4B23542  28.183   7.542   7.555
 1602POPC   NC323543  22.913  37.230   9.393
 1602POPC   PO423544  23.160  36.660   9.707
 1602POPC   GL123545  23.147  36.817   9.199
 1602POPC   GL223546  22.851  36.973   8.959
 1602POPC   C1A23547  23.301  36.925   8.739
 1602POPC   D2A23548  22.961  36.915   8.459
 1602POPC   C3A23549  22.973  36.976   8.048
 1602POPC   C4A23550  23.266  36.915   7.748
 1602POPC   C1B23551  22.631  37.241   8.632
 1602POPC   C2B23552  22.530  37.423   8.211
 1602POPC   C3B23553  22.556  37.188   7.819
 1602POPC   C4B23554  22.605  37.192   7.359
 1603POPC   NC323555  12.754  33.634   9.416
 1603POPC   PO423556  13.057  34.259   9.420
 1603POPC   GL123557  12.781  34.033   9.127
 1603POPC   GL223558  13.086  33.856   9.061
 1603POPC   C1A23559  12.765  33.693   8.732
 1603POPC   D2A23560  12.959  33.556   8.326
 1603POPC   C3A23561  12.784  33.808   7.975
 1603POPC   C4A23562  12.610  33.845   7.563
 1603POPC   C1B23563  13.294  33.657   8.724
 1603POPC   C2B23564  13.448  33.775   8.302
 1603POPC   C3B23565  13.275  33.682   7.915
 1603POPC   C4B23566  13.138  33.856   7.518
 1604POPC   NC323567  44.864  31.356   9.434
 1604POPC   PO423568  44.284  31.089   9.528
 1604POPC   GL123569  44.410  31.286   9.160
 1604POPC   GL223570  44.690  31.225   8.962
 1604POPC   C1A23571  44.404  31.636   8.851
 1604POPC   D2A23572  44.187  31.675   8.452
 1604POPC   C3A23573  44.359  31.362   8.153
 1604POPC   C4A23574  44.544  31.571   7.786
 1604POPC   C1B23575  44.945  31.140   8.587
 1604POPC   C2B23576   0.011  31.398   8.223
 1604POPC   C3B23577   0.003  31.386   7.785
 1604POPC   C4B23578   0.050  31.362   7.340
 1605POPC   NC323579   8.660  27.619   9.579
 1605POPC   PO423580   9.324  27.703   9.574
 1605POPC   GL123581   9.048  27.879   9.287
 1605POPC   GL223582   8.957  27.558   9.164
 1605POPC   C1A23583   9.082  27.915   8.824
 1605POPC   D2A23584   9.118  27.800   8.374
 1605POPC   C3A23585   8.784  27.947   8.089
 1605POPC   C4A23586   8.680  27.906   7.655
 1605POPC   C1B23587   8.825  27.440   8.735
 1605POPC   C2B23588   8.753  27.464   8.276
 1605POPC   C3B23589   8.986  27.514   7.835
 1605POPC   C4B23590   9.091  27.367   7.371
 1606POPC   NC323591   2.931  33.688   9.521
 1606POPC   PO423592   2.382  33.761   9.145
 1606POPC   GL123593   2.811  33.823   9.020
 1606POPC   GL223594   2.909  33.467   9.070
 1606POPC   C1A23595   2.928  34.000   8.601
 1606POPC   D2A23596   2.967  33.809   8.163
 1606POPC   C3A23597   2.854  34.106   7.859
 1606POPC   C4A23598   2.598  34.178   7.468
 1606POPC   C1B23599   3.094  33.522   8.676
 1606POPC   C2B23600   3.280  33.383   8.316
 1606POPC   C3B23601   3.187  33.407   7.852
 1606POPC   C4B23602   2.869  33.667   7.623
 1607POPC   NC323603  31.696  10.031   9.293
 1607POPC   PO423604  31.274   9.568   9.652
 1607POPC   GL123605  31.537   9.531   9.233
 1607POPC   GL223606  31.249   9.436   9.113
 1607POPC   C1A23607  31.540   9.662   8.737
 1607POPC   D2A23608  31.277   9.885   8.437
 1607POPC   C3A23609  31.442  10.077   8.098
 1607POPC   C4A23610  31.541   9.907   7.741
 1607POPC   C1B23611  31.333   9.191   8.779
 1607POPC   C2B23612  31.303   9.334   8.398
 1607POPC   C3B23613  31.289   9.548   8.036
 1607POPC   C4B23614  31.219   9.398   7.656
 1608POPC   NC323615  36.443  14.071   9.456
 1608POPC   PO423616  36.162  13.452   9.407
 1608POPC   GL123617  36.118  13.653   9.036
 1608POPC   GL223618  36.179  14.009   9.012
 1608POPC   C1A23619  36.096  13.442   8.644
 1608POPC   D2A23620  36.337  13.217   8.332
 1608POPC   C3A23621  36.139  13.318   7.958
 1608POPC   C4A23622  36.065  13.717   7.711
 1608POPC   C1B23623  36.369  13.887   8.657
 1608POPC   C2B23624  36.220  13.777   8.268
 1608POPC   C3B23625  36.332  14.046   7.969
 1608POPC   C4B23626  36.586  13.998   7.649
 1609POPC   NC323627  40.849  33.245   9.527
 1609POPC   PO423628  40.549  32.625   9.451
 1609POPC   GL123629  40.748  32.954   9.120
 1609POPC   GL223630  40.634  33.347   9.091
 1609POPC   C1A23631  41.020  33.139   8.793
 1609POPC   D2A23632  41.105  32.927   8.399
 1609POPC   C3A23633  40.950  33.064   7.974
 1609POPC   C4A23634  41.048  32.850   7.572
 1609POPC   C1B23635  40.517  33.251   8.687
 1609POPC   C2B23636  40.510  33.418   8.265
 1609POPC   C3B23637  40.291  33.205   7.947
 1609POPC   C4B23638  40.505  32.871   7.775
 1610POPC   NC323639  30.567  21.172   9.615
 1610POPC   PO423640  31.027  21.589   9.374
 1610POPC   GL123641  30.802  21.239   9.157
 1610POPC   GL223642  30.446  21.235   9.090
 1610POPC   C1A23643  30.783  21.291   8.714
 1610POPC   D2A23644  30.953  21.381   8.336
 1610POPC   C3A23645  30.763  21.283   7.977
 1610POPC   C4A23646  30.809  21.649   7.728
 1610POPC   C1B23647  30.307  21.512   8.718
 1610POPC   C2B23648  30.095  21.608   8.366
 1610POPC   C3B23649  30.335  21.585   7.979
 1610POPC   C4B23650  30.415  21.335   7.600
 1611POPC   NC323651   2.957   7.633   9.598
 1611POPC   PO423652   2.398   7.280   9.546
 1611POPC   GL123653   2.662   7.418   9.199
 1611POPC   GL223654   3.020   7.329   9.193
 1611POPC   C1A23655   2.677   7.395   8.750
 1611POPC   D2A23656   2.798   7.190   8.357
 1611POPC   C3A23657   2.670   7.440   7.980
 1611POPC   C4A23658   2.624   7.402   7.537
 1611POPC   C1B23659   3.179   7.503   8.826
 1611POPC   C2B23660   3.064   7.639   8.419
 1611POPC   C3B23661   3.172   7.402   8.055
 1611POPC   C4B23662   3.087   7.558   7.668
 1612POPC   NC323663  34.029  29.465   9.392
 1612POPC   PO423664  33.552  29.155   9.734
 1612POPC   GL123665  33.525  29.261   9.266
 1612POPC   GL223666  33.811  29.090   9.096
 1612POPC   C1A23667  33.465  29.312   8.783
 1612POPC   D2A23668  33.330  29.154   8.376
 1612POPC   C3A23669  33.496  29.374   8.025
 1612POPC   C4A23670  33.342  29.459   7.617
 1612POPC   C1B23671  33.989  29.379   8.760
 1612POPC   C2B23672  33.883  29.249   8.367
 1612POPC   C3B23673  33.746  28.889   8.158
 1612POPC   C4B23674  33.833  28.987   7.751
 1613POPC   NC323675   2.130  30.862   9.373
 1613POPC   PO423676   2.633  30.845   9.805
 1613POPC   GL123677   2.777  30.896   9.328
 1613POPC   GL223678   2.535  30.826   9.095
 1613POPC   C1A23679   2.968  30.833   8.868
 1613POPC   D2A23680   2.806  31.060   8.494
 1613POPC   C3A23681   2.908  30.925   8.103
 1613POPC   C4A23682   2.965  30.614   7.770
 1613POPC   C1B23683   2.357  30.849   8.702
 1613POPC   C2B23684   2.343  30.960   8.255
 1613POPC   C3B23685   2.481  30.841   7.845
 1613POPC   C4B23686   2.531  30.695   7.420
 1614POPC   NC323687  38.797   5.298   9.524
 1614POPC   PO423688  38.416   4.734   9.394
 1614POPC   GL123689  38.687   4.993   9.137
 1614POPC   GL223690  38.430   5.284   9.130
 1614POPC   C1A23691  38.797   5.219   8.741
 1614POPC   D2A23692  38.782   5.348   8.287
 1614POPC   C3A23693  38.787   4.966   7.978
 1614POPC   C4A23694  38.843   4.964   7.498
 1614POPC   C1B23695  38.325   4.957   8.790
 1614POPC   C2B23696  38.443   4.978   8.395
 1614POPC   C3B23697  38.334   5.193   8.054
 1614POPC   C4B23698  38.349   5.049   7.658
 1615POPC   NC323699  20.917  21.845   9.468
 1615POPC   PO423700  20.515  21.321   9.722
 1615POPC   GL123701  20.538  21.375   9.263
 1615POPC   GL223702  20.876  21.463   9.155
 1615POPC   C1A23703  20.612  21.231   8.824
 1615POPC   D2A23704  20.640  21.519   8.491
 1615POPC   C3A23705  20.516  21.352   8.111
 1615POPC   C4A23706  20.610  21.411   7.705
 1615POPC   C1B23707  21.018  21.784   8.818
 1615POPC   C2B23708  20.996  21.919   8.388
 1615POPC   C3B23709  20.850  21.755   8.013
 1615POPC   C4B23710  20.851  21.833   7.568
 1616POPC   NC323711  39.716  20.487   9.467
 1616POPC   PO423712  40.236  20.905   9.511
 1616POPC   GL123713  39.981  20.862   9.149
 1616POPC   GL223714  39.624  20.891   9.088
 1616POPC   C1A23715  40.048  20.610   8.785
 1616POPC   D2A23716  40.150  20.354   8.423
 1616POPC   C3A23717  40.103  20.553   8.023
 1616POPC   C4A23718  40.015  20.389   7.639
 1616POPC   C1B23719  39.544  20.629   8.721
 1616POPC   C2B23720  39.746  20.772   8.356
 1616POPC   C3B23721  39.651  21.051   8.024
 1616POPC   C4B23722  39.625  20.729   7.760
 1617POPC   NC323723  43.297  22.400   9.442
 1617POPC   PO423724  42.665  22.091   9.489
 1617POPC   GL123725  42.944  22.182   9.116
 1617POPC   GL223726  43.288  21.998   9.104
 1617POPC   C1A23727  43.007  22.215   8.649
 1617POPC   D2A23728  43.245  22.322   8.248
 1617POPC   C3A23729  43.076  22.225   7.818
 1617POPC   C4A23730  43.224  21.927   7.519
 1617POPC   C1B23731  43.509  22.249   8.763
 1617POPC   C2B23732  43.693  22.072   8.374
 1617POPC   C3B23733  43.601  22.104   7.951
 1617POPC   C4B23734  43.497  22.490   7.797
 1618POPC   NC323735  30.199  24.803   9.329
 1618POPC   PO423736  30.733  24.443   9.596
 1618POPC   GL123737  30.616  24.515   9.196
 1618POPC   GL223738  30.517  24.170   9.181
 1618POPC   C1A23739  30.695  24.683   8.787
 1618POPC   D2A23740  30.372  24.748   8.465
 1618POPC   C3A23741  30.495  24.695   8.034
 1618POPC   C4A23742  30.868  24.643   7.804
 1618POPC   C1B23743  30.410  24.259   8.755
 1618POPC   C2B23744  30.657  24.272   8.395
 1618POPC   C3B23745  30.689  24.207   7.990
 1618POPC   C4B23746  30.395  24.268   7.726
 1619POPC   NC323747   8.176  17.806   9.490
 1619POPC   PO423748   8.070  17.136   9.438
 1619POPC   GL123749   8.247  17.436   9.120
 1619POPC   GL223750   8.448  17.747   9.075
 1619POPC   C1A23751   8.076  17.628   8.734
 1619POPC   D2A23752   8.051  17.418   8.343
 1619POPC   C3A23753   7.891  17.628   7.988
 1619POPC   C4A23754   8.064  17.501   7.609
 1619POPC   C1B23755   8.580  17.606   8.684
 1619POPC   C2B23756   8.416  17.797   8.301
 1619POPC   C3B23757   8.368  17.825   7.850
 1619POPC   C4B23758   8.492  17.722   7.400
 1620POPC   NC323759  15.585  22.690   9.376
 1620POPC   PO423760  16.222  22.893   9.344
 1620POPC   GL123761  16.014  23.046   9.034
 1620POPC   GL223762  15.668  23.148   9.149
 1620POPC   C1A23763  16.119  22.893   8.621
 1620POPC   D2A23764  16.368  22.890   8.265
 1620POPC   C3A23765  16.070  22.911   7.941
 1620POPC   C4A23766  16.049  22.671   7.572
 1620POPC   C1B23767  15.629  23.030   8.709
 1620POPC   C2B23768  15.797  23.179   8.306
 1620POPC   C3B23769  15.567  23.030   7.947
 1620POPC   C4B23770  15.449  22.757   7.596
 1621POPC   NC323771  20.224  30.624   9.480
 1621POPC   PO423772  19.651  30.731   9.386
 1621POPC   GL123773  19.739  31.039   9.115
 1621POPC   GL223774  19.397  30.995   9.043
 1621POPC   C1A23775  19.994  30.917   8.751
 1621POPC   D2A23776  20.119  30.586   8.442
 1621POPC   C3A23777  19.918  30.576   8.029
 1621POPC   C4A23778  19.981  30.895   7.727
 1621POPC   C1B23779  19.507  30.827   8.669
 1621POPC   C2B23780  19.695  30.941   8.315
 1621POPC   C3B23781  19.515  30.910   7.920
 1621POPC   C4B23782  19.558  30.589   7.625
 1622POPC   NC323783  42.644  28.752   9.332
 1622POPC   PO423784  41.981  28.547   9.390
 1622POPC   GL123785  42.226  28.578   9.021
 1622POPC   GL223786  42.523  28.368   8.924
 1622POPC   C1A23787  42.267  28.672   8.588
 1622POPC   D2A23788  42.448  28.436   8.297
 1622POPC   C3A23789  42.281  28.422   7.916
 1622POPC   C4A23790  42.377  28.092   7.745
 1622POPC   C1B23791  42.159  28.181   8.663
 1622POPC   C2B23792  41.966  28.188   8.244
 1622POPC   C3B23793  41.863  28.095   7.823
 1622POPC   C4B23794  41.911  27.893   7.442
 1623POPC   NC323795  15.183  42.187   9.402
 1623POPC   PO423796  15.319  42.801   9.562
 1623POPC   GL123797  15.058  42.637   9.132
 1623POPC   GL223798  14.967  42.257   8.964
 1623POPC   C1A23799  14.967  42.651   8.667
 1623POPC   D2A23800  15.177  42.391   8.380
 1623POPC   C3A23801  14.964  42.409   8.001
 1623POPC   C4A23802  15.126  42.347   7.622
 1623POPC   C1B23803  15.389  42.148   8.794
 1623POPC   C2B23804  15.515  42.004   8.399
 1623POPC   C3B23805  15.610  42.170   7.998
 1623POPC   C4B23806  15.564  42.066   7.584
 1624POPC   NC323807   1.171  27.772   9.461
 1624POPC   PO423808   1.555  27.238   9.458
 1624POPC   GL123809   1.460  27.438   9.104
 1624POPC   GL223810   1.124  27.353   9.160
 1624POPC   C1A23811   1.533  27.529   8.665
 1624POPC   D2A23812   1.446  27.690   8.275
 1624POPC   C3A23813   1.409  27.426   7.924
 1624POPC   C4A23814   1.257  27.515   7.510
 1624POPC   C1B23815   1.036  27.613   8.777
 1624POPC   C2B23816   0.932  27.829   8.409
 1624POPC   C3B23817   1.008  27.744   7.998
 1624POPC   C4B23818   1.142  27.997   7.724
 1625POPC   NC323819  44.289  34.091   9.476
 1625POPC   PO423820  44.744  33.607   9.382
 1625POPC   GL123821  44.503  33.795   9.111
 1625POPC   GL223822  44.777  33.834   8.934
 1625POPC   C1A23823  44.354  33.764   8.686
 1625POPC   D2A23824  44.593  33.831   8.288
 1625POPC   C3A23825  44.351  33.786   7.929
 1625POPC   C4A23826  44.669  33.569   7.806
 1625POPC   C1B23827  44.857  34.099   8.644
 1625POPC   C2B23828   0.202  34.175   8.411
 1625POPC   C3B23829   0.088  33.922   8.081
 1625POPC   C4B23830  44.805  34.039   7.767
 1626POPC   NC323831  16.919   9.429   9.636
 1626POPC   PO423832  17.323  10.037   9.625
 1626POPC   GL123833  17.324   9.902   9.218
 1626POPC   GL223834  17.093  10.194   9.186
 1626POPC   C1A23835  17.515   9.743   8.816
 1626POPC   D2A23836  17.326   9.676   8.426
 1626POPC   C3A23837  17.517   9.486   8.072
 1626POPC   C4A23838  17.501   9.449   7.651
 1626POPC   C1B23839  17.307  10.209   8.801
 1626POPC   C2B23840  17.482  10.210   8.395
 1626POPC   C3B23841  17.362   9.989   8.023
 1626POPC   C4B23842  17.548   9.965   7.630
 1627POPC   NC323843  29.987   7.654   9.491
 1627POPC   PO423844  29.626   7.022   9.430
 1627POPC   GL123845  29.745   7.327   9.168
 1627POPC   GL223846  30.092   7.318   9.088
 1627POPC   C1A23847  29.667   7.482   8.763
 1627POPC   D2A23848  29.568   7.639   8.401
 1627POPC   C3A23849  29.779   7.309   8.127
 1627POPC   C4A23850  29.877   7.318   7.692
 1627POPC   C1B23851  30.149   7.661   8.821
 1627POPC   C2B23852  30.100   7.642   8.386
 1627POPC   C3B23853  30.263   7.533   7.963
 1627POPC   C4B23854  30.324   7.582   7.510
 1628POPC   NC323855  19.375  22.145   9.904
 1628POPC   PO423856  18.912  22.004   9.457
 1628POPC   GL123857  18.949  22.202   9.095
 1628POPC   GL223858  18.586  22.195   9.081
 1628POPC   C1A23859  19.188  22.334   8.714
 1628POPC   D2A23860  19.439  22.387   8.335
 1628POPC   C3A23861  19.288  22.139   8.006
 1628POPC   C4A23862  19.469  21.941   7.662
 1628POPC   C1B23863  18.711  22.204   8.647
 1628POPC   C2B23864  18.856  21.952   8.347
 1628POPC   C3B23865  18.740  22.027   7.965
 1628POPC   C4B23866  18.931  22.122   7.611
 1629POPC   NC323867  23.975  24.319   9.705
 1629POPC   PO423868  24.584  24.473   9.411
 1629POPC   GL123869  24.235  24.388   9.157
 1629POPC   GL223870  23.972  24.619   9.263
 1629POPC   C1A23871  24.294  24.198   8.741
 1629POPC   D2A23872  24.548  24.480   8.482
 1629POPC   C3A23873  24.505  24.458   8.060
 1629POPC   C4A23874  24.820  24.348   7.753
 1629POPC   C1B23875  23.896  24.506   8.802
 1629POPC   C2B23876  23.994  24.402   8.357
 1629POPC   C3B23877  24.029  24.311   7.898
 1629POPC   C4B23878  24.346  24.454   7.574
 1630POPC   NC323879   8.384   6.709   9.715
 1630POPC   PO423880   8.111   6.280   9.332
 1630POPC   GL123881   8.320   6.646   9.134
 1630POPC   GL223882   8.569   6.906   9.279
 1630POPC   C1A23883   8.309   6.603   8.669
 1630POPC   D2A23884   8.391   6.602   8.218
 1630POPC   C3A23885   8.041   6.813   7.955
 1630POPC   C4A23886   7.685   6.751   7.660
 1630POPC   C1B23887   8.664   6.906   8.844
 1630POPC   C2B23888   8.517   7.044   8.470
 1630POPC   C3B23889   8.474   7.082   8.017
 1630POPC   C4B23890   8.503   6.739   7.743
 1631POPC   NC323891  18.394  21.012   9.677
 1631POPC   PO423892  18.070  21.568   9.512
 1631POPC   GL123893  18.289  21.479   9.155
 1631POPC   GL223894  18.489  21.197   9.182
 1631POPC   C1A23895  18.228  21.380   8.752
 1631POPC   D2A23896  18.406  21.494   8.371
 1631POPC   C3A23897  18.070  21.348   8.119
 1631POPC   C4A23898  17.928  21.456   7.726
 1631POPC   C1B23899  18.671  21.121   8.739
 1631POPC   C2B23900  18.637  21.060   8.246
 1631POPC   C3B23901  18.493  21.259   7.829
 1631POPC   C4B23902  18.432  21.290   7.350
 1632POPC   NC323903  20.611   8.599   9.450
 1632POPC   PO423904  20.828   7.933   9.488
 1632POPC   GL123905  20.710   8.141   9.145
 1632POPC   GL223906  20.946   8.383   9.102
 1632POPC   C1A23907  20.485   8.036   8.780
 1632POPC   D2A23908  20.380   8.115   8.372
 1632POPC   C3A23909  20.598   7.929   8.011
 1632POPC   C4A23910  20.469   8.061   7.614
 1632POPC   C1B23911  20.862   8.344   8.645
 1632POPC   C2B23912  20.780   8.376   8.181
 1632POPC   C3B23913  20.846   8.439   7.740
 1632POPC   C4B23914  20.946   8.424   7.267
 1633POPC   NC323915   1.466  17.277   9.587
 1633POPC   PO423916   1.048  17.683   9.698
 1633POPC   GL123917   1.154  17.720   9.256
 1633POPC   GL223918   1.254  17.394   9.136
 1633POPC   C1A23919   1.306  17.903   8.865
 1633POPC   D2A23920   1.132  17.973   8.453
 1633POPC   C3A23921   1.211  17.775   8.050
 1633POPC   C4A23922   1.530  17.694   7.747
 1633POPC   C1B23923   1.150  17.456   8.695
 1633POPC   C2B23924   1.389  17.392   8.320
 1633POPC   C3B23925   1.351  17.252   7.885
 1633POPC   C4B23926   1.389  17.272   7.391
 1634POPC   NC323927  13.288   9.935   9.523
 1634POPC   PO423928  13.836  10.330   9.348
 1634POPC   GL123929  13.513  10.101   9.066
 1634POPC   GL223930  13.385   9.718   9.072
 1634POPC   C1A23931  13.477   9.965   8.626
 1634POPC   D2A23932  13.481   9.615   8.275
 1634POPC   C3A23933  13.589   9.659   7.818
 1634POPC   C4A23934  13.808   9.763   7.418
 1634POPC   C1B23935  13.158   9.427   8.730
 1634POPC   C2B23936  13.233   9.161   8.336
 1634POPC   C3B23937  13.495   9.156   7.918
 1634POPC   C4B23938  13.567   9.274   7.443
 1635POPC   NC323939   1.512  11.939   9.576
 1635POPC   PO423940   0.982  12.227   9.509
 1635POPC   GL123941   1.166  11.936   9.162
 1635POPC   GL223942   1.520  11.867   9.068
 1635POPC   C1A23943   1.077  11.965   8.722
 1635POPC   D2A23944   0.810  12.270   8.454
 1635POPC   C3A23945   0.848  12.204   8.006
 1635POPC   C4A23946   1.060  11.869   7.863
 1635POPC   C1B23947   1.525  11.712   8.668
 1635POPC   C2B23948   1.342  11.877   8.278
 1635POPC   C3B23949   1.467  12.148   7.894
 1635POPC   C4B23950   1.553  12.014   7.461
 1636POPC   NC323951  33.969   9.586   9.363
 1636POPC   PO423952  33.816   8.939   9.572
 1636POPC   GL123953  33.743   9.064   9.181
 1636POPC   GL223954  34.088   9.148   9.137
 1636POPC   C1A23955  33.548   8.852   8.808
 1636POPC   D2A23956  33.726   8.629   8.461
 1636POPC   C3A23957  33.600   8.808   8.104
 1636POPC   C4A23958  33.477   8.612   7.776
 1636POPC   C1B23959  34.046   8.914   8.783
 1636POPC   C2B23960  34.022   9.045   8.385
 1636POPC   C3B23961  34.080   8.982   7.967
 1636POPC   C4B23962  34.046   9.274   7.646
 1637POPC   NC323963  34.866   0.610   9.491
 1637POPC   PO423964  34.419   0.137   9.255
 1637POPC   GL123965  34.673   0.377   9.041
 1637POPC   GL223966  34.644   0.745   9.049
 1637POPC   C1A23967  34.558   0.455   8.615
 1637POPC   D2A23968  34.381   0.162   8.353
 1637POPC   C3A23969  34.256   0.354   8.009
 1637POPC   C4A23970  34.509   0.365   7.679
 1637POPC   C1B23971  35.007   0.642   8.789
 1637POPC   C2B23972  35.009   0.461   8.363
 1637POPC   C3B23973  34.687   0.620   8.094
 1637POPC   C4B23974  34.787   0.822   7.707
 1638POPC   NC323975  15.664  34.449   9.463
 1638POPC   PO423976  15.034  34.605   9.586
 1638POPC   GL123977  15.293  34.708   9.222
 1638POPC   GL223978  15.308  34.351   9.109
 1638POPC   C1A23979  15.180  34.714   8.781
 1638POPC   D2A23980  14.912  34.680   8.424
 1638POPC   C3A23981  15.086  34.736   8.008
 1638POPC   C4A23982  14.794  34.710   7.669
 1638POPC   C1B23983  15.230  34.195   8.693
 1638POPC   C2B23984  15.201  34.297   8.249
 1638POPC   C3B23985  15.155  34.271   7.810
 1638POPC   C4B23986  15.474  34.178   7.615
 1639POPC   NC323987  29.659  37.328   9.514
 1639POPC   PO423988  29.932  37.932   9.400
 1639POPC   GL123989  30.105  37.639   9.134
 1639POPC   GL223990  29.800  37.496   9.061
 1639POPC   C1A23991  30.150  37.683   8.693
 1639POPC   D2A23992  29.911  37.774   8.325
 1639POPC   C3A23993  30.003  37.571   7.981
 1639POPC   C4A23994  30.035  37.803   7.652
 1639POPC   C1B23995  29.614  37.574   8.685
 1639POPC   C2B23996  29.591  37.366   8.287
 1639POPC   C3B23997  29.626  37.238   7.846
 1639POPC   C4B23998  29.629  37.526   7.493
 1640POPC   NC323999  39.588  41.872   9.563
 1640POPC   PO424000  40.261  41.597   9.511
 1640POPC   GL124001  39.909  41.508   9.271
 1640POPC   GL224002  40.134  41.413   9.029
 1640POPC   C1A24003  39.710  41.592   8.850
 1640POPC   D2A24004  39.995  41.499   8.501
 1640POPC   C3A24005  39.776  41.413   8.124
 1640POPC   C4A24006  39.774  41.681   7.750
 1640POPC   C1B24007  40.398  41.179   8.750
 1640POPC   C2B24008  40.481  41.390   8.358
 1640POPC   C3B24009  40.234  41.624   8.042
 1640POPC   C4B24010  40.281  41.498   7.661
 1641POPC   NC324011  31.299  40.913   9.343
 1641POPC   PO424012  31.777  40.509   9.445
 1641POPC   GL124013  31.560  40.564   9.057
 1641POPC   GL224014  31.707  40.899   9.028
 1641POPC   C1A24015  31.236  40.688   8.731
 1641POPC   D2A24016  31.245  40.960   8.372
 1641POPC   C3A24017  31.441  40.755   8.059
 1641POPC   C4A24018  31.385  40.594   7.646
 1641POPC   C1B24019  31.743  41.249   8.744
 1641POPC   C2B24020  31.737  41.158   8.353
 1641POPC   C3B24021  31.855  41.060   7.966
 1641POPC   C4B24022  31.883  40.754   7.658
 1642POPC   NC324023  38.371  39.022   9.748
 1642POPC   PO424024  38.575  39.511   9.369
 1642POPC   GL124025  38.274  39.376   9.039
 1642POPC   GL224026  38.151  39.003   9.096
 1642POPC   C1A24027  38.294  39.435   8.581
 1642POPC   D2A24028  38.633  39.265   8.325
 1642POPC   C3A24029  38.546  39.311   7.887
 1642POPC   C4A24030  38.759  39.548   7.601
 1642POPC   C1B24031  38.326  38.937   8.645
 1642POPC   C2B24032  38.278  38.920   8.188
 1642POPC   C3B24033  38.455  38.825   7.795
 1642POPC   C4B24034  38.471  39.041   7.397
 1643POPC   NC324035   5.235   8.622   9.338
 1643POPC   PO424036   5.236   8.175   9.808
 1643POPC   GL124037   5.049   8.186   9.242
 1643POPC   GL224038   5.380   8.272   8.997
 1643POPC   C1A24039   4.964   8.420   8.781
 1643POPC   D2A24040   5.351   8.416   8.512
 1643POPC   C3A24041   5.250   8.481   8.100
 1643POPC   C4A24042   5.320   8.335   7.715
 1643POPC   C1B24043   5.152   7.957   8.752
 1643POPC   C2B24044   4.989   8.062   8.346
 1643POPC   C3B24045   5.049   7.915   7.919
 1643POPC   C4B24046   5.427   7.687   7.860
 1644POPC   NC324047  31.107  36.217   9.380
 1644POPC   PO424048  30.415  36.241   9.358
 1644POPC   GL124049  30.683  36.218   9.053
 1644POPC   GL224050  30.826  35.909   9.026
 1644POPC   C1A24051  30.787  36.218   8.633
 1644POPC   D2A24052  30.860  35.952   8.305
 1644POPC   C3A24053  30.836  36.273   7.947
 1644POPC   C4A24054  30.740  36.203   7.492
 1644POPC   C1B24055  30.468  35.812   8.727
 1644POPC   C2B24056  30.421  35.644   8.291
 1644POPC   C3B24057  30.635  35.770   7.880
 1644POPC   C4B24058  30.392  35.842   7.482
 1645POPC   NC324059  26.683   5.901   9.525
 1645POPC   PO424060  27.275   5.664   9.563
 1645POPC   GL124061  26.943   5.729   9.150
 1645POPC   GL224062  26.823   6.107   9.089
 1645POPC   C1A24063  26.767   5.602   8.722
 1645POPC   D2A24064  26.841   5.601   8.262
 1645POPC   C3A24065  26.868   6.030   8.084
 1645POPC   C4A24066  26.967   6.166   7.647
 1645POPC   C1B24067  26.496   6.074   8.791
 1645POPC   C2B24068  26.420   6.191   8.365
 1645POPC   C3B24069  26.387   6.062   7.931
 1645POPC   C4B24070  26.469   6.025   7.469
 1646POPC   NC324071  37.042  32.210   9.586
 1646POPC   PO424072  36.427  32.558   9.496
 1646POPC   GL124073  36.556  32.206   9.213
 1646POPC   GL224074  36.936  32.124   9.108
 1646POPC   C1A24075  36.609  32.298   8.773
 1646POPC   D2A24076  37.023  32.389   8.589
 1646POPC   C3A24077  36.939  32.519   8.179
 1646POPC   C4A24078  36.814  32.338   7.790
 1646POPC   C1B24079  36.901  31.904   8.720
 1646POPC   C2B24080  36.762  32.024   8.307
 1646POPC   C3B24081  36.743  31.849   7.903
 1646POPC   C4B24082  36.687  31.664   7.514
 1647POPC   NC324083  27.394  35.155   9.370
 1647POPC   PO424084  27.893  35.774   9.548
 1647POPC   GL124085  27.710  35.570   9.237
 1647POPC   GL224086  27.904  35.275   9.277
 1647POPC   C1A24087  27.450  35.629   8.890
 1647POPC   D2A24088  27.548  35.555   8.475
 1647POPC   C3A24089  27.340  35.272   8.236
 1647POPC   C4A24090  27.363  35.151   7.830
 1647POPC   C1B24091  27.914  35.314   8.826
 1647POPC   C2B24092  27.898  35.132   8.410
 1647POPC   C3B24093  27.870  35.277   7.992
 1647POPC   C4B24094  27.810  35.058   7.615
 1648POPC   NC324095  32.563  12.040   9.505
 1648POPC   PO424096  31.938  12.025   9.681
 1648POPC   GL124097  31.967  12.105   9.209
 1648POPC   GL224098  32.311  12.161   9.077
 1648POPC   C1A24099  31.887  12.144   8.743
 1648POPC   D2A24100  31.932  12.232   8.279
 1648POPC   C3A24101  32.275  12.290   7.975
 1648POPC   C4A24102  32.086  12.463   7.623
 1648POPC   C1B24103  32.358  11.986   8.660
 1648POPC   C2B24104  32.306  11.858   8.269
 1648POPC   C3B24105  32.190  11.600   7.961
 1648POPC   C4B24106  32.395  11.671   7.560
 1649POPC   NC324107   0.038  41.392   9.471
 1649POPC   PO424108  44.368  41.344   9.653
 1649POPC   GL124109  44.527  41.626   9.279
 1649POPC   GL224110  44.847  41.600   9.043
 1649POPC   C1A24111  44.382  41.727   8.855
 1649POPC   D2A24112  44.367  41.424   8.506
 1649POPC   C3A24113  44.523  41.543   8.128
 1649POPC   C4A24114  44.443  41.535   7.724
 1649POPC   C1B24115  44.976  41.386   8.632
 1649POPC   C2B24116   0.004  41.405   8.158
 1649POPC   C3B24117  44.929  41.667   7.777
 1649POPC   C4B24118  44.991  41.840   7.345
 1650POPC   NC324119  33.462  28.656   9.546
 1650POPC   PO424120  34.078  28.310   9.637
 1650POPC   GL124121  34.127  28.444   9.199
 1650POPC   GL224122  33.791  28.541   9.104
 1650POPC   C1A24123  34.183  28.381   8.749
 1650POPC   D2A24124  33.909  28.420   8.391
 1650POPC   C3A24125  33.870  28.188   8.018
 1650POPC   C4A24126  33.850  28.479   7.705
 1650POPC   C1B24127  33.589  28.259   8.778
 1650POPC   C2B24128  33.497  28.087   8.387
 1650POPC   C3B24129  33.280  28.163   8.028
 1650POPC   C4B24130  33.390  28.294   7.658
 1651POPC   NC324131  39.292  14.134   9.692
 1651POPC   PO424132  39.394  14.790   9.515
 1651POPC   GL124133  39.285  14.431   9.199
 1651POPC   GL224134  39.276  14.031   9.178
 1651POPC   C1A24135  39.388  14.295   8.743
 1651POPC   D2A24136  39.451  14.246   8.269
 1651POPC   C3A24137  39.408  14.225   7.798
 1651POPC   C4A24138  39.596  14.077   7.379
 1651POPC   C1B24139  38.988  13.943   8.836
 1651POPC   C2B24140  38.997  14.040   8.395
 1651POPC   C3B24141  38.989  13.895   7.946
 1651POPC   C4B24142  39.155  13.872   7.489
 1652POPC   NC324143  31.227  37.202   9.502
 1652POPC   PO424144  31.345  36.591   9.244
 1652POPC   GL124145  31.484  36.912   9.022
 1652POPC   GL224146  31.650  37.084   9.241
 1652POPC   C1A24147  31.606  36.853   8.604
 1652POPC   D2A24148  31.353  36.922   8.270
 1652POPC   C3A24149  31.289  36.620   7.987
 1652POPC   C4A24150  31.522  36.568   7.637
 1652POPC   C1B24151  31.851  37.295   8.912
 1652POPC   C2B24152  31.925  37.271   8.476
 1652POPC   C3B24153  31.862  37.006   8.135
 1652POPC   C4B24154  31.605  37.043   7.780
 1653POPC   NC324155  23.920  14.450   9.542
 1653POPC   PO424156  23.441  14.051   9.424
 1653POPC   GL124157  23.636  14.343   9.103
 1653POPC   GL224158  23.947  14.571   9.051
 1653POPC   C1A24159  23.721  14.324   8.658
 1653POPC   D2A24160  23.915  14.158   8.289
 1653POPC   C3A24161  23.643  14.077   7.943
 1653POPC   C4A24162  23.678  14.222   7.518
 1653POPC   C1B24163  23.888  14.825   8.663
 1653POPC   C2B24164  23.955  14.680   8.252
 1653POPC   C3B24165  23.964  14.472   7.860
 1653POPC   C4B24166  24.111  14.487   7.418
 1654POPC   NC324167   8.042  44.417   9.481
 1654POPC   PO424168   8.637  44.719   9.493
 1654POPC   GL124169   8.349  44.669   9.156
 1654POPC   GL224170   8.436  44.319   9.140
 1654POPC   C1A24171   8.333  44.869   8.767
 1654POPC   D2A24172   8.424  44.992   8.354
 1654POPC   C3A24173   8.406  44.696   8.018
 1654POPC   C4A24174   8.094  44.885   7.773
 1654POPC   C1B24175   8.319  44.354   8.725
 1654POPC   C2B24176   8.054  44.556   8.425
 1654POPC   C3B24177   7.946  44.432   8.025
 1654POPC   C4B24178   8.094  44.384   7.625
 1655POPC   NC324179  36.134  27.007   9.583
 1655POPC   PO424180  35.977  26.351   9.436
 1655POPC   GL124181  35.946  26.738   9.206
 1655POPC   GL224182  36.295  26.791   9.135
 1655POPC   C1A24183  35.916  26.953   8.795
 1655POPC   D2A24184  36.151  26.937   8.398
 1655POPC   C3A24185  35.899  26.917   8.017
 1655POPC   C4A24186  35.685  27.280   7.826
 1655POPC   C1B24187  36.161  26.503   8.802
 1655POPC   C2B24188  36.268  26.439   8.381
 1655POPC   C3B24189  36.284  26.491   7.952
 1655POPC   C4B24190  36.273  26.595   7.527
 1656POPC   NC324191  22.302  31.251   9.481
 1656POPC   PO424192  22.084  30.581   9.664
 1656POPC   GL124193  22.052  30.658   9.212
 1656POPC   GL224194  22.359  30.806   9.100
 1656POPC   C1A24195  22.024  30.662   8.741
 1656POPC   D2A24196  22.026  30.908   8.327
 1656POPC   C3A24197  22.249  30.696   7.988
 1656POPC   C4A24198  22.043  30.397   7.673
 1656POPC   C1B24199  22.378  31.027   8.664
 1656POPC   C2B24200  22.474  31.190   8.271
 1656POPC   C3B24201  22.814  31.159   8.002
 1656POPC   C4B24202  22.672  30.830   7.713
 1657POPC   NC324203   6.205  31.131   9.390
 1657POPC   PO424204   5.722  31.604   9.498
 1657POPC   GL124205   5.763  31.335   9.159
 1657POPC   GL224206   6.070  31.535   9.101
 1657POPC   C1A24207   5.646  31.329   8.713
 1657POPC   D2A24208   5.824  31.201   8.307
 1657POPC   C3A24209   5.784  31.377   7.880
 1657POPC   C4A24210   5.833  31.260   7.406
 1657POPC   C1B24211   6.155  31.495   8.688
 1657POPC   C2B24212   6.114  31.627   8.274
 1657POPC   C3B24213   6.325  31.671   7.888
 1657POPC   C4B24214   6.037  31.684   7.561
 1658POPC   NC324215  44.499  43.209   9.761
 1658POPC   PO424216  43.865  42.933   9.682
 1658POPC   GL124217  43.909  43.091   9.260
 1658POPC   GL224218  44.183  42.927   9.113
 1658POPC   C1A24219  43.798  43.167   8.845
 1658POPC   D2A24220  43.800  42.988   8.454
 1658POPC   C3A24221  43.939  43.289   8.154
 1658POPC   C4A24222  43.823  43.211   7.752
 1658POPC   C1B24223  44.263  43.002   8.683
 1658POPC   C2B24224  44.274  42.908   8.261
 1658POPC   C3B24225  43.942  42.782   7.995
 1658POPC   C4B24226  44.029  42.781   7.559
 1659POPC   NC324227  13.135  25.036   9.485
 1659POPC   PO424228  12.735  25.531   9.425
 1659POPC   GL124229  12.691  25.142   9.176
 1659POPC   GL224230  12.979  25.234   9.032
 1659POPC   C1A24231  12.582  25.134   8.712
 1659POPC   D2A24232  12.526  25.410   8.363
 1659POPC   C3A24233  12.568  25.274   7.940
 1659POPC   C4A24234  12.587  25.580   7.619
 1659POPC   C1B24235  13.189  25.198   8.680
 1659POPC   C2B24236  13.084  25.169   8.271
 1659POPC   C3B24237  13.100  25.251   7.873
 1659POPC   C4B24238  13.106  25.478   7.507
 1660POPC   NC324239  35.573  32.790   9.433
 1660POPC   PO424240  36.159  33.226   9.326
 1660POPC   GL124241  35.898  32.958   9.063
 1660POPC   GL224242  35.664  33.188   9.105
 1660POPC   C1A24243  35.832  33.033   8.621
 1660POPC   D2A24244  36.202  33.218   8.401
 1660POPC   C3A24245  36.209  33.058   7.982
 1660POPC   C4A24246  35.926  32.934   7.665
 1660POPC   C1B24247  35.837  33.496   8.821
 1660POPC   C2B24248  35.859  33.612   8.432
 1660POPC   C3B24249  35.920  33.548   8.007
 1660POPC   C4B24250  36.131  33.426   7.641
 1661POPC   NC324251  19.409  42.962   9.556
 1661POPC   PO424252  19.950  43.310   9.524
 1661POPC   GL124253  19.883  43.185   9.106
 1661POPC   GL224254  19.529  43.109   9.090
 1661POPC   C1A24255  19.807  42.914   8.706
 1661POPC   D2A24256  19.695  42.964   8.286
 1661POPC   C3A24257  19.938  43.309   8.160
 1661POPC   C4A24258  20.155  43.386   7.789
 1661POPC   C1B24259  19.390  43.191   8.688
 1661POPC   C2B24260  19.446  43.473   8.350
 1661POPC   C3B24261  19.443  43.298   7.956
 1661POPC   C4B24262  19.731  43.013   7.761
 1662POPC   NC324263  37.260  26.635   9.231
 1662POPC   PO424264  36.622  26.826   9.546
 1662POPC   GL124265  36.807  26.845   9.160
 1662POPC   GL224266  36.777  26.492   9.140
 1662POPC   C1A24267  36.977  26.995   8.765
 1662POPC   D2A24268  37.304  26.906   8.442
 1662POPC   C3A24269  37.172  27.021   8.021
 1662POPC   C4A24270  37.147  26.790   7.671
 1662POPC   C1B24271  36.656  26.586   8.730
 1662POPC   C2B24272  36.814  26.731   8.341
 1662POPC   C3B24273  36.964  26.485   8.015
 1662POPC   C4B24274  36.702  26.325   7.675
 1663POPC   NC324275  19.542  34.931   9.349
 1663POPC   PO424276  19.900  34.339   9.478
 1663POPC   GL124277  19.961  34.531   9.127
 1663POPC   GL224278  19.593  34.482   9.069
 1663POPC   C1A24279  19.914  34.729   8.735
 1663POPC   D2A24280  19.975  34.618   8.302
 1663POPC   C3A24281  19.731  34.339   8.029
 1663POPC   C4A24282  19.752  34.342   7.586
 1663POPC   C1B24283  19.370  34.716   8.752
 1663POPC   C2B24284  19.478  34.736   8.339
 1663POPC   C3B24285  19.676  34.853   7.963
 1663POPC   C4B24286  19.450  34.800   7.621
 1664POPC   NC324287  29.634  23.189   9.518
 1664POPC   PO424288  29.859  22.665   9.447
 1664POPC   GL124289  29.908  22.971   9.130
 1664POPC   GL224290  30.159  23.196   9.209
 1664POPC   C1A24291  29.971  22.954   8.715
 1664POPC   D2A24292  29.919  23.158   8.315
 1664POPC   C3A24293  30.044  22.870   8.035
 1664POPC   C4A24294  30.015  22.682   7.654
 1664POPC   C1B24295  30.312  23.325   8.816
 1664POPC   C2B24296  30.392  23.106   8.446
 1664POPC   C3B24297  30.343  23.265   8.028
 1664POPC   C4B24298  30.456  22.971   7.709
 1665POPC   NC324299  10.811  10.708   9.596
 1665POPC   PO424300  10.349  10.285   9.528
 1665POPC   GL124301  10.484  10.554   9.210
 1665POPC   GL224302  10.795  10.410   9.171
 1665POPC   C1A24303  10.369  10.742   8.822
 1665POPC   D2A24304  10.304  10.537   8.390
 1665POPC   C3A24305  10.376  10.704   7.987
 1665POPC   C4A24306  10.395  10.468   7.624
 1665POPC   C1B24307  10.867  10.789   8.903
 1665POPC   C2B24308  10.699  10.919   8.490
 1665POPC   C3B24309  10.853  10.728   8.131
 1665POPC   C4B24310  10.899  10.843   7.728
 1666POPC   NC324311  30.307  12.176   9.787
 1666POPC   PO424312  30.942  12.111   9.667
 1666POPC   GL124313  30.918  12.079   9.224
 1666POPC   GL224314  31.108  11.789   9.178
 1666POPC   C1A24315  30.944  12.257   8.809
 1666POPC   D2A24316  30.898  12.125   8.407
 1666POPC   C3A24317  30.566  12.208   8.160
 1666POPC   C4A24318  30.457  12.025   7.793
 1666POPC   C1B24319  31.152  11.736   8.724
 1666POPC   C2B24320  31.197  11.750   8.264
 1666POPC   C3B24321  30.950  11.892   7.899
 1666POPC   C4B24322  30.805  11.912   7.438
 1667POPC   NC324323  19.661   5.317   9.340
 1667POPC   PO424324  20.074   4.699   9.397
 1667POPC   GL124325  19.862   4.962   9.062
 1667POPC   GL224326  19.965   5.385   8.966
 1667POPC   C1A24327  19.791   5.015   8.652
 1667POPC   D2A24328  19.705   4.722   8.361
 1667POPC   C3A24329  19.547   4.897   8.008
 1667POPC   C4A24330  19.687   4.916   7.603
 1667POPC   C1B24331  20.056   5.467   8.549
 1667POPC   C2B24332  20.038   5.172   8.238
 1667POPC   C3B24333  19.953   5.250   7.860
 1667POPC   C4B24334  19.845   5.402   7.450
 1668POPC   NC324335   4.764  35.264   9.569
 1668POPC   PO424336   4.462  35.812   9.590
 1668POPC   GL124337   4.395  35.470   9.255
 1668POPC   GL224338   4.045  35.322   9.213
 1668POPC   C1A24339   4.493  35.265   8.847
 1668POPC   D2A24340   4.608  35.412   8.424
 1668POPC   C3A24341   4.387  35.282   8.070
 1668POPC   C4A24342   4.585  35.175   7.715
 1668POPC   C1B24343   3.971  35.260   8.761
 1668POPC   C2B24344   3.915  35.117   8.317
 1668POPC   C3B24345   3.746  35.286   7.943
 1668POPC   C4B24346   3.873  35.609   7.676
 1669POPC   NC324347  15.449  28.532   9.399
 1669POPC   PO424348  15.162  27.954   9.551
 1669POPC   GL124349  15.094  28.255   9.177
 1669POPC   GL224350  14.935  28.600   9.245
 1669POPC   C1A24351  15.257  28.171   8.733
 1669POPC   D2A24352  15.150  28.132   8.272
 1669POPC   C3A24353  15.441  28.200   7.913
 1669POPC   C4A24354  15.511  28.092   7.441
 1669POPC   C1B24355  15.041  28.623   8.800
 1669POPC   C2B24356  15.208  28.661   8.366
 1669POPC   C3B24357  15.277  28.695   7.914
 1669POPC   C4B24358  15.546  28.581   7.576
 1670POPC   NC324359  13.400  23.547   9.546
 1670POPC   PO424360  13.988  23.972   9.447
 1670POPC   GL124361  13.755  23.697   9.154
 1670POPC   GL224362  13.398  23.794   9.111
 1670POPC   C1A24363  13.676  23.625   8.692
 1670POPC   D2A24364  13.766  23.706   8.240
 1670POPC   C3A24365  13.594  23.398   7.947
 1670POPC   C4A24366  13.780  23.163   7.617
 1670POPC   C1B24367  13.270  23.952   8.734
 1670POPC   C2B24368  13.281  23.818   8.322
 1670POPC   C3B24369  13.294  23.806   7.882
 1670POPC   C4B24370  13.262  23.574   7.476
 1671POPC   NC324371  22.693  40.532   9.638
 1671POPC   PO424372  23.195  40.864   9.596
 1671POPC   GL124373  22.805  40.933   9.319
 1671POPC   GL224374  22.717  40.605   9.135
 1671POPC   C1A24375  22.745  41.047   8.876
 1671POPC   D2A24376  22.817  40.782   8.529
 1671POPC   C3A24377  22.894  40.953   8.132
 1671POPC   C4A24378  22.671  40.849   7.767
 1671POPC   C1B24379  23.144  40.722   8.944
 1671POPC   C2B24380  23.325  40.672   8.528
 1671POPC   C3B24381  23.275  40.615   8.067
 1671POPC   C4B24382  23.175  40.780   7.637
 1672POPC   NC324383   7.601  13.333   9.529
 1672POPC   PO424384   7.065  13.593   9.649
 1672POPC   GL124385   7.214  13.466   9.223
 1672POPC   GL224386   7.502  13.630   9.146
 1672POPC   C1A24387   7.416  13.240   8.848
 1672POPC   D2A24388   7.296  13.102   8.427
 1672POPC   C3A24389   7.338  13.395   8.082
 1672POPC   C4A24390   7.636  13.370   7.712
 1672POPC   C1B24391   7.503  13.794   8.764
 1672POPC   C2B24392   7.823  13.790   8.488
 1672POPC   C3B24393   7.781  13.658   8.092
 1672POPC   C4B24394   7.424  13.829   7.813
 1673POPC   NC324395  43.540  18.605   9.329
 1673POPC   PO424396  43.872  18.034   9.516
 1673POPC   GL124397  43.976  18.009   9.111
 1673POPC   GL224398  43.951  18.373   9.085
 1673POPC   C1A24399  44.172  18.035   8.722
 1673POPC   D2A24400  43.897  18.165   8.413
 1673POPC   C3A24401  43.967  18.154   7.996
 1673POPC   C4A24402  43.773  18.253   7.600
 1673POPC   C1B24403  44.069  18.589   8.708
 1673POPC   C2B24404  44.069  18.615   8.254
 1673POPC   C3B24405  44.047  18.631   7.822
 1673POPC   C4B24406  44.149  18.498   7.368
 1674POPC   NC324407  13.080  28.290   9.683
 1674POPC   PO424408  12.441  28.355   9.436
 1674POPC   GL124409  12.796  28.253   9.215
 1674POPC   GL224410  13.010  28.547   9.186
 1674POPC   C1A24411  12.741  28.241   8.779
 1674POPC   D2A24412  12.622  28.486   8.434
 1674POPC   C3A24413  12.798  28.327   8.089
 1674POPC   C4A24414  13.005  28.221   7.731
 1674POPC   C1B24415  12.945  28.706   8.765
 1674POPC   C2B24416  13.128  28.691   8.354
 1674POPC   C3B24417  12.981  28.776   7.912
 1674POPC   C4B24418  12.689  28.632   7.661
 1675POPC   NC324419  14.521  38.471   9.899
 1675POPC   PO424420  14.019  38.670   9.655
 1675POPC   GL124421  13.924  38.500   9.207
 1675POPC   GL224422  13.832  38.141   9.177
 1675POPC   C1A24423  14.105  38.497   8.729
 1675POPC   D2A24424  14.215  38.693   8.294
 1675POPC   C3A24425  14.203  38.566   7.837
 1675POPC   C4A24426  14.212  38.594   7.372
 1675POPC   C1B24427  14.006  37.998   8.756
 1675POPC   C2B24428  14.157  38.162   8.316
 1675POPC   C3B24429  14.495  38.186   8.000
 1675POPC   C4B24430  14.570  38.241   7.558
 1676POPC   NC324431  26.544   7.491   9.464
 1676POPC   PO424432  27.199   7.117   9.420
 1676POPC   GL124433  26.863   7.209   9.156
 1676POPC   GL224434  26.965   7.464   9.051
 1676POPC   C1A24435  26.612   7.146   8.808
 1676POPC   D2A24436  26.677   6.953   8.418
 1676POPC   C3A24437  26.494   7.158   8.032
 1676POPC   C4A24438  26.622   7.378   7.637
 1676POPC   C1B24439  26.860   7.603   8.705
 1676POPC   C2B24440  26.742   7.461   8.351
 1676POPC   C3B24441  26.962   7.503   7.999
 1676POPC   C4B24442  26.961   7.750   7.640
 1677POPC   NC324443  11.545  37.089   9.696
 1677POPC   PO424444  11.115  36.631   9.592
 1677POPC   GL124445  11.356  36.783   9.219
 1677POPC   GL224446  11.341  37.125   9.151
 1677POPC   C1A24447  11.478  36.547   8.841
 1677POPC   D2A24448  11.461  36.402   8.427
 1677POPC   C3A24449  11.591  36.708   8.150
 1677POPC   C4A24450  11.649  36.722   7.732
 1677POPC   C1B24451  11.223  36.966   8.720
 1677POPC   C2B24452  11.159  36.888   8.279
 1677POPC   C3B24453  11.167  36.878   7.811
 1677POPC   C4B24454  10.974  36.542   7.516
 1678POPC   NC324455   0.938  11.060   9.389
 1678POPC   PO424456   1.381  11.527   9.418
 1678POPC   GL124457   1.221  11.394   9.042
 1678POPC   GL224458   1.388  11.062   9.139
 1678POPC   C1A24459   1.138  11.421   8.562
 1678POPC   D2A24460   1.511  11.384   8.259
 1678POPC   C3A24461   1.400  11.496   7.838
 1678POPC   C4A24462   0.926  11.412   7.767
 1678POPC   C1B24463   1.182  10.962   8.773
 1678POPC   C2B24464   1.063  10.946   8.371
 1678POPC   C3B24465   1.192  11.060   7.993
 1678POPC   C4B24466   1.252  11.128   7.516
 1679POPC   NC324467   3.899  37.419   9.456
 1679POPC   PO424468   3.395  37.818   9.526
 1679POPC   GL124469   3.436  37.689   9.133
 1679POPC   GL224470   3.506  37.365   9.112
 1679POPC   C1A24471   3.607  37.801   8.729
 1679POPC   D2A24472   3.842  37.696   8.387
 1679POPC   C3A24473   3.740  37.892   8.010
 1679POPC   C4A24474   3.510  37.650   7.718
 1679POPC   C1B24475   3.843  37.336   8.806
 1679POPC   C2B24476   3.954  37.183   8.399
 1679POPC   C3B24477   3.782  37.342   8.018
 1679POPC   C4B24478   3.991  37.370   7.620
 1680POPC   NC324479  37.444  30.170   9.413
 1680POPC   PO424480  37.919  29.679   9.465
 1680POPC   GL124481  37.739  29.823   9.125
 1680POPC   GL224482  38.026  30.072   9.123
 1680POPC   C1A24483  37.605  29.642   8.720
 1680POPC   D2A24484  37.357  29.658   8.371
 1680POPC   C3A24485  37.542  29.520   8.060
 1680POPC   C4A24486  37.538  29.759   7.743
 1680POPC   C1B24487  37.809  30.147   8.729
 1680POPC   C2B24488  37.797  30.331   8.314
 1680POPC   C3B24489  37.781  30.203   7.873
 1680POPC   C4B24490  37.664  30.281   7.413
 1681POPC   NC324491  25.817  26.348   9.447
 1681POPC   PO424492  26.164  25.741   9.389
 1681POPC   GL124493  25.954  25.954   9.110
 1681POPC   GL224494  25.723  25.741   8.966
 1681POPC   C1A24495  26.103  26.014   8.706
 1681POPC   D2A24496  26.345  25.836   8.417
 1681POPC   C3A24497  26.089  25.926   8.067
 1681POPC   C4A24498  26.236  25.862   7.688
 1681POPC   C1B24499  25.622  26.153   8.771
 1681POPC   C2B24500  25.740  26.403   8.445
 1681POPC   C3B24501  25.766  26.362   8.012
 1681POPC   C4B24502  25.804  26.113   7.652
 1682POPC   NC324503  41.901  18.491   9.511
 1682POPC   PO424504  41.216  18.255   9.333
 1682POPC   GL124505  41.557  18.406   9.142
 1682POPC   GL224506  41.816  18.156   9.119
 1682POPC   C1A24507  41.702  18.668   8.843
 1682POPC   D2A24508  41.759  18.763   8.434
 1682POPC   C3A24509  41.723  18.405   8.164
 1682POPC   C4A24510  41.728  18.385   7.728
 1682POPC   C1B24511  41.621  18.139   8.700
 1682POPC   C2B24512  41.838  17.937   8.373
 1682POPC   C3B24513  41.869  17.842   7.916
 1682POPC   C4B24514  41.883  17.949   7.466
 1683POPC   NC324515   0.086  30.429   9.508
 1683POPC   PO424516   0.789  30.627   9.521
 1683POPC   GL124517   0.495  30.561   9.197
 1683POPC   GL224518   0.261  30.816   9.074
 1683POPC   C1A24519   0.545  30.494   8.779
 1683POPC   D2A24520   0.654  30.699   8.379
 1683POPC   C3A24521   0.736  30.553   7.973
 1683POPC   C4A24522   0.569  30.737   7.587
 1683POPC   C1B24523   0.489  31.005   8.765
 1683POPC   C2B24524   0.468  31.173   8.368
 1683POPC   C3B24525   0.309  31.024   7.998
 1683POPC   C4B24526   0.120  30.933   7.614
 1684POPC   NC324527  26.756  40.357   9.674
 1684POPC   PO424528  26.956  40.962   9.537
 1684POPC   GL124529  26.890  40.707   9.178
 1684POPC   GL224530  26.613  40.485   9.176
 1684POPC   C1A24531  26.716  40.832   8.787
 1684POPC   D2A24532  26.617  40.809   8.390
 1684POPC   C3A24533  26.648  41.006   7.982
 1684POPC   C4A24534  26.785  40.781   7.596
 1684POPC   C1B24535  26.567  40.250   8.797
 1684POPC   C2B24536  26.357  40.378   8.379
 1684POPC   C3B24537  26.562  40.511   7.996
 1684POPC   C4B24538  26.434  40.415   7.619
 1685POPC   NC324539  23.117  41.851   9.359
 1685POPC   PO424540  22.821  42.407   9.390
 1685POPC   GL124541  22.750  42.295   8.987
 1685POPC   GL224542  22.774  41.962   8.991
 1685POPC   C1A24543  22.741  42.470   8.574
 1685POPC   D2A24544  23.140  42.553   8.376
 1685POPC   C3A24545  23.240  42.428   7.945
 1685POPC   C4A24546  23.252  42.708   7.624
 1685POPC   C1B24547  22.957  41.985   8.594
 1685POPC   C2B24548  22.895  42.126   8.180
 1685POPC   C3B24549  22.865  42.133   7.735
 1685POPC   C4B24550  22.755  42.028   7.277
 1686POPC   NC324551  43.124  24.029   9.490
 1686POPC   PO424552  43.350  23.405   9.652
 1686POPC   GL124553  43.240  23.564   9.187
 1686POPC   GL224554  43.321  23.880   9.043
 1686POPC   C1A24555  43.006  23.455   8.775
 1686POPC   D2A24556  42.813  23.593   8.403
 1686POPC   C3A24557  43.025  23.739   8.044
 1686POPC   C4A24558  42.966  23.721   7.613
 1686POPC   C1B24559  43.112  23.931   8.680
 1686POPC   C2B24560  42.931  24.134   8.365
 1686POPC   C3B24561  42.729  24.195   8.000
 1686POPC   C4B24562  42.822  24.220   7.586
 1687POPC   NC324563  22.365  44.510   9.419
 1687POPC   PO424564  21.766  44.656   9.591
 1687POPC   GL124565  21.931  44.666   9.150
 1687POPC   GL224566  22.220  44.918   9.120
 1687POPC   C1A24567  22.108  44.566   8.718
 1687POPC   D2A24568  22.379  44.444   8.333
 1687POPC   C3A24569  22.246  44.606   7.908
 1687POPC   C4A24570  21.800  44.598   7.820
 1687POPC   C1B24571  21.920   0.111   8.823
 1687POPC   C2B24572  21.892   0.211   8.377
 1687POPC   C3B24573  21.995   0.070   7.969
 1687POPC   C4B24574  22.077  44.997   7.530
 1688POPC   NC324575  22.413  20.507   9.401
 1688POPC   PO424576  21.785  20.648   9.550
 1688POPC   GL124577  22.027  20.767   9.144
 1688POPC   GL224578  22.232  20.465   8.946
 1688POPC   C1A24579  21.921  20.760   8.707
 1688POPC   D2A24580  22.128  20.480   8.426
 1688POPC   C3A24581  22.165  20.611   8.003
 1688POPC   C4A24582  22.130  20.350   7.628
 1688POPC   C1B24583  22.424  20.840   8.748
 1688POPC   C2B24584  22.370  21.025   8.322
 1688POPC   C3B24585  22.237  21.120   7.894
 1688POPC   C4B24586  22.118  20.848   7.535
 1689POPC   NC324587  34.846  44.797   9.347
 1689POPC   PO424588  34.355  44.643   9.801
 1689POPC   GL124589  34.393  44.440   9.300
 1689POPC   GL224590  34.510  44.683   9.005
 1689POPC   C1A24591  34.239  44.326   8.817
 1689POPC   D2A24592  34.283  44.603   8.416
 1689POPC   C3A24593  34.503  44.521   7.986
 1689POPC   C4A24594  34.570  44.795   7.657
 1689POPC   C1B24595  34.722  44.924   8.659
 1689POPC   C2B24596  34.836  44.897   8.196
 1689POPC   C3B24597  35.100  44.829   7.811
 1689POPC   C4B24598  34.933  45.000   7.394
 1690POPC   NC324599   5.528  17.719   9.561
 1690POPC   PO424600   4.930  17.755   9.561
 1690POPC   GL124601   5.202  17.648   9.167
 1690POPC   GL224602   5.546  17.456   9.134
 1690POPC   C1A24603   5.035  17.718   8.753
 1690POPC   D2A24604   4.967  17.469   8.416
 1690POPC   C3A24605   4.988  17.653   8.028
 1690POPC   C4A24606   4.949  17.431   7.689
 1690POPC   C1B24607   5.431  17.391   8.710
 1690POPC   C2B24608   5.442  17.260   8.309
 1690POPC   C3B24609   5.479  17.448   7.937
 1690POPC   C4B24610   5.410  17.419   7.510
 1691POPC   NC324611  27.355  10.132   9.341
 1691POPC   PO424612  27.229  10.790   9.643
 1691POPC   GL124613  27.546  10.607   9.283
 1691POPC   GL224614  27.832  10.318   9.201
 1691POPC   C1A24615  27.643  10.633   8.821
 1691POPC   D2A24616  27.900  10.620   8.437
 1691POPC   C3A24617  27.721  10.678   8.025
 1691POPC   C4A24618  27.357  10.697   7.737
 1691POPC   C1B24619  27.742  10.132   8.776
 1691POPC   C2B24620  27.522  10.286   8.413
 1691POPC   C3B24621  27.435  10.246   7.995
 1691POPC   C4B24622  27.701  10.272   7.677
 1692POPC   NC324623   8.197  37.171   9.818
 1692POPC   PO424624   8.355  37.712   9.433
 1692POPC   GL124625   8.169  37.739   9.061
 1692POPC   GL224626   8.353  37.476   8.954
 1692POPC   C1A24627   8.050  37.679   8.632
 1692POPC   D2A24628   8.073  37.914   8.298
 1692POPC   C3A24629   8.083  37.576   8.011
 1692POPC   C4A24630   8.350  37.571   7.682
 1692POPC   C1B24631   8.561  37.725   8.665
 1692POPC   C2B24632   8.544  37.712   8.236
 1692POPC   C3B24633   8.661  37.950   7.951
 1692POPC   C4B24634   8.604  38.057   7.564
 1693POPC   NC324635  15.364  13.076   9.439
 1693POPC   PO424636  14.932  12.508   9.460
 1693POPC   GL124637  15.123  12.729   9.111
 1693POPC   GL224638  14.975  13.066   9.048
 1693POPC   C1A24639  15.415  12.932   8.797
 1693POPC   D2A24640  15.466  13.221   8.432
 1693POPC   C3A24641  15.518  13.051   8.009
 1693POPC   C4A24642  15.546  12.722   7.691
 1693POPC   C1B24643  14.896  12.883   8.676
 1693POPC   C2B24644  15.177  12.710   8.390
 1693POPC   C3B24645  15.126  12.708   7.989
 1693POPC   C4B24646  15.036  12.957   7.684
 1694POPC   NC324647  21.281  41.159   9.392
 1694POPC   PO424648  21.538  40.555   9.576
 1694POPC   GL124649  21.401  40.685   9.150
 1694POPC   GL224650  21.481  40.971   8.971
 1694POPC   C1A24651  21.114  40.695   8.754
 1694POPC   D2A24652  21.198  40.586   8.296
 1694POPC   C3A24653  21.011  40.810   7.947
 1694POPC   C4A24654  21.177  41.155   7.708
 1694POPC   C1B24655  21.204  41.183   8.672
 1694POPC   C2B24656  21.172  41.200   8.243
 1694POPC   C3B24657  21.487  40.969   8.053
 1694POPC   C4B24658  21.690  41.017   7.708
 1695POPC   NC324659  28.287  27.264   9.600
 1695POPC   PO424660  28.501  26.594   9.557
 1695POPC   GL124661  28.503  26.705   9.149
 1695POPC   GL224662  28.736  26.434   9.073
 1695POPC   C1A24663  28.185  26.818   8.812
 1695POPC   D2A24664  28.043  26.670   8.397
 1695POPC   C3A24665  28.196  26.879   8.032
 1695POPC   C4A24666  28.593  26.939   7.884
 1695POPC   C1B24667  28.517  26.445   8.706
 1695POPC   C2B24668  28.605  26.660   8.355
 1695POPC   C3B24669  28.654  26.442   7.989
 1695POPC   C4B24670  28.366  26.519   7.701
 1696POPC   NC324671  33.179  32.118   9.550
 1696POPC   PO424672  33.035  32.784   9.396
 1696POPC   GL124673  32.985  32.445   9.125
 1696POPC   GL224674  33.160  32.134   9.060
 1696POPC   C1A24675  33.132  32.486   8.690
 1696POPC   D2A24676  32.950  32.302   8.333
 1696POPC   C3A24677  32.954  32.574   7.994
 1696POPC   C4A24678  32.832  32.366   7.608
 1696POPC   C1B24679  33.210  31.948   8.674
 1696POPC   C2B24680  33.426  32.087   8.320
 1696POPC   C3B24681  33.290  32.197   7.916
 1696POPC   C4B24682  33.259  32.077   7.503
 1697POPC   NC324683  41.586   3.923   9.573
 1697POPC   PO424684  41.320   3.325   9.489
 1697POPC   GL124685  41.416   3.635   9.162
 1697POPC   GL224686  41.762   3.543   9.155
 1697POPC   C1A24687  41.312   3.764   8.717
 1697POPC   D2A24688  41.168   3.773   8.268
 1697POPC   C3A24689  41.479   3.679   7.933
 1697POPC   C4A24690  41.524   3.346   7.652
 1697POPC   C1B24691  41.611   3.355   8.771
 1697POPC   C2B24692  41.697   3.448   8.357
 1697POPC   C3B24693  41.888   3.275   8.009
 1697POPC   C4B24694  42.032   3.445   7.670
 1698POPC   NC324695   0.980  40.027   9.555
 1698POPC   PO424696   1.653  39.821   9.440
 1698POPC   GL124697   1.333  39.894   9.125
 1698POPC   GL224698   1.101  40.180   9.080
 1698POPC   C1A24699   1.264  39.930   8.680
 1698POPC   D2A24700   1.343  40.186   8.331
 1698POPC   C3A24701   1.206  39.991   7.933
 1698POPC   C4A24702   1.399  40.022   7.523
 1698POPC   C1B24703   0.923  40.379   8.729
 1698POPC   C2B24704   0.964  40.534   8.294
 1698POPC   C3B24705   1.024  40.464   7.856
 1698POPC   C4B24706   0.927  40.215   7.508
 1699POPC   NC324707  31.988  15.696   9.484
 1699POPC   PO424708  32.258  15.057   9.598
 1699POPC   GL124709  32.249  15.161   9.180
 1699POPC   GL224710  32.280  15.496   9.110
 1699POPC   C1A24711  32.211  15.127   8.747
 1699POPC   D2A24712  31.907  14.926   8.495
 1699POPC   C3A24713  32.150  14.912   8.117
 1699POPC   C4A24714  32.479  15.176   7.853
 1699POPC   C1B24715  32.152  15.658   8.721
 1699POPC   C2B24716  32.351  15.623   8.330
 1699POPC   C3B24717  32.217  15.647   7.937
 1699POPC   C4B24718  32.007  15.316   7.852
 1700POPC   NC324719   0.691  31.761   9.463
 1700POPC   PO424720   0.680  32.417   9.643
 1700POPC   GL124721   0.570  32.538   9.212
 1700POPC   GL224722   0.199  32.560   9.172
 1700POPC   C1A24723   0.584  32.324   8.793
 1700POPC   D2A24724   0.726  32.151   8.393
 1700POPC   C3A24725   0.456  32.028   8.056
 1700POPC   C4A24726   0.687  31.968   7.704
 1700POPC   C1B24727   0.111  32.181   8.893
 1700POPC   C2B24728   0.195  32.259   8.459
 1700POPC   C3B24729   0.371  32.514   8.150
 1700POPC   C4B24730   0.378  32.379   7.708
 1701POPC   NC324731   5.205   6.810   9.619
 1701POPC   PO424732   4.586   6.696   9.554
 1701POPC   GL124733   4.811   6.840   9.141
 1701POPC   GL224734   5.154   6.726   9.032
 1701POPC   C1A24735   4.795   6.921   8.667
 1701POPC   D2A24736   4.766   6.940   8.184
 1701POPC   C3A24737   5.079   6.739   7.940
 1701POPC   C4A24738   5.518   6.797   8.029
 1701POPC   C1B24739   5.402   6.531   8.647
 1701POPC   C2B24740   5.349   6.347   8.205
 1701POPC   C3B24741   5.384   6.372   7.718
 1701POPC   C4B24742   5.331   6.309   7.249
 1702POPC   NC324743  30.287  20.803   9.319
 1702POPC   PO424744  29.673  20.757   9.315
 1702POPC   GL124745  29.906  20.544   9.059
 1702POPC   GL224746  30.065  20.319   9.280
 1702POPC   C1A24747  29.981  20.559   8.635
 1702POPC   D2A24748  29.697  20.586   8.342
 1702POPC   C3A24749  29.767  20.819   7.990
 1702POPC   C4A24750  29.787  20.730   7.558
 1702POPC   C1B24751  30.248  20.197   8.883
 1702POPC   C2B24752  30.208  20.140   8.430
 1702POPC   C3B24753  30.100  20.380   8.057
 1702POPC   C4B24754  30.077  20.140   7.662
 1703POPC   NC324755   2.326  38.811   9.388
 1703POPC   PO424756   2.612  38.318   9.794
 1703POPC   GL124757   2.729  38.432   9.331
 1703POPC   GL224758   3.071  38.293   9.158
 1703POPC   C1A24759   2.670  38.413   8.879
 1703POPC   D2A24760   2.888  38.244   8.543
 1703POPC   C3A24761   2.776  38.127   8.122
 1703POPC   C4A24762   2.734  38.330   7.749
 1703POPC   C1B24763   3.120  38.665   8.906
 1703POPC   C2B24764   3.185  38.675   8.493
 1703POPC   C3B24765   3.088  38.527   8.123
 1703POPC   C4B24766   3.203  38.523   7.720
 1704POPC   NC324767  24.283  34.282   9.675
 1704POPC   PO424768  24.453  34.918   9.565
 1704POPC   GL124769  24.372  34.688   9.167
 1704POPC   GL224770  24.284  34.321   9.174
 1704POPC   C1A24771  24.525  34.658   8.722
 1704POPC   D2A24772  24.285  34.573   8.340
 1704POPC   C3A24773  24.568  34.559   8.003
 1704POPC   C4A24774  24.608  34.875   7.712
 1704POPC   C1B24775  24.335  34.190   8.763
 1704POPC   C2B24776  24.627  34.185   8.426
 1704POPC   C3B24777  24.417  34.076   8.067
 1704POPC   C4B24778  24.543  34.101   7.674
 1705POPC   NC324779  16.912  24.077   9.744
 1705POPC   PO424780  17.047  23.668   9.181
 1705POPC   GL124781  16.601  23.684   9.069
 1705POPC   GL224782  16.323  23.832   9.284
 1705POPC   C1A24783  16.632  23.668   8.626
 1705POPC   D2A24784  17.093  23.651   8.517
 1705POPC   C3A24785  17.107  23.651   8.079
 1705POPC   C4A24786  16.997  23.568   7.660
 1705POPC   C1B24787  16.207  23.894   8.806
 1705POPC   C2B24788  16.235  23.926   8.346
 1705POPC   C3B24789  16.537  23.764   8.028
 1705POPC   C4B24790  16.514  23.676   7.573
 1706POPC   NC324791  30.570  42.169   9.398
 1706POPC   PO424792  31.085  42.681   9.430
 1706POPC   GL124793  30.892  42.441   9.126
 1706POPC   GL224794  30.966  42.087   9.024
 1706POPC   C1A24795  30.764  42.498   8.727
 1706POPC   D2A24796  30.805  42.307   8.351
 1706POPC   C3A24797  30.757  42.678   8.137
 1706POPC   C4A24798  30.794  42.594   7.764
 1706POPC   C1B24799  30.597  42.008   8.742
 1706POPC   C2B24800  30.441  41.910   8.328
 1706POPC   C3B24801  30.549  42.118   7.939
 1706POPC   C4B24802  30.952  42.128   7.849
 1707POPC   NC324803  39.672  35.459   9.579
 1707POPC   PO424804  40.043  34.882   9.543
 1707POPC   GL124805  39.993  35.107   9.126
 1707POPC   GL224806  39.692  35.283   9.113
 1707POPC   C1A24807  39.924  35.232   8.654
 1707POPC   D2A24808  40.043  35.034   8.234
 1707POPC   C3A24809  40.290  35.314   7.931
 1707POPC   C4A24810  40.112  35.665   7.641
 1707POPC   C1B24811  39.417  35.313   8.783
 1707POPC   C2B24812  39.491  35.070   8.429
 1707POPC   C3B24813  39.600  35.275   8.076
 1707POPC   C4B24814  39.858  35.162   7.751
 1708POPC   NC324815   4.722   9.116   9.483
 1708POPC   PO424816   4.102   9.387   9.535
 1708POPC   GL124817   4.279   9.083   9.193
 1708POPC   GL224818   4.228   8.708   9.206
 1708POPC   C1A24819   4.342   8.958   8.738
 1708POPC   D2A24820   4.340   9.189   8.320
 1708POPC   C3A24821   4.414   8.978   7.884
 1708POPC   C4A24822   4.613   8.604   7.608
 1708POPC   C1B24823   3.869   8.820   8.900
 1708POPC   C2B24824   3.791   8.919   8.458
 1708POPC   C3B24825   3.865   8.741   8.030
 1708POPC   C4B24826   4.119   8.593   7.666
 1709POPC   NC324827  14.061  19.737   9.573
 1709POPC   PO424828  14.510  20.241   9.726
 1709POPC   GL124829  14.470  19.911   9.326
 1709POPC   GL224830  14.157  20.059   9.177
 1709POPC   C1A24831  14.346  19.621   8.926
 1709POPC   D2A24832  14.173  19.652   8.469
 1709POPC   C3A24833  14.370  19.729   8.068
 1709POPC   C4A24834  14.307  19.619   7.652
 1709POPC   C1B24835  14.233  20.069   8.735
 1709POPC   C2B24836  14.027  20.132   8.328
 1709POPC   C3B24837  14.105  20.135   7.887
 1709POPC   C4B24838  14.282  20.091   7.470
 1710POPC   NC324839  23.604  19.531   9.448
 1710POPC   PO424840  24.182  19.890   9.480
 1710POPC   GL124841  23.926  19.938   9.077
 1710POPC   GL224842  23.532  20.003   9.048
 1710POPC   C1A24843  23.756  19.812   8.659
 1710POPC   D2A24844  23.468  19.858   8.342
 1710POPC   C3A24845  23.823  19.804   8.108
 1710POPC   C4A24846  24.084  19.869   7.761
 1710POPC   C1B24847  23.285  19.656   8.791
 1710POPC   C2B24848  23.504  19.365   8.486
 1710POPC   C3B24849  23.461  19.447   8.031
 1710POPC   C4B24850  23.432  19.867   7.788
 1711POPC   NC324851  35.732  40.411   9.433
 1711POPC   PO424852  36.402  40.520   9.580
 1711POPC   GL124853  36.157  40.690   9.228
 1711POPC   GL224854  36.170  41.055   9.203
 1711POPC   C1A24855  36.035  40.542   8.819
 1711POPC   D2A24856  36.053  40.351   8.412
 1711POPC   C3A24857  36.053  40.634   8.138
 1711POPC   C4A24858  36.012  40.838   7.775
 1711POPC   C1B24859  36.454  40.968   8.865
 1711POPC   C2B24860  36.414  40.766   8.471
 1711POPC   C3B24861  36.419  40.978   8.065
 1711POPC   C4B24862  36.473  40.991   7.618
 1712POPC   NC324863  37.598  21.921   9.354
 1712POPC   PO424864  37.734  21.152   9.519
 1712POPC   GL124865  37.536  21.356   9.213
 1712POPC   GL224866  37.816  21.539   9.112
 1712POPC   C1A24867  37.405  21.486   8.804
 1712POPC   D2A24868  37.631  21.562   8.438
 1712POPC   C3A24869  37.370  21.615   8.078
 1712POPC   C4A24870  37.567  21.648   7.684
 1712POPC   C1B24871  37.920  21.260   8.778
 1712POPC   C2B24872  38.110  21.301   8.383
 1712POPC   C3B24873  37.918  21.455   8.026
 1712POPC   C4B24874  37.995  21.406   7.617
 1713POPC   NC324875  12.240  40.958   9.586
 1713POPC   PO424876  11.801  40.474   9.714
 1713POPC   GL124877  12.027  40.551   9.304
 1713POPC   GL224878  11.954  40.902   9.153
 1713POPC   C1A24879  12.014  40.478   8.846
 1713POPC   D2A24880  12.076  40.566   8.387
 1713POPC   C3A24881  11.728  40.641   8.087
 1713POPC   C4A24882  11.756  40.633   7.641
 1713POPC   C1B24883  11.943  41.165   8.761
 1713POPC   C2B24884  12.032  41.137   8.299
 1713POPC   C3B24885  12.171  40.890   7.928
 1713POPC   C4B24886  12.154  40.996   7.470
 1714POPC   NC324887   7.974  33.396   9.494
 1714POPC   PO424888   8.261  34.003   9.561
 1714POPC   GL124889   8.146  34.078   9.148
 1714POPC   GL224890   7.789  34.085   9.072
 1714POPC   C1A24891   8.455  34.002   8.826
 1714POPC   D2A24892   8.594  33.821   8.430
 1714POPC   C3A24893   8.434  34.017   8.065
 1714POPC   C4A24894   8.287  34.103   7.670
 1714POPC   C1B24895   7.913  33.751   8.786
 1714POPC   C2B24896   8.051  33.788   8.352
 1714POPC   C3B24897   7.984  33.784   7.925
 1714POPC   C4B24898   8.009  33.451   7.649
 1715POPC   NC324899  30.560  15.412   9.467
 1715POPC   PO424900  30.850  14.791   9.508
 1715POPC   GL124901  30.688  14.993   9.173
 1715POPC   GL224902  30.918  15.274   9.142
 1715POPC   C1A24903  30.474  15.103   8.805
 1715POPC   D2A24904  30.423  15.234   8.403
 1715POPC   C3A24905  30.558  14.981   8.104
 1715POPC   C4A24906  30.551  15.133   7.723
 1715POPC   C1B24907  30.990  15.070   8.761
 1715POPC   C2B24908  30.923  15.286   8.396
 1715POPC   C3B24909  30.818  15.439   8.037
 1715POPC   C4B24910  31.081  15.324   7.714
 1716POPC   NC324911   9.066   7.889   9.410
 1716POPC   PO424912   8.564   8.259   9.581
 1716POPC   GL124913   8.796   8.347   9.219
 1716POPC   GL224914   9.149   8.414   9.295
 1716POPC   C1A24915   8.907   8.149   8.842
 1716POPC   D2A24916   8.794   8.175   8.446
 1716POPC   C3A24917   8.824   7.873   8.151
 1716POPC   C4A24918   8.912   8.006   7.755
 1716POPC   C1B24919   9.265   8.514   8.861
 1716POPC   C2B24920   9.284   8.315   8.443
 1716POPC   C3B24921   9.185   8.476   8.005
 1716POPC   C4B24922   9.362   8.730   7.641
 1717POPC   NC324923  21.882  20.953   9.879
 1717POPC   PO424924  21.227  20.752   9.609
 1717POPC   GL124925  21.438  20.603   9.164
 1717POPC   GL224926  21.747  20.356   9.148
 1717POPC   C1A24927  21.416  20.668   8.738
 1717POPC   D2A24928  21.286  20.896   8.392
 1717POPC   C3A24929  21.303  20.702   7.995
 1717POPC   C4A24930  21.081  20.583   7.648
 1717POPC   C1B24931  21.735  20.271   8.730
 1717POPC   C2B24932  21.607  20.414   8.325
 1717POPC   C3B24933  21.709  20.383   7.910
 1717POPC   C4B24934  21.626  20.565   7.525
 1718POPC   NC324935  22.025   1.557   9.550
 1718POPC   PO424936  21.972   2.211   9.320
 1718POPC   GL124937  22.210   1.846   9.164
 1718POPC   GL224938  21.930   1.674   9.074
 1718POPC   C1A24939  22.338   1.675   8.762
 1718POPC   D2A24940  22.347   1.929   8.419
 1718POPC   C3A24941  22.693   1.792   8.207
 1718POPC   C4A24942  22.484   1.618   7.889
 1718POPC   C1B24943  21.891   1.963   8.717
 1718POPC   C2B24944  21.851   2.106   8.315
 1718POPC   C3B24945  22.073   1.932   7.981
 1718POPC   C4B24946  22.455   2.130   7.883
 1719POPC   NC324947   0.256   7.589   9.525
 1719POPC   PO424948   0.918   7.608   9.457
 1719POPC   GL124949   0.616   7.500   9.180
 1719POPC   GL224950   0.298   7.333   9.077
 1719POPC   C1A24951   0.593   7.628   8.770
 1719POPC   D2A24952   0.808   7.520   8.409
 1719POPC   C3A24953   0.449   7.416   8.154
 1719POPC   C4A24954   0.196   7.633   7.835
 1719POPC   C1B24955   0.631   7.139   8.834
 1719POPC   C2B24956   0.673   7.032   8.421
 1719POPC   C3B24957   0.734   7.013   7.982
 1719POPC   C4B24958   0.391   7.168   7.708
 1720POPC   NC324959   6.034  34.897   9.387
 1720POPC   PO424960   5.599  34.265   9.511
 1720POPC   GL124961   5.620  34.625   9.208
 1720POPC   GL224962   5.930  34.475   9.060
 1720POPC   C1A24963   5.763  34.822   8.775
 1720POPC   D2A24964   5.887  34.519   8.392
 1720POPC   C3A24965   5.956  34.688   7.954
 1720POPC   C4A24966   5.756  34.775   7.559
 1720POPC   C1B24967   6.263  34.410   8.736
 1720POPC   C2B24968   6.325  34.200   8.333
 1720POPC   C3B24969   6.243  34.257   7.887
 1720POPC   C4B24970   6.155  34.442   7.450
 1721POPC   NC324971   0.246  10.195   9.315
 1721POPC   PO424972   0.578  10.759   9.462
 1721POPC   GL124973   0.551  10.550   9.083
 1721POPC   GL224974   0.722  10.275   9.134
 1721POPC   C1A24975   0.291  10.472   8.702
 1721POPC   D2A24976   0.354  10.389   8.268
 1721POPC   C3A24977   0.634  10.742   8.103
 1721POPC   C4A24978   0.802  10.915   7.702
 1721POPC   C1B24979   0.711  10.095   8.746
 1721POPC   C2B24980   0.829  10.243   8.353
 1721POPC   C3B24981   0.714  10.264   7.926
 1721POPC   C4B24982   0.842  10.426   7.533
 1722POPC   NC324983   2.481  21.888   9.434
 1722POPC   PO424984   3.117  22.194   9.370
 1722POPC   GL124985   2.844  22.166   9.045
 1722POPC   GL224986   2.566  22.389   9.163
 1722POPC   C1A24987   2.905  22.237   8.587
 1722POPC   D2A24988   2.804  22.478   8.219
 1722POPC   C3A24989   2.864  22.303   7.813
 1722POPC   C4A24990   2.998  21.875   7.980
 1722POPC   C1B24991   2.403  22.188   8.787
 1722POPC   C2B24992   2.522  21.930   8.430
 1722POPC   C3B24993   2.508  22.049   8.036
 1722POPC   C4B24994   2.393  22.172   7.621
 1723POPC   NC324995  10.041   7.667   9.408
 1723POPC   PO424996   9.373   7.563   9.352
 1723POPC   GL124997   9.717   7.419   9.116
 1723POPC   GL224998   9.550   7.149   9.072
 1723POPC   C1A24999   9.992   7.462   8.719
 1723POPC   D2A25000  10.102   7.722   8.316
 1723POPC   C3A25001  10.089   7.583   7.852
 1723POPC   C4A25002   9.892   7.306   7.510
 1723POPC   C1B25003   9.481   7.397   8.677
 1723POPC   C2B25004   9.705   7.393   8.284
 1723POPC   C3B25005   9.595   7.579   7.905
 1723POPC   C4B25006   9.240   7.658   7.618
 1724POPC   NC325007  32.894   3.157   9.530
 1724POPC   PO425008  33.023   3.819   9.396
 1724POPC   GL125009  32.975   3.626   9.051
 1724POPC   GL225010  32.695   3.403   9.119
 1724POPC   C1A25011  33.118   3.675   8.641
 1724POPC   D2A25012  33.291   3.528   8.257
 1724POPC   C3A25013  33.144   3.731   7.901
 1724POPC   C4A25014  33.357   3.409   7.697
 1724POPC   C1B25015  32.784   3.283   8.705
 1724POPC   C2B25016  32.800   3.469   8.290
 1724POPC   C3B25017  32.844   3.314   7.860
 1724POPC   C4B25018  32.470   3.165   7.619
 1725POPC   NC325019  29.371  30.302   9.490
 1725POPC   PO425020  28.752  29.851   9.571
 1725POPC   GL125021  28.936  29.804   9.159
 1725POPC   GL225022  29.292  29.901   9.142
 1725POPC   C1A25023  28.911  30.062   8.784
 1725POPC   D2A25024  28.805  30.249   8.374
 1725POPC   C3A25025  29.134  30.133   8.060
 1725POPC   C4A25026  28.871  29.857   7.859
 1725POPC   C1B25027  29.426  30.234   8.832
 1725POPC   C2B25028  29.609  30.203   8.426
 1725POPC   C3B25029  29.602  30.454   8.069
 1725POPC   C4B25030  29.384  30.499   7.705
 1726POPC   NC325031  10.654   5.175   9.659
 1726POPC   PO425032  10.144   4.778   9.565
 1726POPC   GL125033  10.389   5.023   9.248
 1726POPC   GL225034  10.753   5.061   9.181
 1726POPC   C1A25035  10.358   5.254   8.901
 1726POPC   D2A25036  10.424   5.084   8.512
 1726POPC   C3A25037  10.382   5.177   8.097
 1726POPC   C4A25038  10.121   5.043   7.801
 1726POPC   C1B25039  10.853   5.225   8.761
 1726POPC   C2B25040  10.770   5.410   8.348
 1726POPC   C3B25041  10.860   5.170   7.967
 1726POPC   C4B25042  10.596   5.068   7.616
 1727POPC   NC325043  41.618  13.166   9.517
 1727POPC   PO425044  42.057  13.394   9.065
 1727POPC   GL125045  41.750  13.018   9.032
 1727POPC   GL225046  41.681  12.708   9.258
 1727POPC   C1A25047  41.555  12.810   8.674
 1727POPC   D2A25048  41.335  12.948   8.280
 1727POPC   C3A25049  41.564  13.203   7.947
 1727POPC   C4A25050  41.317  13.127   7.581
 1727POPC   C1B25051  41.851  12.451   8.915
 1727POPC   C2B25052  41.623  12.301   8.575
 1727POPC   C3B25053  41.515  12.472   8.200
 1727POPC   C4B25054  41.559  12.718   7.824
 1728POPC   NC325055  26.623  25.775   9.297
 1728POPC   PO425056  26.922  26.357   9.605
 1728POPC   GL125057  26.872  26.225   9.153
 1728POPC   GL225058  27.043  25.916   9.032
 1728POPC   C1A25059  26.570  26.202   8.797
 1728POPC   D2A25060  26.702  26.261   8.368
 1728POPC   C3A25061  26.599  26.026   8.017
 1728POPC   C4A25062  26.660  26.113   7.565
 1728POPC   C1B25063  26.932  25.889   8.656
 1728POPC   C2B25064  27.163  26.035   8.341
 1728POPC   C3B25065  27.124  25.991   7.926
 1728POPC   C4B25066  27.314  25.746   7.631
 1729POPC   NC325067  26.588  15.966   9.573
 1729POPC   PO425068  27.195  16.088   9.458
 1729POPC   GL125069  26.943  15.999   9.122
 1729POPC   GL225070  26.561  16.086   9.080
 1729POPC   C1A25071  26.935  16.198   8.732
 1729POPC   D2A25072  26.711  16.116   8.379
 1729POPC   C3A25073  26.987  16.095   8.048
 1729POPC   C4A25074  26.919  16.225   7.657
 1729POPC   C1B25075  26.618  15.755   8.799
 1729POPC   C2B25076  26.716  15.577   8.409
 1729POPC   C3B25077  26.592  15.718   8.026
 1729POPC   C4B25078  26.728  15.749   7.622
 1730POPC   NC325079  30.870  30.830   9.601
 1730POPC   PO425080  30.197  31.029   9.663
 1730POPC   GL125081  30.327  30.958   9.222
 1730POPC   GL225082  30.681  30.881   9.152
 1730POPC   C1A25083  30.377  30.666   8.846
 1730POPC   D2A25084  30.694  30.600   8.524
 1730POPC   C3A25085  30.489  30.668   8.141
 1730POPC   C4A25086  30.377  30.928   7.793
 1730POPC   C1B25087  31.029  30.860   8.879
 1730POPC   C2B25088  31.136  30.951   8.467
 1730POPC   C3B25089  30.976  30.818   8.107
 1730POPC   C4B25090  30.804  30.654   7.728
 1731POPC   NC325091  41.873  31.029   9.396
 1731POPC   PO425092  41.439  30.601   9.532
 1731POPC   GL125093  41.386  30.741   9.135
 1731POPC   GL225094  41.655  30.502   9.067
 1731POPC   C1A25095  41.609  30.914   8.765
 1731POPC   D2A25096  41.876  30.819   8.427
 1731POPC   C3A25097  41.746  30.874   8.025
 1731POPC   C4A25098  41.723  30.490   7.799
 1731POPC   C1B25099  41.342  30.450   8.720
 1731POPC   C2B25100  41.247  30.720   8.369
 1731POPC   C3B25101  41.263  30.826   7.916
 1731POPC   C4B25102  41.350  30.746   7.519
 1732POPC   NC325103  33.072  19.407   9.663
 1732POPC   PO425104  33.213  18.797   9.459
 1732POPC   GL125105  33.181  19.030   9.106
 1732POPC   GL225106  32.992  19.338   9.169
 1732POPC   C1A25107  33.399  19.045   8.693
 1732POPC   D2A25108  33.588  18.875   8.318
 1732POPC   C3A25109  33.249  19.017   8.069
 1732POPC   C4A25110  32.809  18.982   7.970
 1732POPC   C1B25111  32.931  19.315   8.743
 1732POPC   C2B25112  32.884  19.548   8.374
 1732POPC   C3B25113  32.663  19.489   7.991
 1732POPC   C4B25114  32.811  19.345   7.618
 1733POPC   NC325115   3.580   6.863   9.464
 1733POPC   PO425116   3.670   6.238   9.593
 1733POPC   GL125117   3.538   6.469   9.132
 1733POPC   GL225118   3.286   6.761   9.049
 1733POPC   C1A25119   3.550   6.678   8.651
 1733POPC   D2A25120   3.292   6.968   8.407
 1733POPC   C3A25121   3.166   6.713   8.062
 1733POPC   C4A25122   3.454   6.609   7.730
 1733POPC   C1B25123   3.151   6.377   8.784
 1733POPC   C2B25124   3.052   6.166   8.358
 1733POPC   C3B25125   3.203   6.200   7.908
 1733POPC   C4B25126   3.258   6.255   7.429
 1734POPC   NC325127  20.158  17.734   9.614
 1734POPC   PO425128  20.731  17.743   9.522
 1734POPC   GL125129  20.710  17.520   9.158
 1734POPC   GL225130  20.409  17.357   9.289
 1734POPC   C1A25131  20.725  17.653   8.721
 1734POPC   D2A25132  20.924  17.827   8.364
 1734POPC   C3A25133  20.742  17.670   7.988
 1734POPC   C4A25134  20.576  17.886   7.613
 1734POPC   C1B25135  20.306  17.383   8.847
 1734POPC   C2B25136  20.248  17.380   8.394
 1734POPC   C3B25137  20.488  17.225   8.036
 1734POPC   C4B25138  20.795  17.094   7.758
 1735POPC   NC325139   2.288  31.847   9.448
 1735POPC   PO425140   1.930  31.228   9.620
 1735POPC   GL125141   1.819  31.323   9.207
 1735POPC   GL225142   2.145  31.451   9.107
 1735POPC   C1A25143   1.710  31.330   8.767
 1735POPC   D2A25144   1.700  31.309   8.294
 1735POPC   C3A25145   2.045  31.587   8.140
 1735POPC   C4A25146   2.233  31.656   7.726
 1735POPC   C1B25147   2.269  31.770   8.786
 1735POPC   C2B25148   2.256  31.956   8.413
 1735POPC   C3B25149   2.519  31.888   8.075
 1735POPC   C4B25150   2.435  32.193   7.816
 1736POPC   NC325151  36.846  29.048  10.025
 1736POPC   PO425152  37.186  29.431   9.549
 1736POPC   GL125153  36.911  29.228   9.164
 1736POPC   GL225154  36.549  29.320   9.108
 1736POPC   C1A25155  36.780  28.970   8.790
 1736POPC   D2A25156  37.041  28.803   8.468
 1736POPC   C3A25157  36.875  28.917   8.098
 1736POPC   C4A25158  36.976  28.894   7.697
 1736POPC   C1B25159  36.644  29.461   8.707
 1736POPC   C2B25160  36.957  29.327   8.419
 1736POPC   C3B25161  37.040  29.410   8.014
 1736POPC   C4B25162  36.673  29.419   7.787
 1737POPC   NC325163  35.822  24.222   9.534
 1737POPC   PO425164  35.296  24.706   9.770
 1737POPC   GL125165  35.450  24.592   9.315
 1737POPC   GL225166  35.526  24.255   9.120
 1737POPC   C1A25167  35.546  24.705   8.887
 1737POPC   D2A25168  35.608  24.378   8.569
 1737POPC   C3A25169  35.642  24.484   8.121
 1737POPC   C4A25170  35.445  24.280   7.789
 1737POPC   C1B25171  35.130  24.390   8.943
 1737POPC   C2B25172  34.895  24.241   8.567
 1737POPC   C3B25173  34.985  24.289   8.107
 1737POPC   C4B25174  35.071  24.622   7.796
 1738POPC   NC325175  43.663  27.251   9.410
 1738POPC   PO425176  44.119  27.678   9.588
 1738POPC   GL125177  44.060  27.544   9.181
 1738POPC   GL225178  43.718  27.690   9.149
 1738POPC   C1A25179  43.939  27.433   8.752
 1738POPC   D2A25180  44.065  27.570   8.333
 1738POPC   C3A25181  43.898  27.309   8.011
 1738POPC   C4A25182  43.757  27.357   7.596
 1738POPC   C1B25183  43.530  27.966   8.850
 1738POPC   C2B25184  43.637  28.134   8.435
 1738POPC   C3B25185  43.690  27.861   8.085
 1738POPC   C4B25186  43.608  27.821   7.667
 1739POPC   NC325187  37.641  29.331   9.533
 1739POPC   PO425188  37.521  28.739   9.629
 1739POPC   GL125189  37.562  28.990   9.168
 1739POPC   GL225190  37.410  29.370   9.098
 1739POPC   C1A25191  37.811  29.127   8.771
 1739POPC   D2A25192  37.977  29.291   8.346
 1739POPC   C3A25193  37.874  29.182   7.885
 1739POPC   C4A25194  37.836  29.432   7.500
 1739POPC   C1B25195  37.268  29.165   8.783
 1739POPC   C2B25196  37.447  29.141   8.405
 1739POPC   C3B25197  37.387  29.012   8.022
 1739POPC   C4B25198  37.366  29.238   7.637
 1740POPC   NC325199   9.747   8.615   9.504
 1740POPC   PO425200  10.185   8.077   9.627
 1740POPC   GL125201   9.887   8.169   9.277
 1740POPC   GL225202   9.552   8.051   9.280
 1740POPC   C1A25203   9.780   8.347   8.862
 1740POPC   D2A25204   9.878   8.302   8.411
 1740POPC   C3A25205   9.840   8.055   8.022
 1740POPC   C4A25206   9.964   8.225   7.650
 1740POPC   C1B25207   9.428   7.982   8.846
 1740POPC   C2B25208   9.559   7.874   8.427
 1740POPC   C3B25209   9.336   7.991   8.043
 1740POPC   C4B25210   9.422   8.190   7.645
 1741POPC   NC325211  39.290  10.650   9.514
 1741POPC   PO425212  38.745  10.238   9.378
 1741POPC   GL125213  39.067  10.394   9.099
 1741POPC   GL225214  39.117  10.769   9.067
 1741POPC   C1A25215  39.279  10.446   8.694
 1741POPC   D2A25216  39.297  10.261   8.263
 1741POPC   C3A25217  39.430  10.450   7.867
 1741POPC   C4A25218  39.192  10.621   7.522
 1741POPC   C1B25219  39.392  10.968   8.743
 1741POPC   C2B25220  39.406  10.789   8.329
 1741POPC   C3B25221  39.235  10.903   7.969
 1741POPC   C4B25222  39.525  10.984   7.672
 1742POPC   NC325223  22.433  34.706   9.505
 1742POPC   PO425224  22.290  34.077   9.443
 1742POPC   GL125225  22.079  34.413   9.227
 1742POPC   GL225226  21.785  34.630   9.155
 1742POPC   C1A25227  22.195  34.587   8.835
 1742POPC   D2A25228  22.456  34.636   8.501
 1742POPC   C3A25229  22.364  34.530   8.091
 1742POPC   C4A25230  22.557  34.634   7.712
 1742POPC   C1B25231  21.745  34.834   8.734
 1742POPC   C2B25232  21.950  34.671   8.358
 1742POPC   C3B25233  21.854  34.377   8.008
 1742POPC   C4B25234  21.792  34.479   7.546
 1743POPC   NC325235  27.812  25.457   9.612
 1743POPC   PO425236  27.145  25.547   9.363
 1743POPC   GL125237  27.518  25.386   9.139
 1743POPC   GL225238  27.862  25.413   9.125
 1743POPC   C1A25239  27.536  25.175   8.749
 1743POPC   D2A25240  27.347  25.112   8.351
 1743POPC   C3A25241  27.587  25.112   7.979
 1743POPC   C4A25242  27.541  25.205   7.565
 1743POPC   C1B25243  28.005  25.082   8.919
 1743POPC   C2B25244  27.961  25.048   8.486
 1743POPC   C3B25245  28.040  25.268   8.119
 1743POPC   C4B25246  28.048  25.130   7.724
 1744POPC   NC325247  18.056   5.699   9.590
 1744POPC   PO425248  18.561   6.130   9.623
 1744POPC   GL125249  18.291   6.047   9.243
 1744POPC   GL225250  18.384   5.726   9.187
 1744POPC   C1A25251  18.145   5.937   8.767
 1744POPC   D2A25252  18.373   5.779   8.369
 1744POPC   C3A25253  18.323   5.885   7.953
 1744POPC   C4A25254  18.269   5.665   7.558
 1744POPC   C1B25255  18.017   5.489   8.952
 1744POPC   C2B25256  18.010   5.427   8.473
 1744POPC   C3B25257  18.004   5.455   7.995
 1744POPC   C4B25258  17.784   5.654   7.613
 1745POPC   NC325259  23.753   1.872   9.431
 1745POPC   PO425260  23.595   2.486   9.524
 1745POPC   GL125261  23.802   2.299   9.163
 1745POPC   GL225262  23.547   2.411   8.994
 1745POPC   C1A25263  23.767   2.026   8.758
 1745POPC   D2A25264  23.581   1.724   8.475
 1745POPC   C3A25265  23.711   1.650   8.059
 1745POPC   C4A25266  23.913   1.971   7.851
 1745POPC   C1B25267  23.868   2.519   8.684
 1745POPC   C2B25268  23.567   2.367   8.410
 1745POPC   C3B25269  23.475   2.237   8.022
 1745POPC   C4B25270  23.674   2.374   7.636
 1746POPC   NC325271  17.233  10.522   9.669
 1746POPC   PO425272  17.682  10.968   9.558
 1746POPC   GL125273  17.484  10.697   9.260
 1746POPC   GL225274  17.601  10.352   9.234
 1746POPC   C1A25275  17.176  10.688   8.942
 1746POPC   D2A25276  17.086  10.574   8.487
 1746POPC   C3A25277  17.282  10.648   8.096
 1746POPC   C4A25278  17.604  10.416   7.904
 1746POPC   C1B25279  17.663  10.574   8.794
 1746POPC   C2B25280  17.741  10.700   8.337
 1746POPC   C3B25281  17.678  10.927   7.906
 1746POPC   C4B25282  17.713  10.944   7.415
 1747POPC   NC325283  22.512  27.941   9.406
 1747POPC   PO425284  22.958  27.515   9.672
 1747POPC   GL125285  22.998  27.518   9.210
 1747POPC   GL225286  23.092  27.874   9.222
 1747POPC   C1A25287  22.993  27.292   8.769
 1747POPC   D2A25288  22.807  27.178   8.339
 1747POPC   C3A25289  22.927  27.417   7.953
 1747POPC   C4A25290  23.249  27.724   7.784
 1747POPC   C1B25291  23.196  27.774   8.788
 1747POPC   C2B25292  23.013  27.692   8.399
 1747POPC   C3B25293  22.908  27.945   8.060
 1747POPC   C4B25294  22.727  27.976   7.657
 1748POPC   NC325295   8.378   0.099   9.451
 1748POPC   PO425296   8.178   0.709   9.264
 1748POPC   GL125297   8.195   0.363   9.029
 1748POPC   GL225298   7.976   0.140   9.063
 1748POPC   C1A25299   8.118   0.366   8.587
 1748POPC   D2A25300   7.940   0.563   8.211
 1748POPC   C3A25301   8.132   0.401   7.851
 1748POPC   C4A25302   8.416   0.633   7.596
 1748POPC   C1B25303   7.840  44.950   8.672
 1748POPC   C2B25304   7.913   0.025   8.244
 1748POPC   C3B25305   7.658   0.165   7.928
 1748POPC   C4B25306   7.744   0.191   7.493
 1749POPC   NC325307  40.091  16.289   9.286
 1749POPC   PO425308  39.919  15.739   9.594
 1749POPC   GL125309  39.958  15.784   9.194
 1749POPC   GL225310  40.248  15.817   9.089
 1749POPC   C1A25311  39.788  15.972   8.787
 1749POPC   D2A25312  39.881  15.940   8.355
 1749POPC   C3A25313  39.744  15.726   7.987
 1749POPC   C4A25314  39.718  16.089   7.748
 1749POPC   C1B25315  40.288  15.898   8.688
 1749POPC   C2B25316  40.359  16.088   8.326
 1749POPC   C3B25317  40.191  16.089   7.935
 1749POPC   C4B25318  40.317  15.822   7.613
 1750POPC   NC325319  30.429   3.629   9.477
 1750POPC   PO425320  31.117   3.525   9.579
 1750POPC   GL125321  30.891   3.631   9.232
 1750POPC   GL225322  30.855   3.269   9.142
 1750POPC   C1A25323  30.811   3.620   8.786
 1750POPC   D2A25324  30.861   3.362   8.428
 1750POPC   C3A25325  30.985   3.560   8.070
 1750POPC   C4A25326  31.024   3.408   7.642
 1750POPC   C1B25327  30.560   3.118   8.769
 1750POPC   C2B25328  30.458   2.997   8.318
 1750POPC   C3B25329  30.645   3.195   7.953
 1750POPC   C4B25330  30.527   3.621   7.792
 1751POPC   NC325331  25.924  31.919   9.336
 1751POPC   PO425332  26.002  31.209   9.524
 1751POPC   GL125333  26.025  31.254   9.106
 1751POPC   GL225334  25.696  31.066   9.109
 1751POPC   C1A25335  26.163  31.554   8.747
 1751POPC   D2A25336  26.188  31.865   8.364
 1751POPC   C3A25337  26.170  31.645   7.949
 1751POPC   C4A25338  26.359  31.222   7.885
 1751POPC   C1B25339  25.721  31.277   8.704
 1751POPC   C2B25340  25.821  31.503   8.354
 1751POPC   C3B25341  25.858  31.250   8.025
 1751POPC   C4B25342  25.794  31.338   7.642
 1752POPC   NC325343  24.065  26.791   9.487
 1752POPC   PO425344  24.762  26.601   9.559
 1752POPC   GL125345  24.450  26.683   9.191
 1752POPC   GL225346  24.475  27.011   9.002
 1752POPC   C1A25347  24.249  26.641   8.777
 1752POPC   D2A25348  24.490  26.851   8.493
 1752POPC   C3A25349  24.277  26.859   8.137
 1752POPC   C4A25350  24.120  26.634   7.812
 1752POPC   C1B25351  24.816  27.184   8.771
 1752POPC   C2B25352  24.942  27.085   8.381
 1752POPC   C3B25353  24.676  27.172   8.041
 1752POPC   C4B25354  24.401  27.060   7.677
 1753POPC   NC325355  35.574   4.493   9.496
 1753POPC   PO425356  34.892   4.230   9.470
 1753POPC   GL125357  35.180   4.278   9.146
 1753POPC   GL225358  35.449   4.084   9.139
 1753POPC   C1A25359  35.369   4.459   8.764
 1753POPC   D2A25360  35.157   4.465   8.367
 1753POPC   C3A25361  35.241   4.598   7.963
 1753POPC   C4A25362  35.260   4.373   7.569
 1753POPC   C1B25363  35.696   4.060   8.760
 1753POPC   C2B25364  35.650   4.251   8.360
 1753POPC   C3B25365  35.482   4.133   7.976
 1753POPC   C4B25366  35.672   4.027   7.586
 1754POPC   NC325367   9.492  40.128   9.488
 1754POPC   PO425368  10.099  40.213   9.474
 1754POPC   GL125369   9.941  39.924   9.099
 1754POPC   GL225370   9.585  39.877   9.062
 1754POPC   C1A25371   9.875  39.801   8.626
 1754POPC   D2A25372  10.033  39.987   8.252
 1754POPC   C3A25373   9.816  40.354   8.067
 1754POPC   C4A25374   9.832  40.167   7.662
 1754POPC   C1B25375   9.589  40.193   8.732
 1754POPC   C2B25376   9.428  40.127   8.346
 1754POPC   C3B25377   9.554  39.925   7.996
 1754POPC   C4B25378   9.560  39.722   7.632
 1755POPC   NC325379  44.290  20.008   9.330
 1755POPC   PO425380  44.921  19.829   9.443
 1755POPC   GL125381  44.829  19.903   9.086
 1755POPC   GL225382  44.806  20.253   9.159
 1755POPC   C1A25383  44.615  19.622   8.784
 1755POPC   D2A25384  44.552  19.383   8.403
 1755POPC   C3A25385  44.514  19.575   8.036
 1755POPC   C4A25386  44.477  19.788   7.657
 1755POPC   C1B25387  44.646  20.219   8.753
 1755POPC   C2B25388  44.705  19.974   8.411
 1755POPC   C3B25389  44.519  20.095   8.068
 1755POPC   C4B25390  44.661  20.269   7.696
 1756POPC   NC325391  24.587  19.594   9.473
 1756POPC   PO425392  24.633  20.229   9.247
 1756POPC   GL125393  24.485  19.873   9.056
 1756POPC   GL225394  24.753  19.642   8.999
 1756POPC   C1A25395  24.266  19.776   8.700
 1756POPC   D2A25396  24.320  19.744   8.253
 1756POPC   C3A25397  24.462  19.466   7.939
 1756POPC   C4A25398  24.278  19.464   7.508
 1756POPC   C1B25399  24.764  19.727   8.587
 1756POPC   C2B25400  24.688  20.095   8.393
 1756POPC   C3B25401  24.498  20.177   8.038
 1756POPC   C4B25402  24.591  19.912   7.696
 1757POPC   NC325403   8.981  11.743   9.348
 1757POPC   PO425404   8.626  12.297   9.274
 1757POPC   GL125405   8.887  12.149   8.994
 1757POPC   GL225406   9.178  12.145   9.027
 1757POPC   C1A25407   8.967  12.059   8.566
 1757POPC   D2A25408   8.657  12.148   8.273
 1757POPC   C3A25409   8.771  12.245   7.868
 1757POPC   C4A25410   9.024  11.997   7.609
 1757POPC   C1B25411   9.258  12.478   8.740
 1757POPC   C2B25412   9.108  12.488   8.297
 1757POPC   C3B25413   9.313  12.332   7.917
 1757POPC   C4B25414   9.333  12.341   7.444
 1758POPC   NC325415  25.784  40.239   9.473
 1758POPC   PO425416  26.398  40.149   9.491
 1758POPC   GL125417  26.166  40.004   9.162
 1758POPC   GL225418  26.385  39.754   9.053
 1758POPC   C1A25419  26.081  40.161   8.759
 1758POPC   D2A25420  25.975  39.991   8.363
 1758POPC   C3A25421  25.742  40.177   8.060
 1758POPC   C4A25422  25.986  40.176   7.691
 1758POPC   C1B25423  26.222  39.673   8.683
 1758POPC   C2B25424  26.490  39.900   8.403
 1758POPC   C3B25425  26.417  40.028   8.001
 1758POPC   C4B25426  26.283  39.754   7.732
 1759POPC   NC325427  24.662  31.344   9.661
 1759POPC   PO425428  24.736  30.717   9.355
 1759POPC   GL125429  24.488  30.774   9.025
 1759POPC   GL225430  24.263  30.556   9.108
 1759POPC   C1A25431  24.456  30.648   8.605
 1759POPC   D2A25432  24.725  30.534   8.312
 1759POPC   C3A25433  24.611  30.751   7.987
 1759POPC   C4A25434  24.626  30.535   7.625
 1759POPC   C1B25435  24.209  30.269   8.817
 1759POPC   C2B25436  23.997  30.301   8.456
 1759POPC   C3B25437  24.230  30.422   8.089
 1759POPC   C4B25438  24.266  30.166   7.708
 1760POPC   NC325439  39.145  12.332   9.789
 1760POPC   PO425440  39.102  12.965   9.518
 1760POPC   GL125441  38.948  13.029   9.121
 1760POPC   GL225442  38.788  12.694   9.185
 1760POPC   C1A25443  39.110  13.018   8.685
 1760POPC   D2A25444  39.263  12.694   8.387
 1760POPC   C3A25445  39.370  12.909   8.011
 1760POPC   C4A25446  39.386  13.062   7.556
 1760POPC   C1B25447  38.968  12.501   8.833
 1760POPC   C2B25448  38.789  12.470   8.426
 1760POPC   C3B25449  38.921  12.415   7.975
 1760POPC   C4B25450  39.222  12.573   7.665
 1761POPC   NC325451  22.297  30.254   9.404
 1761POPC   PO425452  21.715  30.158   9.307
 1761POPC   GL125453  21.920  30.218   8.962
 1761POPC   GL225454  22.162  29.947   9.011
 1761POPC   C1A25455  21.967  30.074   8.535
 1761POPC   D2A25456  22.340  29.804   8.407
 1761POPC   C3A25457  22.352  29.691   7.953
 1761POPC   C4A25458  22.015  29.881   7.697
 1761POPC   C1B25459  22.407  30.224   8.768
 1761POPC   C2B25460  22.324  30.421   8.410
 1761POPC   C3B25461  22.257  30.183   8.070
 1761POPC   C4B25462  22.473  30.128   7.677
 1762POPC   NC325463  29.055  17.057   9.473
 1762POPC   PO425464  29.226  16.391   9.543
 1762POPC   GL125465  28.971  16.531   9.225
 1762POPC   GL225466  29.234  16.723   9.116
 1762POPC   C1A25467  28.848  16.589   8.796
 1762POPC   D2A25468  28.986  16.495   8.386
 1762POPC   C3A25469  28.831  16.839   8.182
 1762POPC   C4A25470  28.827  17.031   7.809
 1762POPC   C1B25471  29.365  16.670   8.710
 1762POPC   C2B25472  29.310  16.926   8.397
 1762POPC   C3B25473  29.377  16.820   8.006
 1762POPC   C4B25474  29.291  16.933   7.620
 1763POPC   NC325475   2.474   6.806   9.477
 1763POPC   PO425476   3.146   6.735   9.530
 1763POPC   GL125477   2.846   6.564   9.229
 1763POPC   GL225478   2.756   6.906   9.062
 1763POPC   C1A25479   2.656   6.471   8.836
 1763POPC   D2A25480   2.816   6.633   8.434
 1763POPC   C3A25481   2.708   6.405   8.054
 1763POPC   C4A25482   2.871   6.491   7.652
 1763POPC   C1B25483   2.478   6.916   8.695
 1763POPC   C2B25484   2.395   6.892   8.231
 1763POPC   C3B25485   2.712   6.938   7.891
 1763POPC   C4B25486   2.700   6.924   7.423
 1764POPC   NC325487  30.321  44.930   9.645
 1764POPC   PO425488  29.749  44.526   9.535
 1764POPC   GL125489  29.890  44.495   9.105
 1764POPC   GL225490  30.215  44.651   9.197
 1764POPC   C1A25491  29.892  44.240   8.687
 1764POPC   D2A25492  29.896  44.262   8.266
 1764POPC   C3A25493  29.834  44.662   8.138
 1764POPC   C4A25494  29.655  44.744   7.782
 1764POPC   C1B25495  30.328  44.405   8.858
 1764POPC   C2B25496  30.397  44.262   8.422
 1764POPC   C3B25497  30.322  44.473   8.043
 1764POPC   C4B25498  30.002  44.359   7.749
 1765POPC   NC325499  30.182   0.194   9.193
 1765POPC   PO425500  29.764   0.501   9.538
 1765POPC   GL125501  29.821   0.637   9.097
 1765POPC   GL225502  30.143   0.680   9.040
 1765POPC   C1A25503  29.824   0.429   8.675
 1765POPC   D2A25504  29.761   0.173   8.288
 1765POPC   C3A25505  29.848   0.352   7.895
 1765POPC   C4A25506  29.668   0.607   7.582
 1765POPC   C1B25507  30.329   0.540   8.662
 1765POPC   C2B25508  30.285   0.254   8.316
 1765POPC   C3B25509  30.370   0.334   7.885
 1765POPC   C4B25510  30.187   0.401   7.487
 1766POPC   NC325511  20.068  31.369   9.426
 1766POPC   PO425512  19.525  31.722   9.434
 1766POPC   GL125513  19.760  31.612   9.092
 1766POPC   GL225514  20.021  31.836   9.101
 1766POPC   C1A25515  19.723  31.371   8.727
 1766POPC   D2A25516  19.544  31.427   8.347
 1766POPC   C3A25517  19.806  31.341   8.009
 1766POPC   C4A25518  19.657  31.327   7.622
 1766POPC   C1B25519  20.148  31.714   8.744
 1766POPC   C2B25520  19.950  31.750   8.406
 1766POPC   C3B25521  20.175  31.719   8.090
 1766POPC   C4B25522  19.972  31.790   7.777
 1767POPC   NC325523  28.652  32.472   9.553
 1767POPC   PO425524  28.275  31.967   9.703
 1767POPC   GL125525  28.260  32.239   9.314
 1767POPC   GL225526  28.586  32.084   9.223
 1767POPC   C1A25527  28.326  32.444   8.909
 1767POPC   D2A25528  28.491  32.432   8.476
 1767POPC   C3A25529  28.366  32.127   8.156
 1767POPC   C4A25530  28.276  32.315   7.765
 1767POPC   C1B25531  28.691  32.071   8.794
 1767POPC   C2B25532  28.789  31.907   8.387
 1767POPC   C3B25533  28.858  31.902   7.958
 1767POPC   C4B25534  28.823  32.310   7.792
 1768POPC   NC325535  20.468   6.875   9.570
 1768POPC   PO425536  20.773   6.268   9.410
 1768POPC   GL125537  20.656   6.566   9.117
 1768POPC   GL225538  20.795   6.901   9.187
 1768POPC   C1A25539  20.684   6.373   8.720
 1768POPC   D2A25540  20.415   6.269   8.398
 1768POPC   C3A25541  20.671   6.319   8.077
 1768POPC   C4A25542  20.644   6.446   7.695
 1768POPC   C1B25543  20.639   7.105   8.841
 1768POPC   C2B25544  20.463   7.058   8.450
 1768POPC   C3B25545  20.496   6.850   8.058
 1768POPC   C4B25546  20.713   6.997   7.712
 1769POPC   NC325547  39.453   8.751   9.401
 1769POPC   PO425548  39.167   9.399   9.386
 1769POPC   GL125549  39.169   9.115   9.099
 1769POPC   GL225550  39.495   9.145   9.057
 1769POPC   C1A25551  39.211   8.846   8.757
 1769POPC   D2A25552  39.408   8.834   8.362
 1769POPC   C3A25553  39.181   8.620   8.042
 1769POPC   C4A25554  39.136   8.816   7.631
 1769POPC   C1B25555  39.470   9.309   8.640
 1769POPC   C2B25556  39.561   9.303   8.192
 1769POPC   C3B25557  39.530   9.129   7.741
 1769POPC   C4B25558  39.317   9.215   7.330
 1770POPC   NC325559  33.578  23.098   9.352
 1770POPC   PO425560  34.176  22.832   9.604
 1770POPC   GL125561  33.930  22.765   9.187
 1770POPC   GL225562  33.903  23.094   8.963
 1770POPC   C1A25563  33.940  22.640   8.743
 1770POPC   D2A25564  33.686  22.871   8.414
 1770POPC   C3A25565  33.958  23.145   8.176
 1770POPC   C4A25566  34.174  22.831   7.919
 1770POPC   C1B25567  33.541  23.270   8.698
 1770POPC   C2B25568  33.257  23.149   8.342
 1770POPC   C3B25569  33.288  22.877   8.008
 1770POPC   C4B25570  33.649  23.026   7.787
 1771POPC   NC325571  41.879  23.015   9.557
 1771POPC   PO425572  41.355  22.482   9.504
 1771POPC   GL125573  41.401  22.844   9.169
 1771POPC   GL225574  41.683  23.128   9.113
 1771POPC   C1A25575  41.368  22.993   8.734
 1771POPC   D2A25576  41.742  22.999   8.443
 1771POPC   C3A25577  41.557  23.008   8.056
 1771POPC   C4A25578  41.281  22.711   7.858
 1771POPC   C1B25579  41.643  23.410   8.773
 1771POPC   C2B25580  41.448  23.414   8.406
 1771POPC   C3B25581  41.605  23.529   8.012
 1771POPC   C4B25582  41.613  23.309   7.659
 1772POPC   NC325583  43.421  23.112   9.308
 1772POPC   PO425584  44.035  23.023   9.499
 1772POPC   GL125585  43.908  22.956   9.131
 1772POPC   GL225586  44.023  22.610   9.135
 1772POPC   C1A25587  43.838  23.109   8.719
 1772POPC   D2A25588  43.999  23.003   8.331
 1772POPC   C3A25589  43.761  22.835   8.048
 1772POPC   C4A25590  43.536  22.989   7.709
 1772POPC   C1B25591  44.236  22.792   8.780
 1772POPC   C2B25592  44.423  22.742   8.373
 1772POPC   C3B25593  44.305  22.776   7.969
 1772POPC   C4B25594  44.082  22.959   7.665
 1773POPC   NC325595  43.642  40.368   9.556
 1773POPC   PO425596  43.935  39.830   9.567
 1773POPC   GL125597  43.938  40.125   9.198
 1773POPC   GL225598  44.266  40.264   9.147
 1773POPC   C1A25599  43.733  40.092   8.764
 1773POPC   D2A25600  43.919  39.936   8.359
 1773POPC   C3A25601  43.743  40.020   7.951
 1773POPC   C4A25602  43.647  40.014   7.493
 1773POPC   C1B25603  44.242  40.088   8.762
 1773POPC   C2B25604  44.412  40.143   8.374
 1773POPC   C3B25605  44.233  40.209   8.003
 1773POPC   C4B25606  44.020  40.327   7.646
 1774POPC   NC325607  30.022   0.876   9.521
 1774POPC   PO425608  29.729   1.477   9.539
 1774POPC   GL125609  29.760   1.438   9.094
 1774POPC   GL225610  30.009   1.176   9.059
 1774POPC   C1A25611  29.836   1.386   8.623
 1774POPC   D2A25612  29.924   1.180   8.220
 1774POPC   C3A25613  29.908   1.476   7.917
 1774POPC   C4A25614  29.801   1.557   7.514
 1774POPC   C1B25615  29.982   0.917   8.654
 1774POPC   C2B25616  30.012   0.680   8.263
 1774POPC   C3B25617  30.120   0.807   7.852
 1774POPC   C4B25618  30.050   0.877   7.409
 1775POPC   NC325619  36.011  38.680   9.367
 1775POPC   PO425620  35.704  38.236   9.791
 1775POPC   GL125621  35.912  38.185   9.314
 1775POPC   GL225622  36.277  38.276   9.164
 1775POPC   C1A25623  35.908  38.101   8.859
 1775POPC   D2A25624  36.096  38.058   8.458
 1775POPC   C3A25625  36.065  38.298   8.126
 1775POPC   C4A25626  36.080  38.219   7.718
 1775POPC   C1B25627  36.200  38.517   8.734
 1775POPC   C2B25628  36.106  38.757   8.330
 1775POPC   C3B25629  36.233  38.719   7.865
 1775POPC   C4B25630  36.508  38.553   7.501
 1776POPC   NC325631  33.966  42.423   9.340
 1776POPC   PO425632  34.597  42.486   9.480
 1776POPC   GL125633  34.434  42.288   9.112
 1776POPC   GL225634  34.504  42.592   8.986
 1776POPC   C1A25635  34.599  42.194   8.690
 1776POPC   D2A25636  34.420  42.148   8.286
 1776POPC   C3A25637  34.671  42.281   7.978
 1776POPC   C4A25638  35.037  42.207   7.819
 1776POPC   C1B25639  34.824  42.718   8.704
 1776POPC   C2B25640  34.618  42.660   8.337
 1776POPC   C3B25641  34.275  42.590   8.088
 1776POPC   C4B25642  34.155  42.258   7.846
 1777POPC   NC325643  14.952  32.648   9.250
 1777POPC   PO425644  15.412  32.265   9.481
 1777POPC   GL125645  15.242  32.220   9.075
 1777POPC   GL225646  14.930  32.098   9.016
 1777POPC   C1A25647  15.239  31.949   8.680
 1777POPC   D2A25648  15.032  32.089   8.331
 1777POPC   C3A25649  15.190  32.028   7.944
 1777POPC   C4A25650  15.536  31.955   7.707
 1777POPC   C1B25651  14.769  32.375   8.679
 1777POPC   C2B25652  14.876  32.599   8.305
 1777POPC   C3B25653  14.928  32.479   7.885
 1777POPC   C4B25654  14.637  32.535   7.575
 1778POPC   NC325655  12.556   1.583   9.631
 1778POPC   PO425656  12.962   0.995   9.553
 1778POPC   GL125657  13.106   1.039   9.076
 1778POPC   GL225658  12.992   1.358   8.928
 1778POPC   C1A25659  12.885   0.942   8.697
 1778POPC   D2A25660  12.816   1.182   8.295
 1778POPC   C3A25661  12.833   0.955   7.928
 1778POPC   C4A25662  12.496   0.788   7.686
 1778POPC   C1B25663  12.549   1.394   8.668
 1778POPC   C2B25664  12.491   1.607   8.229
 1778POPC   C3B25665  12.779   1.534   7.903
 1778POPC   C4B25666  13.147   1.379   7.763
 1779POPC   NC325667   6.233  37.937   9.593
 1779POPC   PO425668   6.801  37.562   9.502
 1779POPC   GL125669   6.531  37.702   9.181
 1779POPC   GL225670   6.335  38.051   9.124
 1779POPC   C1A25671   6.635  37.499   8.777
 1779POPC   D2A25672   6.483  37.400   8.370
 1779POPC   C3A25673   6.757  37.444   8.005
 1779POPC   C4A25674   6.565  37.576   7.617
 1779POPC   C1B25675   6.587  38.025   8.789
 1779POPC   C2B25676   6.677  37.875   8.410
 1779POPC   C3B25677   6.567  37.915   8.015
 1779POPC   C4B25678   6.968  37.883   7.814
 1780POPC   NC325679  10.831  33.893   9.620
 1780POPC   PO425680  11.499  33.997   9.470
 1780POPC   GL125681  11.290  33.844   9.146
 1780POPC   GL225682  11.099  33.593   9.287
 1780POPC   C1A25683  11.351  33.911   8.707
 1780POPC   D2A25684  11.372  33.677   8.320
 1780POPC   C3A25685  11.432  33.891   7.937
 1780POPC   C4A25686  11.454  33.769   7.509
 1780POPC   C1B25687  10.965  33.601   8.830
 1780POPC   C2B25688  10.848  33.741   8.395
 1780POPC   C3B25689  10.943  33.709   7.964
 1780POPC   C4B25690  10.956  33.802   7.535
 1781POPC   NC325691  33.210  21.798   9.665
 1781POPC   PO425692  32.590  21.819   9.460
 1781POPC   GL125693  32.771  21.585   9.136
 1781POPC   GL225694  33.105  21.445   9.205
 1781POPC   C1A25695  32.831  21.692   8.725
 1781POPC   D2A25696  33.049  21.495   8.393
 1781POPC   C3A25697  33.077  21.592   7.977
 1781POPC   C4A25698  33.258  21.300   7.691
 1781POPC   C1B25699  33.070  21.238   8.833
 1781POPC   C2B25700  33.152  21.002   8.454
 1781POPC   C3B25701  33.039  21.039   8.066
 1781POPC   C4B25702  33.040  20.829   7.700
 1782POPC   NC325703  20.772  38.453   9.410
 1782POPC   PO425704  20.253  37.988   9.454
 1782POPC   GL125705  20.440  38.288   9.074
 1782POPC   GL225706  20.516  38.693   9.042
 1782POPC   C1A25707  20.607  38.359   8.642
 1782POPC   D2A25708  20.392  38.446   8.247
 1782POPC   C3A25709  20.459  38.252   7.872
 1782POPC   C4A25710  20.506  38.362   7.457
 1782POPC   C1B25711  20.895  38.782   8.770
 1782POPC   C2B25712  20.889  38.646   8.283
 1782POPC   C3B25713  20.693  38.729   7.860
 1782POPC   C4B25714  20.885  38.696   7.437
 1783POPC   NC325715  24.779   7.221   9.512
 1783POPC   PO425716  24.099   7.417   9.489
 1783POPC   GL125717  24.424   7.368   9.168
 1783POPC   GL225718  24.714   7.540   9.130
 1783POPC   C1A25719  24.497   7.266   8.732
 1783POPC   D2A25720  24.206   7.294   8.367
 1783POPC   C3A25721  24.502   7.302   8.012
 1783POPC   C4A25722  24.574   7.479   7.638
 1783POPC   C1B25723  24.644   7.768   8.768
 1783POPC   C2B25724  24.583   7.645   8.382
 1783POPC   C3B25725  24.709   7.792   8.017
 1783POPC   C4B25726  24.893   7.858   7.651
 1784POPC   NC325727  25.578   4.770   9.470
 1784POPC   PO425728  25.101   5.174   9.731
 1784POPC   GL125729  25.142   5.148   9.248
 1784POPC   GL225730  24.834   5.351   9.170
 1784POPC   C1A25731  25.371   5.070   8.803
 1784POPC   D2A25732  25.544   5.029   8.367
 1784POPC   C3A25733  25.253   4.765   8.093
 1784POPC   C4A25734  25.107   4.805   7.647
 1784POPC   C1B25735  24.970   5.376   8.757
 1784POPC   C2B25736  25.078   5.206   8.335
 1784POPC   C3B25737  25.053   5.383   7.921
 1784POPC   C4B25738  24.791   5.459   7.547
 1785POPC   NC325739  40.425   3.413   9.485
 1785POPC   PO425740  39.735   3.356   9.684
 1785POPC   GL125741  39.963   3.420   9.254
 1785POPC   GL225742  39.727   3.542   9.024
 1785POPC   C1A25743  40.186   3.491   8.854
 1785POPC   D2A25744  40.243   3.567   8.448
 1785POPC   C3A25745  40.176   3.243   8.193
 1785POPC   C4A25746  40.069   3.310   7.792
 1785POPC   C1B25747  39.751   3.646   8.575
 1785POPC   C2B25748  39.814   3.631   8.120
 1785POPC   C3B25749  40.051   3.843   7.795
 1785POPC   C4B25750  40.068   4.054   7.378
 1786POPC   NC325751  34.891  12.264   9.391
 1786POPC   PO425752  34.497  11.741   9.457
 1786POPC   GL125753  34.483  12.042   9.165
 1786POPC   GL225754  34.184  12.232   9.173
 1786POPC   C1A25755  34.643  12.052   8.753
 1786POPC   D2A25756  34.517  11.782   8.413
 1786POPC   C3A25757  34.585  11.973   8.004
 1786POPC   C4A25758  34.866  12.035   7.643
 1786POPC   C1B25759  34.135  11.980   8.776
 1786POPC   C2B25760  34.141  12.153   8.357
 1786POPC   C3B25761  34.202  12.342   7.949
 1786POPC   C4B25762  34.377  12.190   7.572
 1787POPC   NC325763  39.288   6.330   9.521
 1787POPC   PO425764  39.060   5.686   9.412
 1787POPC   GL125765  39.236   5.961   9.119
 1787POPC   GL225766  39.019   6.241   9.099
 1787POPC   C1A25767  39.312   5.800   8.695
 1787POPC   D2A25768  39.370   5.603   8.304
 1787POPC   C3A25769  39.049   5.774   8.100
 1787POPC   C4A25770  39.106   5.808   7.675
 1787POPC   C1B25771  38.857   6.104   8.730
 1787POPC   C2B25772  38.864   6.228   8.312
 1787POPC   C3B25773  38.780   6.134   7.881
 1787POPC   C4B25774  38.962   6.284   7.472
 1788POPC   NC325775  24.301  27.823   9.478
 1788POPC   PO425776  24.379  27.132   9.474
 1788POPC   GL125777  24.586  27.444   9.227
 1788POPC   GL225778  24.950  27.508   9.206
 1788POPC   C1A25779  24.440  27.534   8.796
 1788POPC   D2A25780  24.321  27.316   8.401
 1788POPC   C3A25781  24.217  27.446   7.978
 1788POPC   C4A25782  24.214  27.877   7.795
 1788POPC   C1B25783  24.965  27.677   8.760
 1788POPC   C2B25784  24.770  27.602   8.377
 1788POPC   C3B25785  24.685  27.670   7.960
 1788POPC   C4B25786  24.927  27.434   7.680
 1789POPC   NC325787  19.042  20.037   9.665
 1789POPC   PO425788  18.565  19.795   9.560
 1789POPC   GL125789  18.814  19.876   9.154
 1789POPC   GL225790  19.178  19.861   9.151
 1789POPC   C1A25791  18.859  19.873   8.677
 1789POPC   D2A25792  19.092  19.915   8.284
 1789POPC   C3A25793  18.885  19.897   7.865
 1789POPC   C4A25794  19.121  19.943   7.484
 1789POPC   C1B25795  19.077  19.474   8.896
 1789POPC   C2B25796  19.098  19.404   8.440
 1789POPC   C3B25797  19.141  19.473   7.972
 1789POPC   C4B25798  19.315  19.467   7.530
 1790POPC   NC325799   0.473  33.508   9.488
 1790POPC   PO425800   0.506  34.195   9.565
 1790POPC   GL125801   0.218  33.919   9.271
 1790POPC   GL225802   0.218  34.099   8.988
 1790POPC   C1A25803   0.214  33.580   8.895
 1790POPC   D2A25804   0.310  33.556   8.457
 1790POPC   C3A25805   0.046  33.412   8.129
 1790POPC   C4A25806   0.176  33.539   7.704
 1790POPC   C1B25807   0.619  33.897   8.890
 1790POPC   C2B25808   0.665  33.931   8.469
 1790POPC   C3B25809   0.584  33.777   8.062
 1790POPC   C4B25810   0.892  33.605   7.823
 1791POPC   NC325811  44.224  17.037   9.344
 1791POPC   PO425812  44.902  16.755   9.534
 1791POPC   GL125813  44.931  16.631   9.113
 1791POPC   GL225814  44.564  16.690   9.071
 1791POPC   C1A25815  44.881  16.693   8.660
 1791POPC   D2A25816   0.043  16.824   8.275
 1791POPC   C3A25817  44.931  16.633   7.903
 1791POPC   C4A25818  44.554  16.649   7.734
 1791POPC   C1B25819  44.348  16.729   8.660
 1791POPC   C2B25820  44.370  16.866   8.239
 1791POPC   C3B25821  44.252  17.046   7.832
 1791POPC   C4B25822  44.399  17.017   7.399
 1792POPC   NC325823  18.070  22.717   9.530
 1792POPC   PO425824  17.772  23.256   9.253
 1792POPC   GL125825  17.936  23.063   8.901
 1792POPC   GL225826  18.182  22.790   9.038
 1792POPC   C1A25827  18.235  22.963   8.572
 1792POPC   D2A25828  18.549  23.009   8.311
 1792POPC   C3A25829  18.343  23.053   7.951
 1792POPC   C4A25830  18.094  22.741   7.748
 1792POPC   C1B25831  18.317  22.499   8.737
 1792POPC   C2B25832  18.399  22.502   8.309
 1792POPC   C3B25833  18.570  22.556   7.923
 1792POPC   C4B25834  18.673  22.831   7.641
 1793POPC   NC325835  40.557  26.290   9.754
 1793POPC   PO425836  40.860  25.731   9.818
 1793POPC   GL125837  40.728  25.924   9.386
 1793POPC   GL225838  40.675  25.676   9.169
 1793POPC   C1A25839  40.836  26.084   8.912
 1793POPC   D2A25840  40.930  26.250   8.490
 1793POPC   C3A25841  40.933  25.928   8.184
 1793POPC   C4A25842  40.944  26.155   7.858
 1793POPC   C1B25843  40.462  25.771   8.792
 1793POPC   C2B25844  40.558  25.654   8.408
 1793POPC   C3B25845  40.393  25.721   8.040
 1793POPC   C4B25846  40.542  25.883   7.700
 1794POPC   NC325847   1.597  44.744   9.507
 1794POPC   PO425848   0.885  44.461   9.472
 1794POPC   GL125849   1.176  44.632   9.182
 1794POPC   GL225850   1.096  44.988   9.237
 1794POPC   C1A25851   1.330  44.636   8.758
 1794POPC   D2A25852   1.394  44.425   8.342
 1794POPC   C3A25853   1.028  44.373   8.109
 1794POPC   C4A25854   0.874  44.443   7.725
 1794POPC   C1B25855   1.248   0.162   8.845
 1794POPC   C2B25856   1.217   0.012   8.432
 1794POPC   C3B25857   1.237  44.844   8.052
 1794POPC   C4B25858   1.101   0.014   7.700
 1795POPC   NC325859  33.434  16.710   9.432
 1795POPC   PO425860  32.964  17.191   9.458
 1795POPC   GL125861  32.967  16.801   9.198
 1795POPC   GL225862  33.201  16.570   9.021
 1795POPC   C1A25863  32.963  16.951   8.784
 1795POPC   D2A25864  32.671  16.978   8.434
 1795POPC   C3A25865  32.844  17.064   8.054
 1795POPC   C4A25866  32.834  16.881   7.678
 1795POPC   C1B25867  33.422  16.726   8.708
 1795POPC   C2B25868  33.189  16.794   8.344
 1795POPC   C3B25869  33.178  16.526   7.995
 1795POPC   C4B25870  33.026  16.405   7.607
 1796POPC   NC325871  27.224  21.662   9.761
 1796POPC   PO425872  26.692  21.316   9.542
 1796POPC   GL125873  26.960  21.387   9.212
 1796POPC   GL225874  26.818  21.093   9.089
 1796POPC   C1A25875  27.182  21.355   8.808
 1796POPC   D2A25876  27.312  21.627   8.418
 1796POPC   C3A25877  27.366  21.631   7.934
 1796POPC   C4A25878  27.036  21.640   7.594
 1796POPC   C1B25879  26.675  21.161   8.698
 1796POPC   C2B25880  26.854  21.393   8.385
 1796POPC   C3B25881  26.977  21.300   7.994
 1796POPC   C4B25882  26.768  21.115   7.661
 1797POPC   NC325883   8.460  18.766   9.339
 1797POPC   PO425884   8.283  18.204   9.685
 1797POPC   GL125885   8.324  18.223   9.217
 1797POPC   GL225886   8.646  18.232   9.216
 1797POPC   C1A25887   8.102  18.182   8.781
 1797POPC   D2A25888   7.953  18.039   8.357
 1797POPC   C3A25889   8.106  18.255   7.979
 1797POPC   C4A25890   8.353  18.481   7.649
 1797POPC   C1B25891   8.616  18.115   8.778
 1797POPC   C2B25892   8.448  18.305   8.412
 1797POPC   C3B25893   8.618  18.265   8.030
 1797POPC   C4B25894   8.722  18.113   7.623
 1798POPC   NC325895  40.263  10.425   9.549
 1798POPC   PO425896  40.975  10.189   9.564
 1798POPC   GL125897  40.829  10.467   9.193
 1798POPC   GL225898  40.514  10.452   9.126
 1798POPC   C1A25899  40.756  10.711   8.782
 1798POPC   D2A25900  40.485  10.665   8.419
 1798POPC   C3A25901  40.762  10.730   8.098
 1798POPC   C4A25902  40.826  10.586   7.723
 1798POPC   C1B25903  40.606  10.230   8.758
 1798POPC   C2B25904  40.840  10.284   8.403
 1798POPC   C3B25905  40.775  10.163   7.992
 1798POPC   C4B25906  41.090  10.130   7.659
 1799POPC   NC325907   9.642  27.365   9.625
 1799POPC   PO425908  10.168  27.756   9.593
 1799POPC   GL125909   9.855  27.849   9.315
 1799POPC   GL225910   9.887  27.511   9.171
 1799POPC   C1A25911   9.745  27.922   8.881
 1799POPC   D2A25912   9.580  27.657   8.557
 1799POPC   C3A25913   9.592  27.829   8.130
 1799POPC   C4A25914   9.257  27.956   7.894
 1799POPC   C1B25915  10.007  27.296   8.773
 1799POPC   C2B25916   9.845  27.144   8.369
 1799POPC   C3B25917   9.548  27.326   8.046
 1799POPC   C4B25918   9.514  27.592   7.644
 1800POPC   NC325919  22.039   7.871   9.551
 1800POPC   PO425920  22.210   8.515   9.554
 1800POPC   GL125921  21.986   8.266   9.203
 1800POPC   GL225922  21.789   7.926   9.109
 1800POPC   C1A25923  22.238   8.049   8.898
 1800POPC   D2A25924  22.259   8.032   8.434
 1800POPC   C3A25925  22.426   7.908   8.039
 1800POPC   C4A25926  22.514   8.193   7.721
 1800POPC   C1B25927  21.811   7.904   8.648
 1800POPC   C2B25928  21.934   7.696   8.243
 1800POPC   C3B25929  21.920   7.931   7.829
 1800POPC   C4B25930  21.829   7.857   7.357
 1801POPC   NC325931  21.031  35.070   9.485
 1801POPC   PO425932  21.410  35.567   9.454
 1801POPC   GL125933  21.170  35.382   9.123
 1801POPC   GL225934  20.903  35.572   9.011
 1801POPC   C1A25935  21.334  35.259   8.721
 1801POPC   D2A25936  21.305  35.153   8.290
 1801POPC   C3A25937  21.612  35.314   8.067
 1801POPC   C4A25938  21.746  35.222   7.671
 1801POPC   C1B25939  21.296  35.747   8.813
 1801POPC   C2B25940  21.494  35.694   8.430
 1801POPC   C3B25941  21.235  35.639   8.061
 1801POPC   C4B25942  21.272  35.471   7.669
 1802POPC   NC325943  34.366  23.197   9.402
 1802POPC   PO425944  34.569  23.739   9.754
 1802POPC   GL125945  34.479  23.631   9.203
 1802POPC   GL225946  34.639  23.895   8.892
 1802POPC   C1A25947  34.302  23.545   8.814
 1802POPC   D2A25948  34.424  23.774   8.442
 1802POPC   C3A25949  34.225  23.620   8.066
 1802POPC   C4A25950  34.361  23.712   7.651
 1802POPC   C1B25951  34.805  23.535   8.738
 1802POPC   C2B25952  34.920  23.383   8.369
 1802POPC   C3B25953  34.769  23.642   8.043
 1802POPC   C4B25954  34.841  23.553   7.630
 1803POPC   NC325955  41.471   5.375   9.615
 1803POPC   PO425956  41.685   4.801   9.435
 1803POPC   GL125957  41.363   4.938   9.189
 1803POPC   GL225958  41.369   5.299   9.082
 1803POPC   C1A25959  41.440   4.834   8.778
 1803POPC   D2A25960  41.332   4.931   8.382
 1803POPC   C3A25961  41.645   5.101   8.137
 1803POPC   C4A25962  41.643   4.958   7.743
 1803POPC   C1B25963  41.583   5.332   8.647
 1803POPC   C2B25964  41.827   5.556   8.310
 1803POPC   C3B25965  41.789   5.588   7.863
 1803POPC   C4B25966  41.791   5.354   7.465
 1804POPC   NC325967  37.195  24.883   9.521
 1804POPC   PO425968  36.976  24.202   9.438
 1804POPC   GL125969  36.890  24.563   9.177
 1804POPC   GL225970  37.207  24.709   9.063
 1804POPC   C1A25971  36.763  24.755   8.774
 1804POPC   D2A25972  36.878  24.733   8.333
 1804POPC   C3A25973  36.655  24.455   8.076
 1804POPC   C4A25974  36.745  24.314   7.642
 1804POPC   C1B25975  37.249  24.518   8.698
 1804POPC   C2B25976  37.370  24.570   8.273
 1804POPC   C3B25977  37.182  24.426   7.888
 1804POPC   C4B25978  37.244  24.595   7.441
 1805POPC   NC325979  44.544   3.933   9.955
 1805POPC   PO425980  44.900   3.442   9.588
 1805POPC   GL125981  44.821   3.341   9.160
 1805POPC   GL225982  44.569   3.600   9.208
 1805POPC   C1A25983  44.778   3.043   8.769
 1805POPC   D2A25984  44.937   2.953   8.322
 1805POPC   C3A25985  44.973   3.307   8.060
 1805POPC   C4A25986  44.848   3.397   7.682
 1805POPC   C1B25987  44.478   3.448   8.808
 1805POPC   C2B25988  44.757   3.491   8.484
 1805POPC   C3B25989  44.588   3.605   8.097
 1805POPC   C4B25990  44.343   3.461   7.776
 1806POPC   NC325991  12.269  26.898   9.369
 1806POPC   PO425992  11.737  26.557   9.582
 1806POPC   GL125993  11.797  26.695   9.162
 1806POPC   GL225994  11.850  27.038   9.123
 1806POPC   C1A25995  12.067  26.696   8.779
 1806POPC   D2A25996  11.991  26.780   8.354
 1806POPC   C3A25997  11.961  26.511   7.997
 1806POPC   C4A25998  11.792  26.586   7.579
 1806POPC   C1B25999  11.932  27.199   8.743
 1806POPC   C2B26000  12.208  27.225   8.449
 1806POPC   C3B26001  11.959  27.199   8.072
 1806POPC   C4B26002  12.102  26.984   7.731
 1807POPC   NC326003  28.295  11.886   9.444
 1807POPC   PO426004  28.116  12.513   9.473
 1807POPC   GL126005  28.240  12.265   9.111
 1807POPC   GL226006  28.594  12.271   9.221
 1807POPC   C1A26007  28.279  11.974   8.743
 1807POPC   D2A26008  27.983  11.937   8.360
 1807POPC   C3A26009  28.205  11.999   8.005
 1807POPC   C4A26010  28.369  11.692   7.756
 1807POPC   C1B26011  28.784  12.147   8.832
 1807POPC   C2B26012  28.658  12.097   8.416
 1807POPC   C3B26013  28.703  11.999   8.008
 1807POPC   C4B26014  28.776  11.998   7.588
 1808POPC   NC326015  34.366   8.998   9.558
 1808POPC   PO426016  34.908   8.732   9.249
 1808POPC   GL126017  34.550   8.876   9.045
 1808POPC   GL226018  34.593   9.206   9.148
 1808POPC   C1A26019  34.489   8.707   8.621
 1808POPC   D2A26020  34.796   8.635   8.275
 1808POPC   C3A26021  34.649   8.648   7.852
 1808POPC   C4A26022  34.751   8.662   7.405
 1808POPC   C1B26023  34.417   9.245   8.710
 1808POPC   C2B26024  34.534   9.088   8.267
 1808POPC   C3B26025  34.530   9.182   7.799
 1808POPC   C4B26026  34.633   9.143   7.357
 1809POPC   NC326027  20.897  35.829   9.457
 1809POPC   PO426028  20.303  36.289   9.540
 1809POPC   GL126029  20.483  36.010   9.214
 1809POPC   GL226030  20.762  36.196   9.062
 1809POPC   C1A26031  20.551  35.857   8.768
 1809POPC   D2A26032  20.527  36.105   8.410
 1809POPC   C3A26033  20.564  35.910   8.025
 1809POPC   C4A26034  20.267  35.675   7.823
 1809POPC   C1B26035  20.457  36.423   8.829
 1809POPC   C2B26036  20.431  36.641   8.435
 1809POPC   C3B26037  20.409  36.443   8.032
 1809POPC   C4B26038  20.167  36.166   7.788
 1810POPC   NC326039  31.068   0.468   9.373
 1810POPC   PO426040  30.347   0.537   9.461
 1810POPC   GL126041  30.643   0.566   9.110
 1810POPC   GL226042  30.901   0.860   9.085
 1810POPC   C1A26043  30.820   0.419   8.727
 1810POPC   D2A26044  30.703   0.563   8.309
 1810POPC   C3A26045  30.867   0.404   7.954
 1810POPC   C4A26046  30.741   0.446   7.513
 1810POPC   C1B26047  30.928   0.922   8.621
 1810POPC   C2B26048  30.877   1.030   8.189
 1810POPC   C3B26049  30.677   0.868   7.818
 1810POPC   C4B26050  30.886   0.947   7.438
 1811POPC   NC326051  23.165  36.209   9.614
 1811POPC   PO426052  22.657  35.814   9.528
 1811POPC   GL126053  22.947  35.972   9.210
 1811POPC   GL226054  23.013  36.323   9.143
 1811POPC   C1A26055  23.020  35.935   8.800
 1811POPC   D2A26056  22.951  36.113   8.389
 1811POPC   C3A26057  22.993  35.939   7.984
 1811POPC   C4A26058  22.914  35.995   7.525
 1811POPC   C1B26059  23.098  36.466   8.745
 1811POPC   C2B26060  23.263  36.523   8.322
 1811POPC   C3B26061  23.101  36.450   7.909
 1811POPC   C4B26062  23.139  36.476   7.461
 1812POPC   NC326063  32.060  18.946   9.637
 1812POPC   PO426064  32.596  19.308   9.522
 1812POPC   GL126065  32.300  19.264   9.236
 1812POPC   GL226066  32.327  18.930   9.188
 1812POPC   C1A26067  32.373  19.314   8.780
 1812POPC   D2A26068  32.556  19.132   8.409
 1812POPC   C3A26069  32.309  19.083   8.029
 1812POPC   C4A26070  32.304  19.156   7.563
 1812POPC   C1B26071  32.075  18.828   8.857
 1812POPC   C2B26072  32.157  18.756   8.426
 1812POPC   C3B26073  31.867  18.848   8.093
 1812POPC   C4B26074  31.806  18.671   7.704
 1813POPC   NC326075  33.354  13.436   9.453
 1813POPC   PO426076  32.653  13.537   9.471
 1813POPC   GL126077  32.890  13.414   9.132
 1813POPC   GL226078  33.086  13.712   9.102
 1813POPC   C1A26079  32.834  13.288   8.703
 1813POPC   D2A26080  32.850  13.551   8.327
 1813POPC   C3A26081  32.995  13.554   7.900
 1813POPC   C4A26082  32.995  13.235   7.535
 1813POPC   C1B26083  33.180  13.664   8.686
 1813POPC   C2B26084  33.279  13.836   8.255
 1813POPC   C3B26085  33.115  14.044   7.888
 1813POPC   C4B26086  32.780  13.929   7.586
 1814POPC   NC326087  25.653  35.002   9.471
 1814POPC   PO426088  25.549  35.585   9.321
 1814POPC   GL126089  25.413  35.265   9.088
 1814POPC   GL226090  25.069  35.244   9.097
 1814POPC   C1A26091  25.355  35.115   8.681
 1814POPC   D2A26092  25.129  35.240   8.329
 1814POPC   C3A26093  25.398  35.221   7.977
 1814POPC   C4A26094  25.421  35.414   7.605
 1814POPC   C1B26095  24.809  35.097   8.751
 1814POPC   C2B26096  24.691  34.967   8.309
 1814POPC   C3B26097  25.014  34.896   7.969
 1814POPC   C4B26098  25.073  35.041   7.537
 1815POPC   NC326099  34.981  29.193   9.536
 1815POPC   PO426100  35.664  28.940   9.455
 1815POPC   GL126101  35.563  29.180   9.074
 1815POPC   GL226102  35.251  29.271   9.121
 1815POPC   C1A26103  35.587  29.161   8.612
 1815POPC   D2A26104  35.494  28.903   8.267
 1815POPC   C3A26105  35.464  29.100   7.850
 1815POPC   C4A26106  35.653  29.208   7.433
 1815POPC   C1B26107  35.142  29.419   8.728
 1815POPC   C2B26108  35.161  29.288   8.318
 1815POPC   C3B26109  35.076  29.511   7.943
 1815POPC   C4B26110  35.126  29.422   7.520
 1816POPC   NC326111  22.694  23.305   9.621
 1816POPC   PO426112  22.259  23.731   9.480
 1816POPC   GL126113  21.988  23.746   9.134
 1816POPC   GL226114  21.958  23.389   9.127
 1816POPC   C1A26115  21.936  23.804   8.691
 1816POPC   D2A26116  22.207  23.838   8.323
 1816POPC   C3A26117  22.023  23.798   7.921
 1816POPC   C4A26118  22.174  23.987   7.544
 1816POPC   C1B26119  21.978  23.302   8.688
 1816POPC   C2B26120  21.872  23.455   8.278
 1816POPC   C3B26121  21.872  23.295   7.869
 1816POPC   C4B26122  21.984  23.429   7.459
 1817POPC   NC326123   7.389  16.512   9.648
 1817POPC   PO426124   7.155  17.041   9.319
 1817POPC   GL126125   7.405  16.729   9.134
 1817POPC   GL226126   7.755  16.659   9.195
 1817POPC   C1A26127   7.445  16.684   8.689
 1817POPC   D2A26128   7.380  16.360   8.393
 1817POPC   C3A26129   7.186  16.467   8.029
 1817POPC   C4A26130   7.159  16.836   7.806
 1817POPC   C1B26131   7.845  16.962   8.843
 1817POPC   C2B26132   7.746  17.009   8.413
 1817POPC   C3B26133   7.621  16.750   8.064
 1817POPC   C4B26134   7.729  16.882   7.669
 1818POPC   NC326135  35.251  16.957   9.519
 1818POPC   PO426136  35.762  16.570   9.339
 1818POPC   GL126137  35.458  16.687   9.072
 1818POPC   GL226138  35.119  16.813   9.041
 1818POPC   C1A26139  35.472  16.775   8.666
 1818POPC   D2A26140  35.364  16.488   8.394
 1818POPC   C3A26141  35.299  16.694   8.086
 1818POPC   C4A26142  35.262  16.720   7.709
 1818POPC   C1B26143  35.006  16.462   8.741
 1818POPC   C2B26144  34.848  16.508   8.286
 1818POPC   C3B26145  34.947  16.340   7.827
 1818POPC   C4B26146  34.798  16.267   7.369
 1819POPC   NC326147  20.800   0.690   9.648
 1819POPC   PO426148  20.331   0.222   9.632
 1819POPC   GL126149  20.562   0.300   9.230
 1819POPC   GL226150  20.677   0.638   9.145
 1819POPC   C1A26151  20.504   0.366   8.764
 1819POPC   D2A26152  20.265   0.506   8.422
 1819POPC   C3A26153  20.512   0.404   8.046
 1819POPC   C4A26154  20.968   0.436   7.997
 1819POPC   C1B26155  20.590   0.858   8.711
 1819POPC   C2B26156  20.650   0.849   8.237
 1819POPC   C3B26157  20.619   0.806   7.750
 1819POPC   C4B26158  20.434   0.693   7.319
 1820POPC   NC326159  36.526  10.107   9.558
 1820POPC   PO426160  36.133  10.702   9.496
 1820POPC   GL126161  35.964  10.507   9.125
 1820POPC   GL226162  35.669  10.380   9.243
 1820POPC   C1A26163  36.120  10.603   8.686
 1820POPC   D2A26164  36.182  10.411   8.239
 1820POPC   C3A26165  36.066  10.634   7.862
 1820POPC   C4A26166  36.229  10.844   7.512
 1820POPC   C1B26167  35.567  10.260   8.849
 1820POPC   C2B26168  35.733  10.344   8.474
 1820POPC   C3B26169  35.654  10.323   8.042
 1820POPC   C4B26170  35.873  10.188   7.642
 1821POPC   NC326171  43.575  19.312   9.260
 1821POPC   PO426172  43.975  18.845   9.359
 1821POPC   GL126173  43.986  19.136   9.013
 1821POPC   GL226174  43.719  18.992   8.835
 1821POPC   C1A26175  43.919  19.414   8.653
 1821POPC   D2A26176  43.645  19.219   8.319
 1821POPC   C3A26177  43.834  19.103   7.926
 1821POPC   C4A26178  44.126  19.337   7.675
 1821POPC   C1B26179  43.560  18.625   8.620
 1821POPC   C2B26180  43.559  18.529   8.208
 1821POPC   C3B26181  43.526  18.648   7.801
 1821POPC   C4B26182  43.769  18.839   7.462
 1822POPC   NC326183  32.521  33.109   9.452
 1822POPC   PO426184  32.093  32.584   9.666
 1822POPC   GL126185  32.222  32.704   9.236
 1822POPC   GL226186  31.934  32.811   9.042
 1822POPC   C1A26187  32.436  32.809   8.829
 1822POPC   D2A26188  32.713  32.749   8.449
 1822POPC   C3A26189  32.524  32.878   8.066
 1822POPC   C4A26190  32.374  33.164   7.772
 1822POPC   C1B26191  32.009  33.111   8.720
 1822POPC   C2B26192  32.104  33.161   8.275
 1822POPC   C3B26193  31.854  33.170   7.922
 1822POPC   C4B26194  31.659  33.320   7.561
 1823POPC   NC326195  11.176   6.641   9.492
 1823POPC   PO426196  11.805   7.098   9.603
 1823POPC   GL126197  11.581   6.875   9.210
 1823POPC   GL226198  11.491   6.506   9.135
 1823POPC   C1A26199  11.336   6.864   8.793
 1823POPC   D2A26200  11.429   6.661   8.367
 1823POPC   C3A26201  11.242   6.818   7.957
 1823POPC   C4A26202  10.917   7.129   7.741
 1823POPC   C1B26203  11.182   6.369   8.788
 1823POPC   C2B26204  10.963   6.437   8.358
 1823POPC   C3B26205  11.104   6.273   7.938
 1823POPC   C4B26206  11.061   6.301   7.461
 1824POPC   NC326207  42.881  10.214   9.591
 1824POPC   PO426208  43.286  10.717   9.549
 1824POPC   GL126209  43.179  10.433   9.211
 1824POPC   GL226210  42.850  10.509   9.146
 1824POPC   C1A26211  43.311  10.437   8.782
 1824POPC   D2A26212  43.315  10.722   8.407
 1824POPC   C3A26213  43.274  10.562   7.986
 1824POPC   C4A26214  43.277  10.774   7.592
 1824POPC   C1B26215  42.873  10.680   8.700
 1824POPC   C2B26216  42.826  10.507   8.267
 1824POPC   C3B26217  42.808  10.403   7.810
 1824POPC   C4B26218  42.905  10.485   7.385
 1825POPC   NC326219  23.904  29.767   9.475
 1825POPC   PO426220  24.018  30.402   9.514
 1825POPC   GL126221  23.874  30.165   9.172
 1825POPC   GL226222  23.553  30.023   9.228
 1825POPC   C1A26223  23.880  29.888   8.803
 1825POPC   D2A26224  23.928  29.708   8.400
 1825POPC   C3A26225  23.893  30.013   8.044
 1825POPC   C4A26226  23.888  29.816   7.677
 1825POPC   C1B26227  23.383  29.916   8.823
 1825POPC   C2B26228  23.507  29.990   8.398
 1825POPC   C3B26229  23.532  29.663   8.046
 1825POPC   C4B26230  23.449  29.604   7.592
 1826POPC   NC326231  40.607  18.618   9.644
 1826POPC   PO426232  40.931  19.204   9.462
 1826POPC   GL126233  40.662  19.139   9.094
 1826POPC   GL226234  40.443  19.438   9.020
 1826POPC   C1A26235  40.762  18.913   8.696
 1826POPC   D2A26236  40.631  18.976   8.270
 1826POPC   C3A26237  40.959  19.117   8.062
 1826POPC   C4A26238  41.126  19.056   7.697
 1826POPC   C1B26239  40.487  19.331   8.613
 1826POPC   C2B26240  40.647  19.502   8.233
 1826POPC   C3B26241  40.654  19.448   7.809
 1826POPC   C4B26242  40.461  19.057   7.758
 1827POPC   NC326243  30.737  39.541   9.543
 1827POPC   PO426244  30.392  39.116   9.466
 1827POPC   GL126245  30.715  39.155   9.137
 1827POPC   GL226246  30.969  39.370   9.143
 1827POPC   C1A26247  30.750  39.034   8.667
 1827POPC   D2A26248  30.751  38.743   8.390
 1827POPC   C3A26249  30.657  38.891   8.033
 1827POPC   C4A26250  30.402  39.118   7.869
 1827POPC   C1B26251  31.024  39.454   8.737
 1827POPC   C2B26252  30.864  39.422   8.296
 1827POPC   C3B26253  30.846  39.376   7.837
 1827POPC   C4B26254  30.808  39.394   7.379
 1828POPC   NC326255   3.686  29.803   9.354
 1828POPC   PO426256   3.386  30.400   9.464
 1828POPC   GL126257   3.517  30.211   9.072
 1828POPC   GL226258   3.839  30.300   9.051
 1828POPC   C1A26259   3.510  29.853   8.741
 1828POPC   D2A26260   3.187  29.667   8.450
 1828POPC   C3A26261   3.305  29.866   8.053
 1828POPC   C4A26262   3.582  29.772   7.721
 1828POPC   C1B26263   3.861  30.234   8.611
 1828POPC   C2B26264   3.888  30.042   8.211
 1828POPC   C3B26265   3.875  30.204   7.796
 1828POPC   C4B26266   3.666  30.173   7.387
 1829POPC   NC326267  32.635  19.723   9.333
 1829POPC   PO426268  33.170  19.846   9.733
 1829POPC   GL126269  33.126  19.903   9.276
 1829POPC   GL226270  33.360  19.696   9.159
 1829POPC   C1A26271  32.986  19.843   8.813
 1829POPC   D2A26272  33.057  20.049   8.421
 1829POPC   C3A26273  32.917  19.927   8.021
 1829POPC   C4A26274  33.059  19.816   7.614
 1829POPC   C1B26275  33.401  19.578   8.756
 1829POPC   C2B26276  33.421  19.665   8.347
 1829POPC   C3B26277  33.259  19.523   7.964
 1829POPC   C4B26278  33.450  19.460   7.551
 1830POPC   NC326279  19.262  21.011   9.602
 1830POPC   PO426280  19.398  20.330   9.696
 1830POPC   GL126281  19.379  20.571   9.309
 1830POPC   GL226282  19.086  20.377   9.178
 1830POPC   C1A26283  19.340  20.766   8.868
 1830POPC   D2A26284  19.034  20.824   8.488
 1830POPC   C3A26285  19.030  20.742   8.010
 1830POPC   C4A26286  19.327  20.763   7.658
 1830POPC   C1B26287  19.123  20.315   8.709
 1830POPC   C2B26288  19.325  20.411   8.305
 1830POPC   C3B26289  19.205  20.291   7.883
 1830POPC   C4B26290  18.812  20.363   7.648
 1831POPC   NC326291  33.440  38.490   9.567
 1831POPC   PO426292  33.997  38.107   9.621
 1831POPC   GL126293  33.994  38.322   9.233
 1831POPC   GL226294  33.683  38.287   9.126
 1831POPC   C1A26295  34.025  38.433   8.762
 1831POPC   D2A26296  33.798  38.374   8.353
 1831POPC   C3A26297  33.840  38.672   8.015
 1831POPC   C4A26298  34.126  38.784   7.725
 1831POPC   C1B26299  33.556  38.128   8.725
 1831POPC   C2B26300  33.357  38.091   8.298
 1831POPC   C3B26301  33.482  38.328   7.929
 1831POPC   C4B26302  33.804  38.321   7.601
 1832POPC   NC326303  22.483   0.931  10.017
 1832POPC   PO426304  22.584   0.422   9.463
 1832POPC   GL126305  22.252   0.465   9.096
 1832POPC   GL226306  21.870   0.522   9.164
 1832POPC   C1A26307  22.255   0.484   8.635
 1832POPC   D2A26308  22.125   0.665   8.213
 1832POPC   C3A26309  22.344   0.482   7.852
 1832POPC   C4A26310  22.523   0.054   7.836
 1832POPC   C1B26311  21.801   0.723   8.753
 1832POPC   C2B26312  21.729   0.939   8.370
 1832POPC   C3B26313  21.637   0.700   7.997
 1832POPC   C4B26314  21.839   0.452   7.664
 1833POPC   NC326315  33.475  27.097   9.845
 1833POPC   PO426316  32.898  26.809   9.609
 1833POPC   GL126317  33.038  26.879   9.171
 1833POPC   GL226318  32.876  27.122   9.007
 1833POPC   C1A26319  33.303  26.973   8.767
 1833POPC   D2A26320  33.322  26.709   8.455
 1833POPC   C3A26321  33.087  26.848   8.131
 1833POPC   C4A26322  33.242  26.665   7.802
 1833POPC   C1B26323  32.829  26.780   8.680
 1833POPC   C2B26324  32.633  26.633   8.288
 1833POPC   C3B26325  32.740  26.597   7.847
 1833POPC   C4B26326  32.891  26.970   7.624
 1834POPC   NC326327  34.720  42.914   9.635
 1834POPC   PO426328  34.371  43.458   9.426
 1834POPC   GL126329  34.437  43.074   9.181
 1834POPC   GL226330  34.805  42.986   9.139
 1834POPC   C1A26331  34.409  43.014   8.734
 1834POPC   D2A26332  34.402  43.144   8.328
 1834POPC   C3A26333  34.553  43.016   7.966
 1834POPC   C4A26334  34.287  42.885   7.670
 1834POPC   C1B26335  34.757  43.390   8.902
 1834POPC   C2B26336  34.772  43.484   8.472
 1834POPC   C3B26337  34.830  43.460   8.036
 1834POPC   C4B26338  34.952  43.189   7.684
 1835POPC   NC326339  28.621  17.605   9.479
 1835POPC   PO426340  28.068  17.904   9.378
 1835POPC   GL126341  28.339  17.717   9.071
 1835POPC   GL226342  28.229  17.387   9.144
 1835POPC   C1A26343  28.518  17.446   8.738
 1835POPC   D2A26344  28.420  17.627   8.339
 1835POPC   C3A26345  28.581  17.475   7.955
 1835POPC   C4A26346  28.321  17.616   7.637
 1835POPC   C1B26347  28.063  17.230   8.759
 1835POPC   C2B26348  27.897  17.298   8.387
 1835POPC   C3B26349  28.054  17.406   8.024
 1835POPC   C4B26350  27.924  17.277   7.641
 1836POPC   NC326351  31.642   7.488   9.492
 1836POPC   PO426352  31.045   7.424   9.576
 1836POPC   GL126353  31.236   7.548   9.173
 1836POPC   GL226354  31.377   7.207   9.108
 1836POPC   C1A26355  31.180   7.540   8.722
 1836POPC   D2A26356  31.186   7.199   8.432
 1836POPC   C3A26357  31.344   7.291   8.023
 1836POPC   C4A26358  31.297   7.684   7.791
 1836POPC   C1B26359  31.694   7.400   8.820
 1836POPC   C2B26360  31.727   7.750   8.522
 1836POPC   C3B26361  31.722   7.650   8.079
 1836POPC   C4B26362  31.800   7.307   7.776
 1837POPC   NC326363   4.146  19.223   9.424
 1837POPC   PO426364   4.448  18.629   9.501
 1837POPC   GL126365   4.681  18.973   9.251
 1837POPC   GL226366   4.602  19.356   9.182
 1837POPC   C1A26367   4.712  19.015   8.797
 1837POPC   D2A26368   4.456  18.894   8.490
 1837POPC   C3A26369   4.604  18.875   8.113
 1837POPC   C4A26370   4.580  18.867   7.698
 1837POPC   C1B26371   4.386  19.422   8.807
 1837POPC   C2B26372   4.130  19.437   8.475
 1837POPC   C3B26373   4.218  19.213   8.156
 1837POPC   C4B26374   4.108  18.979   7.844
 1838POPC   NC326375  19.856  36.210   9.623
 1838POPC   PO426376  19.684  35.593   9.529
 1838POPC   GL126377  19.846  35.836   9.176
 1838POPC   GL226378  19.669  36.137   9.138
 1838POPC   C1A26379  20.097  36.058   8.874
 1838POPC   D2A26380  20.054  36.267   8.487
 1838POPC   C3A26381  20.065  35.942   8.212
 1838POPC   C4A26382  19.778  35.757   7.891
 1838POPC   C1B26383  19.616  36.019   8.683
 1838POPC   C2B26384  19.589  36.115   8.213
 1838POPC   C3B26385  19.672  36.292   7.775
 1838POPC   C4B26386  19.628  36.529   7.351
 1839POPC   NC326387  38.211  33.879   9.446
 1839POPC   PO426388  38.798  33.500   9.477
 1839POPC   GL126389  38.555  33.625   9.133
 1839POPC   GL226390  38.615  33.943   9.123
 1839POPC   C1A26391  38.249  33.697   8.790
 1839POPC   D2A26392  38.070  33.716   8.342
 1839POPC   C3A26393  38.288  33.555   8.007
 1839POPC   C4A26394  38.468  33.676   7.660
 1839POPC   C1B26395  38.629  34.179   8.786
 1839POPC   C2B26396  38.498  33.975   8.446
 1839POPC   C3B26397  38.494  34.012   8.054
 1839POPC   C4B26398  38.656  34.180   7.687
 1840POPC   NC326399  17.978  34.039   9.506
 1840POPC   PO426400  17.272  33.797   9.480
 1840POPC   GL126401  17.574  33.981   9.184
 1840POPC   GL226402  17.818  33.692   9.133
 1840POPC   C1A26403  17.579  33.979   8.738
 1840POPC   D2A26404  17.321  33.788   8.447
 1840POPC   C3A26405  17.326  33.851   8.014
 1840POPC   C4A26406  17.434  33.938   7.574
 1840POPC   C1B26407  17.904  33.568   8.693
 1840POPC   C2B26408  17.840  33.734   8.264
 1840POPC   C3B26409  17.705  33.549   7.866
 1840POPC   C4B26410  17.739  33.549   7.416
 1841POPC   NC326411  29.501  31.182   9.381
 1841POPC   PO426412  29.005  30.587   9.397
 1841POPC   GL126413  29.174  30.860   9.155
 1841POPC   GL226414  28.862  30.977   9.003
 1841POPC   C1A26415  29.420  30.866   8.798
 1841POPC   D2A26416  29.656  30.820   8.451
 1841POPC   C3A26417  29.399  30.936   8.134
 1841POPC   C4A26418  29.217  31.025   7.782
 1841POPC   C1B26419  28.992  30.580   8.762
 1841POPC   C2B26420  29.211  30.540   8.396
 1841POPC   C3B26421  28.983  30.614   8.004
 1841POPC   C4B26422  28.730  30.864   7.740
 1842POPC   NC326423  27.582  16.251   9.630
 1842POPC   PO426424  27.818  15.679   9.602
 1842POPC   GL126425  27.670  15.910   9.233
 1842POPC   GL226426  27.889  16.208   9.201
 1842POPC   C1A26427  27.499  15.932   8.817
 1842POPC   D2A26428  27.396  16.175   8.446
 1842POPC   C3A26429  27.480  15.907   8.072
 1842POPC   C4A26430  27.374  16.006   7.654
 1842POPC   C1B26431  27.841  16.346   8.776
 1842POPC   C2B26432  27.915  16.278   8.366
 1842POPC   C3B26433  27.660  16.378   8.035
 1842POPC   C4B26434  27.761  16.332   7.665
 1843POPC   NC326435  33.265  25.461   9.541
 1843POPC   PO426436  32.796  24.985   9.609
 1843POPC   GL126437  32.974  25.148   9.209
 1843POPC   GL226438  33.339  25.141   9.143
 1843POPC   C1A26439  33.012  25.498   8.899
 1843POPC   D2A26440  32.903  25.455   8.462
 1843POPC   C3A26441  33.078  25.506   8.060
 1843POPC   C4A26442  32.921  25.410   7.642
 1843POPC   C1B26443  33.195  25.076   8.715
 1843POPC   C2B26444  33.240  25.079   8.292
 1843POPC   C3B26445  32.909  24.992   7.996
 1843POPC   C4B26446  32.892  24.893   7.574
 1844POPC   NC326447  18.859   4.307   9.336
 1844POPC   PO426448  19.214   4.888   9.407
 1844POPC   GL126449  19.065   4.657   9.033
 1844POPC   GL226450  18.675   4.681   9.013
 1844POPC   C1A26451  19.296   4.366   8.708
 1844POPC   D2A26452  19.454   4.284   8.262
 1844POPC   C3A26453  19.288   4.051   7.915
 1844POPC   C4A26454  18.840   4.004   7.897
 1844POPC   C1B26455  18.785   4.368   8.683
 1844POPC   C2B26456  18.807   4.390   8.235
 1844POPC   C3B26457  19.055   4.512   7.879
 1844POPC   C4B26458  19.187   4.712   7.502
 1845POPC   NC326459   2.712  27.318   9.487
 1845POPC   PO426460   3.103  27.848   9.668
 1845POPC   GL126461   2.979  27.646   9.188
 1845POPC   GL226462   2.719  27.803   8.981
 1845POPC   C1A26463   2.806  27.326   8.839
 1845POPC   D2A26464   2.550  27.262   8.453
 1845POPC   C3A26465   2.707  27.511   8.136
 1845POPC   C4A26466   2.894  27.324   7.797
 1845POPC   C1B26467   2.535  28.089   8.678
 1845POPC   C2B26468   2.381  27.912   8.298
 1845POPC   C3B26469   2.308  27.781   7.902
 1845POPC   C4B26470   2.415  27.496   7.608
 1846POPC   NC326471  35.631   5.231   9.359
 1846POPC   PO426472  35.260   4.820   9.667
 1846POPC   GL126473  35.261   4.774   9.173
 1846POPC   GL226474  35.610   4.802   9.080
 1846POPC   C1A26475  35.245   4.962   8.709
 1846POPC   D2A26476  35.438   5.268   8.388
 1846POPC   C3A26477  35.402   5.085   7.976
 1846POPC   C4A26478  34.983   5.069   7.791
 1846POPC   C1B26479  35.744   4.998   8.707
 1846POPC   C2B26480  35.580   4.760   8.354
 1846POPC   C3B26481  35.750   4.605   7.971
 1846POPC   C4B26482  35.830   4.936   7.687
 1847POPC   NC326483  23.895  25.756   9.423
 1847POPC   PO426484  23.967  26.376   9.287
 1847POPC   GL126485  23.699  26.258   9.027
 1847POPC   GL226486  23.589  25.932   9.057
 1847POPC   C1A26487  23.760  26.130   8.608
 1847POPC   D2A26488  23.655  26.011   8.199
 1847POPC   C3A26489  23.977  26.135   7.902
 1847POPC   C4A26490  24.026  25.898   7.494
 1847POPC   C1B26491  23.332  25.849   8.710
 1847POPC   C2B26492  23.190  25.741   8.311
 1847POPC   C3B26493  23.196  25.803   7.900
 1847POPC   C4B26494  23.534  26.005   7.708
 1848POPC   NC326495  44.482  27.862   9.377
 1848POPC   PO426496  44.862  27.397   9.559
 1848POPC   GL126497  44.601  27.412   9.166
 1848POPC   GL226498  44.837  27.251   8.963
 1848POPC   C1A26499  44.455  27.496   8.727
 1848POPC   D2A26500  44.762  27.351   8.393
 1848POPC   C3A26501  44.584  27.452   7.981
 1848POPC   C4A26502  44.240  27.502   7.696
 1848POPC   C1B26503  44.918  27.698   8.778
 1848POPC   C2B26504  44.855  27.841   8.335
 1848POPC   C3B26505   0.081  27.674   7.976
 1848POPC   C4B26506  44.928  27.542   7.557
 1849POPC   NC326507   2.798  38.733   9.811
 1849POPC   PO426508   2.502  39.304   9.545
 1849POPC   GL126509   2.456  39.260   9.155
 1849POPC   GL226510   2.392  39.626   9.114
 1849POPC   C1A26511   2.686  38.979   8.852
 1849POPC   D2A26512   3.085  39.145   8.660
 1849POPC   C3A26513   3.083  39.079   8.201
 1849POPC   C4A26514   2.884  38.907   7.822
 1849POPC   C1B26515   2.638  39.488   8.758
 1849POPC   C2B26516   2.651  39.237   8.410
 1849POPC   C3B26517   2.510  39.210   8.013
 1849POPC   C4B26518   2.646  39.411   7.747
 1850POPC   NC326519  19.090   1.611   9.597
 1850POPC   PO426520  19.283   2.279   9.485
 1850POPC   GL126521  19.070   2.153   9.126
 1850POPC   GL226522  18.825   2.337   9.048
 1850POPC   C1A26523  19.132   2.031   8.717
 1850POPC   D2A26524  18.972   1.930   8.330
 1850POPC   C3A26525  19.185   2.038   7.963
 1850POPC   C4A26526  19.019   1.858   7.635
 1850POPC   C1B26527  18.646   2.241   8.687
 1850POPC   C2B26528  18.621   2.311   8.297
 1850POPC   C3B26529  18.675   2.116   7.946
 1850POPC   C4B26530  18.728   2.275   7.560
 1851POPC   NC326531  15.316  12.121   9.471
 1851POPC   PO426532  14.725  11.650   9.565
 1851POPC   GL126533  14.906  11.761   9.154
 1851POPC   GL226534  15.256  11.851   9.036
 1851POPC   C1A26535  14.838  11.929   8.736
 1851POPC   D2A26536  15.060  12.225   8.470
 1851POPC   C3A26537  14.981  12.223   8.045
 1851POPC   C4A26538  15.009  11.953   7.720
 1851POPC   C1B26539  15.413  12.241   8.845
 1851POPC   C2B26540  15.632  12.263   8.479
 1851POPC   C3B26541  15.501  12.379   8.094
 1851POPC   C4B26542  15.448  12.196   7.706
 1852POPC   NC326543  40.215  13.776   9.473
 1852POPC   PO426544  39.623  13.869   9.543
 1852POPC   GL126545  39.773  13.677   9.109
 1852POPC   GL226546  40.096  13.465   9.061
 1852POPC   C1A26547  39.880  13.579   8.635
 1852POPC   D2A26548  40.138  13.484   8.332
 1852POPC   C3A26549  40.091  13.632   7.937
 1852POPC   C4A26550  40.342  13.493   7.658
 1852POPC   C1B26551  39.708  13.187   8.873
 1852POPC   C2B26552  39.497  13.279   8.453
 1852POPC   C3B26553  39.692  13.298   8.034
 1852POPC   C4B26554  39.858  13.268   7.604
 1853POPC   NC326555  33.032   4.624   9.748
 1853POPC   PO426556  33.342   4.132   9.733
 1853POPC   GL126557  32.990   4.320   9.344
 1853POPC   GL226558  32.822   4.125   9.066
 1853POPC   C1A26559  33.017   4.606   8.960
 1853POPC   D2A26560  33.132   4.759   8.547
 1853POPC   C3A26561  33.146   4.600   8.142
 1853POPC   C4A26562  33.018   4.579   7.726
 1853POPC   C1B26563  32.978   4.152   8.703
 1853POPC   C2B26564  33.109   4.089   8.316
 1853POPC   C3B26565  32.856   4.187   8.010
 1853POPC   C4B26566  32.845   4.078   7.638
 1854POPC   NC326567  44.645  16.364   9.463
 1854POPC   PO426568  44.323  15.773   9.444
 1854POPC   GL126569  44.551  15.948   9.141
 1854POPC   GL226570  44.329  16.212   9.076
 1854POPC   C1A26571  44.723  15.808   8.750
 1854POPC   D2A26572  44.804  15.911   8.322
 1854POPC   C3A26573  44.662  15.679   7.924
 1854POPC   C4A26574  44.814  15.778   7.489
 1854POPC   C1B26575  44.583  16.288   8.727
 1854POPC   C2B26576  44.625  16.422   8.288
 1854POPC   C3B26577  44.695  16.191   7.916
 1854POPC   C4B26578  44.466  16.144   7.560
 1855POPC   NC326579  26.935   8.411   9.451
 1855POPC   PO426580  26.954   7.708   9.486
 1855POPC   GL126581  26.917   7.969   9.156
 1855POPC   GL226582  26.596   7.840   9.072
 1855POPC   C1A26583  26.904   8.123   8.744
 1855POPC   D2A26584  26.730   7.977   8.357
 1855POPC   C3A26585  26.980   8.100   8.006
 1855POPC   C4A26586  27.050   8.449   7.706
 1855POPC   C1B26587  26.363   7.645   8.723
 1855POPC   C2B26588  26.287   7.694   8.278
 1855POPC   C3B26589  26.526   7.816   7.913
 1855POPC   C4B26590  26.643   8.144   7.609
 1856POPC   NC326591   2.611  10.923   9.544
 1856POPC   PO426592   3.088  11.183   9.272
 1856POPC   GL126593   2.731  10.951   9.059
 1856POPC   GL226594   2.395  11.149   9.099
 1856POPC   C1A26595   2.585  10.977   8.647
 1856POPC   D2A26596   2.964  11.161   8.397
 1856POPC   C3A26597   2.909  11.139   7.943
 1856POPC   C4A26598   2.504  11.012   7.839
 1856POPC   C1B26599   2.476  11.451   8.723
 1856POPC   C2B26600   2.507  11.345   8.256
 1856POPC   C3B26601   2.563  11.520   7.832
 1856POPC   C4B26602   2.867  11.668   7.512
 1857POPC   NC326603  20.830   3.083   9.501
 1857POPC   PO426604  20.223   2.724   9.536
 1857POPC   GL126605  20.388   2.920   9.178
 1857POPC   GL226606  20.373   3.270   9.109
 1857POPC   C1A26607  20.522   2.787   8.772
 1857POPC   D2A26608  20.406   2.846   8.352
 1857POPC   C3A26609  20.629   2.654   8.011
 1857POPC   C4A26610  20.374   2.735   7.655
 1857POPC   C1B26611  20.716   3.280   8.838
 1857POPC   C2B26612  20.782   3.252   8.390
 1857POPC   C3B26613  20.614   3.154   7.983
 1857POPC   C4B26614  20.914   2.978   7.700
 1858POPC   NC326615  13.513  17.014   9.455
 1858POPC   PO426616  13.795  16.450   9.762
 1858POPC   GL126617  13.819  16.639   9.302
 1858POPC   GL226618  13.794  16.368   9.113
 1858POPC   C1A26619  13.684  16.827   8.856
 1858POPC   D2A26620  13.396  17.027   8.522
 1858POPC   C3A26621  13.469  16.991   8.064
 1858POPC   C4A26622  13.399  16.672   7.749
 1858POPC   C1B26623  13.930  16.416   8.685
 1858POPC   C2B26624  14.073  16.545   8.302
 1858POPC   C3B26625  13.884  16.624   7.945
 1858POPC   C4B26626  13.746  16.304   7.726
 1859POPC   NC326627  15.885  42.736   9.704
 1859POPC   PO426628  15.989  42.062   9.485
 1859POPC   GL126629  15.785  42.256   9.148
 1859POPC   GL226630  15.559  42.512   9.206
 1859POPC   C1A26631  15.858  42.400   8.744
 1859POPC   D2A26632  15.746  42.504   8.361
 1859POPC   C3A26633  16.054  42.458   8.028
 1859POPC   C4A26634  16.068  42.157   7.724
 1859POPC   C1B26635  15.463  42.723   8.807
 1859POPC   C2B26636  15.393  42.881   8.387
 1859POPC   C3B26637  15.412  42.651   8.006
 1859POPC   C4B26638  15.669  42.576   7.683
 1860POPC   NC326639  41.132   1.874   9.373
 1860POPC   PO426640  40.542   1.640   9.613
 1860POPC   GL126641  40.581   1.950   9.247
 1860POPC   GL226642  40.775   2.253   9.201
 1860POPC   C1A26643  40.500   1.944   8.799
 1860POPC   D2A26644  40.772   1.855   8.398
 1860POPC   C3A26645  40.584   1.972   8.007
 1860POPC   C4A26646  40.670   2.149   7.635
 1860POPC   C1B26647  40.978   2.135   8.796
 1860POPC   C2B26648  41.000   2.321   8.391
 1860POPC   C3B26649  41.145   2.312   7.957
 1860POPC   C4B26650  41.100   2.354   7.496
 1861POPC   NC326651  12.564  17.308   9.344
 1861POPC   PO426652  12.079  17.495   9.786
 1861POPC   GL126653  12.006  17.478   9.329
 1861POPC   GL226654  12.248  17.677   9.187
 1861POPC   C1A26655  11.836  17.411   8.896
 1861POPC   D2A26656  11.794  17.545   8.448
 1861POPC   C3A26657  12.019  17.232   8.214
 1861POPC   C4A26658  12.289  17.235   7.864
 1861POPC   C1B26659  12.085  17.850   8.826
 1861POPC   C2B26660  12.218  17.920   8.393
 1861POPC   C3B26661  12.097  17.716   8.011
 1861POPC   C4B26662  12.211  17.647   7.575
 1862POPC   NC326663  37.418  10.689   9.530
 1862POPC   PO426664  37.761  10.105   9.496
 1862POPC   GL126665  37.723  10.409   9.170
 1862POPC   GL226666  37.709  10.791   9.128
 1862POPC   C1A26667  37.641  10.478   8.738
 1862POPC   D2A26668  37.556  10.259   8.368
 1862POPC   C3A26669  37.435  10.513   8.022
 1862POPC   C4A26670  37.580  10.633   7.625
 1862POPC   C1B26671  37.859  10.960   8.757
 1862POPC   C2B26672  37.630  10.858   8.382
 1862POPC   C3B26673  37.545  11.019   7.993
 1862POPC   C4B26674  37.661  11.158   7.575
 1863POPC   NC326675  35.788  35.233   9.505
 1863POPC   PO426676  35.147  34.980   9.352
 1863POPC   GL126677  35.419  35.279   9.120
 1863POPC   GL226678  35.132  35.437   8.950
 1863POPC   C1A26679  35.553  35.515   8.725
 1863POPC   D2A26680  35.250  35.468   8.444
 1863POPC   C3A26681  35.360  35.327   8.088
 1863POPC   C4A26682  35.557  35.247   7.742
 1863POPC   C1B26683  34.846  35.242   8.711
 1863POPC   C2B26684  34.770  35.377   8.286
 1863POPC   C3B26685  34.933  35.564   7.910
 1863POPC   C4B26686  35.242  35.680   7.586
 1864POPC   NC326687   8.103   9.321   9.523
 1864POPC   PO426688   7.881   9.933   9.482
 1864POPC   GL126689   8.168   9.767   9.216
 1864POPC   GL226690   7.928   9.530   9.094
 1864POPC   C1A26691   8.405   9.598   8.869
 1864POPC   D2A26692   8.559   9.521   8.428
 1864POPC   C3A26693   8.443   9.751   8.077
 1864POPC   C4A26694   8.377   9.555   7.725
 1864POPC   C1B26695   7.919   9.811   8.741
 1864POPC   C2B26696   7.971   9.739   8.304
 1864POPC   C3B26697   7.928   9.701   7.891
 1864POPC   C4B26698   8.101  10.022   7.716
 1865POPC   NC326699  37.106  16.101   9.424
 1865POPC   PO426700  36.422  15.939   9.520
 1865POPC   GL126701  36.604  15.986   9.135
 1865POPC   GL226702  36.898  15.772   9.107
 1865POPC   C1A26703  36.678  16.045   8.707
 1865POPC   D2A26704  36.535  15.902   8.311
 1865POPC   C3A26705  36.724  16.233   8.099
 1865POPC   C4A26706  36.986  16.204   7.775
 1865POPC   C1B26707  36.793  15.531   8.769
 1865POPC   C2B26708  37.072  15.415   8.482
 1865POPC   C3B26709  37.335  15.523   8.153
 1865POPC   C4B26710  37.186  15.549   7.713
 1866POPC   NC326711  29.850  43.425   9.406
 1866POPC   PO426712  30.168  42.875   9.632
 1866POPC   GL126713  30.128  43.061   9.188
 1866POPC   GL226714  29.947  42.839   9.077
 1866POPC   C1A26715  30.096  43.317   8.784
 1866POPC   D2A26716  29.870  43.301   8.393
 1866POPC   C3A26717  30.008  43.450   8.007
 1866POPC   C4A26718  30.168  43.305   7.623
 1866POPC   C1B26719  29.918  42.832   8.642
 1866POPC   C2B26720  29.882  42.806   8.178
 1866POPC   C3B26721  29.829  42.930   7.728
 1866POPC   C4B26722  29.529  42.842   7.374
 1867POPC   NC326723   2.505  10.081   9.443
 1867POPC   PO426724   2.912  10.565   9.506
 1867POPC   GL126725   2.986  10.466   9.089
 1867POPC   GL226726   2.962  10.097   9.106
 1867POPC   C1A26727   2.969  10.653   8.652
 1867POPC   D2A26728   2.720  10.747   8.225
 1867POPC   C3A26729   2.933  10.581   7.880
 1867POPC   C4A26730   3.316  10.823   7.807
 1867POPC   C1B26731   2.646  10.259   8.802
 1867POPC   C2B26732   2.723  10.281   8.395
 1867POPC   C3B26733   2.460  10.341   8.047
 1867POPC   C4B26734   2.442  10.553   7.681
 1868POPC   NC326735  16.049  13.449   9.488
 1868POPC   PO426736  15.664  13.957   9.516
 1868POPC   GL126737  15.733  13.691   9.152
 1868POPC   GL226738  16.110  13.668   9.035
 1868POPC   C1A26739  15.746  13.559   8.722
 1868POPC   D2A26740  16.017  13.690   8.417
 1868POPC   C3A26741  15.775  13.523   8.074
 1868POPC   C4A26742  15.688  13.681   7.667
 1868POPC   C1B26743  16.334  13.935   8.780
 1868POPC   C2B26744  16.497  13.963   8.384
 1868POPC   C3B26745  16.415  13.664   8.056
 1868POPC   C4B26746  16.218  13.671   7.670
 1869POPC   NC326747   3.345   8.512   9.322
 1869POPC   PO426748   2.875   8.092   9.556
 1869POPC   GL126749   2.945   7.895   9.156
 1869POPC   GL226750   2.971   8.247   9.073
 1869POPC   C1A26751   2.778   7.937   8.723
 1869POPC   D2A26752   2.599   8.287   8.478
 1869POPC   C3A26753   2.668   8.247   8.028
 1869POPC   C4A26754   2.360   8.412   7.749
 1869POPC   C1B26755   3.062   8.423   8.701
 1869POPC   C2B26756   3.078   8.228   8.337
 1869POPC   C3B26757   3.164   8.400   7.941
 1869POPC   C4B26758   3.162   8.487   7.534
 1870POPC   NC326759  12.686  25.989   9.340
 1870POPC   PO426760  13.354  26.314   9.371
 1870POPC   GL126761  13.135  26.077   9.084
 1870POPC   GL226762  13.117  25.716   9.140
 1870POPC   C1A26763  12.889  26.070   8.720
 1870POPC   D2A26764  12.609  25.975   8.407
 1870POPC   C3A26765  12.826  26.186   8.069
 1870POPC   C4A26766  12.712  26.068   7.674
 1870POPC   C1B26767  13.277  25.715   8.737
 1870POPC   C2B26768  12.972  25.623   8.469
 1870POPC   C3B26769  12.890  25.678   8.050
 1870POPC   C4B26770  13.185  25.883   7.794
 1871POPC   NC326771  31.759  16.743   9.422
 1871POPC   PO426772  31.138  16.478   9.620
 1871POPC   GL126773  31.214  16.691   9.174
 1871POPC   GL226774  31.420  16.972   9.106
 1871POPC   C1A26775  31.208  16.707   8.728
 1871POPC   D2A26776  31.447  16.605   8.357
 1871POPC   C3A26777  31.290  16.827   8.035
 1871POPC   C4A26778  31.172  16.750   7.627
 1871POPC   C1B26779  31.693  16.908   8.729
 1871POPC   C2B26780  31.878  16.890   8.292
 1871POPC   C3B26781  31.910  16.630   7.974
 1871POPC   C4B26782  31.604  16.515   7.753
 1872POPC   NC326783  26.363  20.171   9.648
 1872POPC   PO426784  25.965  20.697   9.387
 1872POPC   GL126785  26.260  20.525   9.087
 1872POPC   GL226786  26.372  20.838   8.949
 1872POPC   C1A26787  26.109  20.431   8.647
 1872POPC   D2A26788  25.769  20.709   8.474
 1872POPC   C3A26789  25.901  20.744   8.070
 1872POPC   C4A26790  25.878  20.310   7.941
 1872POPC   C1B26791  26.594  20.599   8.658
 1872POPC   C2B26792  26.545  20.332   8.327
 1872POPC   C3B26793  26.357  20.464   7.959
 1872POPC   C4B26794  26.325  20.919   7.834
 1873POPC   NC326795  33.898  30.354   9.692
 1873POPC   PO426796  33.985  29.728   9.761
 1873POPC   GL126797  33.950  29.960   9.335
 1873POPC   GL226798  34.263  29.874   9.170
 1873POPC   C1A26799  33.775  29.910   8.883
 1873POPC   D2A26800  33.648  29.705   8.477
 1873POPC   C3A26801  33.563  29.915   8.059
 1873POPC   C4A26802  33.755  29.852   7.623
 1873POPC   C1B26803  34.287  29.910   8.747
 1873POPC   C2B26804  34.013  30.085   8.438
 1873POPC   C3B26805  34.030  30.156   8.006
 1873POPC   C4B26806  34.115  30.516   7.789
 1874POPC   NC326807  26.487  39.684   9.531
 1874POPC   PO426808  27.078  40.015   9.622
 1874POPC   GL126809  26.895  40.039   9.221
 1874POPC   GL226810  26.897  39.683   9.214
 1874POPC   C1A26811  27.082  40.186   8.798
 1874POPC   D2A26812  26.878  40.357   8.398
 1874POPC   C3A26813  26.954  40.208   7.969
 1874POPC   C4A26814  27.296  40.320   7.685
 1874POPC   C1B26815  26.817  39.722   8.777
 1874POPC   C2B26816  27.006  39.853   8.395
 1874POPC   C3B26817  26.822  39.699   8.015
 1874POPC   C4B26818  26.762  39.856   7.617
 1875POPC   NC326819  34.529  20.986   9.525
 1875POPC   PO426820  34.911  21.511   9.419
 1875POPC   GL126821  34.548  21.391   9.162
 1875POPC   GL226822  34.752  21.121   9.094
 1875POPC   C1A26823  34.400  21.221   8.735
 1875POPC   D2A26824  34.548  21.354   8.296
 1875POPC   C3A26825  34.324  21.194   7.935
 1875POPC   C4A26826  34.320  21.201   7.473
 1875POPC   C1B26827  34.874  21.395   8.742
 1875POPC   C2B26828  35.055  21.502   8.349
 1875POPC   C3B26829  34.868  21.684   7.991
 1875POPC   C4B26830  34.738  21.379   7.734
 1876POPC   NC326831  29.415   9.097   9.447
 1876POPC   PO426832  28.866   9.281   9.361
 1876POPC   GL126833  29.116   8.974   9.080
 1876POPC   GL226834  29.198   8.636   9.244
 1876POPC   C1A26835  29.263   8.857   8.683
 1876POPC   D2A26836  29.060   8.815   8.293
 1876POPC   C3A26837  29.250   8.968   7.941
 1876POPC   C4A26838  29.156   9.182   7.532
 1876POPC   C1B26839  29.448   8.420   8.918
 1876POPC   C2B26840  29.354   8.353   8.498
 1876POPC   C3B26841  29.476   8.504   8.130
 1876POPC   C4B26842  29.469   8.568   7.726
 1877POPC   NC326843  36.022  12.983   9.532
 1877POPC   PO426844  36.255  12.349   9.693
 1877POPC   GL126845  36.182  12.570   9.284
 1877POPC   GL226846  36.535  12.562   9.174
 1877POPC   C1A26847  35.872  12.801   8.922
 1877POPC   D2A26848  35.766  13.047   8.513
 1877POPC   C3A26849  35.832  12.910   8.067
 1877POPC   C4A26850  35.902  12.670   7.686
 1877POPC   C1B26851  36.393  12.832   8.839
 1877POPC   C2B26852  36.203  12.723   8.418
 1877POPC   C3B26853  36.340  12.761   7.967
 1877POPC   C4B26854  36.386  12.690   7.504
 1878POPC   NC326855   0.792  10.395   9.657
 1878POPC   PO426856   1.355  10.778   9.551
 1878POPC   GL126857   1.092  10.611   9.229
 1878POPC   GL226858   1.342  10.399   9.169
 1878POPC   C1A26859   1.001  10.507   8.790
 1878POPC   D2A26860   1.266  10.499   8.443
 1878POPC   C3A26861   1.117  10.566   8.027
 1878POPC   C4A26862   1.340  10.657   7.668
 1878POPC   C1B26863   1.560  10.623   8.855
 1878POPC   C2B26864   1.787  10.438   8.510
 1878POPC   C3B26865   1.631  10.476   8.084
 1878POPC   C4B26866   1.571  10.197   7.760
 1879POPC   NC326867  23.429  15.274   9.362
 1879POPC   PO426868  24.001  14.909   9.457
 1879POPC   GL126869  23.801  15.058   9.109
 1879POPC   GL226870  23.489  14.857   9.036
 1879POPC   C1A26871  23.913  15.378   8.851
 1879POPC   D2A26872  23.900  15.497   8.446
 1879POPC   C3A26873  24.094  15.170   8.171
 1879POPC   C4A26874  23.838  14.961   7.837
 1879POPC   C1B26875  23.470  15.144   8.687
 1879POPC   C2B26876  23.591  15.121   8.269
 1879POPC   C3B26877  23.366  15.185   7.902
 1879POPC   C4B26878  23.073  14.874   7.818
 1880POPC   NC326879  39.382   3.339  10.001
 1880POPC   PO426880  39.319   2.782   9.580
 1880POPC   GL126881  39.468   2.682   9.198
 1880POPC   GL226882  39.214   2.876   8.992
 1880POPC   C1A26883  39.593   2.618   8.790
 1880POPC   D2A26884  39.288   2.676   8.490
 1880POPC   C3A26885  39.337   2.506   8.083
 1880POPC   C4A26886  39.230   2.755   7.721
 1880POPC   C1B26887  38.985   3.096   8.614
 1880POPC   C2B26888  38.730   3.159   8.212
 1880POPC   C3B26889  38.665   3.002   7.772
 1880POPC   C4B26890  38.869   2.850   7.353
 1881POPC   NC326891   0.780  30.008   9.341
 1881POPC   PO426892   0.069  29.977   9.445
 1881POPC   GL126893   0.302  30.084   9.130
 1881POPC   GL226894   0.409  29.746   9.111
 1881POPC   C1A26895   0.305  30.035   8.701
 1881POPC   D2A26896   0.498  30.215   8.361
 1881POPC   C3A26897   0.512  30.034   8.006
 1881POPC   C4A26898   0.490  30.238   7.631
 1881POPC   C1B26899   0.704  29.625   8.796
 1881POPC   C2B26900   0.916  29.499   8.433
 1881POPC   C3B26901   0.728  29.442   8.065
 1881POPC   C4B26902   0.703  29.690   7.695
 1882POPC   NC326903  20.048  42.271   9.414
 1882POPC   PO426904  19.355  42.486   9.517
 1882POPC   GL126905  19.606  42.497   9.124
 1882POPC   GL226906  19.911  42.680   9.136
 1882POPC   C1A26907  19.856  42.380   8.740
 1882POPC   D2A26908  20.115  42.323   8.398
 1882POPC   C3A26909  19.875  42.478   8.076
 1882POPC   C4A26910  19.748  42.219   7.747
 1882POPC   C1B26911  20.268  42.723   8.796
 1882POPC   C2B26912  20.213  42.816   8.360
 1882POPC   C3B26913  20.187  42.856   7.934
 1882POPC   C4B26914  20.162  42.496   7.657
 1883POPC   NC326915  21.099   7.538   9.468
 1883POPC   PO426916  21.741   7.529   9.444
 1883POPC   GL126917  21.602   7.239   9.144
 1883POPC   GL226918  21.271   7.106   9.245
 1883POPC   C1A26919  21.699   7.364   8.745
 1883POPC   D2A26920  21.469   7.266   8.386
 1883POPC   C3A26921  21.577   7.427   7.991
 1883POPC   C4A26922  21.428   7.743   7.725
 1883POPC   C1B26923  21.158   7.266   8.847
 1883POPC   C2B26924  20.954   7.258   8.462
 1883POPC   C3B26925  21.071   7.118   8.077
 1883POPC   C4B26926  21.213   7.236   7.693
 1884POPC   NC326927   7.701  38.867   9.653
 1884POPC   PO426928   7.500  38.232   9.424
 1884POPC   GL126929   7.238  38.343   9.093
 1884POPC   GL226930   7.169  38.684   9.144
 1884POPC   C1A26931   7.367  38.353   8.677
 1884POPC   D2A26932   7.624  38.238   8.360
 1884POPC   C3A26933   7.554  38.514   8.088
 1884POPC   C4A26934   7.540  38.373   7.695
 1884POPC   C1B26935   7.119  38.798   8.696
 1884POPC   C2B26936   7.075  38.516   8.303
 1884POPC   C3B26937   7.103  38.629   7.879
 1884POPC   C4B26938   7.214  38.778   7.476
 1885POPC   NC326939  28.630  20.979   9.563
 1885POPC   PO426940  28.393  21.651   9.588
 1885POPC   GL126941  28.381  21.403   9.204
 1885POPC   GL226942  28.292  21.049   9.167
 1885POPC   C1A26943  28.467  21.372   8.767
 1885POPC   D2A26944  28.202  21.392   8.406
 1885POPC   C3A26945  28.484  21.491   8.095
 1885POPC   C4A26946  28.674  21.766   7.813
 1885POPC   C1B26947  28.076  21.040   8.758
 1885POPC   C2B26948  27.951  20.942   8.334
 1885POPC   C3B26949  28.204  21.064   7.969
 1885POPC   C4B26950  28.576  21.164   7.731
 1886POPC   NC326951  44.175  41.889   9.563
 1886POPC   PO426952  43.729  41.421   9.642
 1886POPC   GL126953  43.989  41.485   9.280
 1886POPC   GL226954  43.921  41.813   9.118
 1886POPC   C1A26955  43.996  41.372   8.844
 1886POPC   D2A26956  43.851  41.489   8.417
 1886POPC   C3A26957  44.039  41.366   8.038
 1886POPC   C4A26958  43.859  41.304   7.636
 1886POPC   C1B26959  43.692  42.119   8.848
 1886POPC   C2B26960  43.810  41.997   8.463
 1886POPC   C3B26961  43.748  41.895   8.032
 1886POPC   C4B26962  43.995  41.774   7.701
 1887POPC   NC326963  10.771  25.825   9.543
 1887POPC   PO426964  10.331  26.288   9.673
 1887POPC   GL126965  10.596  26.177   9.191
 1887POPC   GL226966  10.715  25.852   9.055
 1887POPC   C1A26967  10.891  26.101   8.696
 1887POPC   D2A26968  10.855  25.806   8.352
 1887POPC   C3A26969  10.710  26.025   7.996
 1887POPC   C4A26970  10.294  26.038   7.796
 1887POPC   C1B26971  10.405  26.003   8.744
 1887POPC   C2B26972  10.311  25.933   8.320
 1887POPC   C3B26973  10.447  25.589   8.063
 1887POPC   C4B26974  10.766  25.580   7.778
 1888POPC   NC326975  44.416  23.189   9.718
 1888POPC   PO426976   0.041  22.982   9.507
 1888POPC   GL126977  44.765  22.787   9.191
 1888POPC   GL226978  44.453  22.951   9.236
 1888POPC   C1A26979  44.707  22.948   8.785
 1888POPC   D2A26980  44.857  23.204   8.501
 1888POPC   C3A26981  44.791  22.992   8.140
 1888POPC   C4A26982  44.769  22.660   7.830
 1888POPC   C1B26983  44.312  23.273   8.939
 1888POPC   C2B26984  44.358  23.328   8.496
 1888POPC   C3B26985  44.329  23.292   8.042
 1888POPC   C4B26986  44.616  23.183   7.708
 1889POPC   NC326987   3.610  23.301   9.573
 1889POPC   PO426988   3.215  23.838   9.551
 1889POPC   GL126989   3.284  23.583   9.226
 1889POPC   GL226990   3.625  23.666   9.166
 1889POPC   C1A26991   3.256  23.693   8.818
 1889POPC   D2A26992   3.472  23.598   8.503
 1889POPC   C3A26993   3.395  23.719   8.111
 1889POPC   C4A26994   3.304  23.569   7.729
 1889POPC   C1B26995   3.869  23.785   8.786
 1889POPC   C2B26996   3.952  23.594   8.363
 1889POPC   C3B26997   3.835  23.473   7.955
 1889POPC   C4B26998   3.760  23.791   7.677
 1890POPC   NC326999   3.797  33.191   9.476
 1890POPC   PO427000   3.406  32.557   9.597
 1890POPC   GL127001   3.505  32.830   9.210
 1890POPC   GL227002   3.843  32.894   9.023
 1890POPC   C1A27003   3.422  33.090   8.816
 1890POPC   D2A27004   3.686  32.986   8.461
 1890POPC   C3A27005   3.535  33.049   8.053
 1890POPC   C4A27006   3.552  32.869   7.686
 1890POPC   C1B27007   3.913  33.314   8.812
 1890POPC   C2B27008   3.845  33.465   8.370
 1890POPC   C3B27009   4.019  33.214   8.074
 1890POPC   C4B27010   3.903  33.211   7.694
 1891POPC   NC327011  40.500  20.483   9.500
 1891POPC   PO427012  41.069  20.930   9.450
 1891POPC   GL127013  40.770  20.880   9.127
 1891POPC   GL227014  41.052  20.996   8.914
 1891POPC   C1A27015  40.561  20.520   8.858
 1891POPC   D2A27016  40.676  20.245   8.504
 1891POPC   C3A27017  40.621  20.415   8.091
 1891POPC   C4A27018  40.542  20.402   7.642
 1891POPC   C1B27019  41.001  20.639   8.626
 1891POPC   C2B27020  41.202  20.332   8.383
 1891POPC   C3B27021  41.127  20.420   7.941
 1891POPC   C4B27022  41.154  20.832   7.727
 1892POPC   NC327023  42.329  15.007   9.451
 1892POPC   PO427024  42.677  15.652   9.530
 1892POPC   GL127025  42.476  15.380   9.159
 1892POPC   GL227026  42.714  15.152   9.124
 1892POPC   C1A27027  42.189  15.115   8.812
 1892POPC   D2A27028  42.000  14.937   8.392
 1892POPC   C3A27029  42.030  15.092   7.935
 1892POPC   C4A27030  41.961  14.996   7.428
 1892POPC   C1B27031  42.675  15.208   8.723
 1892POPC   C2B27032  42.529  15.067   8.407
 1892POPC   C3B27033  42.503  15.217   8.044
 1892POPC   C4B27034  42.643  15.035   7.735
 1893POPC   NC327035  10.115  17.517   9.520
 1893POPC   PO427036   9.462  17.823   9.431
 1893POPC   GL127037   9.738  17.573   9.177
 1893POPC   GL227038  10.041  17.731   9.060
 1893POPC   C1A27039   9.661  17.512   8.756
 1893POPC   D2A27040   9.481  17.730   8.418
 1893POPC   C3A27041   9.482  17.457   8.049
 1893POPC   C4A27042   9.393  17.350   7.620
 1893POPC   C1B27043  10.152  17.598   8.646
 1893POPC   C2B27044   9.936  17.498   8.298
 1893POPC   C3B27045  10.007  17.398   7.886
 1893POPC   C4B27046  10.368  17.689   7.805
 1894POPC   NC327047  42.108  27.040   9.361
 1894POPC   PO427048  42.640  26.645   9.498
 1894POPC   GL127049  42.511  26.746   9.112
 1894POPC   GL227050  42.276  26.495   9.100
 1894POPC   C1A27051  42.431  26.801   8.659
 1894POPC   D2A27052  42.610  26.855   8.234
 1894POPC   C3A27053  42.277  26.780   7.969
 1894POPC   C4A27054  42.099  26.840   7.560
 1894POPC   C1B27055  42.645  26.349   8.814
 1894POPC   C2B27056  42.838  26.376   8.382
 1894POPC   C3B27057  42.681  26.417   7.945
 1894POPC   C4B27058  42.383  26.423   7.602
 1895POPC   NC327059  33.151  42.041   9.415
 1895POPC   PO427060  32.936  42.695   9.657
 1895POPC   GL127061  33.088  42.580   9.186
 1895POPC   GL227062  32.922  42.277   9.039
 1895POPC   C1A27063  32.995  42.649   8.700
 1895POPC   D2A27064  32.862  42.343   8.344
 1895POPC   C3A27065  33.019  42.420   7.914
 1895POPC   C4A27066  32.937  42.211   7.483
 1895POPC   C1B27067  32.921  41.950   8.715
 1895POPC   C2B27068  33.181  41.927   8.358
 1895POPC   C3B27069  33.035  41.920   7.947
 1895POPC   C4B27070  33.247  41.815   7.571
 1896POPC   NC327071  38.492  40.630   9.432
 1896POPC   PO427072  38.588  41.261   9.440
 1896POPC   GL127073  38.348  41.020   9.110
 1896POPC   GL227074  38.125  40.681   9.093
 1896POPC   C1A27075  38.581  40.810   8.776
 1896POPC   D2A27076  38.500  40.661   8.378
 1896POPC   C3A27077  38.659  40.775   7.999
 1896POPC   C4A27078  38.408  41.072   7.813
 1896POPC   C1B27079  38.275  40.393   8.764
 1896POPC   C2B27080  38.366  40.193   8.358
 1896POPC   C3B27081  38.224  40.279   7.957
 1896POPC   C4B27082  38.366  40.547   7.644
 1897POPC   NC327083   7.362  44.596   9.421
 1897POPC   PO427084   7.938  44.874   9.475
 1897POPC   GL127085   7.762  44.666   9.102
 1897POPC   GL227086   7.484  44.937   9.065
 1897POPC   C1A27087   7.540  44.547   8.709
 1897POPC   D2A27088   7.546  44.286   8.330
 1897POPC   C3A27089   7.448  44.411   7.924
 1897POPC   C4A27090   7.633  44.708   7.689
 1897POPC   C1B27091   7.314   0.003   8.663
 1897POPC   C2B27092   7.441  44.817   8.251
 1897POPC   C3B27093   7.173  44.860   7.856
 1897POPC   C4B27094   7.068   0.054   7.409
 1898POPC   NC327095  16.692  40.797   9.638
 1898POPC   PO427096  17.067  40.513   9.616
 1898POPC   GL127097  16.890  40.650   9.175
 1898POPC   GL227098  16.512  40.673   9.148
 1898POPC   C1A27099  16.771  40.671   8.716
 1898POPC   D2A27100  16.542  40.651   8.329
 1898POPC   C3A27101  16.758  40.778   7.928
 1898POPC   C4A27102  16.994  40.686   7.529
 1898POPC   C1B27103  16.329  40.944   8.791
 1898POPC   C2B27104  16.092  40.934   8.393
 1898POPC   C3B27105  16.246  40.868   7.944
 1898POPC   C4B27106  16.509  41.183   7.702
 1899POPC   NC327107  15.904  35.467   9.614
 1899POPC   PO427108  16.515  35.243   9.458
 1899POPC   GL127109  16.244  35.093   9.124
 1899POPC   GL227110  15.875  35.154   9.210
 1899POPC   C1A27111  16.174  34.977   8.681
 1899POPC   D2A27112  15.863  35.143   8.366
 1899POPC   C3A27113  15.983  35.277   7.940
 1899POPC   C4A27114  15.768  35.113   7.610
 1899POPC   C1B27115  15.881  35.368   8.829
 1899POPC   C2B27116  15.605  35.573   8.531
 1899POPC   C3B27117  15.568  35.511   8.119
 1899POPC   C4B27118  15.640  35.608   7.713
 1900POPC   NC327119  39.155  30.558   9.305
 1900POPC   PO427120  39.278  30.004   9.693
 1900POPC   GL127121  39.260  30.057   9.231
 1900POPC   GL227122  39.027  29.838   9.143
 1900POPC   C1A27123  39.457  29.948   8.827
 1900POPC   D2A27124  39.333  29.680   8.473
 1900POPC   C3A27125  39.331  29.860   8.064
 1900POPC   C4A27126  39.311  29.704   7.645
 1900POPC   C1B27127  38.942  30.047   8.760
 1900POPC   C2B27128  38.855  29.876   8.382
 1900POPC   C3B27129  38.801  29.962   8.000
 1900POPC   C4B27130  38.904  29.988   7.602
 1901POPC   NC327131  13.592  32.418   9.522
 1901POPC   PO427132  13.933  31.767   9.583
 1901POPC   GL127133  13.894  32.021   9.153
 1901POPC   GL227134  13.578  32.101   9.142
 1901POPC   C1A27135  13.771  32.188   8.676
 1901POPC   D2A27136  13.789  32.487   8.334
 1901POPC   C3A27137  13.902  32.329   7.926
 1901POPC   C4A27138  13.787  32.429   7.503
 1901POPC   C1B27139  13.336  32.353   8.849
 1901POPC   C2B27140  13.323  32.268   8.418
 1901POPC   C3B27141  13.401  32.297   7.989
 1901POPC   C4B27142  13.284  32.561   7.660
 1902POPC   NC327143   2.321  37.935   9.632
 1902POPC   PO427144   2.086  37.260   9.603
 1902POPC   GL127145   2.112  37.515   9.205
 1902POPC   GL227146   2.076  37.904   9.188
 1902POPC   C1A27147   1.999  37.648   8.772
 1902POPC   D2A27148   1.968  37.907   8.387
 1902POPC   C3A27149   1.976  37.693   7.991
 1902POPC   C4A27150   1.727  37.612   7.673
 1902POPC   C1B27151   2.296  38.067   8.803
 1902POPC   C2B27152   2.365  38.237   8.395
 1902POPC   C3B27153   2.247  38.173   7.964
 1902POPC   C4B27154   2.201  37.986   7.540
 1903POPC   NC327155  17.077  12.352   9.251
 1903POPC   PO427156  16.495  12.137   9.525
 1903POPC   GL127157  16.518  12.154   9.084
 1903POPC   GL227158  16.804  11.991   9.034
 1903POPC   C1A27159  16.505  12.053   8.613
 1903POPC   D2A27160  16.651  12.379   8.313
 1903POPC   C3A27161  16.873  12.305   7.920
 1903POPC   C4A27162  16.723  11.990   7.635
 1903POPC   C1B27163  17.006  12.138   8.647
 1903POPC   C2B27164  16.942  11.923   8.272
 1903POPC   C3B27165  17.146  11.874   7.902
 1903POPC   C4B27166  17.228  12.107   7.516
 1904POPC   NC327167   7.038  17.404   9.584
 1904POPC   PO427168   6.419  17.771   9.600
 1904POPC   GL127169   6.751  17.702   9.305
 1904POPC   GL227170   6.604  17.428   9.249
 1904POPC   C1A27171   6.928  17.476   8.875
 1904POPC   D2A27172   6.809  17.293   8.463
 1904POPC   C3A27173   6.971  17.349   8.042
 1904POPC   C4A27174   6.876  17.550   7.711
 1904POPC   C1B27175   6.421  17.619   8.900
 1904POPC   C2B27176   6.323  17.496   8.473
 1904POPC   C3B27177   6.419  17.345   8.079
 1904POPC   C4B27178   6.382  17.511   7.700
 1905POPC   NC327179   5.261  35.072   9.514
 1905POPC   PO427180   5.152  35.791   9.580
 1905POPC   GL127181   5.090  35.422   9.194
 1905POPC   GL227182   5.312  35.076   9.021
 1905POPC   C1A27183   5.011  35.358   8.738
 1905POPC   D2A27184   4.998  35.031   8.404
 1905POPC   C3A27185   5.041  35.180   7.968
 1905POPC   C4A27186   4.949  35.536   7.697
 1905POPC   C1B27187   5.477  35.202   8.597
 1905POPC   C2B27188   5.312  35.475   8.287
 1905POPC   C3B27189   5.422  35.536   7.863
 1905POPC   C4B27190   5.372  35.250   7.488
 1906POPC   NC327191  26.292  23.338   9.431
 1906POPC   PO427192  25.852  23.802   9.608
 1906POPC   GL127193  26.062  23.866   9.208
 1906POPC   GL227194  25.767  24.032   9.103
 1906POPC   C1A27195  26.299  23.680   8.835
 1906POPC   D2A27196  26.131  23.386   8.503
 1906POPC   C3A27197  26.227  23.444   8.051
 1906POPC   C4A27198  26.160  23.554   7.623
 1906POPC   C1B27199  25.825  23.822   8.702
 1906POPC   C2B27200  26.142  23.896   8.380
 1906POPC   C3B27201  26.217  23.971   7.955
 1906POPC   C4B27202  25.962  24.035   7.571
 1907POPC   NC327203  37.140  40.099   9.888
 1907POPC   PO427204  36.701  39.663   9.616
 1907POPC   GL127205  37.009  39.763   9.286
 1907POPC   GL227206  37.119  40.109   9.252
 1907POPC   C1A27207  37.014  39.725   8.836
 1907POPC   D2A27208  36.771  39.628   8.470
 1907POPC   C3A27209  36.796  39.875   8.090
 1907POPC   C4A27210  36.969  39.853   7.705
 1907POPC   C1B27211  37.201  40.238   8.830
 1907POPC   C2B27212  37.145  40.039   8.424
 1907POPC   C3B27213  37.222  40.173   7.995
 1907POPC   C4B27214  36.942  40.375   7.670
 1908POPC   NC327215  41.151   4.512   9.443
 1908POPC   PO427216  41.622   4.296   9.833
 1908POPC   GL127217  41.619   4.324   9.287
 1908POPC   GL227218  41.796   4.052   9.114
 1908POPC   C1A27219  41.574   4.335   8.782
 1908POPC   D2A27220  41.699   4.535   8.364
 1908POPC   C3A27221  41.427   4.546   7.968
 1908POPC   C4A27222  41.196   4.730   7.594
 1908POPC   C1B27223  41.828   3.840   8.714
 1908POPC   C2B27224  41.677   4.000   8.308
 1908POPC   C3B27225  41.733   4.130   7.861
 1908POPC   C4B27226  41.727   3.824   7.483
 1909POPC   NC327227  10.708  32.164   9.465
 1909POPC   PO427228  10.299  32.581   9.668
 1909POPC   GL127229  10.410  32.597   9.201
 1909POPC   GL227230  10.717  32.711   8.979
 1909POPC   C1A27231  10.313  32.483   8.770
 1909POPC   D2A27232  10.457  32.291   8.400
 1909POPC   C3A27233  10.652  32.487   8.065
 1909POPC   C4A27234  10.285  32.401   7.774
 1909POPC   C1B27235  10.746  32.230   8.814
 1909POPC   C2B27236  10.782  31.907   8.417
 1909POPC   C3B27237  10.589  31.987   7.991
 1909POPC   C4B27238  10.759  32.248   7.632
 1910POPC   NC327239  42.021  34.220   9.574
 1910POPC   PO427240  42.574  34.058   9.360
 1910POPC   GL127241  42.184  33.890   9.166
 1910POPC   GL227242  42.046  33.592   9.305
 1910POPC   C1A27243  42.055  33.983   8.729
 1910POPC   D2A27244  42.409  34.158   8.463
 1910POPC   C3A27245  42.487  34.054   8.024
 1910POPC   C4A27246  42.667  33.817   7.700
 1910POPC   C1B27247  42.000  33.469   8.873
 1910POPC   C2B27248  41.996  33.535   8.433
 1910POPC   C3B27249  41.874  33.701   8.033
 1910POPC   C4B27250  42.214  33.587   7.751
 1911POPC   NC327251  37.351   6.704   9.430
 1911POPC   PO427252  37.980   6.436   9.488
 1911POPC   GL127253  37.837   6.682   9.139
 1911POPC   GL227254  37.549   6.863   8.993
 1911POPC   C1A27255  37.949   6.634   8.726
 1911POPC   D2A27256  37.977   6.359   8.398
 1911POPC   C3A27257  37.764   6.476   8.019
 1911POPC   C4A27258  37.738   6.540   7.581
 1911POPC   C1B27259  37.453   6.698   8.593
 1911POPC   C2B27260  37.537   6.883   8.216
 1911POPC   C3B27261  37.703   6.966   7.810
 1911POPC   C4B27262  37.623   6.978   7.316
 1912POPC   NC327263  19.058  31.675   9.546
 1912POPC   PO427264  18.959  31.072   9.774
 1912POPC   GL127265  18.971  31.237   9.250
 1912POPC   GL227266  19.250  31.463   9.100
 1912POPC   C1A27267  18.850  31.548   8.832
 1912POPC   D2A27268  19.039  31.604   8.354
 1912POPC   C3A27269  18.771  31.663   7.957
 1912POPC   C4A27270  18.549  31.699   7.521
 1912POPC   C1B27271  19.195  31.233   8.675
 1912POPC   C2B27272  19.172  31.073   8.263
 1912POPC   C3B27273  19.215  31.342   7.912
 1912POPC   C4B27274  19.472  31.719   7.938
 1913POPC   NC327275  18.246  35.753   9.577
 1913POPC   PO427276  18.130  35.096   9.421
 1913POPC   GL127277  18.338  35.313   9.161
 1913POPC   GL227278  18.111  35.571   9.119
 1913POPC   C1A27279  18.299  35.133   8.764
 1913POPC   D2A27280  18.401  35.242   8.336
 1913POPC   C3A27281  18.104  35.097   8.039
 1913POPC   C4A27282  18.037  35.251   7.658
 1913POPC   C1B27283  18.366  35.621   8.755
 1913POPC   C2B27284  18.204  35.722   8.395
 1913POPC   C3B27285  18.027  35.597   8.045
 1913POPC   C4B27286  18.287  35.694   7.746
 1914POPC   NC327287  10.936  42.138   9.412
 1914POPC   PO427288  11.373  42.595   9.558
 1914POPC   GL127289  11.177  42.549   9.157
 1914POPC   GL227290  11.441  42.297   9.085
 1914POPC   C1A27291  11.014  42.321   8.773
 1914POPC   D2A27292  11.215  42.256   8.369
 1914POPC   C3A27293  11.147  42.550   8.045
 1914POPC   C4A27294  10.994  42.423   7.690
 1914POPC   C1B27295  11.502  42.543   8.694
 1914POPC   C2B27296  11.639  42.556   8.247
 1914POPC   C3B27297  11.536  42.296   7.887
 1914POPC   C4B27298  11.485  42.429   7.446
 1915POPC   NC327299  13.454  35.622   9.424
 1915POPC   PO427300  13.720  35.005   9.478
 1915POPC   GL127301  13.462  35.189   9.106
 1915POPC   GL227302  13.195  35.527   9.020
 1915POPC   C1A27303  13.537  35.329   8.680
 1915POPC   D2A27304  13.557  35.529   8.289
 1915POPC   C3A27305  13.561  35.283   7.948
 1915POPC   C4A27306  13.561  35.016   7.613
 1915POPC   C1B27307  13.340  35.828   8.700
 1915POPC   C2B27308  13.224  35.920   8.258
 1915POPC   C3B27309  13.395  35.800   7.844
 1915POPC   C4B27310  13.497  35.510   7.494
 1916POPC   NC327311   6.774  28.744   9.438
 1916POPC   PO427312   6.290  29.280   9.368
 1916POPC   GL127313   6.577  29.070   9.098
 1916POPC   GL227314   6.365  28.803   9.094
 1916POPC   C1A27315   6.833  28.941   8.709
 1916POPC   D2A27316   6.900  28.917   8.228
 1916POPC   C3A27317   6.714  29.240   7.936
 1916POPC   C4A27318   6.782  29.324   7.486
 1916POPC   C1B27319   6.306  28.965   8.687
 1916POPC   C2B27320   6.383  29.073   8.307
 1916POPC   C3B27321   6.404  28.830   7.965
 1916POPC   C4B27322   6.356  29.001   7.594
 1917POPC   NC327323  40.373  31.839   9.478
 1917POPC   PO427324  39.890  32.229   9.520
 1917POPC   GL127325  40.041  32.151   9.132
 1917POPC   GL227326  40.307  32.343   9.117
 1917POPC   C1A27327  39.899  32.434   8.804
 1917POPC   D2A27328  39.720  32.451   8.414
 1917POPC   C3A27329  39.869  32.100   8.158
 1917POPC   C4A27330  39.847  32.358   7.838
 1917POPC   C1B27331  40.346  32.210   8.690
 1917POPC   C2B27332  40.228  32.432   8.341
 1917POPC   C3B27333  40.341  32.418   7.933
 1917POPC   C4B27334  40.261  32.009   7.783
 1918POPC   NC327335  30.220   2.687   9.222
 1918POPC   PO427336  29.580   2.829   9.213
 1918POPC   GL127337  29.799   2.709   8.924
 1918POPC   GL227338  29.861   2.386   9.036
 1918POPC   C1A27339  29.982   2.802   8.536
 1918POPC   D2A27340  29.779   3.004   8.184
 1918POPC   C3A27341  29.951   2.793   7.869
 1918POPC   C4A27342  30.200   2.448   7.883
 1918POPC   C1B27343  29.779   2.314   8.620
 1918POPC   C2B27344  29.844   2.384   8.227
 1918POPC   C3B27345  29.641   2.393   7.852
 1918POPC   C4B27346  29.667   2.633   7.469
 1919POPC   NC327347  26.071  30.142   9.380
 1919POPC   PO427348  25.940  29.509   9.459
 1919POPC   GL127349  25.829  29.770   9.120
 1919POPC   GL227350  26.142  29.883   8.952
 1919POPC   C1A27351  25.704  29.897   8.736
 1919POPC   D2A27352  25.988  29.831   8.415
 1919POPC   C3A27353  25.777  29.911   8.054
 1919POPC   C4A27354  25.886  29.897   7.635
 1919POPC   C1B27355  26.333  30.153   8.651
 1919POPC   C2B27356  26.194  30.299   8.260
 1919POPC   C3B27357  26.287  30.016   7.941
 1919POPC   C4B27358  26.319  30.109   7.502
 1920POPC   NC327359  26.709  26.793   9.535
 1920POPC   PO427360  27.367  26.658   9.320
 1920POPC   GL127361  26.991  26.731   9.094
 1920POPC   GL227362  26.698  26.954   9.072
 1920POPC   C1A27363  26.778  26.649   8.695
 1920POPC   D2A27364  26.474  26.827   8.424
 1920POPC   C3A27365  26.600  26.788   8.012
 1920POPC   C4A27366  26.843  26.452   7.905
 1920POPC   C1B27367  26.930  27.139   8.758
 1920POPC   C2B27368  26.957  27.022   8.349
 1920POPC   C3B27369  26.937  27.213   7.980
 1920POPC   C4B27370  26.631  27.159   7.616
 1921POPC   NC327371  30.992  18.479   9.531
 1921POPC   PO427372  30.583  17.997   9.450
 1921POPC   GL127373  30.922  18.095   9.152
 1921POPC   GL227374  30.865  18.432   9.061
 1921POPC   C1A27375  31.005  18.076   8.709
 1921POPC   D2A27376  30.754  18.165   8.340
 1921POPC   C3A27377  30.975  18.248   7.960
 1921POPC   C4A27378  31.147  17.936   7.693
 1921POPC   C1B27379  30.603  18.639   8.806
 1921POPC   C2B27380  30.609  18.678   8.398
 1921POPC   C3B27381  30.413  18.490   8.084
 1921POPC   C4B27382  30.492  18.211   7.783
 1922POPC   NC327383  31.733  38.736   9.576
 1922POPC   PO427384  31.150  39.078   9.512
 1922POPC   GL127385  31.345  38.722   9.218
 1922POPC   GL227386  31.667  38.832   9.097
 1922POPC   C1A27387  31.508  38.493   8.774
 1922POPC   D2A27388  31.443  38.371   8.304
 1922POPC   C3A27389  31.640  38.238   7.851
 1922POPC   C4A27390  31.584  38.239   7.382
 1922POPC   C1B27391  31.700  38.968   8.685
 1922POPC   C2B27392  31.785  38.766   8.295
 1922POPC   C3B27393  31.512  38.734   7.938
 1922POPC   C4B27394  31.486  38.714   7.496
 1923POPC   NC327395  14.104  20.496   9.580
 1923POPC   PO427396  14.579  20.377   9.198
 1923POPC   GL127397  14.247  20.536   8.957
 1923POPC   GL227398  13.944  20.748   8.998
 1923POPC   C1A27399  14.369  20.494   8.517
 1923POPC   D2A27400  14.551  20.136   8.325
 1923POPC   C3A27401  14.619  20.205   7.925
 1923POPC   C4A27402  14.462  20.506   7.687
 1923POPC   C1B27403  14.235  20.954   8.679
 1923POPC   C2B27404  14.432  20.947   8.259
 1923POPC   C3B27405  14.285  20.953   7.847
 1923POPC   C4B27406  14.133  20.997   7.470
 1924POPC   NC327407   2.702  39.740   9.501
 1924POPC   PO427408   3.085  40.370   9.492
 1924POPC   GL127409   2.939  40.074   9.169
 1924POPC   GL227410   2.608  40.149   9.122
 1924POPC   C1A27411   3.042  39.824   8.774
 1924POPC   D2A27412   3.124  39.578   8.372
 1924POPC   C3A27413   3.021  39.806   7.979
 1924POPC   C4A27414   2.803  40.114   7.672
 1924POPC   C1B27415   2.516  39.989   8.747
 1924POPC   C2B27416   2.676  39.822   8.384
 1924POPC   C3B27417   2.516  39.843   8.011
 1924POPC   C4B27418   2.360  39.809   7.619
 1925POPC   NC327419  30.135  17.950   9.519
 1925POPC   PO427420  29.641  18.321   9.734
 1925POPC   GL127421  29.780  18.219   9.286
 1925POPC   GL227422  29.777  18.456   9.083
 1925POPC   C1A27423  30.022  18.068   8.888
 1925POPC   D2A27424  30.306  18.240   8.577
 1925POPC   C3A27425  30.256  18.000   8.200
 1925POPC   C4A27426  29.976  18.234   7.941
 1925POPC   C1B27427  29.629  18.369   8.674
 1925POPC   C2B27428  29.565  18.230   8.266
 1925POPC   C3B27429  29.506  18.478   7.943
 1925POPC   C4B27430  29.612  18.639   7.585
 1926POPC   NC327431  30.402  31.525   9.646
 1926POPC   PO427432  31.056  31.285   9.623
 1926POPC   GL127433  30.740  31.373   9.273
 1926POPC   GL227434  30.822  31.621   9.057
 1926POPC   C1A27435  30.514  31.253   8.840
 1926POPC   D2A27436  30.657  31.119   8.406
 1926POPC   C3A27437  30.427  31.347   8.078
 1926POPC   C4A27438  30.482  31.437   7.644
 1926POPC   C1B27439  30.973  31.434   8.707
 1926POPC   C2B27440  30.758  31.619   8.383
 1926POPC   C3B27441  30.921  31.556   7.967
 1926POPC   C4B27442  30.901  31.176   7.774
 1927POPC   NC327443  22.756  17.968   9.598
 1927POPC   PO427444  23.344  18.337   9.437
 1927POPC   GL127445  23.023  18.428   9.095
 1927POPC   GL227446  22.691  18.374   9.198
 1927POPC   C1A27447  22.849  18.571   8.709
 1927POPC   D2A27448  22.880  18.286   8.382
 1927POPC   C3A27449  22.842  18.421   7.950
 1927POPC   C4A27450  22.769  18.800   7.652
 1927POPC   C1B27451  22.690  18.065   8.833
 1927POPC   C2B27452  22.496  17.944   8.432
 1927POPC   C3B27453  22.399  18.077   8.022
 1927POPC   C4B27454  22.608  18.071   7.644
 1928POPC   NC327455  33.048  20.556   9.621
 1928POPC   PO427456  33.162  21.279   9.669
 1928POPC   GL127457  33.272  20.953   9.293
 1928POPC   GL227458  33.124  20.605   9.139
 1928POPC   C1A27459  33.420  20.863   8.855
 1928POPC   D2A27460  33.209  20.518   8.604
 1928POPC   C3A27461  33.215  20.537   8.135
 1928POPC   C4A27462  33.080  20.327   7.735
 1928POPC   C1B27463  32.846  20.312   8.938
 1928POPC   C2B27464  32.673  20.349   8.536
 1928POPC   C3B27465  32.722  20.389   8.123
 1928POPC   C4B27466  32.569  20.343   7.728
 1929POPC   NC327467  24.286  17.888   9.527
 1929POPC   PO427468  24.702  18.392   9.504
 1929POPC   GL127469  24.469  18.281   9.170
 1929POPC   GL227470  24.651  17.993   9.055
 1929POPC   C1A27471  24.502  18.495   8.763
 1929POPC   D2A27472  24.710  18.436   8.358
 1929POPC   C3A27473  24.457  18.507   7.958
 1929POPC   C4A27474  24.418  18.513   7.477
 1929POPC   C1B27475  24.284  18.019   8.776
 1929POPC   C2B27476  24.244  18.233   8.389
 1929POPC   C3B27477  24.248  18.045   8.027
 1929POPC   C4B27478  24.309  18.052   7.639
 1930POPC   NC327479  35.875  30.630   9.599
 1930POPC   PO427480  36.425  30.920   9.348
 1930POPC   GL127481  36.179  30.681   9.107
 1930POPC   GL227482  36.474  30.657   8.899
 1930POPC   C1A27483  35.874  30.704   8.785
 1930POPC   D2A27484  35.770  30.527   8.387
 1930POPC   C3A27485  35.936  30.723   8.010
 1930POPC   C4A27486  35.809  30.842   7.605
 1930POPC   C1B27487  36.334  30.378   8.618
 1930POPC   C2B27488  36.174  30.241   8.250
 1930POPC   C3B27489  36.437  30.308   7.935
 1930POPC   C4B27490  36.530  30.767   7.969
 1931POPC   NC327491  19.628   4.714   9.528
 1931POPC   PO427492  19.833   4.078   9.657
 1931POPC   GL127493  19.651   4.065   9.179
 1931POPC   GL227494  19.691   4.443   9.063
 1931POPC   C1A27495  19.714   4.044   8.718
 1931POPC   D2A27496  19.941   4.268   8.395
 1931POPC   C3A27497  19.890   4.227   7.960
 1931POPC   C4A27498  19.556   4.448   7.761
 1931POPC   C1B27499  20.039   4.583   8.760
 1931POPC   C2B27500  20.232   4.714   8.366
 1931POPC   C3B27501  20.042   4.735   7.952
 1931POPC   C4B27502  20.033   4.518   7.550
 1932POPC   NC327503  37.820  17.586   9.429
 1932POPC   PO427504  37.202  17.252   9.561
 1932POPC   GL127505  37.434  17.364   9.151
 1932POPC   GL227506  37.388  17.736   9.143
 1932POPC   C1A27507  37.691  17.255   8.739
 1932POPC   D2A27508  37.726  17.219   8.266
 1932POPC   C3A27509  37.871  17.610   8.040
 1932POPC   C4A27510  37.764  17.722   7.614
 1932POPC   C1B27511  37.172  17.583   8.747
 1932POPC   C2B27512  37.240  17.389   8.341
 1932POPC   C3B27513  37.362  17.526   7.926
 1932POPC   C4B27514  37.159  17.738   7.570
 1933POPC   NC327515  21.773  15.290   9.314
 1933POPC   PO427516  21.197  15.058   9.481
 1933POPC   GL127517  21.402  15.053   9.052
 1933POPC   GL227518  21.735  14.905   8.961
 1933POPC   C1A27519  21.409  15.174   8.610
 1933POPC   D2A27520  21.342  15.237   8.153
 1933POPC   C3A27521  21.493  14.942   7.843
 1933POPC   C4A27522  21.471  14.822   7.383
 1933POPC   C1B27523  21.888  15.313   8.705
 1933POPC   C2B27524  21.755  15.471   8.335
 1933POPC   C3B27525  21.805  15.465   7.893
 1933POPC   C4B27526  21.692  15.272   7.496
 1934POPC   NC327527   3.826  34.925   9.505
 1934POPC   PO427528   3.465  34.335   9.514
 1934POPC   GL127529   3.486  34.548   9.166
 1934POPC   GL227530   3.816  34.513   9.082
 1934POPC   C1A27531   3.449  34.630   8.729
 1934POPC   D2A27532   3.220  34.399   8.411
 1934POPC   C3A27533   3.397  34.289   8.054
 1934POPC   C4A27534   3.293  34.448   7.660
 1934POPC   C1B27535   3.947  34.729   8.708
 1934POPC   C2B27536   3.751  34.614   8.310
 1934POPC   C3B27537   3.767  34.630   7.871
 1934POPC   C4B27538   4.055  34.487   7.539
 1935POPC   NC327539  36.402  18.169   9.454
 1935POPC   PO427540  37.084  18.035   9.460
 1935POPC   GL127541  37.078  18.156   9.028
 1935POPC   GL227542  36.917  18.470   9.072
 1935POPC   C1A27543  37.195  18.437   8.661
 1935POPC   D2A27544  37.293  18.715   8.338
 1935POPC   C3A27545  37.175  18.479   7.959
 1935POPC   C4A27546  36.958  18.108   7.815
 1935POPC   C1B27547  36.670  18.346   8.668
 1935POPC   C2B27548  36.626  18.217   8.191
 1935POPC   C3B27549  36.648  18.486   7.777
 1935POPC   C4B27550  36.451  18.421   7.348
 1936POPC   NC327551  38.517   2.971   9.619
 1936POPC   PO427552  37.947   2.701   9.527
 1936POPC   GL127553  38.270   2.705   9.225
 1936POPC   GL227554  38.400   2.360   9.205
 1936POPC   C1A27555  38.483   2.860   8.852
 1936POPC   D2A27556  38.532   2.721   8.428
 1936POPC   C3A27557  38.267   2.881   8.097
 1936POPC   C4A27558  38.202   2.830   7.670
 1936POPC   C1B27559  38.315   2.355   8.764
 1936POPC   C2B27560  38.410   2.117   8.401
 1936POPC   C3B27561  38.411   2.371   8.030
 1936POPC   C4B27562  38.741   2.518   7.740
 1937POPC   NC327563   9.898  26.312   9.572
 1937POPC   PO427564  10.054  27.024   9.646
 1937POPC   GL127565  10.061  27.004   9.198
 1937POPC   GL227566  10.017  26.681   9.257
 1937POPC   C1A27567   9.907  26.805   8.773
 1937POPC   D2A27568   9.672  26.616   8.421
 1937POPC   C3A27569   9.683  26.803   8.008
 1937POPC   C4A27570   9.980  27.086   7.870
 1937POPC   C1B27571  10.184  26.409   8.971
 1937POPC   C2B27572  10.146  26.412   8.547
 1937POPC   C3B27573  10.168  26.727   8.246
 1937POPC   C4B27574  10.121  26.610   7.819
 1938POPC   NC327575  41.340  29.505   9.508
 1938POPC   PO427576  41.498  28.884   9.722
 1938POPC   GL127577  41.425  28.908   9.269
 1938POPC   GL227578  41.548  29.245   9.109
 1938POPC   C1A27579  41.466  28.853   8.822
 1938POPC   D2A27580  41.605  29.044   8.438
 1938POPC   C3A27581  41.320  29.257   8.173
 1938POPC   C4A27582  41.233  29.213   7.738
 1938POPC   C1B27583  41.788  29.461   8.736
 1938POPC   C2B27584  41.755  29.532   8.278
 1938POPC   C3B27585  41.662  29.484   7.820
 1938POPC   C4B27586  41.830  29.536   7.352
 1939POPC   NC327587  14.609  27.391   9.631
 1939POPC   PO427588  14.200  26.836   9.482
 1939POPC   GL127589  14.329  26.984   9.103
 1939POPC   GL227590  14.622  27.128   9.147
 1939POPC   C1A27591  14.543  26.702   8.859
 1939POPC   D2A27592  14.451  26.459   8.500
 1939POPC   C3A27593  14.538  26.601   8.099
 1939POPC   C4A27594  14.653  26.539   7.673
 1939POPC   C1B27595  14.758  27.253   8.729
 1939POPC   C2B27596  14.604  27.338   8.325
 1939POPC   C3B27597  14.795  27.072   8.005
 1939POPC   C4B27598  14.751  27.035   7.584
 1940POPC   NC327599   1.463  39.419   9.317
 1940POPC   PO427600   0.792  39.477   9.519
 1940POPC   GL127601   1.037  39.208   9.149
 1940POPC   GL227602   1.221  39.433   8.874
 1940POPC   C1A27603   1.304  38.923   8.824
 1940POPC   D2A27604   1.376  39.064   8.370
 1940POPC   C3A27605   1.335  38.936   7.926
 1940POPC   C4A27606   0.939  38.921   7.698
 1940POPC   C1B27607   1.655  39.308   8.716
 1940POPC   C2B27608   1.816  39.298   8.337
 1940POPC   C3B27609   1.537  39.460   8.046
 1940POPC   C4B27610   1.236  39.520   7.716
 1941POPC   NC327611  41.577  41.777   9.507
 1941POPC   PO427612  41.689  41.060   9.482
 1941POPC   GL127613  41.733  41.379   9.217
 1941POPC   GL227614  41.374  41.427   9.177
 1941POPC   C1A27615  41.810  41.559   8.817
 1941POPC   D2A27616  41.940  41.447   8.408
 1941POPC   C3A27617  41.800  41.600   8.026
 1941POPC   C4A27618  41.629  41.540   7.617
 1941POPC   C1B27619  41.307  41.693   8.824
 1941POPC   C2B27620  41.434  41.662   8.405
 1941POPC   C3B27621  41.257  41.582   8.031
 1941POPC   C4B27622  41.133  41.684   7.661
 1942POPC   NC327623  13.973  18.926   9.468
 1942POPC   PO427624  13.318  18.931   9.494
 1942POPC   GL127625  13.564  18.869   9.125
 1942POPC   GL227626  13.675  19.196   9.149
 1942POPC   C1A27627  13.641  18.904   8.681
 1942POPC   D2A27628  13.428  18.949   8.281
 1942POPC   C3A27629  13.549  18.659   8.005
 1942POPC   C4A27630  13.721  18.773   7.619
 1942POPC   C1B27631  13.485  19.404   8.805
 1942POPC   C2B27632  13.272  19.444   8.457
 1942POPC   C3B27633  13.399  19.446   8.069
 1942POPC   C4B27634  13.552  19.397   7.683
 1943POPC   NC327635   6.920  39.469   9.490
 1943POPC   PO427636   6.391  39.051   9.474
 1943POPC   GL127637   6.567  39.280   9.132
 1943POPC   GL227638   6.877  39.097   9.084
 1943POPC   C1A27639   6.820  39.504   8.798
 1943POPC   D2A27640   7.027  39.288   8.472
 1943POPC   C3A27641   6.771  39.390   8.123
 1943POPC   C4A27642   6.802  39.563   7.711
 1943POPC   C1B27643   6.648  39.009   8.686
 1943POPC   C2B27644   6.755  38.894   8.254
 1943POPC   C3B27645   6.547  39.004   7.870
 1943POPC   C4B27646   6.595  39.123   7.436
 1944POPC   NC327647   4.962  36.269   9.323
 1944POPC   PO427648   5.548  36.108   9.283
 1944POPC   GL127649   5.160  35.944   9.005
 1944POPC   GL227650   4.784  35.829   9.186
 1944POPC   C1A27651   4.954  36.238   8.651
 1944POPC   D2A27652   4.806  36.390   8.220
 1944POPC   C3A27653   5.057  36.222   7.868
 1944POPC   C4A27654   5.279  35.943   7.580
 1944POPC   C1B27655   4.737  35.783   8.763
 1944POPC   C2B27656   4.917  35.821   8.342
 1944POPC   C3B27657   4.698  35.908   7.969
 1944POPC   C4B27658   4.753  35.963   7.479
 1945POPC   NC327659  11.233   3.863   9.927
 1945POPC   PO427660  11.551   4.229   9.472
 1945POPC   GL127661  11.381   4.329   9.119
 1945POPC   GL227662  11.129   4.581   9.118
 1945POPC   C1A27663  11.521   4.384   8.741
 1945POPC   D2A27664  11.413   4.222   8.397
 1945POPC   C3A27665  11.531   4.412   8.055
 1945POPC   C4A27666  11.446   4.265   7.677
 1945POPC   C1B27667  11.018   4.296   8.779
 1945POPC   C2B27668  10.881   4.178   8.421
 1945POPC   C3B27669  11.058   4.203   8.041
 1945POPC   C4B27670  10.926   4.282   7.669
 1946POPC   NC327671  12.842   9.077   9.497
 1946POPC   PO427672  12.580   8.460   9.496
 1946POPC   GL127673  12.717   8.769   9.110
 1946POPC   GL227674  12.656   9.154   9.038
 1946POPC   C1A27675  12.862   8.922   8.657
 1946POPC   D2A27676  12.711   9.078   8.233
 1946POPC   C3A27677  13.011   8.959   7.896
 1946POPC   C4A27678  13.123   9.014   7.431
 1946POPC   C1B27679  12.627   9.397   8.648
 1946POPC   C2B27680  12.318   9.402   8.335
 1946POPC   C3B27681  12.417   9.449   7.909
 1946POPC   C4B27682  12.685   9.239   7.649
 1947POPC   NC327683  18.265   3.001   9.756
 1947POPC   PO427684  18.412   3.583   9.463
 1947POPC   GL127685  18.579   3.540   9.054
 1947POPC   GL227686  18.631   3.210   8.921
 1947POPC   C1A27687  18.315   3.551   8.668
 1947POPC   D2A27688  18.018   3.412   8.381
 1947POPC   C3A27689  18.112   3.557   8.024
 1947POPC   C4A27690  18.025   3.419   7.636
 1947POPC   C1B27691  18.811   3.509   8.590
 1947POPC   C2B27692  18.636   3.583   8.170
 1947POPC   C3B27693  18.528   3.584   7.735
 1947POPC   C4B27694  18.479   3.289   7.409
 1948POPC   NC327695  40.329  33.817   9.383
 1948POPC   PO427696  40.995  33.686   9.480
 1948POPC   GL127697  40.840  33.830   9.104
 1948POPC   GL227698  40.820  34.178   9.127
 1948POPC   C1A27699  40.840  33.643   8.693
 1948POPC   D2A27700  41.023  33.419   8.350
 1948POPC   C3A27701  40.878  33.547   7.911
 1948POPC   C4A27702  40.519  33.775   7.813
 1948POPC   C1B27703  41.020  34.114   8.693
 1948POPC   C2B27704  40.896  33.928   8.253
 1948POPC   C3B27705  41.020  34.017   7.787
 1948POPC   C4B27706  40.966  34.232   7.338
 1949POPC   NC327707  13.465  22.800   9.686
 1949POPC   PO427708  13.799  23.318   9.650
 1949POPC   GL127709  13.643  23.200   9.238
 1949POPC   GL227710  13.389  22.972   9.204
 1949POPC   C1A27711  13.702  23.093   8.798
 1949POPC   D2A27712  13.831  23.225   8.399
 1949POPC   C3A27713  13.819  22.917   8.080
 1949POPC   C4A27714  14.007  22.684   7.735
 1949POPC   C1B27715  13.233  22.845   8.812
 1949POPC   C2B27716  13.472  22.631   8.481
 1949POPC   C3B27717  13.316  22.693   8.071
 1949POPC   C4B27718  13.506  22.734   7.689
 1950POPC   NC327719  31.868  34.648   9.500
 1950POPC   PO427720  32.468  34.301   9.592
 1950POPC   GL127721  32.349  34.579   9.274
 1950POPC   GL227722  32.570  34.819   9.200
 1950POPC   C1A27723  32.163  34.593   8.871
 1950POPC   D2A27724  32.086  34.328   8.528
 1950POPC   C3A27725  32.008  34.437   8.122
 1950POPC   C4A27726  32.162  34.475   7.741
 1950POPC   C1B27727  32.554  34.954   8.782
 1950POPC   C2B27728  32.691  35.032   8.348
 1950POPC   C3B27729  32.532  34.935   7.914
 1950POPC   C4B27730  32.243  34.936   7.526
 1951POPC   NC327731  12.276  18.732   9.327
 1951POPC   PO427732  12.019  19.362   9.452
 1951POPC   GL127733  11.976  19.184   9.096
 1951POPC   GL227734  12.332  19.179   9.033
 1951POPC   C1A27735  11.965  19.336   8.666
 1951POPC   D2A27736  11.863  19.083   8.316
 1951POPC   C3A27737  11.914  19.137   7.888
 1951POPC   C4A27738  11.653  18.900   7.551
 1951POPC   C1B27739  12.136  18.852   8.710
 1951POPC   C2B27740  12.209  18.726   8.271
 1951POPC   C3B27741  12.194  18.725   7.824
 1951POPC   C4B27742  12.432  18.542   7.460
 1952POPC   NC327743  14.919  20.244   9.490
 1952POPC   PO427744  15.493  20.006   9.687
 1952POPC   GL127745  15.360  20.141   9.237
 1952POPC   GL227746  15.048  19.982   9.075
 1952POPC   C1A27747  15.404  20.245   8.797
 1952POPC   D2A27748  15.212  19.970   8.500
 1952POPC   C3A27749  15.074  20.165   8.143
 1952POPC   C4A27750  15.246  20.135   7.744
 1952POPC   C1B27751  14.745  19.888   8.749
 1952POPC   C2B27752  14.781  19.675   8.355
 1952POPC   C3B27753  14.876  19.663   7.907
 1952POPC   C4B27754  14.753  19.446   7.495
 1953POPC   NC327755  42.924   9.485   9.526
 1953POPC   PO427756  42.606  10.032   9.288
 1953POPC   GL127757  43.001   9.945   9.132
 1953POPC   GL227758  43.157   9.597   9.106
 1953POPC   C1A27759  43.210   9.933   8.744
 1953POPC   D2A27760  43.068   9.756   8.398
 1953POPC   C3A27761  43.036  10.053   8.112
 1953POPC   C4A27762  42.828   9.810   7.839
 1953POPC   C1B27763  43.315   9.422   8.724
 1953POPC   C2B27764  43.545   9.614   8.354
 1953POPC   C3B27765  43.343   9.671   7.944
 1953POPC   C4B27766  43.072   9.354   7.693
 1954POPC   NC327767   0.287   5.626   9.940
 1954POPC   PO427768   0.438   5.010   9.644
 1954POPC   GL127769   0.448   5.074   9.204
 1954POPC   GL227770   0.126   5.014   9.193
 1954POPC   C1A27771   0.308   5.329   8.824
 1954POPC   D2A27772   0.080   5.270   8.459
 1954POPC   C3A27773   0.289   5.264   8.082
 1954POPC   C4A27774   0.379   5.403   7.704
 1954POPC   C1B27775   0.165   4.850   8.803
 1954POPC   C2B27776   0.221   4.771   8.394
 1954POPC   C3B27777   0.212   4.767   7.998
 1954POPC   C4B27778   0.539   4.676   7.771
 1955POPC   NC327779   6.570  18.835   9.246
 1955POPC   PO427780   6.639  19.308   9.721
 1955POPC   GL127781   6.849  19.258   9.209
 1955POPC   GL227782   6.980  18.950   8.998
 1955POPC   C1A27783   6.683  19.248   8.723
 1955POPC   D2A27784   6.656  19.058   8.295
 1955POPC   C3A27785   6.695  19.297   7.882
 1955POPC   C4A27786   6.770  19.322   7.427
 1955POPC   C1B27787   7.238  18.834   8.642
 1955POPC   C2B27788   7.202  18.655   8.243
 1955POPC   C3B27789   6.884  18.772   7.953
 1955POPC   C4B27790   6.891  18.835   7.520
 1956POPC   NC327791  39.822   7.089   9.439
 1956POPC   PO427792  39.758   7.748   9.498
 1956POPC   GL127793  39.991   7.572   9.135
 1956POPC   GL227794  40.276   7.326   9.088
 1956POPC   C1A27795  40.031   7.548   8.693
 1956POPC   D2A27796  40.306   7.414   8.386
 1956POPC   C3A27797  40.234   7.647   8.061
 1956POPC   C4A27798  39.930   7.746   7.740
 1956POPC   C1B27799  40.184   7.042   8.718
 1956POPC   C2B27800  39.894   7.098   8.389
 1956POPC   C3B27801  39.876   7.270   7.992
 1956POPC   C4B27802  40.170   7.301   7.674
 1957POPC   NC327803  24.022  40.086   9.598
 1957POPC   PO427804  23.612  39.619   9.463
 1957POPC   GL127805  23.705  39.960   9.165
 1957POPC   GL227806  24.015  40.157   9.099
 1957POPC   C1A27807  23.793  39.878   8.721
 1957POPC   D2A27808  23.658  39.662   8.391
 1957POPC   C3A27809  23.776  39.797   7.967
 1957POPC   C4A27810  23.704  40.080   7.678
 1957POPC   C1B27811  24.054  40.287   8.671
 1957POPC   C2B27812  24.078  40.086   8.269
 1957POPC   C3B27813  24.183  40.210   7.828
 1957POPC   C4B27814  24.102  40.221   7.358
 1958POPC   NC327815  31.239  15.038   9.559
 1958POPC   PO427816  31.452  15.648   9.575
 1958POPC   GL127817  31.668  15.384   9.244
 1958POPC   GL227818  31.417  15.202   9.128
 1958POPC   C1A27819  31.750  15.341   8.784
 1958POPC   D2A27820  31.838  15.425   8.339
 1958POPC   C3A27821  31.550  15.241   8.006
 1958POPC   C4A27822  31.587  15.284   7.581
 1958POPC   C1B27823  31.488  14.899   8.850
 1958POPC   C2B27824  31.408  15.087   8.463
 1958POPC   C3B27825  31.159  14.951   8.118
 1958POPC   C4B27826  31.298  14.852   7.711
 1959POPC   NC327827  31.621  17.709   9.639
 1959POPC   PO427828  31.246  17.252   9.514
 1959POPC   GL127829  31.483  17.472   9.205
 1959POPC   GL227830  31.330  17.758   9.121
 1959POPC   C1A27831  31.494  17.388   8.783
 1959POPC   D2A27832  31.311  17.164   8.466
 1959POPC   C3A27833  31.579  17.269   8.130
 1959POPC   C4A27834  31.553  17.128   7.722
 1959POPC   C1B27835  31.509  17.924   8.767
 1959POPC   C2B27836  31.688  17.756   8.393
 1959POPC   C3B27837  31.543  17.757   7.984
 1959POPC   C4B27838  31.537  17.624   7.580
 1960POPC   NC327839   2.534  18.684   9.430
 1960POPC   PO427840   3.038  18.321   9.510
 1960POPC   GL127841   2.871  18.457   9.135
 1960POPC   GL227842   2.536  18.294   9.071
 1960POPC   C1A27843   2.883  18.558   8.721
 1960POPC   D2A27844   2.670  18.381   8.383
 1960POPC   C3A27845   2.954  18.247   8.067
 1960POPC   C4A27846   2.833  18.367   7.684
 1960POPC   C1B27847   2.330  18.021   8.719
 1960POPC   C2B27848   2.217  18.135   8.296
 1960POPC   C3B27849   2.411  18.207   7.934
 1960POPC   C4B27850   2.399  18.040   7.539
 1961POPC   NC327851  41.872   5.169   9.225
 1961POPC   PO427852  42.368   4.820   9.497
 1961POPC   GL127853  42.402   5.133   9.169
 1961POPC   GL227854  42.681   5.338   9.175
 1961POPC   C1A27855  42.341   5.326   8.767
 1961POPC   D2A27856  42.088   5.146   8.451
 1961POPC   C3A27857  42.205   5.272   8.038
 1961POPC   C4A27858  42.154   5.050   7.663
 1961POPC   C1B27859  42.817   5.095   8.778
 1961POPC   C2B27860  42.738   4.800   8.413
 1961POPC   C3B27861  42.558   4.810   7.980
 1961POPC   C4B27862  42.648   5.143   7.677
 1962POPC   NC327863  25.383  35.962   9.551
 1962POPC   PO427864  24.989  36.392   9.131
 1962POPC   GL127865  25.244  36.078   9.073
 1962POPC   GL227866  25.120  35.763   9.123
 1962POPC   C1A27867  25.332  36.042   8.675
 1962POPC   D2A27868  25.104  36.254   8.380
 1962POPC   C3A27869  25.353  36.248   8.012
 1962POPC   C4A27870  25.272  36.413   7.603
 1962POPC   C1B27871  25.060  35.591   8.734
 1962POPC   C2B27872  25.059  35.740   8.333
 1962POPC   C3B27873  25.308  35.736   7.991
 1962POPC   C4B27874  25.504  35.904   7.651
 1963POPC   NC327875  29.484  25.496   9.234
 1963POPC   PO427876  30.124  25.229   9.613
 1963POPC   GL127877  29.918  25.226   9.219
 1963POPC   GL227878  29.967  25.504   8.984
 1963POPC   C1A27879  29.808  25.041   8.813
 1963POPC   D2A27880  29.775  25.072   8.362
 1963POPC   C3A27881  30.156  25.095   8.124
 1963POPC   C4A27882  30.200  25.088   7.692
 1963POPC   C1B27883  29.744  25.551   8.622
 1963POPC   C2B27884  29.944  25.560   8.250
 1963POPC   C3B27885  29.822  25.427   7.865
 1963POPC   C4B27886  29.455  25.496   7.661
 1964POPC   NC327887  42.662  18.599   9.383
 1964POPC   PO427888  42.183  18.097   9.534
 1964POPC   GL127889  42.351  18.211   9.132
 1964POPC   GL227890  42.199  18.522   9.098
 1964POPC   C1A27891  42.592  18.334   8.739
 1964POPC   D2A27892  42.548  18.630   8.388
 1964POPC   C3A27893  42.567  18.549   7.937
 1964POPC   C4A27894  42.739  18.210   7.706
 1964POPC   C1B27895  42.084  18.377   8.657
 1964POPC   C2B27896  42.221  18.253   8.229
 1964POPC   C3B27897  42.202  18.223   7.781
 1964POPC   C4B27898  42.385  17.995   7.406
 1965POPC   NC327899  20.942  10.083   9.543
 1965POPC   PO427900  20.650   9.515   9.400
 1965POPC   GL127901  20.454   9.690   9.034
 1965POPC   GL227902  20.276   9.995   9.124
 1965POPC   C1A27903  20.455   9.569   8.600
 1965POPC   D2A27904  20.687   9.321   8.288
 1965POPC   C3A27905  20.704   9.572   7.935
 1965POPC   C4A27906  21.022   9.869   7.897
 1965POPC   C1B27907  20.530  10.091   8.695
 1965POPC   C2B27908  20.690  10.054   8.231
 1965POPC   C3B27909  20.547  10.065   7.762
 1965POPC   C4B27910  20.431  10.052   7.291
 1966POPC   NC327911  29.971  36.418   9.421
 1966POPC   PO427912  30.111  37.120   9.506
 1966POPC   GL127913  29.844  36.973   9.173
 1966POPC   GL227914  29.863  36.657   8.994
 1966POPC   C1A27915  29.696  37.078   8.769
 1966POPC   D2A27916  29.645  36.852   8.391
 1966POPC   C3A27917  29.974  37.033   8.177
 1966POPC   C4A27918  30.133  37.102   7.788
 1966POPC   C1B27919  30.137  36.803   8.665
 1966POPC   C2B27920  30.322  36.664   8.268
 1966POPC   C3B27921  30.052  36.609   7.887
 1966POPC   C4B27922  30.014  36.616   7.424
 1967POPC   NC327923   8.708  30.437   9.396
 1967POPC   PO427924   8.606  29.806   9.427
 1967POPC   GL127925   8.929  29.759   9.074
 1967POPC   GL227926   9.314  29.701   9.185
 1967POPC   C1A27927   8.882  30.076   8.705
 1967POPC   D2A27928   8.753  30.327   8.322
 1967POPC   C3A27929   8.676  30.033   7.984
 1967POPC   C4A27930   8.928  29.676   7.887
 1967POPC   C1B27931   9.366  29.916   8.798
 1967POPC   C2B27932   9.202  29.832   8.385
 1967POPC   C3B27933   9.356  29.947   8.016
 1967POPC   C4B27934   9.266  29.934   7.594
 1968POPC   NC327935  38.633   7.767   9.378
 1968POPC   PO427936  38.247   7.318   9.494
 1968POPC   GL127937  38.492   7.298   9.136
 1968POPC   GL227938  38.283   7.604   9.032
 1968POPC   C1A27939  38.712   7.451   8.773
 1968POPC   D2A27940  38.658   7.710   8.427
 1968POPC   C3A27941  38.548   7.406   8.124
 1968POPC   C4A27942  38.519   7.510   7.727
 1968POPC   C1B27943  38.194   7.501   8.599
 1968POPC   C2B27944  38.164   7.715   8.199
 1968POPC   C3B27945  38.048   7.745   7.774
 1968POPC   C4B27946  38.159   7.524   7.374
 1969POPC   NC327947  31.597  11.748   9.502
 1969POPC   PO427948  31.391  12.342   9.275
 1969POPC   GL127949  31.426  12.121   8.933
 1969POPC   GL227950  31.589  11.809   8.999
 1969POPC   C1A27951  31.416  12.148   8.486
 1969POPC   D2A27952  31.266  12.280   8.066
 1969POPC   C3A27953  31.644  12.319   7.843
 1969POPC   C4A27954  31.956  11.979   7.735
 1969POPC   C1B27955  31.665  11.694   8.592
 1969POPC   C2B27956  31.734  11.781   8.178
 1969POPC   C3B27957  31.473  11.825   7.847
 1969POPC   C4B27958  31.219  11.652   7.537
 1970POPC   NC327959  20.439  23.401   9.841
 1970POPC   PO427960  20.916  23.788   9.531
 1970POPC   GL127961  20.743  23.795   9.102
 1970POPC   GL227962  20.384  23.672   9.171
 1970POPC   C1A27963  20.621  23.489   8.743
 1970POPC   D2A27964  20.671  23.277   8.348
 1970POPC   C3A27965  20.696  23.576   8.000
 1970POPC   C4A27966  20.419  23.856   7.793
 1970POPC   C1B27967  20.386  23.916   8.779
 1970POPC   C2B27968  20.713  23.894   8.446
 1970POPC   C3B27969  20.736  24.128   8.104
 1970POPC   C4B27970  20.922  24.019   7.757
 1971POPC   NC327971  34.043  11.734   9.398
 1971POPC   PO427972  33.682  12.319   9.494
 1971POPC   GL127973  33.686  12.148   9.110
 1971POPC   GL227974  33.626  11.808   9.095
 1971POPC   C1A27975  33.820  12.365   8.747
 1971POPC   D2A27976  33.641  12.326   8.342
 1971POPC   C3A27977  33.757  12.056   8.020
 1971POPC   C4A27978  33.841  12.185   7.585
 1971POPC   C1B27979  33.615  11.900   8.650
 1971POPC   C2B27980  33.333  11.888   8.308
 1971POPC   C3B27981  33.373  11.710   7.909
 1971POPC   C4B27982  33.720  11.709   7.645
 1972POPC   NC327983  28.967   9.732   9.474
 1972POPC   PO427984  29.625   9.527   9.484
 1972POPC   GL127985  29.286   9.526   9.141
 1972POPC   GL227986  29.066   9.832   9.001
 1972POPC   C1A27987  29.135   9.392   8.745
 1972POPC   D2A27988  29.304   9.320   8.358
 1972POPC   C3A27989  29.152   9.475   7.973
 1972POPC   C4A27990  29.090   9.724   7.590
 1972POPC   C1B27991  28.746  10.013   8.748
 1972POPC   C2B27992  29.008   9.793   8.426
 1972POPC   C3B27993  28.973   9.951   8.035
 1972POPC   C4B27994  28.558  10.110   7.919
 1973POPC   NC327995  40.633  24.711   9.524
 1973POPC   PO427996  41.232  24.373   9.599
 1973POPC   GL127997  41.007  24.549   9.151
 1973POPC   GL227998  40.605  24.618   9.050
 1973POPC   C1A27999  40.818  24.353   8.699
 1973POPC   D2A28000  40.463  24.343   8.390
 1973POPC   C3A28001  40.659  24.364   7.994
 1973POPC   C4A28002  40.968  24.113   7.830
 1973POPC   C1B28003  40.858  24.871   8.781
 1973POPC   C2B28004  41.015  24.852   8.378
 1973POPC   C3B28005  40.791  24.856   7.998
 1973POPC   C4B28006  40.492  24.877   7.637
 1974POPC   NC328007  43.609  20.002   9.489
 1974POPC   PO428008  44.073  19.577   9.316
 1974POPC   GL128009  43.871  19.892   9.073
 1974POPC   GL228010  43.583  19.749   9.019
 1974POPC   C1A28011  43.938  19.934   8.678
 1974POPC   D2A28012  44.229  19.774   8.430
 1974POPC   C3A28013  44.017  19.567   8.126
 1974POPC   C4A28014  44.036  19.919   7.871
 1974POPC   C1B28015  43.409  19.519   8.681
 1974POPC   C2B28016  43.593  19.727   8.376
 1974POPC   C3B28017  43.560  19.937   8.051
 1974POPC   C4B28018  43.633  19.609   7.751
 1975POPC   NC328019  36.362   7.666   9.473
 1975POPC   PO428020  36.078   7.084   9.384
 1975POPC   GL128021  36.154   7.408   9.094
 1975POPC   GL228022  35.907   7.661   9.183
 1975POPC   C1A28023  36.447   7.638   8.830
 1975POPC   D2A28024  36.295   7.473   8.468
 1975POPC   C3A28025  36.393   7.579   8.075
 1975POPC   C4A28026  36.297   7.473   7.680
 1975POPC   C1B28027  35.962   7.779   8.751
 1975POPC   C2B28028  36.043   7.893   8.278
 1975POPC   C3B28029  35.965   7.873   7.803
 1975POPC   C4B28030  35.865   7.657   7.403
 1976POPC   NC328031  33.421  15.036   9.534
 1976POPC   PO428032  33.599  15.771   9.651
 1976POPC   GL128033  33.696  15.414   9.295
 1976POPC   GL228034  33.689  15.071   9.121
 1976POPC   C1A28035  33.761  15.484   8.817
 1976POPC   D2A28036  33.774  15.300   8.398
 1976POPC   C3A28037  33.757  15.563   8.034
 1976POPC   C4A28038  33.829  15.404   7.618
 1976POPC   C1B28039  33.540  15.003   8.729
 1976POPC   C2B28040  33.642  14.806   8.315
 1976POPC   C3B28041  33.619  14.956   7.914
 1976POPC   C4B28042  33.368  15.208   7.692
 1977POPC   NC328043   9.394  35.927   9.339
 1977POPC   PO428044   8.806  36.198   9.546
 1977POPC   GL128045   8.884  36.120   9.108
 1977POPC   GL228046   9.214  36.109   8.934
 1977POPC   C1A28047   8.843  36.337   8.720
 1977POPC   D2A28048   8.695  36.225   8.354
 1977POPC   C3A28049   8.895  36.379   8.053
 1977POPC   C4A28050   8.879  36.115   7.724
 1977POPC   C1B28051   9.277  35.888   8.576
 1977POPC   C2B28052   9.107  35.925   8.185
 1977POPC   C3B28053   9.349  36.024   7.869
 1977POPC   C4B28054   9.329  35.933   7.468
 1978POPC   NC328055   6.978  42.175   9.357
 1978POPC   PO428056   6.332  42.202   9.467
 1978POPC   GL128057   6.450  42.356   9.070
 1978POPC   GL228058   6.731  42.544   9.105
 1978POPC   C1A28059   6.422  42.672   8.690
 1978POPC   D2A28060   6.549  42.591   8.218
 1978POPC   C3A28061   6.395  42.358   7.857
 1978POPC   C4A28062   6.320  42.195   7.418
 1978POPC   C1B28063   6.875  42.465   8.718
 1978POPC   C2B28064   7.156  42.569   8.444
 1978POPC   C3B28065   7.184  42.551   8.043
 1978POPC   C4B28066   6.876  42.514   7.771
 1979POPC   NC328067  43.879  31.109   9.329
 1979POPC   PO428068  43.855  30.410   9.473
 1979POPC   GL128069  43.896  30.642   9.141
 1979POPC   GL228070  44.220  30.787   9.106
 1979POPC   C1A28071  43.704  30.802   8.784
 1979POPC   D2A28072  43.544  30.610   8.433
 1979POPC   C3A28073  43.743  30.674   8.078
 1979POPC   C4A28074  43.568  30.673   7.703
 1979POPC   C1B28075  44.235  30.420   8.847
 1979POPC   C2B28076  44.158  30.621   8.461
 1979POPC   C3B28077  44.254  30.827   8.065
 1979POPC   C4B28078  44.089  30.637   7.691
 1980POPC   NC328079  31.294   3.127   9.468
 1980POPC   PO428080  31.264   2.471   9.567
 1980POPC   GL128081  31.530   2.596   9.219
 1980POPC   GL228082  31.731   2.925   9.239
 1980POPC   C1A28083  31.551   2.666   8.807
 1980POPC   D2A28084  31.451   2.873   8.459
 1980POPC   C3A28085  31.374   2.622   8.153
 1980POPC   C4A28086  31.373   2.623   7.748
 1980POPC   C1B28087  31.670   3.148   8.848
 1980POPC   C2B28088  31.859   3.170   8.397
 1980POPC   C3B28089  31.685   3.009   7.994
 1980POPC   C4B28090  31.928   3.090   7.616
 1981POPC   NC328091   1.510  15.791   9.829
 1981POPC   PO428092   0.929  16.022   9.618
 1981POPC   GL128093   1.159  16.030   9.257
 1981POPC   GL228094   0.955  15.742   9.135
 1981POPC   C1A28095   1.245  16.089   8.814
 1981POPC   D2A28096   1.075  15.990   8.394
 1981POPC   C3A28097   1.215  16.057   7.975
 1981POPC   C4A28098   1.345  15.778   7.612
 1981POPC   C1B28099   1.097  15.588   8.720
 1981POPC   C2B28100   1.185  15.483   8.241
 1981POPC   C3B28101   1.069  15.363   7.790
 1981POPC   C4B28102   0.935  15.517   7.367
 1982POPC   NC328103  25.365  16.562   9.499
 1982POPC   PO428104  24.741  16.936   9.385
 1982POPC   GL128105  24.972  16.965   9.028
 1982POPC   GL228106  25.287  16.793   9.053
 1982POPC   C1A28107  24.829  16.968   8.616
 1982POPC   D2A28108  25.119  16.919   8.294
 1982POPC   C3A28109  25.040  16.860   7.850
 1982POPC   C4A28110  25.296  16.786   7.499
 1982POPC   C1B28111  25.249  16.409   8.817
 1982POPC   C2B28112  25.294  16.345   8.355
 1982POPC   C3B28113  25.292  16.414   7.897
 1982POPC   C4B28114  25.535  16.310   7.519
 1983POPC   NC328115  40.048  30.931   9.555
 1983POPC   PO428116  39.625  30.471   9.328
 1983POPC   GL128117  39.960  30.713   9.087
 1983POPC   GL228118  40.004  31.091   9.087
 1983POPC   C1A28119  40.182  30.748   8.679
 1983POPC   D2A28120  40.204  30.694   8.200
 1983POPC   C3A28121  39.776  30.654   8.082
 1983POPC   C4A28122  39.581  30.785   7.723
 1983POPC   C1B28123  40.048  31.296   8.724
 1983POPC   C2B28124  39.990  31.119   8.361
 1983POPC   C3B28125  39.945  31.106   7.928
 1983POPC   C4B28126  39.978  31.202   7.492
 1984POPC   NC328127   0.171  18.690   9.486
 1984POPC   PO428128   0.623  19.153   9.394
 1984POPC   GL128129   0.510  18.821   9.116
 1984POPC   GL228130   0.237  19.037   9.066
 1984POPC   C1A28131   0.444  18.819   8.652
 1984POPC   D2A28132   0.289  19.075   8.313
 1984POPC   C3A28133   0.255  18.859   7.906
 1984POPC   C4A28134   0.576  18.782   7.576
 1984POPC   C1B28135   0.447  19.326   8.767
 1984POPC   C2B28136   0.503  19.550   8.372
 1984POPC   C3B28137   0.339  19.468   7.956
 1984POPC   C4B28138   0.338  19.243   7.583
 1985POPC   NC328139  10.086  28.940   9.450
 1985POPC   PO428140   9.460  29.285   9.458
 1985POPC   GL128141   9.728  29.215   9.114
 1985POPC   GL228142   9.821  28.875   9.034
 1985POPC   C1A28143   9.892  29.247   8.702
 1985POPC   D2A28144   9.950  28.885   8.431
 1985POPC   C3A28145   9.980  29.047   8.008
 1985POPC   C4A28146   9.915  29.394   7.719
 1985POPC   C1B28147   9.472  28.875   8.795
 1985POPC   C2B28148   9.339  28.693   8.409
 1985POPC   C3B28149   9.345  28.814   7.977
 1985POPC   C4B28150   9.581  29.028   7.669
 1986POPC   NC328151  38.195  34.753   9.741
 1986POPC   PO428152  38.573  34.163   9.585
 1986POPC   GL128153  38.315  34.341   9.195
 1986POPC   GL228154  38.357  34.689   9.149
 1986POPC   C1A28155  38.122  34.233   8.770
 1986POPC   D2A28156  38.319  34.446   8.424
 1986POPC   C3A28157  38.418  34.510   7.986
 1986POPC   C4A28158  38.620  34.756   7.676
 1986POPC   C1B28159  38.165  34.792   8.751
 1986POPC   C2B28160  38.021  34.850   8.318
 1986POPC   C3B28161  38.183  34.937   7.895
 1986POPC   C4B28162  38.003  34.589   7.653
 1987POPC   NC328163  34.924  15.204   9.594
 1987POPC   PO428164  35.594  15.008   9.503
 1987POPC   GL128165  35.423  15.133   9.146
 1987POPC   GL228166  35.064  15.122   9.127
 1987POPC   C1A28167  35.475  14.925   8.756
 1987POPC   D2A28168  35.599  15.104   8.368
 1987POPC   C3A28169  35.446  14.924   7.984
 1987POPC   C4A28170  35.533  15.207   7.655
 1987POPC   C1B28171  35.143  15.308   8.754
 1987POPC   C2B28172  35.085  15.110   8.381
 1987POPC   C3B28173  35.161  15.343   8.014
 1987POPC   C4B28174  35.019  15.109   7.684
 1988POPC   NC328175  41.873   7.926   9.850
 1988POPC   PO428176  42.382   8.129   9.492
 1988POPC   GL128177  42.292   8.128   9.088
 1988POPC   GL228178  42.010   7.926   9.177
 1988POPC   C1A28179  42.385   8.203   8.636
 1988POPC   D2A28180  42.714   8.368   8.381
 1988POPC   C3A28181  42.621   8.433   7.956
 1988POPC   C4A28182  42.383   8.202   7.677
 1988POPC   C1B28183  41.873   8.154   8.809
 1988POPC   C2B28184  41.919   8.337   8.407
 1988POPC   C3B28185  41.926   8.148   8.012
 1988POPC   C4B28186  41.882   8.334   7.617
 1989POPC   NC328187  28.533  43.742   9.823
 1989POPC   PO428188  28.948  44.098   9.711
 1989POPC   GL128189  28.641  43.943   9.345
 1989POPC   GL228190  28.248  43.934   9.364
 1989POPC   C1A28191  28.465  43.901   8.891
 1989POPC   D2A28192  28.318  43.993   8.435
 1989POPC   C3A28193  28.660  43.901   8.104
 1989POPC   C4A28194  28.816  43.861   7.672
 1989POPC   C1B28195  28.011  44.149   8.975
 1989POPC   C2B28196  27.709  44.142   8.601
 1989POPC   C3B28197  27.746  44.046   8.154
 1989POPC   C4B28198  28.156  43.909   7.935
 1990POPC   NC328199  36.579  10.897   9.477
 1990POPC   PO428200  36.945  10.350   9.479
 1990POPC   GL128201  37.220  10.419   9.099
 1990POPC   GL228202  37.378  10.092   8.940
 1990POPC   C1A28203  37.150  10.683   8.706
 1990POPC   D2A28204  36.840  10.853   8.383
 1990POPC   C3A28205  36.968  10.727   7.951
 1990POPC   C4A28206  37.087  10.655   7.491
 1990POPC   C1B28207  36.924  10.129   8.804
 1990POPC   C2B28208  36.639  10.333   8.487
 1990POPC   C3B28209  36.664  10.236   8.041
 1990POPC   C4B28210  37.052  10.231   7.768
 1991POPC   NC328211  40.419  23.985   9.358
 1991POPC   PO428212  39.876  23.503   9.456
 1991POPC   GL128213  39.755  23.620   9.058
 1991POPC   GL228214  40.039  23.817   9.071
 1991POPC   C1A28215  39.749  23.473   8.647
 1991POPC   D2A28216  39.907  23.657   8.257
 1991POPC   C3A28217  39.644  23.863   8.008
 1991POPC   C4A28218  39.428  23.628   7.715
 1991POPC   C1B28219  40.201  23.723   8.691
 1991POPC   C2B28220  40.394  23.731   8.323
 1991POPC   C3B28221  40.296  24.002   8.003
 1991POPC   C4B28222  40.063  23.800   7.730
 1992POPC   NC328223  40.096  44.672   9.606
 1992POPC   PO428224  39.553   0.030   9.527
 1992POPC   GL128225  39.744   0.017   9.116
 1992POPC   GL228226  40.059  44.830   9.128
 1992POPC   C1A28227  39.699  44.671   8.793
 1992POPC   D2A28228  39.867  44.523   8.396
 1992POPC   C3A28229  39.885  44.842   8.050
 1992POPC   C4A28230  39.751  44.650   7.665
 1992POPC   C1B28231  40.261  44.625   8.791
 1992POPC   C2B28232  40.324  44.737   8.384
 1992POPC   C3B28233  40.265  44.505   8.040
 1992POPC   C4B28234  40.273  44.627   7.627
 1993POPC   NC328235  37.186  43.281   9.769
 1993POPC   PO428236  36.617  42.975   9.631
 1993POPC   GL128237  36.549  43.101   9.213
 1993POPC   GL228238  36.698  42.836   9.034
 1993POPC   C1A28239  36.741  43.332   8.826
 1993POPC   D2A28240  36.990  43.170   8.468
 1993POPC   C3A28241  36.805  43.198   8.063
 1993POPC   C4A28242  36.608  43.146   7.633
 1993POPC   C1B28243  37.012  42.683   8.715
 1993POPC   C2B28244  37.239  42.711   8.346
 1993POPC   C3B28245  37.317  42.754   7.931
 1993POPC   C4B28246  37.132  43.062   7.696
 1994POPC   NC328247  40.427  13.071   9.580
 1994POPC   PO428248  41.173  13.071   9.405
 1994POPC   GL128249  40.917  12.789   9.182
 1994POPC   GL228250  41.197  12.570   9.096
 1994POPC   C1A28251  40.735  12.770   8.759
 1994POPC   D2A28252  40.807  13.007   8.387
 1994POPC   C3A28253  40.661  12.871   7.999
 1994POPC   C4A28254  40.770  13.072   7.619
 1994POPC   C1B28255  41.149  12.472   8.679
 1994POPC   C2B28256  40.847  12.464   8.338
 1994POPC   C3B28257  41.057  12.537   7.978
 1994POPC   C4B28258  41.084  12.659   7.597
 1995POPC   NC328259  35.699  27.642   9.462
 1995POPC   PO428260  36.294  27.439   9.497
 1995POPC   GL128261  36.083  27.275   9.154
 1995POPC   GL228262  35.754  27.374   9.042
 1995POPC   C1A28263  36.341  27.238   8.797
 1995POPC   D2A28264  36.407  27.483   8.436
 1995POPC   C3A28265  36.123  27.412   8.105
 1995POPC   C4A28266  36.219  27.615   7.736
 1995POPC   C1B28267  35.934  27.679   8.763
 1995POPC   C2B28268  35.760  27.887   8.378
 1995POPC   C3B28269  35.872  28.057   7.957
 1995POPC   C4B28270  35.884  27.919   7.530
 1996POPC   NC328271  39.838   3.789   9.543
 1996POPC   PO428272  39.857   4.459   9.632
 1996POPC   GL128273  39.947   4.239   9.237
 1996POPC   GL228274  39.649   4.066   9.147
 1996POPC   C1A28275  40.063   4.022   8.817
 1996POPC   D2A28276  40.014   4.040   8.352
 1996POPC   C3A28277  40.241   4.253   8.018
 1996POPC   C4A28278  40.219   4.480   7.649
 1996POPC   C1B28279  39.612   4.260   8.727
 1996POPC   C2B28280  39.512   4.118   8.299
 1996POPC   C3B28281  39.705   4.346   7.947
 1996POPC   C4B28282  39.659   4.323   7.486
 1997POPC   NC328283   3.581  40.162   9.549
 1997POPC   PO428284   3.482  39.475   9.438
 1997POPC   GL128285   3.455  39.896   9.121
 1997POPC   GL228286   3.401  40.313   9.110
 1997POPC   C1A28287   3.492  40.081   8.687
 1997POPC   D2A28288   3.531  39.894   8.328
 1997POPC   C3A28289   3.605  40.146   7.995
 1997POPC   C4A28290   3.340  40.031   7.657
 1997POPC   C1B28291   3.088  40.354   8.776
 1997POPC   C2B28292   3.072  40.165   8.362
 1997POPC   C3B28293   3.130  40.373   7.963
 1997POPC   C4B28294   3.131  40.485   7.503
 1998POPC   NC328295  32.850  34.563   9.664
 1998POPC   PO428296  33.482  34.910   9.567
 1998POPC   GL128297  33.116  34.765   9.253
 1998POPC   GL228298  32.928  34.420   9.201
 1998POPC   C1A28299  33.057  34.691   8.792
 1998POPC   D2A28300  33.231  34.843   8.399
 1998POPC   C3A28301  33.007  34.733   8.053
 1998POPC   C4A28302  32.963  34.438   7.781
 1998POPC   C1B28303  32.636  34.400   8.871
 1998POPC   C2B28304  32.552  34.546   8.478
 1998POPC   C3B28305  32.548  34.462   8.077
 1998POPC   C4B28306  32.559  34.146   7.793
 1999POPC   NC328307  14.311   0.290   9.633
 1999POPC   PO428308  14.680   0.753   9.244
 1999POPC   GL128309  14.509   0.376   9.144
 1999POPC   GL228310  14.168   0.381   9.117
 1999POPC   C1A28311  14.441   0.262   8.708
 1999POPC   D2A28312  14.582   0.382   8.293
 1999POPC   C3A28313  14.472   0.166   7.923
 1999POPC   C4A28314  14.657   0.477   7.716
 1999POPC   C1B28315  14.067   0.642   8.755
 1999POPC   C2B28316  14.241   0.751   8.366
 1999POPC   C3B28317  14.173   0.571   7.972
 1999POPC   C4B28318  14.175   0.401   7.551
 2000POPC   NC328319  39.890  11.028   9.464
 2000POPC   PO428320  40.040  11.681   9.414
 2000POPC   GL128321  39.850  11.428   9.126
 2000POPC   GL228322  40.053  11.170   9.010
 2000POPC   C1A28323  39.707  11.418   8.715
 2000POPC   D2A28324  39.900  11.523   8.299
 2000POPC   C3A28325  39.807  11.324   7.918
 2000POPC   C4A28326  39.739  11.475   7.466
 2000POPC   C1B28327  40.196  11.531   8.747
 2000POPC   C2B28328  40.402  11.468   8.358
 2000POPC   C3B28329  40.289  11.150   8.074
 2000POPC   C4B28330  40.151  11.086   7.632
 2001POPC   NC328331  22.548  14.952   9.388
 2001POPC   PO428332  23.003  15.415   9.477
 2001POPC   GL128333  22.933  15.193   9.087
 2001POPC   GL228334  22.662  14.961   8.910
 2001POPC   C1A28335  22.901  15.387   8.679
 2001POPC   D2A28336  22.740  15.492   8.272
 2001POPC   C3A28337  22.878  15.367   7.880
 2001POPC   C4A28338  23.070  15.478   7.542
 2001POPC   C1B28339  23.024  14.887   8.698
 2001POPC   C2B28340  23.014  15.024   8.298
 2001POPC   C3B28341  22.599  15.006   8.064
 2001POPC   C4B28342  22.642  14.967   7.614
 2002POPC   NC328343  29.566   3.890   9.446
 2002POPC   PO428344  29.757   3.258   9.658
 2002POPC   GL128345  29.752   3.417   9.196
 2002POPC   GL228346  29.982   3.152   9.113
 2002POPC   C1A28347  29.678   3.736   8.806
 2002POPC   D2A28348  29.419   3.902   8.433
 2002POPC   C3A28349  29.579   3.894   8.015
 2002POPC   C4A28350  29.685   3.561   7.746
 2002POPC   C1B28351  29.736   3.223   8.713
 2002POPC   C2B28352  29.729   3.506   8.346
 2002POPC   C3B28353  30.058   3.656   8.074
 2002POPC   C4B28354  30.154   3.261   7.886
 2003POPC   NC328355  36.365  14.737   9.493
 2003POPC   PO428356  35.968  14.209   9.415
 2003POPC   GL128357  36.042  14.510   9.061
 2003POPC   GL228358  36.331  14.748   9.003
 2003POPC   C1A28359  35.969  14.345   8.637
 2003POPC   D2A28360  35.893  14.171   8.210
 2003POPC   C3A28361  35.912  14.330   7.773
 2003POPC   C4A28362  36.084  14.165   7.403
 2003POPC   C1B28363  36.483  14.403   8.817
 2003POPC   C2B28364  36.419  14.315   8.409
 2003POPC   C3B28365  36.252  14.539   8.106
 2003POPC   C4B28366  36.390  14.482   7.709
 2004POPC   NC328367  36.546  15.523   9.381
 2004POPC   PO428368  37.231  15.521   9.432
 2004POPC   GL128369  37.099  15.275   9.082
 2004POPC   GL228370  36.789  15.088   9.181
 2004POPC   C1A28371  37.235  15.011   8.747
 2004POPC   D2A28372  37.221  14.931   8.277
 2004POPC   C3A28373  36.948  15.222   8.033
 2004POPC   C4A28374  36.759  15.249   7.639
 2004POPC   C1B28375  36.755  14.873   8.780
 2004POPC   C2B28376  36.559  14.834   8.386
 2004POPC   C3B28377  36.690  14.805   7.954
 2004POPC   C4B28378  37.110  14.833   7.748
 2005POPC   NC328379   6.929  30.311   9.263
 2005POPC   PO428380   6.390  30.697   9.464
 2005POPC   GL128381   6.472  30.788   9.072
 2005POPC   GL228382   6.810  30.851   9.139
 2005POPC   C1A28383   6.470  30.812   8.639
 2005POPC   D2A28384   6.326  31.121   8.389
 2005POPC   C3A28385   6.420  31.158   7.982
 2005POPC   C4A28386   6.339  30.844   7.672
 2005POPC   C1B28387   6.945  30.704   8.765
 2005POPC   C2B28388   6.856  30.596   8.347
 2005POPC   C3B28389   6.732  30.738   7.990
 2005POPC   C4B28390   6.768  30.590   7.579
 2006POPC   NC328391  32.525  11.421   9.401
 2006POPC   PO428392  31.862  11.459   9.268
 2006POPC   GL128393  32.158  11.297   9.062
 2006POPC   GL228394  32.269  11.648   9.023
 2006POPC   C1A28395  32.128  11.060   8.734
 2006POPC   D2A28396  32.090  11.279   8.368
 2006POPC   C3A28397  32.265  11.064   8.040
 2006POPC   C4A28398  32.242  11.186   7.642
 2006POPC   C1B28399  32.475  11.464   8.679
 2006POPC   C2B28400  32.573  11.422   8.291
 2006POPC   C3B28401  32.646  11.412   7.907
 2006POPC   C4B28402  32.906  11.515   7.632
 2007POPC   NC328403   8.714  18.011   9.691
 2007POPC   PO428404   8.863  18.617   9.531
 2007POPC   GL128405   9.031  18.618   9.200
 2007POPC   GL228406   9.138  18.287   9.161
 2007POPC   C1A28407   8.836  18.567   8.817
 2007POPC   D2A28408   8.968  18.344   8.456
 2007POPC   C3A28409   9.039  18.534   8.074
 2007POPC   C4A28410   8.857  18.583   7.672
 2007POPC   C1B28411   9.345  18.481   8.818
 2007POPC   C2B28412   9.481  18.274   8.468
 2007POPC   C3B28413   9.305  18.086   8.103
 2007POPC   C4B28414   9.241  18.235   7.714
 2008POPC   NC328415  20.758  32.362   9.497
 2008POPC   PO428416  20.265  31.813   9.522
 2008POPC   GL128417  20.531  32.032   9.175
 2008POPC   GL228418  20.901  32.017   9.115
 2008POPC   C1A28419  20.608  31.967   8.727
 2008POPC   D2A28420  20.522  32.024   8.305
 2008POPC   C3A28421  20.550  32.003   7.869
 2008POPC   C4A28422  20.806  32.340   7.827
 2008POPC   C1B28423  21.144  32.361   8.928
 2008POPC   C2B28424  21.120  32.688   8.639
 2008POPC   C3B28425  21.137  32.597   8.209
 2008POPC   C4B28426  21.088  32.754   7.832
 2009POPC   NC328427  20.570   5.034   9.632
 2009POPC   PO428428  20.047   5.413   9.579
 2009POPC   GL128429  20.307   5.121   9.218
 2009POPC   GL228430  20.681   5.066   9.100
 2009POPC   C1A28431  20.294   5.042   8.766
 2009POPC   D2A28432  20.520   5.212   8.425
 2009POPC   C3A28433  20.522   5.075   7.984
 2009POPC   C4A28434  20.918   4.898   7.796
 2009POPC   C1B28435  20.936   5.374   8.874
 2009POPC   C2B28436  20.952   5.489   8.451
 2009POPC   C3B28437  21.053   5.316   8.075
 2009POPC   C4B28438  20.845   5.410   7.704
 2010POPC   NC328439  32.562  12.976   9.857
 2010POPC   PO428440  32.171  12.663   9.410
 2010POPC   GL128441  32.164  12.649   9.012
 2010POPC   GL228442  32.524  12.625   8.990
 2010POPC   C1A28443  32.220  12.495   8.609
 2010POPC   D2A28444  32.526  12.563   8.327
 2010POPC   C3A28445  32.363  12.803   7.973
 2010POPC   C4A28446  32.163  13.237   7.905
 2010POPC   C1B28447  32.429  12.957   8.675
 2010POPC   C2B28448  32.472  13.203   8.327
 2010POPC   C3B28449  32.700  13.163   7.956
 2010POPC   C4B28450  32.511  13.116   7.549
 2011POPC   NC328451   4.903  40.977   9.369
 2011POPC   PO428452   5.212  40.595   9.903
 2011POPC   GL128453   5.204  40.564   9.362
 2011POPC   GL228454   5.525  40.662   9.236
 2011POPC   C1A28455   5.115  40.661   8.834
 2011POPC   D2A28456   5.083  40.918   8.389
 2011POPC   C3A28457   4.994  40.794   7.916
 2011POPC   C4A28458   4.969  40.620   7.486
 2011POPC   C1B28459   5.588  40.542   8.774
 2011POPC   C2B28460   5.368  40.476   8.350
 2011POPC   C3B28461   5.259  40.362   7.907
 2011POPC   C4B28462   5.514  40.240   7.525
 2012POPC   NC328463  20.883  30.769   9.636
 2012POPC   PO428464  20.465  30.269   9.629
 2012POPC   GL128465  20.675  30.497   9.232
 2012POPC   GL228466  20.781  30.824   9.164
 2012POPC   C1A28467  20.467  30.722   8.815
 2012POPC   D2A28468  20.520  30.968   8.413
 2012POPC   C3A28469  20.407  30.740   8.027
 2012POPC   C4A28470  20.316  30.527   7.623
 2012POPC   C1B28471  20.874  31.046   8.788
 2012POPC   C2B28472  21.031  30.912   8.378
 2012POPC   C3B28473  20.839  31.073   8.006
 2012POPC   C4B28474  20.588  30.991   7.626
 2013POPC   NC328475  22.831   7.987   9.475
 2013POPC   PO428476  23.076   8.426   9.062
 2013POPC   GL128477  22.746   8.156   9.013
 2013POPC   GL228478  22.509   8.395   9.142
 2013POPC   C1A28479  22.684   7.870   8.684
 2013POPC   D2A28480  22.967   7.765   8.340
 2013POPC   C3A28481  22.956   7.986   7.936
 2013POPC   C4A28482  23.243   8.210   7.642
 2013POPC   C1B28483  22.515   8.412   8.662
 2013POPC   C2B28484  22.721   8.266   8.292
 2013POPC   C3B28485  22.901   8.490   7.924
 2013POPC   C4B28486  22.857   8.518   7.475
 2014POPC   NC328487   5.102  28.542   9.350
 2014POPC   PO428488   5.469  27.940   9.481
 2014POPC   GL128489   5.282  28.159   9.066
 2014POPC   GL228490   5.346  28.580   8.934
 2014POPC   C1A28491   5.106  28.254   8.647
 2014POPC   D2A28492   5.232  28.524   8.305
 2014POPC   C3A28493   5.235  28.248   7.956
 2014POPC   C4A28494   5.041  28.135   7.601
 2014POPC   C1B28495   4.921  28.732   8.739
 2014POPC   C2B28496   4.721  28.729   8.307
 2014POPC   C3B28497   4.837  28.590   7.894
 2014POPC   C4B28498   5.174  28.613   7.613
 2015POPC   NC328499  37.220  34.661   9.540
 2015POPC   PO428500  36.600  34.451   9.601
 2015POPC   GL128501  36.856  34.419   9.229
 2015POPC   GL228502  36.931  34.749   9.104
 2015POPC   C1A28503  37.010  34.319   8.794
 2015POPC   D2A28504  36.930  34.497   8.401
 2015POPC   C3A28505  37.077  34.514   7.976
 2015POPC   C4A28506  36.765  34.541   7.660
 2015POPC   C1B28507  36.831  34.918   8.682
 2015POPC   C2B28508  37.083  34.968   8.295
 2015POPC   C3B28509  36.914  35.021   7.862
 2015POPC   C4B28510  37.052  34.956   7.458
 2016POPC   NC328511  43.728  25.051   9.385
 2016POPC   PO428512  44.291  25.279   9.732
 2016POPC   GL128513  44.081  25.395   9.220
 2016POPC   GL228514  43.945  25.114   8.939
 2016POPC   C1A28515  43.770  25.567   8.871
 2016POPC   D2A28516  43.523  25.306   8.564
 2016POPC   C3A28517  43.732  25.241   8.164
 2016POPC   C4A28518  43.962  25.316   7.775
 2016POPC   C1B28519  43.672  24.795   8.757
 2016POPC   C2B28520  43.657  24.737   8.315
 2016POPC   C3B28521  43.911  24.810   7.935
 2016POPC   C4B28522  43.574  24.945   7.693
 2017POPC   NC328523  23.156  21.928   9.345
 2017POPC   PO428524  22.548  22.107   9.586
 2017POPC   GL128525  22.737  22.229   9.183
 2017POPC   GL228526  23.055  22.397   9.191
 2017POPC   C1A28527  22.900  22.175   8.739
 2017POPC   D2A28528  23.116  22.043   8.346
 2017POPC   C3A28529  22.853  22.144   7.997
 2017POPC   C4A28530  22.657  21.922   7.667
 2017POPC   C1B28531  23.249  22.545   8.829
 2017POPC   C2B28532  23.079  22.557   8.428
 2017POPC   C3B28533  23.253  22.508   8.013
 2017POPC   C4B28534  23.175  22.277   7.617
 2018POPC   NC328535  38.790  25.536   9.368
 2018POPC   PO428536  39.366  25.125   9.570
 2018POPC   GL128537  39.268  25.307   9.217
 2018POPC   GL228538  39.227  25.009   9.045
 2018POPC   C1A28539  39.255  25.462   8.802
 2018POPC   D2A28540  39.476  25.457   8.408
 2018POPC   C3A28541  39.197  25.550   8.069
 2018POPC   C4A28542  39.225  25.469   7.626
 2018POPC   C1B28543  39.315  24.815   8.654
 2018POPC   C2B28544  39.195  24.994   8.276
 2018POPC   C3B28545  39.360  25.091   7.901
 2018POPC   C4B28546  39.230  24.963   7.440
 2019POPC   NC328547   0.140  42.330   9.140
 2019POPC   PO428548   0.793  42.138   9.504
 2019POPC   GL128549   0.678  42.335   9.122
 2019POPC   GL228550   0.747  42.689   9.069
 2019POPC   C1A28551   0.710  42.138   8.706
 2019POPC   D2A28552   0.795  41.870   8.345
 2019POPC   C3A28553   0.710  42.050   7.947
 2019POPC   C4A28554   0.250  42.073   7.868
 2019POPC   C1B28555   0.526  42.618   8.679
 2019POPC   C2B28556   0.481  42.400   8.269
 2019POPC   C3B28557   0.303  42.575   7.859
 2019POPC   C4B28558   0.208  42.860   7.523
 2020POPC   NC328559   4.276   6.544   9.880
 2020POPC   PO428560   4.000   7.102   9.519
 2020POPC   GL128561   4.125   6.739   9.281
 2020POPC   GL228562   3.912   6.812   9.048
 2020POPC   C1A28563   4.400   6.665   8.888
 2020POPC   D2A28564   4.272   6.759   8.447
 2020POPC   C3A28565   4.397   6.601   8.043
 2020POPC   C4A28566   4.589   6.804   7.707
 2020POPC   C1B28567   3.968   6.445   8.770
 2020POPC   C2B28568   3.888   6.443   8.302
 2020POPC   C3B28569   3.950   6.429   7.845
 2020POPC   C4B28570   4.269   6.466   7.520
 2021POPC   NC328571   2.342  29.979   9.548
 2021POPC   PO428572   1.732  29.667   9.526
 2021POPC   GL128573   1.833  29.702   9.073
 2021POPC   GL228574   2.093  29.963   9.047
 2021POPC   C1A28575   1.848  29.829   8.620
 2021POPC   D2A28576   1.854  30.123   8.245
 2021POPC   C3A28577   1.532  30.032   7.976
 2021POPC   C4A28578   1.674  29.611   7.904
 2021POPC   C1B28579   2.311  30.085   8.696
 2021POPC   C2B28580   2.384  29.997   8.292
 2021POPC   C3B28581   2.213  30.047   7.876
 2021POPC   C4B28582   2.189  30.318   7.496
 2022POPC   NC328583  39.541   5.577   9.371
 2022POPC   PO428584  39.189   5.006   9.559
 2022POPC   GL128585  39.196   5.194   9.161
 2022POPC   GL228586  39.527   5.085   9.148
 2022POPC   C1A28587  39.331   5.265   8.710
 2022POPC   D2A28588  39.218   5.086   8.304
 2022POPC   C3A28589  39.141   5.319   7.915
 2022POPC   C4A28590  38.749   5.427   7.761
 2022POPC   C1B28591  39.650   4.833   8.798
 2022POPC   C2B28592  39.726   5.020   8.390
 2022POPC   C3B28593  39.609   5.129   7.969
 2022POPC   C4B28594  39.361   5.063   7.546
 2023POPC   NC328595   5.139  19.241   9.543
 2023POPC   PO428596   5.152  18.678   9.255
 2023POPC   GL128597   5.349  19.042   9.097
 2023POPC   GL228598   5.087  19.223   9.049
 2023POPC   C1A28599   5.357  19.079   8.658
 2023POPC   D2A28600   5.036  19.017   8.368
 2023POPC   C3A28601   5.113  18.797   7.992
 2023POPC   C4A28602   5.051  18.833   7.545
 2023POPC   C1B28603   4.937  19.466   8.743
 2023POPC   C2B28604   4.671  19.375   8.381
 2023POPC   C3B28605   4.666  19.347   7.931
 2023POPC   C4B28606   4.807  19.301   7.530
 2024POPC   NC328607  24.699  41.422   9.721
 2024POPC   PO428608  25.263  41.214   9.308
 2024POPC   GL128609  25.172  41.309   8.914
 2024POPC   GL228610  25.034  41.637   8.993
 2024POPC   C1A28611  25.135  41.462   8.532
 2024POPC   D2A28612  25.290  41.507   8.155
 2024POPC   C3A28613  25.046  41.444   7.822
 2024POPC   C4A28614  25.169  41.552   7.398
 2024POPC   C1B28615  25.266  41.924   8.691
 2024POPC   C2B28616  25.332  42.008   8.240
 2024POPC   C3B28617  25.340  41.877   7.785
 2024POPC   C4B28618  25.620  41.813   7.407
 2025POPC   NC328619  25.716  25.460   9.407
 2025POPC   PO428620  25.071  25.111   9.401
 2025POPC   GL128621  24.986  25.351   9.048
 2025POPC   GL228622  25.336  25.429   9.063
 2025POPC   C1A28623  25.085  25.388   8.627
 2025POPC   D2A28624  25.052  25.590   8.269
 2025POPC   C3A28625  24.971  25.233   7.995
 2025POPC   C4A28626  24.899  25.246   7.572
 2025POPC   C1B28627  25.587  25.244   8.726
 2025POPC   C2B28628  25.451  25.208   8.301
 2025POPC   C3B28629  25.425  25.465   7.959
 2025POPC   C4B28630  25.398  25.177   7.638
 2026POPC   NC328631  43.187  31.969   9.467
 2026POPC   PO428632  43.185  32.638   9.445
 2026POPC   GL128633  43.196  32.343   9.106
 2026POPC   GL228634  43.459  32.064   9.041
 2026POPC   C1A28635  43.088  32.187   8.724
 2026POPC   D2A28636  43.359  32.073   8.424
 2026POPC   C3A28637  43.184  32.254   8.092
 2026POPC   C4A28638  43.204  32.524   7.769
 2026POPC   C1B28639  43.227  31.725   8.829
 2026POPC   C2B28640  43.070  31.655   8.427
 2026POPC   C3B28641  43.265  31.748   8.004
 2026POPC   C4B28642  43.510  32.035   7.781
 2027POPC   NC328643  21.621  36.367   9.521
 2027POPC   PO428644  20.976  36.288   9.503
 2027POPC   GL128645  21.256  36.300   9.156
 2027POPC   GL228646  21.454  36.007   9.203
 2027POPC   C1A28647  21.187  36.218   8.728
 2027POPC   D2A28648  21.010  35.942   8.419
 2027POPC   C3A28649  21.039  36.109   7.997
 2027POPC   C4A28650  21.257  35.977   7.641
 2027POPC   C1B28651  21.687  36.120   8.827
 2027POPC   C2B28652  21.702  36.243   8.419
 2027POPC   C3B28653  21.553  36.041   8.065
 2027POPC   C4B28654  21.717  35.731   7.798
 2028POPC   NC328655  22.511  22.432   9.919
 2028POPC   PO428656  21.966  22.306   9.509
 2028POPC   GL128657  22.206  22.093   9.192
 2028POPC   GL228658  22.103  21.750   9.190
 2028POPC   C1A28659  22.388  22.264   8.810
 2028POPC   D2A28660  22.307  22.308   8.384
 2028POPC   C3A28661  22.356  21.968   8.102
 2028POPC   C4A28662  22.315  22.304   7.818
 2028POPC   C1B28663  22.216  21.781   8.743
 2028POPC   C2B28664  21.926  21.961   8.433
 2028POPC   C3B28665  21.881  22.162   8.039
 2028POPC   C4B28666  21.814  21.895   7.703
 2029POPC   NC328667  35.077   2.134   9.614
 2029POPC   PO428668  35.606   1.740   9.533
 2029POPC   GL128669  35.288   1.742   9.226
 2029POPC   GL228670  34.972   1.564   9.229
 2029POPC   C1A28671  35.226   2.015   8.869
 2029POPC   D2A28672  35.066   1.985   8.458
 2029POPC   C3A28673  35.283   2.140   8.114
 2029POPC   C4A28674  35.520   2.103   7.767
 2029POPC   C1B28675  35.085   1.518   8.794
 2029POPC   C2B28676  34.936   1.500   8.371
 2029POPC   C3B28677  35.231   1.634   8.046
 2029POPC   C4B28678  35.161   1.762   7.632
 2030POPC   NC328679   1.219  16.435   9.620
 2030POPC   PO428680   1.772  16.932   9.616
 2030POPC   GL128681   1.366  16.878   9.286
 2030POPC   GL228682   1.234  16.557   9.137
 2030POPC   C1A28683   1.167  16.971   8.847
 2030POPC   D2A28684   1.025  17.043   8.376
 2030POPC   C3A28685   1.191  16.795   8.023
 2030POPC   C4A28686   1.084  16.931   7.616
 2030POPC   C1B28687   0.931  16.493   8.820
 2030POPC   C2B28688   0.975  16.497   8.382
 2030POPC   C3B28689   0.820  16.456   7.950
 2030POPC   C4B28690   1.113  16.405   7.611
 2031POPC   NC328691  42.604  26.180   9.477
 2031POPC   PO428692  41.970  25.926   9.550
 2031POPC   GL128693  41.972  26.070   9.135
 2031POPC   GL228694  42.312  25.963   9.120
 2031POPC   C1A28695  42.154  26.202   8.705
 2031POPC   D2A28696  42.331  26.374   8.335
 2031POPC   C3A28697  42.047  26.315   7.999
 2031POPC   C4A28698  42.002  26.077   7.621
 2031POPC   C1B28699  42.504  25.794   8.758
 2031POPC   C2B28700  42.540  25.881   8.360
 2031POPC   C3B28701  42.427  25.977   7.975
 2031POPC   C4B28702  42.674  26.023   7.599
 2032POPC   NC328703  12.552  40.332   9.608
 2032POPC   PO428704  13.154  40.112   9.782
 2032POPC   GL128705  12.833  40.056   9.329
 2032POPC   GL228706  12.862  40.410   9.197
 2032POPC   C1A28707  12.758  39.985   8.848
 2032POPC   D2A28708  13.045  40.096   8.509
 2032POPC   C3A28709  13.026  40.071   8.057
 2032POPC   C4A28710  13.074  39.742   7.740
 2032POPC   C1B28711  12.533  40.420   8.870
 2032POPC   C2B28712  12.582  40.470   8.394
 2032POPC   C3B28713  12.670  40.410   7.905
 2032POPC   C4B28714  12.914  40.217   7.538
 2033POPC   NC328715  22.137  32.909   9.705
 2033POPC   PO428716  21.514  33.031   9.537
 2033POPC   GL128717  21.836  33.132   9.189
 2033POPC   GL228718  22.199  33.024   9.208
 2033POPC   C1A28719  21.928  33.265   8.735
 2033POPC   D2A28720  21.793  33.270   8.276
 2033POPC   C3A28721  22.116  33.205   7.930
 2033POPC   C4A28722  22.066  33.215   7.441
 2033POPC   C1B28723  22.275  32.881   8.785
 2033POPC   C2B28724  22.108  32.866   8.377
 2033POPC   C3B28725  22.223  32.703   7.993
 2033POPC   C4B28726  22.411  32.902   7.652
 2034POPC   NC328727  22.800  42.861   9.471
 2034POPC   PO428728  22.814  43.495   9.395
 2034POPC   GL128729  22.711  43.193   9.080
 2034POPC   GL228730  23.011  43.013   9.011
 2034POPC   C1A28731  22.668  43.027   8.632
 2034POPC   D2A28732  22.904  42.999   8.235
 2034POPC   C3A28733  22.779  42.840   7.827
 2034POPC   C4A28734  22.875  43.002   7.414
 2034POPC   C1B28735  23.232  43.134   8.617
 2034POPC   C2B28736  23.236  43.406   8.235
 2034POPC   C3B28737  23.150  43.236   7.814
 2034POPC   C4B28738  23.361  43.154   7.411
 2035POPC   NC328739  44.384   4.744   9.733
 2035POPC   PO428740  44.778   5.265   9.596
 2035POPC   GL128741  44.644   5.012   9.306
 2035POPC   GL228742  44.368   5.118   9.218
 2035POPC   C1A28743  44.753   5.162   8.863
 2035POPC   D2A28744  44.572   5.276   8.446
 2035POPC   C3A28745  44.769   5.047   8.092
 2035POPC   C4A28746  44.941   5.074   7.674
 2035POPC   C1B28747  44.283   4.941   8.810
 2035POPC   C2B28748  44.114   5.048   8.435
 2035POPC   C3B28749  44.258   5.152   8.048
 2035POPC   C4B28750  44.427   4.955   7.682
 2036POPC   NC328751   0.693  32.894   9.601
 2036POPC   PO428752   0.143  33.254   9.691
 2036POPC   GL128753   0.255  33.070   9.275
 2036POPC   GL228754   0.602  33.053   9.131
 2036POPC   C1A28755   0.194  32.967   8.831
 2036POPC   D2A28756   0.345  33.027   8.420
 2036POPC   C3A28757   0.062  32.902   8.108
 2036POPC   C4A28758   0.319  32.876   7.762
 2036POPC   C1B28759   0.656  33.301   8.764
 2036POPC   C2B28760   0.786  33.348   8.327
 2036POPC   C3B28761   0.531  33.274   7.981
 2036POPC   C4B28762   0.563  33.245   7.526
 2037POPC   NC328763  30.982  10.962   9.570
 2037POPC   PO428764  30.749  10.326   9.728
 2037POPC   GL128765  30.730  10.402   9.283
 2037POPC   GL228766  30.892  10.691   9.153
 2037POPC   C1A28767  30.528  10.441   8.860
 2037POPC   D2A28768  30.326  10.577   8.464
 2037POPC   C3A28769  30.641  10.652   8.139
 2037POPC   C4A28770  30.718  10.818   7.726
 2037POPC   C1B28771  31.034  10.422   8.828
 2037POPC   C2B28772  31.133  10.385   8.420
 2037POPC   C3B28773  30.966  10.260   8.060
 2037POPC   C4B28774  31.037  10.394   7.668
 2038POPC   NC328775  19.263  14.080   9.270
 2038POPC   PO428776  18.840  14.530   9.478
 2038POPC   GL128777  19.031  14.476   9.071
 2038POPC   GL228778  19.381  14.445   8.938
 2038POPC   C1A28779  18.971  14.281   8.659
 2038POPC   D2A28780  19.243  14.439   8.328
 2038POPC   C3A28781  19.083  14.494   7.930
 2038POPC   C4A28782  18.943  14.326   7.551
 2038POPC   C1B28783  19.420  14.058   8.645
 2038POPC   C2B28784  19.503  13.996   8.215
 2038POPC   C3B28785  19.406  14.093   7.775
 2038POPC   C4B28786  19.319  14.066   7.334
 2039POPC   NC328787   8.552  12.672   9.509
 2039POPC   PO428788   8.000  13.093   9.562
 2039POPC   GL128789   8.243  12.974   9.212
 2039POPC   GL228790   8.578  13.134   9.258
 2039POPC   C1A28791   8.230  12.668   8.847
 2039POPC   D2A28792   7.931  12.649   8.478
 2039POPC   C3A28793   8.017  12.666   8.043
 2039POPC   C4A28794   8.070  13.038   7.822
 2039POPC   C1B28795   8.548  13.091   8.821
 2039POPC   C2B28796   8.362  12.940   8.428
 2039POPC   C3B28797   8.510  12.623   8.134
 2039POPC   C4B28798   8.500  12.713   7.686
 2040POPC   NC328799  23.884   5.186   9.521
 2040POPC   PO428800  23.469   4.741   9.439
 2040POPC   GL128801  23.769   4.876   9.134
 2040POPC   GL228802  24.052   4.660   9.074
 2040POPC   C1A28803  23.706   5.069   8.727
 2040POPC   D2A28804  23.725   4.882   8.329
 2040POPC   C3A28805  23.640   5.161   7.977
 2040POPC   C4A28806  23.483   5.200   7.569
 2040POPC   C1B28807  24.142   4.683   8.639
 2040POPC   C2B28808  24.067   4.528   8.229
 2040POPC   C3B28809  23.889   4.702   7.850
 2040POPC   C4B28810  24.090   4.645   7.403
 2041POPC   NC328811  43.402   1.970   9.549
 2041POPC   PO428812  44.015   1.825   9.403
 2041POPC   GL128813  43.907   2.203   9.151
 2041POPC   GL228814  44.196   2.298   8.909
 2041POPC   C1A28815  43.707   2.183   8.774
 2041POPC   D2A28816  43.902   1.976   8.452
 2041POPC   C3A28817  43.720   2.154   8.108
 2041POPC   C4A28818  43.943   2.252   7.757
 2041POPC   C1B28819  44.256   1.820   8.803
 2041POPC   C2B28820  44.422   1.632   8.406
 2041POPC   C3B28821  44.219   1.821   8.032
 2041POPC   C4B28822  44.139   1.781   7.588
 2042POPC   NC328823  42.537   5.683   9.555
 2042POPC   PO428824  41.835   5.603   9.414
 2042POPC   GL128825  42.229   5.691   9.138
 2042POPC   GL228826  42.613   5.846   9.089
 2042POPC   C1A28827  42.303   5.853   8.720
 2042POPC   D2A28828  42.534   5.886   8.357
 2042POPC   C3A28829  42.226   5.808   8.055
 2042POPC   C4A28830  42.039   6.103   7.791
 2042POPC   C1B28831  42.789   5.615   8.749
 2042POPC   C2B28832  42.692   5.380   8.359
 2042POPC   C3B28833  42.655   5.552   7.952
 2042POPC   C4B28834  42.603   5.922   7.733
 2043POPC   NC328835  26.897  31.954   9.508
 2043POPC   PO428836  26.375  32.383   9.741
 2043POPC   GL128837  26.707  32.417   9.301
 2043POPC   GL228838  27.058  32.397   9.131
 2043POPC   C1A28839  26.719  32.285   8.794
 2043POPC   D2A28840  26.965  32.286   8.418
 2043POPC   C3A28841  26.768  32.177   8.032
 2043POPC   C4A28842  26.770  32.523   7.766
 2043POPC   C1B28843  27.185  32.041   8.827
 2043POPC   C2B28844  27.333  31.914   8.379
 2043POPC   C3B28845  27.343  32.033   7.911
 2043POPC   C4B28846  27.470  32.110   7.451
 2044POPC   NC328847  43.532  20.912   9.280
 2044POPC   PO428848  43.952  20.338   9.435
 2044POPC   GL128849  43.806  20.499   9.094
 2044POPC   GL228850  43.982  20.825   9.039
 2044POPC   C1A28851  43.655  20.350   8.715
 2044POPC   D2A28852  43.614  20.561   8.357
 2044POPC   C3A28853  43.686  20.441   7.956
 2044POPC   C4A28854  43.671  20.830   7.751
 2044POPC   C1B28855  44.042  20.820   8.581
 2044POPC   C2B28856  44.053  20.811   8.121
 2044POPC   C3B28857  44.161  20.891   7.677
 2044POPC   C4B28858  44.362  20.685   7.317
 2045POPC   NC328859  11.570  25.657   9.440
 2045POPC   PO428860  10.966  25.399   9.575
 2045POPC   GL128861  11.161  25.448   9.178
 2045POPC   GL228862  11.319  25.113   9.152
 2045POPC   C1A28863  11.413  25.465   8.772
 2045POPC   D2A28864  11.488  25.650   8.340
 2045POPC   C3A28865  11.562  25.459   7.935
 2045POPC   C4A28866  11.189  25.306   7.747
 2045POPC   C1B28867  11.514  24.959   8.757
 2045POPC   C2B28868  11.479  25.125   8.346
 2045POPC   C3B28869  11.440  24.914   7.962
 2045POPC   C4B28870  11.520  24.925   7.514
 2046POPC   NC328871   9.943  14.010   9.397
 2046POPC   PO428872   9.507  13.538   9.579
 2046POPC   GL128873   9.546  13.418   9.173
 2046POPC   GL228874   9.898  13.382   9.158
 2046POPC   C1A28875   9.416  13.509   8.769
 2046POPC   D2A28876   9.353  13.829   8.464
 2046POPC   C3A28877   9.579  13.814   8.065
 2046POPC   C4A28878   9.529  13.633   7.653
 2046POPC   C1B28879   9.892  13.686   8.787
 2046POPC   C2B28880  10.114  13.730   8.387
 2046POPC   C3B28881  10.168  14.023   8.053
 2046POPC   C4B28882   9.938  14.000   7.655
 2047POPC   NC328883  23.511  16.970   9.321
 2047POPC   PO428884  23.325  16.330   9.456
 2047POPC   GL128885  23.578  16.514   9.093
 2047POPC   GL228886  23.372  16.683   8.899
 2047POPC   C1A28887  23.851  16.567   8.710
 2047POPC   D2A28888  23.855  16.876   8.347
 2047POPC   C3A28889  23.709  16.710   7.944
 2047POPC   C4A28890  23.908  16.386   7.725
 2047POPC   C1B28891  23.393  16.913   8.519
 2047POPC   C2B28892  23.405  17.099   8.097
 2047POPC   C3B28893  23.451  17.040   7.652
 2047POPC   C4B28894  23.477  16.992   7.206
 2048POPC   NC328895  26.100  28.208   9.494
 2048POPC   PO428896  25.380  28.334   9.519
 2048POPC   GL128897  25.691  28.365   9.162
 2048POPC   GL228898  25.956  28.164   9.018
 2048POPC   C1A28899  25.698  28.537   8.731
 2048POPC   D2A28900  25.802  28.708   8.303
 2048POPC   C3A28901  26.078  28.542   7.941
 2048POPC   C4A28902  26.001  28.232   7.613
 2048POPC   C1B28903  26.203  28.418   8.731
 2048POPC   C2B28904  26.249  28.265   8.326
 2048POPC   C3B28905  26.417  28.117   7.922
 2048POPC   C4B28906  26.492  28.408   7.640
 2049POPC   NC328907  26.972  33.652   9.495
 2049POPC   PO428908  26.431  34.056   9.415
 2049POPC   GL128909  26.622  33.814   9.105
 2049POPC   GL228910  26.550  33.461   9.210
 2049POPC   C1A28911  26.880  34.033   8.767
 2049POPC   D2A28912  26.828  34.194   8.349
 2049POPC   C3A28913  27.021  34.026   8.003
 2049POPC   C4A28914  26.874  33.818   7.638
 2049POPC   C1B28915  26.380  33.473   8.802
 2049POPC   C2B28916  26.595  33.552   8.411
 2049POPC   C3B28917  26.493  33.659   7.982
 2049POPC   C4B28918  26.245  33.407   7.747
 2050POPC   NC328919   1.724  20.337   9.399
 2050POPC   PO428920   1.454  20.931   9.419
 2050POPC   GL128921   1.794  20.931   9.106
 2050POPC   GL228922   1.920  20.604   9.024
 2050POPC   C1A28923   1.954  20.973   8.677
 2050POPC   D2A28924   1.895  20.722   8.317
 2050POPC   C3A28925   1.913  20.851   7.884
 2050POPC   C4A28926   1.703  21.024   7.534
 2050POPC   C1B28927   2.155  20.433   8.691
 2050POPC   C2B28928   1.993  20.224   8.360
 2050POPC   C3B28929   1.868  20.330   7.978
 2050POPC   C4B28930   2.181  20.318   7.711
 2051POPC   NC328931  30.623  21.742   9.234
 2051POPC   PO428932  30.663  22.417   9.451
 2051POPC   GL128933  30.626  22.239   9.096
 2051POPC   GL228934  30.974  22.101   9.155
 2051POPC   C1A28935  30.436  22.093   8.730
 2051POPC   D2A28936  30.566  21.828   8.389
 2051POPC   C3A28937  30.520  22.063   8.014
 2051POPC   C4A28938  30.870  22.153   7.771
 2051POPC   C1B28939  31.004  22.235   8.748
 2051POPC   C2B28940  30.775  22.314   8.400
 2051POPC   C3B28941  30.983  22.526   8.100
 2051POPC   C4B28942  30.951  22.659   7.710
 2052POPC   NC328943  44.030  31.648   9.645
 2052POPC   PO428944  43.483  31.286   9.440
 2052POPC   GL128945  43.647  31.590   9.131
 2052POPC   GL228946  43.960  31.492   9.015
 2052POPC   C1A28947  43.715  31.767   8.676
 2052POPC   D2A28948  43.725  31.763   8.208
 2052POPC   C3A28949  44.042  31.656   7.885
 2052POPC   C4A28950  44.193  31.663   7.427
 2052POPC   C1B28951  44.142  31.157   8.732
 2052POPC   C2B28952  43.910  31.057   8.392
 2052POPC   C3B28953  43.849  31.197   8.017
 2052POPC   C4B28954  43.711  31.140   7.607
 2053POPC   NC328955  19.275   9.011   9.423
 2053POPC   PO428956  18.672   8.627   9.440
 2053POPC   GL128957  18.770   8.935   9.073
 2053POPC   GL228958  19.123   9.011   8.946
 2053POPC   C1A28959  18.771   8.974   8.603
 2053POPC   D2A28960  19.061   8.877   8.299
 2053POPC   C3A28961  18.798   8.956   8.018
 2053POPC   C4A28962  18.745   9.120   7.622
 2053POPC   C1B28963  19.341   8.677   8.670
 2053POPC   C2B28964  19.364   8.465   8.243
 2053POPC   C3B28965  19.439   8.793   7.915
 2053POPC   C4B28966  19.207   9.205   7.841
 2054POPC   NC328967  28.479   6.891   9.511
 2054POPC   PO428968  28.037   6.389   9.378
 2054POPC   GL128969  28.326   6.556   9.141
 2054POPC   GL228970  28.689   6.522   9.197
 2054POPC   C1A28971  28.380   6.756   8.804
 2054POPC   D2A28972  28.271   6.826   8.409
 2054POPC   C3A28973  28.493   6.624   8.101
 2054POPC   C4A28974  28.374   6.672   7.689
 2054POPC   C1B28975  28.653   6.327   8.803
 2054POPC   C2B28976  28.570   6.161   8.424
 2054POPC   C3B28977  28.835   6.062   8.115
 2054POPC   C4B28978  28.831   6.348   7.826
 2055POPC   NC328979   9.732  20.851   9.880
 2055POPC   PO428980   9.764  20.400   9.395
 2055POPC   GL128981   9.750  20.421   9.026
 2055POPC   GL228982  10.115  20.464   9.032
 2055POPC   C1A28983   9.567  20.304   8.653
 2055POPC   D2A28984   9.608  20.618   8.388
 2055POPC   C3A28985   9.727  20.585   7.984
 2055POPC   C4A28986   9.526  20.342   7.722
 2055POPC   C1B28987  10.107  20.746   8.701
 2055POPC   C2B28988  10.074  20.814   8.278
 2055POPC   C3B28989  10.058  20.960   7.850
 2055POPC   C4B28990  10.129  20.701   7.467
 2056POPC   NC328991  41.997   4.526   9.665
 2056POPC   PO428992  42.049   3.872   9.504
 2056POPC   GL128993  42.264   4.214   9.248
 2056POPC   GL228994  42.082   4.523   9.175
 2056POPC   C1A28995  42.195   4.206   8.784
 2056POPC   D2A28996  42.209   4.011   8.373
 2056POPC   C3A28997  42.310   4.314   8.060
 2056POPC   C4A28998  42.479   4.306   7.662
 2056POPC   C1B28999  41.976   4.680   8.795
 2056POPC   C2B29000  42.219   4.646   8.444
 2056POPC   C3B29001  42.050   4.772   8.074
 2056POPC   C4B29002  41.994   4.561   7.716
 2057POPC   NC329003  42.876  24.537   9.485
 2057POPC   PO429004  43.502  24.625   9.435
 2057POPC   GL129005  43.241  24.420   9.119
 2057POPC   GL229006  42.940  24.247   9.068
 2057POPC   C1A29007  43.322  24.385   8.690
 2057POPC   D2A29008  43.452  24.279   8.285
 2057POPC   C3A29009  43.186  24.409   7.983
 2057POPC   C4A29010  43.047  24.734   7.755
 2057POPC   C1B29011  42.809  24.462   8.731
 2057POPC   C2B29012  42.626  24.578   8.381
 2057POPC   C3B29013  42.607  24.811   8.037
 2057POPC   C4B29014  42.563  24.666   7.636
 2058POPC   NC329015  29.820   5.010   9.593
 2058POPC   PO429016  30.148   5.614   9.382
 2058POPC   GL129017  30.112   5.172   9.140
 2058POPC   GL229018  29.809   4.913   9.105
 2058POPC   C1A29019  30.164   4.861   8.764
 2058POPC   D2A29020  30.044   4.704   8.349
 2058POPC   C3A29021  30.012   5.033   8.040
 2058POPC   C4A29022  30.341   5.113   7.696
 2058POPC   C1B29023  29.618   5.149   8.783
 2058POPC   C2B29024  29.664   5.300   8.359
 2058POPC   C3B29025  29.603   5.402   7.945
 2058POPC   C4B29026  29.811   5.240   7.576
 2059POPC   NC329027   5.651  21.243   9.444
 2059POPC   PO429028   6.201  20.905   9.587
 2059POPC   GL129029   5.972  20.976   9.143
 2059POPC   GL229030   5.901  21.316   9.014
 2059POPC   C1A29031   5.624  21.003   8.779
 2059POPC   D2A29032   5.632  21.367   8.499
 2059POPC   C3A29033   5.693  21.483   8.043
 2059POPC   C4A29034   5.475  21.360   7.685
 2059POPC   C1B29035   6.101  21.173   8.652
 2059POPC   C2B29036   6.086  21.208   8.235
 2059POPC   C3B29037   6.203  21.448   7.873
 2059POPC   C4B29038   6.070  21.701   7.510
 2060POPC   NC329039   2.500  37.145   9.372
 2060POPC   PO429040   2.207  36.607   9.618
 2060POPC   GL129041   2.114  36.869   9.178
 2060POPC   GL229042   2.215  36.656   8.890
 2060POPC   C1A29043   2.251  37.183   8.787
 2060POPC   D2A29044   2.146  37.385   8.373
 2060POPC   C3A29045   2.173  37.201   7.960
 2060POPC   C4A29046   1.851  37.124   7.609
 2060POPC   C1B29047   1.874  36.885   8.677
 2060POPC   C2B29048   1.586  36.833   8.353
 2060POPC   C3B29049   1.640  36.779   7.936
 2060POPC   C4B29050   2.047  36.722   7.840
 2061POPC   NC329051  36.149  42.978   9.625
 2061POPC   PO429052  35.892  43.608   9.414
 2061POPC   GL129053  36.023  43.210   9.189
 2061POPC   GL229054  35.817  42.892   9.225
 2061POPC   C1A29055  36.224  42.952   8.853
 2061POPC   D2A29056  36.454  43.095   8.492
 2061POPC   C3A29057  36.293  43.071   8.105
 2061POPC   C4A29058  36.116  43.235   7.727
 2061POPC   C1B29059  35.718  43.026   8.814
 2061POPC   C2B29060  35.893  42.869   8.422
 2061POPC   C3B29061  35.803  42.880   7.979
 2061POPC   C4B29062  35.798  42.794   7.530
 2062POPC   NC329063  22.104   4.048   9.583
 2062POPC   PO429064  22.627   4.539   9.470
 2062POPC   GL129065  22.317   4.379   9.229
 2062POPC   GL229066  22.392   4.035   9.185
 2062POPC   C1A29067  22.088   4.480   8.858
 2062POPC   D2A29068  22.199   4.305   8.461
 2062POPC   C3A29069  22.123   4.489   8.056
 2062POPC   C4A29070  22.430   4.567   7.766
 2062POPC   C1B29071  22.038   3.972   8.895
 2062POPC   C2B29072  21.953   3.866   8.466
 2062POPC   C3B29073  22.070   3.967   8.042
 2062POPC   C4B29074  22.000   4.006   7.606
 2063POPC   NC329075  15.345  26.728   9.494
 2063POPC   PO429076  15.060  27.314   9.755
 2063POPC   GL129077  15.110  27.094   9.278
 2063POPC   GL229078  15.438  27.104   9.132
 2063POPC   C1A29079  15.037  26.834   8.889
 2063POPC   D2A29080  14.825  26.811   8.453
 2063POPC   C3A29081  15.043  26.632   8.053
 2063POPC   C4A29082  15.191  26.765   7.642
 2063POPC   C1B29083  15.304  27.233   8.761
 2063POPC   C2B29084  15.302  26.932   8.435
 2063POPC   C3B29085  15.332  27.040   8.039
 2063POPC   C4B29086  15.297  27.287   7.714
 2064POPC   NC329087  44.186  22.576   9.664
 2064POPC   PO429088  43.650  22.101   9.544
 2064POPC   GL129089  43.900  22.051   9.198
 2064POPC   GL229090  44.204  21.894   9.287
 2064POPC   C1A29091  44.025  22.189   8.809
 2064POPC   D2A29092  43.913  22.518   8.512
 2064POPC   C3A29093  44.014  22.382   8.120
 2064POPC   C4A29094  44.004  22.424   7.716
 2064POPC   C1B29095  44.128  21.673   8.927
 2064POPC   C2B29096  44.125  21.775   8.508
 2064POPC   C3B29097  44.222  21.707   8.088
 2064POPC   C4B29098  44.053  21.928   7.780
 2065POPC   NC329099  11.768  33.629   9.391
 2065POPC   PO429100  12.344  33.914   9.449
 2065POPC   GL129101  12.120  33.839   9.080
 2065POPC   GL229102  11.772  33.978   9.019
 2065POPC   C1A29103  12.260  33.728   8.696
 2065POPC   D2A29104  12.430  33.485   8.365
 2065POPC   C3A29105  12.291  33.713   8.022
 2065POPC   C4A29106  12.336  34.124   7.881
 2065POPC   C1B29107  11.766  33.599   8.738
 2065POPC   C2B29108  11.899  33.537   8.339
 2065POPC   C3B29109  11.799  33.542   7.932
 2065POPC   C4B29110  11.908  33.872   7.685
 2066POPC   NC329111  19.249  17.967   9.270
 2066POPC   PO429112  19.732  17.789   9.488
 2066POPC   GL129113  19.982  17.667   9.129
 2066POPC   GL229114  20.309  17.841   9.139
 2066POPC   C1A29115  19.850  17.569   8.699
 2066POPC   D2A29116  19.861  17.752   8.287
 2066POPC   C3A29117  19.780  17.456   7.937
 2066POPC   C4A29118  19.996  17.084   8.036
 2066POPC   C1B29119  20.250  17.884   8.706
 2066POPC   C2B29120  20.383  17.855   8.303
 2066POPC   C3B29121  20.237  17.656   7.936
 2066POPC   C4B29122  20.096  17.771   7.529
 2067POPC   NC329123   5.868  29.476   9.329
 2067POPC   PO429124   5.724  30.079   9.576
 2067POPC   GL129125   5.938  29.977   9.207
 2067POPC   GL229126   5.589  29.854   9.140
 2067POPC   C1A29127   5.925  29.831   8.767
 2067POPC   D2A29128   5.745  29.880   8.379
 2067POPC   C3A29129   5.966  29.986   7.979
 2067POPC   C4A29130   6.165  29.962   7.569
 2067POPC   C1B29131   5.595  30.219   8.866
 2067POPC   C2B29132   5.523  30.382   8.469
 2067POPC   C3B29133   5.686  30.400   8.076
 2067POPC   C4B29134   5.551  30.184   7.726
 2068POPC   NC329135  20.251  33.768   9.510
 2068POPC   PO429136  20.917  33.598   9.419
 2068POPC   GL129137  20.881  33.636   8.985
 2068POPC   GL229138  20.612  33.844   9.039
 2068POPC   C1A29139  20.719  33.529   8.552
 2068POPC   D2A29140  20.384  33.667   8.252
 2068POPC   C3A29141  20.438  33.539   7.860
 2068POPC   C4A29142  20.837  33.595   7.651
 2068POPC   C1B29143  20.495  33.979   8.640
 2068POPC   C2B29144  20.642  34.151   8.259
 2068POPC   C3B29145  20.558  34.019   7.870
 2068POPC   C4B29146  20.628  34.148   7.476
 2069POPC   NC329147  40.686   0.478   9.551
 2069POPC   PO429148  41.275   0.453   9.301
 2069POPC   GL129149  40.934   0.634   9.109
 2069POPC   GL229150  40.738   0.335   9.078
 2069POPC   C1A29151  40.625   0.755   8.796
 2069POPC   D2A29152  40.679   0.622   8.395
 2069POPC   C3A29153  40.592   0.569   7.983
 2069POPC   C4A29154  40.884   0.623   7.666
 2069POPC   C1B29155  40.942   0.303   8.698
 2069POPC   C2B29156  40.833   0.114   8.320
 2069POPC   C3B29157  40.893   0.160   7.887
 2069POPC   C4B29158  41.025   0.174   7.442
 2070POPC   NC329159  40.718   9.795   9.641
 2070POPC   PO429160  40.849   9.136   9.510
 2070POPC   GL129161  40.752   9.526   9.210
 2070POPC   GL229162  40.723   9.943   9.168
 2070POPC   C1A29163  40.635   9.639   8.788
 2070POPC   D2A29164  40.747   9.789   8.391
 2070POPC   C3A29165  40.605   9.643   7.991
 2070POPC   C4A29166  40.583   9.886   7.610
 2070POPC   C1B29167  41.029   9.960   8.813
 2070POPC   C2B29168  41.305   9.803   8.489
 2070POPC   C3B29169  41.163   9.839   8.081
 2070POPC   C4B29170  41.043   9.637   7.718
 2071POPC   NC329171  16.122  21.202   9.667
 2071POPC   PO429172  15.555  21.525   9.409
 2071POPC   GL129173  15.696  21.279   9.106
 2071POPC   GL229174  16.052  21.349   9.176
 2071POPC   C1A29175  15.595  21.121   8.703
 2071POPC   D2A29176  15.479  21.332   8.336
 2071POPC   C3A29177  15.648  21.215   7.925
 2071POPC   C4A29178  15.891  21.556   7.818
 2071POPC   C1B29179  16.002  21.447   8.723
 2071POPC   C2B29180  15.983  21.317   8.297
 2071POPC   C3B29181  16.187  21.154   7.936
 2071POPC   C4B29182  16.361  21.121   7.532
 2072POPC   NC329183  31.500  42.898   9.376
 2072POPC   PO429184  31.743  43.580   9.417
 2072POPC   GL129185  31.475  43.371   9.110
 2072POPC   GL229186  31.683  43.131   8.971
 2072POPC   C1A29187  31.223  43.257   8.726
 2072POPC   D2A29188  30.928  43.193   8.364
 2072POPC   C3A29189  31.161  43.012   8.048
 2072POPC   C4A29190  31.309  43.139   7.681
 2072POPC   C1B29191  31.619  42.792   8.721
 2072POPC   C2B29192  31.582  42.922   8.342
 2072POPC   C3B29193  31.686  42.913   7.945
 2072POPC   C4B29194  31.723  42.573   7.716
 2073POPC   NC329195  37.523   2.869   9.646
 2073POPC   PO429196  36.898   2.769   9.543
 2073POPC   GL129197  37.009   2.810   9.137
 2073POPC   GL229198  37.052   3.142   9.035
 2073POPC   C1A29199  37.022   2.588   8.734
 2073POPC   D2A29200  37.121   2.787   8.313
 2073POPC   C3A29201  36.904   2.631   7.921
 2073POPC   C4A29202  36.662   2.540   7.516
 2073POPC   C1B29203  36.731   3.001   8.723
 2073POPC   C2B29204  36.605   2.741   8.352
 2073POPC   C3B29205  36.446   2.872   7.939
 2073POPC   C4B29206  36.639   3.058   7.610
 2074POPC   NC329207   0.760   1.516   9.529
 2074POPC   PO429208   0.135   1.137   9.495
 2074POPC   GL129209   0.376   1.312   9.171
 2074POPC   GL229210   0.720   1.210   9.124
 2074POPC   C1A29211   0.212   1.271   8.765
 2074POPC   D2A29212   0.354   1.434   8.354
 2074POPC   C3A29213   0.231   1.209   8.004
 2074POPC   C4A29214   0.350   1.324   7.583
 2074POPC   C1B29215   0.700   1.296   8.720
 2074POPC   C2B29216   0.873   1.274   8.340
 2074POPC   C3B29217   0.733   1.261   7.937
 2074POPC   C4B29218   0.825   1.472   7.571
 2075POPC   NC329219  31.064  26.245   9.711
 2075POPC   PO429220  31.631  25.958   9.563
 2075POPC   GL129221  31.366  26.001   9.185
 2075POPC   GL229222  31.128  26.317   9.204
 2075POPC   C1A29223  31.436  25.743   8.800
 2075POPC   D2A29224  31.321  25.830   8.392
 2075POPC   C3A29225  31.445  25.703   8.005
 2075POPC   C4A29226  31.315  25.848   7.591
 2075POPC   C1B29227  31.379  26.387   8.828
 2075POPC   C2B29228  31.545  26.354   8.403
 2075POPC   C3B29229  31.425  26.229   7.954
 2075POPC   C4B29230  31.057  26.269   7.620
 2076POPC   NC329231   5.606  18.664   9.318
 2076POPC   PO429232   6.271  18.477   9.481
 2076POPC   GL129233   5.991  18.379   9.148
 2076POPC   GL229234   6.182  18.511   8.947
 2076POPC   C1A29235   5.733  18.349   8.748
 2076POPC   D2A29236   5.723  18.180   8.331
 2076POPC   C3A29237   5.661  18.465   7.967
 2076POPC   C4A29238   5.699  18.361   7.529
 2076POPC   C1B29239   6.173  18.073   8.740
 2076POPC   C2B29240   6.240  17.983   8.308
 2076POPC   C3B29241   6.043  18.130   7.927
 2076POPC   C4B29242   6.176  18.430   7.650
 2077POPC   NC329243   8.728  33.845   9.577
 2077POPC   PO429244   9.115  33.343   9.720
 2077POPC   GL129245   9.110  33.545   9.265
 2077POPC   GL229246   9.178  33.913   9.250
 2077POPC   C1A29247   8.970  33.692   8.813
 2077POPC   D2A29248   9.113  33.703   8.345
 2077POPC   C3A29249   8.858  33.761   7.967
 2077POPC   C4A29250   8.493  33.604   7.711
 2077POPC   C1B29251   9.380  34.005   8.853
 2077POPC   C2B29252   9.435  34.103   8.415
 2077POPC   C3B29253   9.303  34.040   7.980
 2077POPC   C4B29254   9.204  33.898   7.563
 2078POPC   NC329255  26.328   2.618   9.911
 2078POPC   PO429256  25.960   2.981   9.604
 2078POPC   GL129257  26.038   3.038   9.158
 2078POPC   GL229258  25.838   3.259   8.981
 2078POPC   C1A29259  26.010   2.786   8.760
 2078POPC   D2A29260  26.173   2.569   8.397
 2078POPC   C3A29261  26.043   2.715   7.991
 2078POPC   C4A29262  26.324   2.999   7.795
 2078POPC   C1B29263  26.162   3.262   8.653
 2078POPC   C2B29264  26.081   3.197   8.202
 2078POPC   C3B29265  25.866   3.209   7.785
 2078POPC   C4B29266  25.707   3.211   7.357
 2079POPC   NC329267  23.192   1.088   9.482
 2079POPC   PO429268  22.544   1.415   9.517
 2079POPC   GL129269  22.786   1.263   9.205
 2079POPC   GL229270  23.017   1.533   9.078
 2079POPC   C1A29271  22.708   1.277   8.769
 2079POPC   D2A29272  22.924   1.098   8.413
 2079POPC   C3A29273  22.865   1.340   8.062
 2079POPC   C4A29274  22.761   1.245   7.652
 2079POPC   C1B29275  23.139   1.531   8.633
 2079POPC   C2B29276  23.354   1.318   8.278
 2079POPC   C3B29277  23.271   1.103   7.937
 2079POPC   C4B29278  23.255   1.413   7.694
 2080POPC   NC329279  21.431   3.920   9.496
 2080POPC   PO429280  21.189   3.369   9.530
 2080POPC   GL129281  21.478   3.465   9.213
 2080POPC   GL229282  21.204   3.640   9.087
 2080POPC   C1A29283  21.622   3.672   8.829
 2080POPC   D2A29284  21.664   3.465   8.424
 2080POPC   C3A29285  21.589   3.777   8.094
 2080POPC   C4A29286  21.652   3.659   7.689
 2080POPC   C1B29287  21.195   3.432   8.666
 2080POPC   C2B29288  21.194   3.468   8.178
 2080POPC   C3B29289  21.198   3.422   7.705
 2080POPC   C4B29290  21.072   3.281   7.262
 2081POPC   NC329291  34.972  17.727   9.565
 2081POPC   PO429292  35.557  17.367   9.610
 2081POPC   GL129293  35.366  17.488   9.250
 2081POPC   GL229294  35.482  17.192   9.127
 2081POPC   C1A29295  35.468  17.716   8.873
 2081POPC   D2A29296  35.304  17.644   8.470
 2081POPC   C3A29297  35.536  17.638   8.087
 2081POPC   C4A29298  35.232  17.609   7.744
 2081POPC   C1B29299  35.250  17.231   8.761
 2081POPC   C2B29300  35.384  17.162   8.325
 2081POPC   C3B29301  35.454  17.169   7.879
 2081POPC   C4B29302  35.781  17.178   7.522
 2082POPC   NC329303  31.739   6.445   9.555
 2082POPC   PO429304  31.178   6.667   9.512
 2082POPC   GL129305  31.404   6.554   9.156
 2082POPC   GL229306  31.684   6.770   9.161
 2082POPC   C1A29307  31.477   6.368   8.769
 2082POPC   D2A29308  31.642   6.463   8.344
 2082POPC   C3A29309  31.348   6.319   8.027
 2082POPC   C4A29310  31.459   6.420   7.653
 2082POPC   C1B29311  31.613   6.883   8.729
 2082POPC   C2B29312  31.703   6.998   8.307
 2082POPC   C3B29313  31.664   6.836   7.900
 2082POPC   C4B29314  31.457   6.951   7.559
 2083POPC   NC329315  33.468  44.204   9.418
 2083POPC   PO429316  34.116  43.947   9.701
 2083POPC   GL129317  33.899  43.957   9.288
 2083POPC   GL229318  33.812  44.237   9.058
 2083POPC   C1A29319  33.833  43.765   8.865
 2083POPC   D2A29320  33.943  43.974   8.492
 2083POPC   C3A29321  33.908  43.830   8.056
 2083POPC   C4A29322  34.123  44.030   7.715
 2083POPC   C1B29323  33.484  44.186   8.702
 2083POPC   C2B29324  33.472  44.023   8.251
 2083POPC   C3B29325  33.602  44.137   7.789
 2083POPC   C4B29326  33.480  44.013   7.379
 2084POPC   NC329327  22.084  37.125   9.458
 2084POPC   PO429328  22.671  36.742   9.370
 2084POPC   GL129329  22.348  36.761   9.060
 2084POPC   GL229330  22.344  37.118   9.027
 2084POPC   C1A29331  22.070  36.567   8.725
 2084POPC   D2A29332  21.798  36.753   8.378
 2084POPC   C3A29333  21.905  36.646   7.951
 2084POPC   C4A29334  22.353  36.684   7.896
 2084POPC   C1B29335  22.135  37.076   8.658
 2084POPC   C2B29336  22.225  37.011   8.239
 2084POPC   C3B29337  22.071  37.219   7.855
 2084POPC   C4B29338  21.989  37.249   7.401
 2085POPC   NC329339   1.583  31.648   9.561
 2085POPC   PO429340   0.940  31.308   9.502
 2085POPC   GL129341   1.260  31.428   9.193
 2085POPC   GL229342   1.324  31.791   9.132
 2085POPC   C1A29343   1.194  31.338   8.756
 2085POPC   D2A29344   1.065  31.564   8.380
 2085POPC   C3A29345   1.229  31.432   7.986
 2085POPC   C4A29346   0.932  31.529   7.676
 2085POPC   C1B29347   1.430  31.779   8.676
 2085POPC   C2B29348   1.562  31.807   8.217
 2085POPC   C3B29349   1.682  31.664   7.775
 2085POPC   C4B29350   1.495  31.775   7.352
 2086POPC   NC329351   6.740  16.463   9.423
 2086POPC   PO429352   6.748  17.078   9.731
 2086POPC   GL129353   6.627  16.938   9.276
 2086POPC   GL229354   6.847  16.770   9.022
 2086POPC   C1A29355   6.517  17.111   8.838
 2086POPC   D2A29356   6.400  16.968   8.413
 2086POPC   C3A29357   6.735  16.913   8.122
 2086POPC   C4A29358   6.687  17.077   7.733
 2086POPC   C1B29359   6.567  16.588   8.703
 2086POPC   C2B29360   6.556  16.463   8.237
 2086POPC   C3B29361   6.746  16.496   7.786
 2086POPC   C4B29362   6.521  16.451   7.398
 2087POPC   NC329363  36.631  37.414   9.450
 2087POPC   PO429364  37.159  37.726   9.503
 2087POPC   GL129365  36.878  37.763   9.134
 2087POPC   GL229366  36.689  37.481   8.968
 2087POPC   C1A29367  36.814  37.892   8.715
 2087POPC   D2A29368  36.606  38.027   8.381
 2087POPC   C3A29369  36.891  37.912   8.109
 2087POPC   C4A29370  37.113  37.709   7.836
 2087POPC   C1B29371  37.081  37.411   8.804
 2087POPC   C2B29372  37.069  37.469   8.369
 2087POPC   C3B29373  36.804  37.346   8.023
 2087POPC   C4B29374  36.991  37.214   7.676
 2088POPC   NC329375  18.184   8.157   9.740
 2088POPC   PO429376  18.548   7.763   9.454
 2088POPC   GL129377  18.364   8.155   9.234
 2088POPC   GL229378  18.604   8.316   9.037
 2088POPC   C1A29379  18.183   8.258   8.788
 2088POPC   D2A29380  18.338   8.445   8.372
 2088POPC   C3A29381  18.168   8.294   7.943
 2088POPC   C4A29382  18.220   8.335   7.469
 2088POPC   C1B29383  18.817   7.936   8.813
 2088POPC   C2B29384  18.734   7.641   8.434
 2088POPC   C3B29385  18.605   7.892   8.073
 2088POPC   C4B29386  18.644   8.217   7.768
 2089POPC   NC329387  35.662  31.311   9.514
 2089POPC   PO429388  35.028  31.677   9.533
 2089POPC   GL129389  35.288  31.572   9.128
 2089POPC   GL229390  35.605  31.721   8.926
 2089POPC   C1A29391  35.254  31.456   8.674
 2089POPC   D2A29392  35.575  31.554   8.354
 2089POPC   C3A29393  35.346  31.665   7.997
 2089POPC   C4A29394  35.079  31.349   7.866
 2089POPC   C1B29395  35.714  31.260   8.795
 2089POPC   C2B29396  35.735  31.057   8.374
 2089POPC   C3B29397  35.598  31.206   7.935
 2089POPC   C4B29398  35.706  31.333   7.471
 2090POPC   NC329399  34.843   4.990   9.491
 2090POPC   PO429400  34.236   5.423   9.586
 2090POPC   GL129401  34.430   5.241   9.193
 2090POPC   GL229402  34.663   4.953   9.036
 2090POPC   C1A29403  34.408   5.267   8.740
 2090POPC   D2A29404  34.591   5.214   8.340
 2090POPC   C3A29405  34.336   5.181   7.969
 2090POPC   C4A29406  34.480   4.979   7.590
 2090POPC   C1B29407  34.867   4.641   8.793
 2090POPC   C2B29408  34.667   4.584   8.417
 2090POPC   C3B29409  34.644   4.765   8.052
 2090POPC   C4B29410  34.806   4.593   7.709
 2091POPC   NC329411  35.922   3.557   9.451
 2091POPC   PO429412  36.448   3.189   9.678
 2091POPC   GL129413  36.460   3.343   9.213
 2091POPC   GL229414  36.352   3.656   9.150
 2091POPC   C1A29415  36.313   3.286   8.758
 2091POPC   D2A29416  36.239   3.113   8.358
 2091POPC   C3A29417  35.911   3.185   8.070
 2091POPC   C4A29418  36.131   3.189   7.681
 2091POPC   C1B29419  36.040   3.699   8.826
 2091POPC   C2B29420  36.001   3.749   8.388
 2091POPC   C3B29421  36.161   3.635   7.992
 2091POPC   C4B29422  36.065   3.668   7.534
 2092POPC   NC329423  35.803  12.206   9.664
 2092POPC   PO429424  35.168  11.893   9.436
 2092POPC   GL129425  35.283  12.093   9.090
 2092POPC   GL229426  35.538  12.345   9.158
 2092POPC   C1A29427  35.156  11.952   8.692
 2092POPC   D2A29428  34.960  12.102   8.338
 2092POPC   C3A29429  35.234  12.079   7.992
 2092POPC   C4A29430  35.294  11.745   7.657
 2092POPC   C1B29431  35.680  12.110   8.771
 2092POPC   C2B29432  35.711  11.890   8.362
 2092POPC   C3B29433  35.723  11.923   7.905
 2092POPC   C4B29434  35.821  12.157   7.521
 2093POPC   NC329435   4.947   0.690   9.559
 2093POPC   PO429436   5.379   0.227   9.490
 2093POPC   GL129437   5.042   0.285   9.162
 2093POPC   GL229438   5.097   0.610   9.084
 2093POPC   C1A29439   5.050   0.302   8.697
 2093POPC   D2A29440   5.155   0.658   8.396
 2093POPC   C3A29441   5.151   0.459   7.995
 2093POPC   C4A29442   5.471   0.215   7.802
 2093POPC   C1B29443   4.800   0.754   8.769
 2093POPC   C2B29444   4.638   0.857   8.352
 2093POPC   C3B29445   4.747   0.791   7.894
 2093POPC   C4B29446   5.107   0.729   7.568
 2094POPC   NC329447  28.831  25.540   9.541
 2094POPC   PO429448  28.221  25.270   9.684
 2094POPC   GL129449  28.382  25.233   9.267
 2094POPC   GL229450  28.331  25.586   9.256
 2094POPC   C1A29451  28.527  25.080   8.839
 2094POPC   D2A29452  28.445  25.206   8.404
 2094POPC   C3A29453  28.510  25.167   7.925
 2094POPC   C4A29454  28.595  25.243   7.443
 2094POPC   C1B29455  28.263  25.521   8.820
 2094POPC   C2B29456  28.348  25.732   8.460
 2094POPC   C3B29457  28.460  25.648   8.072
 2094POPC   C4B29458  28.315  25.578   7.674
 2095POPC   NC329459  23.588  18.482   9.805
 2095POPC   PO429460  23.642  19.048   9.459
 2095POPC   GL129461  23.650  19.036   9.049
 2095POPC   GL229462  23.636  19.363   8.977
 2095POPC   C1A29463  23.730  18.901   8.656
 2095POPC   D2A29464  23.662  18.691   8.310
 2095POPC   C3A29465  23.712  18.929   7.937
 2095POPC   C4A29466  23.692  18.866   7.494
 2095POPC   C1B29467  23.962  19.354   8.727
 2095POPC   C2B29468  24.016  19.314   8.319
 2095POPC   C3B29469  23.967  19.364   7.900
 2095POPC   C4B29470  23.735  19.497   7.581
 2096POPC   NC329471  43.608  33.903   9.698
 2096POPC   PO429472  44.226  33.629   9.555
 2096POPC   GL129473  44.013  33.649   9.162
 2096POPC   GL229474  43.815  33.934   9.180
 2096POPC   C1A29475  43.869  33.627   8.725
 2096POPC   D2A29476  43.973  33.806   8.325
 2096POPC   C3A29477  43.881  33.572   7.951
 2096POPC   C4A29478  43.996  33.692   7.531
 2096POPC   C1B29479  43.494  33.949   8.835
 2096POPC   C2B29480  43.445  33.771   8.394
 2096POPC   C3B29481  43.428  33.813   7.922
 2096POPC   C4B29482  43.491  33.515   7.554
 2097POPC   NC329483  42.328  31.916   9.478
 2097POPC   PO429484  42.191  32.546   9.378
 2097POPC   GL129485  42.317  32.267   9.086
 2097POPC   GL229486  42.644  32.315   8.949
 2097POPC   C1A29487  42.209  32.214   8.670
 2097POPC   D2A29488  42.022  32.472   8.363
 2097POPC   C3A29489  42.132  32.366   7.949
 2097POPC   C4A29490  42.344  32.037   7.764
 2097POPC   C1B29491  42.649  31.970   8.593
 2097POPC   C2B29492  42.750  31.950   8.140
 2097POPC   C3B29493  42.798  32.204   7.762
 2097POPC   C4B29494  42.673  32.083   7.304
 2098POPC   NC329495  18.460  32.005   9.565
 2098POPC   PO429496  17.929  31.942   9.274
 2098POPC   GL129497  18.186  32.196   9.030
 2098POPC   GL229498  18.520  32.267   9.079
 2098POPC   C1A29499  18.234  32.140   8.583
 2098POPC   D2A29500  17.862  32.181   8.321
 2098POPC   C3A29501  17.958  32.143   7.898
 2098POPC   C4A29502  18.319  31.909   7.907
 2098POPC   C1B29503  18.360  32.594   8.742
 2098POPC   C2B29504  18.200  32.593   8.320
 2098POPC   C3B29505  18.389  32.415   7.973
 2098POPC   C4B29506  18.384  32.592   7.606
 2099POPC   NC329507   8.022  15.066   9.511
 2099POPC   PO429508   8.175  15.680   9.484
 2099POPC   GL129509   8.232  15.415   9.110
 2099POPC   GL229510   8.441  15.141   9.230
 2099POPC   C1A29511   8.314  15.408   8.630
 2099POPC   D2A29512   8.550  15.441   8.247
 2099POPC   C3A29513   8.286  15.467   7.902
 2099POPC   C4A29514   7.945  15.539   7.648
 2099POPC   C1B29515   8.285  14.955   8.858
 2099POPC   C2B29516   8.236  14.778   8.444
 2099POPC   C3B29517   8.379  14.924   8.051
 2099POPC   C4B29518   8.339  15.020   7.608
 2100POPC   NC329519   1.411   3.219   9.576
 2100POPC   PO429520   1.411   3.861   9.277
 2100POPC   GL129521   1.120   3.541   9.088
 2100POPC   GL229522   0.880   3.274   9.117
 2100POPC   C1A29523   1.205   3.367   8.702
 2100POPC   D2A29524   1.153   3.650   8.389
 2100POPC   C3A29525   1.344   3.487   8.047
 2100POPC   C4A29526   1.416   3.438   7.619
 2100POPC   C1B29527   0.713   3.423   8.750
 2100POPC   C2B29528   0.806   3.291   8.356
 2100POPC   C3B29529   0.830   3.525   7.974
 2100POPC   C4B29530   0.882   3.211   7.675
 2101POPC   NC329531  12.602  23.253   9.511
 2101POPC   PO429532  12.993  23.872   9.442
 2101POPC   GL129533  12.871  23.729   9.069
 2101POPC   GL229534  12.553  23.631   9.181
 2101POPC   C1A29535  12.902  23.606   8.653
 2101POPC   D2A29536  12.792  23.911   8.430
 2101POPC   C3A29537  12.800  23.843   8.041
 2101POPC   C4A29538  12.832  23.534   7.726
 2101POPC   C1B29539  12.463  23.423   8.812
 2101POPC   C2B29540  12.439  23.556   8.372
 2101POPC   C3B29541  12.435  23.327   7.979
 2101POPC   C4B29542  12.416  23.346   7.529
 2102POPC   NC329543   1.033   6.197   9.727
 2102POPC   PO429544   1.181   6.770   9.707
 2102POPC   GL129545   1.060   6.738   9.199
 2102POPC   GL229546   0.704   6.828   9.221
 2102POPC   C1A29547   1.261   6.548   8.778
 2102POPC   D2A29548   1.465   6.598   8.345
 2102POPC   C3A29549   1.476   6.428   7.904
 2102POPC   C4A29550   1.221   6.404   7.514
 2102POPC   C1B29551   0.760   6.659   8.769
 2102POPC   C2B29552   0.950   6.623   8.360
 2102POPC   C3B29553   0.898   6.514   7.938
 2102POPC   C4B29554   0.813   6.665   7.540
 2103POPC   NC329555   6.046  18.065   9.547
 2103POPC   PO429556   5.872  17.421   9.584
 2103POPC   GL129557   6.033  17.650   9.235
 2103POPC   GL229558   5.798  17.909   9.126
 2103POPC   C1A29559   5.934  17.573   8.791
 2103POPC   D2A29560   5.786  17.664   8.390
 2103POPC   C3A29561   5.992  17.633   8.023
 2103POPC   C4A29562   5.865  17.605   7.610
 2103POPC   C1B29563   5.518  17.885   8.779
 2103POPC   C2B29564   5.328  17.860   8.345
 2103POPC   C3B29565   5.520  17.950   7.893
 2103POPC   C4B29566   5.480  17.913   7.423
 2104POPC   NC329567   4.988  43.206   9.340
 2104POPC   PO429568   5.519  42.781   9.516
 2104POPC   GL129569   5.377  42.918   9.099
 2104POPC   GL229570   5.048  42.767   9.097
 2104POPC   C1A29571   5.188  43.095   8.689
 2104POPC   D2A29572   5.272  43.355   8.302
 2104POPC   C3A29573   5.213  43.138   7.902
 2104POPC   C4A29574   5.565  42.912   7.715
 2104POPC   C1B29575   4.783  42.746   8.751
 2104POPC   C2B29576   4.746  42.896   8.337
 2104POPC   C3B29577   4.779  42.863   7.892
 2104POPC   C4B29578   4.682  43.048   7.466
 2105POPC   NC329579  37.095  21.111   9.570
 2105POPC   PO429580  37.210  21.704   9.441
 2105POPC   GL129581  36.859  21.457   9.180
 2105POPC   GL229582  36.921  21.096   9.116
 2105POPC   C1A29583  36.665  21.307   8.763
 2105POPC   D2A29584  36.985  21.197   8.460
 2105POPC   C3A29585  36.872  21.274   8.040
 2105POPC   C4A29586  36.956  21.503   7.690
 2105POPC   C1B29587  37.306  20.984   8.896
 2105POPC   C2B29588  37.500  21.060   8.489
 2105POPC   C3B29589  37.381  21.090   8.043
 2105POPC   C4B29590  37.353  21.191   7.598
 2106POPC   NC329591  29.214  38.542   9.368
 2106POPC   PO429592  28.752  38.154   9.410
 2106POPC   GL129593  28.793  38.456   9.080
 2106POPC   GL229594  29.066  38.240   8.992
 2106POPC   C1A29595  29.013  38.693   8.770
 2106POPC   D2A29596  29.140  38.414   8.483
 2106POPC   C3A29597  29.181  38.594   8.137
 2106POPC   C4A29598  29.273  38.456   7.769
 2106POPC   C1B29599  28.777  38.120   8.674
 2106POPC   C2B29600  28.698  38.129   8.241
 2106POPC   C3B29601  28.932  38.098   7.894
 2106POPC   C4B29602  28.875  38.210   7.457
 2107POPC   NC329603  21.514  23.238   9.387
 2107POPC   PO429604  21.488  23.913   9.457
 2107POPC   GL129605  21.470  23.676   9.096
 2107POPC   GL229606  21.175  23.504   9.107
 2107POPC   C1A29607  21.408  23.802   8.677
 2107POPC   D2A29608  21.617  23.913   8.285
 2107POPC   C3A29609  21.399  23.907   7.921
 2107POPC   C4A29610  21.610  23.698   7.615
 2107POPC   C1B29611  21.098  23.355   8.701
 2107POPC   C2B29612  21.150  23.539   8.313
 2107POPC   C3B29613  21.388  23.409   7.991
 2107POPC   C4B29614  21.113  23.534   7.673
 2108POPC   NC329615  35.668  10.850   9.448
 2108POPC   PO429616  35.228  10.276   9.481
 2108POPC   GL129617  35.144  10.407   9.100
 2108POPC   GL229618  35.308  10.730   9.108
 2108POPC   C1A29619  35.120  10.563   8.697
 2108POPC   D2A29620  35.325  10.669   8.362
 2108POPC   C3A29621  35.123  10.541   8.047
 2108POPC   C4A29622  35.021  10.277   7.712
 2108POPC   C1B29623  35.631  10.768   8.772
 2108POPC   C2B29624  35.813  10.815   8.322
 2108POPC   C3B29625  35.606  10.849   7.959
 2108POPC   C4B29626  35.445  10.589   7.660
 2109POPC   NC329627  42.792  40.655   9.846
 2109POPC   PO429628  43.435  40.803   9.613
 2109POPC   GL129629  43.235  40.857   9.192
 2109POPC   GL229630  42.951  41.109   9.151
 2109POPC   C1A29631  43.253  40.661   8.779
 2109POPC   D2A29632  43.443  40.781   8.403
 2109POPC   C3A29633  43.206  40.694   8.039
 2109POPC   C4A29634  42.822  40.750   7.778
 2109POPC   C1B29635  43.130  41.150   8.723
 2109POPC   C2B29636  43.019  41.135   8.253
 2109POPC   C3B29637  43.175  41.141   7.796
 2109POPC   C4B29638  43.454  41.001   7.489
 2110POPC   NC329639   4.758  32.914   9.475
 2110POPC   PO429640   4.107  32.838   9.442
 2110POPC   GL129641   4.316  33.159   9.216
 2110POPC   GL229642   4.479  32.893   9.030
 2110POPC   C1A29643   4.454  33.375   8.847
 2110POPC   D2A29644   4.346  33.392   8.428
 2110POPC   C3A29645   4.536  33.405   8.017
 2110POPC   C4A29646   4.760  33.356   7.592
 2110POPC   C1B29647   4.247  32.933   8.646
 2110POPC   C2B29648   4.427  32.933   8.207
 2110POPC   C3B29649   4.397  33.003   7.745
 2110POPC   C4B29650   4.496  32.874   7.320
 2111POPC   NC329651  11.004  21.205   9.426
 2111POPC   PO429652  10.371  21.195   9.427
 2111POPC   GL129653  10.636  21.478   9.210
 2111POPC   GL229654  10.427  21.679   9.097
 2111POPC   C1A29655  10.793  21.436   8.792
 2111POPC   D2A29656  10.602  21.414   8.415
 2111POPC   C3A29657  10.796  21.357   8.000
 2111POPC   C4A29658  10.421  21.331   7.708
 2111POPC   C1B29659  10.283  21.803   8.757
 2111POPC   C2B29660  10.214  21.786   8.378
 2111POPC   C3B29661  10.437  21.715   8.050
 2111POPC   C4B29662  10.334  21.874   7.690
 2112POPC   NC329663   3.005  38.117   9.625
 2112POPC   PO429664   2.689  37.493   9.610
 2112POPC   GL129665   2.608  37.683   9.270
 2112POPC   GL229666   2.926  37.807   9.222
 2112POPC   C1A29667   2.527  37.610   8.866
 2112POPC   D2A29668   2.653  37.786   8.496
 2112POPC   C3A29669   2.458  37.719   8.119
 2112POPC   C4A29670   2.444  37.562   7.708
 2112POPC   C1B29671   3.081  37.807   8.797
 2112POPC   C2B29672   3.248  37.572   8.441
 2112POPC   C3B29673   2.976  37.647   8.115
 2112POPC   C4B29674   2.969  37.672   7.678
 2113POPC   NC329675   5.421  31.226   9.570
 2113POPC   PO429676   4.951  31.750   9.584
 2113POPC   GL129677   5.150  31.552   9.278
 2113POPC   GL229678   4.914  31.267   9.278
 2113POPC   C1A29679   5.151  31.676   8.845
 2113POPC   D2A29680   4.932  31.750   8.462
 2113POPC   C3A29681   5.171  31.658   8.088
 2113POPC   C4A29682   5.063  31.535   7.665
 2113POPC   C1B29683   5.192  31.179   8.924
 2113POPC   C2B29684   5.169  31.281   8.472
 2113POPC   C3B29685   5.030  31.153   8.048
 2113POPC   C4B29686   4.815  31.091   7.664
 2114POPC   NC329687  36.485  20.404   9.532
 2114POPC   PO429688  35.833  20.609   9.484
 2114POPC   GL129689  36.101  20.583   9.117
 2114POPC   GL229690  36.278  20.289   9.085
 2114POPC   C1A29691  35.992  20.468   8.669
 2114POPC   D2A29692  36.131  20.632   8.278
 2114POPC   C3A29693  35.880  20.817   7.978
 2114POPC   C4A29694  35.961  21.084   7.650
 2114POPC   C1B29695  36.501  20.366   8.720
 2114POPC   C2B29696  36.627  20.508   8.337
 2114POPC   C3B29697  36.503  20.682   7.909
 2114POPC   C4B29698  36.185  20.616   7.578
 2115POPC   NC329699  21.193   6.215   9.619
 2115POPC   PO429700  21.622   6.793   9.478
 2115POPC   GL129701  21.453   6.650   9.132
 2115POPC   GL229702  21.166   6.546   9.208
 2115POPC   C1A29703  21.520   6.874   8.749
 2115POPC   D2A29704  21.394   6.720   8.359
 2115POPC   C3A29705  21.582   6.900   8.014
 2115POPC   C4A29706  21.609   6.940   7.584
 2115POPC   C1B29707  21.038   6.746   8.787
 2115POPC   C2B29708  20.881   6.711   8.365
 2115POPC   C3B29709  21.068   6.639   7.938
 2115POPC   C4B29710  21.111   6.782   7.510
 2116POPC   NC329711  35.487  18.525   9.642
 2116POPC   PO429712  34.888  18.203   9.555
 2116POPC   GL129713  35.232  18.305   9.222
 2116POPC   GL229714  35.522  18.564   9.152
 2116POPC   C1A29715  35.176  18.130   8.811
 2116POPC   D2A29716  35.394  18.125   8.428
 2116POPC   C3A29717  35.231  18.056   8.038
 2116POPC   C4A29718  35.516  18.022   7.666
 2116POPC   C1B29719  35.585  18.458   8.755
 2116POPC   C2B29720  35.456  18.629   8.357
 2116POPC   C3B29721  35.586  18.500   7.936
 2116POPC   C4B29722  35.471  18.511   7.510
 2117POPC   NC329723   7.504  28.890   9.499
 2117POPC   PO429724   7.050  28.344   9.511
 2117POPC   GL129725   7.206  28.602   9.161
 2117POPC   GL229726   7.584  28.543   9.126
 2117POPC   C1A29727   7.303  28.618   8.704
 2117POPC   D2A29728   7.732  28.593   8.474
 2117POPC   C3A29729   7.683  28.519   8.021
 2117POPC   C4A29730   7.536  28.531   7.568
 2117POPC   C1B29731   7.594  28.209   8.798
 2117POPC   C2B29732   7.431  28.177   8.335
 2117POPC   C3B29733   7.331  28.165   7.867
 2117POPC   C4B29734   7.327  28.074   7.401
 2118POPC   NC329735  19.308  12.285   9.521
 2118POPC   PO429736  19.872  11.871   9.512
 2118POPC   GL129737  19.675  12.094   9.156
 2118POPC   GL229738  19.497  12.399   9.084
 2118POPC   C1A29739  19.746  12.079   8.721
 2118POPC   D2A29740  20.067  11.981   8.453
 2118POPC   C3A29741  19.897  12.124   8.081
 2118POPC   C4A29742  20.002  12.310   7.705
 2118POPC   C1B29743  19.338  12.371   8.688
 2118POPC   C2B29744  19.539  12.456   8.314
 2118POPC   C3B29745  19.405  12.276   7.950
 2118POPC   C4B29746  19.578  12.031   7.648
 2119POPC   NC329747  11.442   4.684   9.492
 2119POPC   PO429748  11.105   5.221   9.545
 2119POPC   GL129749  11.240   5.200   9.116
 2119POPC   GL229750  11.459   4.970   9.048
 2119POPC   C1A29751  11.342   5.350   8.700
 2119POPC   D2A29752  11.248   5.161   8.282
 2119POPC   C3A29753  11.367   5.297   7.827
 2119POPC   C4A29754  11.347   5.229   7.343
 2119POPC   C1B29755  11.229   4.821   8.688
 2119POPC   C2B29756  11.122   4.649   8.290
 2119POPC   C3B29757  11.163   4.727   7.830
 2119POPC   C4B29758  10.928   4.722   7.422
 2120POPC   NC329759  31.408   0.511   9.861
 2120POPC   PO429760  31.931   0.235   9.566
 2120POPC   GL129761  31.600   0.248   9.270
 2120POPC   GL229762  31.547   0.591   9.222
 2120POPC   C1A29763  31.496   0.222   8.813
 2120POPC   D2A29764  31.223   0.312   8.431
 2120POPC   C3A29765  31.369   0.435   8.024
 2120POPC   C4A29766  31.228   0.539   7.627
 2120POPC   C1B29767  31.370   0.740   8.821
 2120POPC   C2B29768  31.492   0.793   8.376
 2120POPC   C3B29769  31.735   0.793   7.953
 2120POPC   C4B29770  31.698   0.671   7.481
 2121POPC   NC329771  21.241  43.352   9.620
 2121POPC   PO429772  21.857  43.358   9.389
 2121POPC   GL129773  21.667  43.229   9.033
 2121POPC   GL229774  21.314  43.176   9.014
 2121POPC   C1A29775  21.576  43.255   8.571
 2121POPC   D2A29776  21.336  43.173   8.243
 2121POPC   C3A29777  21.467  43.297   7.833
 2121POPC   C4A29778  21.200  43.558   7.615
 2121POPC   C1B29779  21.359  42.819   8.685
 2121POPC   C2B29780  21.209  42.659   8.305
 2121POPC   C3B29781  21.384  42.804   7.921
 2121POPC   C4B29782  21.698  42.702   7.699
 2122POPC   NC329783  41.572  20.413   9.634
 2122POPC   PO429784  41.749  19.720   9.561
 2122POPC   GL129785  41.453  19.962   9.290
 2122POPC   GL229786  41.708  19.937   9.093
 2122POPC   C1A29787  41.303  20.039   8.818
 2122POPC   D2A29788  41.472  19.819   8.443
 2122POPC   C3A29789  41.397  20.009   8.041
 2122POPC   C4A29790  41.453  19.894   7.652
 2122POPC   C1B29791  41.865  19.762   8.766
 2122POPC   C2B29792  41.995  19.879   8.387
 2122POPC   C3B29793  41.808  19.728   8.042
 2122POPC   C4B29794  41.924  19.693   7.639
 2123POPC   NC329795  39.735   0.448   9.452
 2123POPC   PO429796  40.310   0.742   9.560
 2123POPC   GL129797  40.287   0.636   9.148
 2123POPC   GL229798  40.222   0.306   9.171
 2123POPC   C1A29799  40.132   0.580   8.708
 2123POPC   D2A29800  40.188   0.697   8.281
 2123POPC   C3A29801  40.090   0.478   7.906
 2123POPC   C4A29802  39.918   0.543   7.484
 2123POPC   C1B29803  40.381   0.145   8.767
 2123POPC   C2B29804  40.337   0.228   8.328
 2123POPC   C3B29805  40.376   0.038   7.929
 2123POPC   C4B29806  40.063   0.071   7.581
 2124POPC   NC329807  24.659   5.208   9.684
 2124POPC   PO429808  24.170   4.779   9.559
 2124POPC   GL129809  24.468   4.969   9.256
 2124POPC   GL229810  24.333   5.325   9.276
 2124POPC   C1A29811  24.625   4.984   8.784
 2124POPC   D2A29812  24.533   4.849   8.336
 2124POPC   C3A29813  24.731   4.992   7.937
 2124POPC   C4A29814  24.699   4.983   7.425
 2124POPC   C1B29815  24.159   5.129   8.910
 2124POPC   C2B29816  24.146   5.181   8.483
 2124POPC   C3B29817  24.146   5.077   8.089
 2124POPC   C4B29818  24.252   5.039   7.693
 2125POPC   NC329819  31.659   2.198   9.526
 2125POPC   PO429820  31.186   1.627   9.455
 2125POPC   GL129821  31.412   1.859   9.194
 2125POPC   GL229822  31.739   1.821   9.128
 2125POPC   C1A29823  31.296   1.929   8.793
 2125POPC   D2A29824  31.165   1.887   8.379
 2125POPC   C3A29825  31.446   1.708   8.104
 2125POPC   C4A29826  31.344   1.789   7.700
 2125POPC   C1B29827  31.728   2.194   8.864
 2125POPC   C2B29828  31.528   2.263   8.474
 2125POPC   C3B29829  31.627   2.190   8.062
 2125POPC   C4B29830  31.866   2.453   7.847
 2126POPC   NC329831  29.586  16.310   9.271
 2126POPC   PO429832  29.716  16.894   9.228
 2126POPC   GL129833  30.029  16.906   8.942
 2126POPC   GL229834  30.200  16.617   9.135
 2126POPC   C1A29835  29.855  16.837   8.539
 2126POPC   D2A29836  29.688  16.519   8.302
 2126POPC   C3A29837  29.906  16.632   7.961
 2126POPC   C4A29838  29.795  16.973   7.736
 2126POPC   C1B29839  30.304  16.574   8.703
 2126POPC   C2B29840  30.357  16.913   8.411
 2126POPC   C3B29841  30.282  17.004   7.977
 2126POPC   C4B29842  30.291  16.711   7.631
 2127POPC   NC329843   0.929  18.792   9.459
 2127POPC   PO429844   1.387  19.305   9.547
 2127POPC   GL129845   1.173  19.167   9.192
 2127POPC   GL229846   1.211  18.825   9.055
 2127POPC   C1A29847   1.318  19.215   8.768
 2127POPC   D2A29848   1.305  18.905   8.507
 2127POPC   C3A29849   1.208  18.989   8.087
 2127POPC   C4A29850   1.303  19.363   7.879
 2127POPC   C1B29851   0.878  19.000   8.806
 2127POPC   C2B29852   0.823  19.158   8.412
 2127POPC   C3B29853   0.703  19.092   7.992
 2127POPC   C4B29854   0.922  19.150   7.607
 2128POPC   NC329855  30.117  34.829   9.359
 2128POPC   PO429856  30.707  34.616   9.536
 2128POPC   GL129857  30.654  34.467   9.135
 2128POPC   GL229858  30.298  34.406   9.133
 2128POPC   C1A29859  30.855  34.375   8.705
 2128POPC   D2A29860  31.082  34.571   8.328
 2128POPC   C3A29861  30.892  34.561   7.915
 2128POPC   C4A29862  30.786  34.244   7.579
 2128POPC   C1B29863  30.398  34.662   8.753
 2128POPC   C2B29864  30.545  34.610   8.357
 2128POPC   C3B29865  30.404  34.687   7.980
 2128POPC   C4B29866  30.277  34.942   7.673
 2129POPC   NC329867  14.723  24.860   9.745
 2129POPC   PO429868  15.198  25.269   9.329
 2129POPC   GL129869  15.193  25.124   8.944
 2129POPC   GL229870  14.883  25.329   8.859
 2129POPC   C1A29871  15.193  25.156   8.513
 2129POPC   D2A29872  14.913  25.157   8.209
 2129POPC   C3A29873  15.162  24.947   7.963
 2129POPC   C4A29874  15.425  25.052   7.652
 2129POPC   C1B29875  15.276  25.597   8.777
 2129POPC   C2B29876  15.481  25.582   8.400
 2129POPC   C3B29877  15.352  25.441   8.015
 2129POPC   C4B29878  15.011  25.376   7.747
 2130POPC   NC329879   5.282   1.519  10.007
 2130POPC   PO429880   4.938   1.138   9.663
 2130POPC   GL129881   4.936   1.084   9.189
 2130POPC   GL229882   4.737   1.368   9.071
 2130POPC   C1A29883   5.256   1.000   8.816
 2130POPC   D2A29884   5.312   1.186   8.402
 2130POPC   C3A29885   5.219   1.005   8.003
 2130POPC   C4A29886   5.465   1.115   7.637
 2130POPC   C1B29887   4.857   1.250   8.647
 2130POPC   C2B29888   4.846   1.308   8.196
 2130POPC   C3B29889   4.706   1.284   7.748
 2130POPC   C4B29890   4.713   1.602   7.407
 2131POPC   NC329891  13.701  33.156   9.447
 2131POPC   PO429892  13.856  32.572   9.183
 2131POPC   GL129893  13.710  32.920   8.958
 2131POPC   GL229894  13.462  33.218   9.012
 2131POPC   C1A29895  13.423  32.832   8.608
 2131POPC   D2A29896  13.339  32.747   8.185
 2131POPC   C3A29897  13.681  32.816   7.907
 2131POPC   C4A29898  13.834  33.225   7.729
 2131POPC   C1B29899  13.656  33.311   8.628
 2131POPC   C2B29900  13.408  33.263   8.272
 2131POPC   C3B29901  13.279  33.159   7.880
 2131POPC   C4B29902  13.346  33.346   7.516
 2132POPC   NC329903  40.940   3.546   9.378
 2132POPC   PO429904  40.297   3.881   9.441
 2132POPC   GL129905  40.570   3.729   9.085
 2132POPC   GL229906  40.639   3.336   9.021
 2132POPC   C1A29907  40.793   3.676   8.680
 2132POPC   D2A29908  40.727   3.446   8.301
 2132POPC   C3A29909  40.491   3.617   7.939
 2132POPC   C4A29910  40.521   3.969   7.617
 2132POPC   C1B29911  41.072   3.249   8.822
 2132POPC   C2B29912  41.227   3.257   8.407
 2132POPC   C3B29913  41.112   3.330   7.994
 2132POPC   C4B29914  40.968   3.688   7.750
 2133POPC   NC329915  11.156  30.343   9.425
 2133POPC   PO429916  11.340  30.947   9.674
 2133POPC   GL129917  11.282  30.816   9.245
 2133POPC   GL229918  10.968  30.741   9.126
 2133POPC   C1A29919  11.352  30.871   8.815
 2133POPC   D2A29920  11.171  30.969   8.434
 2133POPC   C3A29921  11.232  30.719   8.076
 2133POPC   C4A29922  11.435  30.635   7.672
 2133POPC   C1B29923  10.942  30.553   8.686
 2133POPC   C2B29924  10.839  30.295   8.297
 2133POPC   C3B29925  10.915  30.372   7.846
 2133POPC   C4B29926  10.934  30.753   7.564
 2134POPC   NC329927   3.815  30.526   9.571
 2134POPC   PO429928   3.295  30.928   9.460
 2134POPC   GL129929   3.537  30.753   9.137
 2134POPC   GL229930   3.857  30.798   9.107
 2134POPC   C1A29931   3.472  30.629   8.737
 2134POPC   D2A29932   3.305  30.907   8.431
 2134POPC   C3A29933   3.406  30.834   7.991
 2134POPC   C4A29934   3.424  31.089   7.636
 2134POPC   C1B29935   3.977  30.708   8.717
 2134POPC   C2B29936   3.800  30.744   8.323
 2134POPC   C3B29937   3.936  30.763   7.893
 2134POPC   C4B29938   3.917  30.612   7.486
 2135POPC   NC329939  13.911  40.074   9.523
 2135POPC   PO429940  13.300  40.102   9.209
 2135POPC   GL129941  13.664  39.998   9.064
 2135POPC   GL229942  13.839  40.272   9.026
 2135POPC   C1A29943  13.712  39.945   8.638
 2135POPC   D2A29944  13.784  39.705   8.310
 2135POPC   C3A29945  13.488  39.782   8.028
 2135POPC   C4A29946  13.605  39.902   7.639
 2135POPC   C1B29947  14.073  40.319   8.655
 2135POPC   C2B29948  14.019  40.156   8.238
 2135POPC   C3B29949  13.902  40.284   7.812
 2135POPC   C4B29950  13.889  40.398   7.352
 2136POPC   NC329951  15.359  15.193   9.672
 2136POPC   PO429952  14.804  15.155   9.376
 2136POPC   GL129953  15.215  15.030   9.196
 2136POPC   GL229954  15.183  14.719   9.096
 2136POPC   C1A29955  15.577  15.005   8.882
 2136POPC   D2A29956  15.722  15.054   8.422
 2136POPC   C3A29957  15.430  15.145   8.062
 2136POPC   C4A29958  15.042  15.319   7.887
 2136POPC   C1B29959  15.146  14.826   8.654
 2136POPC   C2B29960  14.984  14.856   8.236
 2136POPC   C3B29961  15.122  14.784   7.832
 2136POPC   C4B29962  14.965  14.989   7.485
 2137POPC   NC329963  19.803  32.071   9.507
 2137POPC   PO429964  19.592  32.720   9.411
 2137POPC   GL129965  19.778  32.393   9.128
 2137POPC   GL229966  20.123  32.333   9.231
 2137POPC   C1A29967  19.692  32.066   8.794
 2137POPC   D2A29968  19.470  31.955   8.411
 2137POPC   C3A29969  19.718  32.142   8.070
 2137POPC   C4A29970  19.728  32.500   7.789
 2137POPC   C1B29971  20.189  32.240   8.817
 2137POPC   C2B29972  20.088  32.243   8.388
 2137POPC   C3B29973  20.185  32.342   7.927
 2137POPC   C4B29974  20.067  32.209   7.477
 2138POPC   NC329975  35.698  23.388   9.462
 2138POPC   PO429976  36.252  23.938   9.566
 2138POPC   GL129977  36.155  23.894   9.154
 2138POPC   GL229978  35.953  23.629   9.083
 2138POPC   C1A29979  36.414  23.798   8.765
 2138POPC   D2A29980  36.512  24.035   8.398
 2138POPC   C3A29981  36.401  23.787   8.052
 2138POPC   C4A29982  36.211  23.811   7.629
 2138POPC   C1B29983  35.748  23.725   8.696
 2138POPC   C2B29984  35.663  23.929   8.282
 2138POPC   C3B29985  35.739  23.798   7.834
 2138POPC   C4B29986  35.839  23.544   7.425
 2139POPC   NC329987  31.079   9.159   9.493
 2139POPC   PO429988  30.457   9.012   9.501
 2139POPC   GL129989  30.701   8.833   9.166
 2139POPC   GL229990  30.849   9.117   9.008
 2139POPC   C1A29991  30.588   8.732   8.729
 2139POPC   D2A29992  30.447   8.808   8.276
 2139POPC   C3A29993  30.565   8.954   7.821
 2139POPC   C4A29994  30.648   8.677   7.440
 2139POPC   C1B29995  30.797   9.158   8.558
 2139POPC   C2B29996  30.952   8.951   8.221
 2139POPC   C3B29997  31.056   8.928   7.808
 2139POPC   C4B29998  30.988   9.052   7.373
 2140POPC   NC329999  36.350  44.597   9.646
 2140POPC   PO430000  35.727  44.591   9.486
 2140POPC   GL130001  36.022  44.506   9.176
 2140POPC   GL230002  36.357  44.614   9.145
 2140POPC   C1A30003  36.105  44.406   8.750
 2140POPC   D2A30004  36.147  44.334   8.337
 2140POPC   C3A30005  35.830  44.253   8.075
 2140POPC   C4A30006  36.028  44.414   7.721
 2140POPC   C1B30007  36.206  44.902   8.820
 2140POPC   C2B30008  36.017  44.846   8.379
 2140POPC   C3B30009  36.040  44.937   7.923
 2140POPC   C4B30010  36.277  44.993   7.541
 2141POPC   NC330011   2.411   0.158   9.455
 2141POPC   PO430012   2.043  44.533   9.504
 2141POPC   GL130013   2.174  44.543   9.077
 2141POPC   GL230014   2.232  44.915   9.034
 2141POPC   C1A30015   2.167  44.580   8.621
 2141POPC   D2A30016   2.180  44.714   8.192
 2141POPC   C3A30017   1.869  44.460   8.010
 2141POPC   C4A30018   1.836  44.223   7.666
 2141POPC   C1B30019   1.802  44.832   8.870
 2141POPC   C2B30020   1.713  44.818   8.433
 2141POPC   C3B30021   1.747  44.949   8.013
 2141POPC   C4B30022   1.585  44.726   7.638
 2142POPC   NC330023  26.525  24.926   9.428
 2142POPC   PO430024  27.141  24.547   9.336
 2142POPC   GL130025  26.918  24.471   9.019
 2142POPC   GL230026  26.778  24.782   9.021
 2142POPC   C1A30027  27.006  24.412   8.622
 2142POPC   D2A30028  27.144  24.530   8.228
 2142POPC   C3A30029  26.833  24.385   7.920
 2142POPC   C4A30030  26.419  24.394   7.707
 2142POPC   C1B30031  26.941  24.964   8.658
 2142POPC   C2B30032  26.858  25.102   8.228
 2142POPC   C3B30033  27.013  24.865   7.852
 2142POPC   C4B30034  26.754  24.752   7.488
 2143POPC   NC330035   4.789  20.737   9.458
 2143POPC   PO430036   5.125  20.129   9.505
 2143POPC   GL130037   5.110  20.409   9.158
 2143POPC   GL230038   4.765  20.364   9.104
 2143POPC   C1A30039   5.145  20.704   8.793
 2143POPC   D2A30040   5.280  20.901   8.391
 2143POPC   C3A30041   5.375  20.571   8.108
 2143POPC   C4A30042   5.265  20.529   7.714
 2143POPC   C1B30043   4.748  20.339   8.671
 2143POPC   C2B30044   4.891  20.568   8.339
 2143POPC   C3B30045   4.816  20.630   7.938
 2143POPC   C4B30046   4.786  20.342   7.650
 2144POPC   NC330047  34.955  25.312   9.581
 2144POPC   PO430048  34.358  24.936   9.511
 2144POPC   GL130049  34.557  25.019   9.102
 2144POPC   GL230050  34.735  25.338   9.107
 2144POPC   C1A30051  34.779  25.093   8.675
 2144POPC   D2A30052  34.831  25.376   8.354
 2144POPC   C3A30053  34.683  25.307   7.959
 2144POPC   C4A30054  34.341  25.294   7.731
 2144POPC   C1B30055  34.508  25.520   8.733
 2144POPC   C2B30056  34.086  25.573   8.545
 2144POPC   C3B30057  34.038  25.560   8.101
 2144POPC   C4B30058  33.942  25.590   7.657
 2145POPC   NC330059  28.877  37.627   9.590
 2145POPC   PO430060  29.313  38.104   9.463
 2145POPC   GL130061  29.361  37.824   9.101
 2145POPC   GL230062  29.093  37.577   9.102
 2145POPC   C1A30063  29.286  37.946   8.655
 2145POPC   D2A30064  29.505  38.090   8.276
 2145POPC   C3A30065  29.475  37.770   7.956
 2145POPC   C4A30066  29.296  37.917   7.572
 2145POPC   C1B30067  28.880  37.604   8.678
 2145POPC   C2B30068  28.992  37.721   8.284
 2145POPC   C3B30069  28.728  37.621   7.962
 2145POPC   C4B30070  28.820  37.725   7.557
 2146POPC   NC330071  16.163  28.109   9.637
 2146POPC   PO430072  15.887  28.638   9.468
 2146POPC   GL130073  15.876  28.261   9.224
 2146POPC   GL230074  16.192  28.186   9.072
 2146POPC   C1A30075  15.762  28.155   8.804
 2146POPC   D2A30076  15.626  28.348   8.422
 2146POPC   C3A30077  15.897  28.209   8.131
 2146POPC   C4A30078  15.937  28.200   7.699
 2146POPC   C1B30079  16.049  28.587   8.806
 2146POPC   C2B30080  15.993  28.752   8.346
 2146POPC   C3B30081  16.142  28.638   7.906
 2146POPC   C4B30082  16.420  28.406   7.612
 2147POPC   NC330083  34.172  33.849   9.326
 2147POPC   PO430084  33.748  33.356   9.548
 2147POPC   GL130085  33.671  33.706   9.208
 2147POPC   GL230086  33.730  34.104   9.215
 2147POPC   C1A30087  33.585  33.889   8.778
 2147POPC   D2A30088  33.418  33.987   8.375
 2147POPC   C3A30089  33.684  33.906   7.997
 2147POPC   C4A30090  33.784  33.843   7.548
 2147POPC   C1B30091  33.994  34.199   8.822
 2147POPC   C2B30092  33.942  34.068   8.421
 2147POPC   C3B30093  33.994  34.323   8.068
 2147POPC   C4B30094  33.807  34.346   7.688
 2148POPC   NC330095  19.231  21.660   9.470
 2148POPC   PO430096  18.822  21.145   9.625
 2148POPC   GL130097  18.982  21.302   9.221
 2148POPC   GL230098  18.800  21.632   9.098
 2148POPC   C1A30099  19.167  21.293   8.818
 2148POPC   D2A30100  18.958  21.429   8.445
 2148POPC   C3A30101  19.126  21.210   8.124
 2148POPC   C4A30102  19.013  21.180   7.682
 2148POPC   C1B30103  19.106  21.811   8.780
 2148POPC   C2B30104  19.336  21.758   8.354
 2148POPC   C3B30105  19.158  21.651   7.905
 2148POPC   C4B30106  19.235  21.550   7.406
 2149POPC   NC330107  34.354  37.773   9.538
 2149POPC   PO430108  35.014  37.707   9.297
 2149POPC   GL130109  34.626  37.694   9.112
 2149POPC   GL230110  34.409  37.391   9.167
 2149POPC   C1A30111  34.447  37.624   8.711
 2149POPC   D2A30112  34.475  37.556   8.293
 2149POPC   C3A30113  34.534  37.917   8.030
 2149POPC   C4A30114  34.421  37.805   7.613
 2149POPC   C1B30115  34.744  37.239   8.892
 2149POPC   C2B30116  34.934  37.432   8.535
 2149POPC   C3B30117  34.927  37.437   8.093
 2149POPC   C4B30118  34.884  37.671   7.741
 2150POPC   NC330119  32.758  31.571   9.407
 2150POPC   PO430120  33.412  31.704   9.513
 2150POPC   GL130121  33.176  31.608   9.125
 2150POPC   GL230122  33.200  31.232   9.068
 2150POPC   C1A30123  32.946  31.474   8.715
 2150POPC   D2A30124  33.100  31.253   8.332
 2150POPC   C3A30125  32.899  31.410   7.934
 2150POPC   C4A30126  32.847  31.837   7.745
 2150POPC   C1B30127  33.513  31.012   8.780
 2150POPC   C2B30128  33.600  31.068   8.316
 2150POPC   C3B30129  33.363  31.180   7.886
 2150POPC   C4B30130  33.207  31.197   7.415
 2151POPC   NC330131   7.980  37.950   9.576
 2151POPC   PO430132   8.163  38.673   9.593
 2151POPC   GL130133   8.241  38.446   9.198
 2151POPC   GL230134   8.017  38.216   9.156
 2151POPC   C1A30135   8.435  38.575   8.789
 2151POPC   D2A30136   8.503  38.769   8.410
 2151POPC   C3A30137   8.405  38.608   8.050
 2151POPC   C4A30138   8.347  38.488   7.663
 2151POPC   C1B30139   8.126  38.176   8.752
 2151POPC   C2B30140   8.074  38.459   8.410
 2151POPC   C3B30141   7.995  38.317   7.993
 2151POPC   C4B30142   8.170  38.027   7.794
 2152POPC   NC330143  34.594  19.672   9.582
 2152POPC   PO430144  34.348  20.232   9.750
 2152POPC   GL130145  34.357  20.140   9.277
 2152POPC   GL230146  34.715  20.000   9.164
 2152POPC   C1A30147  34.341  20.030   8.811
 2152POPC   D2A30148  34.386  19.733   8.432
 2152POPC   C3A30149  34.434  19.914   8.000
 2152POPC   C4A30150  34.604  20.233   7.711
 2152POPC   C1B30151  34.685  19.628   8.882
 2152POPC   C2B30152  34.773  19.386   8.490
 2152POPC   C3B30153  34.837  19.521   8.101
 2152POPC   C4B30154  34.826  19.687   7.711
 2153POPC   NC330155   0.604  44.867   9.521
 2153POPC   PO430156   0.167  44.474   9.425
 2153POPC   GL130157   0.333  44.736   9.106
 2153POPC   GL230158   0.683  44.677   9.061
 2153POPC   C1A30159   0.356  44.608   8.675
 2153POPC   D2A30160   0.152  44.385   8.351
 2153POPC   C3A30161   0.399  44.446   7.998
 2153POPC   C4A30162   0.300  44.600   7.575
 2153POPC   C1B30163   0.844  44.831   8.727
 2153POPC   C2B30164   0.730  44.733   8.311
 2153POPC   C3B30165   0.642  44.863   7.880
 2153POPC   C4B30166   0.715  44.833   7.414
 2154POPC   NC330167  32.117  20.425   9.514
 2154POPC   PO430168  32.644  20.832   9.614
 2154POPC   GL130169  32.593  20.665   9.219
 2154POPC   GL230170  32.764  20.993   9.139
 2154POPC   C1A30171  32.318  20.536   8.843
 2154POPC   D2A30172  32.124  20.682   8.419
 2154POPC   C3A30173  32.098  20.437   8.006
 2154POPC   C4A30174  31.898  20.383   7.537
 2154POPC   C1B30175  32.797  20.796   8.763
 2154POPC   C2B30176  32.657  20.842   8.359
 2154POPC   C3B30177  32.567  20.841   7.926
 2154POPC   C4B30178  32.260  20.733   7.635
 2155POPC   NC330179  34.856  41.701   9.424
 2155POPC   PO430180  34.249  41.549   9.494
 2155POPC   GL130181  34.387  41.671   9.096
 2155POPC   GL230182  34.061  41.897   9.131
 2155POPC   C1A30183  34.702  41.472   8.774
 2155POPC   D2A30184  34.816  41.388   8.305
 2155POPC   C3A30185  34.728  41.736   7.978
 2155POPC   C4A30186  34.931  41.782   7.568
 2155POPC   C1B30187  34.150  41.916   8.688
 2155POPC   C2B30188  34.408  41.672   8.416
 2155POPC   C3B30189  34.334  41.399   8.071
 2155POPC   C4B30190  34.366  41.534   7.660
 2156POPC   NC330191   0.866  39.037   9.640
 2156POPC   PO430192   1.143  38.493   9.604
 2156POPC   GL130193   1.249  38.482   9.134
 2156POPC   GL230194   1.587  38.309   9.050
 2156POPC   C1A30195   1.199  38.366   8.705
 2156POPC   D2A30196   1.255  38.129   8.330
 2156POPC   C3A30197   0.919  38.196   8.035
 2156POPC   C4A30198   0.700  38.474   7.728
 2156POPC   C1B30199   1.702  38.330   8.614
 2156POPC   C2B30200   1.472  38.574   8.280
 2156POPC   C3B30201   1.385  38.392   7.890
 2156POPC   C4B30202   1.754  38.107   7.793
 2157POPC   NC330203  18.705  33.777   9.463
 2157POPC   PO430204  18.098  33.548   9.555
 2157POPC   GL130205  18.315  33.459   9.181
 2157POPC   GL230206  18.341  33.822   9.114
 2157POPC   C1A30207  18.422  33.491   8.732
 2157POPC   D2A30208  18.324  33.843   8.459
 2157POPC   C3A30209  18.342  33.798   8.020
 2157POPC   C4A30210  18.185  33.540   7.695
 2157POPC   C1B30211  18.071  34.056   8.860
 2157POPC   C2B30212  17.955  34.261   8.500
 2157POPC   C3B30213  18.026  34.195   8.091
 2157POPC   C4B30214  17.930  33.986   7.723
 2158POPC   NC330215   5.622  35.776   9.625
 2158POPC   PO430216   6.104  36.130   9.433
 2158POPC   GL130217   5.960  36.226   8.982
 2158POPC   GL230218   6.148  35.963   8.830
 2158POPC   C1A30219   5.646  36.224   8.643
 2158POPC   D2A30220   5.380  36.099   8.270
 2158POPC   C3A30221   5.557  36.266   7.857
 2158POPC   C4A30222   5.751  36.124   7.438
 2158POPC   C1B30223   6.114  35.916   8.456
 2158POPC   C2B30224   5.896  36.102   8.183
 2158POPC   C3B30225   6.071  36.283   7.831
 2158POPC   C4B30226   6.318  36.000   7.648
 2159POPC   NC330227  23.270  18.788   9.346
 2159POPC   PO430228  22.643  19.049   9.490
 2159POPC   GL130229  22.839  19.000   9.070
 2159POPC   GL230230  23.157  19.203   9.070
 2159POPC   C1A30231  22.869  19.245   8.666
 2159POPC   D2A30232  23.097  19.180   8.285
 2159POPC   C3A30233  22.923  19.187   7.929
 2159POPC   C4A30234  22.670  19.371   7.649
 2159POPC   C1B30235  23.236  18.901   8.697
 2159POPC   C2B30236  23.154  18.691   8.264
 2159POPC   C3B30237  23.258  18.705   7.807
 2159POPC   C4B30238  23.225  18.748   7.332
 2160POPC   NC330239  43.090  44.122   9.521
 2160POPC   PO430240  43.384  43.597   9.773
 2160POPC   GL130241  43.131  43.636   9.299
 2160POPC   GL230242  43.104  43.958   9.045
 2160POPC   C1A30243  43.082  43.533   8.802
 2160POPC   D2A30244  43.226  43.827   8.448
 2160POPC   C3A30245  43.056  43.796   8.030
 2160POPC   C4A30246  43.218  43.789   7.607
 2160POPC   C1B30247  42.972  44.214   8.652
 2160POPC   C2B30248  42.947  44.255   8.227
 2160POPC   C3B30249  42.900  44.240   7.813
 2160POPC   C4B30250  42.976  44.219   7.388
 2161POPC   NC330251  23.223  15.854   9.522
 2161POPC   PO430252  22.604  16.081   9.555
 2161POPC   GL130253  22.887  16.025   9.153
 2161POPC   GL230254  23.073  15.696   9.068
 2161POPC   C1A30255  22.961  15.978   8.676
 2161POPC   D2A30256  23.139  16.113   8.298
 2161POPC   C3A30257  22.843  16.096   7.992
 2161POPC   C4A30258  22.684  15.827   7.694
 2161POPC   C1B30259  23.369  15.652   8.726
 2161POPC   C2B30260  23.268  15.517   8.334
 2161POPC   C3B30261  23.226  15.720   7.982
 2161POPC   C4B30262  23.516  15.657   7.698
 2162POPC   NC330263  13.124  24.313   9.367
 2162POPC   PO430264  12.517  24.680   9.405
 2162POPC   GL130265  12.764  24.589   9.076
 2162POPC   GL230266  13.095  24.737   9.055
 2162POPC   C1A30267  12.881  24.281   8.769
 2162POPC   D2A30268  13.091  24.303   8.365
 2162POPC   C3A30269  12.749  24.361   8.157
 2162POPC   C4A30270  12.631  24.357   7.771
 2162POPC   C1B30271  12.922  24.769   8.629
 2162POPC   C2B30272  12.677  24.874   8.254
 2162POPC   C3B30273  12.893  24.783   7.865
 2162POPC   C4B30274  13.192  24.408   7.829
 2163POPC   NC330275  42.458  16.701   9.817
 2163POPC   PO430276  43.089  16.635   9.603
 2163POPC   GL130277  43.042  16.764   9.210
 2163POPC   GL230278  42.874  16.515   9.105
 2163POPC   C1A30279  43.104  16.823   8.778
 2163POPC   D2A30280  42.854  16.790   8.405
 2163POPC   C3A30281  43.101  16.497   8.177
 2163POPC   C4A30282  43.310  16.839   8.003
 2163POPC   C1B30283  42.678  16.464   8.756
 2163POPC   C2B30284  42.599  16.357   8.343
 2163POPC   C3B30285  42.675  16.441   7.922
 2163POPC   C4B30286  43.078  16.570   7.639
 2164POPC   NC330287  18.617  10.468   9.341
 2164POPC   PO430288  19.237  10.248   9.363
 2164POPC   GL130289  19.034  10.460   9.033
 2164POPC   GL230290  19.032  10.823   9.096
 2164POPC   C1A30291  19.084  10.471   8.594
 2164POPC   D2A30292  19.226  10.152   8.305
 2164POPC   C3A30293  19.192  10.295   7.876
 2164POPC   C4A30294  19.011  10.668   7.609
 2164POPC   C1B30295  19.442  10.761   8.853
 2164POPC   C2B30296  19.570  10.579   8.446
 2164POPC   C3B30297  19.400  10.725   8.049
 2164POPC   C4B30298  19.520  10.606   7.622
 2165POPC   NC330299  39.359  42.650   9.486
 2165POPC   PO430300  39.118  42.049   9.543
 2165POPC   GL130301  39.381  42.139   9.189
 2165POPC   GL230302  39.160  42.399   9.085
 2165POPC   C1A30303  39.554  42.082   8.780
 2165POPC   D2A30304  39.184  42.214   8.563
 2165POPC   C3A30305  39.202  42.242   8.131
 2165POPC   C4A30306  39.028  42.161   7.732
 2165POPC   C1B30307  39.479  42.570   8.816
 2165POPC   C2B30308  39.644  42.454   8.387
 2165POPC   C3B30309  39.556  42.628   7.967
 2165POPC   C4B30310  39.320  42.598   7.588
 2166POPC   NC330311  14.547  28.961   9.365
 2166POPC   PO430312  14.627  29.633   9.458
 2166POPC   GL130313  14.744  29.409   9.082
 2166POPC   GL230314  14.874  29.068   9.002
 2166POPC   C1A30315  14.459  29.277   8.755
 2166POPC   D2A30316  14.057  29.190   8.567
 2166POPC   C3A30317  14.099  29.274   8.141
 2166POPC   C4A30318  14.422  29.152   7.838
 2166POPC   C1B30319  14.569  28.781   8.733
 2166POPC   C2B30320  14.482  28.938   8.329
 2166POPC   C3B30321  14.815  28.910   8.020
 2166POPC   C4B30322  14.682  28.760   7.633
 2167POPC   NC330323  43.071  26.842   9.522
 2167POPC   PO430324  43.389  26.311   9.505
 2167POPC   GL130325  43.412  26.659   9.169
 2167POPC   GL230326  43.043  26.697   9.034
 2167POPC   C1A30327  43.458  26.858   8.737
 2167POPC   D2A30328  43.354  26.540   8.407
 2167POPC   C3A30329  43.102  26.682   8.047
 2167POPC   C4A30330  43.207  26.779   7.627
 2167POPC   C1B30331  42.957  26.849   8.616
 2167POPC   C2B30332  43.058  27.169   8.293
 2167POPC   C3B30333  42.946  27.182   7.853
 2167POPC   C4B30334  42.691  26.840   7.663
 2168POPC   NC330335  25.708  17.469   9.613
 2168POPC   PO430336  26.364  17.689   9.458
 2168POPC   GL130337  26.213  17.506   9.111
 2168POPC   GL230338  25.880  17.582   9.102
 2168POPC   C1A30339  26.214  17.678   8.703
 2168POPC   D2A30340  26.091  17.838   8.295
 2168POPC   C3A30341  26.322  17.547   8.035
 2168POPC   C4A30342  26.211  17.387   7.651
 2168POPC   C1B30343  25.813  17.322   8.766
 2168POPC   C2B30344  26.009  17.342   8.385
 2168POPC   C3B30345  25.839  17.422   7.989
 2168POPC   C4B30346  25.772  17.124   7.646
 2169POPC   NC330347  37.922  43.977   9.611
 2169POPC   PO430348  37.263  43.727   9.763
 2169POPC   GL130349  37.481  43.862   9.335
 2169POPC   GL230350  37.827  43.700   9.205
 2169POPC   C1A30351  37.453  43.952   8.872
 2169POPC   D2A30352  37.677  43.952   8.447
 2169POPC   C3A30353  37.486  43.964   8.008
 2169POPC   C4A30354  37.632  43.838   7.580
 2169POPC   C1B30355  38.077  43.699   8.836
 2169POPC   C2B30356  38.066  43.587   8.408
 2169POPC   C3B30357  37.892  43.627   8.020
 2169POPC   C4B30358  38.098  43.654   7.632
 2170POPC   NC330359  43.272  14.628   9.497
 2170POPC   PO430360  42.978  14.004   9.581
 2170POPC   GL130361  43.102  14.131   9.181
 2170POPC   GL230362  42.986  14.446   9.112
 2170POPC   C1A30363  43.104  14.067   8.745
 2170POPC   D2A30364  43.206  14.266   8.345
 2170POPC   C3A30365  42.928  14.204   7.974
 2170POPC   C4A30366  43.094  14.324   7.565
 2170POPC   C1B30367  43.156  14.604   8.747
 2170POPC   C2B30368  42.986  14.748   8.364
 2170POPC   C3B30369  42.985  14.714   7.934
 2170POPC   C4B30370  42.660  14.544   7.709
 2171POPC   NC330371  35.375  22.703   9.343
 2171POPC   PO430372  35.269  23.252   9.617
 2171POPC   GL130373  35.314  23.168   9.145
 2171POPC   GL230374  35.641  23.236   8.970
 2171POPC   C1A30375  35.141  22.988   8.742
 2171POPC   D2A30376  35.237  22.660   8.457
 2171POPC   C3A30377  35.233  22.808   8.044
 2171POPC   C4A30378  35.587  22.752   7.756
 2171POPC   C1B30379  35.666  22.913   8.652
 2171POPC   C2B30380  35.719  22.958   8.202
 2171POPC   C3B30381  35.684  23.256   7.844
 2171POPC   C4B30382  35.553  23.132   7.399
 2172POPC   NC330383  35.522  39.671   9.490
 2172POPC   PO430384  35.084  40.250   9.487
 2172POPC   GL130385  35.378  40.083   9.169
 2172POPC   GL230386  35.205  39.760   9.108
 2172POPC   C1A30387  35.569  40.265   8.776
 2172POPC   D2A30388  35.581  40.122   8.359
 2172POPC   C3A30389  35.465  40.325   7.983
 2172POPC   C4A30390  35.499  40.170   7.590
 2172POPC   C1B30391  35.502  39.725   8.783
 2172POPC   C2B30392  35.362  39.639   8.373
 2172POPC   C3B30393  35.398  39.781   7.941
 2172POPC   C4B30394  35.568  39.668   7.538
 2173POPC   NC330395  24.742   3.046   9.492
 2173POPC   PO430396  24.328   2.453   9.565
 2173POPC   GL130397  24.378   2.768   9.225
 2173POPC   GL230398  24.687   2.615   9.148
 2173POPC   C1A30399  24.577   3.024   8.860
 2173POPC   D2A30400  24.423   3.064   8.406
 2173POPC   C3A30401  24.193   2.673   8.152
 2173POPC   C4A30402  24.230   2.386   7.757
 2173POPC   C1B30403  24.434   2.574   8.725
 2173POPC   C2B30404  24.651   2.623   8.330
 2173POPC   C3B30405  24.658   2.804   7.887
 2173POPC   C4B30406  24.971   2.874   7.544
 2174POPC   NC330407   6.319  33.338   9.498
 2174POPC   PO430408   6.939  32.926   9.540
 2174POPC   GL130409   6.688  33.102   9.225
 2174POPC   GL230410   6.352  32.896   9.226
 2174POPC   C1A30411   6.684  32.919   8.841
 2174POPC   D2A30412   6.536  32.974   8.465
 2174POPC   C3A30413   6.794  32.875   8.134
 2174POPC   C4A30414   6.636  32.923   7.739
 2174POPC   C1B30415   6.246  32.636   8.853
 2174POPC   C2B30416   6.054  32.768   8.462
 2174POPC   C3B30417   6.186  32.867   8.067
 2174POPC   C4B30418   6.202  32.581   7.764
 2175POPC   NC330419   0.177   3.806   9.477
 2175POPC   PO430420   0.827   3.548   9.516
 2175POPC   GL130421   0.522   3.614   9.181
 2175POPC   GL230422   0.332   3.333   9.293
 2175POPC   C1A30423   0.347   3.779   8.775
 2175POPC   D2A30424   0.582   3.805   8.365
 2175POPC   C3A30425   0.342   3.751   7.982
 2175POPC   C4A30426   0.520   3.757   7.565
 2175POPC   C1B30427   0.242   3.255   8.857
 2175POPC   C2B30428   0.302   3.370   8.426
 2175POPC   C3B30429   0.449   3.185   8.006
 2175POPC   C4B30430   0.351   3.273   7.573
 2176POPC   NC330431  34.006  12.724   9.403
 2176POPC   PO430432  34.709  12.813   9.449
 2176POPC   GL130433  34.607  12.839   9.053
 2176POPC   GL230434  34.621  12.507   9.026
 2176POPC   C1A30435  34.758  12.828   8.638
 2176POPC   D2A30436  34.605  13.000   8.267
 2176POPC   C3A30437  34.849  12.939   7.919
 2176POPC   C4A30438  34.497  12.748   7.725
 2176POPC   C1B30439  34.345  12.493   8.701
 2176POPC   C2B30440  34.562  12.453   8.309
 2176POPC   C3B30441  34.826  12.429   7.958
 2176POPC   C4B30442  34.977  12.560   7.568
 2177POPC   NC330443   0.452  13.502   9.725
 2177POPC   PO430444   0.376  14.050   9.421
 2177POPC   GL130445   0.308  13.716   9.147
 2177POPC   GL230446   0.260  13.400   9.256
 2177POPC   C1A30447   0.491  13.739   8.746
 2177POPC   D2A30448   0.335  13.901   8.361
 2177POPC   C3A30449   0.346  13.576   8.093
 2177POPC   C4A30450   0.595  13.589   7.741
 2177POPC   C1B30451   0.529  13.253   8.927
 2177POPC   C2B30452   0.624  13.313   8.461
 2177POPC   C3B30453   0.749  13.145   8.040
 2177POPC   C4B30454   0.755  13.139   7.610
 2178POPC   NC330455   7.509  36.493   9.559
 2178POPC   PO430456   7.683  37.116   9.354
 2178POPC   GL130457   7.558  36.764   9.115
 2178POPC   GL230458   7.844  36.549   9.137
 2178POPC   C1A30459   7.388  36.809   8.702
 2178POPC   D2A30460   7.217  36.744   8.315
 2178POPC   C3A30461   7.234  37.003   7.974
 2178POPC   C4A30462   7.332  36.836   7.597
 2178POPC   C1B30463   7.892  36.678   8.729
 2178POPC   C2B30464   7.733  36.594   8.335
 2178POPC   C3B30465   7.746  36.790   7.922
 2178POPC   C4B30466   7.708  37.259   7.798
 2179POPC   NC330467  16.223  25.581   9.468
 2179POPC   PO430468  15.789  26.023   9.615
 2179POPC   GL130469  15.737  26.105   9.167
 2179POPC   GL230470  16.071  25.963   9.139
 2179POPC   C1A30471  15.854  26.209   8.719
 2179POPC   D2A30472  15.759  26.008   8.331
 2179POPC   C3A30473  15.887  26.279   8.021
 2179POPC   C4A30474  15.880  26.263   7.591
 2179POPC   C1B30475  16.267  25.853   8.736
 2179POPC   C2B30476  16.259  25.985   8.295
 2179POPC   C3B30477  16.180  25.899   7.851
 2179POPC   C4B30478  16.333  25.983   7.424
 2180POPC   NC330479  41.342  21.219   9.701
 2180POPC   PO430480  41.619  21.825   9.682
 2180POPC   GL130481  41.399  21.626   9.291
 2180POPC   GL230482  41.410  21.264   9.185
 2180POPC   C1A30483  41.469  21.620   8.797
 2180POPC   D2A30484  41.436  21.542   8.362
 2180POPC   C3A30485  41.738  21.644   8.020
 2180POPC   C4A30486  41.528  21.673   7.628
 2180POPC   C1B30487  41.700  21.163   8.816
 2180POPC   C2B30488  41.740  21.137   8.362
 2180POPC   C3B30489  41.514  21.195   7.954
 2180POPC   C4B30490  41.465  21.189   7.502
 2181POPC   NC330491  23.664   7.589   9.501
 2181POPC   PO430492  23.618   6.994   9.253
 2181POPC   GL130493  23.712   7.318   9.013
 2181POPC   GL230494  24.009   7.186   8.940
 2181POPC   C1A30495  23.722   7.392   8.554
 2181POPC   D2A30496  23.535   7.576   8.195
 2181POPC   C3A30497  23.365   7.305   7.899
 2181POPC   C4A30498  23.077   6.967   7.922
 2181POPC   C1B30499  24.121   7.604   8.814
 2181POPC   C2B30500  24.085   7.794   8.424
 2181POPC   C3B30501  24.181   7.698   8.016
 2181POPC   C4B30502  23.994   7.335   7.836
 2182POPC   NC330503  18.155   3.977   9.569
 2182POPC   PO430504  18.475   4.581   9.472
 2182POPC   GL130505  18.322   4.319   9.198
 2182POPC   GL230506  18.150   4.560   9.045
 2182POPC   C1A30507  18.299   4.042   8.842
 2182POPC   D2A30508  18.512   4.008   8.422
 2182POPC   C3A30509  18.340   4.016   7.975
 2182POPC   C4A30510  18.522   4.026   7.492
 2182POPC   C1B30511  18.300   4.513   8.644
 2182POPC   C2B30512  18.091   4.394   8.296
 2182POPC   C3B30513  18.163   4.510   7.928
 2182POPC   C4B30514  18.562   4.433   7.779
 2183POPC   NC330515  39.493  13.433   9.502
 2183POPC   PO430516  38.928  13.906   9.540
 2183POPC   GL130517  39.017  13.561   9.265
 2183POPC   GL230518  38.678  13.471   9.248
 2183POPC   C1A30519  39.271  13.496   8.890
 2183POPC   D2A30520  39.424  13.802   8.595
 2183POPC   C3A30521  39.407  13.726   8.175
 2183POPC   C4A30522  39.601  13.742   7.779
 2183POPC   C1B30523  38.727  13.438   8.828
 2183POPC   C2B30524  38.967  13.535   8.478
 2183POPC   C3B30525  39.085  13.330   8.139
 2183POPC   C4B30526  39.188  13.454   7.775
 2184POPC   NC330527  12.706   2.926   9.554
 2184POPC   PO430528  12.477   2.392   9.385
 2184POPC   GL130529  12.559   2.732   9.086
 2184POPC   GL230530  12.947   2.800   9.132
 2184POPC   C1A30531  12.454   2.771   8.621
 2184POPC   D2A30532  12.736   2.619   8.291
 2184POPC   C3A30533  12.978   2.959   8.128
 2184POPC   C4A30534  12.724   3.121   7.785
 2184POPC   C1B30535  12.938   2.602   8.768
 2184POPC   C2B30536  13.150   2.389   8.483
 2184POPC   C3B30537  13.148   2.425   8.060
 2184POPC   C4B30538  12.881   2.643   7.753
 2185POPC   NC330539  44.888  32.346   9.571
 2185POPC   PO430540  44.335  32.000   9.633
 2185POPC   GL130541  44.464  32.144   9.203
 2185POPC   GL230542  44.713  32.396   9.110
 2185POPC   C1A30543  44.595  32.096   8.744
 2185POPC   D2A30544  44.355  32.184   8.410
 2185POPC   C3A30545  44.508  32.104   8.014
 2185POPC   C4A30546  44.477  32.082   7.588
 2185POPC   C1B30547  44.830  32.579   8.720
 2185POPC   C2B30548  44.754  32.490   8.296
 2185POPC   C3B30549  44.910  32.423   7.900
 2185POPC   C4B30550  44.943  32.670   7.524
 2186POPC   NC330551  44.341  20.899   9.562
 2186POPC   PO430552  44.918  20.571   9.548
 2186POPC   GL130553  44.694  20.767   9.198
 2186POPC   GL230554  44.377  20.532   9.165
 2186POPC   C1A30555  44.566  20.749   8.744
 2186POPC   D2A30556  44.461  20.543   8.344
 2186POPC   C3A30557  44.596  20.714   7.940
 2186POPC   C4A30558  44.998  20.736   7.697
 2186POPC   C1B30559  44.172  20.372   8.756
 2186POPC   C2B30560  44.047  20.267   8.287
 2186POPC   C3B30561  44.181  20.397   7.828
 2186POPC   C4B30562  44.255  20.183   7.395
 2187POPC   NC330563  41.800  42.876   9.344
 2187POPC   PO430564  41.205  43.216   9.397
 2187POPC   GL130565  41.518  43.258   9.101
 2187POPC   GL230566  41.828  43.457   9.102
 2187POPC   C1A30567  41.532  43.077   8.699
 2187POPC   D2A30568  41.288  43.006   8.330
 2187POPC   C3A30569  41.547  43.080   8.003
 2187POPC   C4A30570  41.645  42.836   7.638
 2187POPC   C1B30571  41.919  43.415   8.625
 2187POPC   C2B30572  41.966  43.444   8.166
 2187POPC   C3B30573  41.876  43.322   7.709
 2187POPC   C4B30574  41.443  43.300   7.551
 2188POPC   NC330575  10.954  13.681   9.490
 2188POPC   PO430576  10.273  13.565   9.453
 2188POPC   GL130577  10.634  13.616   9.121
 2188POPC   GL230578  10.445  13.862   8.932
 2188POPC   C1A30579  10.861  13.704   8.698
 2188POPC   D2A30580  10.615  13.885   8.367
 2188POPC   C3A30581  10.553  13.649   7.991
 2188POPC   C4A30582  10.843  13.671   7.600
 2188POPC   C1B30583  10.327  13.425   8.787
 2188POPC   C2B30584  10.208  13.220   8.448
 2188POPC   C3B30585  10.191  13.198   8.041
 2188POPC   C4B30586  10.010  13.565   7.890
 2189POPC   NC330587  26.678  17.351   9.576
 2189POPC   PO430588  27.148  17.784   9.661
 2189POPC   GL130589  26.963  17.618   9.241
 2189POPC   GL230590  27.038  17.249   9.173
 2189POPC   C1A30591  26.681  17.479   8.866
 2189POPC   D2A30592  26.608  17.302   8.434
 2189POPC   C3A30593  26.828  17.537   8.075
 2189POPC   C4A30594  26.675  17.612   7.642
 2189POPC   C1B30595  27.221  17.143   8.737
 2189POPC   C2B30596  27.118  17.145   8.283
 2189POPC   C3B30597  27.090  17.187   7.819
 2189POPC   C4B30598  27.001  17.239   7.407
 2190POPC   NC330599   2.707  25.814   9.545
 2190POPC   PO430600   2.465  26.420   9.460
 2190POPC   GL130601   2.566  26.125   9.154
 2190POPC   GL230602   2.896  26.166   9.169
 2190POPC   C1A30603   2.776  25.792   8.853
 2190POPC   D2A30604   2.990  25.826   8.483
 2190POPC   C3A30605   2.823  25.976   8.116
 2190POPC   C4A30606   2.750  25.839   7.689
 2190POPC   C1B30607   2.793  26.287   8.706
 2190POPC   C2B30608   2.911  26.482   8.306
 2190POPC   C3B30609   2.933  26.410   7.868
 2190POPC   C4B30610   2.526  26.362   7.789
 2191POPC   NC330611  23.353  34.426   9.340
 2191POPC   PO430612  22.846  34.889   9.626
 2191POPC   GL130613  22.847  34.603   9.221
 2191POPC   GL230614  22.591  34.371   9.148
 2191POPC   C1A30615  22.915  34.517   8.766
 2191POPC   D2A30616  22.938  34.674   8.350
 2191POPC   C3A30617  23.117  34.520   7.992
 2191POPC   C4A30618  23.063  34.784   7.648
 2191POPC   C1B30619  22.542  34.148   8.776
 2191POPC   C2B30620  22.698  34.213   8.351
 2191POPC   C3B30621  22.716  34.172   7.907
 2191POPC   C4B30622  22.899  34.296   7.547
 2192POPC   NC330623  27.249   4.981   9.279
 2192POPC   PO430624  26.587   5.382   9.375
 2192POPC   GL130625  26.826   5.162   9.090
 2192POPC   GL230626  27.124   5.319   8.951
 2192POPC   C1A30627  26.814   4.979   8.696
 2192POPC   D2A30628  26.561   5.187   8.399
 2192POPC   C3A30629  26.697   5.190   7.960
 2192POPC   C4A30630  26.753   4.784   7.771
 2192POPC   C1B30631  27.227   5.354   8.571
 2192POPC   C2B30632  27.095   5.115   8.268
 2192POPC   C3B30633  27.197   5.036   7.880
 2192POPC   C4B30634  27.109   5.326   7.591
 2193POPC   NC330635  36.622  13.355   9.386
 2193POPC   PO430636  36.893  13.969   9.574
 2193POPC   GL130637  36.942  13.737   9.201
 2193POPC   GL230638  36.634  13.767   9.080
 2193POPC   C1A30639  37.099  13.625   8.792
 2193POPC   D2A30640  37.258  13.590   8.371
 2193POPC   C3A30641  37.003  13.819   8.026
 2193POPC   C4A30642  36.946  13.631   7.634
 2193POPC   C1B30643  36.607  13.450   8.756
 2193POPC   C2B30644  36.700  13.596   8.363
 2193POPC   C3B30645  36.558  13.569   7.938
 2193POPC   C4B30646  36.459  13.523   7.482
 2194POPC   NC330647  37.765  25.878   9.556
 2194POPC   PO430648  37.554  26.495   9.564
 2194POPC   GL130649  37.630  26.227   9.198
 2194POPC   GL230650  37.989  26.146   9.178
 2194POPC   C1A30651  37.579  26.173   8.747
 2194POPC   D2A30652  37.604  26.458   8.398
 2194POPC   C3A30653  37.487  26.368   7.987
 2194POPC   C4A30654  37.743  26.253   7.644
 2194POPC   C1B30655  37.929  25.832   8.851
 2194POPC   C2B30656  37.712  25.788   8.442
 2194POPC   C3B30657  37.824  25.961   8.066
 2194POPC   C4B30658  38.041  25.826   7.675
 2195POPC   NC330659  10.568   3.257   9.490
 2195POPC   PO430660  10.430   3.870   9.258
 2195POPC   GL130661  10.604   3.505   9.050
 2195POPC   GL230662  10.955   3.473   9.107
 2195POPC   C1A30663  10.701   3.240   8.709
 2195POPC   D2A30664  10.529   3.252   8.285
 2195POPC   C3A30665  10.724   3.313   7.897
 2195POPC   C4A30666  10.534   3.532   7.573
 2195POPC   C1B30667  10.925   3.714   8.689
 2195POPC   C2B30668  10.798   3.709   8.230
 2195POPC   C3B30669  10.917   3.789   7.800
 2195POPC   C4B30670  10.862   3.862   7.344
 2196POPC   NC330671  22.934  33.329   9.722
 2196POPC   PO430672  23.314  32.788   9.625
 2196POPC   GL130673  23.156  32.951   9.226
 2196POPC   GL230674  23.302  33.260   9.132
 2196POPC   C1A30675  22.789  33.054   8.936
 2196POPC   D2A30676  22.571  33.235   8.566
 2196POPC   C3A30677  22.581  33.053   8.152
 2196POPC   C4A30678  22.849  33.124   7.796
 2196POPC   C1B30679  23.234  33.180   8.717
 2196POPC   C2B30680  23.022  32.945   8.424
 2196POPC   C3B30681  23.240  33.105   8.105
 2196POPC   C4B30682  23.405  33.110   7.693
 2197POPC   NC330683   7.725  21.088   9.399
 2197POPC   PO430684   7.034  21.228   9.384
 2197POPC   GL130685   7.337  21.172   9.080
 2197POPC   GL230686   7.563  21.469   9.081
 2197POPC   C1A30687   7.392  21.174   8.665
 2197POPC   D2A30688   7.306  21.350   8.294
 2197POPC   C3A30689   7.475  21.086   8.009
 2197POPC   C4A30690   7.542  21.145   7.608
 2197POPC   C1B30691   7.787  21.543   8.680
 2197POPC   C2B30692   7.847  21.457   8.256
 2197POPC   C3B30693   7.638  21.577   7.894
 2197POPC   C4B30694   7.783  21.585   7.473
 2198POPC   NC330695  32.859  16.983   9.857
 2198POPC   PO430696  32.252  16.827   9.514
 2198POPC   GL130697  32.185  17.012   9.124
 2198POPC   GL230698  32.532  17.006   9.051
 2198POPC   C1A30699  32.212  16.893   8.680
 2198POPC   D2A30700  32.314  16.608   8.335
 2198POPC   C3A30701  32.354  16.873   7.952
 2198POPC   C4A30702  32.056  17.005   7.627
 2198POPC   C1B30703  32.622  16.595   8.794
 2198POPC   C2B30704  32.808  16.449   8.395
 2198POPC   C3B30705  32.678  16.490   7.980
 2198POPC   C4B30706  32.504  16.495   7.580
 2199POPC   NC330707   7.036  31.712   9.515
 2199POPC   PO430708   7.693  31.311   9.484
 2199POPC   GL130709   7.680  31.495   9.092
 2199POPC   GL230710   7.420  31.698   9.164
 2199POPC   C1A30711   7.575  31.484   8.647
 2199POPC   D2A30712   7.413  31.283   8.263
 2199POPC   C3A30713   7.541  31.254   7.821
 2199POPC   C4A30714   7.325  31.200   7.388
 2199POPC   C1B30715   7.130  31.659   8.838
 2199POPC   C2B30716   7.140  31.688   8.386
 2199POPC   C3B30717   7.251  31.659   7.910
 2199POPC   C4B30718   7.322  31.700   7.455
 2200POPC   NC330719  25.747  22.615   9.494
 2200POPC   PO430720  26.375  22.887   9.502
 2200POPC   GL130721  26.155  22.689   9.186
 2200POPC   GL230722  26.415  22.574   9.000
 2200POPC   C1A30723  25.940  22.589   8.786
 2200POPC   D2A30724  25.824  22.752   8.362
 2200POPC   C3A30725  26.035  22.953   8.038
 2200POPC   C4A30726  26.053  22.713   7.663
 2200POPC   C1B30727  26.318  22.962   8.767
 2200POPC   C2B30728  26.494  23.059   8.352
 2200POPC   C3B30729  26.536  22.875   7.962
 2200POPC   C4B30730  26.371  23.092   7.615
 2201POPC   NC330731  10.385  37.537   9.331
 2201POPC   PO430732  10.792  37.951   9.416
 2201POPC   GL130733  10.600  37.951   9.022
 2201POPC   GL230734  10.257  37.900   8.995
 2201POPC   C1A30735  10.632  37.608   8.714
 2201POPC   D2A30736  10.478  37.398   8.327
 2201POPC   C3A30737  10.668  37.640   7.999
 2201POPC   C4A30738  10.749  37.982   7.710
 2201POPC   C1B30739  10.115  37.631   8.657
 2201POPC   C2B30740  10.009  37.682   8.223
 2201POPC   C3B30741  10.164  37.656   7.786
 2201POPC   C4B30742  10.173  37.641   7.317
 2202POPC   NC330743  17.686  43.096   9.470
 2202POPC   PO430744  17.104  43.413   9.657
 2202POPC   GL130745  17.252  43.252   9.225
 2202POPC   GL230746  17.318  42.891   9.168
 2202POPC   C1A30747  17.382  43.273   8.775
 2202POPC   D2A30748  17.397  43.031   8.411
 2202POPC   C3A30749  17.225  43.180   8.022
 2202POPC   C4A30750  17.438  43.187   7.639
 2202POPC   C1B30751  17.693  42.895   8.849
 2202POPC   C2B30752  17.900  43.078   8.472
 2202POPC   C3B30753  17.775  43.160   8.038
 2202POPC   C4B30754  17.891  42.914   7.681
 2203POPC   NC330755  25.117   3.827   9.256
 2203POPC   PO430756  25.502   4.285   9.555
 2203POPC   GL130757  25.277   4.464   9.123
 2203POPC   GL230758  25.082   4.207   8.919
 2203POPC   C1A30759  25.218   4.591   8.630
 2203POPC   D2A30760  25.197   4.266   8.279
 2203POPC   C3A30761  25.032   4.334   7.851
 2203POPC   C4A30762  25.212   4.360   7.429
 2203POPC   C1B30763  25.499   4.158   8.748
 2203POPC   C2B30764  25.622   4.008   8.355
 2203POPC   C3B30765  25.505   4.042   7.906
 2203POPC   C4B30766  25.698   4.123   7.515
 2204POPC   NC330767  37.362  36.421   9.234
 2204POPC   PO430768  37.388  35.804   9.385
 2204POPC   GL130769  37.668  35.997   9.129
 2204POPC   GL230770  37.947  36.174   9.292
 2204POPC   C1A30771  37.618  36.121   8.700
 2204POPC   D2A30772  37.487  35.979   8.319
 2204POPC   C3A30773  37.659  36.104   7.937
 2204POPC   C4A30774  37.488  35.900   7.559
 2204POPC   C1B30775  38.090  36.091   8.865
 2204POPC   C2B30776  38.058  36.187   8.414
 2204POPC   C3B30777  38.142  35.906   8.065
 2204POPC   C4B30778  38.092  35.998   7.628
 2205POPC   NC330779  41.053   9.137   9.936
 2205POPC   PO430780  40.763   8.612   9.707
 2205POPC   GL130781  40.830   8.735   9.195
 2205POPC   GL230782  40.605   8.660   9.002
 2205POPC   C1A30783  40.770   9.132   8.877
 2205POPC   D2A30784  41.024   9.378   8.564
 2205POPC   C3A30785  40.994   9.324   8.120
 2205POPC   C4A30786  40.914   9.154   7.708
 2205POPC   C1B30787  40.594   8.769   8.579
 2205POPC   C2B30788  40.867   8.822   8.252
 2205POPC   C3B30789  40.764   8.686   7.844
 2205POPC   C4B30790  40.523   8.863   7.566
 2206POPC   NC330791  43.666   6.098   9.514
 2206POPC   PO430792  42.982   5.796   9.472
 2206POPC   GL130793  43.125   5.904   9.080
 2206POPC   GL230794  43.305   6.169   9.177
 2206POPC   C1A30795  43.252   5.828   8.678
 2206POPC   D2A30796  43.435   5.726   8.327
 2206POPC   C3A30797  43.132   5.684   8.062
 2206POPC   C4A30798  43.058   5.724   7.637
 2206POPC   C1B30799  43.386   6.299   8.800
 2206POPC   C2B30800  43.435   6.249   8.391
 2206POPC   C3B30801  43.443   6.096   7.963
 2206POPC   C4B30802  43.405   6.074   7.486
 2207POPC   NC330803  13.192  20.209   9.420
 2207POPC   PO430804  13.615  19.801   9.684
 2207POPC   GL130805  13.589  19.689   9.247
 2207POPC   GL230806  13.238  19.719   9.125
 2207POPC   C1A30807  13.820  19.780   8.849
 2207POPC   D2A30808  13.651  19.796   8.417
 2207POPC   C3A30809  13.861  19.687   8.023
 2207POPC   C4A30810  13.825  19.824   7.590
 2207POPC   C1B30811  13.345  20.013   8.776
 2207POPC   C2B30812  13.445  20.263   8.379
 2207POPC   C3B30813  13.442  20.083   7.946
 2207POPC   C4B30814  13.178  19.765   7.742
 2208POPC   NC330815   6.230  20.436   9.603
 2208POPC   PO430816   6.928  20.254   9.585
 2208POPC   GL130817   6.687  20.583   9.346
 2208POPC   GL230818   6.445  20.403   9.134
 2208POPC   C1A30819   6.730  20.738   8.913
 2208POPC   D2A30820   6.543  20.511   8.578
 2208POPC   C3A30821   6.465  20.767   8.238
 2208POPC   C4A30822   6.633  20.746   7.830
 2208POPC   C1B30823   6.848  20.238   8.931
 2208POPC   C2B30824   7.055  20.394   8.562
 2208POPC   C3B30825   6.809  20.364   8.152
 2208POPC   C4B30826   6.946  20.357   7.730
 2209POPC   NC330827  34.339   5.865   9.673
 2209POPC   PO430828  34.954   6.080   9.789
 2209POPC   GL130829  34.760   5.906   9.381
 2209POPC   GL230830  34.552   6.129   9.193
 2209POPC   C1A30831  34.619   5.688   8.962
 2209POPC   D2A30832  34.481   5.746   8.494
 2209POPC   C3A30833  34.638   5.657   8.065
 2209POPC   C4A30834  34.465   5.575   7.650
 2209POPC   C1B30835  34.330   6.141   8.816
 2209POPC   C2B30836  34.246   6.257   8.414
 2209POPC   C3B30837  34.270   6.026   8.058
 2209POPC   C4B30838  34.299   6.060   7.659
 2210POPC   NC330839  36.270  25.252   9.438
 2210POPC   PO430840  35.588  25.461   9.561
 2210POPC   GL130841  35.759  25.323   9.131
 2210POPC   GL230842  35.904  25.000   9.107
 2210POPC   C1A30843  35.851  25.275   8.673
 2210POPC   D2A30844  35.997  25.161   8.255
 2210POPC   C3A30845  36.170  25.533   8.050
 2210POPC   C4A30846  35.927  25.582   7.676
 2210POPC   C1B30847  36.300  25.053   8.838
 2210POPC   C2B30848  36.443  25.241   8.478
 2210POPC   C3B30849  36.503  25.072   8.068
 2210POPC   C4B30850  36.197  25.141   7.735
 2211POPC   NC330851  43.381  30.383   9.468
 2211POPC   PO430852  42.941  30.808   9.688
 2211POPC   GL130853  43.124  30.835   9.255
 2211POPC   GL230854  42.788  30.913   9.183
 2211POPC   C1A30855  43.204  30.563   8.830
 2211POPC   D2A30856  43.118  30.307   8.426
 2211POPC   C3A30857  43.178  30.576   8.056
 2211POPC   C4A30858  43.082  30.840   7.704
 2211POPC   C1B30859  42.960  31.011   8.777
 2211POPC   C2B30860  43.013  31.064   8.348
 2211POPC   C3B30861  42.692  30.989   8.025
 2211POPC   C4B30862  42.706  31.181   7.603
 2212POPC   NC330863  33.157  15.862   9.491
 2212POPC   PO430864  33.006  16.575   9.655
 2212POPC   GL130865  32.911  16.219   9.233
 2212POPC   GL230866  32.807  15.845   9.114
 2212POPC   C1A30867  32.968  16.192   8.795
 2212POPC   D2A30868  32.956  15.930   8.447
 2212POPC   C3A30869  32.961  16.061   8.047
 2212POPC   C4A30870  32.965  15.910   7.633
 2212POPC   C1B30871  33.160  15.658   8.837
 2212POPC   C2B30872  33.386  15.649   8.444
 2212POPC   C3B30873  33.243  15.611   8.019
 2212POPC   C4B30874  33.416  15.713   7.634
 2213POPC   NC330875   7.734  11.088   9.441
 2213POPC   PO430876   7.279  11.623   9.448
 2213POPC   GL130877   7.196  11.310   9.127
 2213POPC   GL230878   7.354  10.977   9.035
 2213POPC   C1A30879   7.243  11.336   8.688
 2213POPC   D2A30880   7.055  11.229   8.316
 2213POPC   C3A30881   7.321  11.298   7.979
 2213POPC   C4A30882   7.209  11.180   7.605
 2213POPC   C1B30883   7.712  10.805   8.763
 2213POPC   C2B30884   7.925  10.791   8.346
 2213POPC   C3B30885   7.805  10.956   7.924
 2213POPC   C4B30886   7.750  11.363   7.670
 2214POPC   NC330887  10.090  20.079   9.439
 2214POPC   PO430888   9.487  19.707   9.488
 2214POPC   GL130889   9.556  19.910   9.112
 2214POPC   GL230890   9.877  19.757   9.096
 2214POPC   C1A30891   9.569  19.780   8.687
 2214POPC   D2A30892   9.890  19.791   8.386
 2214POPC   C3A30893   9.676  19.673   8.030
 2214POPC   C4A30894   9.779  19.672   7.638
 2214POPC   C1B30895   9.993  20.054   8.799
 2214POPC   C2B30896  10.028  20.300   8.423
 2214POPC   C3B30897   9.923  20.131   8.006
 2214POPC   C4B30898   9.993  20.193   7.574
 2215POPC   NC330899  28.488  24.123   9.437
 2215POPC   PO430900  28.291  23.533   9.721
 2215POPC   GL130901  28.244  23.734   9.235
 2215POPC   GL230902  28.037  23.947   9.075
 2215POPC   C1A30903  28.220  23.580   8.775
 2215POPC   D2A30904  28.412  23.542   8.379
 2215POPC   C3A30905  28.132  23.485   8.030
 2215POPC   C4A30906  28.365  23.612   7.636
 2215POPC   C1B30907  28.204  24.102   8.743
 2215POPC   C2B30908  28.047  23.923   8.384
 2215POPC   C3B30909  28.230  23.988   8.018
 2215POPC   C4B30910  28.234  24.125   7.640
 2216POPC   NC330911  29.158  11.701   9.367
 2216POPC   PO430912  28.978  11.112   9.566
 2216POPC   GL130913  29.129  11.104   9.129
 2216POPC   GL230914  28.957  11.390   9.039
 2216POPC   C1A30915  29.238  11.258   8.664
 2216POPC   D2A30916  29.361  11.555   8.360
 2216POPC   C3A30917  29.392  11.343   7.987
 2216POPC   C4A30918  29.120  11.183   7.736
 2216POPC   C1B30919  28.817  11.622   8.688
 2216POPC   C2B30920  28.873  11.630   8.301
 2216POPC   C3B30921  28.765  11.459   7.956
 2216POPC   C4B30922  28.781  11.491   7.529
 2217POPC   NC330923  11.805  19.031   9.684
 2217POPC   PO430924  11.137  19.166   9.430
 2217POPC   GL130925  11.370  18.949   9.141
 2217POPC   GL230926  11.121  18.704   8.986
 2217POPC   C1A30927  11.536  19.061   8.741
 2217POPC   D2A30928  11.357  18.892   8.366
 2217POPC   C3A30929  11.415  19.093   7.971
 2217POPC   C4A30930  11.291  19.284   7.554
 2217POPC   C1B30931  11.023  19.088   8.735
 2217POPC   C2B30932  11.050  19.277   8.294
 2217POPC   C3B30933  10.922  19.086   7.892
 2217POPC   C4B30934  11.139  18.818   7.585
 2218POPC   NC330935   3.369  39.024   9.415
 2218POPC   PO430936   4.007  38.922   9.496
 2218POPC   GL130937   3.794  39.104   9.133
 2218POPC   GL230938   3.798  39.473   9.057
 2218POPC   C1A30939   3.593  39.026   8.740
 2218POPC   D2A30940   3.660  38.806   8.359
 2218POPC   C3A30941   3.531  39.007   7.976
 2218POPC   C4A30942   3.724  39.238   7.633
 2218POPC   C1B30943   3.521  39.536   8.725
 2218POPC   C2B30944   3.656  39.387   8.333
 2218POPC   C3B30945   3.468  39.530   7.971
 2218POPC   C4B30946   3.164  39.343   7.776
 2219POPC   NC330947  34.189   0.534   9.191
 2219POPC   PO430948  33.558   0.517   9.533
 2219POPC   GL130949  33.687   0.486   9.132
 2219POPC   GL230950  33.792   0.181   9.156
 2219POPC   C1A30951  33.792   0.630   8.717
 2219POPC   D2A30952  34.070   0.634   8.391
 2219POPC   C3A30953  33.857   0.679   7.991
 2219POPC   C4A30954  33.971   0.488   7.603
 2219POPC   C1B30955  33.555   0.176   8.735
 2219POPC   C2B30956  33.569   0.399   8.311
 2219POPC   C3B30957  33.639   0.208   7.904
 2219POPC   C4B30958  33.684  44.779   7.784
 2220POPC   NC330959  33.887  31.933   9.607
 2220POPC   PO430960  33.433  32.430   9.758
 2220POPC   GL130961  33.628  32.329   9.337
 2220POPC   GL230962  33.646  31.989   9.163
 2220POPC   C1A30963  33.790  32.443   8.914
 2220POPC   D2A30964  33.656  32.562   8.495
 2220POPC   C3A30965  33.799  32.376   8.117
 2220POPC   C4A30966  33.700  32.399   7.703
 2220POPC   C1B30967  33.738  31.925   8.731
 2220POPC   C2B30968  33.922  31.901   8.314
 2220POPC   C3B30969  33.762  31.910   7.896
 2220POPC   C4B30970  33.753  31.982   7.443
 2221POPC   NC330971  29.164  24.602   9.441
 2221POPC   PO430972  28.521  24.562   9.552
 2221POPC   GL130973  28.799  24.759   9.136
 2221POPC   GL230974  29.021  24.486   8.960
 2221POPC   C1A30975  28.945  24.851   8.646
 2221POPC   D2A30976  29.025  24.456   8.359
 2221POPC   C3A30977  29.220  24.498   7.951
 2221POPC   C4A30978  29.044  24.452   7.525
 2221POPC   C1B30979  29.103  24.109   8.714
 2221POPC   C2B30980  29.107  23.887   8.339
 2221POPC   C3B30981  29.171  23.991   7.927
 2221POPC   C4B30982  29.413  24.119   7.596
 2222POPC   NC330983  19.195  22.648   9.325
 2222POPC   PO430984  18.590  22.967   9.419
 2222POPC   GL130985  18.888  22.988   9.092
 2222POPC   GL230986  18.747  22.679   9.005
 2222POPC   C1A30987  19.225  23.039   8.769
 2222POPC   D2A30988  19.331  22.902   8.367
 2222POPC   C3A30989  19.000  22.970   8.097
 2222POPC   C4A30990  19.107  23.063   7.705
 2222POPC   C1B30991  18.852  22.716   8.593
 2222POPC   C2B30992  18.944  22.470   8.246
 2222POPC   C3B30993  19.090  22.560   7.820
 2222POPC   C4B30994  19.368  22.403   7.519
 2223POPC   NC330995  32.568  30.076   9.639
 2223POPC   PO430996  32.048  29.888   9.829
 2223POPC   GL130997  32.113  29.885   9.358
 2223POPC   GL230998  32.440  29.851   9.203
 2223POPC   C1A30999  32.006  29.805   8.896
 2223POPC   D2A31000  31.796  29.777   8.475
 2223POPC   C3A31001  31.977  30.000   8.149
 2223POPC   C4A31002  31.932  29.972   7.712
 2223POPC   C1B31003  32.239  30.232   8.988
 2223POPC   C2B31004  32.219  30.260   8.548
 2223POPC   C3B31005  32.399  30.271   8.145
 2223POPC   C4B31006  32.249  30.382   7.742
 2224POPC   NC331007  14.189  16.369   9.529
 2224POPC   PO431008  14.225  16.970   9.253
 2224POPC   GL131009  14.250  16.607   9.032
 2224POPC   GL231010  14.508  16.407   9.124
 2224POPC   C1A31011  14.390  16.719   8.648
 2224POPC   D2A31012  14.402  16.966   8.307
 2224POPC   C3A31013  14.394  16.746   7.932
 2224POPC   C4A31014  14.264  16.864   7.550
 2224POPC   C1B31015  14.497  16.239   8.711
 2224POPC   C2B31016  14.585  16.386   8.272
 2224POPC   C3B31017  14.708  16.343   7.820
 2224POPC   C4B31018  14.614  16.513   7.407
 2225POPC   NC331019  25.008  24.657   9.425
 2225POPC   PO431020  25.465  24.198   9.503
 2225POPC   GL131021  25.425  24.452   9.165
 2225POPC   GL231022  25.742  24.557   9.132
 2225POPC   C1A31023  25.189  24.632   8.804
 2225POPC   D2A31024  25.016  24.902   8.479
 2225POPC   C3A31025  25.009  24.680   8.108
 2225POPC   C4A31026  25.119  24.763   7.710
 2225POPC   C1B31027  25.709  24.717   8.704
 2225POPC   C2B31028  25.865  24.889   8.291
 2225POPC   C3B31029  25.650  24.815   7.895
 2225POPC   C4B31030  25.451  24.399   7.850
 2226POPC   NC331031  27.303  39.531   9.537
 2226POPC   PO431032  26.747  39.225   9.512
 2226POPC   GL131033  27.029  39.181   9.189
 2226POPC   GL231034  26.718  39.247   9.008
 2226POPC   C1A31035  27.159  39.313   8.770
 2226POPC   D2A31036  26.961  39.348   8.385
 2226POPC   C3A31037  26.923  39.189   7.967
 2226POPC   C4A31038  26.662  38.879   7.718
 2226POPC   C1B31039  26.498  39.246   8.667
 2226POPC   C2B31040  26.471  39.411   8.306
 2226POPC   C3B31041  26.420  39.291   7.946
 2226POPC   C4B31042  26.612  39.381   7.597
 2227POPC   NC331043  36.649  40.122   9.470
 2227POPC   PO431044  35.920  39.931   9.508
 2227POPC   GL131045  35.920  40.047   9.094
 2227POPC   GL231046  36.234  40.184   9.163
 2227POPC   C1A31047  35.955  39.928   8.655
 2227POPC   D2A31048  35.860  39.691   8.251
 2227POPC   C3A31049  35.852  39.968   7.934
 2227POPC   C4A31050  35.937  40.341   7.766
 2227POPC   C1B31051  36.459  39.938   8.851
 2227POPC   C2B31052  36.435  40.016   8.427
 2227POPC   C3B31053  36.330  40.086   8.022
 2227POPC   C4B31054  36.445  39.843   7.679
 2228POPC   NC331055  13.551  29.018   9.435
 2228POPC   PO431056  13.886  29.386   9.158
 2228POPC   GL131057  13.812  28.985   8.986
 2228POPC   GL231058  14.154  28.882   9.033
 2228POPC   C1A31059  13.583  28.961   8.601
 2228POPC   D2A31060  13.549  29.402   8.396
 2228POPC   C3A31061  13.565  29.394   7.946
 2228POPC   C4A31062  13.425  29.000   7.725
 2228POPC   C1B31063  14.048  28.650   8.664
 2228POPC   C2B31064  13.841  28.623   8.277
 2228POPC   C3B31065  13.896  28.854   7.887
 2228POPC   C4B31066  13.969  29.261   7.656
 2229POPC   NC331067  21.601  42.106   9.424
 2229POPC   PO431068  21.368  42.752   9.317
 2229POPC   GL131069  21.429  42.404   9.011
 2229POPC   GL231070  21.271  42.071   9.059
 2229POPC   C1A31071  21.502  42.336   8.546
 2229POPC   D2A31072  21.630  42.380   8.132
 2229POPC   C3A31073  21.246  42.338   7.882
 2229POPC   C4A31074  21.192  42.562   7.483
 2229POPC   C1B31075  21.614  41.911   8.758
 2229POPC   C2B31076  21.670  41.884   8.280
 2229POPC   C3B31077  21.562  41.962   7.823
 2229POPC   C4B31078  21.390  41.856   7.418
 2230POPC   NC331079  18.882   0.164   9.459
 2230POPC   PO431080  19.123  44.563   9.619
 2230POPC   GL131081  18.951  44.550   9.212
 2230POPC   GL231082  19.175  44.834   9.096
 2230POPC   C1A31083  18.769  44.727   8.814
 2230POPC   D2A31084  18.937  44.816   8.443
 2230POPC   C3A31085  18.723  44.710   8.099
 2230POPC   C4A31086  18.758  44.883   7.721
 2230POPC   C1B31087  19.224  44.477   8.783
 2230POPC   C2B31088  19.237  44.374   8.368
 2230POPC   C3B31089  19.209  44.589   7.987
 2230POPC   C4B31090  19.264  44.322   7.682
 2231POPC   NC331091   0.795  21.884   9.823
 2231POPC   PO431092   0.243  22.027   9.449
 2231POPC   GL131093   0.345  22.146   9.086
 2231POPC   GL231094   0.456  22.472   9.099
 2231POPC   C1A31095   0.344  21.936   8.715
 2231POPC   D2A31096   0.612  21.772   8.410
 2231POPC   C3A31097   0.405  21.833   8.013
 2231POPC   C4A31098   0.584  21.902   7.632
 2231POPC   C1B31099   0.432  22.493   8.652
 2231POPC   C2B31100   0.410  22.263   8.316
 2231POPC   C3B31101   0.509  22.333   7.907
 2231POPC   C4B31102   0.307  22.307   7.533
 2232POPC   NC331103   3.244  25.105   9.604
 2232POPC   PO431104   3.777  25.426   9.526
 2232POPC   GL131105   3.449  25.272   9.147
 2232POPC   GL231106   3.160  24.988   9.120
 2232POPC   C1A31107   3.429  25.172   8.664
 2232POPC   D2A31108   3.693  25.120   8.288
 2232POPC   C3A31109   3.565  25.227   7.878
 2232POPC   C4A31110   3.415  25.112   7.472
 2232POPC   C1B31111   2.997  25.315   8.884
 2232POPC   C2B31112   2.951  25.307   8.451
 2232POPC   C3B31113   2.943  25.483   8.062
 2232POPC   C4B31114   3.181  25.510   7.714
 2233POPC   NC331115  24.650   2.054   9.536
 2233POPC   PO431116  24.128   1.613   9.404
 2233POPC   GL131117  24.162   1.927   9.071
 2233POPC   GL231118  24.335   2.232   9.122
 2233POPC   C1A31119  24.243   2.107   8.645
 2233POPC   D2A31120  24.276   2.175   8.230
 2233POPC   C3A31121  24.483   1.865   8.008
 2233POPC   C4A31122  24.325   1.813   7.621
 2233POPC   C1B31123  24.699   2.162   8.856
 2233POPC   C2B31124  24.767   2.140   8.401
 2233POPC   C3B31125  24.729   2.296   7.968
 2233POPC   C4B31126  24.706   2.156   7.581
 2234POPC   NC331127   2.108   2.519   9.414
 2234POPC   PO431128   1.467   2.773   9.442
 2234POPC   GL131129   1.717   2.689   9.109
 2234POPC   GL231130   1.961   2.963   9.107
 2234POPC   C1A31131   1.829   2.559   8.707
 2234POPC   D2A31132   1.846   2.805   8.325
 2234POPC   C3A31133   1.734   2.595   7.963
 2234POPC   C4A31134   1.919   2.493   7.581
 2234POPC   C1B31135   2.200   2.932   8.705
 2234POPC   C2B31136   2.342   2.880   8.266
 2234POPC   C3B31137   2.137   2.956   7.855
 2234POPC   C4B31138   2.156   2.970   7.401
 2235POPC   NC331139  15.489  40.677   9.620
 2235POPC   PO431140  14.815  40.730   9.565
 2235POPC   GL131141  14.986  40.820   9.166
 2235POPC   GL231142  15.321  40.905   9.173
 2235POPC   C1A31143  14.997  40.727   8.735
 2235POPC   D2A31144  14.809  40.718   8.335
 2235POPC   C3A31145  15.024  40.583   7.980
 2235POPC   C4A31146  15.409  40.640   7.749
 2235POPC   C1B31147  15.365  41.100   8.783
 2235POPC   C2B31148  15.135  41.141   8.421
 2235POPC   C3B31149  15.273  41.055   8.025
 2235POPC   C4B31150  15.728  41.044   7.978
 2236POPC   NC331151   1.018  21.031   9.545
 2236POPC   PO431152   1.304  21.676   9.412
 2236POPC   GL131153   1.203  21.309   9.143
 2236POPC   GL231154   0.854  21.257   9.095
 2236POPC   C1A31155   1.309  21.116   8.731
 2236POPC   D2A31156   1.135  21.139   8.294
 2236POPC   C3A31157   1.374  21.068   7.918
 2236POPC   C4A31158   1.290  21.313   7.525
 2236POPC   C1B31159   1.008  21.564   8.751
 2236POPC   C2B31160   1.135  21.699   8.371
 2236POPC   C3B31161   1.258  21.585   7.981
 2236POPC   C4B31162   1.081  21.761   7.628
 2237POPC   NC331163  31.609  26.997   9.674
 2237POPC   PO431164  31.059  26.676   9.575
 2237POPC   GL131165  31.380  26.787   9.244
 2237POPC   GL231166  31.669  27.032   9.176
 2237POPC   C1A31167  31.287  26.891   8.812
 2237POPC   D2A31168  31.079  26.841   8.427
 2237POPC   C3A31169  31.364  26.732   8.131
 2237POPC   C4A31170  31.331  26.685   7.717
 2237POPC   C1B31171  31.605  27.275   8.785
 2237POPC   C2B31172  31.425  27.254   8.360
 2237POPC   C3B31173  31.529  27.160   7.917
 2237POPC   C4B31174  31.812  26.859   7.712
 2238POPC   NC331175   3.965  39.419   9.525
 2238POPC   PO431176   4.608  39.146   9.560
 2238POPC   GL131177   4.339  39.125   9.160
 2238POPC   GL231178   4.212  38.794   9.048
 2238POPC   C1A31179   4.135  39.258   8.766
 2238POPC   D2A31180   4.268  39.485   8.406
 2238POPC   C3A31181   4.207  39.292   8.026
 2238POPC   C4A31182   4.177  39.462   7.653
 2238POPC   C1B31183   4.445  38.836   8.709
 2238POPC   C2B31184   4.181  38.920   8.381
 2238POPC   C3B31185   4.024  38.821   7.990
 2238POPC   C4B31186   4.133  38.946   7.602
 2239POPC   NC331187  44.405  33.300   9.287
 2239POPC   PO431188  43.916  32.855   9.462
 2239POPC   GL131189  44.123  32.902   9.094
 2239POPC   GL231190  44.262  32.605   9.072
 2239POPC   C1A31191  44.003  33.112   8.705
 2239POPC   D2A31192  43.768  33.270   8.362
 2239POPC   C3A31193  43.836  33.021   7.986
 2239POPC   C4A31194  43.887  33.201   7.584
 2239POPC   C1B31195  44.149  32.605   8.652
 2239POPC   C2B31196  44.178  32.632   8.202
 2239POPC   C3B31197  44.126  32.577   7.763
 2239POPC   C4B31198  44.220  32.853   7.446
 2240POPC   NC331199   4.445  29.649   9.492
 2240POPC   PO431200   4.002  30.121   9.495
 2240POPC   GL131201   4.205  29.949   9.151
 2240POPC   GL231202   4.557  30.024   9.176
 2240POPC   C1A31203   4.215  29.877   8.717
 2240POPC   D2A31204   4.464  30.052   8.387
 2240POPC   C3A31205   4.339  29.969   7.973
 2240POPC   C4A31206   4.089  29.719   7.719
 2240POPC   C1B31207   4.735  29.920   8.805
 2240POPC   C2B31208   4.848  29.697   8.453
 2240POPC   C3B31209   4.810  29.763   8.035
 2240POPC   C4B31210   4.701  29.514   7.681
 2241POPC   NC331211  24.610  38.818   9.450
 2241POPC   PO431212  24.526  39.521   9.527
 2241POPC   GL131213  24.716  39.270   9.236
 2241POPC   GL231214  24.404  39.141   9.107
 2241POPC   C1A31215  24.848  39.264   8.819
 2241POPC   D2A31216  24.732  39.103   8.424
 2241POPC   C3A31217  24.707  39.389   8.084
 2241POPC   C4A31218  24.685  39.266   7.664
 2241POPC   C1B31219  24.189  39.200   8.730
 2241POPC   C2B31220  24.238  39.344   8.341
 2241POPC   C3B31221  24.250  39.205   7.945
 2241POPC   C4B31222  24.103  39.468   7.609
 2242POPC   NC331223  40.237  12.093   9.511
 2242POPC   PO431224  39.745  12.323   9.140
 2242POPC   GL131225  40.048  11.989   9.002
 2242POPC   GL231226  40.413  11.893   9.067
 2242POPC   C1A31227  39.857  11.918   8.619
 2242POPC   D2A31228  39.777  12.293   8.362
 2242POPC   C3A31229  39.923  12.210   7.956
 2242POPC   C4A31230  39.919  11.803   7.845
 2242POPC   C1B31231  40.361  11.991   8.627
 2242POPC   C2B31232  40.218  11.930   8.251
 2242POPC   C3B31233  40.407  11.717   7.913
 2242POPC   C4B31234  40.416  12.031   7.637
 2243POPC   NC331235   2.310  43.142   9.326
 2243POPC   PO431236   2.898  43.041   9.674
 2243POPC   GL131237   3.034  42.910   9.246
 2243POPC   GL231238   2.742  43.006   9.056
 2243POPC   C1A31239   3.178  42.913   8.803
 2243POPC   D2A31240   2.883  42.986   8.462
 2243POPC   C3A31241   3.037  43.072   8.064
 2243POPC   C4A31242   2.861  42.983   7.691
 2243POPC   C1B31243   2.933  43.376   8.820
 2243POPC   C2B31244   2.837  43.527   8.390
 2243POPC   C3B31245   2.649  43.396   7.996
 2243POPC   C4B31246   2.933  43.473   7.677
 2244POPC   NC331247  42.303   0.723   9.597
 2244POPC   PO431248  42.948   0.643   9.420
 2244POPC   GL131249  42.555   0.593   9.138
 2244POPC   GL231250  42.185   0.465   9.156
 2244POPC   C1A31251  42.435   0.451   8.707
 2244POPC   D2A31252  42.500   0.702   8.366
 2244POPC   C3A31253  42.411   0.489   8.010
 2244POPC   C4A31254  42.327   0.615   7.629
 2244POPC   C1B31255  41.971   0.237   8.782
 2244POPC   C2B31256  41.764   0.040   8.403
 2244POPC   C3B31257  41.772   0.051   7.956
 2244POPC   C4B31258  42.112   0.156   7.714
 2245POPC   NC331259  12.774  32.964   9.705
 2245POPC   PO431260  13.207  33.454   9.442
 2245POPC   GL131261  12.956  33.334   9.060
 2245POPC   GL231262  12.576  33.260   9.097
 2245POPC   C1A31263  13.037  33.173   8.654
 2245POPC   D2A31264  12.917  33.036   8.240
 2245POPC   C3A31265  12.709  33.294   7.974
 2245POPC   C4A31266  12.872  33.434   7.626
 2245POPC   C1B31267  12.590  32.907   8.790
 2245POPC   C2B31268  12.473  32.795   8.369
 2245POPC   C3B31269  12.549  32.808   7.922
 2245POPC   C4B31270  12.531  33.069   7.555
 2246POPC   NC331271   7.620  42.927   9.503
 2246POPC   PO431272   7.367  43.535   9.413
 2246POPC   GL131273   7.580  43.287   9.111
 2246POPC   GL231274   7.419  42.959   9.064
 2246POPC   C1A31275   7.424  43.317   8.711
 2246POPC   D2A31276   7.072  43.381   8.511
 2246POPC   C3A31277   7.189  43.432   8.119
 2246POPC   C4A31278   7.169  43.411   7.700
 2246POPC   C1B31279   7.523  42.804   8.691
 2246POPC   C2B31280   7.393  42.990   8.283
 2246POPC   C3B31281   7.447  42.984   7.826
 2246POPC   C4B31282   7.416  42.693   7.477
 2247POPC   NC331283  14.552  40.360   9.473
 2247POPC   PO431284  14.301  39.819   9.605
 2247POPC   GL131285  14.200  39.910   9.141
 2247POPC   GL231286  14.376  40.190   9.028
 2247POPC   C1A31287  14.207  39.832   8.673
 2247POPC   D2A31288  14.355  39.767   8.241
 2247POPC   C3A31289  14.073  39.785   7.875
 2247POPC   C4A31290  14.089  39.914   7.453
 2247POPC   C1B31291  14.616  40.347   8.681
 2247POPC   C2B31292  14.713  40.196   8.254
 2247POPC   C3B31293  14.433  40.156   7.902
 2247POPC   C4B31294  14.382  40.316   7.502
 2248POPC   NC331295   9.276  21.330   9.706
 2248POPC   PO431296   8.585  21.221   9.676
 2248POPC   GL131297   8.760  21.223   9.251
 2248POPC   GL231298   9.090  21.389   9.199
 2248POPC   C1A31299   8.955  21.079   8.843
 2248POPC   D2A31300   9.205  21.220   8.492
 2248POPC   C3A31301   9.006  21.110   8.110
 2248POPC   C4A31302   8.832  21.121   7.715
 2248POPC   C1B31303   8.783  21.572   8.877
 2248POPC   C2B31304   8.755  21.488   8.441
 2248POPC   C3B31305   9.039  21.630   8.108
 2248POPC   C4B31306   9.117  21.540   7.654
 2249POPC   NC331307   3.805  34.145   9.776
 2249POPC   PO431308   3.522  33.634   9.426
 2249POPC   GL131309   3.347  33.744   9.072
 2249POPC   GL231310   3.329  34.093   8.954
 2249POPC   C1A31311   3.567  33.698   8.716
 2249POPC   D2A31312   3.405  33.882   8.400
 2249POPC   C3A31313   3.541  33.736   8.040
 2249POPC   C4A31314   3.306  33.898   7.735
 2249POPC   C1B31315   3.693  34.204   8.656
 2249POPC   C2B31316   3.853  34.086   8.263
 2249POPC   C3B31317   3.824  34.109   7.824
 2249POPC   C4B31318   4.096  33.977   7.472
 2250POPC   NC331319   2.966  26.631   9.511
 2250POPC   PO431320   2.424  26.998   9.662
 2250POPC   GL131321   2.556  26.897   9.238
 2250POPC   GL231322   2.741  26.643   9.063
 2250POPC   C1A31323   2.392  26.945   8.829
 2250POPC   D2A31324   2.375  26.700   8.458
 2250POPC   C3A31325   2.409  26.928   8.080
 2250POPC   C4A31326   2.681  26.855   7.743
 2250POPC   C1B31327   3.023  26.855   8.767
 2250POPC   C2B31328   3.000  27.015   8.329
 2250POPC   C3B31329   3.153  26.856   7.929
 2250POPC   C4B31330   3.442  26.836   7.572
 2251POPC   NC331331   1.649  28.502   9.438
 2251POPC   PO431332   1.101  28.167   9.686
 2251POPC   GL131333   1.140  28.209   9.191
 2251POPC   GL231334   1.340  27.939   9.020
 2251POPC   C1A31335   0.977  28.231   8.736
 2251POPC   D2A31336   0.914  28.529   8.333
 2251POPC   C3A31337   1.005  28.451   7.878
 2251POPC   C4A31338   1.038  28.587   7.403
 2251POPC   C1B31339   1.465  28.058   8.634
 2251POPC   C2B31340   1.316  28.200   8.259
 2251POPC   C3B31341   1.535  28.290   7.907
 2251POPC   C4B31342   1.454  28.348   7.505
 2252POPC   NC331343  13.350   0.770   9.457
 2252POPC   PO431344  13.863   0.311   9.499
 2252POPC   GL131345  13.652   0.431   9.126
 2252POPC   GL231346  13.767   0.761   9.152
 2252POPC   C1A31347  13.615   0.353   8.667
 2252POPC   D2A31348  13.322   0.531   8.348
 2252POPC   C3A31349  13.457   0.501   7.911
 2252POPC   C4A31350  13.761   0.210   7.764
 2252POPC   C1B31351  13.529   0.842   8.794
 2252POPC   C2B31352  13.740   0.838   8.398
 2252POPC   C3B31353  13.877   0.984   8.020
 2252POPC   C4B31354  13.827   0.775   7.637
 2253POPC   NC331355  14.410  33.319   9.463
 2253POPC   PO431356  13.899  32.763   9.654
 2253POPC   GL131357  14.248  32.865   9.277
 2253POPC   GL231358  14.182  33.170   9.039
 2253POPC   C1A31359  14.427  32.771   8.828
 2253POPC   D2A31360  14.484  32.987   8.417
 2253POPC   C3A31361  14.511  32.823   8.001
 2253POPC   C4A31362  14.168  32.734   7.724
 2253POPC   C1B31363  14.608  33.306   8.794
 2253POPC   C2B31364  14.634  33.505   8.407
 2253POPC   C3B31365  14.441  33.364   8.053
 2253POPC   C4B31366  14.385  33.226   7.657
 2254POPC   NC331367   7.476  29.720   9.353
 2254POPC   PO431368   7.071  29.127   9.399
 2254POPC   GL131369   7.357  29.087   9.035
 2254POPC   GL231370   7.714  29.176   9.108
 2254POPC   C1A31371   7.394  29.094   8.579
 2254POPC   D2A31372   7.628  29.021   8.199
 2254POPC   C3A31373   7.360  28.916   7.851
 2254POPC   C4A31374   7.276  29.150   7.468
 2254POPC   C1B31375   7.641  29.503   8.784
 2254POPC   C2B31376   7.507  29.550   8.375
 2254POPC   C3B31377   7.328  29.402   7.995
 2254POPC   C4B31378   7.646  29.396   7.700
 2255POPC   NC331379   8.068  11.867   9.549
 2255POPC   PO431380   8.735  11.893   9.698
 2255POPC   GL131381   8.492  11.813   9.230
 2255POPC   GL231382   8.155  11.769   9.065
 2255POPC   C1A31383   8.477  11.987   8.754
 2255POPC   D2A31384   8.202  12.236   8.544
 2255POPC   C3A31385   8.159  12.187   8.130
 2255POPC   C4A31386   8.240  12.278   7.725
 2255POPC   C1B31387   7.926  11.817   8.675
 2255POPC   C2B31388   7.813  11.754   8.225
 2255POPC   C3B31389   7.945  11.845   7.802
 2255POPC   C4B31390   7.858  11.798   7.333
 2256POPC   NC331391  15.732  29.058   9.546
 2256POPC   PO431392  16.096  29.587   9.668
 2256POPC   GL131393  16.080  29.345   9.259
 2256POPC   GL231394  16.159  28.996   9.230
 2256POPC   C1A31395  15.799  29.210   8.892
 2256POPC   D2A31396  15.611  29.332   8.476
 2256POPC   C3A31397  15.805  29.286   8.058
 2256POPC   C4A31398  15.858  29.019   7.705
 2256POPC   C1B31399  16.286  29.112   8.800
 2256POPC   C2B31400  16.214  29.287   8.377
 2256POPC   C3B31401  16.311  29.170   7.929
 2256POPC   C4B31402  16.346  28.979   7.498
 2257POPC   NC331403  22.312   3.304   9.666
 2257POPC   PO431404  21.809   3.665   9.561
 2257POPC   GL131405  22.029   3.554   9.207
 2257POPC   GL231406  22.373   3.464   9.193
 2257POPC   C1A31407  22.047   3.423   8.785
 2257POPC   D2A31408  22.202   3.392   8.395
 2257POPC   C3A31409  21.991   3.455   8.011
 2257POPC   C4A31410  21.922   3.202   7.629
 2257POPC   C1B31411  22.471   3.716   8.828
 2257POPC   C2B31412  22.461   3.830   8.438
 2257POPC   C3B31413  22.483   3.631   8.045
 2257POPC   C4B31414  22.375   3.507   7.645
 2258POPC   NC331415  40.506  17.859   9.413
 2258POPC   PO431416  40.948  17.303   9.482
 2258POPC   GL131417  40.669  17.408   9.199
 2258POPC   GL231418  40.927  17.595   9.037
 2258POPC   C1A31419  40.571  17.315   8.796
 2258POPC   D2A31420  40.770  17.551   8.449
 2258POPC   C3A31421  40.509  17.728   8.060
 2258POPC   C4A31422  40.600  17.388   7.734
 2258POPC   C1B31423  40.854  17.944   8.772
 2258POPC   C2B31424  40.882  18.021   8.311
 2258POPC   C3B31425  41.003  17.672   8.004
 2258POPC   C4B31426  41.063  17.645   7.542
 2259POPC   NC331427  42.645  42.759   9.414
 2259POPC   PO431428  42.152  43.196   9.449
 2259POPC   GL131429  42.474  43.183   9.152
 2259POPC   GL231430  42.483  42.878   8.953
 2259POPC   C1A31431  42.449  43.346   8.753
 2259POPC   D2A31432  42.369  43.166   8.350
 2259POPC   C3A31433  42.428  43.363   7.945
 2259POPC   C4A31434  42.519  43.043   7.668
 2259POPC   C1B31435  42.089  42.945   8.740
 2259POPC   C2B31436  41.898  42.961   8.346
 2259POPC   C3B31437  42.075  42.921   7.936
 2259POPC   C4B31438  42.145  42.765   7.511
 2260POPC   NC331439   2.518  44.332   9.583
 2260POPC   PO431440   3.005  44.804   9.517
 2260POPC   GL131441   2.986  44.687   9.133
 2260POPC   GL231442   2.650  44.643   9.186
 2260POPC   C1A31443   3.160  44.711   8.710
 2260POPC   D2A31444   3.119  44.458   8.326
 2260POPC   C3A31445   2.902  44.700   7.953
 2260POPC   C4A31446   2.796  44.446   7.572
 2260POPC   C1B31447   2.639  44.690   8.767
 2260POPC   C2B31448   2.622  44.530   8.378
 2260POPC   C3B31449   2.531  44.352   7.997
 2260POPC   C4B31450   2.284  44.509   7.661
 2261POPC   NC331451  39.554  22.105   9.520
 2261POPC   PO431452  39.000  22.413   9.753
 2261POPC   GL131453  39.162  22.164   9.216
 2261POPC   GL231454  39.213  22.475   8.927
 2261POPC   C1A31455  39.297  21.991   8.752
 2261POPC   D2A31456  39.446  22.199   8.341
 2261POPC   C3A31457  39.365  21.954   7.955
 2261POPC   C4A31458  38.931  21.823   7.865
 2261POPC   C1B31459  38.920  22.325   8.668
 2261POPC   C2B31460  38.926  22.082   8.337
 2261POPC   C3B31461  39.035  22.339   8.026
 2261POPC   C4B31462  39.438  22.511   7.883
 2262POPC   NC331463  10.827  29.040   9.458
 2262POPC   PO431464  10.235  29.414   9.438
 2262POPC   GL131465  10.256  29.226   9.049
 2262POPC   GL231466  10.489  28.974   9.070
 2262POPC   C1A31467  10.418  29.313   8.632
 2262POPC   D2A31468  10.768  29.287   8.319
 2262POPC   C3A31469  10.538  29.084   8.023
 2262POPC   C4A31470  10.364  28.865   7.715
 2262POPC   C1B31471  10.819  28.994   8.756
 2262POPC   C2B31472  10.720  28.776   8.362
 2262POPC   C3B31473  10.736  28.568   7.968
 2262POPC   C4B31474  10.818  28.718   7.527
 2263POPC   NC331475  13.019   2.373   9.447
 2263POPC   PO431476  13.733   2.074   9.498
 2263POPC   GL131477  13.404   2.125   9.196
 2263POPC   GL231478  13.209   1.841   9.191
 2263POPC   C1A31479  13.507   2.220   8.778
 2263POPC   D2A31480  13.455   1.995   8.352
 2263POPC   C3A31481  13.584   2.168   7.962
 2263POPC   C4A31482  13.837   2.135   7.586
 2263POPC   C1B31483  13.238   1.785   8.774
 2263POPC   C2B31484  13.175   1.557   8.400
 2263POPC   C3B31485  13.496   1.512   8.100
 2263POPC   C4B31486  13.527   1.732   7.693
 2264POPC   NC331487  43.054   1.091   9.540
 2264POPC   PO431488  42.532   1.581   9.450
 2264POPC   GL131489  42.868   1.373   9.185
 2264POPC   GL231490  42.859   1.031   9.059
 2264POPC   C1A31491  43.110   1.442   8.810
 2264POPC   D2A31492  43.026   1.408   8.370
 2264POPC   C3A31493  43.280   1.484   7.997
 2264POPC   C4A31494  43.284   1.527   7.546
 2264POPC   C1B31495  43.254   0.845   8.879
 2264POPC   C2B31496  43.461   0.816   8.480
 2264POPC   C3B31497  43.196   0.983   8.135
 2264POPC   C4B31498  43.279   1.022   7.702
 2265POPC   NC331499  18.303  44.393   9.523
 2265POPC   PO431500  18.420   0.083   9.457
 2265POPC   GL131501  18.445  44.748   9.199
 2265POPC   GL231502  18.087  44.777   9.149
 2265POPC   C1A31503  18.336  44.452   8.840
 2265POPC   D2A31504  18.308  44.591   8.411
 2265POPC   C3A31505  18.372  44.331   8.056
 2265POPC   C4A31506  18.256  44.536   7.685
 2265POPC   C1B31507  18.304  44.964   8.766
 2265POPC   C2B31508  18.467   0.092   8.377
 2265POPC   C3B31509  18.287  44.961   7.985
 2265POPC   C4B31510  18.304   0.052   7.561
 2266POPC   NC331511  40.040  32.670   9.475
 2266POPC   PO431512  40.325  33.359   9.525
 2266POPC   GL131513  40.256  33.030   9.210
 2266POPC   GL231514  40.103  33.223   9.001
 2266POPC   C1A31515  40.326  32.771   8.813
 2266POPC   D2A31516  40.269  32.936   8.380
 2266POPC   C3A31517  39.968  32.805   8.073
 2266POPC   C4A31518  40.012  32.808   7.634
 2266POPC   C1B31519  39.857  32.964   8.719
 2266POPC   C2B31520  39.633  33.071   8.365
 2266POPC   C3B31521  39.736  33.305   8.021
 2266POPC   C4B31522  39.715  33.228   7.615
 2267POPC   NC331523  28.461   8.615   9.620
 2267POPC   PO431524  28.038   9.035   9.229
 2267POPC   GL131525  28.305   8.980   8.937
 2267POPC   GL231526  28.628   8.854   9.127
 2267POPC   C1A31527  28.281   9.192   8.548
 2267POPC   D2A31528  28.293   9.313   8.119
 2267POPC   C3A31529  28.272   9.011   7.809
 2267POPC   C4A31530  28.208   8.963   7.342
 2267POPC   C1B31531  28.767   9.028   8.717
 2267POPC   C2B31532  28.787   9.264   8.323
 2267POPC   C3B31533  28.762   9.087   7.928
 2267POPC   C4B31534  28.676   9.034   7.500
 2268POPC   NC331535  12.127  14.832   9.470
 2268POPC   PO431536  11.971  15.409   9.855
 2268POPC   GL131537  11.933  15.310   9.373
 2268POPC   GL231538  12.244  15.453   9.214
 2268POPC   C1A31539  11.966  15.170   8.906
 2268POPC   D2A31540  12.251  14.936   8.592
 2268POPC   C3A31541  12.174  15.000   8.145
 2268POPC   C4A31542  11.768  15.123   7.946
 2268POPC   C1B31543  12.357  15.514   8.736
 2268POPC   C2B31544  12.264  15.629   8.281
 2268POPC   C3B31545  12.267  15.411   7.846
 2268POPC   C4B31546  12.410  15.386   7.360
 2269POPC   NC331547  16.457  29.735   9.419
 2269POPC   PO431548  17.042  29.611   9.347
 2269POPC   GL131549  16.820  30.000   9.138
 2269POPC   GL231550  16.485  30.062   9.005
 2269POPC   C1A31551  16.864  30.081   8.675
 2269POPC   D2A31552  16.745  30.115   8.246
 2269POPC   C3A31553  17.049  29.922   7.975
 2269POPC   C4A31554  17.183  29.963   7.559
 2269POPC   C1B31555  16.496  29.707   8.711
 2269POPC   C2B31556  16.637  29.616   8.284
 2269POPC   C3B31557  16.557  29.748   7.859
 2269POPC   C4B31558  16.369  29.502   7.536
 2270POPC   NC331559  37.605  32.764   9.847
 2270POPC   PO431560  37.706  32.137   9.618
 2270POPC   GL131561  37.471  32.202   9.231
 2270POPC   GL231562  37.498  32.556   9.174
 2270POPC   C1A31563  37.545  32.200   8.769
 2270POPC   D2A31564  37.884  32.139   8.464
 2270POPC   C3A31565  37.820  32.207   8.027
 2270POPC   C4A31566  37.657  32.040   7.632
 2270POPC   C1B31567  37.432  32.690   8.737
 2270POPC   C2B31568  37.453  32.475   8.301
 2270POPC   C3B31569  37.300  32.236   7.923
 2270POPC   C4B31570  37.282  32.325   7.437
 2271POPC   NC331571  32.501  17.251   9.519
 2271POPC   PO431572  32.086  17.809   9.600
 2271POPC   GL131573  32.052  17.551   9.271
 2271POPC   GL231574  32.364  17.497   9.102
 2271POPC   C1A31575  31.941  17.624   8.859
 2271POPC   D2A31576  31.941  17.322   8.535
 2271POPC   C3A31577  32.180  17.335   8.152
 2271POPC   C4A31578  31.992  17.476   7.768
 2271POPC   C1B31579  32.443  17.370   8.685
 2271POPC   C2B31580  32.669  17.580   8.355
 2271POPC   C3B31581  32.580  17.626   7.925
 2271POPC   C4B31582  32.499  17.290   7.693
 2272POPC   NC331583  24.088  29.105   9.488
 2272POPC   PO431584  23.489  29.575   9.486
 2272POPC   GL131585  23.691  29.507   9.078
 2272POPC   GL231586  24.051  29.430   9.044
 2272POPC   C1A31587  23.628  29.306   8.669
 2272POPC   D2A31588  23.422  29.212   8.272
 2272POPC   C3A31589  23.625  29.153   7.865
 2272POPC   C4A31590  24.022  29.286   7.628
 2272POPC   C1B31591  24.014  29.001   8.826
 2272POPC   C2B31592  23.879  28.867   8.389
 2272POPC   C3B31593  24.064  28.810   7.963
 2272POPC   C4B31594  24.220  28.512   7.649
 2273POPC   NC331595   8.537  19.641   9.462
 2273POPC   PO431596   7.874  19.930   9.578
 2273POPC   GL131597   8.135  19.862   9.207
 2273POPC   GL231598   8.435  19.966   9.097
 2273POPC   C1A31599   8.065  19.780   8.802
 2273POPC   D2A31600   8.240  19.756   8.431
 2273POPC   C3A31601   7.999  19.914   8.131
 2273POPC   C4A31602   8.151  19.868   7.721
 2273POPC   C1B31603   8.596  19.664   8.819
 2273POPC   C2B31604   8.757  19.783   8.449
 2273POPC   C3B31605   8.582  19.857   8.046
 2273POPC   C4B31606   8.836  19.814   7.707
 2274POPC   NC331607   2.197  23.469   9.336
 2274POPC   PO431608   1.741  23.843   9.270
 2274POPC   GL131609   1.937  23.771   8.923
 2274POPC   GL231610   2.257  23.895   9.033
 2274POPC   C1A31611   1.839  23.684   8.488
 2274POPC   D2A31612   1.950  23.931   8.133
 2274POPC   C3A31613   1.895  23.827   7.716
 2274POPC   C4A31614   2.116  23.911   7.329
 2274POPC   C1B31615   2.371  23.658   8.678
 2274POPC   C2B31616   2.299  23.464   8.291
 2274POPC   C3B31617   2.370  23.683   7.921
 2274POPC   C4B31618   2.243  23.482   7.564
 2275POPC   NC331619  37.181   5.039   9.580
 2275POPC   PO431620  36.865   5.465   9.261
 2275POPC   GL131621  36.967   5.083   9.086
 2275POPC   GL231622  37.217   4.825   9.117
 2275POPC   C1A31623  36.873   5.024   8.677
 2275POPC   D2A31624  36.999   5.254   8.286
 2275POPC   C3A31625  36.729   5.347   7.955
 2275POPC   C4A31626  36.743   5.211   7.561
 2275POPC   C1B31627  37.139   4.584   8.733
 2275POPC   C2B31628  36.969   4.673   8.312
 2275POPC   C3B31629  37.037   4.891   7.932
 2275POPC   C4B31630  37.123   4.820   7.479
 2276POPC   NC331631  16.872   0.615   9.450
 2276POPC   PO431632  16.242   0.522   9.550
 2276POPC   GL131633  16.491   0.577   9.121
 2276POPC   GL231634  16.652   0.257   9.119
 2276POPC   C1A31635  16.913   0.555   8.806
 2276POPC   D2A31636  16.993   0.390   8.403
 2276POPC   C3A31637  16.933   0.607   8.021
 2276POPC   C4A31638  17.034   0.468   7.601
 2276POPC   C1B31639  16.480   0.297   8.676
 2276POPC   C2B31640  16.515   0.300   8.207
 2276POPC   C3B31641  16.705   0.153   7.817
 2276POPC   C4B31642  16.537   0.135   7.361
 2277POPC   NC331643  22.597  32.532   9.281
 2277POPC   PO431644  22.040  32.454   9.638
 2277POPC   GL131645  22.133  32.234   9.252
 2277POPC   GL231646  22.085  32.522   9.087
 2277POPC   C1A31647  22.384  32.084   8.867
 2277POPC   D2A31648  22.241  31.978   8.438
 2277POPC   C3A31649  22.436  32.096   8.052
 2277POPC   C4A31650  22.289  31.872   7.685
 2277POPC   C1B31651  22.061  32.410   8.651
 2277POPC   C2B31652  21.923  32.371   8.245
 2277POPC   C3B31653  21.997  32.273   7.823
 2277POPC   C4B31654  22.395  32.372   7.586
 2278POPC   NC331655  16.385  10.935   9.338
 2278POPC   PO431656  16.786  10.545   9.768
 2278POPC   GL131657  16.702  10.525   9.299
 2278POPC   GL231658  16.319  10.472   9.165
 2278POPC   C1A31659  16.771  10.389   8.845
 2278POPC   D2A31660  16.613  10.413   8.394
 2278POPC   C3A31661  16.867  10.366   8.006
 2278POPC   C4A31662  17.171  10.300   7.663
 2278POPC   C1B31663  16.336  10.667   8.756
 2278POPC   C2B31664  16.298  10.798   8.356
 2278POPC   C3B31665  16.411  10.628   7.954
 2278POPC   C4B31666  16.333  10.459   7.570
 2279POPC   NC331667  13.035  13.797   9.398
 2279POPC   PO431668  12.396  13.533   9.465
 2279POPC   GL131669  12.646  13.594   9.128
 2279POPC   GL231670  12.967  13.377   9.151
 2279POPC   C1A31671  12.717  13.521   8.719
 2279POPC   D2A31672  12.558  13.287   8.407
 2279POPC   C3A31673  12.662  13.575   8.119
 2279POPC   C4A31674  12.506  13.529   7.711
 2279POPC   C1B31675  13.217  13.518   8.778
 2279POPC   C2B31676  13.065  13.768   8.407
 2279POPC   C3B31677  13.133  13.623   7.964
 2279POPC   C4B31678  12.911  13.218   7.843
 2280POPC   NC331679   2.931  17.138   9.693
 2280POPC   PO431680   2.443  16.821   9.555
 2280POPC   GL131681   2.544  17.050   9.164
 2280POPC   GL231682   2.877  17.192   9.150
 2280POPC   C1A31683   2.639  17.036   8.722
 2280POPC   D2A31684   2.838  16.893   8.343
 2280POPC   C3A31685   2.646  16.823   7.921
 2280POPC   C4A31686   2.484  16.541   7.548
 2280POPC   C1B31687   3.130  16.979   8.798
 2280POPC   C2B31688   3.326  17.045   8.373
 2280POPC   C3B31689   3.195  16.946   7.937
 2280POPC   C4B31690   3.284  17.074   7.522
 2281POPC   NC331691  34.859  14.042   9.482
 2281POPC   PO431692  34.731  14.739   9.595
 2281POPC   GL131693  34.743  14.489   9.250
 2281POPC   GL231694  34.686  14.762   9.090
 2281POPC   C1A31695  34.708  14.280   8.847
 2281POPC   D2A31696  34.426  14.250   8.499
 2281POPC   C3A31697  34.618  14.320   8.099
 2281POPC   C4A31698  34.350  14.277   7.788
 2281POPC   C1B31699  34.447  14.708   8.763
 2281POPC   C2B31700  34.631  14.768   8.379
 2281POPC   C3B31701  34.441  14.786   8.012
 2281POPC   C4B31702  34.550  14.723   7.648
 2282POPC   NC331703  37.297  44.816   9.413
 2282POPC   PO431704  36.717  44.406   9.462
 2282POPC   GL131705  37.042  44.439   9.152
 2282POPC   GL231706  37.167  44.760   8.932
 2282POPC   C1A31707  37.083  44.297   8.767
 2282POPC   D2A31708  37.018  44.569   8.457
 2282POPC   C3A31709  36.915  44.434   8.101
 2282POPC   C4A31710  37.139  44.307   7.765
 2282POPC   C1B31711  36.731  44.760   8.836
 2282POPC   C2B31712  36.502  44.681   8.451
 2282POPC   C3B31713  36.439  44.592   7.994
 2282POPC   C4B31714  36.780  44.726   7.708
 2283POPC   NC331715  37.946  12.989   9.372
 2283POPC   PO431716  37.318  12.812   9.639
 2283POPC   GL131717  37.474  12.870   9.218
 2283POPC   GL231718  37.448  12.557   9.144
 2283POPC   C1A31719  37.664  12.884   8.784
 2283POPC   D2A31720  37.756  12.670   8.375
 2283POPC   C3A31721  37.897  12.864   8.005
 2283POPC   C4A31722  37.682  13.112   7.715
 2283POPC   C1B31723  37.391  12.464   8.725
 2283POPC   C2B31724  37.259  12.762   8.422
 2283POPC   C3B31725  37.357  12.789   7.987
 2283POPC   C4B31726  37.626  12.516   7.746
 2284POPC   NC331727  32.241   3.077   9.425
 2284POPC   PO431728  31.986   2.519   9.444
 2284POPC   GL131729  32.233   2.670   9.100
 2284POPC   GL231730  32.586   2.485   9.019
 2284POPC   C1A31731  32.038   2.816   8.737
 2284POPC   D2A31732  31.901   2.649   8.340
 2284POPC   C3A31733  32.162   2.859   8.018
 2284POPC   C4A31734  32.243   2.697   7.613
 2284POPC   C1B31735  32.547   2.820   8.720
 2284POPC   C2B31736  32.547   3.015   8.329
 2284POPC   C3B31737  32.682   2.848   7.964
 2284POPC   C4B31738  32.689   2.508   7.728
 2285POPC   NC331739  35.056  35.467   9.435
 2285POPC   PO431740  34.420  35.168   9.403
 2285POPC   GL131741  34.417  35.371   9.050
 2285POPC   GL231742  34.679  35.619   9.096
 2285POPC   C1A31743  34.340  35.149   8.675
 2285POPC   D2A31744  34.581  34.891   8.401
 2285POPC   C3A31745  34.471  35.055   8.013
 2285POPC   C4A31746  34.588  35.265   7.628
 2285POPC   C1B31747  34.525  35.665   8.655
 2285POPC   C2B31748  34.278  35.493   8.296
 2285POPC   C3B31749  34.409  35.639   7.909
 2285POPC   C4B31750  34.441  35.808   7.468
 2286POPC   NC331751   4.663  30.619   9.598
 2286POPC   PO431752   4.075  30.829   9.808
 2286POPC   GL131753   4.248  30.564   9.323
 2286POPC   GL231754   4.392  30.794   9.041
 2286POPC   C1A31755   4.322  30.350   8.882
 2286POPC   D2A31756   4.452  30.571   8.541
 2286POPC   C3A31757   4.225  30.460   8.184
 2286POPC   C4A31758   4.350  30.431   7.756
 2286POPC   C1B31759   4.309  31.076   8.704
 2286POPC   C2B31760   4.148  31.114   8.323
 2286POPC   C3B31761   4.325  31.131   7.937
 2286POPC   C4B31762   4.346  30.890   7.568
 2287POPC   NC331763  29.311  12.670   9.561
 2287POPC   PO431764  28.896  13.138   9.443
 2287POPC   GL131765  29.139  12.908   9.159
 2287POPC   GL231766  29.508  12.941   9.183
 2287POPC   C1A31767  29.207  12.970   8.765
 2287POPC   D2A31768  28.904  13.000   8.479
 2287POPC   C3A31769  29.056  12.999   8.073
 2287POPC   C4A31770  28.921  12.842   7.681
 2287POPC   C1B31771  29.662  12.695   8.797
 2287POPC   C2B31772  29.489  12.805   8.378
 2287POPC   C3B31773  29.433  12.667   7.953
 2287POPC   C4B31774  29.426  12.911   7.574
 2288POPC   NC331775   4.586  23.215   9.370
 2288POPC   PO431776   4.169  22.788   9.502
 2288POPC   GL131777   4.106  22.984   9.102
 2288POPC   GL231778   4.031  23.316   9.225
 2288POPC   C1A31779   4.445  22.945   8.778
 2288POPC   D2A31780   4.585  23.034   8.344
 2288POPC   C3A31781   4.593  22.702   8.062
 2288POPC   C4A31782   4.373  22.766   7.698
 2288POPC   C1B31783   4.272  23.445   8.849
 2288POPC   C2B31784   4.444  23.518   8.448
 2288POPC   C3B31785   4.374  23.452   8.009
 2288POPC   C4B31786   4.656  23.173   7.782
 2289POPC   NC331787   1.093  32.462   9.873
 2289POPC   PO431788   1.547  32.038   9.804
 2289POPC   GL131789   1.458  32.245   9.363
 2289POPC   GL231790   1.081  32.355   9.300
 2289POPC   C1A31791   1.376  32.262   8.884
 2289POPC   D2A31792   1.304  32.492   8.462
 2289POPC   C3A31793   1.316  32.255   8.065
 2289POPC   C4A31794   1.234  31.938   7.771
 2289POPC   C1B31795   0.979  32.613   8.883
 2289POPC   C2B31796   0.813  32.673   8.422
 2289POPC   C3B31797   0.843  32.472   7.970
 2289POPC   C4B31798   0.849  32.412   7.490
 2290POPC   NC331799  39.130   0.205   9.576
 2290POPC   PO431800  39.018  44.464   9.479
 2290POPC   GL131801  38.984  44.631   9.076
 2290POPC   GL231802  39.256  44.831   9.159
 2290POPC   C1A31803  39.069  44.633   8.655
 2290POPC   D2A31804  39.366  44.413   8.448
 2290POPC   C3A31805  39.181  44.312   8.074
 2290POPC   C4A31806  39.325  44.346   7.687
 2290POPC   C1B31807  39.333   0.041   8.770
 2290POPC   C2B31808  39.469  44.915   8.370
 2290POPC   C3B31809  39.368  44.889   7.937
 2290POPC   C4B31810  39.560   0.165   7.650
 2291POPC   NC331811  32.067  19.641   9.572
 2291POPC   PO431812  32.482  20.123   9.482
 2291POPC   GL131813  32.349  20.056   9.074
 2291POPC   GL231814  32.183  19.725   9.060
 2291POPC   C1A31815  32.482  19.896   8.684
 2291POPC   D2A31816  32.251  20.099   8.391
 2291POPC   C3A31817  32.406  19.971   8.043
 2291POPC   C4A31818  32.179  20.015   7.712
 2291POPC   C1B31819  31.999  19.711   8.643
 2291POPC   C2B31820  32.252  19.550   8.311
 2291POPC   C3B31821  32.156  19.541   7.889
 2291POPC   C4B31822  31.775  19.699   7.778
 2292POPC   NC331823  19.327  14.043   9.808
 2292POPC   PO431824  18.955  13.560   9.692
 2292POPC   GL131825  19.077  13.566   9.232
 2292POPC   GL231826  18.910  13.819   9.014
 2292POPC   C1A31827  19.299  13.544   8.810
 2292POPC   D2A31828  19.124  13.672   8.403
 2292POPC   C3A31829  19.206  13.399   8.025
 2292POPC   C4A31830  19.213  13.638   7.622
 2292POPC   C1B31831  18.779  13.455   8.760
 2292POPC   C2B31832  18.839  13.257   8.358
 2292POPC   C3B31833  18.699  13.476   7.998
 2292POPC   C4B31834  18.772  13.408   7.578
 2293POPC   NC331835  14.892  34.192   9.392
 2293POPC   PO431836  15.381  33.815   9.708
 2293POPC   GL131837  15.184  33.834   9.219
 2293POPC   GL231838  14.925  33.551   9.165
 2293POPC   C1A31839  15.230  33.681   8.775
 2293POPC   D2A31840  15.345  33.536   8.357
 2293POPC   C3A31841  15.412  33.849   8.057
 2293POPC   C4A31842  15.331  33.706   7.657
 2293POPC   C1B31843  14.755  33.823   8.827
 2293POPC   C2B31844  14.858  33.957   8.390
 2293POPC   C3B31845  14.896  33.836   7.932
 2293POPC   C4B31846  14.849  33.570   7.524
 2294POPC   NC331847   5.223  22.207   9.665
 2294POPC   PO431848   5.421  21.582   9.670
 2294POPC   GL131849   5.218  21.794   9.325
 2294POPC   GL231850   5.101  22.089   9.156
 2294POPC   C1A31851   5.321  21.702   8.905
 2294POPC   D2A31852   5.322  21.759   8.506
 2294POPC   C3A31853   4.991  21.916   8.277
 2294POPC   C4A31854   4.970  22.070   7.864
 2294POPC   C1B31855   5.102  22.212   8.686
 2294POPC   C2B31856   5.064  22.430   8.244
 2294POPC   C3B31857   5.086  22.696   7.858
 2294POPC   C4B31858   4.945  22.850   7.438
 2295POPC   NC331859  25.759  20.332   9.176
 2295POPC   PO431860  25.266  20.433   9.580
 2295POPC   GL131861  25.232  20.534   9.127
 2295POPC   GL231862  24.966  20.783   9.043
 2295POPC   C1A31863  25.213  20.583   8.659
 2295POPC   D2A31864  25.097  20.406   8.286
 2295POPC   C3A31865  25.419  20.573   8.061
 2295POPC   C4A31866  25.512  20.865   7.773
 2295POPC   C1B31867  25.213  21.078   8.791
 2295POPC   C2B31868  25.338  21.000   8.372
 2295POPC   C3B31869  25.060  20.928   8.065
 2295POPC   C4B31870  24.979  21.067   7.693
 2296POPC   NC331871   8.188  20.259   9.524
 2296POPC   PO431872   8.195  20.895   9.359
 2296POPC   GL131873   8.109  20.715   9.015
 2296POPC   GL231874   8.322  20.460   9.077
 2296POPC   C1A31875   8.331  20.715   8.609
 2296POPC   D2A31876   8.575  20.815   8.242
 2296POPC   C3A31877   8.286  20.824   7.900
 2296POPC   C4A31878   7.822  20.724   7.789
 2296POPC   C1B31879   8.069  20.288   8.725
 2296POPC   C2B31880   7.986  20.445   8.292
 2296POPC   C3B31881   8.189  20.336   7.908
 2296POPC   C4B31882   8.509  20.183   7.612
 2297POPC   NC331883   8.552  17.047   9.481
 2297POPC   PO431884   9.194  16.886   9.426
 2297POPC   GL131885   8.905  16.821   9.136
 2297POPC   GL231886   8.777  16.510   9.118
 2297POPC   C1A31887   9.123  16.671   8.737
 2297POPC   D2A31888   9.279  16.798   8.315
 2297POPC   C3A31889   9.050  16.706   7.943
 2297POPC   C4A31890   9.032  16.986   7.600
 2297POPC   C1B31891   8.610  16.697   8.738
 2297POPC   C2B31892   8.771  16.853   8.400
 2297POPC   C3B31893   8.635  16.985   8.066
 2297POPC   C4B31894   8.549  16.814   7.719
 2298POPC   NC331895  36.644  42.542   9.469
 2298POPC   PO431896  36.831  41.881   9.652
 2298POPC   GL131897  36.949  42.112   9.227
 2298POPC   GL231898  36.719  42.317   9.025
 2298POPC   C1A31899  37.138  42.159   8.797
 2298POPC   D2A31900  36.853  42.228   8.457
 2298POPC   C3A31901  37.035  42.311   8.076
 2298POPC   C4A31902  37.339  42.133   7.794
 2298POPC   C1B31903  36.516  42.545   8.662
 2298POPC   C2B31904  36.698  42.708   8.290
 2298POPC   C3B31905  36.752  42.709   7.878
 2298POPC   C4B31906  37.025  42.505   7.605
 2299POPC   NC331907   0.299  27.286   9.405
 2299POPC   PO431908   0.729  27.835   9.324
 2299POPC   GL131909   0.640  27.439   9.070
 2299POPC   GL231910   0.320  27.389   8.908
 2299POPC   C1A31911   0.730  27.202   8.693
 2299POPC   D2A31912   0.930  27.315   8.300
 2299POPC   C3A31913   0.576  27.473   8.035
 2299POPC   C4A31914   0.422  27.357   7.632
 2299POPC   C1B31915   0.480  27.758   8.688
 2299POPC   C2B31916   0.427  28.012   8.319
 2299POPC   C3B31917   0.546  27.973   7.913
 2299POPC   C4B31918   0.318  27.861   7.544
 2300POPC   NC331919  31.786  44.778   9.470
 2300POPC   PO431920  31.219   0.128   9.662
 2300POPC   GL131921  31.155  44.984   9.211
 2300POPC   GL231922  31.433  44.775   9.096
 2300POPC   C1A31923  31.066  44.947   8.777
 2300POPC   D2A31924  31.178  44.761   8.388
 2300POPC   C3A31925  31.489  44.950   8.151
 2300POPC   C4A31926  31.420   0.019   7.715
 2300POPC   C1B31927  31.625  44.568   8.738
 2300POPC   C2B31928  31.518  44.411   8.315
 2300POPC   C3B31929  31.461  44.513   7.893
 2300POPC   C4B31930  31.604  44.389   7.460
 2301POPC   NC331931  41.166  43.674   9.498
 2301POPC   PO431932  41.853  43.963   9.546
 2301POPC   GL131933  41.753  43.983   9.160
 2301POPC   GL231934  41.421  43.838   9.093
 2301POPC   C1A31935  41.640  44.222   8.843
 2301POPC   D2A31936  41.416  44.064   8.549
 2301POPC   C3A31937  41.543  44.085   8.166
 2301POPC   C4A31938  41.527  44.107   7.771
 2301POPC   C1B31939  41.441  43.591   8.739
 2301POPC   C2B31940  41.448  43.497   8.331
 2301POPC   C3B31941  41.538  43.631   7.934
 2301POPC   C4B31942  41.934  43.812   7.798
 2302POPC   NC331943  24.795  39.590   9.906
 2302POPC   PO431944  24.464  40.097   9.679
 2302POPC   GL131945  24.517  40.102   9.237
 2302POPC   GL231946  24.849  40.244   9.200
 2302POPC   C1A31947  24.372  39.901   8.830
 2302POPC   D2A31948  24.517  39.778   8.406
 2302POPC   C3A31949  24.320  39.731   7.993
 2302POPC   C4A31950  24.446  39.840   7.563
 2302POPC   C1B31951  24.883  40.037   8.799
 2302POPC   C2B31952  24.816  40.185   8.377
 2302POPC   C3B31953  24.705  40.092   7.953
 2302POPC   C4B31954  24.741  40.310   7.539
 2303POPC   NC331955  14.067  36.428   9.588
 2303POPC   PO431956  14.593  36.065   9.692
 2303POPC   GL131957  14.428  36.144   9.283
 2303POPC   GL231958  14.782  36.198   9.211
 2303POPC   C1A31959  14.189  36.061   8.888
 2303POPC   D2A31960  14.141  36.314   8.482
 2303POPC   C3A31961  14.216  36.073   8.115
 2303POPC   C4A31962  14.334  36.206   7.692
 2303POPC   C1B31963  14.621  36.329   8.823
 2303POPC   C2B31964  14.634  36.159   8.435
 2303POPC   C3B31965  14.614  36.401   8.058
 2303POPC   C4B31966  14.798  36.446   7.631
 2304POPC   NC331967   1.498   6.600   9.411
 2304POPC   PO431968   2.199   6.425   9.441
 2304POPC   GL131969   2.207   6.606   9.052
 2304POPC   GL231970   1.860   6.727   9.045
 2304POPC   C1A31971   2.102   6.567   8.616
 2304POPC   D2A31972   1.880   6.338   8.313
 2304POPC   C3A31973   1.972   6.586   7.961
 2304POPC   C4A31974   2.354   6.617   7.745
 2304POPC   C1B31975   1.722   6.943   8.655
 2304POPC   C2B31976   1.890   7.067   8.269
 2304POPC   C3B31977   1.724   7.095   7.879
 2304POPC   C4B31978   1.717   6.777   7.565
 2305POPC   NC331979  10.770  18.872   9.329
 2305POPC   PO431980  10.121  18.935   9.440
 2305POPC   GL131981  10.367  19.170   9.137
 2305POPC   GL231982  10.671  19.387   9.102
 2305POPC   C1A31983  10.448  19.026   8.731
 2305POPC   D2A31984  10.618  19.020   8.323
 2305POPC   C3A31985  10.518  18.749   7.978
 2305POPC   C4A31986  10.449  18.914   7.570
 2305POPC   C1B31987  10.708  19.463   8.625
 2305POPC   C2B31988  10.626  19.501   8.135
 2305POPC   C3B31989  10.588  19.394   7.711
 2305POPC   C4B31990  10.831  19.194   7.356
 2306POPC   NC331991   1.845  19.762   9.413
 2306POPC   PO431992   2.291  20.385   9.376
 2306POPC   GL131993   2.046  20.094   9.030
 2306POPC   GL231994   1.889  19.706   8.921
 2306POPC   C1A31995   2.247  19.895   8.649
 2306POPC   D2A31996   2.139  19.616   8.375
 2306POPC   C3A31997   2.197  19.866   8.058
 2306POPC   C4A31998   2.278  19.778   7.657
 2306POPC   C1B31999   1.794  19.371   8.672
 2306POPC   C2B32000   1.616  19.285   8.289
 2306POPC   C3B32001   1.849  19.456   7.944
 2306POPC   C4B32002   1.786  19.873   7.773
 2307POPC   NC332003  40.348  42.094   9.399
 2307POPC   PO432004  39.742  42.366   9.495
 2307POPC   GL132005  39.878  42.314   9.134
 2307POPC   GL232006  39.902  41.987   9.155
 2307POPC   C1A32007  40.001  42.476   8.771
 2307POPC   D2A32008  40.177  42.397   8.398
 2307POPC   C3A32009  40.051  42.634   8.073
 2307POPC   C4A32010  40.081  42.492   7.659
 2307POPC   C1B32011  40.085  41.955   8.767
 2307POPC   C2B32012  39.885  41.972   8.375
 2307POPC   C3B32013  39.902  42.135   7.987
 2307POPC   C4B32014  39.548  42.163   7.724
 2308POPC   NC332015  43.313  42.297   9.531
 2308POPC   PO432016  42.623  42.329   9.611
 2308POPC   GL132017  42.890  42.298   9.193
 2308POPC   GL232018  43.269  42.365   9.043
 2308POPC   C1A32019  42.857  42.514   8.807
 2308POPC   D2A32020  43.150  42.460   8.504
 2308POPC   C3A32021  43.027  42.427   8.094
 2308POPC   C4A32022  43.033  42.636   7.731
 2308POPC   C1B32023  43.164  42.027   8.759
 2308POPC   C2B32024  43.313  42.007   8.338
 2308POPC   C3B32025  43.240  41.980   7.908
 2308POPC   C4B32026  43.517  42.103   7.567
 2309POPC   NC332027  25.445  33.143   9.468
 2309POPC   PO432028  25.705  32.503   9.402
 2309POPC   GL132029  25.473  32.779   9.102
 2309POPC   GL232030  25.111  32.730   9.118
 2309POPC   C1A32031  25.525  33.091   8.744
 2309POPC   D2A32032  25.626  33.153   8.280
 2309POPC   C3A32033  25.497  32.815   7.992
 2309POPC   C4A32034  25.144  32.634   7.797
 2309POPC   C1B32035  24.993  33.092   8.849
 2309POPC   C2B32036  25.104  33.219   8.414
 2309POPC   C3B32037  25.136  33.202   7.970
 2309POPC   C4B32038  25.005  33.421   7.613
 2310POPC   NC332039  20.780  22.579   9.554
 2310POPC   PO432040  20.426  21.974   9.455
 2310POPC   GL132041  20.563  21.878   9.083
 2310POPC   GL232042  20.792  22.176   9.105
 2310POPC   C1A32043  20.567  21.999   8.684
 2310POPC   D2A32044  20.586  22.323   8.418
 2310POPC   C3A32045  20.322  22.291   8.066
 2310POPC   C4A32046  20.433  21.983   7.791
 2310POPC   C1B32047  21.005  22.318   8.734
 2310POPC   C2B32048  21.069  22.458   8.307
 2310POPC   C3B32049  20.877  22.268   7.965
 2310POPC   C4B32050  20.618  22.470   7.672
 2311POPC   NC332051  39.482   7.955   9.805
 2311POPC   PO432052  38.903   8.173   9.472
 2311POPC   GL132053  39.178   8.401   9.099
 2311POPC   GL232054  39.455   8.215   8.950
 2311POPC   C1A32055  39.151   8.353   8.591
 2311POPC   D2A32056  39.103   7.998   8.309
 2311POPC   C3A32057  38.960   8.128   7.910
 2311POPC   C4A32058  38.914   8.104   7.473
 2311POPC   C1B32059  39.633   8.524   8.721
 2311POPC   C2B32060  39.626   8.368   8.315
 2311POPC   C3B32061  39.482   8.131   7.970
 2311POPC   C4B32062  39.331   8.346   7.617
 2312POPC   NC332063  44.779  43.500   9.420
 2312POPC   PO432064  44.761  42.833   9.656
 2312POPC   GL132065  44.681  43.024   9.223
 2312POPC   GL232066  44.909  42.857   9.059
 2312POPC   C1A32067  44.711  43.234   8.747
 2312POPC   D2A32068  44.623  43.318   8.235
 2312POPC   C3A32069  44.361  43.151   7.820
 2312POPC   C4A32070  44.474  42.943   7.390
 2312POPC   C1B32071   0.138  42.945   8.713
 2312POPC   C2B32072   0.192  42.815   8.315
 2312POPC   C3B32073  44.943  42.957   8.005
 2312POPC   C4B32074  44.843  43.209   7.667
 2313POPC   NC332075   0.225  40.570   9.516
 2313POPC   PO432076   0.505  41.226   9.537
 2313POPC   GL132077   0.545  40.953   9.180
 2313POPC   GL232078   0.765  40.615   9.217
 2313POPC   C1A32079   0.366  41.047   8.760
 2313POPC   D2A32080   0.188  40.952   8.358
 2313POPC   C3A32081   0.370  41.094   7.991
 2313POPC   C4A32082   0.437  40.948   7.613
 2313POPC   C1B32083   0.467  40.554   8.877
 2313POPC   C2B32084   0.470  40.529   8.431
 2313POPC   C3B32085   0.488  40.587   7.978
 2313POPC   C4B32086   0.151  40.512   7.661
 2314POPC   NC332087  11.330  43.693   9.501
 2314POPC   PO432088  10.992  44.200   9.576
 2314POPC   GL132089  11.088  44.179   9.139
 2314POPC   GL232090  11.430  44.005   9.085
 2314POPC   C1A32091  11.098  44.002   8.720
 2314POPC   D2A32092  11.481  43.958   8.506
 2314POPC   C3A32093  11.350  44.118   8.136
 2314POPC   C4A32094  11.349  44.028   7.722
 2314POPC   C1B32095  11.333  43.590   8.871
 2314POPC   C2B32096  11.279  43.488   8.458
 2314POPC   C3B32097  11.388  43.615   8.038
 2314POPC   C4B32098  11.572  43.574   7.610
 2315POPC   NC332099   2.361  36.164   9.510
 2315POPC   PO432100   1.991  35.666   9.358
 2315POPC   GL132101   2.089  35.986   9.084
 2315POPC   GL232102   1.957  36.310   9.192
 2315POPC   C1A32103   2.103  36.088   8.669
 2315POPC   D2A32104   1.965  35.933   8.300
 2315POPC   C3A32105   2.246  36.110   8.057
 2315POPC   C4A32106   2.205  36.273   7.682
 2315POPC   C1B32107   1.755  36.420   8.787
 2315POPC   C2B32108   1.926  36.451   8.337
 2315POPC   C3B32109   1.767  36.280   7.937
 2315POPC   C4B32110   1.704  36.481   7.520
 2316POPC   NC332111  30.839  23.969   9.556
 2316POPC   PO432112  30.281  23.568   9.530
 2316POPC   GL132113  30.521  23.659   9.138
 2316POPC   GL232114  30.854  23.755   9.083
 2316POPC   C1A32115  30.576  23.773   8.674
 2316POPC   D2A32116  30.709  23.473   8.360
 2316POPC   C3A32117  30.734  23.543   7.905
 2316POPC   C4A32118  30.578  23.398   7.471
 2316POPC   C1B32119  31.079  23.737   8.674
 2316POPC   C2B32120  30.980  23.871   8.251
 2316POPC   C3B32121  31.073  23.927   7.823
 2316POPC   C4B32122  30.731  23.899   7.561
 2317POPC   NC332123  24.039  43.908   9.882
 2317POPC   PO432124  23.471  44.053   9.715
 2317POPC   GL132125  23.478  43.969   9.244
 2317POPC   GL232126  23.299  44.250   9.120
 2317POPC   C1A32127  23.423  43.786   8.766
 2317POPC   D2A32128  23.575  43.849   8.300
 2317POPC   C3A32129  23.347  43.780   7.888
 2317POPC   C4A32130  23.365  43.654   7.451
 2317POPC   C1B32131  23.327  44.272   8.650
 2317POPC   C2B32132  23.392  44.360   8.201
 2317POPC   C3B32133  23.521  44.375   7.766
 2317POPC   C4B32134  23.766  44.444   7.365
 2318POPC   NC332135   8.659  14.442   9.486
 2318POPC   PO432136   9.265  14.506   9.632
 2318POPC   GL132137   9.049  14.310   9.151
 2318POPC   GL232138   8.696  14.219   9.037
 2318POPC   C1A32139   9.271  14.343   8.686
 2318POPC   D2A32140   9.278  14.275   8.240
 2318POPC   C3A32141   9.227  14.569   7.933
 2318POPC   C4A32142   9.066  14.513   7.521
 2318POPC   C1B32143   8.810  14.561   8.720
 2318POPC   C2B32144   8.818  14.593   8.242
 2318POPC   C3B32145   8.727  14.377   7.848
 2318POPC   C4B32146   8.637  14.263   7.413
 2319POPC   NC332147   1.520  23.428   9.328
 2319POPC   PO432148   1.483  24.003   9.688
 2319POPC   GL132149   1.277  23.919   9.196
 2319POPC   GL232150   1.085  23.608   9.143
 2319POPC   C1A32151   1.396  23.746   8.760
 2319POPC   D2A32152   1.263  23.826   8.383
 2319POPC   C3A32153   1.485  23.657   8.060
 2319POPC   C4A32154   1.394  23.748   7.650
 2319POPC   C1B32155   0.890  23.728   8.747
 2319POPC   C2B32156   0.748  23.649   8.330
 2319POPC   C3B32157   0.966  23.793   7.963
 2319POPC   C4B32158   0.898  23.813   7.542
 2320POPC   NC332159   3.296   4.632   9.428
 2320POPC   PO432160   3.799   4.420   9.413
 2320POPC   GL132161   3.512   4.377   9.035
 2320POPC   GL232162   3.196   4.208   9.097
 2320POPC   C1A32163   3.411   4.423   8.585
 2320POPC   D2A32164   3.510   4.159   8.226
 2320POPC   C3A32165   3.573   4.336   7.821
 2320POPC   C4A32166   3.601   4.649   7.489
 2320POPC   C1B32167   3.168   3.990   8.685
 2320POPC   C2B32168   3.016   4.042   8.273
 2320POPC   C3B32169   3.169   4.016   7.834
 2320POPC   C4B32170   3.418   4.096   7.413
 2321POPC   NC332171  38.827  11.536   9.479
 2321POPC   PO432172  39.372  11.101   9.438
 2321POPC   GL132173  39.327  11.396   9.106
 2321POPC   GL232174  39.014  11.288   9.080
 2321POPC   C1A32175  39.215  11.510   8.663
 2321POPC   D2A32176  39.438  11.302   8.305
 2321POPC   C3A32177  39.313  11.424   7.940
 2321POPC   C4A32178  39.428  11.758   7.751
 2321POPC   C1B32179  38.876  11.048   8.747
 2321POPC   C2B32180  38.995  11.100   8.382
 2321POPC   C3B32181  38.842  11.238   8.022
 2321POPC   C4B32182  38.973  11.219   7.634
 2322POPC   NC332183  31.016  44.660   9.578
 2322POPC   PO432184  30.587   0.002   9.268
 2322POPC   GL132185  30.736  44.649   9.044
 2322POPC   GL232186  31.024  44.461   9.129
 2322POPC   C1A32187  30.707  44.642   8.588
 2322POPC   D2A32188  30.766   0.040   8.328
 2322POPC   C3A32189  30.944  44.900   7.932
 2322POPC   C4A32190  30.650  44.663   7.672
 2322POPC   C1B32191  31.143  44.407   8.750
 2322POPC   C2B32192  31.028  44.216   8.372
 2322POPC   C3B32193  30.972  44.382   7.963
 2322POPC   C4B32194  31.112  44.506   7.544
 2323POPC   NC332195  21.229  24.098   9.797
 2323POPC   PO432196  21.031  24.596   9.391
 2323POPC   GL132197  20.712  24.420   9.126
 2323POPC   GL232198  20.435  24.215   9.210
 2323POPC   C1A32199  20.768  24.309   8.720
 2323POPC   D2A32200  20.607  24.541   8.399
 2323POPC   C3A32201  20.879  24.642   8.093
 2323POPC   C4A32202  20.762  24.498   7.720
 2323POPC   C1B32203  20.267  24.394   8.788
 2323POPC   C2B32204  20.253  24.179   8.343
 2323POPC   C3B32205  20.297  24.339   7.902
 2323POPC   C4B32206  20.315  24.673   7.548
 2324POPC   NC332207  23.091  43.812   9.579
 2324POPC   PO432208  22.813  44.453   9.552
 2324POPC   GL132209  22.805  44.098   9.202
 2324POPC   GL232210  23.029  43.809   9.078
 2324POPC   C1A32211  22.787  44.026   8.720
 2324POPC   D2A32212  23.077  43.907   8.371
 2324POPC   C3A32213  23.002  44.125   7.982
 2324POPC   C4A32214  22.920  43.974   7.575
 2324POPC   C1B32215  22.947  43.532   8.728
 2324POPC   C2B32216  22.739  43.493   8.338
 2324POPC   C3B32217  22.803  43.611   7.922
 2324POPC   C4B32218  22.885  43.496   7.469
 2325POPC   NC332219  38.883  34.847   9.515
 2325POPC   PO432220  39.226  35.456   9.499
 2325POPC   GL132221  39.234  35.100   9.243
 2325POPC   GL232222  38.905  35.199   9.148
 2325POPC   C1A32223  39.176  34.881   8.854
 2325POPC   D2A32224  38.989  35.020   8.466
 2325POPC   C3A32225  39.157  34.976   8.035
 2325POPC   C4A32226  39.312  35.198   7.638
 2325POPC   C1B32227  38.961  35.548   8.864
 2325POPC   C2B32228  38.946  35.522   8.432
 2325POPC   C3B32229  39.129  35.485   8.048
 2325POPC   C4B32230  39.097  35.727   7.701
 2326POPC   NC332231  22.614  36.277   9.450
 2326POPC   PO432232  21.944  36.057   9.412
 2326POPC   GL132233  22.169  35.939   9.039
 2326POPC   GL232234  22.492  36.120   8.989
 2326POPC   C1A32235  22.164  36.065   8.599
 2326POPC   D2A32236  22.222  36.328   8.262
 2326POPC   C3A32237  22.032  36.119   7.934
 2326POPC   C4A32238  21.678  36.251   7.615
 2326POPC   C1B32239  22.587  36.415   8.664
 2326POPC   C2B32240  22.704  36.526   8.234
 2326POPC   C3B32241  22.624  36.274   7.854
 2326POPC   C4B32242  22.423  35.968   7.622
 2327POPC   NC332243  10.703   0.090   9.481
 2327POPC   PO432244  10.505   0.799   9.438
 2327POPC   GL132245  10.394   0.411   9.242
 2327POPC   GL232246  10.725   0.420   9.101
 2327POPC   C1A32247  10.278   0.247   8.833
 2327POPC   D2A32248  10.292   0.424   8.396
 2327POPC   C3A32249  10.387   0.242   7.977
 2327POPC   C4A32250  10.344   0.545   7.652
 2327POPC   C1B32251  10.934   0.260   8.745
 2327POPC   C2B32252  10.782   0.215   8.318
 2327POPC   C3B32253  10.847   0.010   7.908
 2327POPC   C4B32254  10.647   0.139   7.520
 2328POPC   NC332255  33.583  37.863   9.582
 2328POPC   PO432256  34.009  37.441   9.476
 2328POPC   GL132257  33.942  37.788   9.196
 2328POPC   GL232258  33.582  37.775   9.094
 2328POPC   C1A32259  33.946  37.803   8.755
 2328POPC   D2A32260  33.792  37.833   8.366
 2328POPC   C3A32261  33.993  38.006   8.027
 2328POPC   C4A32262  33.918  37.829   7.671
 2328POPC   C1B32263  33.527  37.496   8.762
 2328POPC   C2B32264  33.393  37.520   8.366
 2328POPC   C3B32265  33.518  37.572   7.948
 2328POPC   C4B32266  33.413  37.909   7.670
 2329POPC   NC332267  41.104  42.272   9.368
 2329POPC   PO432268  40.499  42.562   9.404
 2329POPC   GL132269  40.678  42.354   9.087
 2329POPC   GL232270  40.868  42.647   9.009
 2329POPC   C1A32271  40.631  42.165   8.692
 2329POPC   D2A32272  40.414  41.957   8.361
 2329POPC   C3A32273  40.514  42.170   7.968
 2329POPC   C4A32274  40.980  42.149   7.813
 2329POPC   C1B32275  40.510  42.662   8.696
 2329POPC   C2B32276  40.518  42.752   8.239
 2329POPC   C3B32277  40.593  42.681   7.797
 2329POPC   C4B32278  40.927  42.554   7.514
 2330POPC   NC332279  30.767   1.797   9.317
 2330POPC   PO432280  30.411   2.302   9.393
 2330POPC   GL132281  30.724   2.253   9.079
 2330POPC   GL232282  31.065   2.237   9.163
 2330POPC   C1A32283  30.790   2.029   8.704
 2330POPC   D2A32284  30.548   1.964   8.360
 2330POPC   C3A32285  30.648   2.107   7.968
 2330POPC   C4A32286  30.837   1.834   7.656
 2330POPC   C1B32287  31.113   2.429   8.758
 2330POPC   C2B32288  30.976   2.354   8.337
 2330POPC   C3B32289  31.136   2.200   7.945
 2330POPC   C4B32290  31.010   2.306   7.535
 2331POPC   NC332291  11.550  19.418   9.356
 2331POPC   PO432292  11.182  20.034   9.474
 2331POPC   GL132293  11.317  19.873   9.100
 2331POPC   GL232294  11.162  19.538   9.051
 2331POPC   C1A32295  11.363  20.135   8.710
 2331POPC   D2A32296  11.420  19.945   8.328
 2331POPC   C3A32297  11.264  20.082   7.964
 2331POPC   C4A32298  11.571  20.047   7.685
 2331POPC   C1B32299  11.247  19.574   8.657
 2331POPC   C2B32300  11.538  19.453   8.359
 2331POPC   C3B32301  11.513  19.588   7.943
 2331POPC   C4B32302  11.081  19.594   7.887
 2332POPC   NC332303  32.749  44.817   9.402
 2332POPC   PO432304  32.136  44.497   9.345
 2332POPC   GL132305  32.287  44.839   9.095
 2332POPC   GL232306  31.947  44.928   9.019
 2332POPC   C1A32307  32.627  44.850   8.744
 2332POPC   D2A32308  32.813  44.795   8.322
 2332POPC   C3A32309  32.458  44.759   8.041
 2332POPC   C4A32310  32.301  44.484   7.737
 2332POPC   C1B32311  32.104  44.767   8.612
 2332POPC   C2B32312  31.999  44.911   8.194
 2332POPC   C3B32313  31.878  44.769   7.783
 2332POPC   C4B32314  31.968  44.720   7.334
 2333POPC   NC332315   3.387  27.536   9.462
 2333POPC   PO432316   3.743  27.104   9.859
 2333POPC   GL132317   3.756  27.220   9.327
 2333POPC   GL232318   3.430  27.247   9.062
 2333POPC   C1A32319   3.846  27.471   8.888
 2333POPC   D2A32320   3.720  27.571   8.436
 2333POPC   C3A32321   3.646  27.731   7.998
 2333POPC   C4A32322   3.244  27.717   7.739
 2333POPC   C1B32323   3.288  27.527   8.726
 2333POPC   C2B32324   3.236  27.500   8.245
 2333POPC   C3B32325   3.407  27.276   7.864
 2333POPC   C4B32326   3.236  27.290   7.421
 2334POPC   NC332327  38.483   8.504   9.398
 2334POPC   PO432328  38.865   8.980   9.650
 2334POPC   GL132329  38.676   9.111   9.249
 2334POPC   GL232330  38.387   8.928   9.151
 2334POPC   C1A32331  38.711   9.084   8.800
 2334POPC   D2A32332  38.526   9.161   8.394
 2334POPC   C3A32333  38.630   8.998   8.018
 2334POPC   C4A32334  38.406   9.067   7.667
 2334POPC   C1B32335  38.239   8.641   8.810
 2334POPC   C2B32336  38.302   8.703   8.411
 2334POPC   C3B32337  38.203   8.725   8.010
 2334POPC   C4B32338  38.202   8.497   7.628
 2335POPC   NC332339  35.174  33.095   9.809
 2335POPC   PO432340  35.121  32.565   9.373
 2335POPC   GL132341  35.266  32.858   9.047
 2335POPC   GL232342  35.164  33.229   9.060
 2335POPC   C1A32343  35.287  32.907   8.615
 2335POPC   D2A32344  35.022  33.097   8.295
 2335POPC   C3A32345  35.230  32.953   7.921
 2335POPC   C4A32346  35.561  32.626   7.863
 2335POPC   C1B32347  35.370  33.394   8.667
 2335POPC   C2B32348  35.497  33.302   8.231
 2335POPC   C3B32349  35.464  33.434   7.779
 2335POPC   C4B32350  35.495  33.507   7.302
 2336POPC   NC332351  23.589  33.163   9.535
 2336POPC   PO432352  24.232  33.172   9.531
 2336POPC   GL132353  23.960  33.169   9.188
 2336POPC   GL232354  23.785  33.495   9.189
 2336POPC   C1A32355  23.654  32.955   8.909
 2336POPC   D2A32356  23.598  32.926   8.451
 2336POPC   C3A32357  23.583  32.729   8.036
 2336POPC   C4A32358  23.862  32.852   7.723
 2336POPC   C1B32359  23.860  33.406   8.759
 2336POPC   C2B32360  23.708  33.452   8.393
 2336POPC   C3B32361  23.758  33.226   8.064
 2336POPC   C4B32362  23.824  33.405   7.717
 2337POPC   NC332363   0.967  18.133   9.722
 2337POPC   PO432364   1.403  18.557   9.492
 2337POPC   GL132365   1.336  18.343   9.118
 2337POPC   GL232366   1.031  18.237   9.214
 2337POPC   C1A32367   1.296  18.409   8.682
 2337POPC   D2A32368   1.355  18.487   8.243
 2337POPC   C3A32369   1.270  18.255   7.928
 2337POPC   C4A32370   1.508  18.165   7.569
 2337POPC   C1B32371   0.829  18.482   8.874
 2337POPC   C2B32372   0.875  18.620   8.423
 2337POPC   C3B32373   0.882  18.606   7.960
 2337POPC   C4B32374   1.052  18.499   7.549
 2338POPC   NC332375  27.765  37.913   9.673
 2338POPC   PO432376  27.367  37.344   9.646
 2338POPC   GL132377  27.323  37.644   9.334
 2338POPC   GL232378  27.623  37.578   9.179
 2338POPC   C1A32379  27.220  37.726   8.876
 2338POPC   D2A32380  27.104  37.664   8.423
 2338POPC   C3A32381  27.418  37.704   8.104
 2338POPC   C4A32382  27.449  37.341   7.832
 2338POPC   C1B32383  27.719  37.543   8.718
 2338POPC   C2B32384  27.951  37.584   8.289
 2338POPC   C3B32385  27.860  37.683   7.828
 2338POPC   C4B32386  27.941  37.965   7.434
 2339POPC   NC332387  11.543   5.401   9.482
 2339POPC   PO432388  11.301   6.116   9.430
 2339POPC   GL132389  11.240   5.739   9.159
 2339POPC   GL232390  10.878   5.562   9.165
 2339POPC   C1A32391  11.435   5.881   8.750
 2339POPC   D2A32392  11.387   6.139   8.360
 2339POPC   C3A32393  11.467   5.912   7.951
 2339POPC   C4A32394  11.287   5.842   7.536
 2339POPC   C1B32395  10.959   5.723   8.739
 2339POPC   C2B32396  11.185   5.681   8.335
 2339POPC   C3B32397  11.002   5.688   7.937
 2339POPC   C4B32398  10.954   5.443   7.567
 2340POPC   NC332399  23.996  30.861   9.443
 2340POPC   PO432400  23.340  30.791   9.551
 2340POPC   GL132401  23.574  30.575   9.248
 2340POPC   GL232402  23.644  30.866   9.066
 2340POPC   C1A32403  23.608  30.393   8.823
 2340POPC   D2A32404  23.531  30.627   8.469
 2340POPC   C3A32405  23.645  30.477   8.087
 2340POPC   C4A32406  23.874  30.509   7.746
 2340POPC   C1B32407  23.969  30.753   8.771
 2340POPC   C2B32408  24.006  30.818   8.365
 2340POPC   C3B32409  23.680  31.004   8.136
 2340POPC   C4B32410  23.622  30.973   7.722
 2341POPC   NC332411   2.427   4.518   9.425
 2341POPC   PO432412   2.308   3.894   9.382
 2341POPC   GL132413   2.694   4.132   9.207
 2341POPC   GL232414   2.732   3.966   8.910
 2341POPC   C1A32415   2.813   4.459   8.847
 2341POPC   D2A32416   2.999   4.717   8.491
 2341POPC   C3A32417   3.127   4.500   8.108
 2341POPC   C4A32418   2.752   4.315   7.898
 2341POPC   C1B32419   2.579   4.135   8.511
 2341POPC   C2B32420   2.537   3.873   8.141
 2341POPC   C3B32421   2.669   3.835   7.716
 2341POPC   C4B32422   2.898   4.080   7.401
 2342POPC   NC332423  28.877  18.609   9.338
 2342POPC   PO432424  29.240  19.212   9.524
 2342POPC   GL132425  29.029  19.148   9.138
 2342POPC   GL232426  29.259  18.924   9.104
 2342POPC   C1A32427  28.978  19.348   8.716
 2342POPC   D2A32428  29.245  19.274   8.341
 2342POPC   C3A32429  29.081  19.360   7.914
 2342POPC   C4A32430  28.886  19.376   7.459
 2342POPC   C1B32431  29.438  18.989   8.735
 2342POPC   C2B32432  29.411  18.776   8.353
 2342POPC   C3B32433  29.462  18.991   7.953
 2342POPC   C4B32434  29.212  18.977   7.577
 2343POPC   NC332435  14.012  41.040   9.766
 2343POPC   PO432436  14.152  40.533   9.327
 2343POPC   GL132437  14.459  40.743   9.101
 2343POPC   GL232438  14.558  41.094   9.280
 2343POPC   C1A32439  14.352  40.788   8.646
 2343POPC   D2A32440  14.351  40.538   8.268
 2343POPC   C3A32441  14.521  40.654   7.884
 2343POPC   C4A32442  14.113  40.739   7.761
 2343POPC   C1B32443  14.691  41.120   8.863
 2343POPC   C2B32444  14.624  41.169   8.435
 2343POPC   C3B32445  14.332  41.058   8.146
 2343POPC   C4B32446  14.447  41.134   7.726
 2344POPC   NC332447  41.137  10.657   9.545
 2344POPC   PO432448  41.735  10.382   9.573
 2344POPC   GL132449  41.551  10.607   9.235
 2344POPC   GL232450  41.326  10.323   9.204
 2344POPC   C1A32451  41.547  10.751   8.797
 2344POPC   D2A32452  41.625  10.504   8.419
 2344POPC   C3A32453  41.599  10.770   8.041
 2344POPC   C4A32454  41.836  10.707   7.701
 2344POPC   C1B32455  41.171  10.434   8.809
 2344POPC   C2B32456  41.149  10.682   8.433
 2344POPC   C3B32457  41.211  10.459   8.036
 2344POPC   C4B32458  41.339  10.568   7.584
 2345POPC   NC332459   9.979  34.403   9.502
 2345POPC   PO432460   9.621  34.905   9.620
 2345POPC   GL132461   9.677  34.739   9.195
 2345POPC   GL232462   9.532  34.383   9.192
 2345POPC   C1A32463   9.998  34.823   8.861
 2345POPC   D2A32464  10.187  34.846   8.437
 2345POPC   C3A32465   9.938  34.719   8.121
 2345POPC   C4A32466   9.969  34.729   7.706
 2345POPC   C1B32467   9.772  34.353   8.809
 2345POPC   C2B32468   9.938  34.297   8.406
 2345POPC   C3B32469   9.813  34.174   8.059
 2345POPC   C4B32470   9.617  34.367   7.740
 2346POPC   NC332471  35.084  19.404   9.388
 2346POPC   PO432472  35.636  18.966   9.477
 2346POPC   GL132473  35.317  19.023   9.143
 2346POPC   GL232474  35.008  18.828   9.227
 2346POPC   C1A32475  35.248  19.196   8.732
 2346POPC   D2A32476  35.440  19.174   8.293
 2346POPC   C3A32477  35.277  19.341   7.880
 2346POPC   C4A32478  35.570  19.335   7.537
 2346POPC   C1B32479  35.116  18.634   8.818
 2346POPC   C2B32480  34.969  18.430   8.424
 2346POPC   C3B32481  35.069  18.561   7.995
 2346POPC   C4B32482  34.839  18.682   7.626
 2347POPC   NC332483  31.075   6.228   9.394
 2347POPC   PO432484  30.506   6.573   9.587
 2347POPC   GL132485  30.692   6.485   9.193
 2347POPC   GL232486  30.876   6.718   9.128
 2347POPC   C1A32487  30.784   6.455   8.714
 2347POPC   D2A32488  30.859   6.360   8.234
 2347POPC   C3A32489  30.593   6.587   7.892
 2347POPC   C4A32490  30.379   6.616   7.470
 2347POPC   C1B32491  31.099   6.876   8.835
 2347POPC   C2B32492  31.197   6.681   8.482
 2347POPC   C3B32493  31.226   6.796   8.120
 2347POPC   C4B32494  31.061   6.738   7.770
 2348POPC   NC332495   2.510  14.371   9.619
 2348POPC   PO432496   1.943  14.334   9.607
 2348POPC   GL132497   1.705  14.304   9.181
 2348POPC   GL232498   1.623  14.637   9.041
 2348POPC   C1A32499   1.742  14.257   8.696
 2348POPC   D2A32500   2.006  14.441   8.327
 2348POPC   C3A32501   2.056  14.305   7.869
 2348POPC   C4A32502   2.014  14.422   7.426
 2348POPC   C1B32503   1.592  14.734   8.572
 2348POPC   C2B32504   1.502  14.438   8.255
 2348POPC   C3B32505   1.545  14.340   7.837
 2348POPC   C4B32506   1.677  14.073   7.514
 2349POPC   NC332507  10.782   7.552   9.374
 2349POPC   PO432508  10.174   7.223   9.493
 2349POPC   GL132509  10.441   7.140   9.122
 2349POPC   GL232510  10.816   7.149   9.065
 2349POPC   C1A32511  10.525   7.167   8.678
 2349POPC   D2A32512  10.549   7.480   8.404
 2349POPC   C3A32513  10.513   7.353   7.997
 2349POPC   C4A32514  10.398   7.222   7.585
 2349POPC   C1B32515  10.958   7.445   8.738
 2349POPC   C2B32516  11.021   7.630   8.309
 2349POPC   C3B32517  10.920   7.636   7.884
 2349POPC   C4B32518  10.617   7.687   7.604
 2350POPC   NC332519  33.470  23.908   9.406
 2350POPC   PO432520  33.244  23.280   9.611
 2350POPC   GL132521  33.216  23.506   9.167
 2350POPC   GL232522  32.880  23.678   9.036
 2350POPC   C1A32523  33.321  23.726   8.750
 2350POPC   D2A32524  33.178  23.841   8.315
 2350POPC   C3A32525  33.236  23.536   7.980
 2350POPC   C4A32526  33.129  23.532   7.561
 2350POPC   C1B32527  32.880  24.043   8.684
 2350POPC   C2B32528  32.707  24.036   8.237
 2350POPC   C3B32529  32.914  23.937   7.825
 2350POPC   C4B32530  32.890  23.926   7.351
 2351POPC   NC332531   3.800  25.870   9.516
 2351POPC   PO432532   3.313  26.308   9.619
 2351POPC   GL132533   3.377  26.018   9.259
 2351POPC   GL232534   3.161  25.714   9.207
 2351POPC   C1A32535   3.625  26.097   8.901
 2351POPC   D2A32536   3.648  26.027   8.460
 2351POPC   C3A32537   3.307  26.121   8.222
 2351POPC   C4A32538   3.241  26.009   7.828
 2351POPC   C1B32539   3.365  25.670   8.778
 2351POPC   C2B32540   3.409  25.585   8.291
 2351POPC   C3B32541   3.658  25.734   7.914
 2351POPC   C4B32542   4.053  25.761   7.630
 2352POPC   NC332543  37.575  37.898   9.601
 2352POPC   PO432544  37.950  37.512   9.186
 2352POPC   GL132545  37.513  37.639   9.071
 2352POPC   GL232546  37.363  38.010   9.140
 2352POPC   C1A32547  37.558  37.499   8.624
 2352POPC   D2A32548  37.929  37.607   8.376
 2352POPC   C3A32549  37.851  37.494   7.971
 2352POPC   C4A32550  37.455  37.357   7.821
 2352POPC   C1B32551  37.310  37.923   8.716
 2352POPC   C2B32552  37.379  37.878   8.284
 2352POPC   C3B32553  37.387  38.120   7.908
 2352POPC   C4B32554  37.617  37.829   7.672
 2353POPC   NC332555  40.032   6.273   9.443
 2353POPC   PO432556  40.233   6.897   9.340
 2353POPC   GL132557  39.882   6.798   9.047
 2353POPC   GL232558  39.995   6.482   8.996
 2353POPC   C1A32559  39.717   6.698   8.646
 2353POPC   D2A32560  40.100   6.584   8.421
 2353POPC   C3A32561  40.177   6.832   8.057
 2353POPC   C4A32562  39.877   6.829   7.725
 2353POPC   C1B32563  40.104   6.141   8.746
 2353POPC   C2B32564  39.911   6.099   8.361
 2353POPC   C3B32565  39.847   6.361   8.004
 2353POPC   C4B32566  39.979   6.063   7.708
 2354POPC   NC332567  30.174  13.079   9.569
 2354POPC   PO432568  29.749  12.541   9.596
 2354POPC   GL132569  29.977  12.754   9.225
 2354POPC   GL232570  30.001  13.101   9.086
 2354POPC   C1A32571  30.189  12.711   8.830
 2354POPC   D2A32572  30.078  12.475   8.497
 2354POPC   C3A32573  29.953  12.710   8.135
 2354POPC   C4A32574  29.883  12.684   7.707
 2354POPC   C1B32575  29.701  13.191   8.772
 2354POPC   C2B32576  29.833  13.188   8.365
 2354POPC   C3B32577  29.652  13.138   7.974
 2354POPC   C4B32578  29.836  13.237   7.575
 2355POPC   NC332579  15.049  35.984   9.660
 2355POPC   PO432580  15.488  36.505   9.626
 2355POPC   GL132581  15.303  36.190   9.254
 2355POPC   GL232582  15.179  35.810   9.196
 2355POPC   C1A32583  15.106  36.148   8.812
 2355POPC   D2A32584  15.081  36.409   8.449
 2355POPC   C3A32585  15.097  36.263   8.024
 2355POPC   C4A32586  15.367  36.260   7.675
 2355POPC   C1B32587  15.145  35.644   8.746
 2355POPC   C2B32588  15.117  35.869   8.337
 2355POPC   C3B32589  15.167  35.789   7.849
 2355POPC   C4B32590  15.121  35.644   7.407
 2356POPC   NC332591  30.909  16.894   9.503
 2356POPC   PO432592  30.696  16.241   9.280
 2356POPC   GL132593  30.748  16.559   8.975
 2356POPC   GL232594  30.618  16.902   9.040
 2356POPC   C1A32595  30.783  16.530   8.523
 2356POPC   D2A32596  31.008  16.344   8.169
 2356POPC   C3A32597  30.779  16.449   7.807
 2356POPC   C4A32598  30.729  16.646   7.401
 2356POPC   C1B32599  30.795  17.077   8.664
 2356POPC   C2B32600  30.845  16.979   8.233
 2356POPC   C3B32601  30.763  16.998   7.788
 2356POPC   C4B32602  30.709  17.169   7.357
 2357POPC   NC332603   7.734  12.708   9.668
 2357POPC   PO432604   7.134  12.594   9.546
 2357POPC   GL132605   7.366  12.785   9.190
 2357POPC   GL232606   7.699  12.910   9.190
 2357POPC   C1A32607   7.488  12.735   8.742
 2357POPC   D2A32608   7.465  12.603   8.314
 2357POPC   C3A32609   7.171  12.750   8.062
 2357POPC   C4A32610   7.233  13.051   7.710
 2357POPC   C1B32611   7.903  13.059   8.808
 2357POPC   C2B32612   7.850  13.189   8.379
 2357POPC   C3B32613   7.632  12.995   8.051
 2357POPC   C4B32614   7.582  12.665   7.774
 2358POPC   NC332615  12.274  39.367   9.517
 2358POPC   PO432616  11.617  39.655   9.438
 2358POPC   GL132617  11.859  39.296   9.240
 2358POPC   GL232618  12.176  39.288   9.036
 2358POPC   C1A32619  11.771  39.021   8.904
 2358POPC   D2A32620  11.717  39.184   8.482
 2358POPC   C3A32621  12.019  39.156   8.163
 2358POPC   C4A32622  11.927  39.206   7.737
 2358POPC   C1B32623  12.444  39.562   8.836
 2358POPC   C2B32624  12.406  39.452   8.434
 2358POPC   C3B32625  12.330  39.541   8.029
 2358POPC   C4B32626  12.309  39.564   7.595
 2359POPC   NC332627  38.623  39.056   9.233
 2359POPC   PO432628  38.213  38.609   9.606
 2359POPC   GL132629  38.179  38.497   9.193
 2359POPC   GL232630  38.488  38.600   9.047
 2359POPC   C1A32631  37.988  38.606   8.804
 2359POPC   D2A32632  38.066  38.492   8.389
 2359POPC   C3A32633  38.436  38.427   8.160
 2359POPC   C4A32634  38.445  38.327   7.720
 2359POPC   C1B32635  38.692  38.583   8.640
 2359POPC   C2B32636  38.802  38.781   8.250
 2359POPC   C3B32637  38.874  38.531   7.884
 2359POPC   C4B32638  38.912  38.170   7.584
 2360POPC   NC332639  25.920  24.260   9.535
 2360POPC   PO432640  26.582  24.458   9.419
 2360POPC   GL132641  26.240  24.358   9.150
 2360POPC   GL232642  26.226  24.691   9.062
 2360POPC   C1A32643  26.022  24.301   8.742
 2360POPC   D2A32644  26.176  24.441   8.321
 2360POPC   C3A32645  25.962  24.418   7.946
 2360POPC   C4A32646  25.957  24.528   7.510
 2360POPC   C1B32647  26.495  24.493   8.728
 2360POPC   C2B32648  26.650  24.652   8.361
 2360POPC   C3B32649  26.515  24.784   8.004
 2360POPC   C4B32650  26.172  24.903   7.801
 2361POPC   NC332651  37.984  44.701   9.515
 2361POPC   PO432652  37.447  44.366   9.492
 2361POPC   GL132653  37.560  44.436   9.103
 2361POPC   GL232654  37.698  44.753   9.085
 2361POPC   C1A32655  37.539  44.486   8.677
 2361POPC   D2A32656  37.798  44.460   8.356
 2361POPC   C3A32657  37.567  44.483   7.993
 2361POPC   C4A32658  37.795  44.315   7.656
 2361POPC   C1B32659  37.978  44.767   8.754
 2361POPC   C2B32660  37.958  44.956   8.356
 2361POPC   C3B32661  38.013  44.753   7.983
 2361POPC   C4B32662  37.745  44.833   7.659
 2362POPC   NC332663  25.020  32.240   9.400
 2362POPC   PO432664  25.607  31.960   9.663
 2362POPC   GL132665  25.482  32.110   9.162
 2362POPC   GL232666  25.180  32.092   8.944
 2362POPC   C1A32667  25.488  32.408   8.747
 2362POPC   D2A32668  25.251  32.528   8.361
 2362POPC   C3A32669  25.257  32.212   8.031
 2362POPC   C4A32670  25.481  32.260   7.671
 2362POPC   C1B32671  24.915  32.382   8.721
 2362POPC   C2B32672  24.813  32.213   8.297
 2362POPC   C3B32673  24.764  32.295   7.841
 2362POPC   C4B32674  24.914  32.121   7.477
 2363POPC   NC332675   2.501   0.954   9.313
 2363POPC   PO432676   1.881   1.262   9.565
 2363POPC   GL132677   2.120   1.332   9.223
 2363POPC   GL232678   2.054   1.072   9.113
 2363POPC   C1A32679   2.071   1.445   8.793
 2363POPC   D2A32680   2.142   1.157   8.461
 2363POPC   C3A32681   2.095   1.368   8.071
 2363POPC   C4A32682   1.813   1.323   7.728
 2363POPC   C1B32683   1.770   1.019   8.787
 2363POPC   C2B32684   1.785   0.783   8.471
 2363POPC   C3B32685   1.763   0.962   8.093
 2363POPC   C4B32686   1.486   0.807   7.784
 2364POPC   NC332687  10.022   5.230   9.534
 2364POPC   PO432688   9.404   5.053   9.472
 2364POPC   GL132689   9.685   5.189   9.125
 2364POPC   GL232690   9.894   4.934   9.142
 2364POPC   C1A32691   9.909   5.126   8.689
 2364POPC   D2A32692   9.926   5.150   8.273
 2364POPC   C3A32693   9.607   5.153   8.001
 2364POPC   C4A32694   9.676   5.132   7.589
 2364POPC   C1B32695   9.703   4.688   8.813
 2364POPC   C2B32696   9.607   4.755   8.351
 2364POPC   C3B32697   9.668   4.658   7.891
 2364POPC   C4B32698   9.442   4.690   7.462
 2365POPC   NC332699  42.070   1.509   9.421
 2365POPC   PO432700  42.411   1.107   9.842
 2365POPC   GL132701  42.401   1.095   9.298
 2365POPC   GL232702  42.388   1.327   9.038
 2365POPC   C1A32703  42.246   0.901   8.852
 2365POPC   D2A32704  42.115   1.080   8.446
 2365POPC   C3A32705  42.167   0.957   8.024
 2365POPC   C4A32706  42.128   1.076   7.601
 2365POPC   C1B32707  42.605   1.238   8.647
 2365POPC   C2B32708  42.595   1.179   8.196
 2365POPC   C3B32709  42.612   1.119   7.757
 2365POPC   C4B32710  42.480   1.412   7.399
 2366POPC   NC332711  28.140  24.821   9.606
 2366POPC   PO432712  27.973  24.113   9.537
 2366POPC   GL132713  28.138  24.428   9.186
 2366POPC   GL232714  28.294  24.728   9.133
 2366POPC   C1A32715  28.020  24.601   8.740
 2366POPC   D2A32716  28.096  24.435   8.353
 2366POPC   C3A32717  28.297  24.543   7.949
 2366POPC   C4A32718  28.710  24.334   7.919
 2366POPC   C1B32719  28.523  24.515   8.783
 2366POPC   C2B32720  28.559  24.680   8.369
 2366POPC   C3B32721  28.847  24.832   8.054
 2366POPC   C4B32722  28.677  24.785   7.639
 2367POPC   NC332723  35.044  42.501   9.361
 2367POPC   PO432724  35.358  41.854   9.411
 2367POPC   GL132725  35.379  42.180   9.095
 2367POPC   GL232726  35.707  42.331   9.038
 2367POPC   C1A32727  35.135  42.325   8.730
 2367POPC   D2A32728  35.067  42.404   8.303
 2367POPC   C3A32729  35.434  42.455   8.015
 2367POPC   C4A32730  35.404  42.436   7.538
 2367POPC   C1B32731  35.583  42.118   8.616
 2367POPC   C2B32732  35.790  42.096   8.199
 2367POPC   C3B32733  35.889  42.304   7.782
 2367POPC   C4B32734  35.766  42.153   7.375
 2368POPC   NC332735  29.575  15.266   9.377
 2368POPC   PO432736  30.218  15.124   9.405
 2368POPC   GL132737  29.984  15.140   9.051
 2368POPC   GL232738  29.765  14.885   9.087
 2368POPC   C1A32739  29.990  15.096   8.631
 2368POPC   D2A32740  30.019  14.932   8.251
 2368POPC   C3A32741  30.112  15.261   7.979
 2368POPC   C4A32742  30.105  15.339   7.533
 2368POPC   C1B32743  29.622  14.755   8.701
 2368POPC   C2B32744  29.516  14.801   8.267
 2368POPC   C3B32745  29.633  15.030   7.910
 2368POPC   C4B32746  29.602  15.403   7.653
 2369POPC   NC332747  34.129  17.364   9.634
 2369POPC   PO432748  33.685  17.821   9.748
 2369POPC   GL132749  33.815  17.736   9.309
 2369POPC   GL232750  33.890  17.364   9.183
 2369POPC   C1A32751  33.695  17.713   8.866
 2369POPC   D2A32752  33.924  17.515   8.548
 2369POPC   C3A32753  33.749  17.607   8.160
 2369POPC   C4A32754  33.852  17.787   7.784
 2369POPC   C1B32755  33.581  17.199   8.867
 2369POPC   C2B32756  33.580  17.157   8.411
 2369POPC   C3B32757  33.916  17.133   8.081
 2369POPC   C4B32758  33.702  17.297   7.693
 2370POPC   NC332759  11.299  11.802   9.592
 2370POPC   PO432760  10.987  11.140   9.595
 2370POPC   GL132761  11.138  11.182   9.207
 2370POPC   GL232762  11.376  11.454   9.210
 2370POPC   C1A32763  11.302  11.053   8.845
 2370POPC   D2A32764  11.144  11.140   8.485
 2370POPC   C3A32765  11.303  10.989   8.110
 2370POPC   C4A32766  11.352  11.063   7.696
 2370POPC   C1B32767  11.285  11.572   8.782
 2370POPC   C2B32768  11.397  11.544   8.356
 2370POPC   C3B32769  11.267  11.605   7.968
 2370POPC   C4B32770  11.403  11.600   7.581
 2371POPC   NC332771  16.568  22.578   9.382
 2371POPC   PO432772  16.794  23.254   9.461
 2371POPC   GL132773  16.689  23.020   9.103
 2371POPC   GL232774  16.943  22.737   9.049
 2371POPC   C1A32775  16.543  23.172   8.712
 2371POPC   D2A32776  16.804  23.262   8.335
 2371POPC   C3A32777  16.642  23.259   7.927
 2371POPC   C4A32778  16.515  22.919   7.693
 2371POPC   C1B32779  16.837  22.781   8.595
 2371POPC   C2B32780  16.856  22.768   8.133
 2371POPC   C3B32781  17.042  22.692   7.730
 2371POPC   C4B32782  17.315  22.669   7.382
 2372POPC   NC332783  39.641   4.876   9.620
 2372POPC   PO432784  40.019   5.429   9.536
 2372POPC   GL132785  40.018   5.207   9.186
 2372POPC   GL232786  39.997   4.824   9.222
 2372POPC   C1A32787  40.073   5.097   8.774
 2372POPC   D2A32788  40.277   4.967   8.442
 2372POPC   C3A32789  40.143   5.243   8.164
 2372POPC   C4A32790  40.045   5.226   7.743
 2372POPC   C1B32791  40.085   4.561   8.839
 2372POPC   C2B32792  39.927   4.545   8.413
 2372POPC   C3B32793  39.999   4.762   8.030
 2372POPC   C4B32794  39.797   4.781   7.637
 2373POPC   NC332795  12.853  14.789   9.116
 2373POPC   PO432796  12.799  14.211   9.420
 2373POPC   GL132797  13.012  14.255   9.030
 2373POPC   GL232798  12.989  13.934   8.920
 2373POPC   C1A32799  12.914  14.384   8.580
 2373POPC   D2A32800  12.557  14.587   8.298
 2373POPC   C3A32801  12.578  14.511   7.838
 2373POPC   C4A32802  12.959  14.422   7.635
 2373POPC   C1B32803  12.587  14.018   8.786
 2373POPC   C2B32804  12.582  14.060   8.360
 2373POPC   C3B32805  12.909  14.164   8.091
 2373POPC   C4B32806  12.763  13.961   7.749
 2374POPC   NC332807  36.112  32.216   9.585
 2374POPC   PO432808  35.827  31.721   9.373
 2374POPC   GL132809  36.057  32.036   9.100
 2374POPC   GL232810  36.070  32.432   9.122
 2374POPC   C1A32811  36.141  32.116   8.668
 2374POPC   D2A32812  35.928  31.930   8.316
 2374POPC   C3A32813  35.988  32.151   7.944
 2374POPC   C4A32814  35.955  32.411   7.593
 2374POPC   C1B32815  36.221  32.642   8.746
 2374POPC   C2B32816  36.404  32.487   8.334
 2374POPC   C3B32817  36.347  32.554   7.893
 2374POPC   C4B32818  36.454  32.526   7.453
 2375POPC   NC332819  20.021   1.281   9.749
 2375POPC   PO432820  19.455   1.436   9.371
 2375POPC   GL132821  19.749   1.269   9.108
 2375POPC   GL232822  20.026   1.160   9.275
 2375POPC   C1A32823  19.700   1.159   8.694
 2375POPC   D2A32824  19.656   1.371   8.345
 2375POPC   C3A32825  19.820   1.192   8.014
 2375POPC   C4A32826  19.977   1.501   7.757
 2375POPC   C1B32827  20.126   0.964   8.870
 2375POPC   C2B32828  20.166   1.010   8.412
 2375POPC   C3B32829  20.171   0.785   8.018
 2375POPC   C4B32830  19.858   0.737   7.780
 2376POPC   NC332831  33.181  43.032   9.450
 2376POPC   PO432832  32.693  43.472   9.382
 2376POPC   GL132833  32.861  43.227   9.116
 2376POPC   GL232834  32.698  42.926   9.225
 2376POPC   C1A32835  33.078  43.172   8.748
 2376POPC   D2A32836  32.859  43.122   8.394
 2376POPC   C3A32837  33.060  42.951   8.099
 2376POPC   C4A32838  33.199  43.238   7.789
 2376POPC   C1B32839  32.561  42.973   8.796
 2376POPC   C2B32840  32.540  42.716   8.450
 2376POPC   C3B32841  32.607  42.746   8.033
 2376POPC   C4B32842  32.686  43.136   7.814
 2377POPC   NC332843  30.505  28.321   9.518
 2377POPC   PO432844  31.006  28.849   9.418
 2377POPC   GL132845  30.792  28.746   9.053
 2377POPC   GL232846  30.478  28.584   9.092
 2377POPC   C1A32847  30.890  28.456   8.756
 2377POPC   D2A32848  30.997  28.223   8.409
 2377POPC   C3A32849  30.860  28.379   8.053
 2377POPC   C4A32850  30.828  28.395   7.662
 2377POPC   C1B32851  30.409  28.345   8.695
 2377POPC   C2B32852  30.205  28.504   8.398
 2377POPC   C3B32853  30.235  28.763   8.076
 2377POPC   C4B32854  30.432  28.690   7.712
 2378POPC   NC332855  39.038  29.610   9.600
 2378POPC   PO432856  39.376  29.016   9.569
 2378POPC   GL132857  39.133  29.035   9.196
 2378POPC   GL232858  38.950  29.325   9.168
 2378POPC   C1A32859  39.121  29.016   8.740
 2378POPC   D2A32860  39.434  29.158   8.436
 2378POPC   C3A32861  39.314  29.347   8.041
 2378POPC   C4A32862  39.226  29.179   7.634
 2378POPC   C1B32863  38.943  29.506   8.759
 2378POPC   C2B32864  38.913  29.326   8.360
 2378POPC   C3B32865  38.822  29.163   7.951
 2378POPC   C4B32866  38.844  29.503   7.723
 2379POPC   NC332867  12.586  43.043   9.592
 2379POPC   PO432868  11.897  43.061   9.612
 2379POPC   GL132869  12.024  43.133   9.142
 2379POPC   GL232870  12.224  43.423   9.042
 2379POPC   C1A32871  12.019  43.154   8.659
 2379POPC   D2A32872  11.958  42.954   8.267
 2379POPC   C3A32873  12.121  43.136   7.882
 2379POPC   C4A32874  12.103  43.324   7.440
 2379POPC   C1B32875  12.459  43.397   8.657
 2379POPC   C2B32876  12.377  43.562   8.240
 2379POPC   C3B32877  12.428  43.535   7.769
 2379POPC   C4B32878  12.432  43.675   7.290
 2380POPC   NC332879  20.888  14.525   9.595
 2380POPC   PO432880  20.394  14.069   9.515
 2380POPC   GL132881  20.526  14.357   9.215
 2380POPC   GL232882  20.837  14.250   9.182
 2380POPC   C1A32883  20.645  14.506   8.802
 2380POPC   D2A32884  20.789  14.608   8.430
 2380POPC   C3A32885  20.598  14.457   8.061
 2380POPC   C4A32886  20.695  14.509   7.649
 2380POPC   C1B32887  21.007  14.165   8.765
 2380POPC   C2B32888  20.777  14.094   8.410
 2380POPC   C3B32889  20.980  14.136   8.027
 2380POPC   C4B32890  20.868  14.054   7.634
 2381POPC   NC332891  28.062  23.299   9.383
 2381POPC   PO432892  27.520  22.982   9.538
 2381POPC   GL132893  27.599  22.887   9.162
 2381POPC   GL232894  27.294  23.069   9.028
 2381POPC   C1A32895  27.768  23.032   8.813
 2381POPC   D2A32896  27.502  23.164   8.495
 2381POPC   C3A32897  27.625  23.295   8.115
 2381POPC   C4A32898  27.555  23.144   7.736
 2381POPC   C1B32899  27.312  22.727   8.769
 2381POPC   C2B32900  27.587  22.596   8.473
 2381POPC   C3B32901  27.543  22.761   8.092
 2381POPC   C4B32902  27.375  22.657   7.710
 2382POPC   NC332903  31.127  13.367   9.654
 2382POPC   PO432904  30.449  13.445   9.670
 2382POPC   GL132905  30.693  13.644   9.335
 2382POPC   GL232906  31.027  13.545   9.202
 2382POPC   C1A32907  30.600  13.621   8.895
 2382POPC   D2A32908  30.474  13.381   8.537
 2382POPC   C3A32909  30.526  13.643   8.196
 2382POPC   C4A32910  30.597  13.653   7.779
 2382POPC   C1B32911  31.105  13.760   8.844
 2382POPC   C2B32912  30.969  13.615   8.486
 2382POPC   C3B32913  31.036  13.581   8.072
 2382POPC   C4B32914  31.041  13.900   7.769
 2383POPC   NC332915   2.144   1.709   9.560
 2383POPC   PO432916   1.753   2.205   9.316
 2383POPC   GL132917   2.034   1.999   9.146
 2383POPC   GL232918   1.806   1.713   9.164
 2383POPC   C1A32919   2.212   2.224   8.779
 2383POPC   D2A32920   2.117   2.289   8.336
 2383POPC   C3A32921   2.249   1.930   8.039
 2383POPC   C4A32922   2.254   2.099   7.602
 2383POPC   C1B32923   1.826   1.882   8.717
 2383POPC   C2B32924   1.652   2.027   8.370
 2383POPC   C3B32925   1.788   2.093   7.967
 2383POPC   C4B32926   1.788   1.842   7.614
 2384POPC   NC332927  23.270  30.341   9.620
 2384POPC   PO432928  22.676  30.044   9.561
 2384POPC   GL132929  23.006  30.011   9.226
 2384POPC   GL232930  23.168  30.295   9.074
 2384POPC   C1A32931  22.869  29.938   8.788
 2384POPC   D2A32932  22.741  30.110   8.386
 2384POPC   C3A32933  22.836  29.912   7.987
 2384POPC   C4A32934  22.904  29.746   7.561
 2384POPC   C1B32935  23.132  30.344   8.611
 2384POPC   C2B32936  23.175  30.289   8.162
 2384POPC   C3B32937  23.400  30.091   7.807
 2384POPC   C4B32938  23.265  30.047   7.365
 2385POPC   NC332939   3.153  41.005   9.875
 2385POPC   PO432940   3.666  40.658   9.564
 2385POPC   GL132941   3.736  40.709   9.156
 2385POPC   GL232942   3.752  41.078   9.196
 2385POPC   C1A32943   3.512  40.680   8.758
 2385POPC   D2A32944   3.262  40.648   8.384
 2385POPC   C3A32945   3.471  40.795   8.022
 2385POPC   C4A32946   3.358  41.222   7.840
 2385POPC   C1B32947   3.967  41.003   8.818
 2385POPC   C2B32948   3.856  40.886   8.405
 2385POPC   C3B32949   3.890  41.102   8.043
 2385POPC   C4B32950   3.759  40.983   7.650
 2386POPC   NC332951  33.100  29.542   9.760
 2386POPC   PO432952  32.883  29.047   9.355
 2386POPC   GL132953  33.090  29.024   8.990
 2386POPC   GL232954  33.353  28.814   9.064
 2386POPC   C1A32955  32.851  29.162   8.632
 2386POPC   D2A32956  32.694  29.415   8.310
 2386POPC   C3A32957  32.968  29.322   7.996
 2386POPC   C4A32958  32.922  29.178   7.619
 2386POPC   C1B32959  33.404  28.711   8.637
 2386POPC   C2B32960  33.203  28.659   8.235
 2386POPC   C3B32961  33.294  28.896   7.858
 2386POPC   C4B32962  33.473  28.765   7.472
 2387POPC   NC332963  42.143  42.293   9.612
 2387POPC   PO432964  41.495  42.488   9.440
 2387POPC   GL132965  41.831  42.306   9.184
 2387POPC   GL232966  41.781  41.969   9.100
 2387POPC   C1A32967  41.901  42.458   8.765
 2387POPC   D2A32968  41.581  42.585   8.493
 2387POPC   C3A32969  41.663  42.571   8.071
 2387POPC   C4A32970  41.928  42.398   7.772
 2387POPC   C1B32971  41.676  42.028   8.669
 2387POPC   C2B32972  41.783  42.081   8.229
 2387POPC   C3B32973  41.564  42.021   7.817
 2387POPC   C4B32974  41.768  42.068   7.419
 2388POPC   NC332975   7.783  14.254   9.515
 2388POPC   PO432976   8.283  14.697   9.636
 2388POPC   GL132977   8.248  14.621   9.231
 2388POPC   GL232978   7.922  14.645   9.202
 2388POPC   C1A32979   8.286  14.446   8.834
 2388POPC   D2A32980   8.483  14.289   8.467
 2388POPC   C3A32981   8.310  14.392   8.095
 2388POPC   C4A32982   8.174  14.280   7.674
 2388POPC   C1B32983   7.836  14.714   8.783
 2388POPC   C2B32984   7.735  14.834   8.367
 2388POPC   C3B32985   7.897  14.664   8.025
 2388POPC   C4B32986   7.903  14.724   7.612
 2389POPC   NC332987  32.498   9.821   9.932
 2389POPC   PO432988  32.112  10.034   9.473
 2389POPC   GL132989  32.125   9.781   9.122
 2389POPC   GL232990  32.448   9.940   8.992
 2389POPC   C1A32991  32.044   9.760   8.701
 2389POPC   D2A32992  32.359   9.999   8.486
 2389POPC   C3A32993  32.320  10.017   8.061
 2389POPC   C4A32994  32.086   9.794   7.754
 2389POPC   C1B32995  32.499   9.550   8.711
 2389POPC   C2B32996  32.317   9.510   8.275
 2389POPC   C3B32997  32.292   9.332   7.840
 2389POPC   C4B32998  32.506   9.473   7.450
 2390POPC   NC332999  38.943   6.978   9.437
 2390POPC   PO433000  39.586   6.691   9.485
 2390POPC   GL133001  39.420   6.583   9.098
 2390POPC   GL233002  39.338   6.923   9.052
 2390POPC   C1A33003  39.200   6.530   8.713
 2390POPC   D2A33004  39.115   6.696   8.315
 2390POPC   C3A33005  39.168   6.459   7.952
 2390POPC   C4A33006  39.439   6.436   7.642
 2390POPC   C1B33007  39.003   7.025   8.760
 2390POPC   C2B33008  38.742   7.026   8.384
 2390POPC   C3B33009  38.955   7.076   7.980
 2390POPC   C4B33010  39.390   6.945   7.866
 2391POPC   NC333011  21.001  42.552   9.522
 2391POPC   PO433012  20.311  42.654   9.434
 2391POPC   GL133013  20.480  42.336   9.142
 2391POPC   GL233014  20.836  42.335   9.103
 2391POPC   C1A33015  20.522  42.285   8.706
 2391POPC   D2A33016  20.673  42.547   8.391
 2391POPC   C3A33017  20.536  42.481   7.999
 2391POPC   C4A33018  20.678  42.607   7.587
 2391POPC   C1B33019  21.027  42.330   8.708
 2391POPC   C2B33020  21.046  42.133   8.340
 2391POPC   C3B33021  20.814  42.044   7.981
 2391POPC   C4B33022  20.948  42.114   7.548
 2392POPC   NC333023   5.163  10.970   9.404
 2392POPC   PO433024   4.688  10.568   9.618
 2392POPC   GL133025   4.992  10.478   9.236
 2392POPC   GL233026   5.260  10.208   9.203
 2392POPC   C1A33027   5.131  10.626   8.806
 2392POPC   D2A33028   4.971  10.451   8.378
 2392POPC   C3A33029   5.297  10.292   8.077
 2392POPC   C4A33030   5.550  10.608   7.850
 2392POPC   C1B33031   5.100  10.126   8.783
 2392POPC   C2B33032   5.068   9.932   8.387
 2392POPC   C3B33033   4.820   9.996   8.021
 2392POPC   C4B33034   4.860  10.229   7.647
 2393POPC   NC333035  28.364  29.619   9.711
 2393POPC   PO433036  28.142  30.170   9.449
 2393POPC   GL133037  28.411  29.991   9.146
 2393POPC   GL233038  28.448  29.649   9.203
 2393POPC   C1A33039  28.374  30.146   8.723
 2393POPC   D2A33040  28.027  30.224   8.422
 2393POPC   C3A33041  28.201  30.175   8.011
 2393POPC   C4A33042  28.594  30.313   7.773
 2393POPC   C1B33043  28.299  29.621   8.797
 2393POPC   C2B33044  28.256  29.731   8.386
 2393POPC   C3B33045  28.057  29.620   8.020
 2393POPC   C4B33046  28.307  29.796   7.700
 2394POPC   NC333047  25.419  19.990   9.615
 2394POPC   PO433048  25.032  19.464   9.647
 2394POPC   GL133049  25.171  19.665   9.276
 2394POPC   GL233050  25.093  20.011   9.221
 2394POPC   C1A33051  25.216  19.596   8.815
 2394POPC   D2A33052  25.226  19.825   8.400
 2394POPC   C3A33053  24.944  19.766   8.061
 2394POPC   C4A33054  25.083  19.802   7.645
 2394POPC   C1B33055  25.254  20.110   8.818
 2394POPC   C2B33056  25.541  20.228   8.444
 2394POPC   C3B33057  25.417  20.079   8.000
 2394POPC   C4B33058  25.053  20.279   7.786
 2395POPC   NC333059  15.819  41.645   9.588
 2395POPC   PO433060  15.476  41.125   9.604
 2395POPC   GL133061  15.577  41.372   9.185
 2395POPC   GL233062  15.638  41.750   9.129
 2395POPC   C1A33063  15.830  41.347   8.783
 2395POPC   D2A33064  16.108  41.517   8.458
 2395POPC   C3A33065  16.148  41.335   8.061
 2395POPC   C4A33066  16.002  41.280   7.612
 2395POPC   C1B33067  15.872  41.890   8.761
 2395POPC   C2B33068  16.004  42.023   8.330
 2395POPC   C3B33069  15.910  41.755   7.962
 2395POPC   C4B33070  16.323  41.688   7.735
 2396POPC   NC333071  16.891  12.275   9.738
 2396POPC   PO433072  16.753  12.853   9.455
 2396POPC   GL133073  16.873  12.931   9.082
 2396POPC   GL233074  16.794  12.591   8.938
 2396POPC   C1A33075  16.738  13.009   8.685
 2396POPC   D2A33076  16.994  12.713   8.451
 2396POPC   C3A33077  16.906  12.802   8.026
 2396POPC   C4A33078  16.705  12.783   7.647
 2396POPC   C1B33079  16.420  12.566   8.759
 2396POPC   C2B33080  16.309  12.808   8.441
 2396POPC   C3B33081  16.407  12.738   8.046
 2396POPC   C4B33082  16.406  12.387   7.746
 2397POPC   NC333083   7.159  43.779   9.750
 2397POPC   PO433084   7.701  44.112   9.458
 2397POPC   GL133085   7.460  44.173   9.106
 2397POPC   GL233086   7.517  43.816   9.001
 2397POPC   C1A33087   7.253  44.114   8.707
 2397POPC   D2A33088   7.375  43.801   8.424
 2397POPC   C3A33089   7.297  43.915   7.991
 2397POPC   C4A33090   7.302  44.076   7.556
 2397POPC   C1B33091   7.816  43.648   8.695
 2397POPC   C2B33092   7.724  43.404   8.299
 2397POPC   C3B33093   7.630  43.474   7.863
 2397POPC   C4B33094   7.704  43.585   7.443
 2398POPC   NC333095   9.023  37.643   9.533
 2398POPC   PO433096   8.651  37.118   9.607
 2398POPC   GL133097   8.761  37.339   9.210
 2398POPC   GL233098   8.767  37.735   9.122
 2398POPC   C1A33099   8.919  37.346   8.785
 2398POPC   D2A33100   9.226  37.438   8.456
 2398POPC   C3A33101   9.011  37.519   8.064
 2398POPC   C4A33102   8.851  37.565   7.659
 2398POPC   C1B33103   9.112  37.826   8.830
 2398POPC   C2B33104   8.988  37.899   8.416
 2398POPC   C3B33105   9.169  38.033   8.049
 2398POPC   C4B33106   9.098  37.996   7.662
 2399POPC   NC333107  43.117   6.934   9.542
 2399POPC   PO433108  43.579   7.381   9.605
 2399POPC   GL133109  43.323   7.535   9.229
 2399POPC   GL233110  43.258   7.202   9.140
 2399POPC   C1A33111  43.116   7.566   8.796
 2399POPC   D2A33112  42.706   7.519   8.542
 2399POPC   C3A33113  42.746   7.442   8.093
 2399POPC   C4A33114  43.015   7.390   7.709
 2399POPC   C1B33115  42.931   7.079   8.864
 2399POPC   C2B33116  43.021   7.136   8.452
 2399POPC   C3B33117  43.219   7.105   8.093
 2399POPC   C4B33118  43.554   6.977   7.855
 2400POPC   NC333119   4.003  35.912   9.603
 2400POPC   PO433120   3.589  35.328   9.528
 2400POPC   GL133121   3.497  35.341   9.111
 2400POPC   GL233122   3.626  35.019   9.036
 2400POPC   C1A33123   3.417  35.613   8.755
 2400POPC   D2A33124   3.627  35.603   8.345
 2400POPC   C3A33125   3.402  35.684   7.952
 2400POPC   C4A33126   3.355  35.509   7.528
 2400POPC   C1B33127   3.499  35.116   8.614
 2400POPC   C2B33128   3.414  34.974   8.188
 2400POPC   C3B33129   3.360  34.965   7.727
 2400POPC   C4B33130   3.253  34.991   7.252
 2401POPC   NC333131  33.912  24.837   9.605
 2401POPC   PO433132  33.808  24.208   9.535
 2401POPC   GL133133  33.785  24.457   9.163
 2401POPC   GL233134  33.566  24.224   9.030
 2401POPC   C1A33135  33.959  24.622   8.736
 2401POPC   D2A33136  34.037  24.545   8.303
 2401POPC   C3A33137  33.822  24.493   7.905
 2401POPC   C4A33138  33.763  24.328   7.474
 2401POPC   C1B33139  33.382  24.219   8.632
 2401POPC   C2B33140  33.563  24.182   8.236
 2401POPC   C3B33141  33.476  23.994   7.872
 2401POPC   C4B33142  33.281  24.259   7.651
 2402POPC   NC333143  12.112   8.567   9.535
 2402POPC   PO433144  12.367   9.227   9.465
 2402POPC   GL133145  12.219   8.929   9.160
 2402POPC   GL233146  11.879   8.862   9.053
 2402POPC   C1A33147  12.192   9.135   8.766
 2402POPC   D2A33148  11.853   9.240   8.500
 2402POPC   C3A33149  11.906   9.259   8.077
 2402POPC   C4A33150  11.829   9.063   7.711
 2402POPC   C1B33151  11.907   8.705   8.670
 2402POPC   C2B33152  12.164   8.874   8.326
 2402POPC   C3B33153  12.308   8.916   7.930
 2402POPC   C4B33154  12.226   8.613   7.605
 2403POPC   NC333155  34.712  34.820   9.282
 2403POPC   PO433156  34.907  34.269   9.582
 2403POPC   GL133157  34.882  34.296   9.163
 2403POPC   GL233158  35.062  34.535   9.056
 2403POPC   C1A33159  34.591  34.315   8.813
 2403POPC   D2A33160  34.326  34.420   8.469
 2403POPC   C3A33161  34.466  34.520   8.052
 2403POPC   C4A33162  34.205  34.706   7.736
 2403POPC   C1B33163  34.998  34.636   8.651
 2403POPC   C2B33164  35.100  34.949   8.374
 2403POPC   C3B33165  34.964  35.007   7.986
 2403POPC   C4B33166  34.781  34.743   7.701
 2404POPC   NC333167  27.450  18.881   9.443
 2404POPC   PO433168  27.700  19.593   9.539
 2404POPC   GL133169  27.672  19.278   9.181
 2404POPC   GL233170  27.433  19.354   8.939
 2404POPC   C1A33171  27.883  19.167   8.801
 2404POPC   D2A33172  27.609  19.225   8.405
 2404POPC   C3A33173  27.808  19.169   8.023
 2404POPC   C4A33174  27.536  19.034   7.707
 2404POPC   C1B33175  27.429  18.929   8.774
 2404POPC   C2B33176  27.181  18.806   8.453
 2404POPC   C3B33177  27.138  18.837   8.030
 2404POPC   C4B33178  27.311  18.596   7.740
 2405POPC   NC333179  27.952  33.821   9.600
 2405POPC   PO433180  27.333  33.943   9.595
 2405POPC   GL133181  27.536  33.731   9.280
 2405POPC   GL233182  27.740  33.992   9.171
 2405POPC   C1A33183  27.600  33.602   8.858
 2405POPC   D2A33184  27.607  33.819   8.499
 2405POPC   C3A33185  27.628  33.674   8.097
 2405POPC   C4A33186  27.456  33.785   7.737
 2405POPC   C1B33187  27.410  34.136   8.890
 2405POPC   C2B33188  27.325  34.234   8.465
 2405POPC   C3B33189  27.524  34.194   8.084
 2405POPC   C4B33190  27.353  34.265   7.701
 2406POPC   NC333191   4.827   9.974   9.355
 2406POPC   PO433192   5.411   9.957   9.663
 2406POPC   GL133193   5.304   9.696   9.265
 2406POPC   GL233194   4.990   9.529   9.123
 2406POPC   C1A33195   5.329   9.660   8.793
 2406POPC   D2A33196   5.263   9.385   8.448
 2406POPC   C3A33197   5.149   9.561   8.046
 2406POPC   C4A33198   5.244   9.868   7.769
 2406POPC   C1B33199   4.779   9.727   8.759
 2406POPC   C2B33200   4.662   9.608   8.336
 2406POPC   C3B33201   4.665   9.442   7.943
 2406POPC   C4B33202   4.812   9.649   7.597
 2407POPC   NC333203   1.588  38.574   9.490
 2407POPC   PO433204   2.216  38.354   9.422
 2407POPC   GL133205   2.079  38.469   9.034
 2407POPC   GL233206   1.877  38.759   9.034
 2407POPC   C1A33207   2.278  38.651   8.692
 2407POPC   D2A33208   2.640  38.693   8.388
 2407POPC   C3A33209   2.434  38.689   7.977
 2407POPC   C4A33210   2.293  38.521   7.590
 2407POPC   C1B33211   1.804  38.824   8.596
 2407POPC   C2B33212   1.977  38.562   8.230
 2407POPC   C3B33213   1.841  38.598   7.807
 2407POPC   C4B33214   1.535  38.712   7.494
 2408POPC   NC333215  31.169  16.010   9.735
 2408POPC   PO433216  31.580  16.343   9.263
 2408POPC   GL133217  31.611  15.897   9.142
 2408POPC   GL233218  31.268  15.709   9.111
 2408POPC   C1A33219  31.629  15.828   8.713
 2408POPC   D2A33220  31.357  16.094   8.469
 2408POPC   C3A33221  31.520  16.123   8.063
 2408POPC   C4A33222  31.689  15.729   7.881
 2408POPC   C1B33223  31.229  15.524   8.726
 2408POPC   C2B33224  31.348  15.602   8.295
 2408POPC   C3B33225  31.177  15.788   7.920
 2408POPC   C4B33226  30.920  15.814   7.559
 2409POPC   NC333227  30.111  44.242   9.494
 2409POPC   PO433228  30.296  43.522   9.360
 2409POPC   GL133229  30.228  43.863   9.164
 2409POPC   GL233230  29.910  43.980   9.113
 2409POPC   C1A33231  30.267  43.890   8.760
 2409POPC   D2A33232  30.098  43.785   8.402
 2409POPC   C3A33233  30.204  43.936   8.045
 2409POPC   C4A33234  30.144  43.817   7.665
 2409POPC   C1B33235  29.754  43.748   8.774
 2409POPC   C2B33236  29.600  43.847   8.340
 2409POPC   C3B33237  29.706  43.952   7.886
 2409POPC   C4B33238  29.783  44.056   7.417
 2410POPC   NC333239  37.129   4.139   9.357
 2410POPC   PO433240  36.793   4.742   9.467
 2410POPC   GL133241  36.623   4.704   9.050
 2410POPC   GL233242  36.730   4.355   9.024
 2410POPC   C1A33243  36.539   4.560   8.605
 2410POPC   D2A33244  36.676   4.216   8.320
 2410POPC   C3A33245  36.810   4.366   7.905
 2410POPC   C4A33246  36.650   4.723   7.670
 2410POPC   C1B33247  36.934   4.034   8.752
 2410POPC   C2B33248  37.057   3.826   8.386
 2410POPC   C3B33249  36.830   3.827   8.019
 2410POPC   C4B33250  36.875   3.901   7.603
 2411POPC   NC333251  10.850  42.884   9.457
 2411POPC   PO433252  10.269  43.189   9.457
 2411POPC   GL133253  10.410  43.426   9.118
 2411POPC   GL233254  10.681  43.211   9.091
 2411POPC   C1A33255  10.353  43.498   8.695
 2411POPC   D2A33256  10.170  43.238   8.395
 2411POPC   C3A33257  10.314  43.134   7.994
 2411POPC   C4A33258  10.150  42.825   7.706
 2411POPC   C1B33259  10.716  42.801   8.831
 2411POPC   C2B33260  10.947  42.725   8.461
 2411POPC   C3B33261  10.730  42.833   8.030
 2411POPC   C4B33262  10.699  42.827   7.577
 2412POPC   NC333263  29.713  10.051   9.451
 2412POPC   PO433264  30.307   9.727   9.412
 2412POPC   GL133265  29.989   9.752   9.100
 2412POPC   GL233266  29.787   9.468   9.019
 2412POPC   C1A33267  30.078   9.644   8.657
 2412POPC   D2A33268  30.318   9.648   8.295
 2412POPC   C3A33269  29.993   9.646   7.991
 2412POPC   C4A33270  29.994   9.795   7.572
 2412POPC   C1B33271  29.554   9.799   8.774
 2412POPC   C2B33272  29.491   9.940   8.336
 2412POPC   C3B33273  29.513   9.863   7.890
 2412POPC   C4B33274  29.559   9.516   7.574
 2413POPC   NC333275   7.768  22.087   9.406
 2413POPC   PO433276   8.399  22.185   9.489
 2413POPC   GL133277   8.206  22.184   9.108
 2413POPC   GL233278   8.225  21.854   9.073
 2413POPC   C1A33279   8.032  22.100   8.678
 2413POPC   D2A33280   7.887  21.973   8.259
 2413POPC   C3A33281   8.073  22.230   7.919
 2413POPC   C4A33282   7.941  22.513   7.569
 2413POPC   C1B33283   8.295  21.651   8.694
 2413POPC   C2B33284   8.324  21.716   8.251
 2413POPC   C3B33285   8.140  21.727   7.847
 2413POPC   C4B33286   8.112  21.981   7.446
 2414POPC   NC333287  44.213  11.458   9.438
 2414POPC   PO433288  44.712  10.978   9.316
 2414POPC   GL133289  44.463  11.222   9.062
 2414POPC   GL233290  44.583  11.585   9.111
 2414POPC   C1A33291  44.625  11.319   8.686
 2414POPC   D2A33292  44.813  11.251   8.346
 2414POPC   C3A33293  44.619  10.911   8.182
 2414POPC   C4A33294  44.391  10.960   7.814
 2414POPC   C1B33295  44.262  11.662   8.799
 2414POPC   C2B33296  44.339  11.580   8.349
 2414POPC   C3B33297  44.465  11.469   7.931
 2414POPC   C4B33298  44.279  11.404   7.504
 2415POPC   NC333299  35.618  24.992   9.572
 2415POPC   PO433300  35.015  24.957   9.306
 2415POPC   GL133301  35.313  25.097   9.142
 2415POPC   GL233302  35.247  25.436   9.166
 2415POPC   C1A33303  35.345  25.198   8.717
 2415POPC   D2A33304  35.331  25.497   8.385
 2415POPC   C3A33305  35.569  25.404   8.012
 2415POPC   C4A33306  35.714  25.051   7.788
 2415POPC   C1B33307  35.029  25.611   8.797
 2415POPC   C2B33308  34.960  25.859   8.402
 2415POPC   C3B33309  35.075  25.647   7.973
 2415POPC   C4B33310  35.148  25.180   7.812
 2416POPC   NC333311  27.217  19.690   9.648
 2416POPC   PO433312  27.601  20.257   9.622
 2416POPC   GL133313  27.618  19.965   9.192
 2416POPC   GL233314  27.894  19.731   9.093
 2416POPC   C1A33315  27.786  20.098   8.774
 2416POPC   D2A33316  27.599  20.092   8.364
 2416POPC   C3A33317  27.783  20.117   7.977
 2416POPC   C4A33318  27.637  20.216   7.591
 2416POPC   C1B33319  27.769  19.634   8.642
 2416POPC   C2B33320  27.794  19.659   8.172
 2416POPC   C3B33321  27.536  19.550   7.831
 2416POPC   C4B33322  27.503  19.448   7.387
 2417POPC   NC333323   5.661  43.236   9.521
 2417POPC   PO433324   6.282  43.028   9.390
 2417POPC   GL133325   5.965  43.003   9.101
 2417POPC   GL233326   5.857  43.337   9.059
 2417POPC   C1A33327   6.031  43.086   8.648
 2417POPC   D2A33328   5.716  43.037   8.319
 2417POPC   C3A33329   5.984  43.027   7.974
 2417POPC   C4A33330   5.976  43.131   7.531
 2417POPC   C1B33331   5.697  43.469   8.643
 2417POPC   C2B33332   5.906  43.515   8.261
 2417POPC   C3B33333   5.648  43.387   7.905
 2417POPC   C4B33334   5.531  43.371   7.467
 2418POPC   NC333335  21.405  20.303   9.557
 2418POPC   PO433336  21.608  19.726   9.846
 2418POPC   GL133337  21.635  19.850   9.328
 2418POPC   GL233338  21.371  20.047   9.086
 2418POPC   C1A33339  21.692  19.762   8.846
 2418POPC   D2A33340  21.423  19.944   8.491
 2418POPC   C3A33341  21.587  19.907   8.066
 2418POPC   C4A33342  21.522  19.645   7.694
 2418POPC   C1B33343  21.122  20.275   8.791
 2418POPC   C2B33344  21.078  20.427   8.384
 2418POPC   C3B33345  21.113  20.210   7.999
 2418POPC   C4B33346  21.349  20.136   7.647
 2419POPC   NC333347  42.676  44.820   9.311
 2419POPC   PO433348  42.035  44.871   9.384
 2419POPC   GL133349  42.193  44.544   9.100
 2419POPC   GL233350  42.544  44.529   8.900
 2419POPC   C1A33351  42.140  44.308   8.729
 2419POPC   D2A33352  42.476  44.223   8.449
 2419POPC   C3A33353  42.485  44.464   8.060
 2419POPC   C4A33354  42.137  44.653   7.809
 2419POPC   C1B33355  42.291  44.839   8.687
 2419POPC   C2B33356  42.276   0.067   8.312
 2419POPC   C3B33357  42.508  44.978   7.956
 2419POPC   C4B33358  42.689   0.228   7.660
 2420POPC   NC333359  10.454  16.943   9.314
 2420POPC   PO433360  10.794  16.446   9.489
 2420POPC   GL133361  10.805  16.465   9.051
 2420POPC   GL233362  10.486  16.650   8.915
 2420POPC   C1A33363  10.829  16.422   8.619
 2420POPC   D2A33364  10.642  16.740   8.429
 2420POPC   C3A33365  10.489  16.691   8.068
 2420POPC   C4A33366  10.672  16.749   7.718
 2420POPC   C1B33367  10.158  16.643   8.569
 2420POPC   C2B33368   9.979  16.564   8.169
 2420POPC   C3B33369  10.049  16.875   7.857
 2420POPC   C4B33370  10.230  16.883   7.485
 2421POPC   NC333371  44.818   0.782   9.472
 2421POPC   PO433372  44.476   0.190   9.526
 2421POPC   GL133373  44.500   0.472   9.202
 2421POPC   GL233374  44.179   0.395   9.027
 2421POPC   C1A33375  44.798   0.507   8.875
 2421POPC   D2A33376  44.891   0.430   8.461
 2421POPC   C3A33377  44.778   0.767   8.177
 2421POPC   C4A33378  44.559   0.767   7.779
 2421POPC   C1B33379  44.480   0.086   8.874
 2421POPC   C2B33380  44.555   0.038   8.450
 2421POPC   C3B33381  44.594   0.260   8.065
 2421POPC   C4B33382  44.348   0.272   7.704
 2422POPC   NC333383   1.876   4.031   9.223
 2422POPC   PO433384   1.796   3.629   9.746
 2422POPC   GL133385   1.915   3.505   9.279
 2422POPC   GL233386   1.606   3.417   9.106
 2422POPC   C1A33387   1.972   3.387   8.798
 2422POPC   D2A33388   1.787   3.342   8.370
 2422POPC   C3A33389   1.989   3.464   7.988
 2422POPC   C4A33390   1.913   3.398   7.550
 2422POPC   C1B33391   1.593   3.707   8.683
 2422POPC   C2B33392   1.576   3.913   8.265
 2422POPC   C3B33393   1.651   3.829   7.825
 2422POPC   C4B33394   1.661   3.829   7.366
 2423POPC   NC333395  11.898  33.429   9.890
 2423POPC   PO433396  12.361  33.111   9.564
 2423POPC   GL133397  12.072  33.039   9.193
 2423POPC   GL233398  12.038  33.336   9.102
 2423POPC   C1A33399  12.068  32.745   8.811
 2423POPC   D2A33400  12.030  32.501   8.423
 2423POPC   C3A33401  12.071  32.673   8.031
 2423POPC   C4A33402  12.087  32.866   7.647
 2423POPC   C1B33403  12.170  33.230   8.727
 2423POPC   C2B33404  12.048  33.059   8.367
 2423POPC   C3B33405  12.198  33.206   7.988
 2423POPC   C4B33406  12.195  33.455   7.605
 2424POPC   NC333407  27.232  41.145  10.065
 2424POPC   PO433408  27.745  41.290   9.629
 2424POPC   GL133409  27.765  41.300   9.150
 2424POPC   GL233410  27.456  41.505   9.104
 2424POPC   C1A33411  27.594  41.248   8.695
 2424POPC   D2A33412  27.405  41.235   8.236
 2424POPC   C3A33413  27.682  41.225   7.879
 2424POPC   C4A33414  27.820  41.582   7.615
 2424POPC   C1B33415  27.144  41.479   8.745
 2424POPC   C2B33416  27.170  41.680   8.324
 2424POPC   C3B33417  27.288  41.610   7.868
 2424POPC   C4B33418  26.985  41.556   7.508
 2425POPC   NC333419  42.664  14.350   9.506
 2425POPC   PO433420  42.039  14.625   9.473
 2425POPC   GL133421  42.251  14.418   9.110
 2425POPC   GL233422  42.491  14.650   9.128
 2425POPC   C1A33423  42.597  14.223   8.837
 2425POPC   D2A33424  42.692  14.067   8.415
 2425POPC   C3A33425  42.419  14.208   8.063
 2425POPC   C4A33426  42.371  14.158   7.617
 2425POPC   C1B33427  42.664  14.718   8.783
 2425POPC   C2B33428  42.493  14.552   8.440
 2425POPC   C3B33429  42.365  14.719   8.079
 2425POPC   C4B33430  42.144  14.631   7.749
 2426POPC   NC333431  31.427  35.604   9.484
 2426POPC   PO433432  31.894  35.112   9.484
 2426POPC   GL133433  31.718  35.344   9.140
 2426POPC   GL233434  31.856  35.694   9.219
 2426POPC   C1A33435  31.573  35.241   8.700
 2426POPC   D2A33436  31.787  35.254   8.308
 2426POPC   C3A33437  31.530  35.110   7.988
 2426POPC   C4A33438  31.256  34.926   7.699
 2426POPC   C1B33439  31.600  35.723   8.824
 2426POPC   C2B33440  31.429  35.697   8.380
 2426POPC   C3B33441  31.601  35.628   7.934
 2426POPC   C4B33442  31.835  35.745   7.526
 2427POPC   NC333443  13.171  35.960   9.844
 2427POPC   PO433444  13.822  36.006   9.552
 2427POPC   GL133445  13.613  36.027   9.137
 2427POPC   GL233446  13.333  36.228   9.020
 2427POPC   C1A33447  13.713  36.191   8.720
 2427POPC   D2A33448  13.742  35.991   8.374
 2427POPC   C3A33449  13.731  36.188   8.023
 2427POPC   C4A33450  13.892  35.931   7.712
 2427POPC   C1B33451  13.328  36.531   8.748
 2427POPC   C2B33452  13.363  36.414   8.331
 2427POPC   C3B33453  13.388  36.547   7.893
 2427POPC   C4B33454  13.509  36.240   7.570
 2428POPC   NC333455  32.258  43.410   9.523
 2428POPC   PO433456  31.957  42.803   9.484
 2428POPC   GL133457  32.165  43.077   9.120
 2428POPC   GL233458  32.079  43.455   9.056
 2428POPC   C1A33459  32.101  43.179   8.641
 2428POPC   D2A33460  32.377  43.177   8.276
 2428POPC   C3A33461  32.198  43.023   7.872
 2428POPC   C4A33462  31.943  43.286   7.679
 2428POPC   C1B33463  32.159  43.696   8.693
 2428POPC   C2B33464  32.066  43.605   8.253
 2428POPC   C3B33465  32.348  43.525   7.907
 2428POPC   C4B33466  32.449  43.433   7.463
 2429POPC   NC333467  42.329  29.643   9.564
 2429POPC   PO433468  42.118  30.269   9.513
 2429POPC   GL133469  42.356  29.998   9.189
 2429POPC   GL233470  42.542  29.664   9.118
 2429POPC   C1A33471  42.280  29.997   8.748
 2429POPC   D2A33472  42.031  29.955   8.390
 2429POPC   C3A33473  42.165  30.123   7.998
 2429POPC   C4A33474  42.490  30.108   7.724
 2429POPC   C1B33475  42.286  29.485   8.854
 2429POPC   C2B33476  42.407  29.559   8.473
 2429POPC   C3B33477  42.284  29.621   8.112
 2429POPC   C4B33478  42.120  29.656   7.760
 2430POPC   NC333479  41.645   0.169   9.369
 2430POPC   PO433480  41.872   0.830   9.407
 2430POPC   GL133481  41.684   0.593   9.069
 2430POPC   GL233482  41.429   0.807   8.884
 2430POPC   C1A33483  41.472   0.343   8.699
 2430POPC   D2A33484  41.497   0.480   8.264
 2430POPC   C3A33485  41.365   0.383   7.838
 2430POPC   C4A33486  41.581   0.233   7.475
 2430POPC   C1B33487  41.817   0.716   8.624
 2430POPC   C2B33488  42.012   0.521   8.323
 2430POPC   C3B33489  41.879   0.548   7.906
 2430POPC   C4B33490  41.755   0.718   7.522
 2431POPC   NC333491  12.835  31.877   9.588
 2431POPC   PO433492  12.781  32.551   9.511
 2431POPC   GL133493  12.772  32.218   9.183
 2431POPC   GL233494  13.082  32.030   9.169
 2431POPC   C1A33495  12.855  32.292   8.753
 2431POPC   D2A33496  12.941  32.597   8.480
 2431POPC   C3A33497  12.915  32.459   8.040
 2431POPC   C4A33498  12.657  32.388   7.649
 2431POPC   C1B33499  13.100  31.857   8.753
 2431POPC   C2B33500  12.927  31.966   8.350
 2431POPC   C3B33501  12.791  31.953   7.947
 2431POPC   C4B33502  13.068  32.080   7.639
 2432POPC   NC333503  11.385  29.774   9.593
 2432POPC   PO433504  11.648  30.375   9.429
 2432POPC   GL133505  11.604  29.954   9.155
 2432POPC   GL233506  11.323  29.721   9.101
 2432POPC   C1A33507  11.586  29.887   8.688
 2432POPC   D2A33508  11.335  30.208   8.418
 2432POPC   C3A33509  11.431  30.263   8.015
 2432POPC   C4A33510  11.458  30.008   7.658
 2432POPC   C1B33511  11.099  29.960   8.808
 2432POPC   C2B33512  11.160  29.740   8.409
 2432POPC   C3B33513  11.082  29.889   8.001
 2432POPC   C4B33514  10.927  29.882   7.575
 2433POPC   NC333515  43.906  26.295   9.573
 2433POPC   PO433516  44.012  26.962   9.490
 2433POPC   GL133517  43.969  26.705   9.161
 2433POPC   GL233518  44.243  26.462   9.223
 2433POPC   C1A33519  43.999  26.903   8.756
 2433POPC   D2A33520  43.871  26.889   8.344
 2433POPC   C3A33521  43.526  26.944   8.133
 2433POPC   C4A33522  43.692  26.875   7.755
 2433POPC   C1B33523  44.277  26.459   8.793
 2433POPC   C2B33524  44.317  26.630   8.383
 2433POPC   C3B33525  44.149  26.532   7.987
 2433POPC   C4B33526  44.043  26.545   7.585
 2434POPC   NC333527  39.245  39.470   9.561
 2434POPC   PO433528  38.946  38.840   9.497
 2434POPC   GL133529  39.121  39.086   9.140
 2434POPC   GL233530  38.994  39.413   9.100
 2434POPC   C1A33531  39.035  39.112   8.677
 2434POPC   D2A33532  39.320  38.977   8.358
 2434POPC   C3A33533  39.207  38.921   7.934
 2434POPC   C4A33534  38.930  39.037   7.610
 2434POPC   C1B33535  39.319  39.598   8.832
 2434POPC   C2B33536  39.386  39.520   8.398
 2434POPC   C3B33537  39.467  39.674   7.987
 2434POPC   C4B33538  39.252  39.448   7.678
 2435POPC   NC333539   7.475  18.292   9.442
 2435POPC   PO433540   7.989  18.583   9.294
 2435POPC   GL133541   7.674  18.519   8.996
 2435POPC   GL233542   7.388  18.678   9.108
 2435POPC   C1A33543   7.555  18.405   8.572
 2435POPC   D2A33544   7.482  18.213   8.173
 2435POPC   C3A33545   7.644  18.471   7.886
 2435POPC   C4A33546   7.867  18.514   7.520
 2435POPC   C1B33547   7.122  18.382   8.861
 2435POPC   C2B33548   7.069  18.164   8.480
 2435POPC   C3B33549   6.956  18.228   8.062
 2435POPC   C4B33550   7.176  18.441   7.742
 2436POPC   NC333551  37.401  16.802   9.541
 2436POPC   PO433552  38.058  16.887   9.523
 2436POPC   GL133553  37.877  16.699   9.122
 2436POPC   GL233554  37.590  16.882   9.076
 2436POPC   C1A33555  37.810  16.711   8.636
 2436POPC   D2A33556  38.031  16.700   8.228
 2436POPC   C3A33557  37.835  16.811   7.862
 2436POPC   C4A33558  37.736  17.220   7.744
 2436POPC   C1B33559  37.359  16.559   8.845
 2436POPC   C2B33560  37.482  16.343   8.459
 2436POPC   C3B33561  37.356  16.449   8.043
 2436POPC   C4B33562  37.418  16.422   7.605
 2437POPC   NC333563  22.973  25.606   9.618
 2437POPC   PO433564  23.159  25.007   9.454
 2437POPC   GL133565  22.912  25.275   9.143
 2437POPC   GL233566  23.098  25.603   9.109
 2437POPC   C1A33567  22.597  25.161   8.764
 2437POPC   D2A33568  22.425  24.988   8.339
 2437POPC   C3A33569  22.700  25.055   7.988
 2437POPC   C4A33570  22.735  25.500   7.844
 2437POPC   C1B33571  22.876  25.600   8.725
 2437POPC   C2B33572  22.844  25.378   8.356
 2437POPC   C3B33573  23.162  25.279   8.052
 2437POPC   C4B33574  23.157  25.388   7.591
 2438POPC   NC333575  16.303  15.193   9.559
 2438POPC   PO433576  15.739  15.432   9.660
 2438POPC   GL133577  15.870  15.295   9.237
 2438POPC   GL233578  16.029  14.988   9.190
 2438POPC   C1A33579  15.952  15.353   8.783
 2438POPC   D2A33580  16.056  15.532   8.377
 2438POPC   C3A33581  15.998  15.268   8.025
 2438POPC   C4A33582  15.832  14.915   7.847
 2438POPC   C1B33583  16.237  14.938   8.805
 2438POPC   C2B33584  16.178  14.830   8.388
 2438POPC   C3B33585  16.338  14.843   8.010
 2438POPC   C4B33586  16.280  15.041   7.653
 2439POPC   NC333587  31.725   8.414   9.326
 2439POPC   PO433588  32.379   8.140   9.529
 2439POPC   GL133589  32.314   8.083   9.073
 2439POPC   GL233590  32.213   8.378   9.068
 2439POPC   C1A33591  32.281   8.055   8.628
 2439POPC   D2A33592  32.126   7.933   8.231
 2439POPC   C3A33593  32.268   7.996   7.786
 2439POPC   C4A33594  32.208   7.961   7.322
 2439POPC   C1B33595  32.280   8.577   8.689
 2439POPC   C2B33596  32.261   8.437   8.282
 2439POPC   C3B33597  32.140   8.479   7.873
 2439POPC   C4B33598  32.334   8.468   7.463
 2440POPC   NC333599  42.176  10.144   9.452
 2440POPC   PO433600  41.744   9.558   9.467
 2440POPC   GL133601  42.159   9.644   9.180
 2440POPC   GL233602  42.543   9.533   9.159
 2440POPC   C1A33603  42.307   9.814   8.750
 2440POPC   D2A33604  42.630  10.046   8.482
 2440POPC   C3A33605  42.461  10.114   8.050
 2440POPC   C4A33606  42.148   9.866   7.795
 2440POPC   C1B33607  42.751   9.520   8.738
 2440POPC   C2B33608  42.724   9.385   8.267
 2440POPC   C3B33609  42.527   9.422   7.828
 2440POPC   C4B33610  42.378   9.586   7.413
 2441POPC   NC333611  29.531  20.338   9.390
 2441POPC   PO433612  29.029  20.752   9.607
 2441POPC   GL133613  29.115  20.632   9.177
 2441POPC   GL233614  28.823  20.879   9.095
 2441POPC   C1A33615  29.340  20.502   8.782
 2441POPC   D2A33616  29.259  20.331   8.385
 2441POPC   C3A33617  29.290  20.599   8.029
 2441POPC   C4A33618  29.166  20.352   7.682
 2441POPC   C1B33619  28.930  20.792   8.695
 2441POPC   C2B33620  28.865  20.635   8.285
 2441POPC   C3B33621  28.868  20.757   7.820
 2441POPC   C4B33622  28.837  20.625   7.383
 2442POPC   NC333623   7.073  41.006   9.441
 2442POPC   PO433624   7.729  40.993   9.354
 2442POPC   GL133625   7.593  40.635   9.090
 2442POPC   GL233626   7.211  40.619   9.076
 2442POPC   C1A33627   7.593  40.457   8.629
 2442POPC   D2A33628   7.546  40.347   8.159
 2442POPC   C3A33629   7.460  40.656   7.819
 2442POPC   C4A33630   7.252  40.632   7.421
 2442POPC   C1B33631   7.319  40.894   8.739
 2442POPC   C2B33632   7.395  40.864   8.290
 2442POPC   C3B33633   7.225  41.086   7.935
 2442POPC   C4B33634   7.152  41.161   7.484
 2443POPC   NC333635  31.228  20.679   9.857
 2443POPC   PO433636  30.626  20.704   9.614
 2443POPC   GL133637  30.752  20.673   9.180
 2443POPC   GL233638  30.611  20.329   9.241
 2443POPC   C1A33639  30.955  20.814   8.780
 2443POPC   D2A33640  31.011  20.848   8.308
 2443POPC   C3A33641  30.584  20.784   8.091
 2443POPC   C4A33642  30.236  20.878   7.788
 2443POPC   C1B33643  30.767  20.288   8.837
 2443POPC   C2B33644  30.750  20.391   8.416
 2443POPC   C3B33645  30.577  20.231   8.053
 2443POPC   C4B33646  30.491  20.445   7.695
 2444POPC   NC333647  21.869  35.607   9.375
 2444POPC   PO433648  22.304  35.124   9.394
 2444POPC   GL133649  22.375  35.371   9.024
 2444POPC   GL233650  22.585  35.622   9.052
 2444POPC   C1A33651  22.127  35.558   8.679
 2444POPC   D2A33652  22.021  35.603   8.229
 2444POPC   C3A33653  22.097  35.167   8.057
 2444POPC   C4A33654  22.092  34.834   7.750
 2444POPC   C1B33655  22.586  35.776   8.601
 2444POPC   C2B33656  22.480  35.846   8.162
 2444POPC   C3B33657  22.403  35.523   7.824
 2444POPC   C4B33658  22.595  35.556   7.370
 2445POPC   NC333659   9.067  24.218   9.543
 2445POPC   PO433660   8.560  24.036   9.408
 2445POPC   GL133661   8.886  24.192   9.060
 2445POPC   GL233662   9.111  24.502   9.110
 2445POPC   C1A33663   9.098  24.295   8.636
 2445POPC   D2A33664   9.006  24.596   8.292
 2445POPC   C3A33665   9.054  24.506   7.859
 2445POPC   C4A33666   8.738  24.649   7.552
 2445POPC   C1B33667   9.205  24.788   8.745
 2445POPC   C2B33668   9.422  24.892   8.338
 2445POPC   C3B33669   9.470  24.801   7.901
 2445POPC   C4B33670   9.196  24.900   7.574
 2446POPC   NC333671   2.828   9.136   9.400
 2446POPC   PO433672   2.853   9.781   9.494
 2446POPC   GL133673   2.898   9.542   9.094
 2446POPC   GL233674   2.579   9.326   9.004
 2446POPC   C1A33675   2.920   9.335   8.640
 2446POPC   D2A33676   2.752   9.252   8.217
 2446POPC   C3A33677   2.925   9.535   7.909
 2446POPC   C4A33678   3.151   9.489   7.519
 2446POPC   C1B33679   2.619   9.751   8.749
 2446POPC   C2B33680   2.806   9.783   8.357
 2446POPC   C3B33681   2.854  10.029   7.978
 2446POPC   C4B33682   2.551  10.050   7.652
 2447POPC   NC333683   2.901   2.822   9.942
 2447POPC   PO433684   2.433   2.916   9.469
 2447POPC   GL133685   2.448   2.681   9.066
 2447POPC   GL233686   2.752   2.850   8.999
 2447POPC   C1A33687   2.558   2.555   8.619
 2447POPC   D2A33688   2.845   2.591   8.253
 2447POPC   C3A33689   2.647   2.787   7.863
 2447POPC   C4A33690   2.432   2.575   7.524
 2447POPC   C1B33691   2.717   3.046   8.584
 2447POPC   C2B33692   2.942   3.083   8.196
 2447POPC   C3B33693   3.145   2.884   7.817
 2447POPC   C4B33694   3.180   3.093   7.396
 2448POPC   NC333695  43.520  10.287   9.563
 2448POPC   PO433696  44.132  10.186   9.505
 2448POPC   GL133697  43.969  10.355   9.115
 2448POPC   GL233698  43.683  10.589   9.158
 2448POPC   C1A33699  44.167  10.341   8.689
 2448POPC   D2A33700  44.326  10.500   8.284
 2448POPC   C3A33701  44.103  10.539   7.889
 2448POPC   C4A33702  43.757  10.793   7.806
 2448POPC   C1B33703  43.775  10.685   8.704
 2448POPC   C2B33704  43.787  10.440   8.312
 2448POPC   C3B33705  43.590  10.163   8.004
 2448POPC   C4B33706  43.568  10.365   7.587
 2449POPC   NC333707  29.769  40.164   9.508
 2449POPC   PO433708  30.345  39.785   9.433
 2449POPC   GL133709  29.971  39.856   9.173
 2449POPC   GL233710  30.020  39.622   8.943
 2449POPC   C1A33711  29.719  40.006   8.815
 2449POPC   D2A33712  29.892  40.139   8.432
 2449POPC   C3A33713  29.683  40.244   8.065
 2449POPC   C4A33714  29.882  40.491   7.731
 2449POPC   C1B33715  29.946  39.589   8.490
 2449POPC   C2B33716  29.813  39.749   8.082
 2449POPC   C3B33717  30.084  39.994   7.798
 2449POPC   C4B33718  30.025  40.168   7.368
 2450POPC   NC333719  35.786  37.799   9.612
 2450POPC   PO433720  36.465  37.852   9.480
 2450POPC   GL133721  36.292  37.758   9.132
 2450POPC   GL233722  35.984  37.687   9.159
 2450POPC   C1A33723  36.334  37.718   8.726
 2450POPC   D2A33724  36.525  37.516   8.406
 2450POPC   C3A33725  36.431  37.726   7.997
 2450POPC   C4A33726  36.205  37.669   7.628
 2450POPC   C1B33727  35.851  37.601   8.739
 2450POPC   C2B33728  35.999  37.562   8.333
 2450POPC   C3B33729  35.918  37.807   8.019
 2450POPC   C4B33730  35.729  37.827   7.656
 2451POPC   NC333731  19.577   5.697   9.703
 2451POPC   PO433732  19.956   5.977   9.239
 2451POPC   GL133733  19.609   5.920   8.998
 2451POPC   GL233734  19.588   6.240   8.886
 2451POPC   C1A33735  19.637   5.882   8.529
 2451POPC   D2A33736  19.984   5.930   8.209
 2451POPC   C3A33737  19.763   5.738   7.868
 2451POPC   C4A33738  19.456   5.383   7.852
 2451POPC   C1B33739  19.941   6.278   8.623
 2451POPC   C2B33740  19.727   6.377   8.252
 2451POPC   C3B33741  19.630   6.434   7.821
 2451POPC   C4B33742  19.586   6.187   7.447
 2452POPC   NC333743  24.360  26.355   9.571
 2452POPC   PO433744  24.738  25.850   9.579
 2452POPC   GL133745  24.563  25.887   9.182
 2452POPC   GL233746  24.712  26.227   9.176
 2452POPC   C1A33747  24.363  25.738   8.763
 2452POPC   D2A33748  24.141  25.859   8.353
 2452POPC   C3A33749  24.348  25.796   7.945
 2452POPC   C4A33750  24.561  25.927   7.567
 2452POPC   C1B33751  24.565  26.244   8.767
 2452POPC   C2B33752  24.357  26.357   8.356
 2452POPC   C3B33753  24.473  26.297   7.939
 2452POPC   C4B33754  24.774  26.414   7.620
 2453POPC   NC333755   8.898  40.563   9.420
 2453POPC   PO433756   9.162  39.828   9.405
 2453POPC   GL133757   8.910  40.109   9.159
 2453POPC   GL233758   9.209  40.274   9.082
 2453POPC   C1A33759   8.682  40.035   8.773
 2453POPC   D2A33760   8.534  40.143   8.351
 2453POPC   C3A33761   8.609  39.967   7.901
 2453POPC   C4A33762   8.739  40.070   7.416
 2453POPC   C1B33763   9.171  39.912   8.758
 2453POPC   C2B33764   8.933  39.805   8.409
 2453POPC   C3B33765   9.072  39.842   8.058
 2453POPC   C4B33766   9.054  39.734   7.677
 2454POPC   NC333767  43.845  21.672   9.588
 2454POPC   PO433768  43.881  20.989   9.586
 2454POPC   GL133769  43.897  21.301   9.218
 2454POPC   GL233770  43.653  21.588   9.141
 2454POPC   C1A33771  43.827  21.273   8.764
 2454POPC   D2A33772  44.052  21.285   8.374
 2454POPC   C3A33773  43.856  21.287   7.981
 2454POPC   C4A33774  44.091  21.407   7.642
 2454POPC   C1B33775  43.645  21.760   8.772
 2454POPC   C2B33776  43.611  21.567   8.377
 2454POPC   C3B33777  43.430  21.621   8.000
 2454POPC   C4B33778  43.646  21.662   7.657
 2455POPC   NC333779  31.990  36.257   9.510
 2455POPC   PO433780  32.654  36.580   9.449
 2455POPC   GL133781  32.341  36.394   9.129
 2455POPC   GL233782  32.160  36.076   9.062
 2455POPC   C1A33783  32.221  36.393   8.693
 2455POPC   D2A33784  31.968  36.551   8.382
 2455POPC   C3A33785  32.139  36.313   8.106
 2455POPC   C4A33786  32.244  36.263   7.728
 2455POPC   C1B33787  32.116  35.742   8.785
 2455POPC   C2B33788  31.940  35.722   8.407
 2455POPC   C3B33789  32.081  35.816   8.013
 2455POPC   C4B33790  32.310  35.767   7.659
 2456POPC   NC333791  36.140  16.285   9.269
 2456POPC   PO433792  36.309  16.818   9.675
 2456POPC   GL133793  36.260  16.837   9.213
 2456POPC   GL233794  35.942  16.950   9.049
 2456POPC   C1A33795  36.372  16.931   8.768
 2456POPC   D2A33796  36.487  16.701   8.374
 2456POPC   C3A33797  36.269  16.816   7.992
 2456POPC   C4A33798  36.159  16.796   7.541
 2456POPC   C1B33799  35.961  16.619   8.692
 2456POPC   C2B33800  35.831  16.589   8.248
 2456POPC   C3B33801  35.760  16.758   7.849
 2456POPC   C4B33802  35.687  16.692   7.396
 2457POPC   NC333803   2.705  20.156   9.426
 2457POPC   PO433804   2.277  19.722   9.254
 2457POPC   GL133805   2.693  19.630   9.066
 2457POPC   GL233806   2.950  19.862   9.055
 2457POPC   C1A33807   2.877  19.594   8.646
 2457POPC   D2A33808   2.643  19.754   8.331
 2457POPC   C3A33809   2.856  19.684   7.992
 2457POPC   C4A33810   2.778  19.739   7.568
 2457POPC   C1B33811   2.699  20.091   8.747
 2457POPC   C2B33812   2.520  20.243   8.341
 2457POPC   C3B33813   2.605  20.118   7.889
 2457POPC   C4B33814   2.533  20.166   7.393
 2458POPC   NC333815  33.362  12.631   9.615
 2458POPC   PO433816  33.771  13.158   9.453
 2458POPC   GL133817  33.703  12.989   9.078
 2458POPC   GL233818  33.557  12.655   9.097
 2458POPC   C1A33819  33.952  12.886   8.749
 2458POPC   D2A33820  33.809  13.022   8.371
 2458POPC   C3A33821  34.053  12.853   8.048
 2458POPC   C4A33822  33.984  13.108   7.725
 2458POPC   C1B33823  33.466  12.712   8.637
 2458POPC   C2B33824  33.406  12.750   8.188
 2458POPC   C3B33825  33.581  12.741   7.755
 2458POPC   C4B33826  33.472  12.479   7.385
 2459POPC   NC333827   0.884   4.775   9.637
 2459POPC   PO433828   1.322   5.275   9.394
 2459POPC   GL133829   1.289   5.005   9.068
 2459POPC   GL233830   0.956   4.951   9.167
 2459POPC   C1A33831   1.472   4.969   8.653
 2459POPC   D2A33832   1.264   5.070   8.275
 2459POPC   C3A33833   1.450   4.867   7.962
 2459POPC   C4A33834   1.643   5.115   7.636
 2459POPC   C1B33835   0.807   5.167   8.832
 2459POPC   C2B33836   0.641   5.114   8.431
 2459POPC   C3B33837   0.793   5.081   8.000
 2459POPC   C4B33838   1.138   5.165   7.719
 2460POPC   NC333839  23.619  38.743   9.342
 2460POPC   PO433840  23.748  38.172   9.564
 2460POPC   GL133841  23.784  38.338   9.107
 2460POPC   GL233842  24.122  38.359   8.951
 2460POPC   C1A33843  23.694  38.277   8.668
 2460POPC   D2A33844  23.538  38.618   8.412
 2460POPC   C3A33845  23.499  38.552   7.988
 2460POPC   C4A33846  23.847  38.367   7.774
 2460POPC   C1B33847  23.921  38.732   8.735
 2460POPC   C2B33848  23.961  38.904   8.301
 2460POPC   C3B33849  23.864  38.879   7.814
 2460POPC   C4B33850  23.852  38.720   7.382
 2461POPC   NC333851  40.663  28.794   9.588
 2461POPC   PO433852  40.998  29.297   9.287
 2461POPC   GL133853  41.003  29.017   9.007
 2461POPC   GL233854  40.673  29.104   8.923
 2461POPC   C1A33855  41.038  28.976   8.585
 2461POPC   D2A33856  40.703  29.064   8.390
 2461POPC   C3A33857  40.859  29.031   8.030
 2461POPC   C4A33858  40.597  29.101   7.751
 2461POPC   C1B33859  40.792  29.484   8.720
 2461POPC   C2B33860  40.969  29.565   8.365
 2461POPC   C3B33861  40.735  29.536   8.004
 2461POPC   C4B33862  40.841  29.538   7.584
 2462POPC   NC333863  42.770   4.739   9.322
 2462POPC   PO433864  43.368   4.874   9.497
 2462POPC   GL133865  43.221   4.993   9.108
 2462POPC   GL233866  43.186   5.375   9.143
 2462POPC   C1A33867  43.257   4.801   8.683
 2462POPC   D2A33868  43.222   4.663   8.248
 2462POPC   C3A33869  43.462   4.832   7.917
 2462POPC   C4A33870  43.293   4.845   7.506
 2462POPC   C1B33871  43.280   5.324   8.706
 2462POPC   C2B33872  43.208   5.197   8.280
 2462POPC   C3B33873  43.165   5.240   7.820
 2462POPC   C4B33874  43.071   5.275   7.381
 2463POPC   NC333875  38.004  31.722   9.638
 2463POPC   PO433876  37.675  31.169   9.477
 2463POPC   GL133877  37.697  31.541   9.234
 2463POPC   GL233878  37.598  31.313   8.960
 2463POPC   C1A33879  37.848  31.773   8.874
 2463POPC   D2A33880  37.765  31.535   8.496
 2463POPC   C3A33881  37.710  31.712   8.078
 2463POPC   C4A33882  37.557  31.546   7.662
 2463POPC   C1B33883  37.996  31.123   8.866
 2463POPC   C2B33884  38.236  31.261   8.521
 2463POPC   C3B33885  38.039  31.320   8.115
 2463POPC   C4B33886  37.922  31.187   7.723
 2464POPC   NC333887   8.433  34.407   9.427
 2464POPC   PO433888   7.874  34.674   9.556
 2464POPC   GL133889   8.091  34.701   9.184
 2464POPC   GL233890   8.391  34.893   9.274
 2464POPC   C1A33891   8.054  34.450   8.809
 2464POPC   D2A33892   8.248  34.289   8.458
 2464POPC   C3A33893   7.999  34.278   8.099
 2464POPC   C4A33894   7.781  34.371   7.746
 2464POPC   C1B33895   8.487  34.795   8.848
 2464POPC   C2B33896   8.556  34.831   8.410
 2464POPC   C3B33897   8.495  34.557   8.071
 2464POPC   C4B33898   8.206  34.629   7.762
 2465POPC   NC333899  16.171   4.097   9.934
 2465POPC   PO433900  15.587   3.888   9.699
 2465POPC   GL133901  15.938   3.908   9.320
 2465POPC   GL233902  15.736   3.882   9.015
 2465POPC   C1A33903  16.221   3.992   8.902
 2465POPC   D2A33904  16.041   4.258   8.530
 2465POPC   C3A33905  16.055   4.361   8.067
 2465POPC   C4A33906  16.083   4.058   7.696
 2465POPC   C1B33907  15.884   3.766   8.595
 2465POPC   C2B33908  15.917   3.879   8.165
 2465POPC   C3B33909  15.619   4.115   7.916
 2465POPC   C4B33910  15.379   4.486   7.746
 2466POPC   NC333911  29.230  27.826   9.628
 2466POPC   PO433912  28.718  27.890   9.291
 2466POPC   GL133913  29.056  27.880   9.047
 2466POPC   GL233914  29.265  27.602   9.057
 2466POPC   C1A33915  29.170  27.871   8.612
 2466POPC   D2A33916  29.207  27.539   8.289
 2466POPC   C3A33917  29.306  27.664   7.863
 2466POPC   C4A33918  29.044  27.655   7.490
 2466POPC   C1B33919  28.982  27.393   8.732
 2466POPC   C2B33920  28.791  27.238   8.299
 2466POPC   C3B33921  28.913  27.308   7.834
 2466POPC   C4B33922  28.902  27.203   7.331
 2467POPC   NC333923  37.988  19.081   9.475
 2467POPC   PO433924  37.312  18.912   9.507
 2467POPC   GL133925  37.589  18.847   9.190
 2467POPC   GL233926  37.593  19.197   9.132
 2467POPC   C1A33927  37.736  18.778   8.782
 2467POPC   D2A33928  37.738  19.026   8.395
 2467POPC   C3A33929  37.548  18.980   7.989
 2467POPC   C4A33930  37.842  18.848   7.728
 2467POPC   C1B33931  37.952  19.244   8.841
 2467POPC   C2B33932  38.180  19.323   8.492
 2467POPC   C3B33933  38.116  19.272   8.081
 2467POPC   C4B33934  37.841  19.363   7.774
 2468POPC   NC333935  37.944  23.338   9.696
 2468POPC   PO433936  37.569  22.820   9.569
 2468POPC   GL133937  37.832  22.906   9.221
 2468POPC   GL233938  37.517  22.980   9.076
 2468POPC   C1A33939  37.951  22.826   8.779
 2468POPC   D2A33940  37.896  22.543   8.394
 2468POPC   C3A33941  37.913  22.740   8.026
 2468POPC   C4A33942  38.114  23.016   7.789
 2468POPC   C1B33943  37.438  22.725   8.755
 2468POPC   C2B33944  37.472  22.835   8.355
 2468POPC   C3B33945  37.397  22.710   7.967
 2468POPC   C4B33946  37.590  22.856   7.604
 2469POPC   NC333947  35.450  36.207   9.369
 2469POPC   PO433948  35.490  35.573   9.545
 2469POPC   GL133949  35.464  35.781   9.130
 2469POPC   GL233950  35.762  35.961   9.021
 2469POPC   C1A33951  35.248  35.942   8.732
 2469POPC   D2A33952  35.084  35.918   8.292
 2469POPC   C3A33953  35.421  35.873   8.015
 2469POPC   C4A33954  35.343  36.198   7.710
 2469POPC   C1B33955  35.660  36.287   8.721
 2469POPC   C2B33956  35.493  36.283   8.316
 2469POPC   C3B33957  35.745  36.433   7.997
 2469POPC   C4B33958  35.811  36.329   7.580
 2470POPC   NC333959  44.995  35.134   9.456
 2470POPC   PO433960  44.580  34.564   9.620
 2470POPC   GL133961  44.854  34.654   9.241
 2470POPC   GL233962  44.718  34.348   9.127
 2470POPC   C1A33963   0.030  34.572   8.797
 2470POPC   D2A33964  44.699  34.541   8.465
 2470POPC   C3A33965  44.729  34.695   8.045
 2470POPC   C4A33966  44.981  34.515   7.746
 2470POPC   C1B33967  44.416  34.237   8.852
 2470POPC   C2B33968  44.308  34.208   8.433
 2470POPC   C3B33969  44.427  34.281   8.029
 2470POPC   C4B33970  44.333  34.287   7.602
 2471POPC   NC333971  38.818  22.828   9.628
 2471POPC   PO433972  38.351  23.183   9.844
 2471POPC   GL133973  38.356  23.042   9.380
 2471POPC   GL233974  38.335  22.668   9.258
 2471POPC   C1A33975  38.400  23.082   8.899
 2471POPC   D2A33976  38.610  23.240   8.498
 2471POPC   C3A33977  38.532  23.163   8.048
 2471POPC   C4A33978  38.748  23.147   7.620
 2471POPC   C1B33979  38.392  22.562   8.805
 2471POPC   C2B33980  38.345  22.794   8.420
 2471POPC   C3B33981  38.436  22.631   8.019
 2471POPC   C4B33982  38.488  22.724   7.612
 2472POPC   NC333983  39.736  18.765   9.383
 2472POPC   PO433984  39.535  19.365   9.341
 2472POPC   GL133985  39.779  19.176   9.035
 2472POPC   GL233986  40.104  19.063   9.144
 2472POPC   C1A33987  39.874  19.071   8.622
 2472POPC   D2A33988  39.784  18.865   8.244
 2472POPC   C3A33989  39.959  19.088   7.929
 2472POPC   C4A33990  40.004  19.000   7.538
 2472POPC   C1B33991  40.278  18.832   8.813
 2472POPC   C2B33992  40.129  18.587   8.498
 2472POPC   C3B33993  40.246  18.690   8.081
 2472POPC   C4B33994  40.269  18.586   7.661
 2473POPC   NC333995  34.606  22.613   9.549
 2473POPC   PO433996  34.809  23.185   9.270
 2473POPC   GL133997  34.764  22.795   9.096
 2473POPC   GL233998  34.416  22.754   9.092
 2473POPC   C1A33999  34.711  22.657   8.689
 2473POPC   D2A34000  34.767  22.890   8.321
 2473POPC   C3A34001  34.701  22.728   7.920
 2473POPC   C4A34002  34.921  22.992   7.651
 2473POPC   C1B34003  34.351  23.026   8.738
 2473POPC   C2B34004  34.430  23.265   8.370
 2473POPC   C3B34005  34.502  23.223   7.909
 2473POPC   C4B34006  34.120  23.266   7.649
 2474POPC   NC334007  18.467  21.841   9.480
 2474POPC   PO434008  17.950  22.271   9.521
 2474POPC   GL134009  18.080  22.297   9.133
 2474POPC   GL234010  18.118  21.960   9.138
 2474POPC   C1A34011  17.931  22.159   8.720
 2474POPC   D2A34012  17.693  22.219   8.377
 2474POPC   C3A34013  17.981  22.264   8.022
 2474POPC   C4A34014  18.279  22.232   7.680
 2474POPC   C1B34015  18.351  21.870   8.765
 2474POPC   C2B34016  18.330  21.999   8.320
 2474POPC   C3B34017  18.284  21.779   7.919
 2474POPC   C4B34018  18.265  21.755   7.453
 2475POPC   NC334019  25.932   4.093   9.570
 2475POPC   PO434020  26.044   4.733   9.521
 2475POPC   GL134021  26.085   4.491   9.157
 2475POPC   GL234022  25.781   4.367   9.153
 2475POPC   C1A34023  26.031   4.289   8.732
 2475POPC   D2A34024  26.126   4.040   8.405
 2475POPC   C3A34025  25.972   4.233   8.056
 2475POPC   C4A34026  26.085   4.477   7.730
 2475POPC   C1B34027  25.691   4.651   8.823
 2475POPC   C2B34028  25.692   4.534   8.402
 2475POPC   C3B34029  25.771   4.731   8.024
 2475POPC   C4B34030  25.583   4.606   7.650
 2476POPC   NC334031  42.269  15.723   9.734
 2476POPC   PO434032  42.265  16.356   9.562
 2476POPC   GL134033  42.522  16.143   9.220
 2476POPC   GL234034  42.351  15.855   9.171
 2476POPC   C1A34035  42.580  15.979   8.760
 2476POPC   D2A34036  42.325  15.948   8.412
 2476POPC   C3A34037  42.551  15.955   8.048
 2476POPC   C4A34038  42.430  16.022   7.684
 2476POPC   C1B34039  42.217  15.623   8.788
 2476POPC   C2B34040  42.170  15.436   8.372
 2476POPC   C3B34041  42.156  15.639   7.977
 2476POPC   C4B34042  41.942  15.922   7.684
 2477POPC   NC334043  11.114  22.897   9.512
 2477POPC   PO434044  11.757  22.571   9.582
 2477POPC   GL134045  11.507  22.724   9.230
 2477POPC   GL234046  11.643  23.016   9.062
 2477POPC   C1A34047  11.274  22.733   8.827
 2477POPC   D2A34048  11.143  22.743   8.401
 2477POPC   C3A34049  11.441  22.925   8.120
 2477POPC   C4A34050  11.516  22.872   7.692
 2477POPC   C1B34051  11.659  23.305   8.735
 2477POPC   C2B34052  11.659  23.384   8.301
 2477POPC   C3B34053  11.562  23.372   7.809
 2477POPC   C4B34054  11.629  23.692   7.427
 2478POPC   NC334055  21.607  30.539   9.557
 2478POPC   PO434056  21.191  31.121   9.573
 2478POPC   GL134057  21.281  30.806   9.214
 2478POPC   GL234058  21.574  30.635   9.026
 2478POPC   C1A34059  21.095  30.588   8.821
 2478POPC   D2A34060  21.116  30.371   8.428
 2478POPC   C3A34061  21.269  30.546   8.053
 2478POPC   C4A34062  21.005  30.691   7.713
 2478POPC   C1B34063  21.562  30.613   8.545
 2478POPC   C2B34064  21.807  30.464   8.216
 2478POPC   C3B34065  21.752  30.738   7.888
 2478POPC   C4B34066  21.506  30.609   7.570
 2479POPC   NC334067  40.041  16.159   9.774
 2479POPC   PO434068  40.152  16.732   9.425
 2479POPC   GL134069  39.896  16.705   9.059
 2479POPC   GL234070  40.245  16.690   8.920
 2479POPC   C1A34071  39.861  16.845   8.634
 2479POPC   D2A34072  40.018  16.962   8.252
 2479POPC   C3A34073  39.827  16.983   7.852
 2479POPC   C4A34074  40.199  17.002   7.572
 2479POPC   C1B34075  40.066  16.378   8.647
 2479POPC   C2B34076  39.945  16.440   8.255
 2479POPC   C3B34077  40.146  16.595   7.921
 2479POPC   C4B34078  39.905  16.555   7.585
 2480POPC   NC334079  24.386   3.659   9.580
 2480POPC   PO434080  25.005   3.440   9.525
 2480POPC   GL134081  24.686   3.588   9.162
 2480POPC   GL234082  24.380   3.435   9.111
 2480POPC   C1A34083  24.700   3.479   8.693
 2480POPC   D2A34084  24.809   3.520   8.273
 2480POPC   C3A34085  24.549   3.336   7.961
 2480POPC   C4A34086  24.537   3.589   7.620
 2480POPC   C1B34087  24.227   3.653   8.749
 2480POPC   C2B34088  24.219   3.531   8.324
 2480POPC   C3B34089  24.241   3.810   7.972
 2480POPC   C4B34090  24.093   3.830   7.553
 2481POPC   NC334091  22.758   7.175   9.588
 2481POPC   PO434092  23.211   7.744   9.604
 2481POPC   GL134093  23.233   7.477   9.209
 2481POPC   GL234094  22.967   7.232   9.121
 2481POPC   C1A34095  23.227   7.474   8.736
 2481POPC   D2A34096  23.132   7.229   8.366
 2481POPC   C3A34097  22.825   7.380   8.059
 2481POPC   C4A34098  22.702   7.611   7.725
 2481POPC   C1B34099  22.723   7.271   8.724
 2481POPC   C2B34100  22.554   7.034   8.349
 2481POPC   C3B34101  22.573   6.974   7.874
 2481POPC   C4B34102  22.449   7.249   7.493
 2482POPC   NC334103  27.313  15.587   9.452
 2482POPC   PO434104  26.632  15.280   9.486
 2482POPC   GL134105  26.823  15.421   9.141
 2482POPC   GL234106  27.124  15.240   9.094
 2482POPC   C1A34107  26.660  15.214   8.783
 2482POPC   D2A34108  26.413  14.986   8.488
 2482POPC   C3A34109  26.458  15.210   8.112
 2482POPC   C4A34110  26.642  15.259   7.729
 2482POPC   C1B34111  27.123  14.997   8.743
 2482POPC   C2B34112  26.926  15.070   8.344
 2482POPC   C3B34113  27.190  15.009   7.983
 2482POPC   C4B34114  27.088  15.082   7.607
 2483POPC   NC334115  32.068  27.925   9.621
 2483POPC   PO434116  32.575  28.352   9.542
 2483POPC   GL134117  32.181  28.341   9.296
 2483POPC   GL234118  32.081  28.670   9.148
 2483POPC   C1A34119  31.986  28.173   8.907
 2483POPC   D2A34120  32.068  27.903   8.541
 2483POPC   C3A34121  32.077  28.063   8.108
 2483POPC   C4A34122  32.420  28.035   7.776
 2483POPC   C1B34123  32.407  28.486   8.847
 2483POPC   C2B34124  32.368  28.365   8.409
 2483POPC   C3B34125  32.338  28.511   7.949
 2483POPC   C4B34126  32.443  28.496   7.487
 2484POPC   NC334127  12.819  30.394   9.441
 2484POPC   PO434128  13.096  31.029   9.386
 2484POPC   GL134129  12.739  30.865   9.103
 2484POPC   GL234130  12.844  30.598   8.989
 2484POPC   C1A34131  12.554  30.867   8.672
 2484POPC   D2A34132  12.766  30.886   8.251
 2484POPC   C3A34133  12.669  30.578   7.925
 2484POPC   C4A34134  12.651  30.628   7.437
 2484POPC   C1B34135  13.093  30.756   8.669
 2484POPC   C2B34136  13.390  30.496   8.427
 2484POPC   C3B34137  13.263  30.368   8.002
 2484POPC   C4B34138  13.105  30.710   7.718
 2485POPC   NC334139  39.423   2.307   9.531
 2485POPC   PO434140  39.061   1.769   9.582
 2485POPC   GL134141  39.282   1.917   9.224
 2485POPC   GL234142  39.165   2.257   9.093
 2485POPC   C1A34143  39.363   1.887   8.790
 2485POPC   D2A34144  39.281   1.701   8.392
 2485POPC   C3A34145  39.434   1.945   8.046
 2485POPC   C4A34146  39.414   1.795   7.648
 2485POPC   C1B34147  38.866   2.439   8.794
 2485POPC   C2B34148  38.870   2.340   8.356
 2485POPC   C3B34149  38.905   2.108   7.993
 2485POPC   C4B34150  39.159   2.241   7.675
 2486POPC   NC334151  24.124  15.429   9.557
 2486POPC   PO434152  24.295  16.120   9.579
 2486POPC   GL134153  24.466  16.066   9.175
 2486POPC   GL234154  24.814  16.206   9.156
 2486POPC   C1A34155  24.328  16.231   8.773
 2486POPC   D2A34156  24.477  16.170   8.340
 2486POPC   C3A34157  24.348  16.137   7.905
 2486POPC   C4A34158  24.450  15.773   7.656
 2486POPC   C1B34159  24.780  15.961   8.777
 2486POPC   C2B34160  24.945  15.951   8.370
 2486POPC   C3B34161  24.850  16.150   7.973
 2486POPC   C4B34162  24.694  16.198   7.519
 2487POPC   NC334163  35.447  43.485   9.469
 2487POPC   PO434164  35.185  42.891   9.552
 2487POPC   GL134165  35.317  43.037   9.167
 2487POPC   GL234166  35.351  42.719   9.003
 2487POPC   C1A34167  35.210  43.200   8.757
 2487POPC   D2A34168  35.488  43.236   8.402
 2487POPC   C3A34169  35.341  43.324   8.011
 2487POPC   C4A34170  35.631  43.326   7.651
 2487POPC   C1B34171  35.353  42.757   8.551
 2487POPC   C2B34172  35.034  42.951   8.276
 2487POPC   C3B34173  34.971  42.725   7.903
 2487POPC   C4B34174  35.351  42.890   7.743
 2488POPC   NC334175  27.824   8.489   9.910
 2488POPC   PO434176  27.399   8.495   9.421
 2488POPC   GL134177  27.311   8.308   9.053
 2488POPC   GL234178  27.438   8.017   9.170
 2488POPC   C1A34179  27.431   8.289   8.625
 2488POPC   D2A34180  27.799   8.269   8.367
 2488POPC   C3A34181  27.684   8.292   7.955
 2488POPC   C4A34182  27.867   8.195   7.583
 2488POPC   C1B34183  27.313   7.810   8.792
 2488POPC   C2B34184  27.216   7.790   8.368
 2488POPC   C3B34185  27.398   7.790   7.969
 2488POPC   C4B34186  27.361   8.057   7.630
 2489POPC   NC334187  32.062  31.882   9.351
 2489POPC   PO434188  32.720  32.065   9.486
 2489POPC   GL134189  32.479  32.244   9.153
 2489POPC   GL234190  32.249  32.025   8.909
 2489POPC   C1A34191  32.616  32.336   8.747
 2489POPC   D2A34192  32.384  32.195   8.401
 2489POPC   C3A34193  32.480  32.368   8.033
 2489POPC   C4A34194  32.385  32.155   7.674
 2489POPC   C1B34195  32.071  32.413   8.755
 2489POPC   C2B34196  32.178  32.667   8.386
 2489POPC   C3B34197  32.053  32.676   7.941
 2489POPC   C4B34198  31.962  32.457   7.535
 2490POPC   NC334199  15.656  44.254   9.506
 2490POPC   PO434200  15.739  43.515   9.509
 2490POPC   GL134201  15.931  43.693   9.170
 2490POPC   GL234202  15.631  43.889   9.153
 2490POPC   C1A34203  15.926  43.854   8.755
 2490POPC   D2A34204  15.743  43.935   8.385
 2490POPC   C3A34205  15.997  43.885   8.030
 2490POPC   C4A34206  15.839  43.605   7.742
 2490POPC   C1B34207  15.592  44.216   8.822
 2490POPC   C2B34208  15.478  44.377   8.419
 2490POPC   C3B34209  15.632  44.268   8.002
 2490POPC   C4B34210  15.863  44.146   7.635
 2491POPC   NC334211  20.278  12.068   9.628
 2491POPC   PO434212  20.862  12.373   9.428
 2491POPC   GL134213  20.534  12.090   9.189
 2491POPC   GL234214  20.182  12.129   9.116
 2491POPC   C1A34215  20.463  11.867   8.804
 2491POPC   D2A34216  20.561  12.086   8.407
 2491POPC   C3A34217  20.424  11.987   7.996
 2491POPC   C4A34218  20.681  11.892   7.618
 2491POPC   C1B34219  20.414  12.404   8.809
 2491POPC   C2B34220  20.604  12.594   8.422
 2491POPC   C3B34221  20.742  12.422   8.022
 2491POPC   C4B34222  20.501  12.379   7.661
 2492POPC   NC334223   7.974  16.739   9.652
 2492POPC   PO434224   8.598  16.580   9.589
 2492POPC   GL134225   8.284  16.635   9.247
 2492POPC   GL234226   8.320  16.920   9.064
 2492POPC   C1A34227   8.106  16.523   8.831
 2492POPC   D2A34228   7.890  16.514   8.431
 2492POPC   C3A34229   8.091  16.519   8.025
 2492POPC   C4A34230   8.000  16.436   7.609
 2492POPC   C1B34231   8.331  17.130   8.698
 2492POPC   C2B34232   8.235  16.898   8.348
 2492POPC   C3B34233   8.131  17.061   7.925
 2492POPC   C4B34234   8.189  17.045   7.447
 2493POPC   NC334235  11.243  22.002   9.555
 2493POPC   PO434236  10.914  22.512   9.351
 2493POPC   GL134237  11.208  22.283   9.085
 2493POPC   GL234238  11.425  21.963   9.075
 2493POPC   C1A34239  11.254  22.223   8.653
 2493POPC   D2A34240  11.123  22.236   8.250
 2493POPC   C3A34241  11.302  22.424   7.903
 2493POPC   C4A34242  11.008  22.212   7.629
 2493POPC   C1B34243  11.697  21.958   8.693
 2493POPC   C2B34244  11.551  21.932   8.295
 2493POPC   C3B34245  11.652  22.068   7.923
 2493POPC   C4B34246  11.473  22.044   7.501
 2494POPC   NC334247  34.734  21.937   9.296
 2494POPC   PO434248  34.283  22.341   9.368
 2494POPC   GL134249  34.441  22.222   8.992
 2494POPC   GL234250  34.297  21.870   9.049
 2494POPC   C1A34251  34.739  22.147   8.647
 2494POPC   D2A34252  34.851  22.387   8.280
 2494POPC   C3A34253  34.828  22.199   7.928
 2494POPC   C4A34254  34.584  22.066   7.654
 2494POPC   C1B34255  34.441  21.733   8.638
 2494POPC   C2B34256  34.385  21.853   8.184
 2494POPC   C3B34257  34.316  21.668   7.755
 2494POPC   C4B34258  34.561  21.662   7.362
 2495POPC   NC334259   8.401  36.369   9.401
 2495POPC   PO434260   7.813  36.154   9.437
 2495POPC   GL134261   8.068  36.068   9.116
 2495POPC   GL234262   8.408  35.910   9.205
 2495POPC   C1A34263   7.957  36.163   8.697
 2495POPC   D2A34264   7.802  36.085   8.302
 2495POPC   C3A34265   7.977  36.283   7.963
 2495POPC   C4A34266   8.402  36.214   7.875
 2495POPC   C1B34267   8.438  36.017   8.773
 2495POPC   C2B34268   8.302  35.909   8.370
 2495POPC   C3B34269   8.586  35.779   8.037
 2495POPC   C4B34270   8.491  35.784   7.598
 2496POPC   NC334271   1.974  24.152   9.509
 2496POPC   PO434272   1.664  24.815   9.460
 2496POPC   GL134273   1.915  24.582   9.149
 2496POPC   GL234274   1.871  24.275   9.026
 2496POPC   C1A34275   2.117  24.611   8.715
 2496POPC   D2A34276   2.402  24.722   8.367
 2496POPC   C3A34277   2.161  24.702   7.969
 2496POPC   C4A34278   1.952  24.839   7.609
 2496POPC   C1B34279   1.722  24.198   8.615
 2496POPC   C2B34280   1.809  24.406   8.226
 2496POPC   C3B34281   1.806  24.336   7.783
 2496POPC   C4B34282   1.661  24.149   7.367
 2497POPC   NC334283  13.375  40.430   9.537
 2497POPC   PO434284  12.720  40.837   9.560
 2497POPC   GL134285  12.494  40.816   9.175
 2497POPC   GL234286  12.805  40.911   9.020
 2497POPC   C1A34287  12.359  40.867   8.736
 2497POPC   D2A34288  12.680  41.009   8.491
 2497POPC   C3A34289  12.702  40.873   8.088
 2497POPC   C4A34290  12.641  40.966   7.667
 2497POPC   C1B34291  12.979  40.603   8.714
 2497POPC   C2B34292  13.084  40.555   8.276
 2497POPC   C3B34293  13.175  40.791   7.925
 2497POPC   C4B34294  13.113  40.785   7.518
 2498POPC   NC334295  27.655   6.953   9.502
 2498POPC   PO434296  27.749   6.392   9.835
 2498POPC   GL134297  27.542   6.472   9.340
 2498POPC   GL234298  27.764   6.684   9.086
 2498POPC   C1A34299  27.385   6.462   8.857
 2498POPC   D2A34300  27.470   6.532   8.416
 2498POPC   C3A34301  27.297   6.571   8.001
 2498POPC   C4A34302  27.406   6.937   7.777
 2498POPC   C1B34303  27.923   6.530   8.688
 2498POPC   C2B34304  27.981   6.452   8.231
 2498POPC   C3B34305  27.885   6.743   7.894
 2498POPC   C4B34306  27.731   6.706   7.468
 2499POPC   NC334307  13.771  10.787   9.448
 2499POPC   PO434308  13.337  10.386   9.612
 2499POPC   GL134309  13.414  10.609   9.148
 2499POPC   GL234310  13.708  10.606   8.953
 2499POPC   C1A34311  13.319  10.853   8.758
 2499POPC   D2A34312  13.224  10.804   8.301
 2499POPC   C3A34313  13.536  10.679   7.985
 2499POPC   C4A34314  13.533  10.570   7.537
 2499POPC   C1B34315  13.598  10.487   8.520
 2499POPC   C2B34316  13.569  10.183   8.170
 2499POPC   C3B34317  13.688  10.148   7.735
 2499POPC   C4B34318  13.543  10.157   7.260
 2500POPC   NC334319   5.522  40.239   9.642
 2500POPC   PO434320   4.964  39.846   9.463
 2500POPC   GL134321   5.123  40.105   9.154
 2500POPC   GL234322   4.874  40.195   8.970
 2500POPC   C1A34323   5.306  40.107   8.715
 2500POPC   D2A34324   5.307  39.761   8.389
 2500POPC   C3A34325   5.072  39.861   8.028
 2500POPC   C4A34326   4.798  40.119   7.835
 2500POPC   C1B34327   4.916  39.788   8.772
 2500POPC   C2B34328   4.799  39.611   8.386
 2500POPC   C3B34329   4.602  39.625   7.980
 2500POPC   C4B34330   4.851  39.661   7.580
 2501POPC   NC334331  13.354  36.399   9.470
 2501POPC   PO434332  13.850  36.847   9.579
 2501POPC   GL134333  13.636  36.834   9.191
 2501POPC   GL234334  13.765  36.517   9.116
 2501POPC   C1A34335  13.409  37.035   8.833
 2501POPC   D2A34336  13.354  36.930   8.389
 2501POPC   C3A34337  13.509  37.042   7.961
 2501POPC   C4A34338  13.784  36.771   7.670
 2501POPC   C1B34339  13.794  36.718   8.688
 2501POPC   C2B34340  13.791  36.673   8.242
 2501POPC   C3B34341  14.115  36.559   7.981
 2501POPC   C4B34342  14.316  36.712   7.600
 2502POPC   NC334343   8.763   8.673   9.649
 2502POPC   PO434344   9.399   8.969   9.535
 2502POPC   GL134345   9.130   8.921   9.175
 2502POPC   GL234346   8.767   8.881   9.177
 2502POPC   C1A34347   9.057   9.027   8.749
 2502POPC   D2A34348   8.952   9.162   8.343
 2502POPC   C3A34349   9.262   9.072   8.023
 2502POPC   C4A34350   9.307   9.250   7.623
 2502POPC   C1B34351   8.745   8.628   8.785
 2502POPC   C2B34352   8.891   8.664   8.364
 2502POPC   C3B34353   8.811   8.847   7.931
 2502POPC   C4B34354   8.447   9.058   7.781
 2503POPC   NC334355  35.095  38.768   9.451
 2503POPC   PO434356  35.110  39.456   9.518
 2503POPC   GL134357  35.331  39.239   9.200
 2503POPC   GL234358  35.150  38.984   8.998
 2503POPC   C1A34359  35.547  39.212   8.803
 2503POPC   D2A34360  35.337  39.113   8.392
 2503POPC   C3A34361  35.536  39.298   8.019
 2503POPC   C4A34362  35.678  39.150   7.626
 2503POPC   C1B34363  35.062  39.399   8.771
 2503POPC   C2B34364  34.840  39.639   8.461
 2503POPC   C3B34365  34.932  39.602   8.035
 2503POPC   C4B34366  35.163  39.410   7.651
 2504POPC   NC334367  36.765  21.904   9.478
 2504POPC   PO434368  37.194  22.369   9.514
 2504POPC   GL134369  36.908  22.294   9.161
 2504POPC   GL234370  36.678  22.554   9.140
 2504POPC   C1A34371  36.801  21.962   8.825
 2504POPC   D2A34372  36.604  21.718   8.471
 2504POPC   C3A34373  36.805  21.799   8.080
 2504POPC   C4A34374  36.691  21.966   7.675
 2504POPC   C1B34375  36.533  22.399   8.762
 2504POPC   C2B34376  36.655  22.223   8.370
 2504POPC   C3B34377  36.535  22.353   7.972
 2504POPC   C4B34378  36.797  22.470   7.635
 2505POPC   NC334379  11.451   8.416   9.538
 2505POPC   PO434380  11.036   7.896   9.573
 2505POPC   GL134381  11.091   8.209   9.221
 2505POPC   GL234382  10.850   8.012   9.098
 2505POPC   C1A34383  11.371   8.410   8.858
 2505POPC   D2A34384  11.540   8.344   8.409
 2505POPC   C3A34385  11.336   8.464   8.030
 2505POPC   C4A34386  11.537   8.660   7.685
 2505POPC   C1B34387  10.903   7.948   8.698
 2505POPC   C2B34388  11.060   8.150   8.356
 2505POPC   C3B34389  10.885   8.162   7.952
 2505POPC   C4B34390  11.003   8.023   7.555
 2506POPC   NC334391  40.349  15.508   9.502
 2506POPC   PO434392  40.901  15.066   9.370
 2506POPC   GL134393  40.959  15.431   9.118
 2506POPC   GL234394  40.618  15.455   9.043
 2506POPC   C1A34395  40.969  15.343   8.670
 2506POPC   D2A34396  40.785  15.013   8.406
 2506POPC   C3A34397  41.080  14.747   8.185
 2506POPC   C4A34398  41.230  14.868   7.781
 2506POPC   C1B34399  40.466  15.429   8.616
 2506POPC   C2B34400  40.717  15.512   8.241
 2506POPC   C3B34401  40.680  15.328   7.822
 2506POPC   C4B34402  40.671  15.455   7.384
 2507POPC   NC334403  43.618   4.503   9.321
 2507POPC   PO434404  43.132   4.202   9.683
 2507POPC   GL134405  42.910   4.238   9.279
 2507POPC   GL234406  43.163   4.433   9.068
 2507POPC   C1A34407  42.701   4.288   8.857
 2507POPC   D2A34408  42.965   4.298   8.495
 2507POPC   C3A34409  42.833   4.346   8.065
 2507POPC   C4A34410  42.909   4.566   7.678
 2507POPC   C1B34411  43.450   4.289   8.701
 2507POPC   C2B34412  43.428   4.178   8.258
 2507POPC   C3B34413  43.320   4.334   7.845
 2507POPC   C4B34414  43.307   4.363   7.369
 2508POPC   NC334415  33.383  27.223   9.333
 2508POPC   PO434416  32.837  27.414   9.589
 2508POPC   GL134417  32.879  27.615   9.195
 2508POPC   GL234418  33.173  27.794   9.245
 2508POPC   C1A34419  32.824  27.547   8.755
 2508POPC   D2A34420  32.944  27.224   8.463
 2508POPC   C3A34421  32.931  27.368   8.037
 2508POPC   C4A34422  32.917  27.811   7.892
 2508POPC   C1B34423  33.261  27.834   8.801
 2508POPC   C2B34424  33.154  27.703   8.373
 2508POPC   C3B34425  33.413  27.665   8.007
 2508POPC   C4B34426  33.583  27.796   7.615
 2509POPC   NC334427  40.600  31.357   9.561
 2509POPC   PO434428  41.013  31.705   9.218
 2509POPC   GL134429  40.875  31.474   8.931
 2509POPC   GL234430  40.815  31.192   9.102
 2509POPC   C1A34431  40.833  31.455   8.507
 2509POPC   D2A34432  40.668  31.704   8.223
 2509POPC   C3A34433  40.947  31.662   7.930
 2509POPC   C4A34434  40.719  31.607   7.563
 2509POPC   C1B34435  40.528  31.124   8.727
 2509POPC   C2B34436  40.481  31.170   8.239
 2509POPC   C3B34437  40.415  31.020   7.781
 2509POPC   C4B34438  40.479  31.201   7.362
 2510POPC   NC334439  31.485  31.344   9.794
 2510POPC   PO434440  31.634  30.732   9.551
 2510POPC   GL134441  31.591  30.582   9.161
 2510POPC   GL234442  31.273  30.455   9.206
 2510POPC   C1A34443  31.509  30.715   8.753
 2510POPC   D2A34444  31.677  30.909   8.404
 2510POPC   C3A34445  31.496  30.781   8.055
 2510POPC   C4A34446  31.287  30.782   7.688
 2510POPC   C1B34447  31.236  30.292   8.791
 2510POPC   C2B34448  31.214  30.465   8.387
 2510POPC   C3B34449  31.115  30.341   7.972
 2510POPC   C4B34450  31.226  30.304   7.528
 2511POPC   NC334451  15.133   2.209   9.446
 2511POPC   PO434452  15.186   1.608   9.357
 2511POPC   GL134453  14.994   1.851   9.025
 2511POPC   GL234454  15.136   2.196   8.964
 2511POPC   C1A34455  15.176   1.868   8.595
 2511POPC   D2A34456  15.577   1.879   8.363
 2511POPC   C3A34457  15.515   1.850   7.930
 2511POPC   C4A34458  15.072   1.793   7.830
 2511POPC   C1B34459  15.503   2.221   8.760
 2511POPC   C2B34460  15.277   2.319   8.371
 2511POPC   C3B34461  15.173   2.273   7.951
 2511POPC   C4B34462  15.480   2.264   7.638
 2512POPC   NC334463  28.577  34.157   9.479
 2512POPC   PO434464  28.215  33.518   9.392
 2512POPC   GL134465  28.461  33.770   9.152
 2512POPC   GL234466  28.242  34.047   9.104
 2512POPC   C1A34467  28.605  33.938   8.768
 2512POPC   D2A34468  28.435  34.089   8.382
 2512POPC   C3A34469  28.609  33.955   8.004
 2512POPC   C4A34470  28.446  33.711   7.643
 2512POPC   C1B34471  28.075  33.806   8.781
 2512POPC   C2B34472  28.072  33.590   8.407
 2512POPC   C3B34473  28.123  33.775   8.029
 2512POPC   C4B34474  27.945  33.586   7.676
 2513POPC   NC334475  16.910  35.471   9.472
 2513POPC   PO434476  17.040  34.762   9.364
 2513POPC   GL134477  16.848  34.975   9.011
 2513POPC   GL234478  16.733  35.305   9.007
 2513POPC   C1A34479  17.023  35.095   8.612
 2513POPC   D2A34480  17.190  35.066   8.189
 2513POPC   C3A34481  16.834  35.219   7.955
 2513POPC   C4A34482  16.419  35.000   7.916
 2513POPC   C1B34483  16.405  35.446   8.747
 2513POPC   C2B34484  16.327  35.367   8.312
 2513POPC   C3B34485  16.441  35.550   7.901
 2513POPC   C4B34486  16.639  35.768   7.539
 2514POPC   NC334487  25.134  30.482   9.462
 2514POPC   PO434488  25.119  31.145   9.543
 2514POPC   GL134489  25.186  30.888   9.128
 2514POPC   GL234490  25.450  30.612   9.099
 2514POPC   C1A34491  25.011  30.699   8.726
 2514POPC   D2A34492  25.175  30.798   8.299
 2514POPC   C3A34493  25.097  30.564   7.928
 2514POPC   C4A34494  24.992  30.916   7.711
 2514POPC   C1B34495  25.530  30.734   8.702
 2514POPC   C2B34496  25.696  30.866   8.339
 2514POPC   C3B34497  25.522  30.871   7.902
 2514POPC   C4B34498  25.521  30.518   7.582
 2515POPC   NC334499  11.657  35.610   9.342
 2515POPC   PO434500  12.239  35.593   9.663
 2515POPC   GL134501  12.132  35.365   9.260
 2515POPC   GL234502  11.800  35.151   9.200
 2515POPC   C1A34503  12.187  35.575   8.849
 2515POPC   D2A34504  12.151  35.493   8.410
 2515POPC   C3A34505  11.822  35.543   8.072
 2515POPC   C4A34506  11.910  35.435   7.663
 2515POPC   C1B34507  12.039  35.074   8.823
 2515POPC   C2B34508  12.200  34.946   8.432
 2515POPC   C3B34509  12.171  35.133   8.052
 2515POPC   C4B34510  12.203  35.005   7.653
 2516POPC   NC334511  39.481  44.295   9.477
 2516POPC   PO434512  39.093  43.748   9.627
 2516POPC   GL134513  39.214  43.629   9.220
 2516POPC   GL234514  39.135  43.997   9.180
 2516POPC   C1A34515  39.337  43.703   8.786
 2516POPC   D2A34516  39.272  43.923   8.399
 2516POPC   C3A34517  39.310  43.806   7.966
 2516POPC   C4A34518  39.034  43.504   7.780
 2516POPC   C1B34519  39.015  44.147   8.804
 2516POPC   C2B34520  38.779  44.095   8.427
 2516POPC   C3B34521  38.824  43.931   8.047
 2516POPC   C4B34522  38.802  44.183   7.683
 2517POPC   NC334523   0.719   3.100   9.585
 2517POPC   PO434524   0.504   2.558   9.600
 2517POPC   GL134525   0.255   2.767   9.273
 2517POPC   GL234526   0.539   2.901   9.104
 2517POPC   C1A34527   0.170   2.724   8.813
 2517POPC   D2A34528   0.425   2.876   8.472
 2517POPC   C3A34529   0.369   2.682   8.072
 2517POPC   C4A34530   0.505   2.775   7.647
 2517POPC   C1B34531   0.851   2.923   8.757
 2517POPC   C2B34532   0.898   2.638   8.409
 2517POPC   C3B34533   0.786   2.350   8.059
 2517POPC   C4B34534   0.897   2.420   7.630
 2518POPC   NC334535   5.447  19.815   9.634
 2518POPC   PO434536   4.814  19.555   9.594
 2518POPC   GL134537   5.031  19.709   9.216
 2518POPC   GL234538   5.386  19.598   9.184
 2518POPC   C1A34539   5.137  19.979   8.847
 2518POPC   D2A34540   5.225  20.201   8.436
 2518POPC   C3A34541   5.208  19.995   8.006
 2518POPC   C4A34542   4.875  19.785   7.735
 2518POPC   C1B34543   5.464  19.579   8.749
 2518POPC   C2B34544   5.251  19.507   8.343
 2518POPC   C3B34545   5.200  19.393   7.909
 2518POPC   C4B34546   5.401  19.684   7.621
 2519POPC   NC334547   8.641  20.741   9.451
 2519POPC   PO434548   9.356  20.683   9.665
 2519POPC   GL134549   9.263  20.590   9.206
 2519POPC   GL234550   8.908  20.560   9.039
 2519POPC   C1A34551   9.342  20.747   8.806
 2519POPC   D2A34552   9.030  20.715   8.488
 2519POPC   C3A34553   9.184  20.605   8.108
 2519POPC   C4A34554   9.189  20.760   7.737
 2519POPC   C1B34555   8.661  20.270   8.759
 2519POPC   C2B34556   8.460  20.238   8.380
 2519POPC   C3B34557   8.708  20.352   8.059
 2519POPC   C4B34558   9.019  20.278   7.747
 2520POPC   NC334559  12.583  28.790   9.328
 2520POPC   PO434560  12.880  29.426   9.385
 2520POPC   GL134561  12.880  29.129   9.073
 2520POPC   GL234562  13.239  29.018   9.027
 2520POPC   C1A34563  12.579  29.069   8.738
 2520POPC   D2A34564  12.707  28.972   8.341
 2520POPC   C3A34565  12.632  29.276   8.084
 2520POPC   C4A34566  12.566  29.103   7.728
 2520POPC   C1B34567  13.109  29.167   8.606
 2520POPC   C2B34568  13.158  29.169   8.157
 2520POPC   C3B34569  13.029  29.318   7.724
 2520POPC   C4B34570  13.067  29.429   7.269
 2521POPC   NC334571  23.747  35.732   9.480
 2521POPC   PO434572  23.558  36.320   9.415
 2521POPC   GL134573  23.472  36.022   9.132
 2521POPC   GL234574  23.840  35.935   9.024
 2521POPC   C1A34575  23.482  36.118   8.702
 2521POPC   D2A34576  23.679  35.951   8.389
 2521POPC   C3A34577  23.498  36.134   8.074
 2521POPC   C4A34578  23.384  36.069   7.671
 2521POPC   C1B34579  24.142  35.956   8.662
 2521POPC   C2B34580  24.121  35.753   8.246
 2521POPC   C3B34581  23.878  35.855   7.830
 2521POPC   C4B34582  24.087  35.909   7.395
 2522POPC   NC334583  27.401   6.108   9.690
 2522POPC   PO434584  27.742   5.541   9.803
 2522POPC   GL134585  27.677   5.856   9.332
 2522POPC   GL234586  27.330   6.031   9.202
 2522POPC   C1A34587  27.719   6.096   8.923
 2522POPC   D2A34588  27.721   6.094   8.501
 2522POPC   C3A34589  27.588   6.132   8.079
 2522POPC   C4A34590  27.759   5.858   7.789
 2522POPC   C1B34591  27.187   5.995   8.757
 2522POPC   C2B34592  27.289   5.824   8.366
 2522POPC   C3B34593  27.234   5.732   7.932
 2522POPC   C4B34594  27.277   5.798   7.501
 2523POPC   NC334595  26.241  13.180   9.335
 2523POPC   PO434596  26.084  13.830   9.436
 2523POPC   GL134597  25.975  13.840   9.031
 2523POPC   GL234598  26.086  13.527   8.997
 2523POPC   C1A34599  25.879  13.784   8.605
 2523POPC   D2A34600  26.078  13.882   8.239
 2523POPC   C3A34601  26.154  13.634   7.900
 2523POPC   C4A34602  25.957  13.679   7.526
 2523POPC   C1B34603  26.078  13.320   8.619
 2523POPC   C2B34604  25.877  13.356   8.214
 2523POPC   C3B34605  25.885  13.206   7.744
 2523POPC   C4B34606  25.908  13.250   7.254
 2524POPC   NC334607  42.209  43.649   9.548
 2524POPC   PO434608  42.822  43.837   9.762
 2524POPC   GL134609  42.652  43.911   9.299
 2524POPC   GL234610  42.305  44.048   9.215
 2524POPC   C1A34611  42.630  43.850   8.820
 2524POPC   D2A34612  42.387  43.712   8.414
 2524POPC   C3A34613  42.534  43.904   8.043
 2524POPC   C4A34614  42.683  43.824   7.633
 2524POPC   C1B34615  42.120  43.815   8.862
 2524POPC   C2B34616  41.919  43.919   8.460
 2524POPC   C3B34617  42.051  44.194   8.101
 2524POPC   C4B34618  42.289  44.167   7.685
 2525POPC   NC334619  15.805  26.410   9.839
 2525POPC   PO434620  15.717  27.018   9.547
 2525POPC   GL134621  15.756  26.692   9.203
 2525POPC   GL234622  16.049  26.494   9.291
 2525POPC   C1A34623  15.594  26.667   8.757
 2525POPC   D2A34624  15.788  26.823   8.337
 2525POPC   C3A34625  15.691  26.729   7.884
 2525POPC   C4A34626  15.907  26.794   7.488
 2525POPC   C1B34627  16.108  26.646   8.827
 2525POPC   C2B34628  16.184  26.509   8.374
 2525POPC   C3B34629  16.207  26.695   7.930
 2525POPC   C4B34630  16.330  26.509   7.527
 2526POPC   NC334631  17.435  30.676   9.623
 2526POPC   PO434632  17.429  31.299   9.430
 2526POPC   GL134633  17.636  30.935   9.193
 2526POPC   GL234634  17.417  30.650   9.111
 2526POPC   C1A34635  17.726  30.813   8.745
 2526POPC   D2A34636  17.599  30.655   8.345
 2526POPC   C3A34637  17.755  30.815   7.956
 2526POPC   C4A34638  17.628  30.684   7.536
 2526POPC   C1B34639  17.149  30.808   8.754
 2526POPC   C2B34640  17.153  30.902   8.323
 2526POPC   C3B34641  17.229  30.830   7.891
 2526POPC   C4B34642  17.177  30.454   7.658
 2527POPC   NC334643   8.126  31.216   9.628
 2527POPC   PO434644   8.212  30.524   9.463
 2527POPC   GL134645   8.092  30.669   9.078
 2527POPC   GL234646   8.064  31.026   9.165
 2527POPC   C1A34647   7.991  30.479   8.709
 2527POPC   D2A34648   7.947  30.407   8.277
 2527POPC   C3A34649   8.301  30.457   8.040
 2527POPC   C4A34650   8.239  30.646   7.667
 2527POPC   C1B34651   8.349  31.023   8.816
 2527POPC   C2B34652   8.256  30.838   8.419
 2527POPC   C3B34653   8.236  31.029   8.019
 2527POPC   C4B34654   8.591  31.181   7.781
 2528POPC   NC334655  28.897   4.579   9.514
 2528POPC   PO434656  29.508   4.361   9.497
 2528POPC   GL134657  29.199   4.353   9.173
 2528POPC   GL234658  28.851   4.211   9.143
 2528POPC   C1A34659  29.234   4.204   8.785
 2528POPC   D2A34660  29.192   4.393   8.398
 2528POPC   C3A34661  29.088   4.112   8.099
 2528POPC   C4A34662  29.231   4.114   7.694
 2528POPC   C1B34663  28.841   4.524   8.801
 2528POPC   C2B34664  28.886   4.800   8.465
 2528POPC   C3B34665  28.934   4.710   8.074
 2528POPC   C4B34666  28.839   4.444   7.799
 2529POPC   NC334667  13.195  39.748   9.495
 2529POPC   PO434668  12.718  39.274   9.635
 2529POPC   GL134669  12.696  39.299   9.189
 2529POPC   GL234670  12.869  39.586   9.121
 2529POPC   C1A34671  12.730  39.100   8.774
 2529POPC   D2A34672  12.796  39.124   8.314
 2529POPC   C3A34673  13.190  39.329   8.104
 2529POPC   C4A34674  13.262  39.262   7.679
 2529POPC   C1B34675  12.960  39.549   8.648
 2529POPC   C2B34676  12.814  39.637   8.203
 2529POPC   C3B34677  12.748  39.365   7.813
 2529POPC   C4B34678  12.648  39.273   7.378
 2530POPC   NC334679  34.459  28.582   9.580
 2530POPC   PO434680  34.312  27.934   9.334
 2530POPC   GL134681  34.577  28.198   9.046
 2530POPC   GL234682  34.609  28.564   9.090
 2530POPC   C1A34683  34.597  28.091   8.599
 2530POPC   D2A34684  34.342  28.024   8.236
 2530POPC   C3A34685  34.586  28.102   7.894
 2530POPC   C4A34686  34.802  28.428   7.721
 2530POPC   C1B34687  34.678  28.578   8.675
 2530POPC   C2B34688  34.622  28.522   8.241
 2530POPC   C3B34689  34.291  28.522   7.966
 2530POPC   C4B34690  34.329  28.426   7.527
 2531POPC   NC334691  36.560   9.343   9.289
 2531POPC   PO434692  36.017   9.711   9.556
 2531POPC   GL134693  36.046   9.589   9.170
 2531POPC   GL234694  35.887   9.917   9.094
 2531POPC   C1A34695  36.253   9.658   8.782
 2531POPC   D2A34696  36.274   9.928   8.440
 2531POPC   C3A34697  36.408   9.730   8.077
 2531POPC   C4A34698  36.345   9.957   7.715
 2531POPC   C1B34699  35.700   9.759   8.747
 2531POPC   C2B34700  35.672   9.863   8.352
 2531POPC   C3B34701  35.921   9.874   8.035
 2531POPC   C4B34702  35.916   9.637   7.676
 2532POPC   NC334703  10.494   9.121   9.476
 2532POPC   PO434704  11.001   8.649   9.547
 2532POPC   GL134705  10.849   8.864   9.158
 2532POPC   GL234706  10.844   9.224   9.150
 2532POPC   C1A34707  10.524   8.823   8.793
 2532POPC   D2A34708  10.480   9.048   8.367
 2532POPC   C3A34709  10.357   8.928   7.940
 2532POPC   C4A34710  10.621   8.850   7.572
 2532POPC   C1B34711  10.573   9.322   8.802
 2532POPC   C2B34712  10.375   9.549   8.457
 2532POPC   C3B34713  10.235   9.476   8.017
 2532POPC   C4B34714  10.534   9.358   7.700
 2533POPC   NC334715   3.716   0.823   9.422
 2533POPC   PO434716   3.646   0.135   9.442
 2533POPC   GL134717   3.578   0.370   9.077
 2533POPC   GL234718   3.365   0.634   9.098
 2533POPC   C1A34719   3.489   0.433   8.639
 2533POPC   D2A34720   3.703   0.545   8.265
 2533POPC   C3A34721   3.474   0.366   7.940
 2533POPC   C4A34722   3.519   0.326   7.489
 2533POPC   C1B34723   3.264   0.888   8.743
 2533POPC   C2B34724   3.221   0.754   8.332
 2533POPC   C3B34725   3.405   0.850   7.950
 2533POPC   C4B34726   3.190   0.700   7.629
 2534POPC   NC334727   2.071  25.053   9.416
 2534POPC   PO434728   1.684  25.506   9.176
 2534POPC   GL134729   1.994  25.338   8.982
 2534POPC   GL234730   1.929  25.030   8.926
 2534POPC   C1A34731   2.065  25.396   8.559
 2534POPC   D2A34732   1.982  25.103   8.260
 2534POPC   C3A34733   1.925  25.278   7.856
 2534POPC   C4A34734   2.211  25.252   7.473
 2534POPC   C1B34735   1.630  24.720   8.746
 2534POPC   C2B34736   1.560  24.812   8.367
 2534POPC   C3B34737   1.626  24.844   7.981
 2534POPC   C4B34738   1.456  25.114   7.684
 2535POPC   NC334739  38.318  15.455   9.423
 2535POPC   PO434740  38.484  14.826   9.576
 2535POPC   GL134741  38.547  15.023   9.196
 2535POPC   GL234742  38.214  15.016   9.128
 2535POPC   C1A34743  38.718  15.237   8.822
 2535POPC   D2A34744  38.872  15.095   8.383
 2535POPC   C3A34745  38.575  15.156   8.027
 2535POPC   C4A34746  38.446  14.960   7.635
 2535POPC   C1B34747  38.304  14.945   8.701
 2535POPC   C2B34748  38.065  14.766   8.377
 2535POPC   C3B34749  38.071  14.870   7.958
 2535POPC   C4B34750  37.952  14.699   7.583
 2536POPC   NC334751  42.866  19.332   9.489
 2536POPC   PO434752  43.309  18.957   9.138
 2536POPC   GL134753  42.894  19.006   9.104
 2536POPC   GL234754  43.032  19.373   9.016
 2536POPC   C1A34755  42.747  18.992   8.710
 2536POPC   D2A34756  43.174  19.086   8.538
 2536POPC   C3A34757  43.246  18.972   8.111
 2536POPC   C4A34758  43.373  19.127   7.695
 2536POPC   C1B34759  42.837  19.493   8.640
 2536POPC   C2B34760  42.789  19.260   8.249
 2536POPC   C3B34761  42.523  19.069   7.946
 2536POPC   C4B34762  42.597  18.939   7.546
 2537POPC   NC334763  25.880  34.570   9.680
 2537POPC   PO434764  26.316  34.946   9.277
 2537POPC   GL134765  25.961  34.682   9.189
 2537POPC   GL234766  25.681  34.821   9.007
 2537POPC   C1A34767  25.956  34.398   8.857
 2537POPC   D2A34768  26.164  34.450   8.476
 2537POPC   C3A34769  25.875  34.522   8.152
 2537POPC   C4A34770  25.918  34.460   7.730
 2537POPC   C1B34771  25.944  34.883   8.667
 2537POPC   C2B34772  25.797  35.037   8.267
 2537POPC   C3B34773  25.996  34.966   7.861
 2537POPC   C4B34774  25.963  34.877   7.412
 2538POPC   NC334775   7.054  19.115   9.632
 2538POPC   PO434776   7.685  18.987   9.780
 2538POPC   GL134777   7.703  19.041   9.267
 2538POPC   GL234778   7.393  19.238   9.236
 2538POPC   C1A34779   7.739  18.958   8.748
 2538POPC   D2A34780   7.627  18.945   8.287
 2538POPC   C3A34781   7.747  19.215   7.925
 2538POPC   C4A34782   7.761  19.017   7.508
 2538POPC   C1B34783   7.196  19.362   8.853
 2538POPC   C2B34784   7.265  19.309   8.447
 2538POPC   C3B34785   7.175  19.190   8.064
 2538POPC   C4B34786   7.364  18.901   7.814
 2539POPC   NC334787  21.878  17.101   9.459
 2539POPC   PO434788  22.415  16.733   9.551
 2539POPC   GL134789  22.229  16.701   9.183
 2539POPC   GL234790  22.249  17.037   9.115
 2539POPC   C1A34791  22.370  16.576   8.768
 2539POPC   D2A34792  22.200  16.347   8.423
 2539POPC   C3A34793  22.122  16.538   8.005
 2539POPC   C4A34794  22.044  16.676   7.573
 2539POPC   C1B34795  22.490  17.069   8.746
 2539POPC   C2B34796  22.390  16.979   8.305
 2539POPC   C3B34797  22.344  17.023   7.855
 2539POPC   C4B34798  22.472  16.898   7.407
 2540POPC   NC334799  20.120  12.854   9.656
 2540POPC   PO434800  19.465  12.773   9.521
 2540POPC   GL134801  19.774  12.824   9.256
 2540POPC   GL234802  19.941  12.520   9.317
 2540POPC   C1A34803  19.834  13.069   8.898
 2540POPC   D2A34804  19.784  12.889   8.488
 2540POPC   C3A34805  19.686  13.092   8.127
 2540POPC   C4A34806  19.830  13.181   7.768
 2540POPC   C1B34807  19.923  12.539   8.853
 2540POPC   C2B34808  20.089  12.486   8.424
 2540POPC   C3B34809  19.981  12.665   8.058
 2540POPC   C4B34810  19.664  12.678   7.809
 2541POPC   NC334811  43.011  16.169   9.434
 2541POPC   PO434812  43.608  15.758   9.470
 2541POPC   GL134813  43.215  15.809   9.123
 2541POPC   GL234814  43.304  15.697   8.839
 2541POPC   C1A34815  43.065  16.095   8.664
 2541POPC   D2A34816  43.079  15.886   8.246
 2541POPC   C3A34817  42.998  16.067   7.825
 2541POPC   C4A34818  42.834  15.877   7.427
 2541POPC   C1B34819  42.936  15.613   8.701
 2541POPC   C2B34820  42.663  15.583   8.357
 2541POPC   C3B34821  42.845  15.556   7.902
 2541POPC   C4B34822  43.283  15.641   7.805
 2542POPC   NC334823   9.599  32.060   9.551
 2542POPC   PO434824   9.533  32.705   9.561
 2542POPC   GL134825   9.599  32.426   9.200
 2542POPC   GL234826   9.964  32.329   9.287
 2542POPC   C1A34827   9.440  32.153   8.825
 2542POPC   D2A34828   9.644  31.929   8.453
 2542POPC   C3A34829   9.580  32.128   8.074
 2542POPC   C4A34830   9.772  32.381   7.745
 2542POPC   C1B34831   9.931  32.185   8.848
 2542POPC   C2B34832   9.939  32.348   8.417
 2542POPC   C3B34833  10.084  32.040   8.112
 2542POPC   C4B34834   9.949  31.882   7.723
 2543POPC   NC334835  42.022  20.076   9.471
 2543POPC   PO434836  42.536  19.689   9.455
 2543POPC   GL134837  42.248  19.775   9.117
 2543POPC   GL234838  42.183  20.107   8.999
 2543POPC   C1A34839  42.402  19.791   8.687
 2543POPC   D2A34840  42.397  19.565   8.332
 2543POPC   C3A34841  42.313  19.762   7.961
 2543POPC   C4A34842  42.382  19.466   7.626
 2543POPC   C1B34843  42.274  20.285   8.602
 2543POPC   C2B34844  42.234  20.286   8.163
 2543POPC   C3B34845  42.418  20.255   7.778
 2543POPC   C4B34846  42.283  20.018   7.456
 2544POPC   NC334847  26.892  37.427   9.712
 2544POPC   PO434848  26.548  36.779   9.550
 2544POPC   GL134849  26.788  36.789   9.164
 2544POPC   GL234850  26.635  37.050   8.934
 2544POPC   C1A34851  26.930  36.694   8.728
 2544POPC   D2A34852  26.715  36.974   8.401
 2544POPC   C3A34853  26.898  36.985   7.997
 2544POPC   C4A34854  26.693  36.895   7.633
 2544POPC   C1B34855  26.280  37.185   8.711
 2544POPC   C2B34856  26.110  37.087   8.318
 2544POPC   C3B34857  26.366  37.074   7.975
 2544POPC   C4B34858  26.356  37.292   7.587
 2545POPC   NC334859   3.217  20.485   9.512
 2545POPC   PO434860   3.837  20.678   9.420
 2545POPC   GL134861   3.769  20.596   9.032
 2545POPC   GL234862   3.431  20.617   9.054
 2545POPC   C1A34863   3.854  20.763   8.609
 2545POPC   D2A34864   3.887  20.791   8.171
 2545POPC   C3A34865   3.546  20.507   8.081
 2545POPC   C4A34866   3.579  20.238   7.747
 2545POPC   C1B34867   3.172  20.854   8.768
 2545POPC   C2B34868   3.302  20.921   8.336
 2545POPC   C3B34869   3.168  20.817   7.912
 2545POPC   C4B34870   3.578  20.840   7.710
 2546POPC   NC334871  36.170  34.331   9.710
 2546POPC   PO434872  35.594  34.086   9.400
 2546POPC   GL134873  35.961  34.393   9.260
 2546POPC   GL234874  36.310  34.333   9.207
 2546POPC   C1A34875  36.019  34.669   8.891
 2546POPC   D2A34876  36.067  34.701   8.454
 2546POPC   C3A34877  35.836  34.564   8.102
 2546POPC   C4A34878  35.762  34.638   7.660
 2546POPC   C1B34879  36.511  34.533   8.866
 2546POPC   C2B34880  36.449  34.367   8.485
 2546POPC   C3B34881  36.317  34.411   8.082
 2546POPC   C4B34882  36.254  34.508   7.676
 2547POPC   NC334883   7.689  38.593   9.177
 2547POPC   PO434884   7.241  39.054   9.517
 2547POPC   GL134885   7.328  39.332   9.194
 2547POPC   GL234886   7.442  39.091   9.000
 2547POPC   C1A34887   7.340  39.553   8.791
 2547POPC   D2A34888   7.489  39.540   8.365
 2547POPC   C3A34889   7.274  39.431   7.993
 2547POPC   C4A34890   7.036  39.122   7.784
 2547POPC   C1B34891   7.540  39.080   8.583
 2547POPC   C2B34892   7.321  38.969   8.210
 2547POPC   C3B34893   7.532  38.949   7.833
 2547POPC   C4B34894   7.965  38.803   7.841
 2548POPC   NC334895  30.224  13.849   9.556
 2548POPC   PO434896  29.770  13.294   9.486
 2548POPC   GL134897  29.728  13.569   9.127
 2548POPC   GL234898  29.942  13.871   9.127
 2548POPC   C1A34899  29.757  13.686   8.696
 2548POPC   D2A34900  30.055  13.660   8.372
 2548POPC   C3A34901  30.095  13.436   7.989
 2548POPC   C4A34902  29.728  13.635   7.856
 2548POPC   C1B34903  30.222  13.972   8.756
 2548POPC   C2B34904  30.284  14.100   8.309
 2548POPC   C3B34905  30.156  13.942   7.874
 2548POPC   C4B34906  29.824  13.962   7.488
 2549POPC   NC334907   3.968  41.500   9.572
 2549POPC   PO434908   3.392  41.227   9.549
 2549POPC   GL134909   3.517  41.543   9.212
 2549POPC   GL234910   3.222  41.743   9.073
 2549POPC   C1A34911   3.624  41.451   8.768
 2549POPC   D2A34912   3.517  41.336   8.336
 2549POPC   C3A34913   3.710  41.571   7.990
 2549POPC   C4A34914   3.969  41.451   7.665
 2549POPC   C1B34915   3.141  41.620   8.629
 2549POPC   C2B34916   3.235  41.757   8.179
 2549POPC   C3B34917   3.323  41.770   7.725
 2549POPC   C4B34918   3.306  41.896   7.272
 2550POPC   NC334919  36.437   6.963   9.118
 2550POPC   PO434920  36.128   6.522   9.527
 2550POPC   GL134921  36.025   6.557   9.117
 2550POPC   GL234922  35.923   6.868   8.951
 2550POPC   C1A34923  35.800   6.381   8.790
 2550POPC   D2A34924  36.065   6.523   8.471
 2550POPC   C3A34925  35.828   6.656   8.102
 2550POPC   C4A34926  36.013   6.589   7.684
 2550POPC   C1B34927  36.000   7.027   8.526
 2550POPC   C2B34928  36.089   7.138   8.081
 2550POPC   C3B34929  36.363   6.959   7.743
 2550POPC   C4B34930  36.389   6.809   7.281
 2551POPC   NC334931  14.233   0.852   9.338
 2551POPC   PO434932  13.590   1.175   9.388
 2551POPC   GL134933  13.523   1.398   9.022
 2551POPC   GL234934  13.684   1.684   9.125
 2551POPC   C1A34935  13.601   1.319   8.591
 2551POPC   D2A34936  13.291   1.058   8.387
 2551POPC   C3A34937  13.375   0.995   7.984
 2551POPC   C4A34938  13.628   1.238   7.657
 2551POPC   C1B34939  13.756   1.793   8.723
 2551POPC   C2B34940  13.920   1.724   8.329
 2551POPC   C3B34941  13.984   1.512   7.911
 2551POPC   C4B34942  13.935   1.620   7.439
 2552POPC   NC334943  31.939  18.192   9.388
 2552POPC   PO434944  31.301  18.047   9.530
 2552POPC   GL134945  31.419  18.278   9.164
 2552POPC   GL234946  31.358  18.638   9.180
 2552POPC   C1A34947  31.719  18.437   8.838
 2552POPC   D2A34948  31.653  18.565   8.439
 2552POPC   C3A34949  31.654  18.253   8.119
 2552POPC   C4A34950  31.796  18.137   7.714
 2552POPC   C1B34951  31.229  18.535   8.748
 2552POPC   C2B34952  31.126  18.578   8.328
 2552POPC   C3B34953  31.356  18.645   7.957
 2552POPC   C4B34954  31.376  18.395   7.583
 2553POPC   NC334955  42.805  20.109   9.464
 2553POPC   PO434956  43.294  19.639   9.452
 2553POPC   GL134957  43.116  19.896   9.119
 2553POPC   GL234958  42.780  19.824   9.035
 2553POPC   C1A34959  43.264  19.997   8.703
 2553POPC   D2A34960  43.097  19.810   8.339
 2553POPC   C3A34961  43.216  19.502   8.046
 2553POPC   C4A34962  42.894  19.352   7.748
 2553POPC   C1B34963  42.774  20.133   8.718
 2553POPC   C2B34964  42.655  20.058   8.293
 2553POPC   C3B34965  42.808  19.854   7.924
 2553POPC   C4B34966  43.189  19.947   7.712
 2554POPC   NC334967  31.297   5.417   9.406
 2554POPC   PO434968  31.535   6.044   9.457
 2554POPC   GL134969  31.725   5.915   9.088
 2554POPC   GL234970  31.849   6.216   9.086
 2554POPC   C1A34971  31.608   5.757   8.702
 2554POPC   D2A34972  31.373   5.989   8.410
 2554POPC   C3A34973  31.414   5.796   8.014
 2554POPC   C4A34974  31.671   5.619   7.709
 2554POPC   C1B34975  31.928   6.157   8.658
 2554POPC   C2B34976  31.866   5.995   8.270
 2554POPC   C3B34977  31.802   6.113   7.871
 2554POPC   C4B34978  31.820   6.083   7.450
 2555POPC   NC334979   6.319  17.223   9.614
 2555POPC   PO434980   6.293  16.538   9.379
 2555POPC   GL134981   6.192  16.783   9.036
 2555POPC   GL234982   6.123  17.140   9.159
 2555POPC   C1A34983   6.036  16.681   8.620
 2555POPC   D2A34984   5.699  16.737   8.310
 2555POPC   C3A34985   5.892  16.652   7.914
 2555POPC   C4A34986   6.317  16.741   7.834
 2555POPC   C1B34987   5.819  17.083   8.853
 2555POPC   C2B34988   5.928  17.176   8.450
 2555POPC   C3B34989   5.888  17.143   8.037
 2555POPC   C4B34990   6.064  17.137   7.668
 2556POPC   NC334991   2.582  43.393   9.797
 2556POPC   PO434992   2.888  44.053   9.738
 2556POPC   GL134993   2.892  44.188   9.271
 2556POPC   GL234994   2.541  44.121   9.105
 2556POPC   C1A34995   2.922  44.254   8.803
 2556POPC   D2A34996   2.706  44.049   8.450
 2556POPC   C3A34997   2.936  43.968   8.103
 2556POPC   C4A34998   2.937  43.973   7.683
 2556POPC   C1B34999   2.541  43.729   8.801
 2556POPC   C2B35000   2.353  43.686   8.368
 2556POPC   C3B35001   2.441  43.853   7.944
 2556POPC   C4B35002   2.525  43.722   7.505
 2557POPC   NC335003  34.800   6.419   9.525
 2557POPC   PO435004  34.387   6.912   9.413
 2557POPC   GL135005  34.593   6.642   9.108
 2557POPC   GL235006  34.539   6.914   8.935
 2557POPC   C1A35007  34.660   6.534   8.653
 2557POPC   D2A35008  34.491   6.776   8.312
 2557POPC   C3A35009  34.432   6.519   7.995
 2557POPC   C4A35010  34.690   6.427   7.658
 2557POPC   C1B35011  34.777   7.048   8.647
 2557POPC   C2B35012  35.019   6.886   8.321
 2557POPC   C3B35013  34.877   6.880   7.898
 2557POPC   C4B35014  35.032   6.802   7.495
 2558POPC   NC335015  16.867  10.116   9.649
 2558POPC   PO435016  16.467   9.603   9.668
 2558POPC   GL135017  16.749   9.765   9.288
 2558POPC   GL235018  16.577  10.039   9.207
 2558POPC   C1A35019  16.899   9.872   8.832
 2558POPC   D2A35020  16.983  10.061   8.410
 2558POPC   C3A35021  16.874   9.844   7.995
 2558POPC   C4A35022  17.089   9.768   7.589
 2558POPC   C1B35023  16.373  10.092   8.787
 2558POPC   C2B35024  16.476   9.933   8.377
 2558POPC   C3B35025  16.407  10.105   7.974
 2558POPC   C4B35026  16.186   9.966   7.598
 2559POPC   NC335027  26.488  21.722   9.661
 2559POPC   PO435028  26.025  22.236   9.515
 2559POPC   GL135029  26.097  22.181   9.127
 2559POPC   GL235030  26.310  21.930   9.142
 2559POPC   C1A35031  25.875  22.061   8.771
 2559POPC   D2A35032  25.967  22.229   8.371
 2559POPC   C3A35033  25.727  22.066   8.023
 2559POPC   C4A35034  25.751  22.297   7.671
 2559POPC   C1B35035  26.410  22.140   8.712
 2559POPC   C2B35036  26.490  22.155   8.251
 2559POPC   C3B35037  26.243  22.209   7.861
 2559POPC   C4B35038  26.159  21.871   7.577
 2560POPC   NC335039  27.862   8.599   9.321
 2560POPC   PO435040  28.158   8.190   9.750
 2560POPC   GL135041  28.254   8.145   9.280
 2560POPC   GL235042  28.325   8.456   9.146
 2560POPC   C1A35043  28.296   8.101   8.785
 2560POPC   D2A35044  28.319   8.302   8.350
 2560POPC   C3A35045  28.563   8.093   8.030
 2560POPC   C4A35046  28.342   8.051   7.648
 2560POPC   C1B35047  28.477   8.578   8.732
 2560POPC   C2B35048  28.519   8.793   8.339
 2560POPC   C3B35049  28.549   8.610   7.973
 2560POPC   C4B35050  28.422   8.564   7.573
 2561POPC   NC335051  20.762  11.019   9.411
 2561POPC   PO435052  20.466  11.651   9.527
 2561POPC   GL135053  20.422  11.354   9.176
 2561POPC   GL235054  20.716  11.474   9.049
 2561POPC   C1A35055  20.293  11.264   8.740
 2561POPC   D2A35056  20.458  11.570   8.399
 2561POPC   C3A35057  20.548  11.466   7.991
 2561POPC   C4A35058  20.346  11.071   7.874
 2561POPC   C1B35059  20.788  11.245   8.662
 2561POPC   C2B35060  20.769  11.072   8.233
 2561POPC   C3B35061  20.872  11.135   7.783
 2561POPC   C4B35062  20.867  11.409   7.409
 2562POPC   NC335063  35.281  30.143   9.452
 2562POPC   PO435064  35.446  30.808   9.525
 2562POPC   GL135065  35.376  30.625   9.184
 2562POPC   GL235066  35.683  30.441   9.169
 2562POPC   C1A35067  35.365  30.846   8.791
 2562POPC   D2A35068  35.202  30.977   8.409
 2562POPC   C3A35069  35.400  30.758   8.089
 2562POPC   C4A35070  35.271  30.879   7.709
 2562POPC   C1B35071  35.480  30.346   8.787
 2562POPC   C2B35072  35.297  30.318   8.413
 2562POPC   C3B35073  35.470  30.253   8.033
 2562POPC   C4B35074  35.509  30.439   7.659
 2563POPC   NC335075  37.146  22.812   9.403
 2563POPC   PO435076  36.599  23.173   9.544
 2563POPC   GL135077  36.756  23.049   9.156
 2563POPC   GL235078  37.038  23.223   9.098
 2563POPC   C1A35079  36.895  22.838   8.770
 2563POPC   D2A35080  36.666  22.746   8.413
 2563POPC   C3A35081  36.891  22.714   8.084
 2563POPC   C4A35082  36.716  22.946   7.811
 2563POPC   C1B35083  37.242  23.235   8.694
 2563POPC   C2B35084  37.069  23.146   8.289
 2563POPC   C3B35085  37.179  23.166   7.837
 2563POPC   C4B35086  37.313  23.293   7.402
 2564POPC   NC335087  34.137   1.882   9.522
 2564POPC   PO435088  33.497   2.057   9.436
 2564POPC   GL135089  33.797   2.157   9.141
 2564POPC   GL235090  33.889   1.811   9.101
 2564POPC   C1A35091  33.886   2.110   8.698
 2564POPC   D2A35092  33.666   2.155   8.348
 2564POPC   C3A35093  33.865   2.026   7.991
 2564POPC   C4A35094  33.754   2.180   7.591
 2564POPC   C1B35095  34.120   1.659   8.759
 2564POPC   C2B35096  34.206   1.854   8.355
 2564POPC   C3B35097  34.287   1.684   7.954
 2564POPC   C4B35098  34.047   1.751   7.604
 2565POPC   NC335099  25.898  17.961   9.432
 2565POPC   PO435100  26.412  18.439   9.489
 2565POPC   GL135101  26.194  18.358   9.142
 2565POPC   GL235102  26.261  18.028   9.070
 2565POPC   C1A35103  26.290  18.511   8.746
 2565POPC   D2A35104  26.287  18.319   8.341
 2565POPC   C3A35105  26.060  18.573   8.066
 2565POPC   C4A35106  25.802  18.478   7.728
 2565POPC   C1B35107  25.944  18.116   8.759
 2565POPC   C2B35108  25.743  18.269   8.392
 2565POPC   C3B35109  25.707  18.052   8.003
 2565POPC   C4B35110  26.023  17.872   7.741
 2566POPC   NC335111  12.086  26.260   9.503
 2566POPC   PO435112  12.050  25.615   9.465
 2566POPC   GL135113  11.950  25.923   9.112
 2566POPC   GL235114  11.668  26.178   9.214
 2566POPC   C1A35115  12.235  26.196   8.809
 2566POPC   D2A35116  12.341  26.409   8.396
 2566POPC   C3A35117  12.324  26.163   8.019
 2566POPC   C4A35118  12.043  26.062   7.725
 2566POPC   C1B35119  11.731  26.328   8.809
 2566POPC   C2B35120  11.885  26.163   8.431
 2566POPC   C3B35121  11.700  26.030   8.086
 2566POPC   C4B35122  11.477  26.310   7.864
 2567POPC   NC335123  27.819  20.699   9.630
 2567POPC   PO435124  27.332  20.592   9.284
 2567POPC   GL135125  27.560  20.450   9.064
 2567POPC   GL235126  27.897  20.406   9.202
 2567POPC   C1A35127  27.428  20.439   8.669
 2567POPC   D2A35128  27.559  20.623   8.338
 2567POPC   C3A35129  27.425  20.483   7.975
 2567POPC   C4A35130  27.398  20.715   7.610
 2567POPC   C1B35131  27.949  20.561   8.765
 2567POPC   C2B35132  28.033  20.411   8.351
 2567POPC   C3B35133  27.926  20.600   7.940
 2567POPC   C4B35134  27.893  20.644   7.505
 2568POPC   NC335135  43.560   5.319   9.519
 2568POPC   PO435136  43.934   4.728   9.619
 2568POPC   GL135137  43.960   4.833   9.192
 2568POPC   GL235138  44.169   4.537   9.145
 2568POPC   C1A35139  43.741   5.045   8.835
 2568POPC   D2A35140  43.756   5.390   8.514
 2568POPC   C3A35141  43.752   5.267   8.058
 2568POPC   C4A35142  44.037   5.454   7.692
 2568POPC   C1B35143  43.919   4.548   8.750
 2568POPC   C2B35144  43.710   4.732   8.408
 2568POPC   C3B35145  43.950   4.735   8.038
 2568POPC   C4B35146  43.933   4.951   7.680
 2569POPC   NC335147   3.962  21.069   9.191
 2569POPC   PO435148   4.534  21.129   9.585
 2569POPC   GL135149   4.438  21.413   9.248
 2569POPC   GL235150   4.138  21.555   9.140
 2569POPC   C1A35151   4.501  21.347   8.797
 2569POPC   D2A35152   4.231  21.128   8.494
 2569POPC   C3A35153   4.255  21.345   8.101
 2569POPC   C4A35154   4.470  21.319   7.703
 2569POPC   C1B35155   4.081  21.618   8.681
 2569POPC   C2B35156   3.936  21.712   8.255
 2569POPC   C3B35157   4.158  21.775   7.830
 2569POPC   C4B35158   4.190  21.580   7.381
 2570POPC   NC335159  10.115  42.709   9.390
 2570POPC   PO435160   9.876  42.085   9.601
 2570POPC   GL135161   9.758  42.335   9.245
 2570POPC   GL235162   9.607  42.073   9.102
 2570POPC   C1A35163   9.858  42.439   8.800
 2570POPC   D2A35164   9.740  42.367   8.352
 2570POPC   C3A35165   9.939  42.402   7.955
 2570POPC   C4A35166   9.532  42.512   7.746
 2570POPC   C1B35167   9.481  42.081   8.675
 2570POPC   C2B35168   9.713  41.847   8.351
 2570POPC   C3B35169   9.880  41.879   7.943
 2570POPC   C4B35170   9.810  42.091   7.563
 2571POPC   NC335171   1.658  11.182   9.582
 2571POPC   PO435172   1.794  11.801   9.908
 2571POPC   GL135173   1.885  11.620   9.355
 2571POPC   GL235174   1.877  11.271   9.155
 2571POPC   C1A35175   1.994  11.591   8.816
 2571POPC   D2A35176   2.035  11.240   8.428
 2571POPC   C3A35177   2.084  11.282   7.943
 2571POPC   C4A35178   2.175  11.432   7.485
 2571POPC   C1B35179   1.648  11.191   8.748
 2571POPC   C2B35180   1.598  10.904   8.391
 2571POPC   C3B35181   1.675  10.961   7.937
 2571POPC   C4B35182   1.751  11.160   7.560
 2572POPC   NC335183  14.044  28.149   9.457
 2572POPC   PO435184  13.409  28.590   9.530
 2572POPC   GL135185  13.511  28.572   9.088
 2572POPC   GL235186  13.838  28.470   9.104
 2572POPC   C1A35187  13.311  28.357   8.729
 2572POPC   D2A35188  13.346  28.215   8.296
 2572POPC   C3A35189  13.412  28.504   7.975
 2572POPC   C4A35190  13.439  28.507   7.557
 2572POPC   C1B35191  13.777  28.143   8.784
 2572POPC   C2B35192  13.837  28.053   8.341
 2572POPC   C3B35193  13.846  28.243   7.940
 2572POPC   C4B35194  13.797  28.065   7.545
 2573POPC   NC335195  43.166  28.632   9.743
 2573POPC   PO435196  42.700  28.244   9.391
 2573POPC   GL135197  43.029  28.158   9.104
 2573POPC   GL235198  43.232  28.407   9.271
 2573POPC   C1A35199  43.138  28.283   8.670
 2573POPC   D2A35200  42.950  28.514   8.308
 2573POPC   C3A35201  42.874  28.228   7.952
 2573POPC   C4A35202  43.280  28.199   7.728
 2573POPC   C1B35203  43.444  28.608   8.932
 2573POPC   C2B35204  43.496  28.675   8.483
 2573POPC   C3B35205  43.434  28.507   8.089
 2573POPC   C4B35206  43.080  28.668   7.787
 2574POPC   NC335207  29.405  14.411   9.440
 2574POPC   PO435208  28.909  14.681   9.676
 2574POPC   GL135209  28.958  14.551   9.175
 2574POPC   GL235210  28.904  14.232   9.045
 2574POPC   C1A35211  29.194  14.491   8.741
 2574POPC   D2A35212  29.334  14.336   8.345
 2574POPC   C3A35213  29.070  14.367   8.008
 2574POPC   C4A35214  29.231  14.471   7.640
 2574POPC   C1B35215  28.819  13.963   8.712
 2574POPC   C2B35216  28.988  13.903   8.287
 2574POPC   C3B35217  28.901  13.859   7.846
 2574POPC   C4B35218  28.837  14.186   7.524
 2575POPC   NC335219  26.103   5.446   9.359
 2575POPC   PO435220  26.173   6.043   9.622
 2575POPC   GL135221  26.127   5.949   9.149
 2575POPC   GL235222  25.987   6.253   8.959
 2575POPC   C1A35223  26.240   5.632   8.782
 2575POPC   D2A35224  26.345   5.693   8.374
 2575POPC   C3A35225  25.995   5.779   8.103
 2575POPC   C4A35226  26.120   5.684   7.705
 2575POPC   C1B35227  25.968   6.011   8.585
 2575POPC   C2B35228  25.775   5.574   8.518
 2575POPC   C3B35229  25.496   5.518   8.170
 2575POPC   C4B35230  25.560   5.771   7.797
 2576POPC   NC335231  11.238   1.804   9.514
 2576POPC   PO435232  11.570   2.442   9.501
 2576POPC   GL135233  11.375   2.202   9.153
 2576POPC   GL235234  11.478   1.856   9.083
 2576POPC   C1A35235  11.172   2.299   8.755
 2576POPC   D2A35236  10.923   2.092   8.429
 2576POPC   C3A35237  11.069   2.181   8.040
 2576POPC   C4A35238  11.320   2.461   7.819
 2576POPC   C1B35239  11.177   1.763   8.800
 2576POPC   C2B35240  11.154   1.569   8.414
 2576POPC   C3B35241  11.107   1.662   7.999
 2576POPC   C4B35242  11.173   1.817   7.570
 2577POPC   NC335243  12.043  28.526   9.604
 2577POPC   PO435244  11.889  27.931   9.743
 2577POPC   GL135245  11.882  28.232   9.256
 2577POPC   GL235246  11.939  28.624   9.128
 2577POPC   C1A35247  12.031  28.148   8.814
 2577POPC   D2A35248  12.356  28.052   8.464
 2577POPC   C3A35249  12.221  28.053   8.033
 2577POPC   C4A35250  11.889  28.294   7.871
 2577POPC   C1B35251  12.246  28.609   8.786
 2577POPC   C2B35252  12.106  28.483   8.377
 2577POPC   C3B35253  12.321  28.582   8.014
 2577POPC   C4B35254  12.156  28.650   7.624
 2578POPC   NC335255  26.064  30.768   9.695
 2578POPC   PO435256  25.635  30.281   9.463
 2578POPC   GL135257  25.954  30.622   9.220
 2578POPC   GL235258  26.265  30.479   9.050
 2578POPC   C1A35259  26.033  30.856   8.799
 2578POPC   D2A35260  26.178  31.082   8.435
 2578POPC   C3A35261  26.129  30.796   8.079
 2578POPC   C4A35262  25.970  30.863   7.660
 2578POPC   C1B35263  25.892  30.364   8.798
 2578POPC   C2B35264  25.716  30.305   8.443
 2578POPC   C3B35265  25.653  30.416   8.070
 2578POPC   C4B35266  25.956  30.371   7.789
 2579POPC   NC335267  42.131  25.477   9.499
 2579POPC   PO435268  42.530  24.859   9.427
 2579POPC   GL135269  42.204  25.061   9.170
 2579POPC   GL235270  42.327  25.410   9.039
 2579POPC   C1A35271  41.983  25.165   8.769
 2579POPC   D2A35272  42.235  25.418   8.461
 2579POPC   C3A35273  42.274  25.304   8.055
 2579POPC   C4A35274  42.452  25.158   7.686
 2579POPC   C1B35275  42.016  25.696   8.804
 2579POPC   C2B35276  41.971  25.866   8.360
 2579POPC   C3B35277  41.948  25.696   7.954
 2579POPC   C4B35278  42.290  25.637   7.640
 2580POPC   NC335279  37.397  39.490   9.493
 2580POPC   PO435280  38.040  39.264   9.525
 2580POPC   GL135281  37.690  39.190   9.200
 2580POPC   GL235282  37.778  39.460   9.131
 2580POPC   C1A35283  37.408  39.348   8.818
 2580POPC   D2A35284  37.606  39.471   8.404
 2580POPC   C3A35285  37.425  39.409   7.978
 2580POPC   C4A35286  37.510  39.163   7.617
 2580POPC   C1B35287  37.881  39.204   8.743
 2580POPC   C2B35288  37.815  38.939   8.423
 2580POPC   C3B35289  37.786  39.001   8.002
 2580POPC   C4B35290  38.047  39.127   7.662
 2581POPC   NC335291  31.660   9.293   9.665
 2581POPC   PO435292  31.390   8.654   9.557
 2581POPC   GL135293  31.260   8.829   9.163
 2581POPC   GL235294  31.543   9.024   9.217
 2581POPC   C1A35295  31.110   8.746   8.717
 2581POPC   D2A35296  31.371   8.668   8.336
 2581POPC   C3A35297  31.488   9.036   8.038
 2581POPC   C4A35298  31.493   8.975   7.565
 2581POPC   C1B35299  31.823   9.272   8.924
 2581POPC   C2B35300  31.866   9.320   8.487
 2581POPC   C3B35301  31.790   9.608   8.160
 2581POPC   C4B35302  31.714   9.423   7.755
 2582POPC   NC335303   7.339  22.924   9.702
 2582POPC   PO435304   7.469  22.452   9.421
 2582POPC   GL135305   7.407  22.814   9.124
 2582POPC   GL235306   7.172  23.089   9.219
 2582POPC   C1A35307   7.514  22.852   8.664
 2582POPC   D2A35308   7.657  22.699   8.229
 2582POPC   C3A35309   7.756  22.992   7.861
 2582POPC   C4A35310   7.722  23.296   7.496
 2582POPC   C1B35311   7.085  23.127   8.745
 2582POPC   C2B35312   7.222  23.068   8.291
 2582POPC   C3B35313   7.266  22.830   7.913
 2582POPC   C4B35314   7.007  22.759   7.532
 2583POPC   NC335315  10.253  13.103   9.486
 2583POPC   PO435316  10.438  12.458   9.482
 2583POPC   GL135317  10.466  12.728   9.168
 2583POPC   GL235318  10.698  13.001   9.207
 2583POPC   C1A35319  10.363  12.881   8.788
 2583POPC   D2A35320  10.516  12.762   8.395
 2583POPC   C3A35321  10.391  12.714   7.953
 2583POPC   C4A35322  10.494  12.779   7.466
 2583POPC   C1B35323  10.811  13.210   8.819
 2583POPC   C2B35324  10.690  13.315   8.413
 2583POPC   C3B35325  10.692  13.097   8.062
 2583POPC   C4B35326  10.571  13.248   7.676
 2584POPC   NC335327  29.371   3.179   9.420
 2584POPC   PO435328  29.096   3.821   9.419
 2584POPC   GL135329  29.257   3.577   9.108
 2584POPC   GL235330  28.961   3.368   9.161
 2584POPC   C1A35331  29.270   3.484   8.671
 2584POPC   D2A35332  29.333   3.140   8.402
 2584POPC   C3A35333  29.341   3.345   8.043
 2584POPC   C4A35334  29.159   3.620   7.725
 2584POPC   C1B35335  28.823   3.692   8.850
 2584POPC   C2B35336  28.597   3.594   8.509
 2584POPC   C3B35337  28.839   3.560   8.140
 2584POPC   C4B35338  28.650   3.442   7.772
 2585POPC   NC335339   4.221   9.788   9.823
 2585POPC   PO435340   4.887   9.588   9.611
 2585POPC   GL135341   4.515   9.558   9.277
 2585POPC   GL235342   4.245   9.800   9.249
 2585POPC   C1A35343   4.339   9.474   8.837
 2585POPC   D2A35344   4.177   9.701   8.461
 2585POPC   C3A35345   4.149   9.537   7.994
 2585POPC   C4A35346   4.322   9.434   7.569
 2585POPC   C1B35347   4.348  10.006   8.859
 2585POPC   C2B35348   4.530  10.098   8.458
 2585POPC   C3B35349   4.312  10.027   8.093
 2585POPC   C4B35350   4.397   9.921   7.694
 2586POPC   NC335351   5.572  41.689   9.297
 2586POPC   PO435352   6.056  41.382   9.633
 2586POPC   GL135353   6.128  41.493   9.226
 2586POPC   GL235354   6.118  41.827   9.196
 2586POPC   C1A35355   6.142  41.299   8.820
 2586POPC   D2A35356   6.249  41.170   8.391
 2586POPC   C3A35357   5.925  41.206   8.091
 2586POPC   C4A35358   5.683  41.278   7.693
 2586POPC   C1B35359   6.244  41.795   8.780
 2586POPC   C2B35360   6.035  41.644   8.391
 2586POPC   C3B35361   5.853  41.688   7.931
 2586POPC   C4B35362   5.557  41.874   7.585
 2587POPC   NC335363  13.993   1.536   9.493
 2587POPC   PO435364  14.490   1.077   9.638
 2587POPC   GL135365  14.409   1.268   9.161
 2587POPC   GL235366  14.021   1.244   9.065
 2587POPC   C1A35367  14.382   1.108   8.729
 2587POPC   D2A35368  14.129   1.254   8.382
 2587POPC   C3A35369  14.361   1.127   8.014
 2587POPC   C4A35370  14.334   0.904   7.623
 2587POPC   C1B35371  14.201   1.577   8.792
 2587POPC   C2B35372  14.447   1.695   8.409
 2587POPC   C3B35373  14.570   1.618   7.964
 2587POPC   C4B35374  14.375   1.414   7.595
 2588POPC   NC335375  34.216  33.186   9.549
 2588POPC   PO435376  34.794  32.857   9.804
 2588POPC   GL135377  34.767  33.053   9.324
 2588POPC   GL235378  34.431  33.040   9.117
 2588POPC   C1A35379  34.813  32.918   8.840
 2588POPC   D2A35380  34.556  32.934   8.488
 2588POPC   C3A35381  34.684  32.756   8.086
 2588POPC   C4A35382  34.745  33.063   7.793
 2588POPC   C1B35383  34.338  33.321   8.755
 2588POPC   C2B35384  34.477  33.431   8.308
 2588POPC   C3B35385  34.379  33.409   7.865
 2588POPC   C4B35386  34.171  33.103   7.596
 2589POPC   NC335387  21.959  27.151   9.672
 2589POPC   PO435388  22.340  26.735   9.580
 2589POPC   GL135389  22.294  26.967   9.189
 2589POPC   GL235390  21.944  26.915   9.154
 2589POPC   C1A35391  22.515  27.012   8.767
 2589POPC   D2A35392  22.439  26.796   8.359
 2589POPC   C3A35393  22.410  26.949   7.924
 2589POPC   C4A35394  22.306  26.654   7.577
 2589POPC   C1B35395  22.029  26.838   8.683
 2589POPC   C2B35396  21.956  26.925   8.216
 2589POPC   C3B35397  21.874  26.869   7.773
 2589POPC   C4B35398  21.521  26.794   7.460
 2590POPC   NC335399   1.668  40.354   9.408
 2590POPC   PO435400   2.327  40.032   9.511
 2590POPC   GL135401   2.074  40.046   9.157
 2590POPC   GL235402   2.115  40.370   9.116
 2590POPC   C1A35403   1.753  40.042   8.810
 2590POPC   D2A35404   1.687  39.779   8.442
 2590POPC   C3A35405   1.712  39.932   8.032
 2590POPC   C4A35406   1.835  39.796   7.636
 2590POPC   C1B35407   2.132  40.345   8.671
 2590POPC   C2B35408   2.141  40.045   8.339
 2590POPC   C3B35409   2.138  40.172   7.916
 2590POPC   C4B35410   2.326  40.301   7.575
 2591POPC   NC335411  19.203  14.818   9.517
 2591POPC   PO435412  19.337  15.392   9.379
 2591POPC   GL135413  19.187  15.043   9.075
 2591POPC   GL235414  18.836  14.945   9.125
 2591POPC   C1A35415  19.132  14.824   8.705
 2591POPC   D2A35416  19.090  15.107   8.387
 2591POPC   C3A35417  19.044  15.001   7.998
 2591POPC   C4A35418  19.346  15.031   7.664
 2591POPC   C1B35419  18.680  15.095   8.691
 2591POPC   C2B35420  18.606  15.160   8.217
 2591POPC   C3B35421  18.511  15.117   7.759
 2591POPC   C4B35422  18.582  15.112   7.285
 2592POPC   NC335423  14.199  14.458   9.768
 2592POPC   PO435424  14.692  14.162   9.408
 2592POPC   GL135425  14.443  14.378   9.102
 2592POPC   GL235426  14.202  14.592   9.261
 2592POPC   C1A35427  14.336  14.207   8.690
 2592POPC   D2A35428  14.430  14.014   8.287
 2592POPC   C3A35429  14.326  14.292   7.953
 2592POPC   C4A35430  14.423  14.290   7.519
 2592POPC   C1B35431  14.217  14.703   8.793
 2592POPC   C2B35432  14.141  14.605   8.354
 2592POPC   C3B35433  14.148  14.776   7.929
 2592POPC   C4B35434  14.232  14.761   7.457
 2593POPC   NC335435  34.418  18.091   9.574
 2593POPC   PO435436  34.596  17.436   9.605
 2593POPC   GL135437  34.595  17.494   9.203
 2593POPC   GL235438  34.660  17.858   9.185
 2593POPC   C1A35439  34.391  17.595   8.825
 2593POPC   D2A35440  34.395  17.721   8.410
 2593POPC   C3A35441  34.433  17.380   8.113
 2593POPC   C4A35442  34.227  17.437   7.735
 2593POPC   C1B35443  34.940  17.664   8.875
 2593POPC   C2B35444  34.830  17.430   8.520
 2593POPC   C3B35445  34.920  17.536   8.118
 2593POPC   C4B35446  34.721  17.642   7.717
 2594POPC   NC335447  18.723  41.187  10.010
 2594POPC   PO435448  19.174  41.537   9.696
 2594POPC   GL135449  19.339  41.658   9.275
 2594POPC   GL235450  19.451  41.348   9.115
 2594POPC   C1A35451  19.285  41.764   8.850
 2594POPC   D2A35452  19.382  41.764   8.426
 2594POPC   C3A35453  19.066  41.852   8.113
 2594POPC   C4A35454  18.919  41.724   7.698
 2594POPC   C1B35455  19.448  41.235   8.682
 2594POPC   C2B35456  19.584  41.333   8.248
 2594POPC   C3B35457  19.270  41.377   7.904
 2594POPC   C4B35458  19.323  41.149   7.495
 2595POPC   NC335459  20.013  32.951   9.502
 2595POPC   PO435460  19.669  33.470   9.133
 2595POPC   GL135461  20.076  33.159   9.030
 2595POPC   GL235462  20.063  32.793   9.020
 2595POPC   C1A35463  20.095  33.041   8.589
 2595POPC   D2A35464  19.811  33.270   8.376
 2595POPC   C3A35465  19.967  33.394   8.030
 2595POPC   C4A35466  19.641  33.183   7.791
 2595POPC   C1B35467  19.832  32.584   8.671
 2595POPC   C2B35468  19.843  32.680   8.258
 2595POPC   C3B35469  20.047  32.886   7.929
 2595POPC   C4B35470  20.100  32.748   7.493
 2596POPC   NC335471   3.544  24.160   9.477
 2596POPC   PO435472   3.150  24.647   9.529
 2596POPC   GL135473   3.272  24.472   9.145
 2596POPC   GL235474   3.195  24.106   9.114
 2596POPC   C1A35475   3.421  24.662   8.741
 2596POPC   D2A35476   3.672  24.593   8.354
 2596POPC   C3A35477   3.506  24.712   7.939
 2596POPC   C4A35478   3.357  24.604   7.513
 2596POPC   C1B35479   3.494  24.145   8.774
 2596POPC   C2B35480   3.697  24.061   8.373
 2596POPC   C3B35481   3.572  24.184   7.967
 2596POPC   C4B35482   3.303  24.063   7.615
 2597POPC   NC335483  38.691  16.261   9.673
 2597POPC   PO435484  38.157  15.893   9.487
 2597POPC   GL135485  38.289  15.845   9.105
 2597POPC   GL235486  38.657  15.828   9.200
 2597POPC   C1A35487  38.390  15.685   8.743
 2597POPC   D2A35488  38.429  15.941   8.418
 2597POPC   C3A35489  38.444  15.738   8.082
 2597POPC   C4A35490  38.371  15.915   7.731
 2597POPC   C1B35491  38.720  16.081   8.821
 2597POPC   C2B35492  38.932  16.110   8.429
 2597POPC   C3B35493  38.761  16.146   8.015
 2597POPC   C4B35494  38.688  16.259   7.563
 2598POPC   NC335495  30.348  19.407   9.368
 2598POPC   PO435496  30.890  18.956   9.590
 2598POPC   GL135497  30.682  18.983   9.190
 2598POPC   GL235498  30.976  18.961   9.047
 2598POPC   C1A35499  30.520  19.152   8.769
 2598POPC   D2A35500  30.259  19.058   8.419
 2598POPC   C3A35501  30.432  18.994   8.030
 2598POPC   C4A35502  30.472  18.763   7.624
 2598POPC   C1B35503  30.998  18.976   8.638
 2598POPC   C2B35504  30.923  19.054   8.250
 2598POPC   C3B35505  30.903  18.870   7.887
 2598POPC   C4B35506  30.880  19.096   7.502
 2599POPC   NC335507  23.795  33.758   9.634
 2599POPC   PO435508  23.847  34.386   9.487
 2599POPC   GL135509  23.845  34.049   9.200
 2599POPC   GL235510  23.519  33.939   9.197
 2599POPC   C1A35511  23.818  33.998   8.760
 2599POPC   D2A35512  23.995  34.094   8.369
 2599POPC   C3A35513  23.769  33.878   8.064
 2599POPC   C4A35514  23.773  33.923   7.652
 2599POPC   C1B35515  23.419  33.664   8.829
 2599POPC   C2B35516  23.224  33.612   8.408
 2599POPC   C3B35517  23.372  33.569   7.956
 2599POPC   C4B35518  23.396  33.612   7.503
 2600POPC   NC335519   4.238  36.898   9.731
 2600POPC   PO435520   4.703  36.642   9.309
 2600POPC   GL135521   4.529  36.954   9.074
 2600POPC   GL235522   4.155  36.996   9.074
 2600POPC   C1A35523   4.639  36.851   8.666
 2600POPC   D2A35524   4.405  36.958   8.345
 2600POPC   C3A35525   4.474  36.767   7.997
 2600POPC   C4A35526   4.506  36.987   7.610
 2600POPC   C1B35527   4.145  36.707   8.719
 2600POPC   C2B35528   3.968  36.647   8.301
 2600POPC   C3B35529   4.003  36.906   7.934
 2600POPC   C4B35530   4.014  36.848   7.506
 2601POPC   NC335531  40.985  44.654   9.428
 2601POPC   PO435532  40.419   0.009   9.547
 2601POPC   GL135533  40.592  44.842   9.147
 2601POPC   GL235534  40.683  44.456   9.064
 2601POPC   C1A35535  40.766  44.813   8.738
 2601POPC   D2A35536  40.733  44.478   8.468
 2601POPC   C3A35537  40.753  44.676   8.060
 2601POPC   C4A35538  40.787  44.753   7.612
 2601POPC   C1B35539  41.113  44.417   8.795
 2601POPC   C2B35540  41.216  44.470   8.317
 2601POPC   C3B35541  41.127  44.385   7.869
 2601POPC   C4B35542  41.024  43.983   7.658
 2602POPC   NC335543   1.773  30.122   9.393
 2602POPC   PO435544   1.199  29.869   9.179
 2602POPC   GL135545   1.301  30.198   8.958
 2602POPC   GL235546   1.006  30.420   9.037
 2602POPC   C1A35547   1.425  30.119   8.535
 2602POPC   D2A35548   1.396  29.693   8.354
 2602POPC   C3A35549   1.166  29.667   7.972
 2602POPC   C4A35550   1.298  29.753   7.585
 2602POPC   C1B35551   0.880  30.124   8.679
 2602POPC   C2B35552   0.982  30.040   8.255
 2602POPC   C3B35553   0.991  30.120   7.815
 2602POPC   C4B35554   0.926  30.054   7.403
 2603POPC   NC335555  25.121  15.360   9.516
 2603POPC   PO435556  24.979  14.705   9.420
 2603POPC   GL135557  25.094  14.969   9.069
 2603POPC   GL235558  25.307  15.251   9.064
 2603POPC   C1A35559  25.158  15.019   8.623
 2603POPC   D2A35560  25.511  15.028   8.353
 2603POPC   C3A35561  25.376  14.959   7.945
 2603POPC   C4A35562  25.010  15.165   7.806
 2603POPC   C1B35563  25.490  15.424   8.728
 2603POPC   C2B35564  25.293  15.498   8.363
 2603POPC   C3B35565  25.561  15.438   8.035
 2603POPC   C4B35566  25.345  15.520   7.690
 2604POPC   NC335567  32.317  13.761   9.714
 2604POPC   PO435568  32.164  13.143   9.676
 2604POPC   GL135569  32.183  13.434   9.263
 2604POPC   GL235570  32.038  13.736   9.142
 2604POPC   C1A35571  32.393  13.519   8.820
 2604POPC   D2A35572  32.405  13.801   8.434
 2604POPC   C3A35573  32.487  13.655   8.002
 2604POPC   C4A35574  32.322  13.722   7.615
 2604POPC   C1B35575  31.891  13.431   8.827
 2604POPC   C2B35576  32.004  13.424   8.411
 2604POPC   C3B35577  31.984  13.703   8.075
 2604POPC   C4B35578  31.852  13.590   7.684
 2605POPC   NC335579   7.161  30.245   9.751
 2605POPC   PO435580   7.041  29.859   9.184
 2605POPC   GL135581   7.404  29.956   8.926
 2605POPC   GL235582   7.384  30.258   9.031
 2605POPC   C1A35583   7.627  30.137   8.585
 2605POPC   D2A35584   7.679  29.993   8.190
 2605POPC   C3A35585   7.276  29.903   8.073
 2605POPC   C4A35586   7.343  29.816   7.669
 2605POPC   C1B35587   7.148  30.268   8.624
 2605POPC   C2B35588   7.333  30.384   8.232
 2605POPC   C3B35589   7.393  30.322   7.807
 2605POPC   C4B35590   7.119  30.251   7.454
 2606POPC   NC335591  32.668  33.886   9.590
 2606POPC   PO435592  32.118  33.374   9.464
 2606POPC   GL135593  32.116  33.713   9.108
 2606POPC   GL235594  32.293  34.059   9.153
 2606POPC   C1A35595  32.251  33.848   8.681
 2606POPC   D2A35596  32.455  34.036   8.328
 2606POPC   C3A35597  32.148  33.972   8.015
 2606POPC   C4A35598  31.914  33.673   7.815
 2606POPC   C1B35599  32.697  33.900   8.930
 2606POPC   C2B35600  32.867  33.783   8.508
 2606POPC   C3B35601  32.674  33.630   8.097
 2606POPC   C4B35602  32.452  33.663   7.708
 2607POPC   NC335603   1.046  38.054   9.656
 2607POPC   PO435604   1.503  37.681   9.621
 2607POPC   GL135605   1.552  37.789   9.167
 2607POPC   GL235606   1.224  37.952   9.112
 2607POPC   C1A35607   1.530  37.845   8.691
 2607POPC   D2A35608   1.501  37.704   8.236
 2607POPC   C3A35609   1.310  37.869   7.864
 2607POPC   C4A35610   1.271  37.706   7.435
 2607POPC   C1B35611   1.018  37.856   8.695
 2607POPC   C2B35612   0.961  37.715   8.236
 2607POPC   C3B35613   0.884  37.600   7.782
 2607POPC   C4B35614   0.718  37.661   7.351
 2608POPC   NC335615  10.428  27.368   9.540
 2608POPC   PO435616  10.956  27.831   9.397
 2608POPC   GL135617  10.664  27.609   9.143
 2608POPC   GL235618  10.342  27.760   9.119
 2608POPC   C1A35619  10.575  27.407   8.762
 2608POPC   D2A35620  10.368  27.286   8.373
 2608POPC   C3A35621  10.477  27.517   8.005
 2608POPC   C4A35622  10.663  27.375   7.626
 2608POPC   C1B35623  10.201  27.740   8.700
 2608POPC   C2B35624  10.016  27.622   8.321
 2608POPC   C3B35625   9.972  27.579   7.897
 2608POPC   C4B35626  10.236  27.690   7.593
 2609POPC   NC335627   8.548  32.035  10.018
 2609POPC   PO435628   8.701  32.452   9.534
 2609POPC   GL135629   8.957  32.344   9.171
 2609POPC   GL235630   9.170  32.049   9.237
 2609POPC   C1A35631   8.972  32.422   8.734
 2609POPC   D2A35632   8.737  32.366   8.377
 2609POPC   C3A35633   8.962  32.303   8.020
 2609POPC   C4A35634   8.773  32.103   7.685
 2609POPC   C1B35635   8.988  31.922   8.813
 2609POPC   C2B35636   9.129  31.980   8.397
 2609POPC   C3B35637   9.155  31.846   7.960
 2609POPC   C4B35638   9.340  32.111   7.631
 2610POPC   NC335639  28.137   4.822   9.432
 2610POPC   PO435640  28.511   4.300   9.538
 2610POPC   GL135641  28.350   4.386   9.153
 2610POPC   GL235642  28.498   4.680   9.116
 2610POPC   C1A35643  28.381   4.334   8.707
 2610POPC   D2A35644  28.647   4.351   8.342
 2610POPC   C3A35645  28.443   4.213   7.992
 2610POPC   C4A35646  28.731   3.939   7.774
 2610POPC   C1B35647  28.181   4.798   8.783
 2610POPC   C2B35648  28.309   4.738   8.379
 2610POPC   C3B35649  28.125   4.613   8.010
 2610POPC   C4B35650  28.070   4.823   7.678
 2611POPC   NC335651  42.762  25.246   9.295
 2611POPC   PO435652  43.360  25.344   9.323
 2611POPC   GL135653  43.249  24.950   9.097
 2611POPC   GL235654  42.894  24.815   9.065
 2611POPC   C1A35655  43.172  24.861   8.655
 2611POPC   D2A35656  43.056  24.925   8.250
 2611POPC   C3A35657  43.211  25.324   8.126
 2611POPC   C4A35658  43.453  25.440   7.780
 2611POPC   C1B35659  42.660  25.000   8.690
 2611POPC   C2B35660  42.735  25.366   8.416
 2611POPC   C3B35661  42.731  25.510   7.994
 2611POPC   C4B35662  42.949  25.235   7.699
 2612POPC   NC335663  10.596  11.436   9.549
 2612POPC   PO435664  10.081  11.861   9.561
 2612POPC   GL135665  10.287  11.489   9.174
 2612POPC   GL235666  10.548  11.117   9.171
 2612POPC   C1A35667  10.281  11.267   8.770
 2612POPC   D2A35668  10.070  11.287   8.404
 2612POPC   C3A35669  10.349  11.235   8.082
 2612POPC   C4A35670  10.504  11.589   7.852
 2612POPC   C1B35671  10.793  11.355   8.866
 2612POPC   C2B35672  10.721  11.463   8.439
 2612POPC   C3B35673  10.867  11.265   8.070
 2612POPC   C4B35674  10.930  11.377   7.664
 2613POPC   NC335675   9.592  31.296   9.518
 2613POPC   PO435676   9.940  31.810   9.376
 2613POPC   GL135677   9.622  31.680   9.168
 2613POPC   GL235678   9.799  31.373   9.062
 2613POPC   C1A35679   9.432  31.635   8.801
 2613POPC   D2A35680   9.502  31.418   8.404
 2613POPC   C3A35681   9.592  31.615   7.978
 2613POPC   C4A35682   9.541  31.646   7.495
 2613POPC   C1B35683   9.950  31.597   8.719
 2613POPC   C2B35684  10.002  31.498   8.293
 2613POPC   C3B35685   9.806  31.166   8.051
 2613POPC   C4B35686   9.923  31.336   7.684
 2614POPC   NC335687  14.403  15.409   9.472
 2614POPC   PO435688  14.540  16.071   9.515
 2614POPC   GL135689  14.197  15.980   9.170
 2614POPC   GL235690  14.179  15.617   9.066
 2614POPC   C1A35691  14.085  15.939   8.710
 2614POPC   D2A35692  14.278  15.985   8.319
 2614POPC   C3A35693  14.218  16.199   7.940
 2614POPC   C4A35694  14.097  15.864   7.708
 2614POPC   C1B35695  14.557  15.744   8.842
 2614POPC   C2B35696  14.761  15.889   8.424
 2614POPC   C3B35697  14.636  15.851   7.967
 2614POPC   C4B35698  14.639  15.526   7.629
 2615POPC   NC335699  19.669   7.136   9.546
 2615POPC   PO435700  19.898   7.750   9.428
 2615POPC   GL135701  19.878   7.480   9.087
 2615POPC   GL235702  19.690   7.157   9.048
 2615POPC   C1A35703  19.688   7.511   8.680
 2615POPC   D2A35704  19.550   7.702   8.288
 2615POPC   C3A35705  19.749   7.494   7.934
 2615POPC   C4A35706  19.725   7.586   7.498
 2615POPC   C1B35707  20.038   7.130   8.761
 2615POPC   C2B35708  19.976   7.216   8.339
 2615POPC   C3B35709  19.978   7.025   7.946
 2615POPC   C4B35710  19.930   7.134   7.514
 2616POPC   NC335711  34.057  13.546   9.478
 2616POPC   PO435712  33.474  13.880   9.393
 2616POPC   GL135713  33.791  13.713   9.083
 2616POPC   GL235714  33.573  13.511   8.996
 2616POPC   C1A35715  33.971  13.411   8.705
 2616POPC   D2A35716  34.206  13.350   8.255
 2616POPC   C3A35717  34.102  13.598   7.833
 2616POPC   C4A35718  33.948  13.510   7.401
 2616POPC   C1B35719  33.655  13.777   8.602
 2616POPC   C2B35720  33.721  13.597   8.177
 2616POPC   C3B35721  33.589  13.778   7.752
 2616POPC   C4B35722  33.598  13.887   7.259
 2617POPC   NC335723  40.092  26.511   9.358
 2617POPC   PO435724  39.965  25.845   9.532
 2617POPC   GL135725  39.952  26.053   9.172
 2617POPC   GL235726  40.323  26.113   9.161
 2617POPC   C1A35727  40.021  26.109   8.750
 2617POPC   D2A35728  40.056  25.857   8.434
 2617POPC   C3A35729  40.006  26.095   8.065
 2617POPC   C4A35730  40.048  25.925   7.690
 2617POPC   C1B35731  40.443  26.379   8.808
 2617POPC   C2B35732  40.438  26.183   8.433
 2617POPC   C3B35733  40.488  26.262   8.049
 2617POPC   C4B35734  40.362  26.373   7.670
 2618POPC   NC335735   7.388  20.141   9.540
 2618POPC   PO435736   7.806  20.721   9.692
 2618POPC   GL135737   7.661  20.586   9.270
 2618POPC   GL235738   7.810  20.274   9.179
 2618POPC   C1A35739   7.398  20.687   8.885
 2618POPC   D2A35740   7.514  20.702   8.445
 2618POPC   C3A35741   7.273  20.580   8.110
 2618POPC   C4A35742   7.315  20.698   7.692
 2618POPC   C1B35743   7.560  20.203   8.814
 2618POPC   C2B35744   7.553  20.175   8.356
 2618POPC   C3B35745   7.634  20.255   7.931
 2618POPC   C4B35746   7.807  20.250   7.543
 2619POPC   NC335747  17.409   1.453   9.551
 2619POPC   PO435748  17.902   0.938   9.478
 2619POPC   GL135749  17.486   1.135   9.158
 2619POPC   GL235750  17.140   1.407   9.138
 2619POPC   C1A35751  17.190   1.029   8.817
 2619POPC   D2A35752  17.312   1.236   8.441
 2619POPC   C3A35753  17.237   1.056   8.040
 2619POPC   C4A35754  17.444   1.241   7.672
 2619POPC   C1B35755  17.313   1.639   8.820
 2619POPC   C2B35756  17.266   1.756   8.431
 2619POPC   C3B35757  17.416   1.581   8.065
 2619POPC   C4B35758  17.423   1.772   7.693
 2620POPC   NC335759  18.740   4.979   9.476
 2620POPC   PO435760  19.251   5.409   9.552
 2620POPC   GL135761  19.167   5.304   9.109
 2620POPC   GL235762  18.873   5.522   9.047
 2620POPC   C1A35763  19.293   4.992   8.739
 2620POPC   D2A35764  19.179   4.735   8.360
 2620POPC   C3A35765  19.040   5.014   8.026
 2620POPC   C4A35766  18.976   5.324   7.700
 2620POPC   C1B35767  18.807   5.117   8.802
 2620POPC   C2B35768  18.681   4.831   8.489
 2620POPC   C3B35769  18.548   4.850   8.066
 2620POPC   C4B35770  18.705   4.897   7.656
 2621POPC   NC335771  13.713   2.460   9.753
 2621POPC   PO435772  13.153   2.795   9.645
 2621POPC   GL135773  13.419   2.666   9.300
 2621POPC   GL235774  13.725   2.517   9.208
 2621POPC   C1A35775  13.428   2.724   8.859
 2621POPC   D2A35776  13.350   2.852   8.460
 2621POPC   C3A35777  13.584   2.720   8.102
 2621POPC   C4A35778  13.394   2.714   7.714
 2621POPC   C1B35779  13.918   2.527   8.786
 2621POPC   C2B35780  13.857   2.330   8.379
 2621POPC   C3B35781  14.009   2.441   7.966
 2621POPC   C4B35782  13.894   2.674   7.632
 2622POPC   NC335783  40.139  39.918   9.585
 2622POPC   PO435784  39.553  39.798   9.447
 2622POPC   GL135785  39.742  40.142   9.174
 2622POPC   GL235786  40.084  40.296   9.241
 2622POPC   C1A35787  39.816  40.061   8.757
 2622POPC   D2A35788  39.623  39.989   8.378
 2622POPC   C3A35789  39.848  40.070   8.016
 2622POPC   C4A35790  39.996  39.777   7.720
 2622POPC   C1B35791  40.302  40.166   8.852
 2622POPC   C2B35792  40.198  40.051   8.405
 2622POPC   C3B35793  40.371  40.138   7.975
 2622POPC   C4B35794  40.217  40.211   7.566
 2623POPC   NC335795  10.832   0.923   9.761
 2623POPC   PO435796  11.351   1.329   9.506
 2623POPC   GL135797  11.414   1.135   9.142
 2623POPC   GL235798  11.647   1.368   9.054
 2623POPC   C1A35799  11.340   1.187   8.711
 2623POPC   D2A35800  11.482   1.122   8.341
 2623POPC   C3A35801  11.253   1.161   7.973
 2623POPC   C4A35802  10.983   0.886   7.723
 2623POPC   C1B35803  11.653   1.598   8.655
 2623POPC   C2B35804  11.621   1.573   8.212
 2623POPC   C3B35805  11.568   1.531   7.815
 2623POPC   C4B35806  11.650   1.700   7.457
 2624POPC   NC335807  12.205  11.201   9.418
 2624POPC   PO435808  11.765  11.694   9.482
 2624POPC   GL135809  11.898  11.479   9.108
 2624POPC   GL235810  11.757  11.109   9.097
 2624POPC   C1A35811  12.196  11.474   8.718
 2624POPC   D2A35812  12.336  11.184   8.346
 2624POPC   C3A35813  12.193  11.193   7.892
 2624POPC   C4A35814  11.886  10.961   7.561
 2624POPC   C1B35815  11.718  11.305   8.682
 2624POPC   C2B35816  11.895  11.479   8.297
 2624POPC   C3B35817  11.711  11.330   7.930
 2624POPC   C4B35818  11.890  11.459   7.540
 2625POPC   NC335819  34.638  40.138   9.468
 2625POPC   PO435820  34.338  39.613   9.199
 2625POPC   GL135821  34.688  39.801   8.964
 2625POPC   GL235822  34.876  40.138   9.025
 2625POPC   C1A35823  34.596  40.088   8.611
 2625POPC   D2A35824  34.623  40.224   8.192
 2625POPC   C3A35825  34.468  39.961   7.889
 2625POPC   C4A35826  34.263  40.308   7.732
 2625POPC   C1B35827  35.114  40.031   8.669
 2625POPC   C2B35828  35.088  40.057   8.242
 2625POPC   C3B35829  34.992  40.058   7.816
 2625POPC   C4B35830  35.118  39.951   7.366
 2626POPC   NC335831  19.109   0.874   9.805
 2626POPC   PO435832  19.390   0.446   9.378
 2626POPC   GL135833  19.060   0.482   9.116
 2626POPC   GL235834  18.934   0.797   9.107
 2626POPC   C1A35835  19.022   0.239   8.759
 2626POPC   D2A35836  19.304   0.316   8.424
 2626POPC   C3A35837  19.114   0.114   8.057
 2626POPC   C4A35838  19.019   0.343   7.700
 2626POPC   C1B35839  19.079   0.766   8.682
 2626POPC   C2B35840  19.344   0.948   8.365
 2626POPC   C3B35841  19.297   1.030   7.923
 2626POPC   C4B35842  18.935   0.841   7.673
 2627POPC   NC335843  38.000  32.399   9.374
 2627POPC   PO435844  38.362  31.916   9.425
 2627POPC   GL135845  38.360  32.185   9.084
 2627POPC   GL235846  38.542  32.477   9.179
 2627POPC   C1A35847  38.378  32.277   8.661
 2627POPC   D2A35848  38.539  32.136   8.291
 2627POPC   C3A35849  38.392  32.350   7.935
 2627POPC   C4A35850  38.118  32.250   7.620
 2627POPC   C1B35851  38.825  32.479   8.819
 2627POPC   C2B35852  38.774  32.576   8.362
 2627POPC   C3B35853  38.896  32.462   7.929
 2627POPC   C4B35854  38.711  32.373   7.485
 2628POPC   NC335855  37.334  18.442   9.438
 2628POPC   PO435856  37.861  18.022   9.546
 2628POPC   GL135857  37.828  18.048   9.115
 2628POPC   GL235858  37.582  18.321   9.014
 2628POPC   C1A35859  37.989  18.223   8.724
 2628POPC   D2A35860  37.680  18.401   8.457
 2628POPC   C3A35861  37.691  18.485   8.049
 2628POPC   C4A35862  37.802  18.353   7.641
 2628POPC   C1B35863  37.477  17.999   8.712
 2628POPC   C2B35864  37.297  17.974   8.288
 2628POPC   C3B35865  37.463  18.042   7.873
 2628POPC   C4B35866  37.404  18.157   7.428
 2629POPC   NC335867  25.943   8.289   9.430
 2629POPC   PO435868  26.494   8.536   9.470
 2629POPC   GL135869  26.347   8.291   9.078
 2629POPC   GL235870  26.109   7.998   9.056
 2629POPC   C1A35871  26.323   8.149   8.626
 2629POPC   D2A35872  26.045   8.149   8.260
 2629POPC   C3A35873  26.178   8.277   7.821
 2629POPC   C4A35874  26.259   8.350   7.351
 2629POPC   C1B35875  25.780   8.083   8.730
 2629POPC   C2B35876  25.506   8.160   8.350
 2629POPC   C3B35877  25.671   8.192   7.912
 2629POPC   C4B35878  25.759   8.110   7.477
 2630POPC   NC335879  35.983  17.134   9.534
 2630POPC   PO435880  36.413  17.768   9.702
 2630POPC   GL135881  36.167  17.812   9.197
 2630POPC   GL235882  35.881  17.548   9.139
 2630POPC   C1A35883  36.225  17.626   8.770
 2630POPC   D2A35884  35.994  17.602   8.385
 2630POPC   C3A35885  36.199  17.676   8.011
 2630POPC   C4A35886  35.896  17.654   7.666
 2630POPC   C1B35887  35.772  17.322   8.750
 2630POPC   C2B35888  35.890  17.070   8.419
 2630POPC   C3B35889  35.944  17.220   8.014
 2630POPC   C4B35890  36.265  17.271   7.717
 2631POPC   NC335891  29.644  40.897   9.490
 2631POPC   PO435892  30.154  40.469   9.428
 2631POPC   GL135893  29.901  40.591   9.098
 2631POPC   GL235894  29.987  40.930   9.114
 2631POPC   C1A35895  29.883  40.763   8.653
 2631POPC   D2A35896  29.958  40.626   8.243
 2631POPC   C3A35897  29.934  40.958   7.979
 2631POPC   C4A35898  29.696  40.981   7.614
 2631POPC   C1B35899  30.285  41.044   8.778
 2631POPC   C2B35900  30.342  40.924   8.340
 2631POPC   C3B35901  30.472  41.120   7.936
 2631POPC   C4B35902  30.493  41.316   7.518
 2632POPC   NC335903   9.085  32.916   9.485
 2632POPC   PO435904   8.411  33.127   9.567
 2632POPC   GL135905   8.754  33.164   9.153
 2632POPC   GL235906   8.895  32.840   9.027
 2632POPC   C1A35907   8.963  33.191   8.669
 2632POPC   D2A35908   9.024  32.861   8.312
 2632POPC   C3A35909   9.121  33.064   7.899
 2632POPC   C4A35910   9.013  33.415   7.642
 2632POPC   C1B35911   8.623  32.803   8.662
 2632POPC   C2B35912   8.468  32.783   8.232
 2632POPC   C3B35913   8.729  32.724   7.874
 2632POPC   C4B35914   9.077  32.641   7.610
 2633POPC   NC335915  29.182  15.954   9.666
 2633POPC   PO435916  29.194  15.293   9.614
 2633POPC   GL135917  29.266  15.678   9.253
 2633POPC   GL235918  29.015  15.984   9.189
 2633POPC   C1A35919  29.125  15.700   8.777
 2633POPC   D2A35920  28.847  15.982   8.478
 2633POPC   C3A35921  28.941  15.936   8.042
 2633POPC   C4A35922  29.329  15.825   7.813
 2633POPC   C1B35923  29.174  16.199   8.807
 2633POPC   C2B35924  29.361  16.117   8.394
 2633POPC   C3B35925  29.293  16.312   8.006
 2633POPC   C4B35926  28.966  16.517   7.811
 2634POPC   NC335927   3.455  42.012   9.440
 2634POPC   PO435928   3.353  42.611   9.506
 2634POPC   GL135929   3.544  42.420   9.124
 2634POPC   GL235930   3.701  42.129   9.016
 2634POPC   C1A35931   3.380  42.448   8.712
 2634POPC   D2A35932   3.276  42.265   8.319
 2634POPC   C3A35933   3.347  42.517   7.970
 2634POPC   C4A35934   3.811  42.624   7.913
 2634POPC   C1B35935   3.515  41.955   8.690
 2634POPC   C2B35936   3.691  41.958   8.313
 2634POPC   C3B35937   3.673  42.102   7.909
 2634POPC   C4B35938   3.764  41.904   7.494
 2635POPC   NC335939  10.776   9.977   9.498
 2635POPC   PO435940  10.242   9.506   9.553
 2635POPC   GL135941  10.496   9.654   9.203
 2635POPC   GL235942  10.411  10.016   9.117
 2635POPC   C1A35943  10.751   9.782   8.836
 2635POPC   D2A35944  10.908   9.686   8.423
 2635POPC   C3A35945  10.663   9.745   8.070
 2635POPC   C4A35946  10.798   9.821   7.619
 2635POPC   C1B35947  10.565  10.254   8.748
 2635POPC   C2B35948  10.837  10.247   8.374
 2635POPC   C3B35949  10.684  10.235   7.956
 2635POPC   C4B35950  10.339   9.962   7.748
 2636POPC   NC335951   2.907  42.516   9.600
 2636POPC   PO435952   2.242  42.680   9.435
 2636POPC   GL135953   2.635  42.505   9.173
 2636POPC   GL235954   3.031  42.393   9.133
 2636POPC   C1A35955   2.757  42.579   8.759
 2636POPC   D2A35956   2.512  42.603   8.404
 2636POPC   C3A35957   2.779  42.616   8.066
 2636POPC   C4A35958   2.621  42.534   7.677
 2636POPC   C1B35959   3.012  42.121   8.779
 2636POPC   C2B35960   2.792  42.186   8.411
 2636POPC   C3B35961   2.889  42.122   8.003
 2636POPC   C4B35962   2.993  42.137   7.591
 2637POPC   NC335963  35.940  19.338   9.513
 2637POPC   PO435964  36.109  20.040   9.517
 2637POPC   GL135965  36.033  19.849   9.138
 2637POPC   GL235966  36.234  19.597   9.121
 2637POPC   C1A35967  36.230  19.924   8.718
 2637POPC   D2A35968  36.239  20.131   8.325
 2637POPC   C3A35969  35.870  19.991   8.134
 2637POPC   C4A35970  35.767  19.633   7.889
 2637POPC   C1B35971  36.463  19.444   8.756
 2637POPC   C2B35972  36.528  19.552   8.330
 2637POPC   C3B35973  36.443  19.781   7.961
 2637POPC   C4B35974  36.245  20.160   7.805
 2638POPC   NC335975  41.954  12.327   9.554
 2638POPC   PO435976  41.362  12.095   9.516
 2638POPC   GL135977  41.492  12.137   9.107
 2638POPC   GL235978  41.801  11.997   9.171
 2638POPC   C1A35979  41.345  11.919   8.734
 2638POPC   D2A35980  41.203  12.065   8.331
 2638POPC   C3A35981  41.433  12.012   7.984
 2638POPC   C4A35982  41.424  12.272   7.675
 2638POPC   C1B35983  41.918  11.918   8.752
 2638POPC   C2B35984  42.022  12.096   8.345
 2638POPC   C3B35985  41.892  12.231   7.938
 2638POPC   C4B35986  41.797  11.914   7.609
 2639POPC   NC335987   1.110  19.728   9.557
 2639POPC   PO435988   1.547  20.007   9.127
 2639POPC   GL135989   1.302  19.647   9.040
 2639POPC   GL235990   0.890  19.591   9.135
 2639POPC   C1A35991   1.381  19.665   8.577
 2639POPC   D2A35992   1.674  19.833   8.296
 2639POPC   C3A35993   1.412  20.085   8.047
 2639POPC   C4A35994   1.218  19.840   7.741
 2639POPC   C1B35995   0.883  19.616   8.719
 2639POPC   C2B35996   0.952  19.806   8.319
 2639POPC   C3B35997   0.844  19.580   7.969
 2639POPC   C4B35998   0.678  19.609   7.576
 2640POPC   NC335999  22.571  26.360   9.666
 2640POPC   PO436000  22.564  25.729   9.806
 2640POPC   GL136001  22.788  25.999   9.385
 2640POPC   GL236002  23.164  26.093   9.276
 2640POPC   C1A36003  22.799  26.061   8.933
 2640POPC   D2A36004  22.920  26.127   8.505
 2640POPC   C3A36005  22.758  25.974   8.120
 2640POPC   C4A36006  22.783  26.030   7.676
 2640POPC   C1B36007  23.246  26.324   8.853
 2640POPC   C2B36008  23.351  26.363   8.396
 2640POPC   C3B36009  23.164  26.320   7.961
 2640POPC   C4B36010  23.273  26.390   7.499
 2641POPC   NC336011  17.611   3.794   9.430
 2641POPC   PO436012  17.842   3.231   9.475
 2641POPC   GL136013  17.592   3.362   9.118
 2641POPC   GL236014  17.405   3.632   8.948
 2641POPC   C1A36015  17.660   3.273   8.717
 2641POPC   D2A36016  17.543   3.595   8.419
 2641POPC   C3A36017  17.612   3.447   8.018
 2641POPC   C4A36018  17.375   3.580   7.693
 2641POPC   C1B36019  17.841   3.754   8.808
 2641POPC   C2B36020  18.008   3.907   8.417
 2641POPC   C3B36021  17.817   3.981   8.017
 2641POPC   C4B36022  17.967   3.954   7.612
 2642POPC   NC336023  40.810  42.980   9.441
 2642POPC   PO436024  40.752  43.577   9.690
 2642POPC   GL136025  40.731  43.454   9.221
 2642POPC   GL236026  41.015  43.497   9.038
 2642POPC   C1A36027  40.539  43.130   8.882
 2642POPC   D2A36028  40.229  43.093   8.531
 2642POPC   C3A36029  40.434  43.251   8.168
 2642POPC   C4A36030  40.658  43.199   7.796
 2642POPC   C1B36031  41.014  43.270   8.704
 2642POPC   C2B36032  40.927  43.399   8.316
 2642POPC   C3B36033  41.109  43.364   7.948
 2642POPC   C4B36034  41.114  42.960   7.757
 2643POPC   NC336035   8.640  10.852   9.152
 2643POPC   PO436036   9.126  11.320   9.447
 2643POPC   GL136037   8.972  11.319   9.046
 2643POPC   GL236038   8.832  11.647   8.892
 2643POPC   C1A36039   8.850  11.216   8.638
 2643POPC   D2A36040   8.885  10.935   8.314
 2643POPC   C3A36041   8.986  11.094   7.936
 2643POPC   C4A36042   8.684  11.347   7.744
 2643POPC   C1B36043   9.227  11.646   8.763
 2643POPC   C2B36044   9.125  11.581   8.383
 2643POPC   C3B36045   9.175  11.827   8.065
 2643POPC   C4B36046   9.206  11.526   7.729
 2644POPC   NC336047  20.370  43.131   9.450
 2644POPC   PO436048  21.008  42.962   9.738
 2644POPC   GL136049  20.888  43.087   9.292
 2644POPC   GL236050  20.701  42.827   9.179
 2644POPC   C1A36051  20.679  43.262   8.860
 2644POPC   D2A36052  20.298  43.262   8.577
 2644POPC   C3A36053  20.484  43.200   8.164
 2644POPC   C4A36054  20.902  43.379   8.002
 2644POPC   C1B36055  20.863  42.794   8.805
 2644POPC   C2B36056  20.879  43.029   8.431
 2644POPC   C3B36057  20.874  42.875   7.997
 2644POPC   C4B36058  21.054  43.036   7.605
 2645POPC   NC336059   9.870  43.445   9.459
 2645POPC   PO436060   9.600  42.801   9.402
 2645POPC   GL136061   9.657  43.111   9.113
 2645POPC   GL236062   9.995  43.134   9.030
 2645POPC   C1A36063   9.555  43.002   8.730
 2645POPC   D2A36064   9.856  42.849   8.474
 2645POPC   C3A36065   9.761  42.871   8.061
 2645POPC   C4A36066   9.664  43.007   7.653
 2645POPC   C1B36067   9.828  43.439   8.745
 2645POPC   C2B36068   9.658  43.330   8.354
 2645POPC   C3B36069   9.853  43.368   7.979
 2645POPC   C4B36070   9.804  43.498   7.585
 2646POPC   NC336071  24.510  16.515   9.442
 2646POPC   PO436072  23.943  16.815   9.369
 2646POPC   GL136073  24.253  16.796   9.003
 2646POPC   GL236074  24.583  16.641   8.972
 2646POPC   C1A36075  24.330  16.713   8.542
 2646POPC   D2A36076  24.159  16.526   8.166
 2646POPC   C3A36077  24.196  16.850   7.862
 2646POPC   C4A36078  24.541  17.157   7.852
 2646POPC   C1B36079  24.784  16.453   8.636
 2646POPC   C2B36080  24.755  16.580   8.227
 2646POPC   C3B36081  24.621  16.593   7.823
 2646POPC   C4B36082  24.781  16.695   7.392
 2647POPC   NC336083  38.971  20.366   9.523
 2647POPC   PO436084  39.411  20.902   9.544
 2647POPC   GL136085  39.112  20.803   9.262
 2647POPC   GL236086  39.268  20.506   9.137
 2647POPC   C1A36087  39.103  20.885   8.835
 2647POPC   D2A36088  39.319  21.064   8.483
 2647POPC   C3A36089  39.232  20.814   8.156
 2647POPC   C4A36090  39.064  20.877   7.784
 2647POPC   C1B36091  39.074  20.381   8.734
 2647POPC   C2B36092  39.151  20.326   8.283
 2647POPC   C3B36093  39.174  20.378   7.838
 2647POPC   C4B36094  39.461  20.319   7.480
 2648POPC   NC336095  21.255  18.481   9.631
 2648POPC   PO436096  21.918  18.539   9.574
 2648POPC   GL136097  21.662  18.311   9.268
 2648POPC   GL236098  21.340  18.377   9.140
 2648POPC   C1A36099  21.731  18.296   8.810
 2648POPC   D2A36100  21.688  18.504   8.404
 2648POPC   C3A36101  21.768  18.325   8.015
 2648POPC   C4A36102  21.492  18.219   7.688
 2648POPC   C1B36103  21.255  18.195   8.706
 2648POPC   C2B36104  21.395  18.048   8.282
 2648POPC   C3B36105  21.107  18.019   7.916
 2648POPC   C4B36106  20.966  18.389   7.651
 2649POPC   NC336107   1.221  42.044   9.680
 2649POPC   PO436108   1.124  41.411   9.512
 2649POPC   GL136109   1.287  41.517   9.149
 2649POPC   GL236110   1.524  41.791   9.306
 2649POPC   C1A36111   1.407  41.299   8.735
 2649POPC   D2A36112   1.514  41.397   8.283
 2649POPC   C3A36113   1.332  41.404   7.835
 2649POPC   C4A36114   1.018  41.735   7.629
 2649POPC   C1B36115   1.591  41.770   8.856
 2649POPC   C2B36116   1.286  41.808   8.520
 2649POPC   C3B36117   1.239  41.844   8.088
 2649POPC   C4B36118   1.491  41.876   7.715
 2650POPC   NC336119   0.495  43.293   9.545
 2650POPC   PO436120   0.300  42.710   9.329
 2650POPC   GL136121   0.422  43.079   9.095
 2650POPC   GL236122   0.160  43.306   9.152
 2650POPC   C1A36123   0.607  43.164   8.688
 2650POPC   D2A36124   0.709  42.937   8.323
 2650POPC   C3A36125   0.483  43.052   7.950
 2650POPC   C4A36126   0.683  42.965   7.561
 2650POPC   C1B36127   0.210  43.469   8.767
 2650POPC   C2B36128   0.169  43.320   8.367
 2650POPC   C3B36129   0.101  43.481   7.996
 2650POPC   C4B36130   0.119  43.656   7.597
 2651POPC   NC336131  21.892   6.420   9.430
 2651POPC   PO436132  22.368   6.842   9.569
 2651POPC   GL136133  22.252   6.709   9.129
 2651POPC   GL236134  21.926   6.799   9.056
 2651POPC   C1A36135  22.209   6.641   8.633
 2651POPC   D2A36136  22.471   6.461   8.291
 2651POPC   C3A36137  22.373   6.500   7.834
 2651POPC   C4A36138  22.387   6.730   7.416
 2651POPC   C1B36139  21.765   6.428   8.812
 2651POPC   C2B36140  21.975   6.186   8.548
 2651POPC   C3B36141  21.867   6.487   8.244
 2651POPC   C4B36142  21.864   6.509   7.806
 2652POPC   NC336143  42.830   6.218   9.371
 2652POPC   PO436144  43.449   6.576   9.496
 2652POPC   GL136145  43.260   6.684   9.124
 2652POPC   GL236146  42.966   6.523   8.979
 2652POPC   C1A36147  43.329   6.792   8.730
 2652POPC   D2A36148  43.058   6.614   8.450
 2652POPC   C3A36149  43.232   6.583   8.071
 2652POPC   C4A36150  43.095   6.763   7.733
 2652POPC   C1B36151  42.887   6.176   8.665
 2652POPC   C2B36152  42.963   6.141   8.194
 2652POPC   C3B36153  42.992   6.258   7.733
 2652POPC   C4B36154  42.756   6.516   7.395
 2653POPC   NC336155  19.124  13.115   9.495
 2653POPC   PO436156  18.812  12.450   9.511
 2653POPC   GL136157  19.067  12.679   9.163
 2653POPC   GL236158  18.951  13.009   8.975
 2653POPC   C1A36159  19.396  12.844   8.857
 2653POPC   D2A36160  19.319  13.114   8.499
 2653POPC   C3A36161  19.236  12.848   8.134
 2653POPC   C4A36162  19.290  12.986   7.708
 2653POPC   C1B36163  18.965  12.752   8.596
 2653POPC   C2B36164  18.731  12.737   8.227
 2653POPC   C3B36165  18.803  13.001   7.900
 2653POPC   C4B36166  18.846  12.922   7.482
 2654POPC   NC336167  31.520  36.757   9.633
 2654POPC   PO436168  31.549  36.050   9.503
 2654POPC   GL136169  31.571  36.143   9.113
 2654POPC   GL236170  31.791  36.434   9.048
 2654POPC   C1A36171  31.273  36.100   8.753
 2654POPC   D2A36172  31.233  36.288   8.363
 2654POPC   C3A36173  31.262  36.015   7.983
 2654POPC   C4A36174  31.243  36.153   7.566
 2654POPC   C1B36175  31.778  36.165   8.659
 2654POPC   C2B36176  31.691  36.121   8.233
 2654POPC   C3B36177  31.734  36.148   7.807
 2654POPC   C4B36178  31.852  36.265   7.388
 2655POPC   NC336179  33.292  10.320   9.584
 2655POPC   PO436180  32.906  10.840   9.425
 2655POPC   GL136181  33.030  10.510   9.172
 2655POPC   GL236182  33.390  10.455   9.105
 2655POPC   C1A36183  32.952  10.321   8.781
 2655POPC   D2A36184  32.763  10.277   8.365
 2655POPC   C3A36185  32.965  10.478   8.030
 2655POPC   C4A36186  32.851  10.483   7.623
 2655POPC   C1B36187  33.461  10.199   8.737
 2655POPC   C2B36188  33.283  10.147   8.309
 2655POPC   C3B36189  33.278  10.116   7.832
 2655POPC   C4B36190  33.152  10.169   7.386
 2656POPC   NC336191  17.684  34.951   9.379
 2656POPC   PO436192  17.367  35.571   9.498
 2656POPC   GL136193  17.589  35.405   9.123
 2656POPC   GL236194  17.244  35.350   9.022
 2656POPC   C1A36195  17.840  35.400   8.710
 2656POPC   D2A36196  17.685  35.208   8.314
 2656POPC   C3A36197  17.588  35.340   7.876
 2656POPC   C4A36198  17.477  35.352   7.416
 2656POPC   C1B36199  17.341  35.494   8.603
 2656POPC   C2B36200  17.248  35.579   8.167
 2656POPC   C3B36201  17.286  35.741   7.742
 2656POPC   C4B36202  17.341  35.840   7.306
 2657POPC   NC336203  32.817  40.939   9.487
 2657POPC   PO436204  33.249  40.432   9.633
 2657POPC   GL136205  33.086  40.547   9.183
 2657POPC   GL236206  32.953  40.838   9.020
 2657POPC   C1A36207  33.305  40.675   8.732
 2657POPC   D2A36208  33.155  41.030   8.492
 2657POPC   C3A36209  33.315  41.106   8.077
 2657POPC   C4A36210  33.127  40.992   7.675
 2657POPC   C1B36211  32.874  40.408   8.755
 2657POPC   C2B36212  33.005  40.396   8.351
 2657POPC   C3B36213  32.957  40.710   8.060
 2657POPC   C4B36214  32.685  41.074   8.084
 2658POPC   NC336215  37.628  37.336   9.461
 2658POPC   PO436216  37.701  36.605   9.526
 2658POPC   GL136217  37.668  36.814   9.112
 2658POPC   GL236218  37.399  37.074   9.073
 2658POPC   C1A36219  37.783  36.621   8.703
 2658POPC   D2A36220  37.550  36.489   8.319
 2658POPC   C3A36221  37.771  36.612   7.935
 2658POPC   C4A36222  37.833  37.021   7.750
 2658POPC   C1B36223  37.417  36.994   8.625
 2658POPC   C2B36224  37.549  37.011   8.183
 2658POPC   C3B36225  37.363  36.861   7.730
 2658POPC   C4B36226  37.283  37.084   7.291
 2659POPC   NC336227  33.149  30.455   9.492
 2659POPC   PO436228  32.929  31.124   9.505
 2659POPC   GL136229  32.898  30.826   9.175
 2659POPC   GL236230  33.243  30.709   9.077
 2659POPC   C1A36231  32.949  30.929   8.730
 2659POPC   D2A36232  33.233  30.742   8.455
 2659POPC   C3A36233  33.098  30.785   8.081
 2659POPC   C4A36234  32.904  30.938   7.737
 2659POPC   C1B36235  33.062  30.406   8.790
 2659POPC   C2B36236  33.126  30.243   8.342
 2659POPC   C3B36237  33.128  30.331   7.879
 2659POPC   C4B36238  33.033  30.410   7.424
 2660POPC   NC336239  30.775  11.691   9.568
 2660POPC   PO436240  30.457  11.064   9.660
 2660POPC   GL136241  30.585  11.121   9.257
 2660POPC   GL236242  30.377  10.793   9.208
 2660POPC   C1A36243  30.777  11.407   8.910
 2660POPC   D2A36244  30.695  11.649   8.501
 2660POPC   C3A36245  30.760  11.471   8.103
 2660POPC   C4A36246  30.635  11.496   7.683
 2660POPC   C1B36247  30.453  10.983   8.797
 2660POPC   C2B36248  30.626  11.089   8.417
 2660POPC   C3B36249  30.404  11.116   8.009
 2660POPC   C4B36250  30.246  11.142   7.598
 2661POPC   NC336251  20.058  43.769   9.462
 2661POPC   PO436252  19.447  44.083   9.344
 2661POPC   GL136253  19.613  43.663   9.121
 2661POPC   GL236254  19.880  43.849   8.988
 2661POPC   C1A36255  19.820  43.469   8.697
 2661POPC   D2A36256  19.946  43.819   8.437
 2661POPC   C3A36257  20.007  43.816   8.042
 2661POPC   C4A36258  19.722  43.674   7.789
 2661POPC   C1B36259  19.595  44.098   8.686
 2661POPC   C2B36260  19.738  44.278   8.273
 2661POPC   C3B36261  19.772  44.208   7.833
 2661POPC   C4B36262  19.986  44.337   7.451
 2662POPC   NC336263  44.325  18.022   9.480
 2662POPC   PO436264  44.852  18.367   9.405
 2662POPC   GL136265  44.816  18.373   9.011
 2662POPC   GL236266  44.924  18.678   8.896
 2662POPC   C1A36267  44.896  18.116   8.664
 2662POPC   D2A36268   0.170  18.030   8.284
 2662POPC   C3A36269  44.964  18.142   7.878
 2662POPC   C4A36270  44.719  17.929   7.551
 2662POPC   C1B36271  44.576  18.545   8.599
 2662POPC   C2B36272  44.420  18.237   8.282
 2662POPC   C3B36273  44.455  18.318   7.829
 2662POPC   C4B36274  44.705  18.439   7.464
 2663POPC   NC336275   9.211  18.915   9.591
 2663POPC   PO436276   8.633  19.188   9.533
 2663POPC   GL136277   8.826  19.252   9.151
 2663POPC   GL236278   9.207  19.262   9.217
 2663POPC   C1A36279   8.672  19.113   8.728
 2663POPC   D2A36280   8.664  18.781   8.403
 2663POPC   C3A36281   8.570  18.825   8.017
 2663POPC   C4A36282   8.783  19.071   7.701
 2663POPC   C1B36283   9.139  18.973   8.870
 2663POPC   C2B36284   9.165  18.834   8.472
 2663POPC   C3B36285   9.184  19.008   8.074
 2663POPC   C4B36286   9.285  18.833   7.672
 2664POPC   NC336287   5.779  10.231   9.520
 2664POPC   PO436288   6.083   9.633   9.619
 2664POPC   GL136289   5.956   9.833   9.224
 2664POPC   GL236290   6.205  10.034   9.057
 2664POPC   C1A36291   5.726  10.004   8.837
 2664POPC   D2A36292   5.694   9.736   8.437
 2664POPC   C3A36293   5.715   9.781   7.990
 2664POPC   C4A36294   5.590   9.429   7.737
 2664POPC   C1B36295   6.132   9.719   8.726
 2664POPC   C2B36296   6.265   9.546   8.344
 2664POPC   C3B36297   6.102   9.412   7.954
 2664POPC   C4B36298   6.089   9.650   7.613
 2665POPC   NC336299  21.107  24.145   9.282
 2665POPC   PO436300  21.571  24.416   9.718
 2665POPC   GL136301  21.506  24.456   9.220
 2665POPC   GL236302  21.633  24.165   9.051
 2665POPC   C1A36303  21.283  24.515   8.760
 2665POPC   D2A36304  21.181  24.237   8.350
 2665POPC   C3A36305  21.276  24.398   7.889
 2665POPC   C4A36306  21.194  24.752   7.612
 2665POPC   C1B36307  21.691  24.254   8.651
 2665POPC   C2B36308  21.644  24.449   8.262
 2665POPC   C3B36309  21.783  24.240   7.896
 2665POPC   C4B36310  21.721  24.166   7.455
 2666POPC   NC336311  14.614  20.831   9.295
 2666POPC   PO436312  15.276  20.604   9.438
 2666POPC   GL136313  15.121  20.784   9.081
 2666POPC   GL236314  15.019  20.487   9.011
 2666POPC   C1A36315  15.240  20.732   8.631
 2666POPC   D2A36316  15.345  20.871   8.230
 2666POPC   C3A36317  15.364  20.642   7.857
 2666POPC   C4A36318  15.481  20.468   7.431
 2666POPC   C1B36319  14.903  20.355   8.626
 2666POPC   C2B36320  14.828  20.605   8.297
 2666POPC   C3B36321  14.839  20.753   7.916
 2666POPC   C4B36322  14.970  20.526   7.556
 2667POPC   NC336323   9.242  13.895   9.456
 2667POPC   PO436324   8.581  13.880   9.419
 2667POPC   GL136325   8.681  13.647   9.027
 2667POPC   GL236326   9.027  13.778   9.011
 2667POPC   C1A36327   8.930  13.411   8.684
 2667POPC   D2A36328   9.203  13.354   8.318
 2667POPC   C3A36329   8.957  13.518   7.988
 2667POPC   C4A36330   8.613  13.421   7.729
 2667POPC   C1B36331   8.884  13.984   8.642
 2667POPC   C2B36332   8.840  14.006   8.218
 2667POPC   C3B36333   9.047  13.990   7.836
 2667POPC   C4B36334   8.861  13.794   7.499
 2668POPC   NC336335   1.250  26.864   9.424
 2668POPC   PO436336   1.161  26.154   9.361
 2668POPC   GL136337   1.226  26.518   9.062
 2668POPC   GL236338   1.002  26.836   8.989
 2668POPC   C1A36339   1.421  26.658   8.700
 2668POPC   D2A36340   1.324  26.451   8.341
 2668POPC   C3A36341   1.582  26.491   8.031
 2668POPC   C4A36342   1.514  26.568   7.639
 2668POPC   C1B36343   1.233  27.124   8.735
 2668POPC   C2B36344   1.425  27.092   8.354
 2668POPC   C3B36345   1.254  26.933   7.994
 2668POPC   C4B36346   0.931  27.208   7.775
 2669POPC   NC336347   9.783   9.350   9.505
 2669POPC   PO436348  10.155   8.814   9.440
 2669POPC   GL136349   9.912   9.005   9.149
 2669POPC   GL236350  10.148   9.263   9.102
 2669POPC   C1A36351   9.568   8.965   8.846
 2669POPC   D2A36352   9.396   8.806   8.436
 2669POPC   C3A36353   9.655   8.660   8.088
 2669POPC   C4A36354   9.898   8.740   7.721
 2669POPC   C1B36355   9.843   9.430   8.807
 2669POPC   C2B36356   9.856   9.571   8.386
 2669POPC   C3B36357   9.812   9.195   8.134
 2669POPC   C4B36358   9.807   9.268   7.738
 2670POPC   NC336359  22.014  19.707   9.657
 2670POPC   PO436360  22.493  20.035   9.423
 2670POPC   GL136361  22.139  20.004   9.176
 2670POPC   GL236362  22.113  19.664   9.131
 2670POPC   C1A36363  22.165  19.995   8.728
 2670POPC   D2A36364  22.434  20.002   8.378
 2670POPC   C3A36365  22.139  20.081   8.064
 2670POPC   C4A36366  21.987  19.850   7.730
 2670POPC   C1B36367  22.103  19.487   8.706
 2670POPC   C2B36368  21.980  19.638   8.306
 2670POPC   C3B36369  21.938  19.377   7.925
 2670POPC   C4B36370  22.179  19.423   7.533
 2671POPC   NC336371   8.675  31.989   9.413
 2671POPC   PO436372   9.278  31.643   9.560
 2671POPC   GL136373   9.020  31.557   9.153
 2671POPC   GL236374   8.707  31.310   9.125
 2671POPC   C1A36375   9.028  31.363   8.735
 2671POPC   D2A36376   8.989  31.489   8.345
 2671POPC   C3A36377   9.175  31.284   8.036
 2671POPC   C4A36378   9.063  31.410   7.690
 2671POPC   C1B36379   8.573  31.619   8.825
 2671POPC   C2B36380   8.617  31.832   8.422
 2671POPC   C3B36381   8.676  31.679   7.970
 2671POPC   C4B36382   8.611  31.609   7.525
 2672POPC   NC336383  37.076   5.801   9.497
 2672POPC   PO436384  36.463   5.582   9.598
 2672POPC   GL136385  36.672   5.942   9.236
 2672POPC   GL236386  36.987   6.113   9.108
 2672POPC   C1A36387  36.681   5.860   8.795
 2672POPC   D2A36388  36.666   5.600   8.452
 2672POPC   C3A36389  36.832   5.812   8.111
 2672POPC   C4A36390  36.631   5.914   7.720
 2672POPC   C1B36391  37.247   5.842   8.856
 2672POPC   C2B36392  37.277   5.639   8.479
 2672POPC   C3B36393  37.334   5.672   8.051
 2672POPC   C4B36394  37.130   5.725   7.676
 2673POPC   NC336395  15.564   2.721   9.539
 2673POPC   PO436396  14.907   2.604   9.503
 2673POPC   GL136397  15.250   2.671   9.137
 2673POPC   GL236398  15.463   3.007   9.129
 2673POPC   C1A36399  15.455   2.716   8.693
 2673POPC   D2A36400  15.244   2.829   8.315
 2673POPC   C3A36401  15.388   2.721   7.904
 2673POPC   C4A36402  15.267   2.686   7.464
 2673POPC   C1B36403  15.143   3.097   8.811
 2673POPC   C2B36404  15.186   3.333   8.414
 2673POPC   C3B36405  15.310   3.234   7.991
 2673POPC   C4B36406  15.509   3.127   7.619
 2674POPC   NC336407  20.094  21.328   9.549
 2674POPC   PO436408  19.599  21.764   9.741
 2674POPC   GL136409  19.720  21.692   9.275
 2674POPC   GL236410  20.079  21.671   9.182
 2674POPC   C1A36411  19.610  21.654   8.831
 2674POPC   D2A36412  19.813  21.529   8.443
 2674POPC   C3A36413  19.606  21.392   8.102
 2674POPC   C4A36414  19.638  21.472   7.719
 2674POPC   C1B36415  20.200  21.510   8.787
 2674POPC   C2B36416  20.196  21.171   8.489
 2674POPC   C3B36417  20.047  21.117   8.069
 2674POPC   C4B36418  20.114  21.272   7.650
 2675POPC   NC336419  44.356  30.590   9.548
 2675POPC   PO436420   0.028  30.898   9.501
 2675POPC   GL136421  44.731  30.783   9.206
 2675POPC   GL236422  44.665  30.449   9.164
 2675POPC   C1A36423  44.595  30.774   8.761
 2675POPC   D2A36424  44.676  30.606   8.363
 2675POPC   C3A36425  44.819  30.902   8.080
 2675POPC   C4A36426  44.633  30.931   7.691
 2675POPC   C1B36427   0.005  30.461   8.838
 2675POPC   C2B36428   0.163  30.680   8.488
 2675POPC   C3B36429   0.234  30.541   8.082
 2675POPC   C4B36430   0.007  30.469   7.766
 2676POPC   NC336431  27.608  17.894   9.447
 2676POPC   PO436432  27.482  17.119   9.387
 2676POPC   GL136433  27.634  17.315   9.016
 2676POPC   GL236434  27.799  17.638   9.042
 2676POPC   C1A36435  27.525  17.569   8.628
 2676POPC   D2A36436  27.377  17.602   8.208
 2676POPC   C3A36437  27.552  17.249   7.992
 2676POPC   C4A36438  27.512  16.943   7.641
 2676POPC   C1B36439  28.022  17.740   8.659
 2676POPC   C2B36440  27.882  17.841   8.239
 2676POPC   C3B36441  27.693  17.718   7.821
 2676POPC   C4B36442  27.860  17.747   7.403
 2677POPC   NC336443   5.402  11.536   9.759
 2677POPC   PO436444   5.976  11.323   9.535
 2677POPC   GL136445   5.976  11.185   9.105
 2677POPC   GL236446   6.221  11.469   9.080
 2677POPC   C1A36447   5.755  11.233   8.697
 2677POPC   D2A36448   5.523  10.985   8.366
 2677POPC   C3A36449   5.782  11.025   8.013
 2677POPC   C4A36450   5.747  11.389   7.757
 2677POPC   C1B36451   6.279  11.314   8.683
 2677POPC   C2B36452   6.120  11.288   8.280
 2677POPC   C3B36453   6.249  11.374   7.871
 2677POPC   C4B36454   6.527  11.685   7.749
 2678POPC   NC336455  36.919  12.553   9.595
 2678POPC   PO436456  36.889  11.925   9.470
 2678POPC   GL136457  36.927  12.212   9.158
 2678POPC   GL236458  37.254  12.095   9.100
 2678POPC   C1A36459  36.666  12.241   8.792
 2678POPC   D2A36460  36.633  12.030   8.425
 2678POPC   C3A36461  36.612  12.295   8.102
 2678POPC   C4A36462  36.783  12.129   7.730
 2678POPC   C1B36463  37.118  12.030   8.675
 2678POPC   C2B36464  37.075  12.286   8.321
 2678POPC   C3B36465  37.220  12.281   7.910
 2678POPC   C4B36466  37.177  12.388   7.450
 2679POPC   NC336467  33.121   2.340   9.435
 2679POPC   PO436468  32.600   2.785   9.446
 2679POPC   GL136469  32.888   2.917   9.085
 2679POPC   GL236470  33.191   3.160   9.098
 2679POPC   C1A36471  33.071   2.726   8.741
 2679POPC   D2A36472  32.881   2.588   8.347
 2679POPC   C3A36473  33.123   2.453   7.968
 2679POPC   C4A36474  33.376   2.534   7.596
 2679POPC   C1B36475  33.298   3.200   8.679
 2679POPC   C2B36476  33.104   3.050   8.317
 2679POPC   C3B36477  33.245   2.947   7.924
 2679POPC   C4B36478  33.004   2.875   7.568
 2680POPC   NC336479  12.396  24.192   9.462
 2680POPC   PO436480  12.176  23.475   9.501
 2680POPC   GL136481  11.993  23.530   9.120
 2680POPC   GL236482  12.102  23.892   9.131
 2680POPC   C1A36483  12.027  23.658   8.692
 2680POPC   D2A36484  11.878  23.890   8.384
 2680POPC   C3A36485  12.021  23.644   8.081
 2680POPC   C4A36486  12.020  23.578   7.711
 2680POPC   C1B36487  12.435  23.962   8.822
 2680POPC   C2B36488  12.337  24.107   8.445
 2680POPC   C3B36489  12.301  24.060   8.043
 2680POPC   C4B36490  12.438  23.866   7.689
 2681POPC   NC336491   8.056  35.103   9.605
 2681POPC   PO436492   8.714  35.214   9.622
 2681POPC   GL136493   8.428  35.407   9.306
 2681POPC   GL236494   8.062  35.535   9.281
 2681POPC   C1A36495   8.348  35.299   8.875
 2681POPC   D2A36496   8.391  35.375   8.423
 2681POPC   C3A36497   8.111  35.117   8.155
 2681POPC   C4A36498   8.081  35.130   7.707
 2681POPC   C1B36499   7.974  35.654   8.828
 2681POPC   C2B36500   7.890  35.578   8.390
 2681POPC   C3B36501   8.095  35.623   7.992
 2681POPC   C4B36502   8.022  35.600   7.565
 2682POPC   NC336503  39.885  29.077   9.582
 2682POPC   PO436504  40.555  29.215   9.734
 2682POPC   GL136505  40.323  29.073   9.289
 2682POPC   GL236506  40.013  29.222   9.115
 2682POPC   C1A36507  40.233  28.876   8.817
 2682POPC   D2A36508  39.972  29.089   8.466
 2682POPC   C3A36509  39.773  29.093   8.046
 2682POPC   C4A36510  39.708  29.386   7.704
 2682POPC   C1B36511  40.276  29.398   8.800
 2682POPC   C2B36512  40.352  29.435   8.381
 2682POPC   C3B36513  40.208  29.362   7.989
 2682POPC   C4B36514  40.106  29.081   7.656
 2683POPC   NC336515  41.824  44.427   9.468
 2683POPC   PO436516  41.378  44.843   9.558
 2683POPC   GL136517  41.417  44.758   9.132
 2683POPC   GL236518  41.153  44.994   9.055
 2683POPC   C1A36519  41.734  44.728   8.805
 2683POPC   D2A36520  41.769  44.485   8.424
 2683POPC   C3A36521  41.628  44.570   8.023
 2683POPC   C4A36522  41.683  44.548   7.595
 2683POPC   C1B36523  41.269  44.884   8.621
 2683POPC   C2B36524  41.302  44.967   8.172
 2683POPC   C3B36525  41.301  44.858   7.729
 2683POPC   C4B36526  41.364  44.818   7.257
 2684POPC   NC336527  34.011   5.039   9.496
 2684POPC   PO436528  33.334   4.880   9.494
 2684POPC   GL136529  33.588   5.216   9.217
 2684POPC   GL236530  33.952   5.130   9.010
 2684POPC   C1A36531  33.636   5.455   8.819
 2684POPC   D2A36532  33.953   5.292   8.511
 2684POPC   C3A36533  33.885   4.983   8.219
 2684POPC   C4A36534  33.849   5.058   7.801
 2684POPC   C1B36535  34.152   4.811   8.696
 2684POPC   C2B36536  34.155   4.540   8.313
 2684POPC   C3B36537  34.163   4.689   7.875
 2684POPC   C4B36538  34.062   4.755   7.401
 2685POPC   NC336539  10.658   8.208   9.573
 2685POPC   PO436540  10.425   7.737   9.151
 2685POPC   GL136541  10.354   8.161   9.075
 2685POPC   GL236542  10.561   8.442   9.145
 2685POPC   C1A36543  10.392   8.245   8.644
 2685POPC   D2A36544  10.567   7.974   8.311
 2685POPC   C3A36545  10.376   8.016   7.931
 2685POPC   C4A36546  10.436   8.434   7.787
 2685POPC   C1B36547  10.855   8.442   8.798
 2685POPC   C2B36548  10.718   8.534   8.371
 2685POPC   C3B36549  10.850   8.683   8.002
 2685POPC   C4B36550  11.026   8.517   7.613
 2686POPC   NC336551  27.447  22.522   9.519
 2686POPC   PO436552  27.833  22.039   9.654
 2686POPC   GL136553  27.669  22.062   9.236
 2686POPC   GL236554  27.543  21.735   9.088
 2686POPC   C1A36555  27.523  22.263   8.872
 2686POPC   D2A36556  27.363  22.118   8.492
 2686POPC   C3A36557  27.461  22.251   8.084
 2686POPC   C4A36558  27.272  22.123   7.727
 2686POPC   C1B36559  27.831  21.871   8.737
 2686POPC   C2B36560  27.780  21.888   8.263
 2686POPC   C3B36561  27.775  21.951   7.775
 2686POPC   C4B36562  27.947  21.896   7.341
 2687POPC   NC336563  27.891  14.771   9.468
 2687POPC   PO436564  27.625  14.135   9.463
 2687POPC   GL136565  27.701  14.404   9.119
 2687POPC   GL236566  27.520  14.747   9.103
 2687POPC   C1A36567  27.821  14.325   8.712
 2687POPC   D2A36568  27.639  14.471   8.340
 2687POPC   C3A36569  27.711  14.223   7.995
 2687POPC   C4A36570  28.062  14.054   7.808
 2687POPC   C1B36571  27.330  14.519   8.756
 2687POPC   C2B36572  27.166  14.635   8.358
 2687POPC   C3B36573  27.255  14.494   7.938
 2687POPC   C4B36574  27.261  14.046   7.841
 2688POPC   NC336575  29.283   6.298   9.491
 2688POPC   PO436576  28.928   6.798   9.572
 2688POPC   GL136577  29.138   6.778   9.186
 2688POPC   GL236578  28.860   7.039   9.106
 2688POPC   C1A36579  29.147   6.476   8.835
 2688POPC   D2A36580  28.936   6.512   8.405
 2688POPC   C3A36581  29.156   6.716   8.104
 2688POPC   C4A36582  29.314   6.534   7.743
 2688POPC   C1B36583  28.866   6.893   8.738
 2688POPC   C2B36584  28.750   7.003   8.359
 2688POPC   C3B36585  28.843   7.106   7.984
 2688POPC   C4B36586  28.869   6.820   7.686
 2689POPC   NC336587  31.730  14.052   9.394
 2689POPC   PO436588  31.487  14.647   9.580
 2689POPC   GL136589  31.476  14.440   9.188
 2689POPC   GL236590  31.273  14.123   9.180
 2689POPC   C1A36591  31.644  14.406   8.769
 2689POPC   D2A36592  31.428  14.579   8.434
 2689POPC   C3A36593  31.626  14.728   8.097
 2689POPC   C4A36594  31.821  14.835   7.746
 2689POPC   C1B36595  31.153  14.285   8.798
 2689POPC   C2B36596  31.257  14.100   8.416
 2689POPC   C3B36597  31.253  14.318   8.010
 2689POPC   C4B36598  31.553  14.396   7.683
 2690POPC   NC336599  36.411  36.013   9.565
 2690POPC   PO436600  35.898  36.414   9.362
 2690POPC   GL136601  36.219  36.215   9.093
 2690POPC   GL236602  36.273  35.854   9.072
 2690POPC   C1A36603  36.151  36.131   8.653
 2690POPC   D2A36604  35.894  35.936   8.329
 2690POPC   C3A36605  36.105  36.060   7.942
 2690POPC   C4A36606  36.306  36.290   7.620
 2690POPC   C1B36607  36.227  35.601   8.669
 2690POPC   C2B36608  36.289  35.610   8.192
 2690POPC   C3B36609  36.001  35.580   7.805
 2690POPC   C4B36610  36.008  35.890   7.439
 2691POPC   NC336611  33.999  15.817   9.447
 2691POPC   PO436612  33.388  16.255   9.380
 2691POPC   GL136613  33.758  16.165   9.178
 2691POPC   GL236614  33.588  15.861   9.117
 2691POPC   C1A36615  34.005  15.963   8.818
 2691POPC   D2A36616  33.810  15.968   8.412
 2691POPC   C3A36617  34.032  16.019   8.036
 2691POPC   C4A36618  33.857  15.923   7.653
 2691POPC   C1B36619  33.459  16.078   8.765
 2691POPC   C2B36620  33.354  16.261   8.406
 2691POPC   C3B36621  33.481  16.081   8.022
 2691POPC   C4B36622  33.516  16.298   7.657
 2692POPC   NC336623  29.321  17.999   9.268
 2692POPC   PO436624  29.051  17.520   9.637
 2692POPC   GL136625  28.979  17.450   9.156
 2692POPC   GL236626  28.868  17.775   9.058
 2692POPC   C1A36627  28.950  17.146   8.778
 2692POPC   D2A36628  28.872  17.319   8.359
 2692POPC   C3A36629  29.188  17.298   8.038
 2692POPC   C4A36630  29.508  17.387   7.744
 2692POPC   C1B36631  28.717  17.893   8.680
 2692POPC   C2B36632  28.894  17.837   8.251
 2692POPC   C3B36633  29.175  17.796   7.917
 2692POPC   C4B36634  28.891  17.752   7.596
 2693POPC   NC336635  11.868  31.815   9.340
 2693POPC   PO436636  12.466  31.622   9.525
 2693POPC   GL136637  12.250  31.472   9.173
 2693POPC   GL236638  12.156  31.118   9.076
 2693POPC   C1A36639  12.149  31.574   8.768
 2693POPC   D2A36640  11.867  31.544   8.469
 2693POPC   C3A36641  12.073  31.381   8.127
 2693POPC   C4A36642  12.143  31.423   7.718
 2693POPC   C1B36643  11.796  31.118   8.742
 2693POPC   C2B36644  11.641  31.120   8.264
 2693POPC   C3B36645  11.810  31.034   7.817
 2693POPC   C4B36646  11.743  31.243   7.421
 2694POPC   NC336647  27.388  26.480   9.731
 2694POPC   PO436648  27.921  26.888   9.544
 2694POPC   GL136649  27.741  26.905   9.061
 2694POPC   GL236650  27.393  27.059   8.963
 2694POPC   C1A36651  27.730  27.057   8.590
 2694POPC   D2A36652  27.465  26.927   8.218
 2694POPC   C3A36653  27.685  26.830   7.886
 2694POPC   C4A36654  27.909  26.473   7.935
 2694POPC   C1B36655  27.286  26.760   8.673
 2694POPC   C2B36656  27.134  26.535   8.332
 2694POPC   C3B36657  27.341  26.469   7.961
 2694POPC   C4B36658  27.169  26.824   7.729
 2695POPC   NC336659  29.446  22.450   9.495
 2695POPC   PO436660  29.172  23.071   9.615
 2695POPC   GL136661  29.119  23.051   9.188
 2695POPC   GL236662  29.412  22.841   9.150
 2695POPC   C1A36663  28.966  22.747   8.868
 2695POPC   D2A36664  28.746  22.667   8.458
 2695POPC   C3A36665  28.913  22.971   8.133
 2695POPC   C4A36666  29.204  22.963   7.808
 2695POPC   C1B36667  29.442  23.044   8.730
 2695POPC   C2B36668  29.439  23.067   8.255
 2695POPC   C3B36669  29.656  23.151   7.837
 2695POPC   C4B36670  29.588  22.874   7.463
 2696POPC   NC336671   4.699  41.619   9.778
 2696POPC   PO436672   5.292  41.329   9.474
 2696POPC   GL136673   5.094  41.429   9.084
 2696POPC   GL236674   4.902  41.759   9.059
 2696POPC   C1A36675   5.024  41.444   8.625
 2696POPC   D2A36676   5.012  41.754   8.259
 2696POPC   C3A36677   5.311  41.610   7.948
 2696POPC   C4A36678   5.216  41.211   7.788
 2696POPC   C1B36679   4.647  41.795   8.649
 2696POPC   C2B36680   4.547  42.004   8.274
 2696POPC   C3B36681   4.640  41.880   7.878
 2696POPC   C4B36682   4.840  41.534   7.771
 2697POPC   NC336683  21.608   3.181   9.636
 2697POPC   PO436684  21.124   2.684   9.466
 2697POPC   GL136685  21.431   2.897   9.218
 2697POPC   GL236686  21.466   2.547   9.071
 2697POPC   C1A36687  21.587   3.111   8.832
 2697POPC   D2A36688  21.382   3.048   8.389
 2697POPC   C3A36689  21.577   3.126   7.997
 2697POPC   C4A36690  21.448   2.976   7.565
 2697POPC   C1B36691  21.416   2.643   8.673
 2697POPC   C2B36692  21.622   2.610   8.278
 2697POPC   C3B36693  21.294   2.687   7.963
 2697POPC   C4B36694  21.012   2.463   7.700
 2698POPC   NC336695   7.214  37.772   9.496
 2698POPC   PO436696   7.861  37.539   9.735
 2698POPC   GL136697   7.670  37.606   9.286
 2698POPC   GL236698   7.668  37.854   9.163
 2698POPC   C1A36699   7.379  37.530   8.866
 2698POPC   D2A36700   7.075  37.485   8.463
 2698POPC   C3A36701   7.274  37.512   8.032
 2698POPC   C4A36702   7.386  37.649   7.622
 2698POPC   C1B36703   7.660  37.952   8.777
 2698POPC   C2B36704   7.595  37.733   8.372
 2698POPC   C3B36705   7.681  37.900   7.941
 2698POPC   C4B36706   7.852  37.768   7.514
 2699POPC   NC336707  38.396  38.165   9.626
 2699POPC   PO436708  37.963  37.644   9.685
 2699POPC   GL136709  38.180  37.939   9.236
 2699POPC   GL236710  38.501  38.100   9.141
 2699POPC   C1A36711  38.439  37.729   8.821
 2699POPC   D2A36712  38.394  37.400   8.504
 2699POPC   C3A36713  38.364  37.514   8.063
 2699POPC   C4A36714  38.655  37.367   7.768
 2699POPC   C1B36715  38.315  38.212   8.751
 2699POPC   C2B36716  38.320  37.973   8.368
 2699POPC   C3B36717  38.638  37.956   8.051
 2699POPC   C4B36718  38.568  37.833   7.649
 2700POPC   NC336719  12.148  30.238   9.486
 2700POPC   PO436720  11.897  29.587   9.496
 2700POPC   GL136721  12.093  29.792   9.098
 2700POPC   GL236722  12.346  30.019   9.075
 2700POPC   C1A36723  12.092  30.012   8.657
 2700POPC   D2A36724  11.861  30.215   8.383
 2700POPC   C3A36725  11.813  29.947   8.057
 2700POPC   C4A36726  12.067  29.877   7.729
 2700POPC   C1B36727  12.449  30.360   8.797
 2700POPC   C2B36728  12.369  30.489   8.361
 2700POPC   C3B36729  12.248  30.274   8.022
 2700POPC   C4B36730  12.454  30.197   7.653
 2701POPC   NC336731  18.095  33.081   9.549
 2701POPC   PO436732  18.321  32.468   9.518
 2701POPC   GL136733  18.287  32.757   9.198
 2701POPC   GL236734  18.550  32.985   9.275
 2701POPC   C1A36735  18.143  33.063   8.864
 2701POPC   D2A36736  17.914  33.071   8.497
 2701POPC   C3A36737  18.111  33.287   8.146
 2701POPC   C4A36738  18.083  33.043   7.735
 2701POPC   C1B36739  18.647  32.997   8.855
 2701POPC   C2B36740  18.462  33.027   8.462
 2701POPC   C3B36741  18.473  32.929   8.045
 2701POPC   C4B36742  18.678  33.086   7.725
 2702POPC   NC336743  13.430  21.772   9.314
 2702POPC   PO436744  13.354  22.339   9.692
 2702POPC   GL136745  13.476  22.307   9.268
 2702POPC   GL236746  13.193  22.500   9.182
 2702POPC   C1A36747  13.764  22.231   8.879
 2702POPC   D2A36748  13.783  22.153   8.439
 2702POPC   C3A36749  13.773  22.402   8.104
 2702POPC   C4A36750  13.681  22.231   7.728
 2702POPC   C1B36751  13.259  22.251   8.800
 2702POPC   C2B36752  13.316  21.952   8.477
 2702POPC   C3B36753  13.319  22.177   8.120
 2702POPC   C4B36754  13.165  22.313   7.740
 2703POPC   NC336755  20.887  11.919   9.495
 2703POPC   PO436756  21.101  11.336   9.374
 2703POPC   GL136757  21.221  11.353   8.927
 2703POPC   GL236758  21.582  11.341   8.865
 2703POPC   C1A36759  21.256  11.264   8.463
 2703POPC   D2A36760  21.280  10.973   8.108
 2703POPC   C3A36761  21.384  11.153   7.720
 2703POPC   C4A36762  21.322  11.589   7.550
 2703POPC   C1B36763  21.753  11.149   8.469
 2703POPC   C2B36764  21.831  10.975   8.060
 2703POPC   C3B36765  21.895  11.041   7.624
 2703POPC   C4B36766  21.764  11.388   7.416
 2704POPC   NC336767   0.911  44.029   9.646
 2704POPC   PO436768   1.381  43.681   9.487
 2704POPC   GL136769   1.362  44.039   9.205
 2704POPC   GL236770   1.005  44.116   9.118
 2704POPC   C1A36771   1.348  44.122   8.753
 2704POPC   D2A36772   1.084  43.965   8.422
 2704POPC   C3A36773   1.232  43.906   8.022
 2704POPC   C4A36774   1.082  43.552   7.834
 2704POPC   C1B36775   0.888  44.334   8.718
 2704POPC   C2B36776   0.626  44.205   8.399
 2704POPC   C3B36777   0.699  43.971   8.019
 2704POPC   C4B36778   0.872  43.947   7.586
 2705POPC   NC336779  30.416  29.974   9.355
 2705POPC   PO436780  29.740  29.913   9.432
 2705POPC   GL136781  29.987  29.882   9.094
 2705POPC   GL236782  30.205  29.586   9.107
 2705POPC   C1A36783  29.940  29.832   8.693
 2705POPC   D2A36784  29.896  29.657   8.314
 2705POPC   C3A36785  29.908  30.012   8.051
 2705POPC   C4A36786  29.585  30.040   7.761
 2705POPC   C1B36787  30.428  29.628   8.685
 2705POPC   C2B36788  30.408  29.632   8.215
 2705POPC   C3B36789  30.132  29.597   7.851
 2705POPC   C4B36790  29.863  29.447   7.524
 2706POPC   NC336791   0.541  31.017   9.478
 2706POPC   PO436792   0.241  31.629   9.431
 2706POPC   GL136793   0.492  31.396   9.146
 2706POPC   GL236794   0.190  31.331   8.993
 2706POPC   C1A36795   0.667  31.488   8.744
 2706POPC   D2A36796   0.409  31.686   8.419
 2706POPC   C3A36797   0.477  31.526   7.976
 2706POPC   C4A36798   0.485  31.288   7.590
 2706POPC   C1B36799  44.964  31.662   8.733
 2706POPC   C2B36800  44.866  31.894   8.336
 2706POPC   C3B36801  44.965  31.898   7.885
 2706POPC   C4B36802   0.247  31.777   7.559
 2707POPC   NC336803  16.159  34.018   9.287
 2707POPC   PO436804  16.048  34.699   9.468
 2707POPC   GL136805  15.934  34.676   9.067
 2707POPC   GL236806  15.941  34.386   9.028
 2707POPC   C1A36807  15.690  34.778   8.733
 2707POPC   D2A36808  15.467  34.794   8.349
 2707POPC   C3A36809  15.750  34.766   8.000
 2707POPC   C4A36810  15.726  34.602   7.587
 2707POPC   C1B36811  15.992  34.309   8.654
 2707POPC   C2B36812  15.690  34.326   8.385
 2707POPC   C3B36813  15.779  34.239   8.006
 2707POPC   C4B36814  16.130  34.409   7.803
 2708POPC   NC336815  37.719  15.690   9.481
 2708POPC   PO436816  37.541  16.349   9.479
 2708POPC   GL136817  37.751  16.097   9.156
 2708POPC   GL236818  37.451  15.855   9.079
 2708POPC   C1A36819  37.875  15.850   8.779
 2708POPC   D2A36820  37.804  15.647   8.364
 2708POPC   C3A36821  37.960  15.907   8.052
 2708POPC   C4A36822  37.830  16.299   7.876
 2708POPC   C1B36823  37.197  15.894   8.696
 2708POPC   C2B36824  37.148  15.999   8.253
 2708POPC   C3B36825  37.437  15.964   7.894
 2708POPC   C4B36826  37.684  15.614   7.774
 2709POPC   NC336827  38.013  21.507   9.594
 2709POPC   PO436828  38.645  21.501   9.549
 2709POPC   GL136829  38.351  21.566   9.201
 2709POPC   GL236830  38.198  21.219   9.208
 2709POPC   C1A36831  38.400  21.527   8.747
 2709POPC   D2A36832  38.628  21.643   8.367
 2709POPC   C3A36833  38.425  21.564   8.017
 2709POPC   C4A36834  38.445  21.756   7.660
 2709POPC   C1B36835  38.452  21.047   8.894
 2709POPC   C2B36836  38.451  20.907   8.438
 2709POPC   C3B36837  38.371  21.057   7.993
 2709POPC   C4B36838  38.431  21.210   7.529
 2710POPC   NC336839   9.006  12.213   9.524
 2710POPC   PO436840   8.973  12.861   9.584
 2710POPC   GL136841   8.956  12.782   9.140
 2710POPC   GL236842   9.078  13.162   9.121
 2710POPC   C1A36843   8.783  12.651   8.711
 2710POPC   D2A36844   8.876  12.970   8.409
 2710POPC   C3A36845   8.813  13.005   7.988
 2710POPC   C4A36846   9.011  12.695   7.750
 2710POPC   C1B36847   9.258  13.007   8.757
 2710POPC   C2B36848   9.492  12.845   8.445
 2710POPC   C3B36849   9.321  12.908   8.096
 2710POPC   C4B36850   9.234  13.176   7.738
 2711POPC   NC336851  43.870  24.328   9.484
 2711POPC   PO436852  44.177  24.899   9.333
 2711POPC   GL136853  44.036  24.547   9.043
 2711POPC   GL236854  43.723  24.315   9.005
 2711POPC   C1A36855  44.115  24.244   8.692
 2711POPC   D2A36856  43.975  24.305   8.246
 2711POPC   C3A36857  44.267  24.420   7.901
 2711POPC   C4A36858  44.145  24.484   7.481
 2711POPC   C1B36859  43.654  23.989   8.670
 2711POPC   C2B36860  43.439  23.788   8.320
 2711POPC   C3B36861  43.453  23.969   7.862
 2711POPC   C4B36862  43.665  24.395   7.791
 2712POPC   NC336863  25.907   6.422   9.455
 2712POPC   PO436864  26.330   7.029   9.575
 2712POPC   GL136865  26.213   6.760   9.206
 2712POPC   GL236866  26.388   6.406   9.228
 2712POPC   C1A36867  25.877   6.760   8.859
 2712POPC   D2A36868  25.770   6.956   8.429
 2712POPC   C3A36869  25.962   6.825   7.987
 2712POPC   C4A36870  25.861   6.662   7.525
 2712POPC   C1B36871  26.355   6.568   8.753
 2712POPC   C2B36872  26.031   6.518   8.428
 2712POPC   C3B36873  25.884   6.304   8.069
 2712POPC   C4B36874  25.917   6.146   7.660
 2713POPC   NC336875  38.248  12.040   9.459
 2713POPC   PO436876  38.922  11.983   9.576
 2713POPC   GL136877  38.696  12.173   9.209
 2713POPC   GL236878  38.515  11.875   9.066
 2713POPC   C1A36879  38.473  12.301   8.811
 2713POPC   D2A36880  38.471  11.981   8.469
 2713POPC   C3A36881  38.487  12.182   8.113
 2713POPC   C4A36882  38.563  12.082   7.713
 2713POPC   C1B36883  38.115  11.895   8.811
 2713POPC   C2B36884  37.980  11.799   8.350
 2713POPC   C3B36885  38.150  11.851   7.908
 2713POPC   C4B36886  38.286  11.806   7.410
 2714POPC   NC336887  18.130  43.604   9.638
 2714POPC   PO436888  18.569  44.037   9.380
 2714POPC   GL136889  18.406  43.694   9.200
 2714POPC   GL236890  18.598  43.424   9.083
 2714POPC   C1A36891  18.138  43.823   8.870
 2714POPC   D2A36892  18.238  44.059   8.494
 2714POPC   C3A36893  18.145  43.843   8.084
 2714POPC   C4A36894  18.183  44.027   7.677
 2714POPC   C1B36895  18.634  43.694   8.706
 2714POPC   C2B36896  18.621  43.814   8.258
 2714POPC   C3B36897  18.600  43.716   7.781
 2714POPC   C4B36898  18.771  43.540   7.329
 2715POPC   NC336899  20.547  39.713   9.460
 2715POPC   PO436900  20.405  40.381   9.483
 2715POPC   GL136901  20.690  40.145   9.223
 2715POPC   GL236902  20.402  40.047   9.062
 2715POPC   C1A36903  20.801  40.039   8.757
 2715POPC   D2A36904  20.533  40.036   8.374
 2715POPC   C3A36905  20.774  39.947   8.006
 2715POPC   C4A36906  20.612  39.978   7.580
 2715POPC   C1B36907  20.422  39.683   8.793
 2715POPC   C2B36908  20.269  39.574   8.370
 2715POPC   C3B36909  20.298  39.769   7.951
 2715POPC   C4B36910  20.248  39.604   7.533
 2716POPC   NC336911  29.333  13.413   9.424
 2716POPC   PO436912  28.966  13.928   9.434
 2716POPC   GL136913  29.119  13.756   9.098
 2716POPC   GL236914  29.419  13.985   9.132
 2716POPC   C1A36915  29.259  13.487   8.771
 2716POPC   D2A36916  29.340  13.312   8.386
 2716POPC   C3A36917  29.252  13.505   8.011
 2716POPC   C4A36918  29.067  13.334   7.687
 2716POPC   C1B36919  29.334  13.982   8.700
 2716POPC   C2B36920  29.504  13.849   8.296
 2716POPC   C3B36921  29.396  14.008   7.893
 2716POPC   C4B36922  29.296  13.980   7.489
 2717POPC   NC336923   9.292  14.736   9.233
 2717POPC   PO436924   9.701  15.202   9.573
 2717POPC   GL136925   9.747  15.386   9.179
 2717POPC   GL236926   9.408  15.528   9.225
 2717POPC   C1A36927   9.867  15.384   8.778
 2717POPC   D2A36928   9.917  15.189   8.393
 2717POPC   C3A36929   9.842  15.424   8.044
 2717POPC   C4A36930   9.732  15.196   7.695
 2717POPC   C1B36931   9.359  15.287   8.837
 2717POPC   C2B36932   9.264  15.027   8.486
 2717POPC   C3B36933   9.414  15.029   8.053
 2717POPC   C4B36934   9.287  14.956   7.597
 2718POPC   NC336935  20.449  44.829   9.433
 2718POPC   PO436936  20.373  44.215   9.556
 2718POPC   GL136937  20.640  44.411   9.202
 2718POPC   GL236938  20.406  44.522   9.022
 2718POPC   C1A36939  20.879  44.597   8.811
 2718POPC   D2A36940  20.716  44.598   8.383
 2718POPC   C3A36941  20.807  44.458   7.948
 2718POPC   C4A36942  20.450  44.556   7.675
 2718POPC   C1B36943  20.444  44.868   8.765
 2718POPC   C2B36944  20.376   0.015   8.366
 2718POPC   C3B36945  20.567  44.915   8.002
 2718POPC   C4B36946  20.579   0.067   7.604
 2719POPC   NC336947  30.966  34.224   9.580
 2719POPC   PO436948  31.637  34.249   9.534
 2719POPC   GL136949  31.506  34.445   9.159
 2719POPC   GL236950  31.161  34.318   9.115
 2719POPC   C1A36951  31.655  34.591   8.755
 2719POPC   D2A36952  31.574  34.402   8.369
 2719POPC   C3A36953  31.523  34.580   7.975
 2719POPC   C4A36954  31.730  34.714   7.583
 2719POPC   C1B36955  31.330  34.159   8.725
 2719POPC   C2B36956  31.142  34.056   8.325
 2719POPC   C3B36957  31.167  34.137   7.892
 2719POPC   C4B36958  31.291  34.409   7.543
 2720POPC   NC336959   9.183  40.922   9.856
 2720POPC   PO436960   8.724  41.045   9.432
 2720POPC   GL136961   9.088  40.976   9.135
 2720POPC   GL236962   8.948  40.714   8.944
 2720POPC   C1A36963   9.178  41.049   8.654
 2720POPC   D2A36964   8.918  40.837   8.368
 2720POPC   C3A36965   9.070  40.760   7.968
 2720POPC   C4A36966   8.807  40.778   7.649
 2720POPC   C1B36967   9.014  40.397   8.635
 2720POPC   C2B36968   8.972  40.321   8.224
 2720POPC   C3B36969   8.987  40.287   7.807
 2720POPC   C4B36970   9.386  40.369   7.748
 2721POPC   NC336971  36.044  21.815   9.383
 2721POPC   PO436972  36.459  22.283   9.509
 2721POPC   GL136973  36.249  22.238   9.154
 2721POPC   GL236974  36.092  22.562   9.149
 2721POPC   C1A36975  36.261  21.966   8.785
 2721POPC   D2A36976  36.069  21.788   8.435
 2721POPC   C3A36977  36.293  21.874   8.066
 2721POPC   C4A36978  36.194  22.043   7.686
 2721POPC   C1B36979  35.994  22.430   8.754
 2721POPC   C2B36980  36.160  22.289   8.372
 2721POPC   C3B36981  36.028  22.448   7.998
 2721POPC   C4B36982  36.197  22.523   7.570
 2722POPC   NC336983  11.570  14.264   9.627
 2722POPC   PO436984  10.942  14.076   9.236
 2722POPC   GL136985  11.134  14.367   9.028
 2722POPC   GL236986  11.413  14.491   9.198
 2722POPC   C1A36987  11.290  14.530   8.679
 2722POPC   D2A36988  11.335  14.711   8.281
 2722POPC   C3A36989  10.989  14.597   7.967
 2722POPC   C4A36990  11.072  14.364   7.605
 2722POPC   C1B36991  11.681  14.270   8.860
 2722POPC   C2B36992  11.573  14.221   8.386
 2722POPC   C3B36993  11.417  14.288   7.981
 2722POPC   C4B36994  11.658  14.319   7.575
 2723POPC   NC336995  11.088  36.156   9.610
 2723POPC   PO436996  11.753  36.068   9.471
 2723POPC   GL136997  11.394  36.081   9.205
 2723POPC   GL236998  11.122  36.341   9.133
 2723POPC   C1A36999  11.339  36.039   8.779
 2723POPC   D2A37000  11.155  35.949   8.391
 2723POPC   C3A37001  11.379  35.868   8.022
 2723POPC   C4A37002  11.161  35.949   7.654
 2723POPC   C1B37003  10.941  36.495   8.719
 2723POPC   C2B37004  10.980  36.415   8.260
 2723POPC   C3B37005  11.274  36.376   7.922
 2723POPC   C4B37006  11.721  36.247   7.887
 2724POPC   NC337007  41.306  34.880   9.286
 2724POPC   PO437008  41.652  34.437   9.437
 2724POPC   GL137009  41.617  34.496   9.059
 2724POPC   GL237010  41.274  34.415   9.024
 2724POPC   C1A37011  41.895  34.493   8.699
 2724POPC   D2A37012  41.822  34.297   8.315
 2724POPC   C3A37013  41.702  34.570   7.960
 2724POPC   C4A37014  41.833  34.443   7.541
 2724POPC   C1B37015  41.387  34.591   8.622
 2724POPC   C2B37016  41.258  34.699   8.226
 2724POPC   C3B37017  41.178  34.491   7.862
 2724POPC   C4B37018  41.336  34.552   7.491
 2725POPC   NC337019  34.422   4.088   9.457
 2725POPC   PO437020  34.314   4.740   9.353
 2725POPC   GL137021  34.566   4.411   9.100
 2725POPC   GL237022  34.726   4.020   9.057
 2725POPC   C1A37023  34.428   4.254   8.718
 2725POPC   D2A37024  34.558   4.089   8.342
 2725POPC   C3A37025  34.456   4.287   7.971
 2725POPC   C4A37026  34.377   4.380   7.550
 2725POPC   C1B37027  34.942   4.137   8.712
 2725POPC   C2B37028  35.046   3.970   8.329
 2725POPC   C3B37029  34.958   4.138   7.957
 2725POPC   C4B37030  34.862   3.995   7.573
 2726POPC   NC337031  31.968   5.791   9.506
 2726POPC   PO437032  32.670   5.639   9.459
 2726POPC   GL137033  32.327   5.635   9.168
 2726POPC   GL237034  32.308   6.002   9.181
 2726POPC   C1A37035  32.144   5.708   8.748
 2726POPC   D2A37036  31.938   5.505   8.365
 2726POPC   C3A37037  32.130   5.662   7.950
 2726POPC   C4A37038  32.158   5.699   7.463
 2726POPC   C1B37039  32.418   6.180   8.808
 2726POPC   C2B37040  32.377   6.051   8.403
 2726POPC   C3B37041  32.270   6.228   8.043
 2726POPC   C4B37042  32.290   6.141   7.670
 2727POPC   NC337043   1.574   4.054   9.671
 2727POPC   PO437044   1.968   4.515   9.314
 2727POPC   GL137045   2.260   4.505   8.952
 2727POPC   GL237046   2.276   4.191   8.944
 2727POPC   C1A37047   2.157   4.478   8.528
 2727POPC   D2A37048   1.783   4.642   8.309
 2727POPC   C3A37049   1.623   4.351   7.991
 2727POPC   C4A37050   1.840   4.255   7.607
 2727POPC   C1B37051   2.269   3.805   8.731
 2727POPC   C2B37052   2.064   3.798   8.370
 2727POPC   C3B37053   2.088   4.007   7.976
 2727POPC   C4B37054   2.152   3.829   7.562
 2728POPC   NC337055   7.174  40.266   9.432
 2728POPC   PO437056   6.657  39.865   9.508
 2728POPC   GL137057   6.713  40.154   9.165
 2728POPC   GL237058   6.387  40.078   9.073
 2728POPC   C1A37059   6.774  40.044   8.718
 2728POPC   D2A37060   6.789  40.246   8.301
 2728POPC   C3A37061   6.618  40.139   7.885
 2728POPC   C4A37062   6.676  40.421   7.500
 2728POPC   C1B37063   6.351  39.722   8.803
 2728POPC   C2B37064   6.514  39.750   8.369
 2728POPC   C3B37065   6.373  39.694   7.935
 2728POPC   C4B37066   6.248  39.491   7.542
 2729POPC   NC337067  15.219  31.101   9.527
 2729POPC   PO437068  14.932  30.542   9.485
 2729POPC   GL137069  15.099  30.745   9.140
 2729POPC   GL237070  15.274  30.428   9.086
 2729POPC   C1A37071  15.022  31.059   8.807
 2729POPC   D2A37072  14.837  31.059   8.387
 2729POPC   C3A37073  15.040  30.702   8.195
 2729POPC   C4A37074  15.035  30.627   7.774
 2729POPC   C1B37075  15.256  30.608   8.671
 2729POPC   C2B37076  15.543  30.765   8.335
 2729POPC   C3B37077  15.543  30.615   7.900
 2729POPC   C4B37078  15.393  30.485   7.453
 2730POPC   NC337079  13.385   3.211   9.571
 2730POPC   PO437080  13.303   3.906   9.595
 2730POPC   GL137081  13.211   3.679   9.185
 2730POPC   GL237082  13.499   3.472   9.152
 2730POPC   C1A37083  13.384   3.735   8.734
 2730POPC   D2A37084  13.566   3.787   8.324
 2730POPC   C3A37085  13.740   3.649   7.947
 2730POPC   C4A37086  13.784   3.810   7.573
 2730POPC   C1B37087  13.258   3.234   8.844
 2730POPC   C2B37088  13.220   3.341   8.435
 2730POPC   C3B37089  13.501   3.251   8.159
 2730POPC   C4B37090  13.528   3.209   7.754
 2731POPC   NC337091  39.127  16.042   9.386
 2731POPC   PO437092  39.617  16.466   9.573
 2731POPC   GL137093  39.586  16.138   9.214
 2731POPC   GL237094  39.457  15.755   9.145
 2731POPC   C1A37095  39.318  16.141   8.795
 2731POPC   D2A37096  39.457  16.244   8.379
 2731POPC   C3A37097  39.283  15.998   8.052
 2731POPC   C4A37098  39.175  16.224   7.711
 2731POPC   C1B37099  39.060  15.674   8.859
 2731POPC   C2B37100  38.826  15.609   8.481
 2731POPC   C3B37101  38.914  15.593   8.068
 2731POPC   C4B37102  38.869  15.784   7.689
 2732POPC   NC337103  15.781  33.564   9.751
 2732POPC   PO437104  15.683  34.031   9.272
 2732POPC   GL137105  15.663  33.737   9.032
 2732POPC   GL237106  15.997  33.676   8.953
 2732POPC   C1A37107  15.671  33.868   8.612
 2732POPC   D2A37108  16.032  33.833   8.418
 2732POPC   C3A37109  15.889  33.648   8.076
 2732POPC   C4A37110  15.843  33.840   7.699
 2732POPC   C1B37111  16.226  33.316   8.782
 2732POPC   C2B37112  16.270  33.364   8.341
 2732POPC   C3B37113  16.385  33.670   8.060
 2732POPC   C4B37114  16.239  33.501   7.699
 2733POPC   NC337115  43.305  11.854   9.573
 2733POPC   PO437116  43.008  12.430   9.583
 2733POPC   GL137117  43.146  12.224   9.193
 2733POPC   GL237118  43.045  11.855   9.129
 2733POPC   C1A37119  42.946  12.229   8.783
 2733POPC   D2A37120  43.135  12.275   8.401
 2733POPC   C3A37121  42.839  12.377   8.121
 2733POPC   C4A37122  42.820  12.221   7.742
 2733POPC   C1B37123  43.364  11.907   8.795
 2733POPC   C2B37124  43.349  11.761   8.363
 2733POPC   C3B37125  43.234  11.946   7.953
 2733POPC   C4B37126  43.316  12.357   7.870
 2734POPC   NC337127  10.706  15.994   9.501
 2734POPC   PO437128  10.200  15.607   9.460
 2734POPC   GL137129  10.437  15.795   9.100
 2734POPC   GL237130  10.404  16.156   9.148
 2734POPC   C1A37131  10.753  15.918   8.795
 2734POPC   D2A37132  10.844  15.972   8.346
 2734POPC   C3A37133  10.487  15.745   8.169
 2734POPC   C4A37134  10.201  15.744   7.823
 2734POPC   C1B37135  10.342  16.212   8.751
 2734POPC   C2B37136  10.402  16.243   8.348
 2734POPC   C3B37137  10.527  16.205   7.958
 2734POPC   C4B37138  10.266  16.420   7.678
 2735POPC   NC337139   2.977  32.624   9.396
 2735POPC   PO437140   2.707  33.268   9.531
 2735POPC   GL137141   2.589  33.066   9.123
 2735POPC   GL237142   2.514  32.715   9.176
 2735POPC   C1A37143   2.888  33.052   8.740
 2735POPC   D2A37144   3.162  32.871   8.393
 2735POPC   C3A37145   3.015  32.925   7.957
 2735POPC   C4A37146   2.673  33.219   7.830
 2735POPC   C1B37147   2.594  32.647   8.747
 2735POPC   C2B37148   2.623  32.841   8.315
 2735POPC   C3B37149   2.539  32.718   7.873
 2735POPC   C4B37150   2.640  32.846   7.468
 2736POPC   NC337151  31.177  27.865   9.505
 2736POPC   PO437152  31.192  27.196   9.638
 2736POPC   GL137153  31.238  27.319   9.208
 2736POPC   GL237154  31.524  27.539   9.248
 2736POPC   C1A37155  31.088  27.367   8.773
 2736POPC   D2A37156  31.094  27.716   8.470
 2736POPC   C3A37157  31.151  27.546   8.040
 2736POPC   C4A37158  31.296  27.620   7.639
 2736POPC   C1B37159  31.643  27.776   8.880
 2736POPC   C2B37160  31.587  27.762   8.436
 2736POPC   C3B37161  31.684  27.635   8.033
 2736POPC   C4B37162  32.007  27.719   7.742
 2737POPC   NC337163  24.199  23.350   9.592
 2737POPC   PO437164  24.541  22.710   9.484
 2737POPC   GL137165  24.268  22.874   9.153
 2737POPC   GL237166  24.442  23.172   9.140
 2737POPC   C1A37167  24.203  23.038   8.698
 2737POPC   D2A37168  24.276  23.209   8.280
 2737POPC   C3A37169  24.221  22.851   7.968
 2737POPC   C4A37170  24.113  22.428   7.938
 2737POPC   C1B37171  24.670  22.898   8.838
 2737POPC   C2B37172  24.683  22.934   8.435
 2737POPC   C3B37173  24.685  23.011   8.051
 2737POPC   C4B37174  24.534  23.132   7.680
 2738POPC   NC337175  19.617  41.372   9.601
 2738POPC   PO437176  20.038  41.818   9.455
 2738POPC   GL137177  19.843  41.672   9.133
 2738POPC   GL237178  19.710  41.984   9.030
 2738POPC   C1A37179  19.809  41.589   8.689
 2738POPC   D2A37180  19.885  41.846   8.310
 2738POPC   C3A37181  19.622  41.760   7.953
 2738POPC   C4A37182  19.732  41.398   7.716
 2738POPC   C1B37183  20.146  41.950   8.795
 2738POPC   C2B37184  20.402  41.883   8.391
 2738POPC   C3B37185  20.270  42.038   7.987
 2738POPC   C4B37186  20.057  41.829   7.688
 2739POPC   NC337187  17.320  44.811   9.561
 2739POPC   PO437188  17.825  44.411   9.489
 2739POPC   GL137189  17.580  44.640   9.173
 2739POPC   GL237190  17.588   0.003   9.147
 2739POPC   C1A37191  17.300  44.660   8.846
 2739POPC   D2A37192  17.375  44.446   8.476
 2739POPC   C3A37193  17.097  44.496   8.166
 2739POPC   C4A37194  17.220  44.637   7.764
 2739POPC   C1B37195  17.769  44.848   8.746
 2739POPC   C2B37196  17.938  45.000   8.375
 2739POPC   C3B37197  17.802   0.168   7.986
 2739POPC   C4B37198  17.798  44.811   7.733
 2740POPC   NC337199  21.493  39.400   9.374
 2740POPC   PO437200  21.025  38.846   9.503
 2740POPC   GL137201  21.342  38.880   9.131
 2740POPC   GL237202  21.705  38.905   9.016
 2740POPC   C1A37203  21.319  39.114   8.722
 2740POPC   D2A37204  20.967  39.148   8.412
 2740POPC   C3A37205  21.027  39.117   7.966
 2740POPC   C4A37206  21.231  38.818   7.779
 2740POPC   C1B37207  21.865  39.286   8.826
 2740POPC   C2B37208  21.775  39.431   8.437
 2740POPC   C3B37209  21.478  39.195   8.186
 2740POPC   C4B37210  21.535  39.247   7.770
 2741POPC   NC337211  38.702   0.759   9.369
 2741POPC   PO437212  39.318   0.635   9.492
 2741POPC   GL137213  39.330   0.372   9.139
 2741POPC   GL237214  38.956   0.241   9.087
 2741POPC   C1A37215  39.620   0.455   8.778
 2741POPC   D2A37216  39.800   0.335   8.351
 2741POPC   C3A37217  39.598   0.552   7.989
 2741POPC   C4A37218  39.287   0.602   7.627
 2741POPC   C1B37219  39.025   0.591   8.803
 2741POPC   C2B37220  39.271   0.616   8.419
 2741POPC   C3B37221  39.126   0.392   8.062
 2741POPC   C4B37222  38.804   0.570   7.791
 2742POPC   NC337223  42.972  29.559   9.360
 2742POPC   PO437224  43.284  29.048   9.580
 2742POPC   GL137225  43.140  28.917   9.189
 2742POPC   GL237226  42.926  29.134   9.101
 2742POPC   C1A37227  43.215  29.020   8.730
 2742POPC   D2A37228  43.083  29.006   8.342
 2742POPC   C3A37229  43.351  28.996   8.060
 2742POPC   C4A37230  43.133  29.187   7.780
 2742POPC   C1B37231  42.817  29.376   8.753
 2742POPC   C2B37232  42.902  29.504   8.360
 2742POPC   C3B37233  42.711  29.342   8.016
 2742POPC   C4B37234  42.616  29.610   7.717
 2743POPC   NC337235  26.422  35.358   9.489
 2743POPC   PO437236  27.163  35.487   9.591
 2743POPC   GL137237  27.036  35.504   9.147
 2743POPC   GL237238  26.699  35.481   9.053
 2743POPC   C1A37239  27.065  35.318   8.716
 2743POPC   D2A37240  26.795  35.170   8.396
 2743POPC   C3A37241  26.869  35.366   8.006
 2743POPC   C4A37242  26.920  35.198   7.610
 2743POPC   C1B37243  26.484  35.711   8.712
 2743POPC   C2B37244  26.544  35.660   8.307
 2743POPC   C3B37245  26.378  35.562   7.902
 2743POPC   C4B37246  26.632  35.617   7.537
 2744POPC   NC337247  44.395  29.653   9.630
 2744POPC   PO437248  44.851  29.197   9.439
 2744POPC   GL137249  44.582  29.260   9.080
 2744POPC   GL237250  44.275  29.467   9.163
 2744POPC   C1A37251  44.623  29.130   8.650
 2744POPC   D2A37252  44.324  28.933   8.349
 2744POPC   C3A37253  44.506  28.809   7.987
 2744POPC   C4A37254  44.817  29.155   7.879
 2744POPC   C1B37255  44.163  29.296   8.757
 2744POPC   C2B37256  44.286  29.430   8.328
 2744POPC   C3B37257  44.291  29.248   7.916
 2744POPC   C4B37258  44.470  29.159   7.492
 2745POPC   NC337259  36.446   2.721   9.590
 2745POPC   PO437260  35.992   3.101   9.281
 2745POPC   GL137261  36.359   2.868   9.095
 2745POPC   GL237262  36.570   2.572   9.114
 2745POPC   C1A37263  36.246   2.742   8.714
 2745POPC   D2A37264  35.877   2.731   8.471
 2745POPC   C3A37265  35.996   2.678   8.066
 2745POPC   C4A37266  35.774   2.817   7.682
 2745POPC   C1B37267  36.555   2.345   8.752
 2745POPC   C2B37268  36.313   2.307   8.393
 2745POPC   C3B37269  36.444   2.370   7.987
 2745POPC   C4B37270  36.162   2.495   7.624
 2746POPC   NC337271  25.526  31.400   9.586
 2746POPC   PO437272  25.068  31.698   9.220
 2746POPC   GL137273  25.321  31.403   9.052
 2746POPC   GL237274  25.616  31.584   9.108
 2746POPC   C1A37275  25.232  31.167   8.660
 2746POPC   D2A37276  25.388  31.253   8.235
 2746POPC   C3A37277  25.286  31.321   7.793
 2746POPC   C4A37278  25.078  31.655   7.600
 2746POPC   C1B37279  25.708  31.851   8.749
 2746POPC   C2B37280  25.497  31.978   8.422
 2746POPC   C3B37281  25.423  31.735   8.065
 2746POPC   C4B37282  25.559  31.768   7.672
 2747POPC   NC337283  17.469   0.800   9.529
 2747POPC   PO437284  17.203   0.255   9.490
 2747POPC   GL137285  17.341   0.467   9.138
 2747POPC   GL237286  17.723   0.510   9.194
 2747POPC   C1A37287  17.410   0.284   8.725
 2747POPC   D2A37288  17.341  44.969   8.408
 2747POPC   C3A37289  17.208   0.128   8.005
 2747POPC   C4A37290  17.416   0.147   7.630
 2747POPC   C1B37291  17.616   0.750   8.816
 2747POPC   C2B37292  17.381   0.726   8.401
 2747POPC   C3B37293  17.494   0.609   7.939
 2747POPC   C4B37294  17.532   0.608   7.458
 2748POPC   NC337295  33.972  34.979   9.506
 2748POPC   PO437296  33.835  35.618   9.599
 2748POPC   GL137297  33.729  35.356   9.253
 2748POPC   GL237298  33.423  35.487   9.096
 2748POPC   C1A37299  33.846  35.245   8.844
 2748POPC   D2A37300  33.775  35.471   8.459
 2748POPC   C3A37301  33.802  35.292   8.071
 2748POPC   C4A37302  34.095  35.248   7.755
 2748POPC   C1B37303  33.527  35.778   8.768
 2748POPC   C2B37304  33.403  35.844   8.331
 2748POPC   C3B37305  33.467  35.674   7.907
 2748POPC   C4B37306  33.646  35.401   7.590
 2749POPC   NC337307  34.531  43.885   9.490
 2749POPC   PO437308  34.940  44.347   9.231
 2749POPC   GL137309  34.648  44.056   9.013
 2749POPC   GL237310  34.324  43.837   9.042
 2749POPC   C1A37311  34.517  43.961   8.596
 2749POPC   D2A37312  34.350  44.109   8.216
 2749POPC   C3A37313  34.578  43.904   7.891
 2749POPC   C4A37314  34.850  43.934   7.557
 2749POPC   C1B37315  34.279  43.527   8.710
 2749POPC   C2B37316  34.315  43.619   8.265
 2749POPC   C3B37317  34.172  43.402   7.906
 2749POPC   C4B37318  34.499  43.432   7.648
 2750POPC   NC337319  43.812   6.947   9.543
 2750POPC   PO437320  44.099   6.292   9.432
 2750POPC   GL137321  43.787   6.421   9.107
 2750POPC   GL237322  43.748   6.807   9.057
 2750POPC   C1A37323  43.829   6.504   8.657
 2750POPC   D2A37324  43.657   6.787   8.351
 2750POPC   C3A37325  43.750   6.518   8.057
 2750POPC   C4A37326  43.585   6.497   7.696
 2750POPC   C1B37327  44.004   6.990   8.711
 2750POPC   C2B37328  44.164   6.814   8.332
 2750POPC   C3B37329  44.055   6.891   7.897
 2750POPC   C4B37330  44.119   6.594   7.553
 2751POPC   NC337331  38.960   9.823   9.336
 2751POPC   PO437332  38.373   9.761   9.640
 2751POPC   GL137333  38.507   9.618   9.214
 2751POPC   GL237334  38.487   9.942   9.055
 2751POPC   C1A37335  38.493   9.554   8.745
 2751POPC   D2A37336  38.693   9.646   8.347
 2751POPC   C3A37337  38.504   9.513   7.948
 2751POPC   C4A37338  38.494   9.568   7.489
 2751POPC   C1B37339  38.795  10.014   8.727
 2751POPC   C2B37340  38.641  10.174   8.361
 2751POPC   C3B37341  38.406  10.023   8.048
 2751POPC   C4B37342  38.574  10.023   7.689
 2752POPC   NC337343   9.610  11.539   9.496
 2752POPC   PO437344  10.121  11.072   9.456
 2752POPC   GL137345   9.856  11.240   9.084
 2752POPC   GL237346   9.495  11.327   9.051
 2752POPC   C1A37347   9.850  11.587   8.765
 2752POPC   D2A37348   9.632  11.616   8.367
 2752POPC   C3A37349   9.785  11.418   7.987
 2752POPC   C4A37350  10.079  11.272   7.650
 2752POPC   C1B37351   9.403  11.183   8.623
 2752POPC   C2B37352   9.418  10.975   8.218
 2752POPC   C3B37353   9.483  11.068   7.764
 2752POPC   C4B37354   9.257  11.209   7.339
 2753POPC   NC337355  24.125   6.017   9.732
 2753POPC   PO437356  23.634   5.580   9.586
 2753POPC   GL137357  23.607   5.714   9.172
 2753POPC   GL237358  23.833   5.458   9.102
 2753POPC   C1A37359  23.743   6.021   8.859
 2753POPC   D2A37360  23.966   5.981   8.454
 2753POPC   C3A37361  23.787   6.026   8.068
 2753POPC   C4A37362  23.907   5.968   7.659
 2753POPC   C1B37363  23.916   5.558   8.735
 2753POPC   C2B37364  23.743   5.504   8.361
 2753POPC   C3B37365  24.005   5.572   8.024
 2753POPC   C4B37366  23.935   5.438   7.628
 2754POPC   NC337367  32.884  37.684   9.629
 2754POPC   PO437368  33.270  38.108   9.359
 2754POPC   GL137369  33.063  37.840   9.117
 2754POPC   GL237370  33.127  37.491   9.084
 2754POPC   C1A37371  33.122  37.858   8.693
 2754POPC   D2A37372  32.837  37.974   8.374
 2754POPC   C3A37373  32.976  37.943   7.963
 2754POPC   C4A37374  32.915  38.055   7.566
 2754POPC   C1B37375  32.904  37.417   8.642
 2754POPC   C2B37376  32.946  37.478   8.156
 2754POPC   C3B37377  33.057  37.503   7.663
 2754POPC   C4B37378  33.020  37.371   7.168
 2755POPC   NC337379   6.173  30.311   9.606
 2755POPC   PO437380   5.762  30.894   9.476
 2755POPC   GL137381   5.926  30.796   9.130
 2755POPC   GL237382   5.960  30.482   9.154
 2755POPC   C1A37383   5.997  30.953   8.763
 2755POPC   D2A37384   5.902  30.713   8.441
 2755POPC   C3A37385   6.042  30.791   8.071
 2755POPC   C4A37386   5.799  30.882   7.742
 2755POPC   C1B37387   6.108  30.354   8.733
 2755POPC   C2B37388   6.345  30.445   8.309
 2755POPC   C3B37389   6.353  30.365   7.883
 2755POPC   C4B37390   5.988  30.430   7.651
 2756POPC   NC337391  26.774  32.612   9.780
 2756POPC   PO437392  26.913  33.182   9.471
 2756POPC   GL137393  26.854  32.880   9.142
 2756POPC   GL237394  26.840  33.153   8.946
 2756POPC   C1A37395  26.936  32.748   8.697
 2756POPC   D2A37396  26.992  33.120   8.409
 2756POPC   C3A37397  26.898  32.960   8.019
 2756POPC   C4A37398  27.101  32.921   7.610
 2756POPC   C1B37399  26.959  33.532   8.800
 2756POPC   C2B37400  27.107  33.698   8.413
 2756POPC   C3B37401  26.969  33.508   8.034
 2756POPC   C4B37402  26.732  33.299   7.692
 2757POPC   NC337403  11.286  38.886   9.635
 2757POPC   PO437404  11.626  38.290   9.541
 2757POPC   GL137405  11.401  38.389   9.158
 2757POPC   GL237406  11.248  38.722   9.155
 2757POPC   C1A37407  11.324  38.445   8.723
 2757POPC   D2A37408  11.367  38.236   8.340
 2757POPC   C3A37409  11.372  38.507   8.003
 2757POPC   C4A37410  11.047  38.399   7.737
 2757POPC   C1B37411  10.931  38.759   8.833
 2757POPC   C2B37412  11.046  38.757   8.363
 2757POPC   C3B37413  11.037  38.883   7.892
 2757POPC   C4B37414  11.019  38.758   7.388
 2758POPC   NC337415  24.932  39.719   9.404
 2758POPC   PO437416  25.331  40.227   9.458
 2758POPC   GL137417  25.348  40.086   9.068
 2758POPC   GL237418  25.522  39.797   9.228
 2758POPC   C1A37419  25.352  40.142   8.602
 2758POPC   D2A37420  25.232  39.988   8.179
 2758POPC   C3A37421  25.188  40.207   7.804
 2758POPC   C4A37422  25.152  40.041   7.384
 2758POPC   C1B37423  25.720  39.828   8.833
 2758POPC   C2B37424  25.564  39.699   8.452
 2758POPC   C3B37425  25.560  39.653   8.027
 2758POPC   C4B37426  25.549  39.882   7.697
 2759POPC   NC337427  39.513   4.169   9.695
 2759POPC   PO437428  39.005   4.058   9.299
 2759POPC   GL137429  39.207   4.309   9.040
 2759POPC   GL237430  39.315   4.614   9.230
 2759POPC   C1A37431  39.078   4.264   8.620
 2759POPC   D2A37432  38.989   3.991   8.282
 2759POPC   C3A37433  39.156   4.183   7.884
 2759POPC   C4A37434  39.222   4.090   7.435
 2759POPC   C1B37435  39.159   4.764   8.800
 2759POPC   C2B37436  39.385   4.619   8.393
 2759POPC   C3B37437  39.314   4.702   7.944
 2759POPC   C4B37438  39.204   4.582   7.532
 2760POPC   NC337439  16.023   0.116   9.610
 2760POPC   PO437440  16.376  44.808   9.138
 2760POPC   GL137441  16.131   0.162   9.077
 2760POPC   GL237442  15.975   0.486   9.103
 2760POPC   C1A37443  15.963   0.204   8.674
 2760POPC   D2A37444  15.952   0.483   8.372
 2760POPC   C3A37445  15.654   0.322   8.109
 2760POPC   C4A37446  15.838   0.237   7.743
 2760POPC   C1B37447  16.118   0.757   8.797
 2760POPC   C2B37448  16.397   0.744   8.441
 2760POPC   C3B37449  16.264   0.707   8.032
 2760POPC   C4B37450  16.306   0.446   7.700
 2761POPC   NC337451   1.684   8.756   9.374
 2761POPC   PO437452   2.317   9.057   9.410
 2761POPC   GL137453   2.032   9.164   9.040
 2761POPC   GL237454   1.899   8.871   8.933
 2761POPC   C1A37455   1.856   9.186   8.572
 2761POPC   D2A37456   1.854   8.746   8.414
 2761POPC   C3A37457   2.019   8.687   8.019
 2761POPC   C4A37458   1.939   9.005   7.753
 2761POPC   C1B37459   1.473   8.873   8.749
 2761POPC   C2B37460   1.398   9.015   8.361
 2761POPC   C3B37461   1.509   8.798   7.976
 2761POPC   C4B37462   1.452   8.683   7.539
 2762POPC   NC337463  36.060  21.135   9.520
 2762POPC   PO437464  36.435  21.587   9.443
 2762POPC   GL137465  36.292  21.385   9.114
 2762POPC   GL237466  36.397  21.049   9.143
 2762POPC   C1A37467  36.121  21.357   8.719
 2762POPC   D2A37468  35.998  21.150   8.355
 2762POPC   C3A37469  35.922  21.477   8.051
 2762POPC   C4A37470  35.902  21.627   7.651
 2762POPC   C1B37471  36.314  20.876   8.732
 2762POPC   C2B37472  36.506  21.002   8.347
 2762POPC   C3B37473  36.357  21.206   7.984
 2762POPC   C4B37474  36.415  21.540   7.678
 2763POPC   NC337475  33.346  11.917   9.543
 2763POPC   PO437476  32.751  11.795   9.170
 2763POPC   GL137477  32.852  12.237   9.119
 2763POPC   GL237478  33.195  12.302   9.239
 2763POPC   C1A37479  32.765  12.273   8.695
 2763POPC   D2A37480  32.837  11.845   8.480
 2763POPC   C3A37481  32.875  11.874   8.032
 2763POPC   C4A37482  32.785  12.203   7.751
 2763POPC   C1B37483  33.276  12.262   8.791
 2763POPC   C2B37484  33.126  12.361   8.357
 2763POPC   C3B37485  33.283  12.293   7.923
 2763POPC   C4B37486  33.257  12.035   7.543
 2764POPC   NC337487  24.989  28.673   9.488
 2764POPC   PO437488  25.291  29.329   9.477
 2764POPC   GL137489  25.001  29.177   9.168
 2764POPC   GL237490  24.863  28.849   9.033
 2764POPC   C1A37491  24.979  29.227   8.733
 2764POPC   D2A37492  25.270  29.231   8.426
 2764POPC   C3A37493  25.050  29.169   8.034
 2764POPC   C4A37494  25.187  29.252   7.625
 2764POPC   C1B37495  25.203  28.773   8.695
 2764POPC   C2B37496  25.267  28.743   8.253
 2764POPC   C3B37497  25.529  28.994   7.971
 2764POPC   C4B37498  25.720  28.778   7.651
 2765POPC   NC337499   9.448  36.739   9.588
 2765POPC   PO437500  10.128  36.569   9.738
 2765POPC   GL137501   9.939  36.741   9.271
 2765POPC   GL237502   9.621  36.873   9.147
 2765POPC   C1A37503   9.885  36.602   8.809
 2765POPC   D2A37504   9.988  36.514   8.372
 2765POPC   C3A37505   9.736  36.770   8.110
 2765POPC   C4A37506   9.663  36.913   7.685
 2765POPC   C1B37507   9.388  37.058   8.804
 2765POPC   C2B37508   9.273  36.914   8.398
 2765POPC   C3B37509   9.371  37.127   8.055
 2765POPC   C4B37510   9.265  37.250   7.702
 2766POPC   NC337511   4.844  32.175   9.705
 2766POPC   PO437512   4.234  31.999   9.542
 2766POPC   GL137513   4.541  32.093   9.222
 2766POPC   GL237514   4.729  31.800   9.130
 2766POPC   C1A37515   4.472  32.377   8.850
 2766POPC   D2A37516   4.297  32.469   8.447
 2766POPC   C3A37517   4.528  32.453   8.084
 2766POPC   C4A37518   4.359  32.493   7.701
 2766POPC   C1B37519   4.509  31.843   8.759
 2766POPC   C2B37520   4.459  31.996   8.384
 2766POPC   C3B37521   4.330  32.005   7.986
 2766POPC   C4B37522   4.455  31.967   7.594
 2767POPC   NC337523  40.924   7.974   9.538
 2767POPC   PO437524  41.064   7.308   9.457
 2767POPC   GL137525  40.848   7.454   9.115
 2767POPC   GL237526  40.616   7.702   9.180
 2767POPC   C1A37527  40.665   7.301   8.737
 2767POPC   D2A37528  40.830   7.302   8.344
 2767POPC   C3A37529  40.570   7.178   8.018
 2767POPC   C4A37530  40.681   7.302   7.658
 2767POPC   C1B37531  40.831   7.801   8.754
 2767POPC   C2B37532  40.659   7.812   8.347
 2767POPC   C3B37533  40.870   7.706   7.980
 2767POPC   C4B37534  41.283   7.562   7.834
 2768POPC   NC337535   3.274  40.807   9.366
 2768POPC   PO437536   2.742  41.082   9.671
 2768POPC   GL137537   2.802  40.965   9.220
 2768POPC   GL237538   2.829  40.617   9.132
 2768POPC   C1A37539   2.894  40.934   8.743
 2768POPC   D2A37540   2.746  40.799   8.325
 2768POPC   C3A37541   2.978  40.857   7.935
 2768POPC   C4A37542   2.894  40.930   7.512
 2768POPC   C1B37543   2.611  40.495   8.748
 2768POPC   C2B37544   2.576  40.316   8.331
 2768POPC   C3B37545   2.605  40.503   7.933
 2768POPC   C4B37546   2.433  40.865   7.715
 2769POPC   NC337547  33.618  18.639   9.329
 2769POPC   PO437548  33.593  19.375   9.508
 2769POPC   GL137549  33.633  19.265   9.077
 2769POPC   GL237550  33.798  18.976   8.995
 2769POPC   C1A37551  33.842  19.362   8.671
 2769POPC   D2A37552  33.925  19.553   8.275
 2769POPC   C3A37553  33.720  19.297   8.006
 2769POPC   C4A37554  33.924  19.140   7.692
 2769POPC   C1B37555  34.033  18.882   8.608
 2769POPC   C2B37556  34.077  18.679   8.198
 2769POPC   C3B37557  33.939  18.615   7.799
 2769POPC   C4B37558  33.561  18.756   7.758
 2770POPC   NC337559  35.931   8.393   9.484
 2770POPC   PO437560  36.539   8.092   9.470
 2770POPC   GL137561  36.238   8.065   9.117
 2770POPC   GL237562  36.133   8.419   9.025
 2770POPC   C1A37563  36.310   8.129   8.658
 2770POPC   D2A37564  36.088   8.406   8.379
 2770POPC   C3A37565  36.183   8.312   7.955
 2770POPC   C4A37566  36.282   8.328   7.503
 2770POPC   C1B37567  35.796   8.607   8.792
 2770POPC   C2B37568  35.621   8.656   8.369
 2770POPC   C3B37569  35.842   8.680   7.976
 2770POPC   C4B37570  35.774   8.364   7.646
 2771POPC   NC337571  34.292  14.864   9.527
 2771POPC   PO437572  34.555  15.491   9.560
 2771POPC   GL137573  34.531  15.232   9.219
 2771POPC   GL237574  34.178  15.255   9.201
 2771POPC   C1A37575  34.651  15.179   8.789
 2771POPC   D2A37576  34.699  15.473   8.449
 2771POPC   C3A37577  34.673  15.226   8.087
 2771POPC   C4A37578  34.528  15.236   7.689
 2771POPC   C1B37579  34.090  15.072   8.804
 2771POPC   C2B37580  34.279  15.130   8.424
 2771POPC   C3B37581  34.129  15.203   8.033
 2771POPC   C4B37582  34.086  14.976   7.702
 2772POPC   NC337583  10.917   0.892   9.256
 2772POPC   PO437584  10.526   1.293   9.671
 2772POPC   GL137585  10.559   1.316   9.229
 2772POPC   GL237586  10.822   1.591   9.199
 2772POPC   C1A37587  10.395   1.132   8.823
 2772POPC   D2A37588  10.366   1.217   8.362
 2772POPC   C3A37589  10.343   0.941   7.998
 2772POPC   C4A37590  10.497   1.035   7.603
 2772POPC   C1B37591  10.869   1.335   8.802
 2772POPC   C2B37592  10.901   1.125   8.405
 2772POPC   C3B37593  10.758   1.251   8.007
 2772POPC   C4B37594  10.838   1.406   7.611
 2773POPC   NC337595  21.405  29.818   9.285
 2773POPC   PO437596  21.110  30.354   9.636
 2773POPC   GL137597  21.240  30.301   9.210
 2773POPC   GL237598  21.047  30.130   9.081
 2773POPC   C1A37599  21.449  30.179   8.744
 2773POPC   D2A37600  21.469  30.039   8.273
 2773POPC   C3A37601  21.591  30.176   7.831
 2773POPC   C4A37602  21.654  30.150   7.360
 2773POPC   C1B37603  21.029  29.904   8.690
 2773POPC   C2B37604  20.943  29.924   8.249
 2773POPC   C3B37605  21.098  30.004   7.820
 2773POPC   C4B37606  21.143  30.281   7.450
 2774POPC   NC337607  23.902  21.051   9.465
 2774POPC   PO437608  23.364  21.530   9.513
 2774POPC   GL137609  23.662  21.475   9.186
 2774POPC   GL237610  23.571  21.129   9.090
 2774POPC   C1A37611  23.813  21.666   8.794
 2774POPC   D2A37612  23.663  21.809   8.421
 2774POPC   C3A37613  23.697  21.567   8.116
 2774POPC   C4A37614  23.629  21.540   7.727
 2774POPC   C1B37615  23.907  21.170   8.803
 2774POPC   C2B37616  23.878  21.182   8.390
 2774POPC   C3B37617  24.055  21.209   7.978
 2774POPC   C4B37618  23.983  21.220   7.538
 2775POPC   NC337619  41.791  26.367   9.537
 2775POPC   PO437620  41.203  26.022   9.449
 2775POPC   GL137621  41.417  25.967   9.095
 2775POPC   GL237622  41.200  25.706   9.048
 2775POPC   C1A37623  41.655  26.059   8.719
 2775POPC   D2A37624  41.627  26.297   8.319
 2775POPC   C3A37625  41.578  26.103   7.923
 2775POPC   C4A37626  41.344  26.219   7.591
 2775POPC   C1B37627  41.196  25.855   8.638
 2775POPC   C2B37628  41.437  25.807   8.314
 2775POPC   C3B37629  41.431  25.594   7.957
 2775POPC   C4B37630  41.529  25.734   7.532
 2776POPC   NC337631  13.898  24.881   9.358
 2776POPC   PO437632  13.733  25.482   9.424
 2776POPC   GL137633  13.567  25.412   9.031
 2776POPC   GL237634  13.472  25.102   9.123
 2776POPC   C1A37635  13.645  25.393   8.568
 2776POPC   D2A37636  13.409  25.576   8.214
 2776POPC   C3A37637  13.540  25.501   7.811
 2776POPC   C4A37638  13.938  25.371   7.729
 2776POPC   C1B37639  13.597  24.917   8.793
 2776POPC   C2B37640  13.812  24.921   8.469
 2776POPC   C3B37641  13.702  25.117   8.116
 2776POPC   C4B37642  13.657  24.937   7.723
 2777POPC   NC337643   1.110  22.765   9.650
 2777POPC   PO437644   1.693  23.032   9.568
 2777POPC   GL137645   1.466  22.798   9.260
 2777POPC   GL237646   1.239  23.015   9.176
 2777POPC   C1A37647   1.283  22.648   8.838
 2777POPC   D2A37648   1.144  22.820   8.447
 2777POPC   C3A37649   1.396  22.911   8.076
 2777POPC   C4A37650   1.119  22.803   7.751
 2777POPC   C1B37651   1.162  23.221   8.815
 2777POPC   C2B37652   1.362  23.308   8.459
 2777POPC   C3B37653   1.085  23.313   8.143
 2777POPC   C4B37654   1.091  23.333   7.732
 2778POPC   NC337655   9.275  28.856   9.489
 2778POPC   PO437656   8.642  28.883   9.265
 2778POPC   GL137657   8.993  28.903   9.030
 2778POPC   GL237658   9.111  29.230   9.088
 2778POPC   C1A37659   9.041  29.063   8.604
 2778POPC   D2A37660   9.040  29.343   8.282
 2778POPC   C3A37661   8.749  29.137   8.059
 2778POPC   C4A37662   8.850  28.816   7.792
 2778POPC   C1B37663   9.395  29.392   8.753
 2778POPC   C2B37664   9.541  29.225   8.336
 2778POPC   C3B37665   9.457  29.443   7.962
 2778POPC   C4B37666   9.132  29.243   7.750
 2779POPC   NC337667  18.361  14.475   9.448
 2779POPC   PO437668  18.143  13.860   9.550
 2779POPC   GL137669  18.202  14.102   9.125
 2779POPC   GL237670  18.576  14.216   9.080
 2779POPC   C1A37671  18.169  14.359   8.736
 2779POPC   D2A37672  18.127  14.368   8.299
 2779POPC   C3A37673  18.008  14.626   7.964
 2779POPC   C4A37674  17.898  14.504   7.540
 2779POPC   C1B37675  18.614  14.599   8.801
 2779POPC   C2B37676  18.773  14.678   8.372
 2779POPC   C3B37677  18.579  14.655   7.989
 2779POPC   C4B37678  18.403  14.637   7.594
 2780POPC   NC337679  43.381   0.424   9.453
 2780POPC   PO437680  43.056  44.825   9.567
 2780POPC   GL137681  43.206   0.013   9.165
 2780POPC   GL237682  42.939   0.227   9.137
 2780POPC   C1A37683  43.277   0.317   8.779
 2780POPC   D2A37684  43.299   0.291   8.327
 2780POPC   C3A37685  43.467   0.575   8.018
 2780POPC   C4A37686  43.406   0.493   7.597
 2780POPC   C1B37687  42.800   0.097   8.728
 2780POPC   C2B37688  42.782   0.234   8.298
 2780POPC   C3B37689  42.926   0.559   8.002
 2780POPC   C4B37690  42.864   0.714   7.582
 2781POPC   NC337691  14.810  25.008   9.268
 2781POPC   PO437692  14.442  24.485   9.590
 2781POPC   GL137693  14.362  24.566   9.157
 2781POPC   GL237694  14.075  24.405   9.169
 2781POPC   C1A37695  14.483  24.415   8.739
 2781POPC   D2A37696  14.417  24.097   8.407
 2781POPC   C3A37697  14.502  24.312   8.019
 2781POPC   C4A37698  14.678  24.380   7.612
 2781POPC   C1B37699  13.979  24.553   8.778
 2781POPC   C2B37700  14.144  24.551   8.371
 2781POPC   C3B37701  14.125  24.753   8.009
 2781POPC   C4B37702  14.194  24.534   7.642
 2782POPC   NC337703  17.495  29.704   9.399
 2782POPC   PO437704  17.673  30.329   9.437
 2782POPC   GL137705  17.514  30.137   9.067
 2782POPC   GL237706  17.288  29.902   8.995
 2782POPC   C1A37707  17.305  30.332   8.731
 2782POPC   D2A37708  17.231  30.276   8.331
 2782POPC   C3A37709  17.596  30.166   8.167
 2782POPC   C4A37710  17.598  30.215   7.790
 2782POPC   C1B37711  17.314  29.825   8.589
 2782POPC   C2B37712  17.553  29.674   8.276
 2782POPC   C3B37713  17.513  29.694   7.841
 2782POPC   C4B37714  17.180  29.455   7.590
 2783POPC   NC337715  27.883  23.719   9.771
 2783POPC   PO437716  27.322  23.884   9.561
 2783POPC   GL137717  27.657  23.708   9.305
 2783POPC   GL237718  27.530  23.963   9.099
 2783POPC   C1A37719  27.702  23.563   8.849
 2783POPC   D2A37720  27.545  23.709   8.441
 2783POPC   C3A37721  27.691  23.794   8.021
 2783POPC   C4A37722  27.884  23.725   7.647
 2783POPC   C1B37723  27.234  23.976   8.764
 2783POPC   C2B37724  27.106  24.013   8.314
 2783POPC   C3B37725  27.283  24.115   7.904
 2783POPC   C4B37726  27.409  23.862   7.542
 2784POPC   NC337727  15.553  10.397   9.475
 2784POPC   PO437728  15.240  10.905   9.487
 2784POPC   GL137729  15.088  10.661   9.171
 2784POPC   GL237730  15.158  10.327   9.142
 2784POPC   C1A37731  14.965  10.634   8.754
 2784POPC   D2A37732  15.146  10.469   8.374
 2784POPC   C3A37733  15.123  10.566   7.936
 2784POPC   C4A37734  15.503  10.693   7.740
 2784POPC   C1B37735  15.405  10.225   8.758
 2784POPC   C2B37736  15.577  10.170   8.325
 2784POPC   C3B37737  15.449  10.157   7.878
 2784POPC   C4B37738  15.338  10.301   7.457
 2785POPC   NC337739  26.519  34.526   9.319
 2785POPC   PO437740  27.220  34.723   9.362
 2785POPC   GL137741  26.939  34.678   9.069
 2785POPC   GL237742  26.767  34.981   9.023
 2785POPC   C1A37743  27.015  34.566   8.688
 2785POPC   D2A37744  27.193  34.799   8.389
 2785POPC   C3A37745  27.149  34.559   8.065
 2785POPC   C4A37746  26.834  34.535   7.805
 2785POPC   C1B37747  26.551  34.761   8.688
 2785POPC   C2B37748  26.661  34.660   8.292
 2785POPC   C3B37749  26.367  34.527   8.009
 2785POPC   C4B37750  26.370  34.662   7.609
 2786POPC   NC337751  30.428  25.645   9.226
 2786POPC   PO437752  30.733  25.037   9.435
 2786POPC   GL137753  30.651  25.165   9.024
 2786POPC   GL237754  30.323  25.120   8.914
 2786POPC   C1A37755  30.733  25.154   8.564
 2786POPC   D2A37756  30.910  24.992   8.181
 2786POPC   C3A37757  30.699  25.121   7.797
 2786POPC   C4A37758  30.791  25.051   7.343
 2786POPC   C1B37759  30.325  25.474   8.596
 2786POPC   C2B37760  30.451  25.532   8.165
 2786POPC   C3B37761  30.283  25.608   7.782
 2786POPC   C4B37762  30.499  25.421   7.436
 2787POPC   NC337763   8.668  43.487   9.585
 2787POPC   PO437764   8.021  43.165   9.455
 2787POPC   GL137765   8.100  43.288   9.074
 2787POPC   GL237766   8.441  43.316   9.162
 2787POPC   C1A37767   7.919  43.139   8.698
 2787POPC   D2A37768   7.884  42.857   8.324
 2787POPC   C3A37769   7.941  43.078   7.954
 2787POPC   C4A37770   7.860  43.104   7.512
 2787POPC   C1B37771   8.499  43.230   8.735
 2787POPC   C2B37772   8.334  43.087   8.369
 2787POPC   C3B37773   8.361  42.802   8.054
 2787POPC   C4B37774   8.400  43.097   7.708
 2788POPC   NC337775  20.895  34.084   9.408
 2788POPC   PO437776  21.532  33.823   9.595
 2788POPC   GL137777  21.348  33.772   9.204
 2788POPC   GL237778  21.206  34.045   9.007
 2788POPC   C1A37779  21.532  33.612   8.852
 2788POPC   D2A37780  21.787  33.719   8.524
 2788POPC   C3A37781  21.492  33.720   8.209
 2788POPC   C4A37782  21.350  33.606   7.830
 2788POPC   C1B37783  21.149  33.864   8.581
 2788POPC   C2B37784  20.972  33.775   8.149
 2788POPC   C3B37785  21.054  34.021   7.757
 2788POPC   C4B37786  21.146  34.201   7.380
 2789POPC   NC337787   3.921  43.904   9.319
 2789POPC   PO437788   4.547  43.834   9.577
 2789POPC   GL137789   4.399  43.771   9.191
 2789POPC   GL237790   4.338  44.124   9.113
 2789POPC   C1A37791   4.486  43.753   8.761
 2789POPC   D2A37792   4.200  43.743   8.427
 2789POPC   C3A37793   4.411  43.785   8.045
 2789POPC   C4A37794   4.463  43.885   7.618
 2789POPC   C1B37795   4.000  44.300   8.805
 2789POPC   C2B37796   3.926  44.173   8.375
 2789POPC   C3B37797   4.116  44.212   7.949
 2789POPC   C4B37798   4.129  44.219   7.484
 2790POPC   NC337799  25.984  35.704   9.401
 2790POPC   PO437800  26.049  35.078   9.691
 2790POPC   GL137801  25.944  35.254   9.174
 2790POPC   GL237802  26.196  35.435   9.034
 2790POPC   C1A37803  25.814  35.365   8.722
 2790POPC   D2A37804  26.063  35.493   8.351
 2790POPC   C3A37805  25.850  35.472   7.951
 2790POPC   C4A37806  25.909  35.366   7.521
 2790POPC   C1B37807  26.352  35.226   8.686
 2790POPC   C2B37808  26.302  35.018   8.302
 2790POPC   C3B37809  26.516  35.022   7.931
 2790POPC   C4B37810  26.388  35.161   7.535
 2791POPC   NC337811  44.786   1.456   9.613
 2791POPC   PO437812  44.383   0.985   9.470
 2791POPC   GL137813  44.650   1.202   9.185
 2791POPC   GL237814  44.478   1.539   9.190
 2791POPC   C1A37815  44.746   1.057   8.766
 2791POPC   D2A37816  44.859   1.284   8.395
 2791POPC   C3A37817  44.675   1.260   8.041
 2791POPC   C4A37818  44.847   1.230   7.680
 2791POPC   C1B37819  44.293   1.299   8.820
 2791POPC   C2B37820  44.343   1.112   8.417
 2791POPC   C3B37821  44.173   1.298   8.044
 2791POPC   C4B37822  44.337   1.287   7.642
 2792POPC   NC337823  32.755  24.626   9.332
 2792POPC   PO437824  33.036  24.059   9.316
 2792POPC   GL137825  33.083  24.395   9.028
 2792POPC   GL237826  33.270  24.636   9.235
 2792POPC   C1A37827  33.002  24.572   8.612
 2792POPC   D2A37828  33.091  24.365   8.224
 2792POPC   C3A37829  32.883  24.462   7.855
 2792POPC   C4A37830  32.893  24.434   7.376
 2792POPC   C1B37831  33.466  24.681   8.840
 2792POPC   C2B37832  33.533  24.672   8.393
 2792POPC   C3B37833  33.362  24.700   7.955
 2792POPC   C4B37834  33.430  24.718   7.504
 2793POPC   NC337835  21.975   7.112   9.465
 2793POPC   PO437836  22.510   7.619   9.514
 2793POPC   GL137837  22.221   7.501   9.189
 2793POPC   GL237838  22.429   7.195   9.181
 2793POPC   C1A37839  22.194   7.586   8.731
 2793POPC   D2A37840  22.449   7.535   8.379
 2793POPC   C3A37841  22.291   7.389   7.997
 2793POPC   C4A37842  21.998   7.461   7.680
 2793POPC   C1B37843  22.236   7.108   8.811
 2793POPC   C2B37844  22.047   7.172   8.426
 2793POPC   C3B37845  22.114   6.901   8.126
 2793POPC   C4B37846  22.083   6.958   7.745
 2794POPC   NC337847  18.686   7.320   9.523
 2794POPC   PO437848  19.187   7.773   9.499
 2794POPC   GL137849  19.331   7.545   9.112
 2794POPC   GL237850  19.181   7.194   9.102
 2794POPC   C1A37851  19.186   7.501   8.657
 2794POPC   D2A37852  19.270   7.284   8.248
 2794POPC   C3A37853  19.237   7.536   7.882
 2794POPC   C4A37854  18.877   7.709   7.690
 2794POPC   C1B37855  19.049   6.989   8.704
 2794POPC   C2B37856  18.808   7.101   8.349
 2794POPC   C3B37857  18.800   7.251   7.926
 2794POPC   C4B37858  18.573   7.308   7.527
 2795POPC   NC337859  34.895  10.670   9.488
 2795POPC   PO437860  34.391  10.151   9.490
 2795POPC   GL137861  34.644  10.264   9.124
 2795POPC   GL237862  34.659  10.632   9.067
 2795POPC   C1A37863  34.669  10.357   8.668
 2795POPC   D2A37864  34.428  10.264   8.357
 2795POPC   C3A37865  34.624  10.433   8.039
 2795POPC   C4A37866  34.521  10.497   7.638
 2795POPC   C1B37867  34.737  10.940   8.790
 2795POPC   C2B37868  34.787  10.816   8.388
 2795POPC   C3B37869  34.672  10.930   8.009
 2795POPC   C4B37870  34.901  10.789   7.646
 2796POPC   NC337871  32.979  29.469   9.222
 2796POPC   PO437872  33.036  30.002   9.608
 2796POPC   GL137873  32.970  30.035   9.177
 2796POPC   GL237874  32.726  30.307   9.185
 2796POPC   C1A37875  33.178  29.906   8.747
 2796POPC   D2A37876  33.160  29.642   8.365
 2796POPC   C3A37877  33.064  29.826   7.959
 2796POPC   C4A37878  33.220  29.955   7.546
 2796POPC   C1B37879  32.665  30.072   8.772
 2796POPC   C2B37880  32.729  29.928   8.363
 2796POPC   C3B37881  32.542  29.811   7.964
 2796POPC   C4B37882  32.686  30.125   7.681
 2797POPC   NC337883   9.455  28.170   9.539
 2797POPC   PO437884   8.931  28.615   9.691
 2797POPC   GL137885   8.994  28.430   9.270
 2797POPC   GL237886   8.688  28.410   9.034
 2797POPC   C1A37887   9.166  28.432   8.843
 2797POPC   D2A37888   8.938  28.260   8.480
 2797POPC   C3A37889   9.077  28.377   8.099
 2797POPC   C4A37890   9.143  28.417   7.680
 2797POPC   C1B37891   8.724  28.668   8.658
 2797POPC   C2B37892   8.672  28.637   8.222
 2797POPC   C3B37893   8.606  28.384   7.829
 2797POPC   C4B37894   8.488  28.627   7.445
 2798POPC   NC337895  11.118  15.277   9.444
 2798POPC   PO437896  11.660  14.886   9.544
 2798POPC   GL137897  11.477  15.030   9.141
 2798POPC   GL237898  11.466  15.403   9.082
 2798POPC   C1A37899  11.239  15.028   8.738
 2798POPC   D2A37900  11.317  15.262   8.350
 2798POPC   C3A37901  11.253  15.094   7.940
 2798POPC   C4A37902  11.436  14.748   7.763
 2798POPC   C1B37903  11.053  15.497   8.825
 2798POPC   C2B37904  10.852  15.462   8.415
 2798POPC   C3B37905  11.043  15.569   8.029
 2798POPC   C4B37906  11.446  15.567   7.800
 2799POPC   NC337907  14.096  44.350   9.988
 2799POPC   PO437908  14.424  44.836   9.551
 2799POPC   GL137909  14.376  44.571   9.196
 2799POPC   GL237910  14.068  44.365   9.220
 2799POPC   C1A37911  14.447  44.732   8.776
 2799POPC   D2A37912  14.376  44.882   8.355
 2799POPC   C3A37913  14.674  44.717   8.055
 2799POPC   C4A37914  14.465  44.723   7.650
 2799POPC   C1B37915  13.951  44.474   8.791
 2799POPC   C2B37916  13.963  44.433   8.352
 2799POPC   C3B37917  13.993  44.606   7.934
 2799POPC   C4B37918  14.031  44.386   7.546
 2800POPC   NC337919   6.606  21.128   9.498
 2800POPC   PO437920   6.071  21.491   9.448
 2800POPC   GL137921   6.364  21.506   9.103
 2800POPC   GL237922   6.448  21.174   9.017
 2800POPC   C1A37923   6.458  21.557   8.643
 2800POPC   D2A37924   6.587  21.280   8.302
 2800POPC   C3A37925   6.732  21.446   7.916
 2800POPC   C4A37926   6.597  21.666   7.551
 2800POPC   C1B37927   6.837  21.207   8.757
 2800POPC   C2B37928   6.989  20.901   8.476
 2800POPC   C3B37929   6.978  21.000   8.078
 2800POPC   C4B37930   7.006  21.106   7.666
 2801POPC   NC337931  24.805  41.253   9.253
 2801POPC   PO437932  24.504  41.811   9.562
 2801POPC   GL137933  24.524  41.649   9.092
 2801POPC   GL237934  24.248  41.459   8.971
 2801POPC   C1A37935  24.635  41.418   8.659
 2801POPC   D2A37936  24.739  41.566   8.245
 2801POPC   C3A37937  24.543  41.519   7.854
 2801POPC   C4A37938  24.755  41.781   7.574
 2801POPC   C1B37939  24.248  41.762   8.647
 2801POPC   C2B37940  24.259  41.794   8.199
 2801POPC   C3B37941  24.283  41.937   7.762
 2801POPC   C4B37942  24.307  41.647   7.393
 2802POPC   NC337943  24.669  15.872   9.697
 2802POPC   PO437944  25.244  16.103   9.467
 2802POPC   GL137945  25.168  15.809   9.134
 2802POPC   GL237946  24.855  15.686   9.213
 2802POPC   C1A37947  25.333  15.905   8.719
 2802POPC   D2A37948  25.610  15.899   8.356
 2802POPC   C3A37949  25.324  15.911   8.018
 2802POPC   C4A37950  25.143  15.976   7.612
 2802POPC   C1B37951  24.946  15.486   8.794
 2802POPC   C2B37952  24.767  15.462   8.369
 2802POPC   C3B37953  24.876  15.636   7.946
 2802POPC   C4B37954  24.880  15.543   7.476
 2803POPC   NC337955  43.065  31.257   9.625
 2803POPC   PO437956  42.662  31.754   9.769
 2803POPC   GL137957  42.727  31.441   9.290
 2803POPC   GL237958  43.079  31.362   9.136
 2803POPC   C1A37959  42.731  31.467   8.792
 2803POPC   D2A37960  42.612  31.408   8.366
 2803POPC   C3A37961  42.888  31.443   8.003
 2803POPC   C4A37962  42.873  31.717   7.632
 2803POPC   C1B37963  43.413  31.253   8.796
 2803POPC   C2B37964  43.475  31.341   8.372
 2803POPC   C3B37965  43.347  31.179   7.982
 2803POPC   C4B37966  43.236  31.363   7.612
 2804POPC   NC337967  32.624  38.429   9.566
 2804POPC   PO437968  31.875  38.296   9.542
 2804POPC   GL137969  32.057  38.549   9.236
 2804POPC   GL237970  32.368  38.522   9.156
 2804POPC   C1A37971  32.033  38.588   8.782
 2804POPC   D2A37972  32.254  38.314   8.529
 2804POPC   C3A37973  32.043  38.292   8.146
 2804POPC   C4A37974  31.990  38.610   7.819
 2804POPC   C1B37975  32.693  38.618   8.881
 2804POPC   C2B37976  32.734  38.521   8.461
 2804POPC   C3B37977  32.519  38.467   8.118
 2804POPC   C4B37978  32.465  38.267   7.783
 2805POPC   NC337979  20.821  13.754   9.534
 2805POPC   PO437980  20.355  13.229   9.527
 2805POPC   GL137981  20.582  13.428   9.195
 2805POPC   GL237982  20.540  13.796   9.100
 2805POPC   C1A37983  20.503  13.384   8.781
 2805POPC   D2A37984  20.558  13.588   8.370
 2805POPC   C3A37985  20.542  13.328   7.992
 2805POPC   C4A37986  20.607  13.312   7.547
 2805POPC   C1B37987  20.359  14.066   8.786
 2805POPC   C2B37988  20.254  14.024   8.348
 2805POPC   C3B37989  20.475  13.927   7.966
 2805POPC   C4B37990  20.354  14.116   7.576
 2806POPC   NC337991   8.713  11.122   9.641
 2806POPC   PO437992   8.130  11.405   9.417
 2806POPC   GL137993   8.190  11.143   9.055
 2806POPC   GL237994   8.474  11.315   9.045
 2806POPC   C1A37995   8.347  11.019   8.599
 2806POPC   D2A37996   8.514  11.279   8.248
 2806POPC   C3A37997   8.185  11.362   7.988
 2806POPC   C4A37998   8.231  11.105   7.655
 2806POPC   C1B37999   8.363  11.508   8.684
 2806POPC   C2B38000   8.325  11.752   8.323
 2806POPC   C3B38001   8.460  11.807   7.905
 2806POPC   C4B38002   8.285  11.603   7.541
 2807POPC   NC338003  44.370   5.501   9.560
 2807POPC   PO438004  44.951   5.827   9.653
 2807POPC   GL138005  44.838   5.830   9.237
 2807POPC   GL238006  44.703   5.536   9.172
 2807POPC   C1A38007  44.684   5.889   8.811
 2807POPC   D2A38008  44.752   5.763   8.407
 2807POPC   C3A38009  44.699   6.106   8.118
 2807POPC   C4A38010  44.484   6.044   7.722
 2807POPC   C1B38011  44.342   5.490   8.863
 2807POPC   C2B38012  44.205   5.674   8.477
 2807POPC   C3B38013  44.365   5.676   8.065
 2807POPC   C4B38014  44.566   5.440   7.751
 2808POPC   NC338015  10.306   4.245   9.539
 2808POPC   PO438016  10.923   4.097   9.680
 2808POPC   GL138017  10.751   4.256   9.231
 2808POPC   GL238018  10.630   4.570   9.250
 2808POPC   C1A38019  10.504   4.290   8.798
 2808POPC   D2A38020  10.328   4.214   8.385
 2808POPC   C3A38021  10.545   4.176   8.023
 2808POPC   C4A38022  10.466   4.027   7.624
 2808POPC   C1B38023  10.740   4.729   8.818
 2808POPC   C2B38024  10.624   4.631   8.412
 2808POPC   C3B38025  10.682   4.686   7.997
 2808POPC   C4B38026  10.484   4.543   7.664
 2809POPC   NC338027   0.721  41.656   9.479
 2809POPC   PO438028   0.087  41.929   9.380
 2809POPC   GL138029   0.387  41.823   9.103
 2809POPC   GL238030   0.370  41.454   9.094
 2809POPC   C1A38031   0.400  41.722   8.670
 2809POPC   D2A38032   0.468  41.427   8.373
 2809POPC   C3A38033   0.430  41.602   7.939
 2809POPC   C4A38034   0.311  41.468   7.495
 2809POPC   C1B38035   0.762  41.376   8.887
 2809POPC   C2B38036   0.970  41.399   8.508
 2809POPC   C3B38037   0.903  41.426   8.091
 2809POPC   C4B38038   0.762  41.324   7.693
 2810POPC   NC338039  22.996  14.071   9.528
 2810POPC   PO438040  22.564  14.519   9.539
 2810POPC   GL138041  22.816  14.475   9.151
 2810POPC   GL238042  22.684  14.146   9.099
 2810POPC   C1A38043  23.213  14.442   8.846
 2810POPC   D2A38044  23.414  14.663   8.444
 2810POPC   C3A38045  23.379  14.512   7.988
 2810POPC   C4A38046  23.256  14.516   7.509
 2810POPC   C1B38047  22.877  14.108   8.690
 2810POPC   C2B38048  22.928  14.466   8.415
 2810POPC   C3B38049  22.748  14.535   8.056
 2810POPC   C4B38050  22.784  14.431   7.662
 2811POPC   NC338051  37.316  15.045   9.495
 2811POPC   PO438052  37.913  15.247   9.471
 2811POPC   GL138053  37.618  15.332   9.151
 2811POPC   GL238054  37.714  15.070   8.991
 2811POPC   C1A38055  37.505  15.456   8.744
 2811POPC   D2A38056  37.667  15.122   8.476
 2811POPC   C3A38057  37.703  15.186   8.082
 2811POPC   C4A38058  37.511  15.139   7.708
 2811POPC   C1B38059  38.010  15.352   8.782
 2811POPC   C2B38060  38.213  15.344   8.358
 2811POPC   C3B38061  38.127  15.394   7.897
 2811POPC   C4B38062  37.987  15.199   7.507
 2812POPC   NC338063  27.923  13.776   9.415
 2812POPC   PO438064  27.355  13.500   9.377
 2812POPC   GL138065  27.498  13.846   9.070
 2812POPC   GL238066  27.841  13.817   8.907
 2812POPC   C1A38067  27.415  14.004   8.659
 2812POPC   D2A38068  27.347  13.707   8.343
 2812POPC   C3A38069  27.586  13.684   8.000
 2812POPC   C4A38070  27.974  13.561   7.869
 2812POPC   C1B38071  27.563  13.454   8.745
 2812POPC   C2B38072  27.492  13.201   8.373
 2812POPC   C3B38073  27.602  13.154   7.964
 2812POPC   C4B38074  27.595  13.374   7.552
 2813POPC   NC338075  41.979  16.706   9.446
 2813POPC   PO438076  42.446  17.143   9.681
 2813POPC   GL138077  42.554  16.880   9.308
 2813POPC   GL238078  42.361  16.628   9.130
 2813POPC   C1A38079  42.596  16.964   8.847
 2813POPC   D2A38080  42.309  16.740   8.519
 2813POPC   C3A38081  42.347  16.813   8.054
 2813POPC   C4A38082  42.639  16.858   7.649
 2813POPC   C1B38083  42.165  16.316   8.844
 2813POPC   C2B38084  41.980  16.326   8.431
 2813POPC   C3B38085  42.142  16.288   8.024
 2813POPC   C4B38086  42.235  16.528   7.639
 2814POPC   NC338087  35.696  15.483   9.469
 2814POPC   PO438088  36.279  15.157   9.350
 2814POPC   GL138089  35.930  15.038   9.091
 2814POPC   GL238090  35.900  15.328   8.894
 2814POPC   C1A38091  35.965  14.853   8.657
 2814POPC   D2A38092  36.095  15.032   8.257
 2814POPC   C3A38093  35.949  14.869   7.864
 2814POPC   C4A38094  36.293  15.041   7.663
 2814POPC   C1B38095  36.338  15.193   8.706
 2814POPC   C2B38096  36.561  15.357   8.346
 2814POPC   C3B38097  36.404  15.473   7.946
 2814POPC   C4B38098  35.961  15.385   7.859
 2815POPC   NC338099  12.487  36.890   9.709
 2815POPC   PO438100  12.944  36.354   9.691
 2815POPC   GL138101  12.911  36.542   9.246
 2815POPC   GL238102  12.580  36.679   9.227
 2815POPC   C1A38103  12.921  36.824   8.856
 2815POPC   D2A38104  12.922  36.650   8.435
 2815POPC   C3A38105  12.956  36.865   8.057
 2815POPC   C4A38106  13.101  36.932   7.645
 2815POPC   C1B38107  12.549  36.466   8.830
 2815POPC   C2B38108  12.422  36.609   8.453
 2815POPC   C3B38109  12.532  36.506   8.058
 2815POPC   C4B38110  12.655  36.668   7.682
 2816POPC   NC338111  30.999  33.342   9.173
 2816POPC   PO438112  30.612  32.915   9.562
 2816POPC   GL138113  30.651  32.975   9.114
 2816POPC   GL238114  31.015  32.837   9.047
 2816POPC   C1A38115  30.501  33.197   8.705
 2816POPC   D2A38116  30.710  33.240   8.299
 2816POPC   C3A38117  30.440  33.364   7.964
 2816POPC   C4A38118  30.461  33.293   7.515
 2816POPC   C1B38119  30.905  32.898   8.650
 2816POPC   C2B38120  30.545  32.688   8.491
 2816POPC   C3B38121  30.396  32.853   8.131
 2816POPC   C4B38122  30.745  32.989   7.838
 2817POPC   NC338123  11.387  39.694   9.842
 2817POPC   PO438124  11.326  40.153   9.329
 2817POPC   GL138125  11.509  39.961   9.029
 2817POPC   GL238126  11.248  39.930   8.855
 2817POPC   C1A38127  11.746  40.059   8.695
 2817POPC   D2A38128  11.589  40.182   8.313
 2817POPC   C3A38129  11.677  40.161   7.870
 2817POPC   C4A38130  11.585  40.006   7.458
 2817POPC   C1B38131  11.038  39.601   8.688
 2817POPC   C2B38132  10.831  39.651   8.320
 2817POPC   C3B38133  10.953  39.927   7.971
 2817POPC   C4B38134  11.084  39.780   7.572
 2818POPC   NC338135  36.453  12.093   9.382
 2818POPC   PO438136  35.921  11.750   9.650
 2818POPC   GL138137  35.991  12.093   9.210
 2818POPC   GL238138  36.278  11.939   8.928
 2818POPC   C1A38139  36.120  12.380   8.829
 2818POPC   D2A38140  36.151  12.176   8.452
 2818POPC   C3A38141  36.018  12.347   8.080
 2818POPC   C4A38142  36.271  12.259   7.743
 2818POPC   C1B38143  36.287  11.656   8.550
 2818POPC   C2B38144  36.352  11.676   8.097
 2818POPC   C3B38145  36.158  11.760   7.684
 2818POPC   C4B38146  36.068  11.790   7.205
 2819POPC   NC338147  37.918  11.118   9.472
 2819POPC   PO438148  38.369  11.579   9.449
 2819POPC   GL138149  38.505  11.357   9.112
 2819POPC   GL238150  38.335  11.095   9.169
 2819POPC   C1A38151  38.682  11.508   8.768
 2819POPC   D2A38152  38.770  11.560   8.404
 2819POPC   C3A38153  38.426  11.528   8.184
 2819POPC   C4A38154  38.512  11.527   7.762
 2819POPC   C1B38155  38.380  10.944   8.765
 2819POPC   C2B38156  38.501  11.036   8.359
 2819POPC   C3B38157  38.355  11.060   7.942
 2819POPC   C4B38158  38.005  10.844   7.819
 2820POPC   NC338159  43.959  16.074   9.403
 2820POPC   PO438160  43.371  16.280   9.176
 2820POPC   GL138161  43.686  15.983   8.990
 2820POPC   GL238162  43.889  15.682   9.049
 2820POPC   C1A38163  43.719  15.877   8.596
 2820POPC   D2A38164  43.896  15.759   8.255
 2820POPC   C3A38165  43.701  15.961   7.903
 2820POPC   C4A38166  43.560  16.402   7.872
 2820POPC   C1B38167  44.208  15.800   8.758
 2820POPC   C2B38168  44.322  16.012   8.374
 2820POPC   C3B38169  44.228  15.944   7.944
 2820POPC   C4B38170  44.150  15.560   7.760
 2821POPC   NC338171  30.761   4.623   9.496
 2821POPC   PO438172  30.773   3.938   9.634
 2821POPC   GL138173  30.698   4.152   9.221
 2821POPC   GL238174  30.449   4.416   9.104
 2821POPC   C1A38175  30.730   4.131   8.770
 2821POPC   D2A38176  30.937   4.019   8.380
 2821POPC   C3A38177  30.874   4.301   8.034
 2821POPC   C4A38178  30.504   4.192   7.803
 2821POPC   C1B38179  30.600   4.612   8.648
 2821POPC   C2B38180  30.527   4.640   8.177
 2821POPC   C3B38181  30.244   4.625   7.806
 2821POPC   C4B38182  30.306   4.416   7.374
 2822POPC   NC338183  40.444   8.849   9.486
 2822POPC   PO438184  39.844   9.024   9.449
 2822POPC   GL138185  39.926   8.909   9.085
 2822POPC   GL238186  40.239   9.021   9.056
 2822POPC   C1A38187  39.856   8.985   8.673
 2822POPC   D2A38188  40.154   8.978   8.365
 2822POPC   C3A38189  39.952   9.005   8.001
 2822POPC   C4A38190  39.674   8.657   7.884
 2822POPC   C1B38191  40.263   9.308   8.747
 2822POPC   C2B38192  40.554   9.288   8.406
 2822POPC   C3B38193  40.502   9.121   8.011
 2822POPC   C4B38194  40.261   9.319   7.701
 2823POPC   NC338195   5.008  39.389   9.545
 2823POPC   PO438196   5.347  38.945   9.258
 2823POPC   GL138197   5.099  39.262   9.060
 2823POPC   GL238198   4.763  39.429   9.120
 2823POPC   C1A38199   5.173  39.363   8.677
 2823POPC   D2A38200   5.220  39.165   8.334
 2823POPC   C3A38201   5.031  39.345   8.012
 2823POPC   C4A38202   5.143  39.261   7.640
 2823POPC   C1B38203   4.644  39.304   8.750
 2823POPC   C2B38204   4.657  39.133   8.340
 2823POPC   C3B38205   4.567  38.930   7.976
 2823POPC   C4B38206   4.602  39.203   7.643
 2824POPC   NC338207  39.647  11.882   9.265
 2824POPC   PO438208  39.580  12.354   9.692
 2824POPC   GL138209  39.259  12.229   9.232
 2824POPC   GL238210  39.124  11.872   9.123
 2824POPC   C1A38211  39.356  12.099   8.705
 2824POPC   D2A38212  39.456  11.861   8.295
 2824POPC   C3A38213  39.408  12.205   7.987
 2824POPC   C4A38214  39.608  12.283   7.566
 2824POPC   C1B38215  38.886  11.976   8.754
 2824POPC   C2B38216  38.970  12.012   8.320
 2824POPC   C3B38217  38.936  11.803   7.943
 2824POPC   C4B38218  39.067  12.072   7.614
 2825POPC   NC338219   6.425   7.982   9.511
 2825POPC   PO438220   7.007   8.249   9.516
 2825POPC   GL138221   6.900   8.300   9.117
 2825POPC   GL238222   6.600   8.199   9.071
 2825POPC   C1A38223   7.035   8.280   8.725
 2825POPC   D2A38224   6.677   8.246   8.525
 2825POPC   C3A38225   6.699   8.223   8.099
 2825POPC   C4A38226   6.974   8.114   7.755
 2825POPC   C1B38227   6.372   7.951   8.821
 2825POPC   C2B38228   6.380   7.854   8.397
 2825POPC   C3B38229   6.220   7.995   8.028
 2825POPC   C4B38230   6.493   7.888   7.733
 2826POPC   NC338231  32.501  23.667   9.458
 2826POPC   PO438232  31.857  23.470   9.468
 2826POPC   GL138233  32.077  23.689   9.116
 2826POPC   GL238234  32.400  23.885   9.014
 2826POPC   C1A38235  32.007  23.741   8.694
 2826POPC   D2A38236  31.943  24.004   8.341
 2826POPC   C3A38237  31.919  23.725   7.968
 2826POPC   C4A38238  32.054  23.508   7.593
 2826POPC   C1B38239  32.517  23.710   8.636
 2826POPC   C2B38240  32.333  23.673   8.261
 2826POPC   C3B38241  32.420  23.784   7.842
 2826POPC   C4B38242  32.619  23.470   7.621
 2827POPC   NC338243  35.581   2.974   9.413
 2827POPC   PO438244  35.051   2.569   9.462
 2827POPC   GL138245  35.158   2.808   9.166
 2827POPC   GL238246  35.105   3.142   9.248
 2827POPC   C1A38247  35.450   2.685   8.849
 2827POPC   D2A38248  35.397   2.415   8.535
 2827POPC   C3A38249  35.506   2.591   8.122
 2827POPC   C4A38250  35.305   2.589   7.737
 2827POPC   C1B38251  35.229   3.163   8.822
 2827POPC   C2B38252  35.411   2.993   8.448
 2827POPC   C3B38253  35.351   3.078   8.028
 2827POPC   C4B38254  35.115   3.058   7.661
 2828POPC   NC338255  35.534  28.464   9.446
 2828POPC   PO438256  34.894  28.720   9.544
 2828POPC   GL138257  35.075  28.451   9.231
 2828POPC   GL238258  35.246  28.758   9.151
 2828POPC   C1A38259  35.069  28.244   8.821
 2828POPC   D2A38260  35.246  28.011   8.471
 2828POPC   C3A38261  35.141  28.157   8.066
 2828POPC   C4A38262  35.425  28.226   7.720
 2828POPC   C1B38263  35.341  28.704   8.739
 2828POPC   C2B38264  35.113  28.574   8.386
 2828POPC   C3B38265  35.196  28.654   7.943
 2828POPC   C4B38266  35.009  28.909   7.633
 2829POPC   NC338267  44.546   3.102   9.539
 2829POPC   PO438268  44.756   2.491   9.317
 2829POPC   GL138269  44.652   2.576   8.972
 2829POPC   GL238270  44.379   2.766   9.094
 2829POPC   C1A38271  44.743   2.537   8.547
 2829POPC   D2A38272  44.484   2.582   8.194
 2829POPC   C3A38273  44.772   2.580   7.862
 2829POPC   C4A38274   0.023   2.918   7.764
 2829POPC   C1B38275  44.324   2.810   8.668
 2829POPC   C2B38276  44.444   3.103   8.353
 2829POPC   C3B38277  44.523   3.024   7.934
 2829POPC   C4B38278  44.260   2.689   7.734
 2830POPC   NC338279  31.071  14.380   9.567
 2830POPC   PO438280  30.500  14.212   9.485
 2830POPC   GL138281  30.727  14.400   9.166
 2830POPC   GL238282  30.768  14.079   9.060
 2830POPC   C1A38283  30.734  14.613   8.776
 2830POPC   D2A38284  30.924  14.534   8.356
 2830POPC   C3A38285  30.858  14.624   7.894
 2830POPC   C4A38286  30.533  14.645   7.641
 2830POPC   C1B38287  30.721  14.065   8.624
 2830POPC   C2B38288  30.809  14.053   8.214
 2830POPC   C3B38289  30.601  14.195   7.923
 2830POPC   C4B38290  30.612  14.106   7.557
 2831POPC   NC338291  28.651   3.870   9.498
 2831POPC   PO438292  28.253   3.343   9.667
 2831POPC   GL138293  28.255   3.532   9.247
 2831POPC   GL238294  28.471   3.381   9.019
 2831POPC   C1A38295  28.328   3.863   8.905
 2831POPC   D2A38296  28.190   3.928   8.456
 2831POPC   C3A38297  28.348   3.733   8.084
 2831POPC   C4A38298  28.213   3.680   7.656
 2831POPC   C1B38299  28.135   3.433   8.732
 2831POPC   C2B38300  28.017   3.426   8.350
 2831POPC   C3B38301  28.196   3.264   7.997
 2831POPC   C4B38302  28.029   3.208   7.630
 2832POPC   NC338303  41.162  16.135   9.514
 2832POPC   PO438304  40.427  16.021   9.513
 2832POPC   GL138305  40.739  15.925   9.174
 2832POPC   GL238306  40.963  16.132   9.054
 2832POPC   C1A38307  40.799  15.835   8.699
 2832POPC   D2A38308  40.866  16.125   8.359
 2832POPC   C3A38309  40.703  15.965   7.975
 2832POPC   C4A38310  40.935  15.759   7.743
 2832POPC   C1B38311  41.072  16.429   8.744
 2832POPC   C2B38312  41.029  16.614   8.351
 2832POPC   C3B38313  41.158  16.396   7.992
 2832POPC   C4B38314  40.973  16.267   7.616
 2833POPC   NC338315   4.807  36.077   9.757
 2833POPC   PO438316   4.238  36.408   9.710
 2833POPC   GL138317   4.396  36.228   9.288
 2833POPC   GL238318   4.217  35.951   9.151
 2833POPC   C1A38319   4.433  36.248   8.813
 2833POPC   D2A38320   4.437  36.026   8.420
 2833POPC   C3A38321   4.295  36.267   8.068
 2833POPC   C4A38322   4.551  36.347   7.727
 2833POPC   C1B38323   4.239  35.706   8.803
 2833POPC   C2B38324   4.133  35.585   8.409
 2833POPC   C3B38325   4.211  35.752   8.033
 2833POPC   C4B38326   4.410  35.637   7.679
 2834POPC   NC338327  29.325   2.493   9.387
 2834POPC   PO438328  28.994   1.916   9.281
 2834POPC   GL138329  29.329   2.076   9.003
 2834POPC   GL238330  29.357   2.433   8.898
 2834POPC   C1A38331  29.349   2.045   8.539
 2834POPC   D2A38332  29.208   1.786   8.187
 2834POPC   C3A38333  29.446   1.853   7.777
 2834POPC   C4A38334  29.418   1.827   7.305
 2834POPC   C1B38335  28.949   2.284   8.751
 2834POPC   C2B38336  28.973   2.311   8.332
 2834POPC   C3B38337  29.162   2.250   7.984
 2834POPC   C4B38338  28.902   2.101   7.669
 2835POPC   NC338339  40.008  42.766   9.408
 2835POPC   PO438340  40.232  43.435   9.348
 2835POPC   GL138341  39.959  43.206   9.094
 2835POPC   GL238342  39.667  43.397   9.050
 2835POPC   C1A38343  39.790  42.959   8.768
 2835POPC   D2A38344  39.646  42.983   8.343
 2835POPC   C3A38345  39.930  43.147   8.062
 2835POPC   C4A38346  40.199  43.010   7.755
 2835POPC   C1B38347  39.794  43.465   8.639
 2835POPC   C2B38348  39.586  43.504   8.263
 2835POPC   C3B38349  39.781  43.611   7.875
 2835POPC   C4B38350  40.207  43.531   7.806
 2836POPC   NC338351  14.764  30.112   9.524
 2836POPC   PO438352  15.434  29.926   9.630
 2836POPC   GL138353  15.309  29.928   9.169
 2836POPC   GL238354  14.975  29.877   9.118
 2836POPC   C1A38355  15.318  30.042   8.701
 2836POPC   D2A38356  15.403  30.275   8.306
 2836POPC   C3A38357  15.588  30.118   7.941
 2836POPC   C4A38358  15.203  30.123   7.762
 2836POPC   C1B38359  14.878  30.208   8.857
 2836POPC   C2B38360  14.883  30.223   8.422
 2836POPC   C3B38361  14.810  29.967   8.055
 2836POPC   C4B38362  14.717  29.985   7.599
 2837POPC   NC338363  38.942  14.930   9.563
 2837POPC   PO438364  39.106  15.608   9.525
 2837POPC   GL138365  39.219  15.268   9.209
 2837POPC   GL238366  39.059  14.941   9.078
 2837POPC   C1A38367  39.446  15.335   8.836
 2837POPC   D2A38368  39.434  15.221   8.402
 2837POPC   C3A38369  39.341  15.359   7.976
 2837POPC   C4A38370  38.981  15.211   7.709
 2837POPC   C1B38371  39.399  14.806   8.836
 2837POPC   C2B38372  39.533  14.730   8.424
 2837POPC   C3B38373  39.301  14.838   8.075
 2837POPC   C4B38374  39.373  14.848   7.673
 2838POPC   NC338375  36.576  31.327   9.528
 2838POPC   PO438376  36.004  31.065   9.716
 2838POPC   GL138377  36.029  31.182   9.207
 2838POPC   GL238378  36.229  31.479   9.146
 2838POPC   C1A38379  36.219  31.101   8.775
 2838POPC   D2A38380  36.217  30.833   8.431
 2838POPC   C3A38381  36.222  31.150   8.164
 2838POPC   C4A38382  36.082  31.209   7.797
 2838POPC   C1B38383  36.091  31.607   8.720
 2838POPC   C2B38384  36.361  31.659   8.340
 2838POPC   C3B38385  36.255  31.674   7.941
 2838POPC   C4B38386  35.826  31.666   7.855
 2839POPC   NC338387  43.647   3.656   9.612
 2839POPC   PO438388  44.314   3.680   9.648
 2839POPC   GL138389  44.065   3.605   9.223
 2839POPC   GL238390  43.752   3.634   9.140
 2839POPC   C1A38391  43.996   3.567   8.735
 2839POPC   D2A38392  44.168   3.537   8.366
 2839POPC   C3A38393  44.135   3.857   8.084
 2839POPC   C4A38394  43.980   3.796   7.678
 2839POPC   C1B38395  43.540   3.773   8.804
 2839POPC   C2B38396  43.607   3.631   8.396
 2839POPC   C3B38397  43.578   3.732   7.987
 2839POPC   C4B38398  43.469   3.920   7.589
 2840POPC   NC338399   9.388   1.962   9.659
 2840POPC   PO438400   9.905   1.587   9.575
 2840POPC   GL138401   9.901   1.905   9.248
 2840POPC   GL238402  10.112   2.186   9.330
 2840POPC   C1A38403   9.762   1.856   8.807
 2840POPC   D2A38404   9.599   2.117   8.460
 2840POPC   C3A38405   9.700   2.015   8.041
 2840POPC   C4A38406   9.998   1.847   7.775
 2840POPC   C1B38407  10.076   2.240   8.861
 2840POPC   C2B38408  10.004   2.416   8.406
 2840POPC   C3B38409  10.115   2.309   7.997
 2840POPC   C4B38410   9.966   2.405   7.608
 2841POPC   NC338411  31.221  10.135   9.661
 2841POPC   PO438412  31.385  10.719   9.519
 2841POPC   GL138413  31.394  10.441   9.167
 2841POPC   GL238414  31.684  10.601   9.107
 2841POPC   C1A38415  31.535  10.221   8.716
 2841POPC   D2A38416  31.864  10.114   8.391
 2841POPC   C3A38417  31.896  10.349   8.017
 2841POPC   C4A38418  31.552  10.484   7.770
 2841POPC   C1B38419  31.465  10.711   8.720
 2841POPC   C2B38420  31.342  10.845   8.316
 2841POPC   C3B38421  31.204  10.825   7.903
 2841POPC   C4B38422  31.296  10.791   7.437
 2842POPC   NC338423   0.736  35.387   9.478
 2842POPC   PO438424   0.085  35.540   9.299
 2842POPC   GL138425   0.454  35.328   9.064
 2842POPC   GL238426   0.729  35.610   9.023
 2842POPC   C1A38427   0.707  35.271   8.664
 2842POPC   D2A38428   0.682  35.422   8.233
 2842POPC   C3A38429   0.496  35.170   7.901
 2842POPC   C4A38430   0.597  35.176   7.461
 2842POPC   C1B38431   0.393  35.668   8.681
 2842POPC   C2B38432   0.250  35.700   8.245
 2842POPC   C3B38433   0.450  35.705   7.845
 2842POPC   C4B38434   0.624  35.763   7.453
 2843POPC   NC338435   0.568  15.707   9.502
 2843POPC   PO438436   0.040  16.100   9.424
 2843POPC   GL138437   0.340  16.023   9.121
 2843POPC   GL238438   0.663  16.182   9.206
 2843POPC   C1A38439   0.230  15.899   8.688
 2843POPC   D2A38440   0.265  15.745   8.267
 2843POPC   C3A38441   0.138  15.893   7.876
 2843POPC   C4A38442   0.334  15.890   7.480
 2843POPC   C1B38443   0.726  16.026   8.788
 2843POPC   C2B38444   0.596  16.146   8.410
 2843POPC   C3B38445   0.658  15.986   8.019
 2843POPC   C4B38446   0.833  15.924   7.649
 2844POPC   NC338447  36.359  16.349   9.730
 2844POPC   PO438448  35.831  15.976   9.416
 2844POPC   GL138449  36.102  15.760   9.147
 2844POPC   GL238450  35.962  15.991   8.904
 2844POPC   C1A38451  36.305  15.687   8.740
 2844POPC   D2A38452  36.077  15.562   8.362
 2844POPC   C3A38453  36.071  15.863   8.013
 2844POPC   C4A38454  36.442  15.990   7.769
 2844POPC   C1B38455  36.089  16.114   8.503
 2844POPC   C2B38456  36.234  16.318   8.148
 2844POPC   C3B38457  36.065  16.343   7.760
 2844POPC   C4B38458  36.238  16.222   7.366
 2845POPC   NC338459  10.259  30.580   9.570
 2845POPC   PO438460  10.701  30.285   9.282
 2845POPC   GL138461  10.476  30.616   9.108
 2845POPC   GL238462  10.498  30.973   9.208
 2845POPC   C1A38463  10.406  30.666   8.719
 2845POPC   D2A38464  10.227  30.484   8.396
 2845POPC   C3A38465  10.483  30.600   8.053
 2845POPC   C4A38466  10.427  30.679   7.637
 2845POPC   C1B38467  10.721  31.053   8.793
 2845POPC   C2B38468  10.666  30.973   8.378
 2845POPC   C3B38469  10.831  31.029   8.002
 2845POPC   C4B38470  10.758  31.244   7.655
 2846POPC   NC338471  30.094   6.769   9.393
 2846POPC   PO438472  29.741   6.216   9.539
 2846POPC   GL138473  29.663   6.544   9.147
 2846POPC   GL238474  29.857   6.865   8.966
 2846POPC   C1A38475  29.619   6.558   8.661
 2846POPC   D2A38476  29.654   6.741   8.235
 2846POPC   C3A38477  29.772   6.403   7.965
 2846POPC   C4A38478  30.152   6.318   7.791
 2846POPC   C1B38479  30.082   7.145   8.618
 2846POPC   C2B38480  30.273   7.073   8.205
 2846POPC   C3B38481  30.124   6.858   7.855
 2846POPC   C4B38482  29.729   6.827   7.714
 2847POPC   NC338483  11.749  36.540   9.430
 2847POPC   PO438484  12.004  37.059   9.753
 2847POPC   GL138485  12.159  36.991   9.320
 2847POPC   GL238486  11.847  36.998   9.217
 2847POPC   C1A38487  12.283  36.988   8.858
 2847POPC   D2A38488  12.116  37.042   8.408
 2847POPC   C3A38489  12.411  37.050   8.031
 2847POPC   C4A38490  12.234  36.948   7.607
 2847POPC   C1B38491  11.734  37.064   8.802
 2847POPC   C2B38492  11.587  37.174   8.402
 2847POPC   C3B38493  11.730  37.175   7.966
 2847POPC   C4B38494  11.786  37.152   7.489
 2848POPC   NC338495  40.195  22.133   9.498
 2848POPC   PO438496  39.651  22.348   9.142
 2848POPC   GL138497  40.110  22.361   9.050
 2848POPC   GL238498  40.377  22.097   9.050
 2848POPC   C1A38499  40.165  22.281   8.639
 2848POPC   D2A38500  39.951  22.105   8.348
 2848POPC   C3A38501  39.866  22.227   7.944
 2848POPC   C4A38502  40.079  22.078   7.582
 2848POPC   C1B38503  40.335  21.759   8.813
 2848POPC   C2B38504  40.187  21.655   8.429
 2848POPC   C3B38505  40.183  21.801   8.016
 2848POPC   C4B38506  40.233  21.578   7.669
 2849POPC   NC338507  41.335  17.026   9.463
 2849POPC   PO438508  41.700  16.356   9.492
 2849POPC   GL138509  41.573  16.703   9.163
 2849POPC   GL238510  41.249  16.849   8.994
 2849POPC   C1A38511  41.715  16.880   8.818
 2849POPC   D2A38512  41.441  16.868   8.496
 2849POPC   C3A38513  41.583  16.590   8.222
 2849POPC   C4A38514  41.767  16.593   7.837
 2849POPC   C1B38515  41.091  17.196   8.718
 2849POPC   C2B38516  41.185  17.245   8.257
 2849POPC   C3B38517  41.492  17.016   7.960
 2849POPC   C4B38518  41.691  16.994   7.505
 2850POPC   NC338519  41.219   2.868   9.434
 2850POPC   PO438520  41.913   2.913   9.254
 2850POPC   GL138521  41.551   2.953   9.070
 2850POPC   GL238522  41.525   2.600   9.100
 2850POPC   C1A38523  41.437   2.869   8.666
 2850POPC   D2A38524  41.703   2.910   8.343
 2850POPC   C3A38525  41.477   2.978   8.013
 2850POPC   C4A38526  41.252   2.779   7.708
 2850POPC   C1B38527  41.735   2.455   8.738
 2850POPC   C2B38528  41.519   2.425   8.338
 2850POPC   C3B38529  41.655   2.500   7.933
 2850POPC   C4B38530  42.016   2.306   7.756
 2851POPC   NC338531  10.638  36.618   9.633
 2851POPC   PO438532  10.255  37.108   9.408
 2851POPC   GL138533  10.458  36.833   9.171
 2851POPC   GL238534  10.828  36.783   9.168
 2851POPC   C1A38535  10.352  36.773   8.759
 2851POPC   D2A38536  10.157  36.996   8.416
 2851POPC   C3A38537  10.221  36.907   7.980
 2851POPC   C4A38538  10.217  37.182   7.602
 2851POPC   C1B38539  10.747  37.093   8.825
 2851POPC   C2B38540  10.685  36.914   8.418
 2851POPC   C3B38541  10.714  36.776   8.016
 2851POPC   C4B38542  10.666  37.148   7.855
 2852POPC   NC338543  28.574  37.790   9.204
 2852POPC   PO438544  28.179  37.551   9.708
 2852POPC   GL138545  28.078  37.768   9.302
 2852POPC   GL238546  28.128  37.460   9.135
 2852POPC   C1A38547  28.048  37.896   8.846
 2852POPC   D2A38548  28.364  37.840   8.504
 2852POPC   C3A38549  28.274  37.917   8.055
 2852POPC   C4A38550  28.331  37.717   7.653
 2852POPC   C1B38551  28.255  37.366   8.706
 2852POPC   C2B38552  28.474  37.370   8.327
 2852POPC   C3B38553  28.265  37.298   7.939
 2852POPC   C4B38554  28.374  37.220   7.504
 2853POPC   NC338555  36.875   3.257   9.498
 2853POPC   PO438556  36.693   3.986   9.391
 2853POPC   GL138557  36.865   3.671   9.156
 2853POPC   GL238558  37.180   3.653   9.169
 2853POPC   C1A38559  36.753   3.538   8.774
 2853POPC   D2A38560  36.519   3.637   8.413
 2853POPC   C3A38561  36.590   3.362   8.062
 2853POPC   C4A38562  36.541   3.539   7.676
 2853POPC   C1B38563  37.257   3.489   8.743
 2853POPC   C2B38564  37.004   3.315   8.368
 2853POPC   C3B38565  37.118   3.425   7.927
 2853POPC   C4B38566  37.348   3.807   7.732
 2854POPC   NC338567  36.588   0.398   9.889
 2854POPC   PO438568  36.955   0.222   9.330
 2854POPC   GL138569  36.996   0.482   8.945
 2854POPC   GL238570  37.157   0.346   8.655
 2854POPC   C1A38571  36.726   0.621   8.602
 2854POPC   D2A38572  36.717   0.532   8.181
 2854POPC   C3A38573  37.086   0.438   8.040
 2854POPC   C4A38574  37.281   0.677   7.723
 2854POPC   C1B38575  36.890   0.079   8.457
 2854POPC   C2B38576  36.670   0.032   8.091
 2854POPC   C3B38577  36.682   0.257   7.724
 2854POPC   C4B38578  37.079   0.225   7.515
 2855POPC   NC338579   6.693  12.576   9.624
 2855POPC   PO438580   6.753  11.949   9.600
 2855POPC   GL138581   6.836  12.087   9.190
 2855POPC   GL238582   6.982  11.795   9.075
 2855POPC   C1A38583   6.710  12.082   8.758
 2855POPC   D2A38584   6.799  11.943   8.344
 2855POPC   C3A38585   6.707  12.151   7.914
 2855POPC   C4A38586   6.383  12.127   7.574
 2855POPC   C1B38587   7.193  11.857   8.703
 2855POPC   C2B38588   7.275  11.724   8.295
 2855POPC   C3B38589   7.010  11.709   7.942
 2855POPC   C4B38590   6.967  11.873   7.546
 2856POPC   NC338591   3.439  44.728   9.619
 2856POPC   PO438592   3.814  44.177   9.674
 2856POPC   GL138593   3.563  44.330   9.263
 2856POPC   GL238594   3.493  44.706   9.117
 2856POPC   C1A38595   3.467  44.296   8.796
 2856POPC   D2A38596   3.610  44.548   8.461
 2856POPC   C3A38597   3.638  44.434   8.031
 2856POPC   C4A38598   3.242  44.365   7.840
 2856POPC   C1B38599   3.664  44.956   8.753
 2856POPC   C2B38600   3.700   0.010   8.266
 2856POPC   C3B38601   3.578  44.892   7.809
 2856POPC   C4B38602   3.721  44.876   7.359
 2857POPC   NC338603   3.516  19.574   9.375
 2857POPC   PO438604   3.779  18.926   9.440
 2857POPC   GL138605   3.643  19.146   9.066
 2857POPC   GL238606   3.880  19.416   8.965
 2857POPC   C1A38607   3.548  19.040   8.611
 2857POPC   D2A38608   3.711  19.171   8.203
 2857POPC   C3A38609   3.424  19.105   7.879
 2857POPC   C4A38610   3.106  19.354   7.715
 2857POPC   C1B38611   4.045  19.016   8.765
 2857POPC   C2B38612   3.970  18.752   8.378
 2857POPC   C3B38613   3.728  18.681   7.998
 2857POPC   C4B38614   3.722  18.830   7.558
 2858POPC   NC338615  14.009  24.357   9.686
 2858POPC   PO438616  13.452  24.700   9.452
 2858POPC   GL138617  13.569  24.522   9.120
 2858POPC   GL238618  13.607  24.227   9.256
 2858POPC   C1A38619  13.390  24.467   8.731
 2858POPC   D2A38620  13.349  24.742   8.366
 2858POPC   C3A38621  13.640  24.592   8.112
 2858POPC   C4A38622  13.719  24.400   7.763
 2858POPC   C1B38623  13.751  24.107   8.853
 2858POPC   C2B38624  13.752  24.201   8.434
 2858POPC   C3B38625  14.010  24.130   8.069
 2858POPC   C4B38626  13.808  23.884   7.736
 2859POPC   NC338627  13.120  26.710   9.368
 2859POPC   PO438628  12.484  26.467   9.370
 2859POPC   GL138629  12.677  26.751   9.085
 2859POPC   GL238630  12.939  26.541   8.928
 2859POPC   C1A38631  12.564  26.778   8.670
 2859POPC   D2A38632  12.815  26.628   8.351
 2859POPC   C3A38633  12.588  26.652   7.969
 2859POPC   C4A38634  12.860  26.551   7.655
 2859POPC   C1B38635  13.072  26.926   8.731
 2859POPC   C2B38636  13.251  26.984   8.331
 2859POPC   C3B38637  13.113  26.876   7.944
 2859POPC   C4B38638  13.011  27.068   7.544
 2860POPC   NC338639  13.529  25.879   9.362
 2860POPC   PO438640  14.090  26.160   9.482
 2860POPC   GL138641  13.873  26.142   9.080
 2860POPC   GL238642  13.951  25.785   9.047
 2860POPC   C1A38643  13.516  26.178   8.735
 2860POPC   D2A38644  13.282  26.073   8.312
 2860POPC   C3A38645  13.479  26.278   7.895
 2860POPC   C4A38646  13.667  26.248   7.443
 2860POPC   C1B38647  13.887  25.832   8.601
 2860POPC   C2B38648  13.960  25.679   8.170
 2860POPC   C3B38649  13.850  25.900   7.777
 2860POPC   C4B38650  13.944  25.806   7.347
 2861POPC   NC338651   2.989   9.137   9.899
 2861POPC   PO438652   2.915   8.696   9.297
 2861POPC   GL138653   2.732   8.813   8.952
 2861POPC   GL238654   2.399   8.761   8.991
 2861POPC   C1A38655   2.773   8.811   8.517
 2861POPC   D2A38656   2.514   8.712   8.176
 2861POPC   C3A38657   2.776   8.705   7.817
 2861POPC   C4A38658   2.975   9.070   7.738
 2861POPC   C1B38659   2.339   9.046   8.634
 2861POPC   C2B38660   2.232   9.157   8.193
 2861POPC   C3B38661   2.438   9.071   7.793
 2861POPC   C4B38662   2.391   8.809   7.409
 2862POPC   NC338663   4.014  36.580   9.352
 2862POPC   PO438664   3.526  36.124   9.427
 2862POPC   GL138665   3.552  36.371   9.062
 2862POPC   GL238666   3.886  36.319   8.959
 2862POPC   C1A38667   3.490  36.388   8.618
 2862POPC   D2A38668   3.413  36.088   8.298
 2862POPC   C3A38669   3.365  36.259   7.880
 2862POPC   C4A38670   3.162  35.992   7.609
 2862POPC   C1B38671   3.798  35.965   8.752
 2862POPC   C2B38672   3.921  36.038   8.365
 2862POPC   C3B38673   3.815  36.051   7.966
 2862POPC   C4B38674   3.839  36.448   7.781
 2863POPC   NC338675  16.605   1.578   9.497
 2863POPC   PO438676  17.086   1.058   9.506
 2863POPC   GL138677  16.709   1.094   9.232
 2863POPC   GL238678  16.615   1.404   9.033
 2863POPC   C1A38679  16.641   0.972   8.812
 2863POPC   D2A38680  16.870   0.952   8.418
 2863POPC   C3A38681  16.606   1.082   8.081
 2863POPC   C4A38682  16.624   0.885   7.702
 2863POPC   C1B38683  16.866   1.432   8.644
 2863POPC   C2B38684  16.922   1.467   8.164
 2863POPC   C3B38685  16.944   1.304   7.732
 2863POPC   C4B38686  17.107   1.441   7.330
 2864POPC   NC338687   0.661  14.363   9.262
 2864POPC   PO438688   0.118  14.545   9.505
 2864POPC   GL138689   0.134  14.519   9.072
 2864POPC   GL238690   0.242  14.182   8.948
 2864POPC   C1A38691   0.237  14.556   8.628
 2864POPC   D2A38692   0.170  14.383   8.245
 2864POPC   C3A38693   0.360  14.511   7.861
 2864POPC   C4A38694   0.354  14.559   7.386
 2864POPC   C1B38695   0.623  14.229   8.641
 2864POPC   C2B38696   0.671  14.317   8.226
 2864POPC   C3B38697   0.595  14.061   7.886
 2864POPC   C4B38698   0.764  14.010   7.438
 2865POPC   NC338699  17.317   3.101   9.456
 2865POPC   PO438700  17.343   2.386   9.536
 2865POPC   GL138701  17.325   2.660   9.169
 2865POPC   GL238702  17.652   2.849   9.120
 2865POPC   C1A38703  17.270   2.898   8.782
 2865POPC   D2A38704  17.393   3.065   8.348
 2865POPC   C3A38705  17.446   2.733   8.082
 2865POPC   C4A38706  17.085   2.599   7.938
 2865POPC   C1B38707  17.750   2.764   8.662
 2865POPC   C2B38708  17.901   2.930   8.251
 2865POPC   C3B38709  17.805   3.003   7.832
 2865POPC   C4B38710  17.613   3.152   7.461
 2866POPC   NC338711  15.436  21.062   9.519
 2866POPC   PO438712  14.796  21.325   9.429
 2866POPC   GL138713  15.121  21.300   9.118
 2866POPC   GL238714  15.012  21.596   8.985
 2866POPC   C1A38715  15.071  21.214   8.652
 2866POPC   D2A38716  14.989  21.358   8.211
 2866POPC   C3A38717  15.163  21.131   7.825
 2866POPC   C4A38718  15.405  20.976   7.467
 2866POPC   C1B38719  15.362  21.632   8.751
 2866POPC   C2B38720  15.269  21.802   8.358
 2866POPC   C3B38721  15.361  21.659   7.960
 2866POPC   C4B38722  15.018  21.594   7.717
 2867POPC   NC338723  36.728  29.531   9.529
 2867POPC   PO438724  36.958  30.184   9.441
 2867POPC   GL138725  37.024  29.809   9.200
 2867POPC   GL238726  36.673  29.807   9.094
 2867POPC   C1A38727  37.078  29.698   8.776
 2867POPC   D2A38728  36.837  29.825   8.347
 2867POPC   C3A38729  36.868  29.891   7.882
 2867POPC   C4A38730  37.083  29.653   7.530
 2867POPC   C1B38731  36.775  30.122   8.779
 2867POPC   C2B38732  37.180  30.167   8.533
 2867POPC   C3B38733  37.323  30.102   8.104
 2867POPC   C4B38734  37.252  30.156   7.661
 2868POPC   NC338735  29.571  12.169   9.797
 2868POPC   PO438736  28.947  12.404   9.610
 2868POPC   GL138737  29.163  12.201   9.209
 2868POPC   GL238738  29.485  12.372   9.153
 2868POPC   C1A38739  29.244  11.930   8.765
 2868POPC   D2A38740  29.168  12.036   8.306
 2868POPC   C3A38741  29.153  11.796   7.890
 2868POPC   C4A38742  29.274  11.965   7.466
 2868POPC   C1B38743  29.224  12.444   8.738
 2868POPC   C2B38744  29.041  12.523   8.308
 2868POPC   C3B38745  29.040  12.354   7.865
 2868POPC   C4B38746  29.064  12.430   7.403
 2869POPC   NC338747  18.054  42.652   9.705
 2869POPC   PO438748  18.531  43.038   9.413
 2869POPC   GL138749  18.374  42.588   9.264
 2869POPC   GL238750  18.275  42.278   9.446
 2869POPC   C1A38751  18.051  42.506   8.897
 2869POPC   D2A38752  17.804  42.564   8.487
 2869POPC   C3A38753  17.982  42.357   8.170
 2869POPC   C4A38754  18.133  42.430   7.760
 2869POPC   C1B38755  18.372  42.126   9.022
 2869POPC   C2B38756  18.336  42.225   8.565
 2869POPC   C3B38757  18.491  42.377   8.144
 2869POPC   C4B38758  18.619  42.136   7.791
 2870POPC   NC338759  33.426  42.488   9.940
 2870POPC   PO438760  33.660  42.075   9.433
 2870POPC   GL138761  33.529  42.278   9.094
 2870POPC   GL238762  33.825  42.274   8.873
 2870POPC   C1A38763  33.336  42.263   8.716
 2870POPC   D2A38764  33.356  42.468   8.332
 2870POPC   C3A38765  33.735  42.439   8.108
 2870POPC   C4A38766  33.652  42.150   7.748
 2870POPC   C1B38767  34.134  42.453   8.602
 2870POPC   C2B38768  34.011  42.845   8.440
 2870POPC   C3B38769  33.923  42.938   8.016
 2870POPC   C4B38770  33.868  42.619   7.634
 2871POPC   NC338771  13.808  26.547   9.465
 2871POPC   PO438772  13.384  27.079   9.411
 2871POPC   GL138773  13.483  26.871   9.035
 2871POPC   GL238774  13.814  26.878   9.087
 2871POPC   C1A38775  13.651  27.065   8.635
 2871POPC   D2A38776  13.841  26.889   8.248
 2871POPC   C3A38777  13.623  26.788   7.866
 2871POPC   C4A38778  13.355  26.647   7.544
 2871POPC   C1B38779  14.041  26.720   8.755
 2871POPC   C2B38780  14.304  26.970   8.490
 2871POPC   C3B38781  14.286  27.049   8.054
 2871POPC   C4B38782  14.149  26.711   7.791
 2872POPC   NC338783  38.038  24.936   9.359
 2872POPC   PO438784  37.599  25.451   9.587
 2872POPC   GL138785  37.767  25.482   9.204
 2872POPC   GL238786  37.523  25.737   9.137
 2872POPC   C1A38787  37.677  25.387   8.764
 2872POPC   D2A38788  37.912  25.242   8.424
 2872POPC   C3A38789  37.851  25.426   8.025
 2872POPC   C4A38790  37.550  25.326   7.716
 2872POPC   C1B38791  37.301  25.722   8.814
 2872POPC   C2B38792  37.262  25.566   8.470
 2872POPC   C3B38793  37.340  25.598   8.076
 2872POPC   C4B38794  37.497  25.818   7.721
 2873POPC   NC338795   1.657  41.230   9.386
 2873POPC   PO438796   2.045  41.773   9.483
 2873POPC   GL138797   1.966  41.570   9.147
 2873POPC   GL238798   2.175  41.277   9.249
 2873POPC   C1A38799   2.080  41.759   8.743
 2873POPC   D2A38800   1.787  41.870   8.394
 2873POPC   C3A38801   1.844  41.681   8.025
 2873POPC   C4A38802   2.006  41.938   7.725
 2873POPC   C1B38803   2.131  41.266   8.800
 2873POPC   C2B38804   2.021  41.328   8.407
 2873POPC   C3B38805   2.216  41.115   8.115
 2873POPC   C4B38806   2.211  41.410   7.809
 2874POPC   NC338807  23.531  26.430   9.521
 2874POPC   PO438808  23.384  27.106   9.368
 2874POPC   GL138809  23.795  27.113   9.172
 2874POPC   GL238810  23.731  26.783   9.086
 2874POPC   C1A38811  24.014  27.105   8.766
 2874POPC   D2A38812  23.839  27.096   8.343
 2874POPC   C3A38813  23.848  27.049   7.900
 2874POPC   C4A38814  23.632  26.900   7.499
 2874POPC   C1B38815  23.720  26.660   8.668
 2874POPC   C2B38816  23.845  26.549   8.266
 2874POPC   C3B38817  23.621  26.537   7.891
 2874POPC   C4B38818  23.790  26.405   7.500
 2875POPC   NC338819  32.803   8.027   9.718
 2875POPC   PO438820  33.336   8.397   9.660
 2875POPC   GL138821  33.181   8.089   9.307
 2875POPC   GL238822  32.819   8.084   9.205
 2875POPC   C1A38823  33.167   8.045   8.827
 2875POPC   D2A38824  33.181   8.371   8.478
 2875POPC   C3A38825  33.181   8.207   8.040
 2875POPC   C4A38826  33.258   7.836   7.774
 2875POPC   C1B38827  32.715   8.292   8.802
 2875POPC   C2B38828  32.715   8.152   8.365
 2875POPC   C3B38829  32.646   8.304   7.956
 2875POPC   C4B38830  32.809   8.044   7.675
 2876POPC   NC338831   4.085  40.867   9.538
 2876POPC   PO438832   4.621  40.616   9.270
 2876POPC   GL138833   4.226  40.565   9.089
 2876POPC   GL238834   4.373  40.290   8.921
 2876POPC   C1A38835   3.970  40.462   8.698
 2876POPC   D2A38836   4.192  40.440   8.303
 2876POPC   C3A38837   4.027  40.608   7.914
 2876POPC   C4A38838   4.261  40.965   7.722
 2876POPC   C1B38839   4.661  40.482   8.625
 2876POPC   C2B38840   4.817  40.453   8.231
 2876POPC   C3B38841   4.544  40.552   7.869
 2876POPC   C4B38842   4.495  40.377   7.470
 2877POPC   NC338843  26.956  38.805   9.618
 2877POPC   PO438844  27.079  38.345   9.174
 2877POPC   GL138845  26.849  38.697   9.081
 2877POPC   GL238846  26.575  38.474   9.094
 2877POPC   C1A38847  26.866  38.897   8.672
 2877POPC   D2A38848  26.634  38.906   8.280
 2877POPC   C3A38849  26.715  38.521   8.087
 2877POPC   C4A38850  26.988  38.471   7.770
 2877POPC   C1B38851  26.383  38.230   8.754
 2877POPC   C2B38852  26.441  37.960   8.403
 2877POPC   C3B38853  26.564  37.993   8.019
 2877POPC   C4B38854  26.494  38.261   7.687
 2878POPC   NC338855   8.208  41.075   9.441
 2878POPC   PO438856   8.440  40.417   9.475
 2878POPC   GL138857   8.160  40.618   9.186
 2878POPC   GL238858   8.449  40.810   9.079
 2878POPC   C1A38859   8.018  40.722   8.772
 2878POPC   D2A38860   7.898  40.749   8.333
 2878POPC   C3A38861   8.203  40.939   8.080
 2878POPC   C4A38862   8.309  40.879   7.673
 2878POPC   C1B38863   8.513  40.519   8.792
 2878POPC   C2B38864   8.430  40.640   8.422
 2878POPC   C3B38865   8.563  40.566   8.034
 2878POPC   C4B38866   8.407  40.372   7.683
 2879POPC   NC338867  33.831  25.769   9.759
 2879POPC   PO438868  34.184  26.115   9.345
 2879POPC   GL138869  33.978  25.865   9.075
 2879POPC   GL238870  33.764  25.689   9.263
 2879POPC   C1A38871  33.776  25.966   8.702
 2879POPC   D2A38872  33.937  26.060   8.327
 2879POPC   C3A38873  33.751  26.292   7.979
 2879POPC   C4A38874  33.732  26.047   7.639
 2879POPC   C1B38875  33.552  25.546   8.904
 2879POPC   C2B38876  33.468  25.556   8.463
 2879POPC   C3B38877  33.512  25.828   8.080
 2879POPC   C4B38878  33.355  25.697   7.677
 2880POPC   NC338879  22.606  19.535   9.389
 2880POPC   PO438880  23.240  19.848   9.416
 2880POPC   GL138881  22.998  20.053   9.030
 2880POPC   GL238882  22.627  20.103   8.947
 2880POPC   C1A38883  22.978  20.017   8.575
 2880POPC   D2A38884  22.969  19.653   8.357
 2880POPC   C3A38885  22.943  19.711   7.941
 2880POPC   C4A38886  22.962  20.136   7.787
 2880POPC   C1B38887  22.596  19.679   8.755
 2880POPC   C2B38888  22.491  19.440   8.373
 2880POPC   C3B38889  22.393  19.619   7.993
 2880POPC   C4B38890  22.497  19.905   7.683
 2881POPC   NC338891  14.738  22.503   9.468
 2881POPC   PO438892  15.236  22.955   9.499
 2881POPC   GL138893  15.155  23.154   9.132
 2881POPC   GL238894  15.256  22.832   9.000
 2881POPC   C1A38895  15.109  23.221   8.731
 2881POPC   D2A38896  15.200  22.949   8.416
 2881POPC   C3A38897  15.073  23.152   8.038
 2881POPC   C4A38898  15.020  23.047   7.640
 2881POPC   C1B38899  15.034  22.543   8.790
 2881POPC   C2B38900  15.138  22.428   8.386
 2881POPC   C3B38901  15.190  22.644   8.011
 2881POPC   C4B38902  14.912  22.554   7.697
 2882POPC   NC338903   7.297   9.375   9.491
 2882POPC   PO438904   7.003  10.001   9.485
 2882POPC   GL138905   7.160   9.991   9.086
 2882POPC   GL238906   7.431   9.718   9.106
 2882POPC   C1A38907   7.305   9.987   8.679
 2882POPC   D2A38908   7.476   9.754   8.397
 2882POPC   C3A38909   7.573   9.999   8.083
 2882POPC   C4A38910   7.511   9.951   7.668
 2882POPC   C1B38911   7.567   9.411   8.764
 2882POPC   C2B38912   7.638   9.266   8.340
 2882POPC   C3B38913   7.487   9.472   7.955
 2882POPC   C4B38914   7.558   9.481   7.508
 2883POPC   NC338915  13.168  11.544   9.474
 2883POPC   PO438916  12.655  11.084   9.397
 2883POPC   GL138917  13.021  11.166   9.121
 2883POPC   GL238918  12.866  11.501   9.074
 2883POPC   C1A38919  13.125  11.316   8.686
 2883POPC   D2A38920  12.826  11.399   8.368
 2883POPC   C3A38921  12.939  11.364   7.945
 2883POPC   C4A38922  12.725  11.100   7.667
 2883POPC   C1B38923  12.635  11.737   8.791
 2883POPC   C2B38924  12.673  11.879   8.387
 2883POPC   C3B38925  12.434  11.671   8.080
 2883POPC   C4B38926  12.523  11.549   7.685
 2884POPC   NC338927  38.308   1.474   9.303
 2884POPC   PO438928  38.289   0.876   9.216
 2884POPC   GL138929  38.591   1.090   8.983
 2884POPC   GL238930  38.714   1.437   8.994
 2884POPC   C1A38931  38.587   1.017   8.587
 2884POPC   D2A38932  38.313   1.228   8.308
 2884POPC   C3A38933  38.381   1.325   7.868
 2884POPC   C4A38934  38.343   1.185   7.423
 2884POPC   C1B38935  38.946   1.372   8.624
 2884POPC   C2B38936  38.868   1.208   8.203
 2884POPC   C3B38937  38.816   1.084   7.773
 2884POPC   C4B38938  38.802   1.349   7.422
 2885POPC   NC338939  44.824  15.614   9.452
 2885POPC   PO438940  44.327  15.059   9.457
 2885POPC   GL138941  44.495  15.331   9.158
 2885POPC   GL238942  44.859  15.229   9.113
 2885POPC   C1A38943  44.529  15.334   8.721
 2885POPC   D2A38944  44.527  15.057   8.383
 2885POPC   C3A38945  44.605  15.143   7.946
 2885POPC   C4A38946  44.505  14.792   7.701
 2885POPC   C1B38947   0.035  15.411   8.743
 2885POPC   C2B38948  44.895  15.406   8.315
 2885POPC   C3B38949   0.075  15.381   7.897
 2885POPC   C4B38950  44.950  15.310   7.452
 2886POPC   NC338951  37.452  30.898   9.768
 2886POPC   PO438952  37.848  30.447   9.503
 2886POPC   GL138953  37.777  30.731   9.181
 2886POPC   GL238954  37.436  30.830   9.193
 2886POPC   C1A38955  37.708  30.679   8.754
 2886POPC   D2A38956  37.666  30.906   8.389
 2886POPC   C3A38957  37.483  30.683   8.030
 2886POPC   C4A38958  37.766  30.684   7.695
 2886POPC   C1B38959  37.275  30.964   8.775
 2886POPC   C2B38960  37.312  31.284   8.451
 2886POPC   C3B38961  37.477  31.222   8.033
 2886POPC   C4B38962  37.423  31.035   7.608
 2887POPC   NC338963  19.215   2.762   9.553
 2887POPC   PO438964  18.654   3.033   9.473
 2887POPC   GL138965  18.936   2.836   9.108
 2887POPC   GL238966  19.292   2.848   9.069
 2887POPC   C1A38967  19.077   2.569   8.692
 2887POPC   D2A38968  19.095   2.471   8.234
 2887POPC   C3A38969  18.772   2.670   7.938
 2887POPC   C4A38970  18.692   2.779   7.483
 2887POPC   C1B38971  19.572   2.754   8.734
 2887POPC   C2B38972  19.409   2.873   8.339
 2887POPC   C3B38973  19.254   2.865   7.920
 2887POPC   C4B38974  19.190   2.544   7.609
 2888POPC   NC338975  27.491  11.328   9.648
 2888POPC   PO438976  28.112  11.532   9.671
 2888POPC   GL138977  27.946  11.590   9.215
 2888POPC   GL238978  27.650  11.391   9.137
 2888POPC   C1A38979  27.945  11.567   8.735
 2888POPC   D2A38980  27.943  11.167   8.457
 2888POPC   C3A38981  27.795  11.219   8.033
 2888POPC   C4A38982  27.856  11.644   7.895
 2888POPC   C1B38983  27.449  11.606   8.775
 2888POPC   C2B38984  27.559  11.625   8.318
 2888POPC   C3B38985  27.350  11.591   7.880
 2888POPC   C4B38986  27.067  11.348   7.577
 2889POPC   NC338987  19.934   8.672   9.449
 2889POPC   PO438988  19.665   9.344   9.378
 2889POPC   GL138989  19.892   9.055   9.130
 2889POPC   GL238990  19.616   8.817   9.069
 2889POPC   C1A38991  19.990   8.859   8.731
 2889POPC   D2A38992  19.755   8.781   8.346
 2889POPC   C3A38993  19.973   8.827   7.940
 2889POPC   C4A38994  20.040   8.801   7.482
 2889POPC   C1B38995  19.564   9.149   8.735
 2889POPC   C2B38996  19.458   9.220   8.306
 2889POPC   C3B38997  19.698   9.239   7.923
 2889POPC   C4B38998  19.599   9.075   7.489
 2890POPC   NC338999  23.040  31.650   9.440
 2890POPC   PO439000  22.658  31.215   9.189
 2890POPC   GL139001  22.967  31.396   8.976
 2890POPC   GL239002  23.312  31.292   9.051
 2890POPC   C1A39003  22.844  31.374   8.565
 2890POPC   D2A39004  22.646  31.680   8.321
 2890POPC   C3A39005  22.738  31.691   7.902
 2890POPC   C4A39006  22.931  31.492   7.571
 2890POPC   C1B39007  23.363  31.397   8.621
 2890POPC   C2B39008  23.176  31.521   8.216
 2890POPC   C3B39009  23.337  31.678   7.862
 2890POPC   C4B39010  23.470  31.424   7.507
 2891POPC   NC339011  41.123  39.939   9.392
 2891POPC   PO439012  40.557  40.048   9.688
 2891POPC   GL139013  40.712  40.206   9.246
 2891POPC   GL239014  41.018  40.444   9.258
 2891POPC   C1A39015  40.849  40.027   8.810
 2891POPC   D2A39016  40.692  39.962   8.370
 2891POPC   C3A39017  40.759  39.810   7.920
 2891POPC   C4A39018  40.709  40.050   7.520
 2891POPC   C1B39019  41.211  40.406   8.843
 2891POPC   C2B39020  41.031  40.337   8.437
 2891POPC   C3B39021  40.915  40.287   8.019
 2891POPC   C4B39022  41.091  40.417   7.653
 2892POPC   NC339023  25.975  18.677   9.472
 2892POPC   PO439024  26.333  19.141   9.428
 2892POPC   GL139025  26.285  18.895   9.108
 2892POPC   GL239026  25.932  18.992   9.061
 2892POPC   C1A39027  26.302  19.106   8.727
 2892POPC   D2A39028  26.324  18.895   8.383
 2892POPC   C3A39029  26.244  19.092   8.033
 2892POPC   C4A39030  26.311  18.856   7.693
 2892POPC   C1B39031  25.871  18.794   8.660
 2892POPC   C2B39032  25.768  18.956   8.256
 2892POPC   C3B39033  25.797  19.000   7.811
 2892POPC   C4B39034  25.801  19.376   7.608
 2893POPC   NC339035  17.915  13.557   9.310
 2893POPC   PO439036  17.304  13.428   9.501
 2893POPC   GL139037  17.157  13.444   9.063
 2893POPC   GL239038  17.489  13.561   9.031
 2893POPC   C1A39039  17.275  13.548   8.604
 2893POPC   D2A39040  17.533  13.435   8.237
 2893POPC   C3A39041  17.238  13.565   7.946
 2893POPC   C4A39042  17.135  13.797   7.606
 2893POPC   C1B39043  17.784  13.604   8.670
 2893POPC   C2B39044  18.030  13.889   8.406
 2893POPC   C3B39045  17.873  14.022   8.016
 2893POPC   C4B39046  17.701  13.703   7.793
 2894POPC   NC339047  33.229   9.609   9.487
 2894POPC   PO439048  32.857  10.142   9.626
 2894POPC   GL139049  33.091   9.999   9.190
 2894POPC   GL239050  32.898   9.704   9.096
 2894POPC   C1A39051  33.360   9.710   8.858
 2894POPC   D2A39052  33.618   9.772   8.475
 2894POPC   C3A39053  33.338   9.669   8.128
 2894POPC   C4A39054  33.185   9.606   7.722
 2894POPC   C1B39055  32.917   9.831   8.650
 2894POPC   C2B39056  32.875   9.521   8.337
 2894POPC   C3B39057  32.725   9.589   7.933
 2894POPC   C4B39058  32.773   9.988   7.734
 2895POPC   NC339059  14.588   2.924   9.612
 2895POPC   PO439060  14.060   2.673   9.549
 2895POPC   GL139061  14.362   2.688   9.164
 2895POPC   GL239062  14.729   2.790   9.072
 2895POPC   C1A39063  14.434   2.557   8.715
 2895POPC   D2A39064  14.231   2.700   8.334
 2895POPC   C3A39065  14.322   2.860   7.897
 2895POPC   C4A39066  14.431   2.965   7.457
 2895POPC   C1B39067  14.945   2.597   8.696
 2895POPC   C2B39068  14.796   2.520   8.244
 2895POPC   C3B39069  14.838   2.645   7.773
 2895POPC   C4B39070  14.790   2.667   7.282
 2896POPC   NC339071   3.845  17.573   9.542
 2896POPC   PO439072   3.257  17.445   9.743
 2896POPC   GL139073   3.312  17.443   9.269
 2896POPC   GL239074   3.521  17.695   9.156
 2896POPC   C1A39075   3.509  17.316   8.820
 2896POPC   D2A39076   3.516  17.545   8.413
 2896POPC   C3A39077   3.596  17.345   8.005
 2896POPC   C4A39078   3.689  17.394   7.547
 2896POPC   C1B39079   3.201  17.710   8.825
 2896POPC   C2B39080   3.204  17.959   8.439
 2896POPC   C3B39081   3.220  17.793   8.053
 2896POPC   C4B39082   3.213  17.540   7.737
 2897POPC   NC339083  16.021  24.145   9.570
 2897POPC   PO439084  15.576  24.425   9.255
 2897POPC   GL139085  15.997  24.461   9.128
 2897POPC   GL239086  15.921  24.801   8.981
 2897POPC   C1A39087  16.117  24.396   8.709
 2897POPC   D2A39088  15.805  24.409   8.379
 2897POPC   C3A39089  16.019  24.347   8.011
 2897POPC   C4A39090  16.237  24.650   7.801
 2897POPC   C1B39091  15.520  24.758   8.702
 2897POPC   C2B39092  15.338  24.658   8.329
 2897POPC   C3B39093  15.537  24.565   7.930
 2897POPC   C4B39094  15.687  24.232   7.632
 2898POPC   NC339095   0.529   8.547   9.581
 2898POPC   PO439096   0.749   9.231   9.620
 2898POPC   GL139097   0.536   9.260   9.229
 2898POPC   GL239098   0.313   8.993   9.281
 2898POPC   C1A39099   0.340   9.199   8.824
 2898POPC   D2A39100   0.461   8.945   8.487
 2898POPC   C3A39101   0.409   9.142   8.097
 2898POPC   C4A39102   0.684   9.207   7.731
 2898POPC   C1B39103   0.237   8.699   8.907
 2898POPC   C2B39104   0.059   8.623   8.467
 2898POPC   C3B39105   0.210   8.649   8.059
 2898POPC   C4B39106   0.451   8.758   7.721
 2899POPC   NC339107  14.965  23.941   5.366
 2899POPC   PO439108  15.482  23.675   5.143
 2899POPC   GL139109  15.352  23.719   5.689
 2899POPC   GL239110  15.038  23.884   5.857
 2899POPC   C1A39111  15.291  23.613   6.192
 2899POPC   D2A39112  15.429  23.420   6.620
 2899POPC   C3A39113  15.250  23.520   7.080
 2899POPC   C4A39114  15.397  23.845   7.429
 2899POPC   C1B39115  14.817  23.799   6.254
 2899POPC   C2B39116  14.968  23.722   6.679
 2899POPC   C3B39117  15.093  23.998   7.008
 2899POPC   C4B39118  14.916  24.005   7.394
 2900POPC   NC339119  41.288  29.748   5.401
 2900POPC   PO439120  41.430  30.330   5.581
 2900POPC   GL139121  41.358  30.133   5.973
 2900POPC   GL239122  41.282  29.789   5.899
 2900POPC   C1A39123  41.595  30.106   6.380
 2900POPC   D2A39124  41.992  29.939   6.599
 2900POPC   C3A39125  41.878  30.002   7.025
 2900POPC   C4A39126  41.422  30.014   7.123
 2900POPC   C1B39127  41.343  29.631   6.291
 2900POPC   C2B39128  41.517  29.653   6.703
 2900POPC   C3B39129  41.244  29.556   7.028
 2900POPC   C4B39130  41.335  29.633   7.451
 2901POPC   NC339131  41.023  26.771   5.412
 2901POPC   PO439132  40.417  27.142   5.348
 2901POPC   GL139133  40.659  26.992   5.707
 2901POPC   GL239134  40.675  26.655   5.755
 2901POPC   C1A39135  40.782  27.074   6.143
 2901POPC   D2A39136  40.594  27.029   6.568
 2901POPC   C3A39137  40.812  26.932   6.948
 2901POPC   C4A39138  40.579  26.631   7.214
 2901POPC   C1B39139  41.055  26.633   6.031
 2901POPC   C2B39140  41.101  26.764   6.443
 2901POPC   C3B39141  41.039  26.505   6.785
 2901POPC   C4B39142  41.139  26.460   7.197
 2902POPC   NC339143  36.357   0.553   5.354
 2902POPC   PO439144  35.844   0.132   5.420
 2902POPC   GL139145  36.041   0.343   5.785
 2902POPC   GL239146  35.995   0.697   5.831
 2902POPC   C1A39147  36.196   0.374   6.238
 2902POPC   D2A39148  35.945   0.199   6.609
 2902POPC   C3A39149  36.102   0.168   7.040
 2902POPC   C4A39150  36.435   0.398   7.253
 2902POPC   C1B39151  35.737   0.550   6.197
 2902POPC   C2B39152  35.780   0.729   6.583
 2902POPC   C3B39153  36.018   0.685   6.941
 2902POPC   C4B39154  35.659   0.500   7.114
 2903POPC   NC339155  31.728   2.577   5.544
 2903POPC   PO439156  31.714   2.004   5.136
 2903POPC   GL139157  31.732   2.072   5.620
 2903POPC   GL239158  31.688   1.756   5.722
 2903POPC   C1A39159  31.571   2.190   6.086
 2903POPC   D2A39160  31.441   2.372   6.534
 2903POPC   C3A39161  31.517   2.284   7.001
 2903POPC   C4A39162  31.511   2.220   7.478
 2903POPC   C1B39163  31.491   1.654   6.118
 2903POPC   C2B39164  31.408   1.504   6.540
 2903POPC   C3B39165  31.474   1.619   6.939
 2903POPC   C4B39166  31.670   1.710   7.299
 2904POPC   NC339167  40.060  26.966   5.600
 2904POPC   PO439168  40.296  26.302   5.569
 2904POPC   GL139169  40.195  26.598   5.916
 2904POPC   GL239170  39.846  26.645   5.980
 2904POPC   C1A39171  40.176  26.797   6.334
 2904POPC   D2A39172  39.880  26.840   6.645
 2904POPC   C3A39173  40.076  26.711   6.990
 2904POPC   C4A39174  40.022  26.506   7.327
 2904POPC   C1B39175  39.758  27.090   6.209
 2904POPC   C2B39176  39.631  27.299   6.633
 2904POPC   C3B39177  39.835  27.191   7.043
 2904POPC   C4B39178  39.804  26.970   7.457
 2905POPC   NC339179  38.356  20.003   5.323
 2905POPC   PO439180  38.889  19.504   5.450
 2905POPC   GL139181  38.560  19.743   5.739
 2905POPC   GL239182  38.208  19.645   5.772
 2905POPC   C1A39183  38.687  19.890   6.203
 2905POPC   D2A39184  38.893  19.839   6.623
 2905POPC   C3A39185  38.603  19.833   6.988
 2905POPC   C4A39186  38.444  19.894   7.424
 2905POPC   C1B39187  38.192  19.799   6.244
 2905POPC   C2B39188  38.144  19.815   6.730
 2905POPC   C3B39189  38.161  19.556   7.150
 2905POPC   C4B39190  38.324  19.410   7.591
 2906POPC   NC339191  28.220  25.809   5.438
 2906POPC   PO439192  28.339  25.117   5.445
 2906POPC   GL139193  28.293  25.087   5.841
 2906POPC   GL239194  28.251  25.465   5.815
 2906POPC   C1A39195  28.364  25.218   6.237
 2906POPC   D2A39196  28.554  25.287   6.590
 2906POPC   C3A39197  28.403  25.078   6.968
 2906POPC   C4A39198  28.263  24.849   7.338
 2906POPC   C1B39199  28.301  25.749   6.132
 2906POPC   C2B39200  28.180  25.705   6.539
 2906POPC   C3B39201  28.321  25.590   6.922
 2906POPC   C4B39202  28.546  25.719   7.229
 2907POPC   NC339203  23.352   6.674   5.398
 2907POPC   PO439204  24.095   6.524   5.454
 2907POPC   GL139205  23.939   6.785   5.788
 2907POPC   GL239206  23.596   6.691   5.846
 2907POPC   C1A39207  23.924   6.843   6.225
 2907POPC   D2A39208  23.655   6.550   6.429
 2907POPC   C3A39209  23.618   6.559   6.855
 2907POPC   C4A39210  23.590   6.668   7.252
 2907POPC   C1B39211  23.359   6.889   6.174
 2907POPC   C2B39212  23.397   6.990   6.631
 2907POPC   C3B39213  23.155   7.048   7.008
 2907POPC   C4B39214  23.329   7.096   7.434
 2908POPC   NC339215  34.903  26.387   5.496
 2908POPC   PO439216  34.258  26.137   5.449
 2908POPC   GL139217  34.420  26.078   5.814
 2908POPC   GL239218  34.765  26.034   5.872
 2908POPC   C1A39219  34.243  26.015   6.180
 2908POPC   D2A39220  34.319  26.246   6.538
 2908POPC   C3A39221  34.304  26.063   6.937
 2908POPC   C4A39222  34.432  26.381   7.219
 2908POPC   C1B39223  34.719  25.944   6.347
 2908POPC   C2B39224  34.819  25.968   6.802
 2908POPC   C3B39225  34.710  25.957   7.285
 2908POPC   C4B39226  34.617  25.771   7.735
 2909POPC   NC339227  37.844  11.556   5.435
 2909POPC   PO439228  37.236  11.329   5.399
 2909POPC   GL139229  37.480  11.382   5.810
 2909POPC   GL239230  37.821  11.221   5.860
 2909POPC   C1A39231  37.588  11.394   6.285
 2909POPC   D2A39232  37.386  11.504   6.699
 2909POPC   C3A39233  37.550  11.353   7.095
 2909POPC   C4A39234  37.437  10.903   7.206
 2909POPC   C1B39235  38.105  11.244   6.226
 2909POPC   C2B39236  38.136  11.427   6.652
 2909POPC   C3B39237  38.044  11.469   7.102
 2909POPC   C4B39238  38.151  11.265   7.491
 2910POPC   NC339239  33.301  39.524   5.638
 2910POPC   PO439240  33.857  39.144   5.341
 2910POPC   GL139241  33.789  39.327   5.739
 2910POPC   GL239242  33.821  39.004   5.910
 2910POPC   C1A39243  33.706  39.449   6.171
 2910POPC   D2A39244  33.723  39.158   6.516
 2910POPC   C3A39245  33.837  39.357   6.885
 2910POPC   C4A39246  33.897  39.523   7.287
 2910POPC   C1B39247  34.105  38.710   6.131
 2910POPC   C2B39248  34.298  38.692   6.560
 2910POPC   C3B39249  34.078  38.867   6.916
 2910POPC   C4B39250  34.154  39.081   7.308
 2911POPC   NC339251  33.723  13.264   5.361
 2911POPC   PO439252  33.549  12.746   5.670
 2911POPC   GL139253  33.817  13.009   5.824
 2911POPC   GL239254  34.107  12.837   5.778
 2911POPC   C1A39255  33.823  13.103   6.246
 2911POPC   D2A39256  33.605  12.786   6.458
 2911POPC   C3A39257  33.611  12.827   6.889
 2911POPC   C4A39258  33.814  13.009   7.253
 2911POPC   C1B39259  34.084  12.660   6.206
 2911POPC   C2B39260  34.084  12.805   6.645
 2911POPC   C3B39261  34.077  12.612   7.055
 2911POPC   C4B39262  34.051  12.637   7.519
 2912POPC   NC339263   3.914  40.831   5.164
 2912POPC   PO439264   4.542  40.643   5.446
 2912POPC   GL139265   4.254  40.835   5.702
 2912POPC   GL239266   4.497  40.893   5.936
 2912POPC   C1A39267   4.036  40.794   6.118
 2912POPC   D2A39268   4.246  40.749   6.528
 2912POPC   C3A39269   4.041  40.755   6.929
 2912POPC   C4A39270   4.044  40.654   7.374
 2912POPC   C1B39271   4.661  40.561   6.185
 2912POPC   C2B39272   4.708  40.552   6.622
 2912POPC   C3B39273   4.519  40.550   6.997
 2912POPC   C4B39274   4.499  40.862   7.296
 2913POPC   NC339275  33.975  10.793   5.406
 2913POPC   PO439276  33.746  11.450   5.387
 2913POPC   GL139277  33.932  11.221   5.731
 2913POPC   GL239278  33.813  11.488   5.957
 2913POPC   C1A39279  34.029  11.085   6.169
 2913POPC   D2A39280  33.842  11.277   6.560
 2913POPC   C3A39281  33.966  11.047   6.911
 2913POPC   C4A39282  34.102  11.012   7.318
 2913POPC   C1B39283  33.475  11.249   6.188
 2913POPC   C2B39284  33.263  11.247   6.596
 2913POPC   C3B39285  33.459  11.205   7.001
 2913POPC   C4B39286  33.819  11.441   7.190
 2914POPC   NC339287  40.497  23.959   5.614
 2914POPC   PO439288  41.010  23.546   5.486
 2914POPC   GL139289  40.854  23.682   5.857
 2914POPC   GL239290  40.524  23.540   5.908
 2914POPC   C1A39291  40.996  23.700   6.253
 2914POPC   D2A39292  40.844  23.815   6.645
 2914POPC   C3A39293  41.090  23.776   6.991
 2914POPC   C4A39294  40.920  23.614   7.399
 2914POPC   C1B39295  40.448  23.769   6.298
 2914POPC   C2B39296  40.351  23.903   6.735
 2914POPC   C3B39297  40.539  23.656   7.067
 2914POPC   C4B39298  40.322  23.475   7.448
 2915POPC   NC339299  18.181   7.979   5.085
 2915POPC   PO439300  18.143   8.527   5.448
 2915POPC   GL139301  18.368   8.386   5.837
 2915POPC   GL239302  18.245   8.066   5.848
 2915POPC   C1A39303  18.396   8.321   6.323
 2915POPC   D2A39304  18.583   8.076   6.691
 2915POPC   C3A39305  18.526   8.108   7.143
 2915POPC   C4A39306  18.406   7.838   7.541
 2915POPC   C1B39307  17.940   8.378   6.091
 2915POPC   C2B39308  17.928   8.466   6.543
 2915POPC   C3B39309  18.096   8.279   6.928
 2915POPC   C4B39310  18.038   7.887   7.197
 2916POPC   NC339311  44.605  29.199   5.383
 2916POPC   PO439312   0.210  29.112   5.638
 2916POPC   GL139313  44.880  29.017   5.966
 2916POPC   GL239314  44.522  29.065   5.877
 2916POPC   C1A39315  44.713  29.177   6.361
 2916POPC   D2A39316  44.502  29.501   6.601
 2916POPC   C3A39317  44.584  29.453   7.053
 2916POPC   C4A39318  44.904  29.190   7.225
 2916POPC   C1B39319  44.228  28.991   6.232
 2916POPC   C2B39320  44.319  29.005   6.670
 2916POPC   C3B39321  44.636  28.888   6.912
 2916POPC   C4B39322  44.468  28.686   7.263
 2917POPC   NC339323   8.346  28.634   5.419
 2917POPC   PO439324   7.797  28.184   5.441
 2917POPC   GL139325   8.089  28.332   5.742
 2917POPC   GL239326   8.031  28.698   5.805
 2917POPC   C1A39327   8.346  28.389   6.099
 2917POPC   D2A39328   8.345  28.205   6.490
 2917POPC   C3A39329   8.588  28.204   6.857
 2917POPC   C4A39330   8.333  28.181   7.273
 2917POPC   C1B39331   8.005  28.795   6.224
 2917POPC   C2B39332   8.022  28.605   6.583
 2917POPC   C3B39333   8.216  28.565   6.952
 2917POPC   C4B39334   7.973  28.645   7.303
 2918POPC   NC339335  18.460   6.598   5.326
 2918POPC   PO439336  18.143   7.164   5.564
 2918POPC   GL139337  18.478   6.908   5.837
 2918POPC   GL239338  18.508   6.522   5.842
 2918POPC   C1A39339  18.604   6.785   6.303
 2918POPC   D2A39340  18.655   6.631   6.745
 2918POPC   C3A39341  18.459   6.821   7.134
 2918POPC   C4A39342  18.259   6.883   7.541
 2918POPC   C1B39343  18.357   6.329   6.250
 2918POPC   C2B39344  18.240   6.314   6.708
 2918POPC   C3B39345  18.179   6.360   7.166
 2918POPC   C4B39346  18.076   6.115   7.571
 2919POPC   NC339347   8.690  14.624   5.178
 2919POPC   PO439348   8.115  14.261   5.396
 2919POPC   GL139349   8.275  14.474   5.733
 2919POPC   GL239350   8.159  14.806   5.812
 2919POPC   C1A39351   8.399  14.441   6.167
 2919POPC   D2A39352   8.507  14.623   6.559
 2919POPC   C3A39353   8.374  14.413   6.922
 2919POPC   C4A39354   8.254  14.585   7.283
 2919POPC   C1B39355   7.921  14.611   6.105
 2919POPC   C2B39356   8.006  14.487   6.510
 2919POPC   C3B39357   7.864  14.530   6.935
 2919POPC   C4B39358   7.815  14.314   7.286
 2920POPC   NC339359   3.179  17.666   5.240
 2920POPC   PO439360   3.788  17.284   5.413
 2920POPC   GL139361   3.750  17.531   5.785
 2920POPC   GL239362   3.399  17.604   5.709
 2920POPC   C1A39363   3.865  17.556   6.237
 2920POPC   D2A39364   3.663  17.412   6.642
 2920POPC   C3A39365   3.728  17.566   7.050
 2920POPC   C4A39366   3.379  17.722   7.298
 2920POPC   C1B39367   3.365  17.440   6.157
 2920POPC   C2B39368   3.177  17.550   6.574
 2920POPC   C3B39369   3.258  17.362   6.962
 2920POPC   C4B39370   3.615  17.085   7.128
 2921POPC   NC339371  39.223  25.632   5.138
 2921POPC   PO439372  39.589  25.083   5.318
 2921POPC   GL139373  39.282  25.251   5.684
 2921POPC   GL239374  39.450  25.482   5.926
 2921POPC   C1A39375  39.022  25.225   6.108
 2921POPC   D2A39376  38.799  25.104   6.518
 2921POPC   C3A39377  38.967  25.081   6.946
 2921POPC   C4A39378  38.857  25.318   7.311
 2921POPC   C1B39379  39.528  25.123   6.196
 2921POPC   C2B39380  39.329  24.973   6.569
 2921POPC   C3B39381  39.469  24.979   6.982
 2921POPC   C4B39382  39.359  25.384   7.131
 2922POPC   NC339383  31.940  17.206   5.611
 2922POPC   PO439384  31.535  16.617   5.452
 2922POPC   GL139385  31.422  16.842   5.807
 2922POPC   GL239386  31.170  17.105   5.757
 2922POPC   C1A39387  31.393  16.696   6.211
 2922POPC   D2A39388  31.284  16.668   6.633
 2922POPC   C3A39389  31.621  16.600   6.928
 2922POPC   C4A39390  31.598  16.791   7.337
 2922POPC   C1B39391  31.263  17.202   6.173
 2922POPC   C2B39392  31.521  17.105   6.527
 2922POPC   C3B39393  31.423  17.091   6.938
 2922POPC   C4B39394  31.226  17.137   7.305
 2923POPC   NC339395  19.178  15.409   4.738
 2923POPC   PO439396  19.183  15.172   5.263
 2923POPC   GL139397  19.405  15.144   5.750
 2923POPC   GL239398  19.156  14.960   5.965
 2923POPC   C1A39399  19.475  15.187   6.265
 2923POPC   D2A39400  19.267  15.120   6.718
 2923POPC   C3A39401  19.173  15.347   7.148
 2923POPC   C4A39402  18.950  15.340   7.574
 2923POPC   C1B39403  19.198  14.706   6.333
 2923POPC   C2B39404  19.057  14.660   6.749
 2923POPC   C3B39405  19.108  14.849   7.182
 2923POPC   C4B39406  18.889  14.820   7.568
 2924POPC   NC339407  34.912  23.025   5.479
 2924POPC   PO439408  35.429  22.633   5.251
 2924POPC   GL139409  35.415  22.712   5.697
 2924POPC   GL239410  35.403  23.068   5.759
 2924POPC   C1A39411  35.353  22.610   6.138
 2924POPC   D2A39412  35.568  22.604   6.529
 2924POPC   C3A39413  35.294  22.628   6.890
 2924POPC   C4A39414  35.214  22.768   7.297
 2924POPC   C1B39415  35.233  23.110   6.171
 2924POPC   C2B39416  35.319  23.064   6.589
 2924POPC   C3B39417  35.027  23.081   6.908
 2924POPC   C4B39418  35.054  23.279   7.264
 2925POPC   NC339419  30.987  10.068   5.257
 2925POPC   PO439420  30.381   9.761   5.397
 2925POPC   GL139421  30.644   9.751   5.815
 2925POPC   GL239422  30.783  10.010   6.042
 2925POPC   C1A39423  30.646   9.553   6.232
 2925POPC   D2A39424  30.452   9.546   6.652
 2925POPC   C3A39425  30.699   9.707   7.004
 2925POPC   C4A39426  30.795   9.538   7.412
 2925POPC   C1B39427  30.992  10.199   6.382
 2925POPC   C2B39428  30.900  10.210   6.830
 2925POPC   C3B39429  30.872  10.099   7.276
 2925POPC   C4B39430  30.483   9.938   7.463
 2926POPC   NC339431  23.816   2.968   5.539
 2926POPC   PO439432  23.549   2.404   5.446
 2926POPC   GL139433  23.817   2.514   5.821
 2926POPC   GL239434  23.582   2.807   5.959
 2926POPC   C1A39435  23.857   2.548   6.283
 2926POPC   D2A39436  23.452   2.716   6.491
 2926POPC   C3A39437  23.509   2.917   6.883
 2926POPC   C4A39438  23.498   2.687   7.260
 2926POPC   C1B39439  23.731   3.096   6.291
 2926POPC   C2B39440  23.978   3.235   6.656
 2926POPC   C3B39441  23.817   3.281   7.072
 2926POPC   C4B39442  23.462   3.217   7.337
 2927POPC   NC339443   2.771  35.474   5.075
 2927POPC   PO439444   2.849  34.971   5.510
 2927POPC   GL139445   2.840  35.424   5.636
 2927POPC   GL239446   2.491  35.599   5.658
 2927POPC   C1A39447   3.016  35.577   6.036
 2927POPC   D2A39448   3.117  35.399   6.456
 2927POPC   C3A39449   2.899  35.539   6.844
 2927POPC   C4A39450   2.944  35.404   7.247
 2927POPC   C1B39451   2.515  35.679   6.138
 2927POPC   C2B39452   2.459  35.441   6.560
 2927POPC   C3B39453   2.391  35.438   7.028
 2927POPC   C4B39454   2.307  35.757   7.385
 2928POPC   NC339455   7.908  37.440   5.597
 2928POPC   PO439456   8.475  37.694   5.372
 2928POPC   GL139457   8.319  37.706   5.770
 2928POPC   GL239458   8.269  37.386   5.952
 2928POPC   C1A39459   8.375  37.876   6.166
 2928POPC   D2A39460   8.118  37.850   6.527
 2928POPC   C3A39461   8.350  37.999   6.843
 2928POPC   C4A39462   8.278  37.854   7.250
 2928POPC   C1B39463   7.881  37.502   6.227
 2928POPC   C2B39464   7.765  37.372   6.618
 2928POPC   C3B39465   8.016  37.514   6.945
 2928POPC   C4B39466   8.036  37.345   7.339
 2929POPC   NC339467  11.366  29.454   5.459
 2929POPC   PO439468  11.336  30.085   5.488
 2929POPC   GL139469  11.115  29.895   5.821
 2929POPC   GL239470  11.009  30.236   5.932
 2929POPC   C1A39471  11.318  29.657   6.187
 2929POPC   D2A39472  11.690  29.759   6.485
 2929POPC   C3A39473  11.612  29.720   6.921
 2929POPC   C4A39474  11.293  29.821   7.210
 2929POPC   C1B39475  10.911  29.964   6.287
 2929POPC   C2B39476  11.050  29.878   6.707
 2929POPC   C3B39477  10.899  30.110   7.070
 2929POPC   C4B39478  11.143  30.316   7.384
 2930POPC   NC339479   2.985  21.600   5.345
 2930POPC   PO439480   2.512  21.149   5.364
 2930POPC   GL139481   2.619  21.427   5.692
 2930POPC   GL239482   2.968  21.401   5.818
 2930POPC   C1A39483   2.497  21.657   6.036
 2930POPC   D2A39484   2.515  21.679   6.468
 2930POPC   C3A39485   2.548  21.358   6.785
 2930POPC   C4A39486   2.460  21.252   7.224
 2930POPC   C1B39487   2.824  21.305   6.235
 2930POPC   C2B39488   2.853  20.993   6.536
 2930POPC   C3B39489   2.960  21.059   6.949
 2930POPC   C4B39490   2.933  21.418   7.200
 2931POPC   NC339491  40.493  10.250   5.624
 2931POPC   PO439492  40.975  10.690   5.331
 2931POPC   GL139493  40.903  10.558   5.754
 2931POPC   GL239494  40.595  10.709   5.840
 2931POPC   C1A39495  40.849  10.470   6.212
 2931POPC   D2A39496  41.063  10.386   6.608
 2931POPC   C3A39497  40.813  10.479   6.968
 2931POPC   C4A39498  40.743  10.293   7.335
 2931POPC   C1B39499  40.518  10.917   6.206
 2931POPC   C2B39500  40.634  10.760   6.584
 2931POPC   C3B39501  40.487  10.893   6.983
 2931POPC   C4B39502  40.427  10.719   7.388
 2932POPC   NC339503   7.992  30.119   5.374
 2932POPC   PO439504   8.483  30.491   5.555
 2932POPC   GL139505   8.389  30.040   5.750
 2932POPC   GL239506   8.069  29.862   5.799
 2932POPC   C1A39507   8.480  29.875   6.187
 2932POPC   D2A39508   8.622  29.922   6.629
 2932POPC   C3A39509   8.336  29.999   6.991
 2932POPC   C4A39510   8.031  30.291   7.167
 2932POPC   C1B39511   8.001  29.697   6.186
 2932POPC   C2B39512   8.028  29.925   6.568
 2932POPC   C3B39513   7.828  29.881   6.960
 2932POPC   C4B39514   7.975  29.804   7.430
 2933POPC   NC339515   8.230  31.693   5.358
 2933POPC   PO439516   8.205  31.140   5.102
 2933POPC   GL139517   8.093  31.295   5.654
 2933POPC   GL239518   8.112  31.674   5.825
 2933POPC   C1A39519   8.275  31.351   6.150
 2933POPC   D2A39520   8.259  31.569   6.566
 2933POPC   C3A39521   8.216  31.290   6.911
 2933POPC   C4A39522   8.330  31.239   7.317
 2933POPC   C1B39523   7.926  31.766   6.204
 2933POPC   C2B39524   7.645  31.657   6.530
 2933POPC   C3B39525   7.822  31.632   6.915
 2933POPC   C4B39526   8.191  31.711   7.212
 2934POPC   NC339527  18.798  33.778   5.394
 2934POPC   PO439528  19.386  34.176   5.527
 2934POPC   GL139529  19.015  34.032   5.804
 2934POPC   GL239530  18.957  33.642   5.851
 2934POPC   C1A39531  18.829  33.960   6.211
 2934POPC   D2A39532  19.095  33.966   6.569
 2934POPC   C3A39533  18.903  34.017   6.977
 2934POPC   C4A39534  18.787  34.170   7.382
 2934POPC   C1B39535  19.297  33.518   6.166
 2934POPC   C2B39536  19.409  33.516   6.596
 2934POPC   C3B39537  19.327  33.739   6.973
 2934POPC   C4B39538  19.068  33.714   7.357
 2935POPC   NC339539  14.602  43.551   5.447
 2935POPC   PO439540  14.164  43.993   5.345
 2935POPC   GL139541  14.285  43.824   5.745
 2935POPC   GL239542  14.614  44.001   5.731
 2935POPC   C1A39543  14.127  43.716   6.170
 2935POPC   D2A39544  14.143  43.938   6.592
 2935POPC   C3A39545  14.252  43.771   7.004
 2935POPC   C4A39546  14.209  43.909   7.470
 2935POPC   C1B39547  14.617  43.853   6.173
 2935POPC   C2B39548  14.716  43.925   6.597
 2935POPC   C3B39549  14.710  44.118   6.983
 2935POPC   C4B39550  14.669  43.785   7.285
 2936POPC   NC339551   7.027  12.102   5.105
 2936POPC   PO439552   6.461  11.934   5.479
 2936POPC   GL139553   6.717  11.888   5.828
 2936POPC   GL239554   6.540  11.551   5.829
 2936POPC   C1A39555   6.760  12.078   6.229
 2936POPC   D2A39556   6.598  12.096   6.656
 2936POPC   C3A39557   6.888  12.115   6.991
 2936POPC   C4A39558   6.827  12.334   7.375
 2936POPC   C1B39559   6.385  11.431   6.204
 2936POPC   C2B39560   6.380  11.628   6.584
 2936POPC   C3B39561   6.231  11.737   6.979
 2936POPC   C4B39562   6.576  11.806   7.239
 2937POPC   NC339563  12.542  23.980   5.620
 2937POPC   PO439564  12.033  23.739   5.330
 2937POPC   GL139565  12.001  23.771   5.779
 2937POPC   GL239566  12.282  23.603   5.919
 2937POPC   C1A39567  11.976  23.878   6.223
 2937POPC   D2A39568  12.328  23.832   6.486
 2937POPC   C3A39569  12.268  23.758   6.906
 2937POPC   C4A39570  12.573  23.714   7.228
 2937POPC   C1B39571  11.948  23.347   6.108
 2937POPC   C2B39572  11.740  23.186   6.482
 2937POPC   C3B39573  11.760  23.398   6.867
 2937POPC   C4B39574  12.023  23.414   7.215
 2938POPC   NC339575  10.270  22.998   5.355
 2938POPC   PO439576  10.817  22.653   5.363
 2938POPC   GL139577  10.622  22.859   5.750
 2938POPC   GL239578  10.659  23.209   5.774
 2938POPC   C1A39579  10.450  22.956   6.182
 2938POPC   D2A39580  10.195  22.817   6.503
 2938POPC   C3A39581  10.187  22.912   6.910
 2938POPC   C4A39582  10.483  23.011   7.191
 2938POPC   C1B39583  10.790  23.336   6.231
 2938POPC   C2B39584  10.648  23.179   6.656
 2938POPC   C3B39585  10.823  23.355   7.077
 2938POPC   C4B39586  10.692  23.355   7.538
 2939POPC   NC339587  42.582   8.550   5.566
 2939POPC   PO439588  42.363   7.873   5.390
 2939POPC   GL139589  42.277   8.046   5.789
 2939POPC   GL239590  42.626   8.025   5.889
 2939POPC   C1A39591  42.281   8.336   6.113
 2939POPC   D2A39592  42.473   8.287   6.467
 2939POPC   C3A39593  42.241   8.396   6.804
 2939POPC   C4A39594  42.188   8.316   7.216
 2939POPC   C1B39595  42.419   7.819   6.276
 2939POPC   C2B39596  42.368   7.866   6.756
 2939POPC   C3B39597  42.408   7.837   7.231
 2939POPC   C4B39598  42.573   7.683   7.662
 2940POPC   NC339599  27.050  20.293   4.956
 2940POPC   PO439600  26.725  20.763   5.315
 2940POPC   GL139601  26.592  20.666   5.726
 2940POPC   GL239602  26.358  20.967   5.830
 2940POPC   C1A39603  26.698  20.365   6.091
 2940POPC   D2A39604  27.029  20.296   6.449
 2940POPC   C3A39605  26.954  20.467   6.884
 2940POPC   C4A39606  26.997  20.803   7.260
 2940POPC   C1B39607  26.609  20.860   6.182
 2940POPC   C2B39608  26.582  20.628   6.552
 2940POPC   C3B39609  26.564  20.813   6.954
 2940POPC   C4B39610  26.434  20.901   7.342
 2941POPC   NC339611  22.175  27.052   5.358
 2941POPC   PO439612  22.443  26.546   5.502
 2941POPC   GL139613  22.264  26.717   5.887
 2941POPC   GL239614  22.259  27.081   5.917
 2941POPC   C1A39615  22.268  26.772   6.361
 2941POPC   D2A39616  22.471  27.088   6.634
 2941POPC   C3A39617  22.299  27.054   7.032
 2941POPC   C4A39618  21.978  26.821   7.243
 2941POPC   C1B39619  22.058  27.226   6.330
 2941POPC   C2B39620  21.884  27.078   6.757
 2941POPC   C3B39621  21.681  27.222   7.176
 2941POPC   C4B39622  21.617  27.283   7.636
 2942POPC   NC339623  12.896   3.050   5.309
 2942POPC   PO439624  12.608   2.485   5.331
 2942POPC   GL139625  12.672   2.685   5.701
 2942POPC   GL239626  12.987   2.781   5.755
 2942POPC   C1A39627  12.647   2.591   6.135
 2942POPC   D2A39628  12.554   2.696   6.552
 2942POPC   C3A39629  12.774   2.721   6.916
 2942POPC   C4A39630  12.651   2.883   7.319
 2942POPC   C1B39631  13.032   2.929   6.195
 2942POPC   C2B39632  13.207   2.988   6.612
 2942POPC   C3B39633  13.069   3.127   7.034
 2942POPC   C4B39634  13.120   3.165   7.476
 2943POPC   NC339635  42.959  17.987   5.465
 2943POPC   PO439636  43.278  18.551   5.259
 2943POPC   GL139637  43.283  18.438   5.717
 2943POPC   GL239638  43.330  18.109   5.781
 2943POPC   C1A39639  43.289  18.440   6.189
 2943POPC   D2A39640  43.042  18.280   6.553
 2943POPC   C3A39641  43.155  18.345   6.993
 2943POPC   C4A39642  42.860  18.511   7.296
 2943POPC   C1B39643  43.479  17.970   6.160
 2943POPC   C2B39644  43.301  17.817   6.523
 2943POPC   C3B39645  43.289  17.798   6.945
 2943POPC   C4B39646  43.497  17.961   7.284
 2944POPC   NC339647  39.296  33.073   5.339
 2944POPC   PO439648  39.325  32.358   5.363
 2944POPC   GL139649  39.248  32.682   5.734
 2944POPC   GL239650  39.132  33.038   5.802
 2944POPC   C1A39651  39.113  32.681   6.181
 2944POPC   D2A39652  38.985  32.883   6.573
 2944POPC   C3A39653  39.235  32.842   6.949
 2944POPC   C4A39654  39.179  32.631   7.362
 2944POPC   C1B39655  38.988  33.214   6.175
 2944POPC   C2B39656  38.916  33.386   6.575
 2944POPC   C3B39657  38.831  33.208   6.991
 2944POPC   C4B39658  38.828  33.367   7.441
 2945POPC   NC339659  38.158  42.530   5.312
 2945POPC   PO439660  37.583  42.283   5.436
 2945POPC   GL139661  37.513  42.352   5.856
 2945POPC   GL239662  37.615  42.002   5.881
 2945POPC   C1A39663  37.737  42.469   6.243
 2945POPC   D2A39664  37.422  42.510   6.578
 2945POPC   C3A39665  37.607  42.496   6.990
 2945POPC   C4A39666  37.786  42.192   7.259
 2945POPC   C1B39667  37.466  42.055   6.298
 2945POPC   C2B39668  37.683  42.091   6.714
 2945POPC   C3B39669  37.537  41.800   7.051
 2945POPC   C4B39670  37.583  41.788   7.504
 2946POPC   NC339671  38.600  23.939   5.409
 2946POPC   PO439672  38.725  24.585   5.384
 2946POPC   GL139673  38.733  24.773   5.789
 2946POPC   GL239674  38.451  24.545   5.844
 2946POPC   C1A39675  38.731  24.692   6.241
 2946POPC   D2A39676  38.506  24.481   6.553
 2946POPC   C3A39677  38.488  24.618   6.955
 2946POPC   C4A39678  38.270  24.728   7.340
 2946POPC   C1B39679  38.154  24.556   6.181
 2946POPC   C2B39680  38.041  24.284   6.516
 2946POPC   C3B39681  38.240  24.155   6.869
 2946POPC   C4B39682  38.059  24.066   7.231
 2947POPC   NC339683  37.108  21.277   5.435
 2947POPC   PO439684  36.432  21.053   5.379
 2947POPC   GL139685  36.618  21.240   5.782
 2947POPC   GL239686  36.750  21.566   5.736
 2947POPC   C1A39687  36.920  21.067   6.127
 2947POPC   D2A39688  36.883  20.815   6.506
 2947POPC   C3A39689  36.945  21.040   6.870
 2947POPC   C4A39690  36.918  21.191   7.283
 2947POPC   C1B39691  36.798  21.556   6.166
 2947POPC   C2B39692  36.676  21.325   6.530
 2947POPC   C3B39693  36.552  21.502   6.913
 2947POPC   C4B39694  36.758  21.675   7.256
 2948POPC   NC339695   1.917  43.640   5.341
 2948POPC   PO439696   2.133  44.237   5.414
 2948POPC   GL139697   1.900  43.964   5.742
 2948POPC   GL239698   2.136  43.685   5.812
 2948POPC   C1A39699   1.695  44.085   6.135
 2948POPC   D2A39700   1.837  44.306   6.517
 2948POPC   C3A39701   1.768  44.180   6.935
 2948POPC   C4A39702   1.709  43.929   7.279
 2948POPC   C1B39703   1.832  43.577   6.138
 2948POPC   C2B39704   1.807  43.787   6.539
 2948POPC   C3B39705   1.999  43.721   6.911
 2948POPC   C4B39706   2.160  43.497   7.223
 2949POPC   NC339707  19.147   9.075   5.572
 2949POPC   PO439708  19.770   8.994   5.427
 2949POPC   GL139709  19.772   9.018   5.853
 2949POPC   GL239710  20.125   9.002   5.881
 2949POPC   C1A39711  19.618   8.808   6.238
 2949POPC   D2A39712  19.708   8.942   6.668
 2949POPC   C3A39713  19.873   8.666   6.948
 2949POPC   C4A39714  19.598   8.610   7.261
 2949POPC   C1B39715  20.069   9.063   6.326
 2949POPC   C2B39716  20.205   9.021   6.759
 2949POPC   C3B39717  19.967   9.153   7.126
 2949POPC   C4B39718  20.037   9.326   7.546
 2950POPC   NC339719  25.105  15.264   5.436
 2950POPC   PO439720  25.709  15.626   5.296
 2950POPC   GL139721  25.670  15.504   5.731
 2950POPC   GL239722  25.637  15.125   5.801
 2950POPC   C1A39723  25.332  15.486   6.045
 2950POPC   D2A39724  25.069  15.367   6.388
 2950POPC   C3A39725  25.247  15.435   6.783
 2950POPC   C4A39726  25.344  15.382   7.211
 2950POPC   C1B39727  25.458  15.036   6.241
 2950POPC   C2B39728  25.300  14.929   6.660
 2950POPC   C3B39729  25.059  14.999   7.044
 2950POPC   C4B39730  25.229  14.904   7.444
 2951POPC   NC339731  35.913  29.406   5.326
 2951POPC   PO439732  36.341  28.965   5.385
 2951POPC   GL139733  36.198  29.162   5.777
 2951POPC   GL239734  36.031  29.493   5.817
 2951POPC   C1A39735  36.368  29.259   6.214
 2951POPC   D2A39736  36.158  29.220   6.633
 2951POPC   C3A39737  36.352  29.341   7.020
 2951POPC   C4A39738  36.303  29.254   7.465
 2951POPC   C1B39739  35.868  29.250   6.159
 2951POPC   C2B39740  35.684  29.268   6.518
 2951POPC   C3B39741  35.794  29.519   6.859
 2951POPC   C4B39742  35.977  29.586   7.286
 2952POPC   NC339743  23.315  25.476   5.147
 2952POPC   PO439744  22.655  25.841   5.315
 2952POPC   GL139745  22.848  25.890   5.781
 2952POPC   GL239746  23.112  25.638   5.730
 2952POPC   C1A39747  22.945  26.189   6.206
 2952POPC   D2A39748  23.093  26.276   6.690
 2952POPC   C3A39749  22.854  26.184   7.115
 2952POPC   C4A39750  22.437  26.182   7.326
 2952POPC   C1B39751  23.274  25.812   6.112
 2952POPC   C2B39752  23.371  25.857   6.542
 2952POPC   C3B39753  23.197  25.799   6.951
 2952POPC   C4B39754  23.165  25.868   7.390
 2953POPC   NC339755  13.892  36.712   5.468
 2953POPC   PO439756  13.378  37.132   5.358
 2953POPC   GL139757  13.427  36.880   5.736
 2953POPC   GL239758  13.688  37.003   5.907
 2953POPC   C1A39759  13.308  36.730   6.161
 2953POPC   D2A39760  13.454  36.963   6.532
 2953POPC   C3A39761  13.309  36.777   6.919
 2953POPC   C4A39762  13.396  36.658   7.337
 2953POPC   C1B39763  13.807  36.680   6.218
 2953POPC   C2B39764  13.622  36.479   6.586
 2953POPC   C3B39765  13.751  36.513   7.006
 2953POPC   C4B39766  13.969  36.369   7.374
 2954POPC   NC339767   6.436  40.474   5.415
 2954POPC   PO439768   6.890  39.998   5.172
 2954POPC   GL139769   6.785  39.908   5.672
 2954POPC   GL239770   6.453  40.094   5.820
 2954POPC   C1A39771   6.823  39.972   6.168
 2954POPC   D2A39772   6.761  40.246   6.570
 2954POPC   C3A39773   6.765  40.063   7.004
 2954POPC   C4A39774   6.939  40.007   7.446
 2954POPC   C1B39775   6.328  40.228   6.269
 2954POPC   C2B39776   6.219  40.210   6.736
 2954POPC   C3B39777   6.352  40.362   7.123
 2954POPC   C4B39778   6.417  39.989   7.436
 2955POPC   NC339779  23.859  26.216   5.501
 2955POPC   PO439780  23.585  25.534   5.519
 2955POPC   GL139781  23.711  25.844   5.830
 2955POPC   GL239782  23.544  26.200   5.914
 2955POPC   C1A39783  23.813  25.883   6.258
 2955POPC   D2A39784  23.818  26.086   6.643
 2955POPC   C3A39785  23.839  25.842   6.995
 2955POPC   C4A39786  23.579  26.065   7.205
 2955POPC   C1B39787  23.806  26.418   6.231
 2955POPC   C2B39788  24.023  26.543   6.629
 2955POPC   C3B39789  24.054  26.355   7.046
 2955POPC   C4B39790  24.292  26.334   7.442
 2956POPC   NC339791  17.591  21.912   5.313
 2956POPC   PO439792  16.972  21.867   5.385
 2956POPC   GL139793  17.300  22.055   5.721
 2956POPC   GL239794  17.673  22.016   5.848
 2956POPC   C1A39795  17.268  22.126   6.184
 2956POPC   D2A39796  17.275  21.861   6.572
 2956POPC   C3A39797  17.260  21.997   7.000
 2956POPC   C4A39798  17.543  22.311   7.132
 2956POPC   C1B39799  17.756  22.007   6.319
 2956POPC   C2B39800  17.737  21.977   6.790
 2956POPC   C3B39801  17.733  21.850   7.235
 2956POPC   C4B39802  17.842  21.952   7.638
 2957POPC   NC339803  34.237  21.765   5.389
 2957POPC   PO439804  33.882  21.173   5.261
 2957POPC   GL139805  33.820  21.400   5.633
 2957POPC   GL239806  34.130  21.366   5.751
 2957POPC   C1A39807  33.599  21.372   6.028
 2957POPC   D2A39808  33.406  21.580   6.405
 2957POPC   C3A39809  33.585  21.533   6.832
 2957POPC   C4A39810  33.445  21.421   7.247
 2957POPC   C1B39811  34.055  21.575   6.129
 2957POPC   C2B39812  33.891  21.332   6.466
 2957POPC   C3B39813  34.062  21.121   6.827
 2957POPC   C4B39814  33.871  21.126   7.230
 2958POPC   NC339815  42.763  27.522   5.367
 2958POPC   PO439816  43.381  27.595   5.185
 2958POPC   GL139817  43.335  27.429   5.637
 2958POPC   GL239818  43.094  27.672   5.793
 2958POPC   C1A39819  43.280  27.312   6.120
 2958POPC   D2A39820  43.086  27.434   6.559
 2958POPC   C3A39821  43.284  27.335   6.983
 2958POPC   C4A39822  43.277  27.405   7.460
 2958POPC   C1B39823  43.236  27.816   6.219
 2958POPC   C2B39824  43.021  27.932   6.590
 2958POPC   C3B39825  42.976  27.747   6.987
 2958POPC   C4B39826  43.186  27.889   7.335
 2959POPC   NC339827   0.316   0.462   5.337
 2959POPC   PO439828   0.919   0.192   5.316
 2959POPC   GL139829   0.676   0.319   5.683
 2959POPC   GL239830   0.688   0.671   5.625
 2959POPC   C1A39831   0.600   0.258   6.148
 2959POPC   D2A39832   0.411   0.207   6.596
 2959POPC   C3A39833   0.264   0.569   6.853
 2959POPC   C4A39834   0.301   0.574   7.297
 2959POPC   C1B39835   0.629   0.779   6.062
 2959POPC   C2B39836   0.638   0.654   6.481
 2959POPC   C3B39837   0.777   0.529   6.893
 2959POPC   C4B39838   1.056   0.756   7.165
 2960POPC   NC339839  44.202  39.940   5.162
 2960POPC   PO439840  43.896  40.401   5.488
 2960POPC   GL139841  44.042  40.272   5.939
 2960POPC   GL239842  44.302  40.003   5.916
 2960POPC   C1A39843  43.954  40.227   6.383
 2960POPC   D2A39844  43.685  39.934   6.612
 2960POPC   C3A39845  43.628  40.120   6.991
 2960POPC   C4A39846  44.015  40.215   7.165
 2960POPC   C1B39847  44.344  39.884   6.366
 2960POPC   C2B39848  44.167  39.877   6.800
 2960POPC   C3B39849  43.983  39.719   7.207
 2960POPC   C4B39850  44.132  39.826   7.648
 2961POPC   NC339851  21.913  17.707   5.352
 2961POPC   PO439852  22.511  17.629   5.212
 2961POPC   GL139853  22.263  17.557   5.681
 2961POPC   GL239854  22.493  17.694   5.960
 2961POPC   C1A39855  22.078  17.520   6.121
 2961POPC   D2A39856  22.128  17.297   6.497
 2961POPC   C3A39857  22.024  17.488   6.865
 2961POPC   C4A39858  21.941  17.620   7.272
 2961POPC   C1B39859  22.594  17.383   6.284
 2961POPC   C2B39860  22.593  17.141   6.672
 2961POPC   C3B39861  22.741  17.211   7.068
 2961POPC   C4B39862  22.364  17.347   7.219
 2962POPC   NC339863  42.498  13.560   5.416
 2962POPC   PO439864  42.252  14.218   5.368
 2962POPC   GL139865  42.340  13.926   5.772
 2962POPC   GL239866  42.204  13.532   5.835
 2962POPC   C1A39867  42.426  13.779   6.223
 2962POPC   D2A39868  42.575  13.550   6.591
 2962POPC   C3A39869  42.494  13.622   7.011
 2962POPC   C4A39870  42.368  14.012   7.126
 2962POPC   C1B39871  42.277  13.278   6.267
 2962POPC   C2B39872  42.178  13.295   6.747
 2962POPC   C3B39873  42.120  13.272   7.211
 2962POPC   C4B39874  42.103  13.255   7.710
 2963POPC   NC339875  37.849  15.843   5.334
 2963POPC   PO439876  37.453  16.414   5.194
 2963POPC   GL139877  37.348  16.206   5.595
 2963POPC   GL239878  37.507  15.927   5.713
 2963POPC   C1A39879  37.328  16.228   6.083
 2963POPC   D2A39880  37.544  16.234   6.497
 2963POPC   C3A39881  37.539  16.051   6.933
 2963POPC   C4A39882  37.712  16.046   7.388
 2963POPC   C1B39883  37.799  15.988   6.109
 2963POPC   C2B39884  37.952  15.907   6.545
 2963POPC   C3B39885  37.930  15.739   6.996
 2963POPC   C4B39886  38.053  15.690   7.437
 2964POPC   NC339887  36.606  40.604   5.059
 2964POPC   PO439888  36.867  41.215   5.205
 2964POPC   GL139889  36.903  40.880   5.544
 2964POPC   GL239890  36.666  40.595   5.609
 2964POPC   C1A39891  37.008  40.846   6.012
 2964POPC   D2A39892  36.836  40.989   6.418
 2964POPC   C3A39893  36.808  40.949   6.873
 2964POPC   C4A39894  36.500  41.174   7.136
 2964POPC   C1B39895  36.773  40.401   6.019
 2964POPC   C2B39896  36.751  40.461   6.464
 2964POPC   C3B39897  36.775  40.416   6.900
 2964POPC   C4B39898  36.693  40.635   7.298
 2965POPC   NC339899  36.820  13.975   5.390
 2965POPC   PO439900  36.468  14.456   5.511
 2965POPC   GL139901  36.766  14.275   5.807
 2965POPC   GL239902  37.123  14.327   5.683
 2965POPC   C1A39903  36.928  14.479   6.167
 2965POPC   D2A39904  37.005  14.747   6.499
 2965POPC   C3A39905  36.945  14.563   6.878
 2965POPC   C4A39906  37.126  14.704   7.251
 2965POPC   C1B39907  37.344  14.180   6.056
 2965POPC   C2B39908  37.300  14.276   6.491
 2965POPC   C3B39909  37.244  14.063   6.841
 2965POPC   C4B39910  37.098  14.204   7.216
 2966POPC   NC339911  26.050   1.323   5.057
 2966POPC   PO439912  26.191   1.080   5.418
 2966POPC   GL139913  26.211   1.112   5.901
 2966POPC   GL239914  25.866   1.191   6.006
 2966POPC   C1A39915  26.172   1.054   6.395
 2966POPC   D2A39916  25.936   1.203   6.786
 2966POPC   C3A39917  26.159   1.319   7.180
 2966POPC   C4A39918  26.325   1.076   7.554
 2966POPC   C1B39919  25.934   1.508   6.351
 2966POPC   C2B39920  25.735   1.684   6.737
 2966POPC   C3B39921  25.654   1.636   7.181
 2966POPC   C4B39922  25.957   1.659   7.529
 2967POPC   NC339923  40.014  34.229   5.741
 2967POPC   PO439924  40.082  33.455   5.625
 2967POPC   GL139925  40.116  33.748   5.856
 2967POPC   GL239926  39.772  33.825   5.967
 2967POPC   C1A39927  40.237  33.793   6.245
 2967POPC   D2A39928  40.251  34.009   6.596
 2967POPC   C3A39929  40.049  33.812   6.901
 2967POPC   C4A39930  40.144  33.893   7.303
 2967POPC   C1B39931  39.775  33.899   6.422
 2967POPC   C2B39932  39.616  34.133   6.768
 2967POPC   C3B39933  39.574  33.941   7.110
 2967POPC   C4B39934  39.737  33.522   7.204
 2968POPC   NC339935  29.878  26.845   5.346
 2968POPC   PO439936  29.804  26.213   5.381
 2968POPC   GL139937  29.761  26.500   5.725
 2968POPC   GL239938  30.084  26.703   5.804
 2968POPC   C1A39939  29.750  26.633   6.156
 2968POPC   D2A39940  30.003  26.669   6.487
 2968POPC   C3A39941  29.770  26.834   6.804
 2968POPC   C4A39942  29.790  26.634   7.163
 2968POPC   C1B39943  30.086  27.049   6.158
 2968POPC   C2B39944  30.205  27.135   6.628
 2968POPC   C3B39945  30.175  27.042   7.104
 2968POPC   C4B39946  30.326  27.156   7.582
 2969POPC   NC339947  29.389  40.501   5.380
 2969POPC   PO439948  29.310  41.121   5.314
 2969POPC   GL139949  29.333  40.860   5.753
 2969POPC   GL239950  29.002  40.695   5.864
 2969POPC   C1A39951  29.412  40.533   6.112
 2969POPC   D2A39952  29.212  40.526   6.532
 2969POPC   C3A39953  29.434  40.672   6.903
 2969POPC   C4A39954  29.458  41.002   7.179
 2969POPC   C1B39955  29.084  40.977   6.261
 2969POPC   C2B39956  29.137  41.097   6.739
 2969POPC   C3B39957  28.975  40.881   7.104
 2969POPC   C4B39958  28.987  40.482   7.149
 2970POPC   NC339959   7.774  22.766   5.191
 2970POPC   PO439960   7.254  23.094   5.412
 2970POPC   GL139961   7.321  22.995   5.839
 2970POPC   GL239962   7.176  23.294   5.933
 2970POPC   C1A39963   7.546  22.915   6.257
 2970POPC   D2A39964   7.541  23.100   6.687
 2970POPC   C3A39965   7.729  22.897   7.065
 2970POPC   C4A39966   7.516  22.791   7.459
 2970POPC   C1B39967   7.097  23.157   6.368
 2970POPC   C2B39968   7.057  23.163   6.819
 2970POPC   C3B39969   7.307  23.156   7.163
 2970POPC   C4B39970   7.229  23.230   7.584
 2971POPC   NC339971  22.532  17.953   5.549
 2971POPC   PO439972  22.971  18.494   5.346
 2971POPC   GL139973  23.029  18.475   5.823
 2971POPC   GL239974  22.710  18.326   5.888
 2971POPC   C1A39975  23.060  18.376   6.311
 2971POPC   D2A39976  22.827  18.104   6.677
 2971POPC   C3A39977  22.814  18.159   7.103
 2971POPC   C4A39978  23.025  18.303   7.476
 2971POPC   C1B39979  22.522  18.348   6.308
 2971POPC   C2B39980  22.712  18.590   6.654
 2971POPC   C3B39981  22.766  18.694   7.076
 2971POPC   C4B39982  22.533  18.482   7.364
 2972POPC   NC339983  41.745  31.082   5.552
 2972POPC   PO439984  41.526  31.579   5.162
 2972POPC   GL139985  41.411  31.542   5.642
 2972POPC   GL239986  41.300  31.268   5.809
 2972POPC   C1A39987  41.615  31.580   6.109
 2972POPC   D2A39988  41.494  31.665   6.564
 2972POPC   C3A39989  41.674  31.473   6.929
 2972POPC   C4A39990  41.754  31.640   7.345
 2972POPC   C1B39991  41.201  31.360   6.260
 2972POPC   C2B39992  41.400  31.126   6.610
 2972POPC   C3B39993  41.302  30.914   7.006
 2972POPC   C4B39994  41.490  31.186   7.318
 2973POPC   NC339995  39.843  16.165   5.143
 2973POPC   PO439996  39.142  16.017   5.315
 2973POPC   GL139997  39.143  16.031   5.713
 2973POPC   GL239998  39.453  15.882   5.763
 2973POPC   C1A39999  39.248  16.200   6.110
 2973POPC   D2A40000  39.153  16.030   6.516
 2973POPC   C3A40001  39.203  16.222   6.907
 2973POPC   C4A40002  39.043  16.035   7.267
 2973POPC   C1B40003  39.363  15.715   6.182
 2973POPC   C2B40004  39.560  15.749   6.638
 2973POPC   C3B40005  39.479  15.832   7.104
 2973POPC   C4B40006  39.360  15.778   7.568
 2974POPC   NC340007   8.002  33.385   5.342
 2974POPC   PO440008   8.397  32.797   5.391
 2974POPC   GL140009   8.347  32.964   5.784
 2974POPC   GL240010   8.083  33.181   5.808
 2974POPC   C1A40011   8.163  32.859   6.195
 2974POPC   D2A40012   8.322  32.927   6.603
 2974POPC   C3A40013   8.193  32.718   6.978
 2974POPC   C4A40014   8.036  32.779   7.405
 2974POPC   C1B40015   8.412  33.336   6.113
 2974POPC   C2B40016   8.342  33.422   6.538
 2974POPC   C3B40017   8.163  33.297   6.916
 2974POPC   C4B40018   8.326  33.256   7.306
 2975POPC   NC340019  11.196   0.957   5.305
 2975POPC   PO440020  11.517   0.362   5.355
 2975POPC   GL140021  11.291   0.317   5.732
 2975POPC   GL240022  11.177   0.656   5.748
 2975POPC   C1A40023  11.478   0.210   6.126
 2975POPC   D2A40024  11.449   0.399   6.533
 2975POPC   C3A40025  11.350   0.168   6.888
 2975POPC   C4A40026  11.484   0.306   7.251
 2975POPC   C1B40027  11.392   0.764   6.144
 2975POPC   C2B40028  11.291   0.899   6.575
 2975POPC   C3B40029  11.180   0.684   6.972
 2975POPC   C4B40030  11.351   0.803   7.383
 2976POPC   NC340031  32.765  24.360   5.359
 2976POPC   PO440032  33.395  24.692   5.280
 2976POPC   GL140033  33.133  24.536   5.686
 2976POPC   GL240034  32.827  24.755   5.810
 2976POPC   C1A40035  33.009  24.434   6.153
 2976POPC   D2A40036  33.221  24.430   6.569
 2976POPC   C3A40037  32.964  24.200   6.873
 2976POPC   C4A40038  32.552  24.190   7.046
 2976POPC   C1B40039  32.602  24.808   6.205
 2976POPC   C2B40040  32.709  24.579   6.575
 2976POPC   C3B40041  32.767  24.726   6.986
 2976POPC   C4B40042  32.466  24.780   7.310
 2977POPC   NC340043  35.039  18.974   5.528
 2977POPC   PO440044  34.388  18.769   5.523
 2977POPC   GL140045  34.641  18.756   5.869
 2977POPC   GL240046  34.668  19.090   5.904
 2977POPC   C1A40047  34.558  18.693   6.312
 2977POPC   D2A40048  34.266  18.864   6.594
 2977POPC   C3A40049  34.353  18.740   7.010
 2977POPC   C4A40050  34.137  18.820   7.371
 2977POPC   C1B40051  34.721  19.199   6.331
 2977POPC   C2B40052  34.709  19.056   6.753
 2977POPC   C3B40053  34.813  18.954   7.177
 2977POPC   C4B40054  34.781  19.187   7.576
 2978POPC   NC340055  15.462  44.050   5.353
 2978POPC   PO440056  15.431  43.437   5.565
 2978POPC   GL140057  15.276  43.774   5.823
 2978POPC   GL240058  14.943  43.619   5.843
 2978POPC   C1A40059  15.104  43.974   6.221
 2978POPC   D2A40060  15.072  44.291   6.582
 2978POPC   C3A40061  15.235  44.163   6.977
 2978POPC   C4A40062  15.061  44.108   7.378
 2978POPC   C1B40063  15.124  43.454   6.226
 2978POPC   C2B40064  15.117  43.600   6.670
 2978POPC   C3B40065  15.174  43.663   7.125
 2978POPC   C4B40066  15.023  43.553   7.557
 2979POPC   NC340067  42.632  44.197   5.507
 2979POPC   PO440068  43.031  43.683   5.209
 2979POPC   GL140069  42.977  43.829   5.673
 2979POPC   GL240070  42.981  44.163   5.887
 2979POPC   C1A40071  42.968  43.749   6.136
 2979POPC   D2A40072  42.866  44.058   6.465
 2979POPC   C3A40073  42.977  44.060   6.889
 2979POPC   C4A40074  42.940  43.753   7.186
 2979POPC   C1B40075  43.315  44.118   6.220
 2979POPC   C2B40076  43.403  43.895   6.635
 2979POPC   C3B40077  43.426  43.891   7.101
 2979POPC   C4B40078  43.476  44.190   7.434
 2980POPC   NC340079  44.878  24.263   5.451
 2980POPC   PO440080  44.500  23.683   5.314
 2980POPC   GL140081  44.715  23.632   5.712
 2980POPC   GL240082  44.707  23.968   5.842
 2980POPC   C1A40083  44.664  23.464   6.139
 2980POPC   D2A40084  44.445  23.473   6.538
 2980POPC   C3A40085  44.515  23.663   6.934
 2980POPC   C4A40086  44.741  23.476   7.270
 2980POPC   C1B40087  44.865  23.920   6.262
 2980POPC   C2B40088  44.936  23.687   6.637
 2980POPC   C3B40089  44.944  23.902   7.037
 2980POPC   C4B40090  44.776  23.991   7.450
 2981POPC   NC340091   6.419   9.953   5.351
 2981POPC   PO440092   7.009   9.627   5.315
 2981POPC   GL140093   6.761   9.529   5.709
 2981POPC   GL240094   6.604   9.836   5.814
 2981POPC   C1A40095   6.828   9.533   6.182
 2981POPC   D2A40096   6.668   9.681   6.591
 2981POPC   C3A40097   6.876   9.598   6.970
 2981POPC   C4A40098   6.671   9.515   7.372
 2981POPC   C1B40099   6.384   9.818   6.188
 2981POPC   C2B40100   6.319  10.112   6.521
 2981POPC   C3B40101   6.309  10.059   6.949
 2981POPC   C4B40102   6.202   9.688   7.130
 2982POPC   NC340103  18.984   0.037   5.057
 2982POPC   PO440104  19.066   0.610   5.368
 2982POPC   GL140105  19.144   0.383   5.738
 2982POPC   GL240106  18.940   0.051   5.734
 2982POPC   C1A40107  19.263   0.586   6.137
 2982POPC   D2A40108  19.032   0.618   6.537
 2982POPC   C3A40109  19.126   0.340   6.861
 2982POPC   C4A40110  19.271   0.344   7.253
 2982POPC   C1B40111  19.022   0.126   6.177
 2982POPC   C2B40112  18.774   0.158   6.534
 2982POPC   C3B40113  18.762  44.938   6.900
 2982POPC   C4B40114  18.815   0.104   7.279
 2983POPC   NC340115  24.045  32.974   5.229
 2983POPC   PO440116  23.570  33.287   5.527
 2983POPC   GL140117  23.775  33.017   5.777
 2983POPC   GL240118  23.985  33.135   6.035
 2983POPC   C1A40119  23.552  32.883   6.141
 2983POPC   D2A40120  23.700  32.903   6.550
 2983POPC   C3A40121  23.427  32.925   6.903
 2983POPC   C4A40122  23.372  32.747   7.329
 2983POPC   C1B40123  23.612  33.395   6.184
 2983POPC   C2B40124  23.488  33.409   6.594
 2983POPC   C3B40125  23.800  33.265   6.903
 2983POPC   C4B40126  23.755  33.097   7.298
 2984POPC   NC340127   7.568  42.720   5.423
 2984POPC   PO440128   7.686  42.096   5.524
 2984POPC   GL140129   7.517  42.319   5.880
 2984POPC   GL240130   7.249  42.573   5.828
 2984POPC   C1A40131   7.586  42.336   6.314
 2984POPC   D2A40132   7.790  42.477   6.690
 2984POPC   C3A40133   7.671  42.188   7.012
 2984POPC   C4A40134   7.276  41.987   7.143
 2984POPC   C1B40135   7.095  42.376   6.231
 2984POPC   C2B40136   7.226  42.221   6.653
 2984POPC   C3B40137   7.263  42.485   7.010
 2984POPC   C4B40138   6.953  42.578   7.262
 2985POPC   NC340139  12.636  43.878   5.382
 2985POPC   PO440140  12.714  44.506   5.463
 2985POPC   GL140141  12.719  44.256   5.818
 2985POPC   GL240142  13.029  44.056   5.830
 2985POPC   C1A40143  12.579  43.935   6.112
 2985POPC   D2A40144  12.627  43.626   6.472
 2985POPC   C3A40145  12.769  43.755   6.902
 2985POPC   C4A40146  12.877  44.027   7.261
 2985POPC   C1B40147  13.073  43.836   6.251
 2985POPC   C2B40148  13.236  43.735   6.679
 2985POPC   C3B40149  13.265  43.657   7.149
 2985POPC   C4B40150  13.262  43.895   7.565
 2986POPC   NC340151  14.660  10.250   5.518
 2986POPC   PO440152  14.105  10.741   5.516
 2986POPC   GL140153  14.250  10.490   5.853
 2986POPC   GL240154  14.608  10.536   5.946
 2986POPC   C1A40155  14.219  10.436   6.305
 2986POPC   D2A40156  14.472  10.424   6.676
 2986POPC   C3A40157  14.302  10.658   7.014
 2986POPC   C4A40158  14.578  10.921   7.199
 2986POPC   C1B40159  14.902  10.302   6.219
 2986POPC   C2B40160  15.007  10.201   6.666
 2986POPC   C3B40161  14.835  10.369   7.044
 2986POPC   C4B40162  14.440  10.163   7.182
 2987POPC   NC340163  33.343   7.739   5.488
 2987POPC   PO440164  33.083   7.143   5.635
 2987POPC   GL140165  33.120   7.519   5.890
 2987POPC   GL240166  32.817   7.687   5.770
 2987POPC   C1A40167  33.140   7.584   6.334
 2987POPC   D2A40168  32.959   7.307   6.681
 2987POPC   C3A40169  33.098   7.356   7.101
 2987POPC   C4A40170  33.384   7.458   7.447
 2987POPC   C1B40171  32.670   7.400   6.144
 2987POPC   C2B40172  32.463   7.272   6.586
 2987POPC   C3B40173  32.542   7.316   7.077
 2987POPC   C4B40174  32.755   7.050   7.400
 2988POPC   NC340175  40.002   2.834   5.477
 2988POPC   PO440176  39.404   2.384   5.521
 2988POPC   GL140177  39.675   2.641   5.820
 2988POPC   GL240178  40.011   2.525   5.894
 2988POPC   C1A40179  39.825   2.917   6.180
 2988POPC   D2A40180  39.681   3.040   6.610
 2988POPC   C3A40181  39.781   2.816   6.992
 2988POPC   C4A40182  39.673   2.810   7.434
 2988POPC   C1B40183  40.329   2.615   6.193
 2988POPC   C2B40184  40.288   2.761   6.596
 2988POPC   C3B40185  40.168   2.476   6.904
 2988POPC   C4B40186  40.062   2.470   7.307
 2989POPC   NC340187  14.049  10.287   5.417
 2989POPC   PO440188  13.450  10.187   5.295
 2989POPC   GL140189  13.570  10.471   5.656
 2989POPC   GL240190  13.319  10.739   5.820
 2989POPC   C1A40191  13.744  10.476   6.079
 2989POPC   D2A40192  13.613  10.311   6.511
 2989POPC   C3A40193  13.839  10.421   6.877
 2989POPC   C4A40194  13.791  10.768   7.150
 2989POPC   C1B40195  13.327  10.674   6.283
 2989POPC   C2B40196  13.472  10.756   6.721
 2989POPC   C3B40197  13.273  10.828   7.122
 2989POPC   C4B40198  12.861  10.987   7.168
 2990POPC   NC340199  33.903   3.356   5.451
 2990POPC   PO440200  33.568   3.993   5.509
 2990POPC   GL140201  33.668   3.675   5.771
 2990POPC   GL240202  34.024   3.684   5.842
 2990POPC   C1A40203  33.553   3.643   6.184
 2990POPC   D2A40204  33.667   3.469   6.562
 2990POPC   C3A40205  33.522   3.718   6.874
 2990POPC   C4A40206  33.493   3.487   7.214
 2990POPC   C1B40207  33.974   3.330   6.155
 2990POPC   C2B40208  34.108   3.196   6.596
 2990POPC   C3B40209  33.958   3.333   7.022
 2990POPC   C4B40210  33.937   3.761   7.188
 2991POPC   NC340211  13.494   4.312   5.482
 2991POPC   PO440212  13.879   4.717   5.323
 2991POPC   GL140213  13.852   4.452   5.802
 2991POPC   GL240214  13.665   4.076   5.914
 2991POPC   C1A40215  13.834   4.388   6.277
 2991POPC   D2A40216  13.555   4.261   6.624
 2991POPC   C3A40217  13.780   4.283   7.028
 2991POPC   C4A40218  14.024   4.600   7.281
 2991POPC   C1B40219  13.336   3.904   6.245
 2991POPC   C2B40220  13.105   3.988   6.649
 2991POPC   C3B40221  13.036   4.173   7.058
 2991POPC   C4B40222  13.158   4.246   7.514
 2992POPC   NC340223  37.736  44.442   5.522
 2992POPC   PO440224  37.352  44.982   5.402
 2992POPC   GL140225  37.499  44.814   5.810
 2992POPC   GL240226  37.297  44.496   5.783
 2992POPC   C1A40227  37.827  44.806   6.173
 2992POPC   D2A40228  38.056  44.863   6.568
 2992POPC   C3A40229  37.875  44.890   6.957
 2992POPC   C4A40230  37.740  44.579   7.228
 2992POPC   C1B40231  37.531  44.402   6.180
 2992POPC   C2B40232  37.675  44.521   6.625
 2992POPC   C3B40233  38.035  44.365   6.880
 2992POPC   C4B40234  38.034  44.059   7.239
 2993POPC   NC340235  21.468  13.241   5.321
 2993POPC   PO440236  21.176  13.910   5.312
 2993POPC   GL140237  21.377  13.669   5.657
 2993POPC   GL240238  21.185  13.360   5.739
 2993POPC   C1A40239  21.332  13.760   6.097
 2993POPC   D2A40240  21.228  13.946   6.502
 2993POPC   C3A40241  21.398  13.902   6.908
 2993POPC   C4A40242  21.136  14.004   7.210
 2993POPC   C1B40243  21.284  13.284   6.192
 2993POPC   C2B40244  21.384  13.464   6.599
 2993POPC   C3B40245  21.468  13.411   7.058
 2993POPC   C4B40246  21.484  13.287   7.498
 2994POPC   NC340247  25.881   3.940   5.369
 2994POPC   PO440248  26.002   3.287   5.261
 2994POPC   GL140249  26.073   3.588   5.665
 2994POPC   GL240250  25.779   3.574   5.840
 2994POPC   C1A40251  26.186   3.725   6.135
 2994POPC   D2A40252  26.318   3.476   6.512
 2994POPC   C3A40253  26.235   3.524   6.953
 2994POPC   C4A40254  26.402   3.712   7.309
 2994POPC   C1B40255  25.699   3.784   6.274
 2994POPC   C2B40256  25.932   3.792   6.657
 2994POPC   C3B40257  25.950   3.922   7.109
 2994POPC   C4B40258  25.931   3.656   7.483
 2995POPC   NC340259   5.445  41.597   5.195
 2995POPC   PO440260   4.833  41.850   5.237
 2995POPC   GL140261   5.005  41.495   5.565
 2995POPC   GL240262   5.352  41.429   5.694
 2995POPC   C1A40263   5.042  41.516   6.074
 2995POPC   D2A40264   5.202  41.419   6.513
 2995POPC   C3A40265   5.041  41.473   6.967
 2995POPC   C4A40266   5.195  41.575   7.403
 2995POPC   C1B40267   5.436  41.164   6.101
 2995POPC   C2B40268   5.560  40.943   6.484
 2995POPC   C3B40269   5.440  41.112   6.891
 2995POPC   C4B40270   5.375  41.111   7.306
 2996POPC   NC340271  39.322   1.737   5.360
 2996POPC   PO440272  38.786   2.083   5.365
 2996POPC   GL140273  38.964   1.976   5.767
 2996POPC   GL240274  39.325   1.969   5.799
 2996POPC   C1A40275  39.089   2.157   6.187
 2996POPC   D2A40276  38.956   2.006   6.548
 2996POPC   C3A40277  39.235   2.084   6.854
 2996POPC   C4A40278  39.292   2.043   7.238
 2996POPC   C1B40279  39.409   1.767   6.190
 2996POPC   C2B40280  39.347   1.655   6.617
 2996POPC   C3B40281  39.622   1.720   6.974
 2996POPC   C4B40282  39.776   1.903   7.313
 2997POPC   NC340283  32.494  41.668   5.382
 2997POPC   PO440284  31.873  41.872   5.469
 2997POPC   GL140285  32.029  41.647   5.845
 2997POPC   GL240286  32.342  41.468   5.822
 2997POPC   C1A40287  32.227  41.665   6.291
 2997POPC   D2A40288  32.416  41.776   6.698
 2997POPC   C3A40289  32.090  41.772   6.951
 2997POPC   C4A40290  31.851  41.866   7.295
 2997POPC   C1B40291  32.403  41.200   6.167
 2997POPC   C2B40292  32.530  41.287   6.577
 2997POPC   C3B40293  32.271  41.283   6.912
 2997POPC   C4B40294  32.288  41.504   7.331
 2998POPC   NC340295   4.255  28.931   5.550
 2998POPC   PO440296   4.187  28.334   5.203
 2998POPC   GL140297   4.331  28.423   5.637
 2998POPC   GL240298   4.626  28.291   5.686
 2998POPC   C1A40299   4.227  28.394   6.104
 2998POPC   D2A40300   4.028  28.619   6.483
 2998POPC   C3A40301   4.159  28.669   6.932
 2998POPC   C4A40302   4.153  28.393   7.314
 2998POPC   C1B40303   4.640  28.105   6.132
 2998POPC   C2B40304   4.398  28.153   6.524
 2998POPC   C3B40305   4.512  28.305   6.927
 2998POPC   C4B40306   4.739  28.085   7.219
 2999POPC   NC340307  19.829  34.320   5.423
 2999POPC   PO440308  19.617  34.978   5.457
 2999POPC   GL140309  19.885  34.760   5.744
 2999POPC   GL240310  19.634  34.513   5.857
 2999POPC   C1A40311  19.977  34.725   6.196
 2999POPC   D2A40312  19.919  34.923   6.579
 2999POPC   C3A40313  20.061  34.770   6.981
 2999POPC   C4A40314  19.911  34.804   7.432
 2999POPC   C1B40315  19.420  34.247   6.159
 2999POPC   C2B40316  19.547  34.175   6.526
 2999POPC   C3B40317  19.404  34.231   6.927
 2999POPC   C4B40318  19.338  34.443   7.284
 3000POPC   NC340319  13.861  17.819   5.467
 3000POPC   PO440320  13.315  17.402   5.452
 3000POPC   GL140321  13.500  17.568   5.773
 3000POPC   GL240322  13.281  17.821   5.881
 3000POPC   C1A40323  13.613  17.422   6.162
 3000POPC   D2A40324  13.879  17.603   6.455
 3000POPC   C3A40325  13.821  17.541   6.869
 3000POPC   C4A40326  13.553  17.512   7.219
 3000POPC   C1B40327  13.527  17.908   6.202
 3000POPC   C2B40328  13.443  17.826   6.604
 3000POPC   C3B40329  13.545  17.959   6.987
 3000POPC   C4B40330  13.278  17.979   7.301
 3001POPC   NC340331  26.505  19.064   5.217
 3001POPC   PO440332  27.087  19.163   5.540
 3001POPC   GL140333  26.794  19.044   5.834
 3001POPC   GL240334  26.476  19.157   5.725
 3001POPC   C1A40335  26.931  18.955   6.245
 3001POPC   D2A40336  27.168  19.010   6.599
 3001POPC   C3A40337  27.075  18.755   6.962
 3001POPC   C4A40338  27.129  18.956   7.363
 3001POPC   C1B40339  26.489  19.212   6.196
 3001POPC   C2B40340  26.587  19.014   6.637
 3001POPC   C3B40341  26.649  19.014   7.102
 3001POPC   C4B40342  26.667  19.206   7.495
 3002POPC   NC340343  44.812  14.420   4.959
 3002POPC   PO440344  44.181  14.254   5.149
 3002POPC   GL140345  44.405  14.302   5.614
 3002POPC   GL240346  44.786  14.429   5.616
 3002POPC   C1A40347  44.530  14.322   6.114
 3002POPC   D2A40348  44.685  14.259   6.588
 3002POPC   C3A40349  44.488  14.477   6.963
 3002POPC   C4A40350  44.301  14.800   7.235
 3002POPC   C1B40351  44.936  14.629   6.023
 3002POPC   C2B40352  44.790  14.738   6.444
 3002POPC   C3B40353  44.956  14.658   6.842
 3002POPC   C4B40354  44.948  14.321   7.139
 3003POPC   NC340355   9.853  35.670   5.488
 3003POPC   PO440356  10.436  35.181   5.405
 3003POPC   GL140357  10.577  35.401   5.759
 3003POPC   GL240358  10.240  35.525   5.821
 3003POPC   C1A40359  10.604  35.556   6.184
 3003POPC   D2A40360  10.425  35.430   6.591
 3003POPC   C3A40361  10.557  35.558   7.011
 3003POPC   C4A40362  10.488  35.496   7.466
 3003POPC   C1B40363  10.225  35.198   6.159
 3003POPC   C2B40364  10.125  35.020   6.558
 3003POPC   C3B40365  10.275  35.069   6.966
 3003POPC   C4B40366  10.243  35.043   7.413
 3004POPC   NC340367  42.813  32.904   5.462
 3004POPC   PO440368  43.439  32.837   5.417
 3004POPC   GL140369  43.244  33.107   5.732
 3004POPC   GL240370  43.067  32.824   5.888
 3004POPC   C1A40371  43.327  33.169   6.179
 3004POPC   D2A40372  43.125  33.011   6.570
 3004POPC   C3A40373  43.330  33.005   6.975
 3004POPC   C4A40374  43.274  32.670   7.271
 3004POPC   C1B40375  42.798  33.052   6.138
 3004POPC   C2B40376  42.671  33.202   6.522
 3004POPC   C3B40377  42.772  33.234   6.945
 3004POPC   C4B40378  42.967  33.081   7.326
 3005POPC   NC340379  40.285   1.631   5.492
 3005POPC   PO440380  40.343   0.921   5.451
 3005POPC   GL140381  40.202   1.067   5.852
 3005POPC   GL240382  39.999   1.368   5.823
 3005POPC   C1A40383  40.037   1.126   6.276
 3005POPC   D2A40384  39.735   1.018   6.556
 3005POPC   C3A40385  39.876   0.936   6.914
 3005POPC   C4A40386  39.981   1.027   7.287
 3005POPC   C1B40387  39.914   1.643   6.156
 3005POPC   C2B40388  39.836   1.530   6.552
 3005POPC   C3B40389  40.072   1.406   6.893
 3005POPC   C4B40390  40.118   1.545   7.306
 3006POPC   NC340391  40.508   5.474   5.365
 3006POPC   PO440392  40.953   4.928   5.256
 3006POPC   GL140393  40.908   5.042   5.706
 3006POPC   GL240394  40.574   4.920   5.837
 3006POPC   C1A40395  40.864   5.224   6.141
 3006POPC   D2A40396  40.883   5.073   6.582
 3006POPC   C3A40397  41.106   5.336   6.885
 3006POPC   C4A40398  40.929   5.480   7.251
 3006POPC   C1B40399  40.341   5.128   6.176
 3006POPC   C2B40400  40.358   5.185   6.617
 3006POPC   C3B40401  40.578   5.227   6.987
 3006POPC   C4B40402  40.904   4.941   7.158
 3007POPC   NC340403  11.488  43.021   5.377
 3007POPC   PO440404  11.009  43.453   5.232
 3007POPC   GL140405  11.219  43.290   5.701
 3007POPC   GL240406  11.343  42.938   5.844
 3007POPC   C1A40407  11.433  43.364   6.120
 3007POPC   D2A40408  11.696  43.244   6.494
 3007POPC   C3A40409  11.530  43.258   6.866
 3007POPC   C4A40410  11.350  43.314   7.252
 3007POPC   C1B40411  11.647  42.841   6.192
 3007POPC   C2B40412  11.540  42.731   6.642
 3007POPC   C3B40413  11.462  42.808   7.097
 3007POPC   C4B40414  11.217  42.861   7.509
 3008POPC   NC340415  16.247  41.613   5.478
 3008POPC   PO440416  15.687  41.271   5.538
 3008POPC   GL140417  15.846  41.501   5.874
 3008POPC   GL240418  15.586  41.251   6.041
 3008POPC   C1A40419  16.105  41.750   6.191
 3008POPC   D2A40420  16.335  41.983   6.528
 3008POPC   C3A40421  16.278  41.795   6.970
 3008POPC   C4A40422  16.379  41.457   7.277
 3008POPC   C1B40423  15.610  41.584   6.322
 3008POPC   C2B40424  15.892  41.551   6.678
 3008POPC   C3B40425  15.885  41.449   7.110
 3008POPC   C4B40426  15.946  41.756   7.418
 3009POPC   NC340427  11.834  32.362   5.113
 3009POPC   PO440428  11.240  31.947   5.385
 3009POPC   GL140429  11.066  32.033   5.801
 3009POPC   GL240430  11.204  32.353   5.909
 3009POPC   C1A40431  11.204  31.960   6.229
 3009POPC   D2A40432  11.205  32.158   6.627
 3009POPC   C3A40433  11.349  31.998   6.982
 3009POPC   C4A40434  11.154  32.041   7.358
 3009POPC   C1B40435  11.494  32.437   6.303
 3009POPC   C2B40436  11.622  32.415   6.776
 3009POPC   C3B40437  11.358  32.499   7.131
 3009POPC   C4B40438  11.178  32.508   7.587
 3010POPC   NC340439   0.809  19.305   5.359
 3010POPC   PO440440   1.430  19.095   5.268
 3010POPC   GL140441   1.266  19.283   5.657
 3010POPC   GL240442   1.085  18.997   5.683
 3010POPC   C1A40443   1.297  19.143   6.120
 3010POPC   D2A40444   1.437  19.296   6.521
 3010POPC   C3A40445   1.554  19.120   6.908
 3010POPC   C4A40446   1.323  19.103   7.283
 3010POPC   C1B40447   0.855  18.890   6.086
 3010POPC   C2B40448   0.796  19.106   6.460
 3010POPC   C3B40449   1.019  19.036   6.825
 3010POPC   C4B40450   0.906  18.816   7.193
 3011POPC   NC340451  21.698  42.164   5.233
 3011POPC   PO440452  21.211  42.506   5.414
 3011POPC   GL140453  21.569  42.404   5.674
 3011POPC   GL240454  21.600  42.696   5.892
 3011POPC   C1A40455  21.749  42.206   6.042
 3011POPC   D2A40456  21.729  42.353   6.476
 3011POPC   C3A40457  21.458  42.119   6.748
 3011POPC   C4A40458  21.156  42.145   7.082
 3011POPC   C1B40459  21.724  42.865   6.291
 3011POPC   C2B40460  21.689  42.812   6.755
 3011POPC   C3B40461  21.458  42.563   7.046
 3011POPC   C4B40462  21.621  42.290   7.380
 3012POPC   NC340463  30.391  19.840   5.490
 3012POPC   PO440464  31.040  19.854   5.257
 3012POPC   GL140465  30.965  19.877   5.721
 3012POPC   GL240466  30.752  20.183   5.691
 3012POPC   C1A40467  31.000  19.681   6.177
 3012POPC   D2A40468  30.712  19.579   6.560
 3012POPC   C3A40469  30.862  19.581   6.995
 3012POPC   C4A40470  30.876  19.603   7.450
 3012POPC   C1B40471  30.727  20.106   6.143
 3012POPC   C2B40472  30.923  20.056   6.548
 3012POPC   C3B40473  30.717  20.069   6.937
 3012POPC   C4B40474  30.490  20.124   7.307
 3013POPC   NC340475  39.224   3.227   5.307
 3013POPC   PO440476  39.011   3.890   5.336
 3013POPC   GL140477  39.188   3.770   5.752
 3013POPC   GL240478  39.548   3.659   5.710
 3013POPC   C1A40479  39.042   3.738   6.202
 3013POPC   D2A40480  39.270   3.781   6.609
 3013POPC   C3A40481  39.153   3.672   7.055
 3013POPC   C4A40482  39.246   3.603   7.501
 3013POPC   C1B40483  39.568   3.749   6.170
 3013POPC   C2B40484  39.714   3.546   6.583
 3013POPC   C3B40485  39.606   3.407   7.023
 3013POPC   C4B40486  39.752   3.577   7.446
 3014POPC   NC340487  28.279  36.045   5.155
 3014POPC   PO440488  28.539  36.531   5.488
 3014POPC   GL140489  28.353  36.192   5.772
 3014POPC   GL240490  28.184  35.892   5.615
 3014POPC   C1A40491  28.590  35.973   6.151
 3014POPC   D2A40492  28.889  36.109   6.506
 3014POPC   C3A40493  28.702  36.323   6.875
 3014POPC   C4A40494  28.408  36.116   7.174
 3014POPC   C1B40495  28.132  35.789   6.013
 3014POPC   C2B40496  28.084  35.789   6.427
 3014POPC   C3B40497  28.105  35.882   6.838
 3014POPC   C4B40498  28.036  35.768   7.253
 3015POPC   NC340499  26.521  39.174   5.422
 3015POPC   PO440500  25.859  39.047   5.333
 3015POPC   GL140501  26.068  39.287   5.666
 3015POPC   GL240502  25.912  39.063   5.853
 3015POPC   C1A40503  26.212  39.487   6.084
 3015POPC   D2A40504  26.375  39.328   6.506
 3015POPC   C3A40505  26.160  39.242   6.914
 3015POPC   C4A40506  26.239  39.509   7.270
 3015POPC   C1B40507  26.014  39.050   6.252
 3015POPC   C2B40508  25.941  38.856   6.594
 3015POPC   C3B40509  25.753  38.887   6.986
 3015POPC   C4B40510  25.723  39.136   7.338
 3016POPC   NC340511   2.606   6.929   5.460
 3016POPC   PO440512   2.418   6.293   5.456
 3016POPC   GL140513   2.630   6.401   5.845
 3016POPC   GL240514   2.762   6.749   5.912
 3016POPC   C1A40515   2.503   6.481   6.263
 3016POPC   D2A40516   2.713   6.742   6.554
 3016POPC   C3A40517   2.532   6.751   6.953
 3016POPC   C4A40518   2.528   6.465   7.288
 3016POPC   C1B40519   3.040   6.486   6.172
 3016POPC   C2B40520   3.087   6.357   6.601
 3016POPC   C3B40521   2.971   6.401   7.024
 3016POPC   C4B40522   3.159   6.735   7.282
 3017POPC   NC340523  20.154  41.904   5.357
 3017POPC   PO440524  20.458  41.366   5.388
 3017POPC   GL140525  20.576  41.606   5.742
 3017POPC   GL240526  20.287  41.462   5.862
 3017POPC   C1A40527  20.724  41.519   6.182
 3017POPC   D2A40528  20.866  41.196   6.498
 3017POPC   C3A40529  20.839  41.405   6.897
 3017POPC   C4A40530  20.822  41.756   7.209
 3017POPC   C1B40531  20.200  41.842   6.102
 3017POPC   C2B40532  20.323  41.983   6.518
 3017POPC   C3B40533  20.422  41.712   6.847
 3017POPC   C4B40534  20.318  41.729   7.251
 3018POPC   NC340535  28.890  41.302   5.381
 3018POPC   PO440536  29.276  41.881   5.313
 3018POPC   GL140537  29.277  41.573   5.638
 3018POPC   GL240538  29.565  41.667   5.781
 3018POPC   C1A40539  29.143  41.468   6.060
 3018POPC   D2A40540  29.253  41.530   6.496
 3018POPC   C3A40541  29.108  41.612   6.929
 3018POPC   C4A40542  29.108  41.357   7.239
 3018POPC   C1B40543  29.605  41.834   6.205
 3018POPC   C2B40544  29.479  41.959   6.619
 3018POPC   C3B40545  29.411  42.028   7.041
 3018POPC   C4B40546  29.260  41.850   7.432
 3019POPC   NC340547  29.452   2.036   5.614
 3019POPC   PO440548  28.984   1.832   5.306
 3019POPC   GL140549  29.005   1.869   5.789
 3019POPC   GL240550  29.034   2.226   5.902
 3019POPC   C1A40551  29.262   1.865   6.220
 3019POPC   D2A40552  29.427   1.759   6.648
 3019POPC   C3A40553  29.173   2.028   6.914
 3019POPC   C4A40554  28.906   1.888   7.224
 3019POPC   C1B40555  29.394   2.376   6.178
 3019POPC   C2B40556  29.339   2.427   6.627
 3019POPC   C3B40557  29.399   2.485   7.065
 3019POPC   C4B40558  29.325   2.282   7.475
 3020POPC   NC340559  41.362  23.195   5.455
 3020POPC   PO440560  41.753  22.702   5.233
 3020POPC   GL140561  41.719  22.884   5.683
 3020POPC   GL240562  41.386  22.852   5.837
 3020POPC   C1A40563  41.739  23.014   6.159
 3020POPC   D2A40564  41.944  23.020   6.569
 3020POPC   C3A40565  41.722  23.094   6.961
 3020POPC   C4A40566  41.658  22.927   7.347
 3020POPC   C1B40567  41.159  22.797   6.223
 3020POPC   C2B40568  41.354  22.933   6.608
 3020POPC   C3B40569  41.263  22.864   7.023
 3020POPC   C4B40570  41.175  22.996   7.449
 3021POPC   NC340571  42.901  18.773   5.410
 3021POPC   PO440572  43.204  19.368   5.414
 3021POPC   GL140573  43.204  19.062   5.730
 3021POPC   GL240574  43.472  18.883   5.598
 3021POPC   C1A40575  43.097  18.925   6.149
 3021POPC   D2A40576  43.150  19.052   6.572
 3021POPC   C3A40577  42.950  18.900   6.945
 3021POPC   C4A40578  43.016  19.097   7.327
 3021POPC   C1B40579  43.597  18.835   6.037
 3021POPC   C2B40580  43.583  18.767   6.504
 3021POPC   C3B40581  43.482  18.894   6.951
 3021POPC   C4B40582  43.315  18.711   7.326
 3022POPC   NC340583  40.625  14.254   5.335
 3022POPC   PO440584  40.545  14.940   5.359
 3022POPC   GL140585  40.604  14.764   5.806
 3022POPC   GL240586  40.481  14.420   5.806
 3022POPC   C1A40587  40.739  14.543   6.235
 3022POPC   D2A40588  41.000  14.486   6.629
 3022POPC   C3A40589  40.855  14.556   7.080
 3022POPC   C4A40590  41.092  14.488   7.485
 3022POPC   C1B40591  40.459  14.095   6.111
 3022POPC   C2B40592  40.658  13.971   6.459
 3022POPC   C3B40593  40.675  14.052   6.860
 3022POPC   C4B40594  40.420  14.290   7.077
 3023POPC   NC340595  15.293  15.167   5.381
 3023POPC   PO440596  14.868  15.599   5.602
 3023POPC   GL140597  15.142  15.337   5.866
 3023POPC   GL240598  15.370  15.024   5.870
 3023POPC   C1A40599  15.225  15.359   6.286
 3023POPC   D2A40600  15.494  15.458   6.603
 3023POPC   C3A40601  15.296  15.490   6.998
 3023POPC   C4A40602  15.109  15.463   7.391
 3023POPC   C1B40603  15.251  14.851   6.276
 3023POPC   C2B40604  15.216  15.031   6.688
 3023POPC   C3B40605  15.324  14.996   7.102
 3023POPC   C4B40606  15.467  15.030   7.519
 3024POPC   NC340607  19.803  21.422   5.287
 3024POPC   PO440608  19.689  20.822   5.522
 3024POPC   GL140609  19.930  21.212   5.759
 3024POPC   GL240610  19.682  21.462   5.800
 3024POPC   C1A40611  20.061  21.482   6.133
 3024POPC   D2A40612  19.885  21.537   6.567
 3024POPC   C3A40613  20.045  21.285   6.947
 3024POPC   C4A40614  19.907  21.538   7.278
 3024POPC   C1B40615  19.518  21.644   6.187
 3024POPC   C2B40616  19.384  21.539   6.620
 3024POPC   C3B40617  19.540  21.326   6.997
 3024POPC   C4B40618  19.648  21.109   7.385
 3025POPC   NC340619  44.231  43.637   5.443
 3025POPC   PO440620  44.656  44.195   5.413
 3025POPC   GL140621  44.609  44.007   5.785
 3025POPC   GL240622  44.264  44.035   5.809
 3025POPC   C1A40623  44.590  43.704   6.135
 3025POPC   D2A40624  44.409  43.707   6.555
 3025POPC   C3A40625  44.622  43.791   6.931
 3025POPC   C4A40626  44.808  43.907   7.315
 3025POPC   C1B40627  44.315  44.143   6.274
 3025POPC   C2B40628  44.336  44.397   6.668
 3025POPC   C3B40629  44.582  44.299   7.075
 3025POPC   C4B40630  44.373  44.100   7.467
 3026POPC   NC340631  35.191  14.073   5.051
 3026POPC   PO440632  35.047  13.485   5.273
 3026POPC   GL140633  35.078  13.410   5.704
 3026POPC   GL240634  35.089  13.764   5.776
 3026POPC   C1A40635  35.284  13.376   6.106
 3026POPC   D2A40636  35.386  13.577   6.504
 3026POPC   C3A40637  35.471  13.424   6.926
 3026POPC   C4A40638  35.382  13.519   7.375
 3026POPC   C1B40639  34.977  13.796   6.233
 3026POPC   C2B40640  35.026  13.957   6.653
 3026POPC   C3B40641  35.174  13.841   7.035
 3026POPC   C4B40642  35.049  13.878   7.459
 3027POPC   NC340643   2.464  44.677   5.499
 3027POPC   PO440644   3.028  44.250   5.453
 3027POPC   GL140645   2.948  44.523   5.830
 3027POPC   GL240646   2.887  44.907   5.796
 3027POPC   C1A40647   2.893  44.430   6.284
 3027POPC   D2A40648   3.127  44.373   6.681
 3027POPC   C3A40649   2.915  44.535   7.053
 3027POPC   C4A40650   2.462  44.570   7.171
 3027POPC   C1B40651   2.619  44.857   6.176
 3027POPC   C2B40652   2.682  44.763   6.627
 3027POPC   C3B40653   2.716   0.012   6.996
 3027POPC   C4B40654   2.769  44.904   7.404
 3028POPC   NC340655  12.722  28.110   5.400
 3028POPC   PO440656  13.404  28.193   5.443
 3028POPC   GL140657  13.073  28.126   5.792
 3028POPC   GL240658  12.800  28.382   5.815
 3028POPC   C1A40659  13.036  28.281   6.238
 3028POPC   D2A40660  13.241  28.582   6.494
 3028POPC   C3A40661  12.975  28.622   6.876
 3028POPC   C4A40662  12.973  28.451   7.282
 3028POPC   C1B40663  12.529  28.189   6.170
 3028POPC   C2B40664  12.483  28.294   6.637
 3028POPC   C3B40665  12.597  28.151   7.066
 3028POPC   C4B40666  12.500  28.193   7.549
 3029POPC   NC340667  29.010  19.269   5.381
 3029POPC   PO440668  29.528  18.804   5.470
 3029POPC   GL140669  29.100  18.835   5.674
 3029POPC   GL240670  29.174  19.126   5.895
 3029POPC   C1A40671  28.914  18.758   6.113
 3029POPC   D2A40672  29.248  18.895   6.428
 3029POPC   C3A40673  29.292  18.795   6.872
 3029POPC   C4A40674  28.944  18.949   7.142
 3029POPC   C1B40675  29.477  19.308   6.236
 3029POPC   C2B40676  29.357  19.499   6.653
 3029POPC   C3B40677  29.263  19.361   7.086
 3029POPC   C4B40678  29.410  19.428   7.527
 3030POPC   NC340679  43.429  20.853   5.103
 3030POPC   PO440680  43.108  20.363   5.451
 3030POPC   GL140681  42.956  20.470   5.837
 3030POPC   GL240682  43.282  20.352   5.985
 3030POPC   C1A40683  42.985  20.634   6.278
 3030POPC   D2A40684  43.082  20.343   6.625
 3030POPC   C3A40685  42.816  20.348   6.953
 3030POPC   C4A40686  42.952  20.685   7.201
 3030POPC   C1B40687  43.535  20.323   6.380
 3030POPC   C2B40688  43.524  20.577   6.785
 3030POPC   C3B40689  43.471  20.725   7.218
 3030POPC   C4B40690  43.320  20.458   7.604
 3031POPC   NC340691  43.174  31.301   5.392
 3031POPC   PO440692  42.626  31.718   5.356
 3031POPC   GL140693  42.897  31.611   5.677
 3031POPC   GL240694  43.138  31.837   5.728
 3031POPC   C1A40695  43.113  31.491   6.080
 3031POPC   D2A40696  42.968  31.386   6.479
 3031POPC   C3A40697  43.208  31.291   6.842
 3031POPC   C4A40698  42.968  31.276   7.194
 3031POPC   C1B40699  42.775  31.902   6.071
 3031POPC   C2B40700  42.598  31.754   6.504
 3031POPC   C3B40701  42.851  31.703   6.908
 3031POPC   C4B40702  43.227  31.715   7.212
 3032POPC   NC340703  36.653  22.374   5.410
 3032POPC   PO440704  37.003  21.726   5.307
 3032POPC   GL140705  36.934  22.035   5.675
 3032POPC   GL240706  37.139  22.325   5.740
 3032POPC   C1A40707  36.917  22.071   6.135
 3032POPC   D2A40708  37.053  21.848   6.511
 3032POPC   C3A40709  36.862  22.035   6.879
 3032POPC   C4A40710  37.006  22.115   7.287
 3032POPC   C1B40711  37.325  22.417   6.194
 3032POPC   C2B40712  37.431  22.579   6.639
 3032POPC   C3B40713  37.269  22.495   7.078
 3032POPC   C4B40714  37.295  22.433   7.562
 3033POPC   NC340715  13.890  43.598   5.428
 3033POPC   PO440716  13.444  44.124   5.495
 3033POPC   GL140717  13.548  43.979   5.886
 3033POPC   GL240718  13.424  43.632   5.884
 3033POPC   C1A40719  13.461  44.162   6.282
 3033POPC   D2A40720  13.548  44.164   6.693
 3033POPC   C3A40721  13.717  43.796   6.869
 3033POPC   C4A40722  13.772  44.044   7.214
 3033POPC   C1B40723  13.596  43.651   6.315
 3033POPC   C2B40724  13.916  43.424   6.539
 3033POPC   C3B40725  14.019  43.333   6.936
 3033POPC   C4B40726  13.889  43.545   7.309
 3034POPC   NC340727  30.735  27.312   5.528
 3034POPC   PO440728  30.431  27.938   5.473
 3034POPC   GL140729  30.510  27.682   5.811
 3034POPC   GL240730  30.850  27.693   5.869
 3034POPC   C1A40731  30.472  27.417   6.194
 3034POPC   D2A40732  30.698  27.319   6.587
 3034POPC   C3A40733  30.536  27.412   7.025
 3034POPC   C4A40734  30.430  27.654   7.414
 3034POPC   C1B40735  31.132  27.440   6.117
 3034POPC   C2B40736  31.190  27.505   6.534
 3034POPC   C3B40737  30.935  27.715   6.817
 3034POPC   C4B40738  30.981  27.706   7.235
 3035POPC   NC340739  14.672  20.553   5.474
 3035POPC   PO440740  14.160  20.860   5.221
 3035POPC   GL140741  14.270  20.790   5.684
 3035POPC   GL240742  14.327  20.413   5.814
 3035POPC   C1A40743  14.458  20.797   6.102
 3035POPC   D2A40744  14.562  20.455   6.378
 3035POPC   C3A40745  14.546  20.510   6.816
 3035POPC   C4A40746  14.670  20.335   7.193
 3035POPC   C1B40747  14.019  20.547   6.135
 3035POPC   C2B40748  14.091  20.767   6.509
 3035POPC   C3B40749  14.035  20.609   6.906
 3035POPC   C4B40750  14.232  20.563   7.248
 3036POPC   NC340751  38.424  24.946   5.416
 3036POPC   PO440752  38.898  25.438   5.385
 3036POPC   GL140753  38.654  25.304   5.739
 3036POPC   GL240754  38.475  25.594   5.825
 3036POPC   C1A40755  38.464  25.104   6.113
 3036POPC   D2A40756  38.297  24.944   6.523
 3036POPC   C3A40757  38.459  25.119   6.942
 3036POPC   C4A40758  38.365  25.234   7.360
 3036POPC   C1B40759  38.662  25.578   6.234
 3036POPC   C2B40760  38.526  25.518   6.640
 3036POPC   C3B40761  38.447  25.654   7.089
 3036POPC   C4B40762  38.537  25.660   7.575
 3037POPC   NC340763  14.633  41.953   5.560
 3037POPC   PO440764  14.093  41.609   5.559
 3037POPC   GL140765  14.325  41.551   5.913
 3037POPC   GL240766  14.676  41.436   5.864
 3037POPC   C1A40767  14.182  41.658   6.331
 3037POPC   D2A40768  14.435  41.814   6.677
 3037POPC   C3A40769  14.429  41.696   7.129
 3037POPC   C4A40770  14.192  41.465   7.422
 3037POPC   C1B40771  14.663  41.493   6.329
 3037POPC   C2B40772  14.375  41.289   6.611
 3037POPC   C3B40773  14.401  41.142   6.986
 3037POPC   C4B40774  14.667  41.239   7.293
 3038POPC   NC340775  30.928  33.514   5.646
 3038POPC   PO440776  30.429  33.872   5.255
 3038POPC   GL140777  30.539  33.932   5.723
 3038POPC   GL240778  30.894  33.993   5.826
 3038POPC   C1A40779  30.527  34.098   6.171
 3038POPC   D2A40780  30.793  34.138   6.539
 3038POPC   C3A40781  30.632  34.147   6.935
 3038POPC   C4A40782  30.640  33.876   7.252
 3038POPC   C1B40783  30.875  33.714   6.246
 3038POPC   C2B40784  30.942  33.461   6.633
 3038POPC   C3B40785  30.749  33.423   7.056
 3038POPC   C4B40786  30.908  33.523   7.508
 3039POPC   NC340787  41.914  39.683   4.964
 3039POPC   PO440788  41.430  40.099   5.311
 3039POPC   GL140789  41.535  40.110   5.749
 3039POPC   GL240790  41.235  40.117   5.949
 3039POPC   C1A40791  41.742  40.150   6.153
 3039POPC   D2A40792  41.577  40.195   6.581
 3039POPC   C3A40793  41.685  39.984   6.981
 3039POPC   C4A40794  42.049  39.954   7.296
 3039POPC   C1B40795  41.354  39.841   6.288
 3039POPC   C2B40796  41.212  39.811   6.725
 3039POPC   C3B40797  41.171  39.908   7.178
 3039POPC   C4B40798  41.182  39.923   7.653
 3040POPC   NC340799  34.591  28.104   5.472
 3040POPC   PO440800  34.274  28.774   5.380
 3040POPC   GL140801  34.347  28.492   5.715
 3040POPC   GL240802  34.705  28.550   5.732
 3040POPC   C1A40803  34.377  28.270   6.130
 3040POPC   D2A40804  34.322  28.128   6.565
 3040POPC   C3A40805  34.680  28.171   6.806
 3040POPC   C4A40806  34.692  28.216   7.231
 3040POPC   C1B40807  34.559  28.753   6.108
 3040POPC   C2B40808  34.618  28.608   6.524
 3040POPC   C3B40809  34.443  28.624   6.938
 3040POPC   C4B40810  34.685  28.714   7.288
 3041POPC   NC340811  41.600   2.527   5.535
 3041POPC   PO440812  41.680   1.873   5.442
 3041POPC   GL140813  41.737   2.048   5.816
 3041POPC   GL240814  41.965   2.317   5.835
 3041POPC   C1A40815  41.608   1.885   6.193
 3041POPC   D2A40816  41.518   2.158   6.478
 3041POPC   C3A40817  41.595   2.140   6.868
 3041POPC   C4A40818  41.389   2.074   7.199
 3041POPC   C1B40819  42.029   2.132   6.235
 3041POPC   C2B40820  42.052   1.975   6.638
 3041POPC   C3B40821  42.087   2.221   6.989
 3041POPC   C4B40822  41.891   2.056   7.336
 3042POPC   NC340823  44.149  42.769   5.444
 3042POPC   PO440824  43.749  42.263   5.379
 3042POPC   GL140825  43.926  42.409   5.750
 3042POPC   GL240826  44.016  42.073   5.797
 3042POPC   C1A40827  44.035  42.679   6.109
 3042POPC   D2A40828  43.909  42.816   6.517
 3042POPC   C3A40829  43.962  42.500   6.841
 3042POPC   C4A40830  43.782  42.463   7.253
 3042POPC   C1B40831  43.969  42.187   6.227
 3042POPC   C2B40832  44.176  42.063   6.588
 3042POPC   C3B40833  44.130  41.825   6.919
 3042POPC   C4B40834  43.921  41.974   7.257
 3043POPC   NC340835  30.156  41.142   5.375
 3043POPC   PO440836  29.833  40.603   5.416
 3043POPC   GL140837  30.088  40.553   5.769
 3043POPC   GL240838  30.153  40.874   5.799
 3043POPC   C1A40839  29.976  40.365   6.144
 3043POPC   D2A40840  29.729  40.422   6.515
 3043POPC   C3A40841  29.989  40.592   6.831
 3043POPC   C4A40842  29.864  40.665   7.236
 3043POPC   C1B40843  29.793  40.846   6.071
 3043POPC   C2B40844  29.575  40.920   6.460
 3043POPC   C3B40845  29.789  41.062   6.811
 3043POPC   C4B40846  29.949  41.178   7.211
 3044POPC   NC340847   1.785   7.359   5.513
 3044POPC   PO440848   2.154   6.891   5.339
 3044POPC   GL140849   2.228   7.235   5.761
 3044POPC   GL240850   2.278   7.616   5.765
 3044POPC   C1A40851   1.938   7.357   6.182
 3044POPC   D2A40852   1.638   7.419   6.591
 3044POPC   C3A40853   1.892   7.439   6.973
 3044POPC   C4A40854   1.844   7.246   7.399
 3044POPC   C1B40855   2.383   7.616   6.226
 3044POPC   C2B40856   2.366   7.369   6.628
 3044POPC   C3B40857   2.367   7.335   7.101
 3044POPC   C4B40858   2.170   7.626   7.427
 3045POPC   NC340859  10.919  38.772   5.049
 3045POPC   PO440860  11.414  39.134   5.325
 3045POPC   GL140861  11.388  39.190   5.746
 3045POPC   GL240862  11.655  38.947   5.777
 3045POPC   C1A40863  11.250  39.165   6.182
 3045POPC   D2A40864  11.103  39.249   6.624
 3045POPC   C3A40865  11.239  39.090   7.019
 3045POPC   C4A40866  11.152  39.227   7.462
 3045POPC   C1B40867  11.776  39.347   6.015
 3045POPC   C2B40868  11.626  39.395   6.455
 3045POPC   C3B40869  11.723  39.340   6.911
 3045POPC   C4B40870  11.650  39.156   7.298
 3046POPC   NC340871   0.909  17.774   5.580
 3046POPC   PO440872   1.157  17.252   5.377
 3046POPC   GL140873   1.031  17.281   5.827
 3046POPC   GL240874   1.163  17.043   6.059
 3046POPC   C1A40875   0.943  17.458   6.277
 3046POPC   D2A40876   1.198  17.475   6.693
 3046POPC   C3A40877   1.040  17.562   7.114
 3046POPC   C4A40878   1.031  17.555   7.602
 3046POPC   C1B40879   1.432  17.428   6.119
 3046POPC   C2B40880   1.525  17.757   6.415
 3046POPC   C3B40881   1.657  17.730   6.850
 3046POPC   C4B40882   1.503  17.748   7.253
 3047POPC   NC340883  20.949   8.771   5.551
 3047POPC   PO440884  20.560   9.259   5.339
 3047POPC   GL140885  20.615   9.116   5.752
 3047POPC   GL240886  20.831   9.357   5.846
 3047POPC   C1A40887  20.561   8.933   6.201
 3047POPC   D2A40888  20.731   8.802   6.631
 3047POPC   C3A40889  20.596   8.930   7.078
 3047POPC   C4A40890  20.478   9.071   7.489
 3047POPC   C1B40891  20.864   9.326   6.314
 3047POPC   C2B40892  20.795   9.292   6.772
 3047POPC   C3B40893  20.865   9.335   7.239
 3047POPC   C4B40894  21.082   9.381   7.651
 3048POPC   NC340895  30.383  34.401   5.222
 3048POPC   PO440896  30.990  34.732   5.360
 3048POPC   GL140897  30.752  34.514   5.711
 3048POPC   GL240898  30.528  34.746   5.880
 3048POPC   C1A40899  30.856  34.500   6.181
 3048POPC   D2A40900  30.690  34.656   6.593
 3048POPC   C3A40901  30.871  34.595   7.009
 3048POPC   C4A40902  30.899  34.718   7.427
 3048POPC   C1B40903  30.324  34.581   6.246
 3048POPC   C2B40904  30.165  34.712   6.615
 3048POPC   C3B40905  30.343  34.563   6.970
 3048POPC   C4B40906  30.414  34.527   7.382
 3049POPC   NC340907  30.349  28.463   5.525
 3049POPC   PO440908  29.737  28.211   5.435
 3049POPC   GL140909  29.915  28.386   5.792
 3049POPC   GL240910  30.092  28.077   5.861
 3049POPC   C1A40911  29.777  28.614   6.176
 3049POPC   D2A40912  29.650  28.419   6.554
 3049POPC   C3A40913  29.850  28.503   6.911
 3049POPC   C4A40914  29.716  28.362   7.289
 3049POPC   C1B40915  30.206  28.334   6.210
 3049POPC   C2B40916  30.303  28.323   6.615
 3049POPC   C3B40917  30.388  28.435   6.999
 3049POPC   C4B40918  30.155  28.633   7.301
 3050POPC   NC340919  34.469  31.772   5.271
 3050POPC   PO440920  34.207  32.300   5.336
 3050POPC   GL140921  34.349  32.055   5.692
 3050POPC   GL240922  34.697  31.952   5.696
 3050POPC   C1A40923  34.287  32.189   6.109
 3050POPC   D2A40924  34.134  32.458   6.418
 3050POPC   C3A40925  34.298  32.416   6.817
 3050POPC   C4A40926  34.367  32.331   7.219
 3050POPC   C1B40927  34.684  31.869   6.134
 3050POPC   C2B40928  34.599  32.107   6.508
 3050POPC   C3B40929  34.741  32.140   6.916
 3050POPC   C4B40930  34.694  31.954   7.296
 3051POPC   NC340931  38.688  36.282   5.398
 3051POPC   PO440932  38.306  35.795   5.383
 3051POPC   GL140933  38.452  36.009   5.775
 3051POPC   GL240934  38.427  36.408   5.843
 3051POPC   C1A40935  38.391  36.080   6.222
 3051POPC   D2A40936  38.576  36.331   6.572
 3051POPC   C3A40937  38.506  36.130   6.950
 3051POPC   C4A40938  38.356  35.754   7.130
 3051POPC   C1B40939  38.086  36.470   6.205
 3051POPC   C2B40940  38.067  36.312   6.671
 3051POPC   C3B40941  38.102  36.321   7.169
 3051POPC   C4B40942  38.140  36.586   7.556
 3052POPC   NC340943  44.375  12.352   5.585
 3052POPC   PO440944  44.791  12.862   5.431
 3052POPC   GL140945  44.955  12.880   5.830
 3052POPC   GL240946  44.626  12.843   5.982
 3052POPC   C1A40947   0.020  12.987   6.274
 3052POPC   D2A40948  44.779  12.798   6.606
 3052POPC   C3A40949  44.746  13.000   6.991
 3052POPC   C4A40950  44.623  12.919   7.421
 3052POPC   C1B40951  44.492  12.523   6.262
 3052POPC   C2B40952  44.499  12.377   6.693
 3052POPC   C3B40953  44.392  12.591   7.109
 3052POPC   C4B40954  44.223  12.651   7.584
 3053POPC   NC340955  12.220  34.107   5.436
 3053POPC   PO440956  12.161  33.474   5.723
 3053POPC   GL140957  12.133  33.877   5.873
 3053POPC   GL240958  11.802  34.005   5.835
 3053POPC   C1A40959  12.144  34.006   6.261
 3053POPC   D2A40960  12.325  33.723   6.550
 3053POPC   C3A40961  12.394  33.891   6.922
 3053POPC   C4A40962  12.202  33.941   7.303
 3053POPC   C1B40963  11.761  33.654   6.164
 3053POPC   C2B40964  11.669  33.622   6.564
 3053POPC   C3B40965  11.871  33.822   6.882
 3053POPC   C4B40966  11.852  33.603   7.243
 3054POPC   NC340967  36.258  14.859   5.516
 3054POPC   PO440968  35.852  15.331   5.272
 3054POPC   GL140969  36.088  15.341   5.633
 3054POPC   GL240970  35.889  15.097   5.777
 3054POPC   C1A40971  36.224  15.435   6.055
 3054POPC   D2A40972  36.222  15.266   6.465
 3054POPC   C3A40973  36.457  15.414   6.821
 3054POPC   C4A40974  36.414  15.368   7.282
 3054POPC   C1B40975  35.988  14.887   6.164
 3054POPC   C2B40976  36.057  14.784   6.594
 3054POPC   C3B40977  36.150  15.016   6.975
 3054POPC   C4B40978  35.918  15.213   7.327
 3055POPC   NC340979  28.501  16.163   5.458
 3055POPC   PO440980  27.886  15.792   5.375
 3055POPC   GL140981  28.071  15.667   5.785
 3055POPC   GL240982  28.453  15.722   5.814
 3055POPC   C1A40983  28.150  15.830   6.222
 3055POPC   D2A40984  28.221  16.069   6.581
 3055POPC   C3A40985  28.181  15.844   6.977
 3055POPC   C4A40986  28.371  15.834   7.389
 3055POPC   C1B40987  28.632  16.020   6.157
 3055POPC   C2B40988  28.744  16.271   6.537
 3055POPC   C3B40989  28.583  16.198   6.947
 3055POPC   C4B40990  28.701  16.280   7.340
 3056POPC   NC340991  42.676  30.469   5.149
 3056POPC   PO440992  42.160  30.883   5.500
 3056POPC   GL140993  42.114  30.928   5.908
 3056POPC   GL240994  42.455  30.911   5.964
 3056POPC   C1A40995  42.115  30.755   6.335
 3056POPC   D2A40996  41.956  30.451   6.649
 3056POPC   C3A40997  42.116  30.504   7.046
 3056POPC   C4A40998  42.335  30.825   7.254
 3056POPC   C1B40999  42.801  30.903   6.243
 3056POPC   C2B41000  42.871  30.924   6.653
 3056POPC   C3B41001  42.654  30.687   6.898
 3056POPC   C4B41002  42.861  30.767   7.259
 3057POPC   NC341003  31.944  44.812   5.420
 3057POPC   PO441004  31.295  44.845   5.349
 3057POPC   GL141005  31.558  44.938   5.734
 3057POPC   GL241006  31.666  44.586   5.779
 3057POPC   C1A41007  31.794   0.104   6.111
 3057POPC   D2A41008  31.925  44.870   6.505
 3057POPC   C3A41009  31.701  44.868   6.893
 3057POPC   C4A41010  31.438  44.817   7.242
 3057POPC   C1B41011  31.559  44.667   6.208
 3057POPC   C2B41012  31.631  44.444   6.574
 3057POPC   C3B41013  31.451  44.382   6.963
 3057POPC   C4B41014  31.178  44.137   7.187
 3058POPC   NC341015  16.674  26.470   5.430
 3058POPC   PO441016  16.510  25.778   5.383
 3058POPC   GL141017  16.675  25.987   5.756
 3058POPC   GL241018  16.768  25.709   5.936
 3058POPC   C1A41019  16.607  26.129   6.204
 3058POPC   D2A41020  16.616  26.072   6.675
 3058POPC   C3A41021  16.918  26.222   7.004
 3058POPC   C4A41022  16.759  26.258   7.429
 3058POPC   C1B41023  16.972  25.772   6.326
 3058POPC   C2B41024  16.917  25.665   6.731
 3058POPC   C3B41025  16.747  25.769   7.144
 3058POPC   C4B41026  17.075  25.862   7.447
 3059POPC   NC341027  26.093  15.352   5.307
 3059POPC   PO441028  26.057  14.692   5.370
 3059POPC   GL141029  26.144  14.902   5.771
 3059POPC   GL241030  26.148  15.293   5.811
 3059POPC   C1A41031  26.360  14.998   6.173
 3059POPC   D2A41032  26.322  15.251   6.567
 3059POPC   C3A41033  26.294  15.021   6.976
 3059POPC   C4A41034  26.201  15.055   7.444
 3059POPC   C1B41035  25.909  15.294   6.208
 3059POPC   C2B41036  25.774  15.201   6.652
 3059POPC   C3B41037  25.898  15.333   7.079
 3059POPC   C4B41038  25.780  15.373   7.506
 3060POPC   NC341039  38.083  43.351   5.525
 3060POPC   PO441040  37.420  43.269   5.424
 3060POPC   GL141041  37.669  43.177   5.777
 3060POPC   GL241042  37.802  42.821   5.756
 3060POPC   C1A41043  37.595  43.373   6.183
 3060POPC   D2A41044  37.583  43.531   6.600
 3060POPC   C3A41045  37.855  43.255   6.781
 3060POPC   C4A41046  37.700  43.037   7.097
 3060POPC   C1B41047  37.457  42.866   6.105
 3060POPC   C2B41048  37.456  43.013   6.540
 3060POPC   C3B41049  37.266  42.858   6.916
 3060POPC   C4B41050  37.386  42.738   7.366
 3061POPC   NC341051   8.073   7.081   5.381
 3061POPC   PO441052   8.479   6.604   5.357
 3061POPC   GL141053   8.185   6.688   5.695
 3061POPC   GL241054   8.178   6.388   5.877
 3061POPC   C1A41055   8.226   6.824   6.153
 3061POPC   D2A41056   8.103   6.727   6.604
 3061POPC   C3A41057   8.107   6.972   7.005
 3061POPC   C4A41058   8.131   6.864   7.420
 3061POPC   C1B41059   8.256   6.277   6.341
 3061POPC   C2B41060   8.423   6.284   6.776
 3061POPC   C3B41061   8.319   6.442   7.199
 3061POPC   C4B41062   8.128   6.399   7.636
 3062POPC   NC341063  21.966  38.972   5.457
 3062POPC   PO441064  22.194  39.613   5.424
 3062POPC   GL141065  22.017  39.381   5.740
 3062POPC   GL241066  22.338  39.192   5.769
 3062POPC   C1A41067  21.922  39.198   6.128
 3062POPC   D2A41068  22.123  39.319   6.501
 3062POPC   C3A41069  22.000  39.210   6.912
 3062POPC   C4A41070  21.773  39.277   7.311
 3062POPC   C1B41071  22.505  39.093   6.201
 3062POPC   C2B41072  22.538  39.095   6.688
 3062POPC   C3B41073  22.465  39.266   7.145
 3062POPC   C4B41074  22.536  39.011   7.603
 3063POPC   NC341075  22.651  39.477   5.428
 3063POPC   PO441076  23.149  39.041   5.323
 3063POPC   GL141077  22.861  39.044   5.694
 3063POPC   GL241078  22.828  39.366   5.887
 3063POPC   C1A41079  22.977  38.877   6.113
 3063POPC   D2A41080  23.148  38.982   6.530
 3063POPC   C3A41081  22.946  38.856   6.895
 3063POPC   C4A41082  22.910  39.051   7.277
 3063POPC   C1B41083  23.143  39.374   6.180
 3063POPC   C2B41084  23.227  39.500   6.577
 3063POPC   C3B41085  22.962  39.382   6.894
 3063POPC   C4B41086  22.791  39.635   7.229
 3064POPC   NC341087   3.785  32.747   5.553
 3064POPC   PO441088   3.503  33.346   5.485
 3064POPC   GL141089   3.645  33.206   5.864
 3064POPC   GL241090   3.385  32.944   5.869
 3064POPC   C1A41091   3.665  33.114   6.323
 3064POPC   D2A41092   3.619  32.760   6.610
 3064POPC   C3A41093   3.688  32.914   7.029
 3064POPC   C4A41094   3.522  33.222   7.325
 3064POPC   C1B41095   3.163  33.096   6.241
 3064POPC   C2B41096   3.274  33.157   6.693
 3064POPC   C3B41097   3.184  32.896   7.064
 3064POPC   C4B41098   3.135  32.744   7.473
 3065POPC   NC341099  42.238   0.116   5.496
 3065POPC   PO441100  42.681   0.639   5.397
 3065POPC   GL141101  42.544   0.443   5.760
 3065POPC   GL241102  42.713   0.126   5.716
 3065POPC   C1A41103  42.409   0.416   6.188
 3065POPC   D2A41104  42.494   0.600   6.597
 3065POPC   C3A41105  42.191   0.419   6.857
 3065POPC   C4A41106  42.054   0.377   7.272
 3065POPC   C1B41107  42.628  44.964   6.128
 3065POPC   C2B41108  42.703   0.124   6.540
 3065POPC   C3B41109  42.707   0.113   6.959
 3065POPC   C4B41110  42.562   0.439   7.211
 3066POPC   NC341111  29.291   3.475   5.298
 3066POPC   PO441112  28.756   3.261   5.484
 3066POPC   GL141113  28.991   3.584   5.728
 3066POPC   GL241114  29.344   3.476   5.804
 3066POPC   C1A41115  29.094   3.719   6.164
 3066POPC   D2A41116  29.172   3.466   6.529
 3066POPC   C3A41117  28.930   3.608   6.896
 3066POPC   C4A41118  29.114   3.842   7.248
 3066POPC   C1B41119  29.602   3.620   6.146
 3066POPC   C2B41120  29.582   3.787   6.543
 3066POPC   C3B41121  29.458   3.632   6.929
 3066POPC   C4B41122  29.424   3.418   7.314
 3067POPC   NC341123  32.027  22.229   5.589
 3067POPC   PO441124  32.531  21.849   5.606
 3067POPC   GL141125  32.293  21.980   5.989
 3067POPC   GL241126  31.929  21.871   5.970
 3067POPC   C1A41127  32.197  22.281   6.348
 3067POPC   D2A41128  32.156  22.469   6.774
 3067POPC   C3A41129  32.423  22.295   7.105
 3067POPC   C4A41130  32.501  22.427   7.552
 3067POPC   C1B41131  32.033  21.784   6.403
 3067POPC   C2B41132  32.293  21.921   6.744
 3067POPC   C3B41133  32.117  21.894   7.154
 3067POPC   C4B41134  32.015  21.679   7.551
 3068POPC   NC341135  25.858  26.044   5.543
 3068POPC   PO441136  25.276  26.161   5.115
 3068POPC   GL141137  25.346  26.141   5.603
 3068POPC   GL241138  25.203  26.404   5.767
 3068POPC   C1A41139  25.261  25.969   6.066
 3068POPC   D2A41140  25.146  25.815   6.509
 3068POPC   C3A41141  25.454  25.768   6.867
 3068POPC   C4A41142  25.482  25.901   7.309
 3068POPC   C1B41143  25.134  26.483   6.197
 3068POPC   C2B41144  25.024  26.430   6.615
 3068POPC   C3B41145  25.186  26.214   6.958
 3068POPC   C4B41146  25.023  26.093   7.339
 3069POPC   NC341147   4.790  33.410   5.426
 3069POPC   PO441148   4.183  33.052   5.556
 3069POPC   GL141149   4.259  33.290   5.871
 3069POPC   GL241150   4.094  33.043   6.064
 3069POPC   C1A41151   4.552  33.223   6.176
 3069POPC   D2A41152   4.491  32.863   6.452
 3069POPC   C3A41153   4.346  33.020   6.839
 3069POPC   C4A41154   4.572  33.317   7.123
 3069POPC   C1B41155   4.136  32.618   6.180
 3069POPC   C2B41156   4.100  32.522   6.623
 3069POPC   C3B41157   4.117  32.635   7.068
 3069POPC   C4B41158   4.015  32.789   7.454
 3070POPC   NC341159  39.235  26.693   5.095
 3070POPC   PO441160  39.853  26.671   5.313
 3070POPC   GL141161  39.468  26.719   5.645
 3070POPC   GL241162  39.080  26.709   5.607
 3070POPC   C1A41163  39.356  26.775   6.131
 3070POPC   D2A41164  39.298  26.642   6.600
 3070POPC   C3A41165  39.515  26.735   7.015
 3070POPC   C4A41166  39.348  27.069   7.279
 3070POPC   C1B41167  38.861  26.818   6.006
 3070POPC   C2B41168  38.915  26.982   6.450
 3070POPC   C3B41169  38.993  27.008   6.884
 3070POPC   C4B41170  39.004  26.697   7.212
 3071POPC   NC341171  13.749  40.510   5.300
 3071POPC   PO441172  13.363  40.998   5.585
 3071POPC   GL141173  13.786  40.872   5.734
 3071POPC   GL241174  14.111  41.091   5.714
 3071POPC   C1A41175  13.743  40.825   6.154
 3071POPC   D2A41176  13.421  40.887   6.496
 3071POPC   C3A41177  13.544  40.767   6.917
 3071POPC   C4A41178  13.462  41.031   7.235
 3071POPC   C1B41179  14.145  41.133   6.171
 3071POPC   C2B41180  13.955  40.990   6.579
 3071POPC   C3B41181  13.890  41.154   6.973
 3071POPC   C4B41182  13.953  41.025   7.377
 3072POPC   NC341183  10.131   6.978   5.578
 3072POPC   PO441184   9.906   6.350   5.808
 3072POPC   GL141185   9.791   6.756   5.882
 3072POPC   GL241186   9.455   6.767   5.809
 3072POPC   C1A41187   9.795   6.990   6.275
 3072POPC   D2A41188  10.066   6.802   6.588
 3072POPC   C3A41189   9.910   6.622   6.959
 3072POPC   C4A41190  10.077   6.911   7.243
 3072POPC   C1B41191   9.484   6.567   6.235
 3072POPC   C2B41192   9.522   6.672   6.634
 3072POPC   C3B41193   9.408   6.321   6.899
 3072POPC   C4B41194   9.539   6.451   7.269
 3073POPC   NC341195   0.282   9.347   5.415
 3073POPC   PO441196   0.640   9.830   5.170
 3073POPC   GL141197   0.628   9.622   5.671
 3073POPC   GL241198   0.319   9.505   5.901
 3073POPC   C1A41199   0.739   9.469   6.146
 3073POPC   D2A41200   0.449   9.483   6.547
 3073POPC   C3A41201   0.463   9.654   6.977
 3073POPC   C4A41202   0.739   9.478   7.285
 3073POPC   C1B41203   0.174   9.777   6.229
 3073POPC   C2B41204  44.995  10.017   6.559
 3073POPC   C3B41205   0.045   9.999   6.990
 3073POPC   C4B41206   0.177   9.832   7.379
 3074POPC   NC341207  15.426  11.488   5.516
 3074POPC   PO441208  14.748  11.506   5.469
 3074POPC   GL141209  14.936  11.220   5.770
 3074POPC   GL241210  14.726  11.387   5.987
 3074POPC   C1A41211  15.241  11.276   6.123
 3074POPC   D2A41212  15.378  11.588   6.429
 3074POPC   C3A41213  15.637  11.436   6.769
 3074POPC   C4A41214  15.600  11.578   7.187
 3074POPC   C1B41215  14.800  11.081   6.278
 3074POPC   C2B41216  15.075  11.198   6.623
 3074POPC   C3B41217  15.151  11.372   7.026
 3074POPC   C4B41218  14.914  11.243   7.361
 3075POPC   NC341219  18.851   3.341   5.139
 3075POPC   PO441220  19.216   2.778   5.371
 3075POPC   GL141221  19.102   2.636   5.764
 3075POPC   GL241222  19.433   2.768   5.823
 3075POPC   C1A41223  19.007   2.692   6.210
 3075POPC   D2A41224  19.051   2.991   6.566
 3075POPC   C3A41225  18.851   2.852   6.962
 3075POPC   C4A41226  18.980   2.450   7.152
 3075POPC   C1B41227  19.422   2.972   6.168
 3075POPC   C2B41228  19.496   2.727   6.546
 3075POPC   C3B41229  19.358   2.739   6.926
 3075POPC   C4B41230  19.406   2.979   7.258
 3076POPC   NC341231  14.714  12.008   5.403
 3076POPC   PO441232  15.422  12.021   5.384
 3076POPC   GL141233  15.244  12.098   5.754
 3076POPC   GL241234  14.972  12.287   5.893
 3076POPC   C1A41235  15.344  12.031   6.164
 3076POPC   D2A41236  15.159  12.071   6.535
 3076POPC   C3A41237  15.383  11.895   6.858
 3076POPC   C4A41238  15.288  11.995   7.273
 3076POPC   C1B41239  14.848  11.882   6.076
 3076POPC   C2B41240  14.822  11.621   6.441
 3076POPC   C3B41241  14.883  11.764   6.859
 3076POPC   C4B41242  14.821  11.751   7.302
 3077POPC   NC341243  25.673  14.406   5.400
 3077POPC   PO441244  25.209  14.840   5.650
 3077POPC   GL141245  25.273  14.567   5.962
 3077POPC   GL241246  25.600  14.445   5.910
 3077POPC   C1A41247  25.092  14.565   6.370
 3077POPC   D2A41248  24.888  14.613   6.779
 3077POPC   C3A41249  25.044  14.482   7.215
 3077POPC   C4A41250  25.029  14.182   7.589
 3077POPC   C1B41251  25.615  14.571   6.338
 3077POPC   C2B41252  25.613  14.499   6.754
 3077POPC   C3B41253  25.547  14.596   7.169
 3077POPC   C4B41254  25.462  14.436   7.584
 3078POPC   NC341255  14.362   9.375   5.443
 3078POPC   PO441256  14.964   9.205   5.446
 3078POPC   GL141257  14.675   9.170   5.839
 3078POPC   GL241258  14.271   9.148   5.903
 3078POPC   C1A41259  14.591   9.029   6.282
 3078POPC   D2A41260  14.283   9.203   6.568
 3078POPC   C3A41261  14.351   9.119   6.988
 3078POPC   C4A41262  14.508   9.420   7.273
 3078POPC   C1B41263  13.942   8.995   6.252
 3078POPC   C2B41264  13.919   8.879   6.731
 3078POPC   C3B41265  13.912   8.939   7.210
 3078POPC   C4B41266  13.900   8.895   7.685
 3079POPC   NC341267  10.342  33.089   5.493
 3079POPC   PO441268  10.907  32.753   5.528
 3079POPC   GL141269  10.727  32.972   5.842
 3079POPC   GL241270  10.975  33.229   5.861
 3079POPC   C1A41271  10.366  32.892   6.159
 3079POPC   D2A41272  10.087  33.144   6.471
 3079POPC   C3A41273  10.256  33.229   6.891
 3079POPC   C4A41274  10.303  33.040   7.295
 3079POPC   C1B41275  10.762  33.267   6.248
 3079POPC   C2B41276  10.658  32.981   6.570
 3079POPC   C3B41277  10.642  32.865   6.971
 3079POPC   C4B41278  10.861  32.882   7.380
 3080POPC   NC341279  29.726  38.736   5.547
 3080POPC   PO441280  30.182  38.160   5.584
 3080POPC   GL141281  30.016  38.474   5.879
 3080POPC   GL241282  30.148  38.819   5.908
 3080POPC   C1A41283  29.798  38.631   6.258
 3080POPC   D2A41284  29.891  38.690   6.693
 3080POPC   C3A41285  29.625  38.764   7.057
 3080POPC   C4A41286  29.716  38.655   7.503
 3080POPC   C1B41287  30.315  38.657   6.306
 3080POPC   C2B41288  30.179  38.288   6.536
 3080POPC   C3B41289  30.178  38.122   6.971
 3080POPC   C4B41290  30.099  38.276   7.441
 3081POPC   NC341291  39.577  23.778   5.267
 3081POPC   PO441292  38.900  23.588   5.362
 3081POPC   GL141293  39.141  23.822   5.720
 3081POPC   GL241294  39.532  23.889   5.770
 3081POPC   C1A41295  39.134  23.767   6.197
 3081POPC   D2A41296  39.048  23.686   6.662
 3081POPC   C3A41297  39.259  23.945   6.964
 3081POPC   C4A41298  39.177  23.975   7.399
 3081POPC   C1B41299  39.634  23.639   6.120
 3081POPC   C2B41300  39.542  23.689   6.545
 3081POPC   C3B41301  39.523  23.504   6.925
 3081POPC   C4B41302  39.246  23.464   7.258
 3082POPC   NC341303  33.677   9.680   5.049
 3082POPC   PO441304  34.176   9.736   5.502
 3082POPC   GL141305  34.019   9.951   5.845
 3082POPC   GL241306  34.067   9.693   6.052
 3082POPC   C1A41307  33.618   9.992   6.113
 3082POPC   D2A41308  33.382   9.871   6.492
 3082POPC   C3A41309  33.582   9.723   6.871
 3082POPC   C4A41310  33.467   9.801   7.284
 3082POPC   C1B41311  33.851   9.643   6.417
 3082POPC   C2B41312  33.551   9.345   6.522
 3082POPC   C3B41313  33.496   9.204   6.909
 3082POPC   C4B41314  33.714   9.353   7.265
 3083POPC   NC341315  19.189   7.120   5.245
 3083POPC   PO441316  18.948   7.708   5.351
 3083POPC   GL141317  18.968   7.341   5.656
 3083POPC   GL241318  19.316   7.309   5.741
 3083POPC   C1A41319  18.940   7.097   6.054
 3083POPC   D2A41320  18.909   7.167   6.528
 3083POPC   C3A41321  18.756   7.585   6.734
 3083POPC   C4A41322  18.756   7.659   7.195
 3083POPC   C1B41323  19.192   7.558   6.117
 3083POPC   C2B41324  19.243   7.566   6.572
 3083POPC   C3B41325  19.119   7.354   6.990
 3083POPC   C4B41326  19.068   7.262   7.469
 3084POPC   NC341327  26.074  21.955   5.516
 3084POPC   PO441328  26.109  21.213   5.440
 3084POPC   GL141329  26.085  21.474   5.777
 3084POPC   GL241330  25.869  21.208   5.899
 3084POPC   C1A41331  26.018  21.604   6.215
 3084POPC   D2A41332  26.083  21.438   6.647
 3084POPC   C3A41333  26.099  21.634   7.045
 3084POPC   C4A41334  25.720  21.461   7.185
 3084POPC   C1B41335  25.834  21.120   6.320
 3084POPC   C2B41336  25.602  21.124   6.706
 3084POPC   C3B41337  25.717  20.958   7.078
 3084POPC   C4B41338  26.094  21.122   7.071
 3085POPC   NC341339  18.940  32.952   5.226
 3085POPC   PO441340  18.297  32.838   5.485
 3085POPC   GL141341  18.200  33.052   5.846
 3085POPC   GL241342  18.500  33.212   5.882
 3085POPC   C1A41343  18.114  33.262   6.232
 3085POPC   D2A41344  18.233  33.399   6.643
 3085POPC   C3A41345  18.286  33.049   6.898
 3085POPC   C4A41346  18.376  32.998   7.325
 3085POPC   C1B41347  18.540  32.951   6.277
 3085POPC   C2B41348  18.778  32.982   6.668
 3085POPC   C3B41349  18.672  32.709   6.990
 3085POPC   C4B41350  18.249  32.543   7.093
 3086POPC   NC341351  24.008  42.400   5.346
 3086POPC   PO441352  23.488  42.707   5.524
 3086POPC   GL141353  23.555  42.401   5.875
 3086POPC   GL241354  23.709  42.062   5.806
 3086POPC   C1A41355  23.525  42.439   6.329
 3086POPC   D2A41356  23.468  42.528   6.752
 3086POPC   C3A41357  23.622  42.316   7.109
 3086POPC   C4A41358  23.658  42.297   7.606
 3086POPC   C1B41359  23.956  42.169   6.188
 3086POPC   C2B41360  23.960  42.357   6.617
 3086POPC   C3B41361  24.114  42.398   7.040
 3086POPC   C4B41362  24.026  42.081   7.343
 3087POPC   NC341363  34.260   8.878   5.242
 3087POPC   PO441364  33.676   9.269   5.268
 3087POPC   GL141365  33.895   9.047   5.606
 3087POPC   GL241366  34.221   9.238   5.613
 3087POPC   C1A41367  33.867   8.907   6.061
 3087POPC   D2A41368  33.672   8.850   6.522
 3087POPC   C3A41369  33.809   8.785   6.982
 3087POPC   C4A41370  33.810   8.864   7.448
 3087POPC   C1B41371  34.304   9.223   6.044
 3087POPC   C2B41372  34.087   9.176   6.431
 3087POPC   C3B41373  33.996   9.313   6.823
 3087POPC   C4B41374  34.151   9.123   7.171
 3088POPC   NC341375  23.985   5.315   5.576
 3088POPC   PO441376  23.640   4.761   5.482
 3088POPC   GL141377  23.657   4.982   5.849
 3088POPC   GL241378  23.992   4.927   5.924
 3088POPC   C1A41379  23.439   5.024   6.241
 3088POPC   D2A41380  23.684   5.021   6.642
 3088POPC   C3A41381  23.431   5.123   7.021
 3088POPC   C4A41382  23.148   4.917   7.301
 3088POPC   C1B41383  23.866   5.297   6.204
 3088POPC   C2B41384  24.085   5.483   6.519
 3088POPC   C3B41385  24.063   5.323   6.905
 3088POPC   C4B41386  23.901   5.099   7.254
 3089POPC   NC341387  26.690  36.238   5.404
 3089POPC   PO441388  27.309  35.932   5.554
 3089POPC   GL141389  27.072  36.254   5.806
 3089POPC   GL241390  26.715  36.425   5.861
 3089POPC   C1A41391  26.905  36.112   6.216
 3089POPC   D2A41392  26.651  35.781   6.404
 3089POPC   C3A41393  26.686  35.728   6.868
 3089POPC   C4A41394  26.496  35.987   7.192
 3089POPC   C1B41395  26.516  36.478   6.262
 3089POPC   C2B41396  26.738  36.515   6.635
 3089POPC   C3B41397  26.884  36.302   6.998
 3089POPC   C4B41398  27.282  36.405   7.219
 3090POPC   NC341399  12.205  41.495   5.352
 3090POPC   PO441400  12.901  41.466   5.318
 3090POPC   GL141401  12.864  41.428   5.842
 3090POPC   GL241402  12.747  41.755   5.992
 3090POPC   C1A41403  13.134  41.239   6.204
 3090POPC   D2A41404  13.118  41.283   6.678
 3090POPC   C3A41405  12.703  41.293   6.853
 3090POPC   C4A41406  12.554  41.056   7.164
 3090POPC   C1B41407  12.797  41.585   6.391
 3090POPC   C2B41408  12.794  41.788   6.781
 3090POPC   C3B41409  12.790  41.724   7.202
 3090POPC   C4B41410  12.716  41.982   7.544
 3091POPC   NC341411  20.038  42.602   5.635
 3091POPC   PO441412  19.839  43.164   5.295
 3091POPC   GL141413  19.702  43.047   5.789
 3091POPC   GL241414  19.436  42.765   5.815
 3091POPC   C1A41415  19.849  43.111   6.251
 3091POPC   D2A41416  19.955  43.221   6.664
 3091POPC   C3A41417  20.003  42.931   7.026
 3091POPC   C4A41418  20.124  42.939   7.439
 3091POPC   C1B41419  19.365  42.993   6.200
 3091POPC   C2B41420  19.390  43.122   6.641
 3091POPC   C3B41421  19.595  43.266   7.032
 3091POPC   C4B41422  19.834  43.366   7.384
 3092POPC   NC341423  17.067  30.968   5.277
 3092POPC   PO441424  17.611  30.528   5.211
 3092POPC   GL141425  17.451  30.775   5.642
 3092POPC   GL241426  17.395  30.481   5.826
 3092POPC   C1A41427  17.285  30.852   6.134
 3092POPC   D2A41428  17.318  30.636   6.545
 3092POPC   C3A41429  17.347  30.860   6.949
 3092POPC   C4A41430  17.199  30.899   7.366
 3092POPC   C1B41431  17.666  30.499   6.194
 3092POPC   C2B41432  17.832  30.474   6.605
 3092POPC   C3B41433  17.565  30.397   6.937
 3092POPC   C4B41434  17.517  30.242   7.305
 3093POPC   NC341435   0.922  15.685   5.503
 3093POPC   PO441436   1.273  16.212   5.216
 3093POPC   GL141437   1.131  16.149   5.640
 3093POPC   GL241438   1.316  15.903   5.780
 3093POPC   C1A41439   1.093  16.233   6.081
 3093POPC   D2A41440   1.195  16.166   6.487
 3093POPC   C3A41441   0.977  16.228   6.850
 3093POPC   C4A41442   1.125  16.035   7.240
 3093POPC   C1B41443   1.284  15.751   6.203
 3093POPC   C2B41444   1.458  15.743   6.635
 3093POPC   C3B41445   1.351  15.611   7.065
 3093POPC   C4B41446   1.399  15.260   7.366
 3094POPC   NC341447   9.263   3.562   5.311
 3094POPC   PO441448   9.464   4.035   5.627
 3094POPC   GL141449   9.258   3.691   5.825
 3094POPC   GL241450   9.186   3.324   5.763
 3094POPC   C1A41451   9.073   3.643   6.233
 3094POPC   D2A41452   8.951   3.553   6.671
 3094POPC   C3A41453   8.961   3.766   7.088
 3094POPC   C4A41454   9.104   3.583   7.481
 3094POPC   C1B41455   9.221   3.133   6.196
 3094POPC   C2B41456   9.189   3.095   6.667
 3094POPC   C3B41457   9.034   3.243   7.078
 3094POPC   C4B41458   9.179   3.078   7.449
 3095POPC   NC341459   8.817  27.760   5.297
 3095POPC   PO441460   9.441  27.446   5.322
 3095POPC   GL141461   9.224  27.573   5.697
 3095POPC   GL241462   9.066  27.882   5.742
 3095POPC   C1A41463   9.064  27.321   6.053
 3095POPC   D2A41464   9.038  27.211   6.499
 3095POPC   C3A41465   8.897  27.488   6.844
 3095POPC   C4A41466   8.691  27.781   7.132
 3095POPC   C1B41467   9.013  27.799   6.193
 3095POPC   C2B41468   9.026  27.958   6.636
 3095POPC   C3B41469   9.203  27.849   7.019
 3095POPC   C4B41470   9.123  27.859   7.425
 3096POPC   NC341471  16.661  22.247   5.466
 3096POPC   PO441472  16.242  21.624   5.398
 3096POPC   GL141473  16.489  21.846   5.741
 3096POPC   GL241474  16.830  21.941   5.873
 3096POPC   C1A41475  16.463  22.074   6.172
 3096POPC   D2A41476  16.485  22.376   6.550
 3096POPC   C3A41477  16.651  22.148   6.924
 3096POPC   C4A41478  16.539  21.993   7.345
 3096POPC   C1B41479  16.840  22.408   6.096
 3096POPC   C2B41480  16.945  22.586   6.525
 3096POPC   C3B41481  17.062  22.485   6.949
 3096POPC   C4B41482  16.964  22.273   7.332
 3097POPC   NC341483  11.515  38.000   5.269
 3097POPC   PO441484  10.949  37.591   5.474
 3097POPC   GL141485  11.233  37.806   5.725
 3097POPC   GL241486  10.964  37.897   5.956
 3097POPC   C1A41487  11.458  38.001   6.105
 3097POPC   D2A41488  11.370  37.939   6.533
 3097POPC   C3A41489  11.686  37.938   6.848
 3097POPC   C4A41490  11.536  38.032   7.242
 3097POPC   C1B41491  11.212  37.573   6.185
 3097POPC   C2B41492  11.131  37.480   6.597
 3097POPC   C3B41493  11.261  37.679   6.974
 3097POPC   C4B41494  11.111  37.785   7.397
 3098POPC   NC341495  39.688   5.041   4.992
 3098POPC   PO441496  40.249   5.100   5.474
 3098POPC   GL141497  39.934   4.992   5.761
 3098POPC   GL241498  39.908   4.624   5.784
 3098POPC   C1A41499  39.849   4.953   6.194
 3098POPC   D2A41500  39.863   5.194   6.543
 3098POPC   C3A41501  39.931   5.009   6.943
 3098POPC   C4A41502  39.795   5.168   7.311
 3098POPC   C1B41503  40.225   4.613   6.142
 3098POPC   C2B41504  40.125   4.690   6.587
 3098POPC   C3B41505  40.393   4.758   6.951
 3098POPC   C4B41506  40.264   4.949   7.361
 3099POPC   NC341507  22.854   3.225   5.448
 3099POPC   PO441508  22.733   3.916   5.414
 3099POPC   GL141509  22.740   3.932   5.850
 3099POPC   GL241510  22.757   3.570   5.892
 3099POPC   C1A41511  23.035   3.892   6.212
 3099POPC   D2A41512  23.030   3.606   6.557
 3099POPC   C3A41513  22.940   3.808   6.938
 3099POPC   C4A41514  23.221   3.958   7.231
 3099POPC   C1B41515  22.815   3.208   6.184
 3099POPC   C2B41516  23.071   3.080   6.548
 3099POPC   C3B41517  23.090   3.238   6.962
 3099POPC   C4B41518  22.769   3.376   7.237
 3100POPC   NC341519  44.238  26.652   5.504
 3100POPC   PO441520  44.780  26.976   5.413
 3100POPC   GL141521  44.824  26.991   5.830
 3100POPC   GL241522  44.446  26.981   5.900
 3100POPC   C1A41523  44.782  26.758   6.187
 3100POPC   D2A41524  44.467  26.889   6.468
 3100POPC   C3A41525  44.667  26.754   6.813
 3100POPC   C4A41526  44.755  26.788   7.199
 3100POPC   C1B41527  44.196  27.259   6.201
 3100POPC   C2B41528  44.114  27.278   6.650
 3100POPC   C3B41529  44.315  27.059   6.993
 3100POPC   C4B41530  44.278  26.643   7.154
 3101POPC   NC341531  43.585  30.797   5.402
 3101POPC   PO441532  44.246  30.616   5.388
 3101POPC   GL141533  44.011  30.805   5.712
 3101POPC   GL241534  43.881  30.466   5.759
 3101POPC   C1A41535  43.785  30.867   6.091
 3101POPC   D2A41536  43.837  30.673   6.479
 3101POPC   C3A41537  43.949  30.680   6.898
 3101POPC   C4A41538  43.817  30.759   7.273
 3101POPC   C1B41539  43.647  30.261   6.084
 3101POPC   C2B41540  43.748  30.187   6.510
 3101POPC   C3B41541  43.597  30.282   6.941
 3101POPC   C4B41542  43.742  30.267   7.383
 3102POPC   NC341543  44.808  21.980   5.314
 3102POPC   PO441544  44.387  22.484   5.560
 3102POPC   GL141545  44.573  22.490   5.924
 3102POPC   GL241546  44.880  22.364   5.798
 3102POPC   C1A41547  44.690  22.643   6.351
 3102POPC   D2A41548   0.074  22.516   6.586
 3102POPC   C3A41549  44.966  22.266   6.928
 3102POPC   C4A41550  44.832  22.373   7.381
 3102POPC   C1B41551  44.829  22.177   6.216
 3102POPC   C2B41552  44.735  21.796   6.424
 3102POPC   C3B41553  44.901  21.753   6.828
 3102POPC   C4B41554  44.798  21.896   7.219
 3103POPC   NC341555  19.587   8.574   5.324
 3103POPC   PO441556  19.913   7.978   5.323
 3103POPC   GL141557  20.040   8.155   5.704
 3103POPC   GL241558  19.701   8.162   5.803
 3103POPC   C1A41559  20.032   8.425   6.087
 3103POPC   D2A41560  19.802   8.401   6.496
 3103POPC   C3A41561  20.020   8.169   6.845
 3103POPC   C4A41562  20.064   8.312   7.275
 3103POPC   C1B41563  19.830   7.942   6.192
 3103POPC   C2B41564  19.625   7.919   6.596
 3103POPC   C3B41565  19.514   8.238   6.905
 3103POPC   C4B41566  19.597   8.090   7.312
 3104POPC   NC341567   8.714   5.175   5.415
 3104POPC   PO441568   9.244   4.869   5.443
 3104POPC   GL141569   9.142   5.035   5.835
 3104POPC   GL241570   9.128   5.373   5.829
 3104POPC   C1A41571   9.125   5.188   6.302
 3104POPC   D2A41572   9.220   5.264   6.738
 3104POPC   C3A41573   8.974   4.937   7.024
 3104POPC   C4A41574   8.926   4.675   7.408
 3104POPC   C1B41575   8.888   5.632   6.150
 3104POPC   C2B41576   8.871   5.639   6.621
 3104POPC   C3B41577   8.822   5.430   7.036
 3104POPC   C4B41578   8.751   5.189   7.442
 3105POPC   NC341579  35.959  24.735   5.411
 3105POPC   PO441580  36.207  24.152   5.198
 3105POPC   GL141581  36.058  24.287   5.703
 3105POPC   GL241582  36.102  24.635   5.889
 3105POPC   C1A41583  36.279  24.279   6.185
 3105POPC   D2A41584  36.253  24.648   6.513
 3105POPC   C3A41585  36.350  24.553   6.963
 3105POPC   C4A41586  36.330  24.307   7.341
 3105POPC   C1B41587  35.824  24.429   6.264
 3105POPC   C2B41588  35.936  24.301   6.718
 3105POPC   C3B41589  35.840  24.438   7.129
 3105POPC   C4B41590  35.989  24.743   7.425
 3106POPC   NC341591  42.548   6.787   5.381
 3106POPC   PO441592  43.047   7.379   5.328
 3106POPC   GL141593  43.202   7.499   5.734
 3106POPC   GL241594  42.888   7.587   5.797
 3106POPC   C1A41595  43.427   7.589   6.153
 3106POPC   D2A41596  43.399   7.796   6.595
 3106POPC   C3A41597  43.524   7.521   6.980
 3106POPC   C4A41598  43.400   7.242   7.373
 3106POPC   C1B41599  42.943   7.744   6.208
 3106POPC   C2B41600  42.823   7.621   6.587
 3106POPC   C3B41601  42.873   7.770   6.973
 3106POPC   C4B41602  43.125   7.668   7.297
 3107POPC   NC341603  15.806  26.966   5.454
 3107POPC   PO441604  16.249  26.506   5.578
 3107POPC   GL141605  15.985  26.736   5.877
 3107POPC   GL241606  15.615  26.783   5.886
 3107POPC   C1A41607  15.933  26.835   6.297
 3107POPC   D2A41608  15.891  26.623   6.679
 3107POPC   C3A41609  16.125  26.892   6.964
 3107POPC   C4A41610  16.381  26.970   7.324
 3107POPC   C1B41611  15.471  27.062   6.223
 3107POPC   C2B41612  15.649  27.090   6.639
 3107POPC   C3B41613  15.626  26.889   7.050
 3107POPC   C4B41614  15.495  26.532   7.299
 3108POPC   NC341615  20.914  34.302   5.500
 3108POPC   PO441616  20.279  34.497   5.355
 3108POPC   GL141617  20.505  34.538   5.753
 3108POPC   GL241618  20.395  34.845   5.893
 3108POPC   C1A41619  20.411  34.441   6.214
 3108POPC   D2A41620  20.400  34.736   6.561
 3108POPC   C3A41621  20.514  34.519   6.900
 3108POPC   C4A41622  20.857  34.277   6.969
 3108POPC   C1B41623  20.770  34.791   6.195
 3108POPC   C2B41624  20.951  34.682   6.594
 3108POPC   C3B41625  20.940  34.810   6.991
 3108POPC   C4B41626  20.540  34.969   7.150
 3109POPC   NC341627  37.042  25.908   5.418
 3109POPC   PO441628  37.670  26.152   5.220
 3109POPC   GL141629  37.602  26.081   5.650
 3109POPC   GL241630  37.324  26.320   5.672
 3109POPC   C1A41631  37.804  25.930   6.064
 3109POPC   D2A41632  37.652  26.026   6.489
 3109POPC   C3A41633  37.743  25.797   6.879
 3109POPC   C4A41634  37.612  25.954   7.256
 3109POPC   C1B41635  37.509  26.340   6.084
 3109POPC   C2B41636  37.490  26.520   6.495
 3109POPC   C3B41637  37.655  26.383   6.888
 3109POPC   C4B41638  37.474  26.463   7.264
 3110POPC   NC341639  13.924  42.047   5.519
 3110POPC   PO441640  14.488  42.359   5.389
 3110POPC   GL141641  14.291  42.324   5.786
 3110POPC   GL241642  14.589  42.440   5.913
 3110POPC   C1A41643  14.374  42.128   6.228
 3110POPC   D2A41644  14.689  42.244   6.548
 3110POPC   C3A41645  14.578  42.187   6.989
 3110POPC   C4A41646  14.742  42.088   7.388
 3110POPC   C1B41647  14.508  42.658   6.304
 3110POPC   C2B41648  14.214  42.493   6.588
 3110POPC   C3B41649  14.051  42.356   6.952
 3110POPC   C4B41650  14.239  42.378   7.325
 3111POPC   NC341651  28.687  30.787   5.685
 3111POPC   PO441652  28.183  31.001   5.263
 3111POPC   GL141653  28.122  30.692   5.681
 3111POPC   GL241654  27.978  30.373   5.637
 3111POPC   C1A41655  28.313  30.585   6.142
 3111POPC   D2A41656  28.336  30.816   6.521
 3111POPC   C3A41657  28.440  30.599   6.900
 3111POPC   C4A41658  28.573  30.625   7.316
 3111POPC   C1B41659  27.996  30.215   6.082
 3111POPC   C2B41660  28.017  30.421   6.538
 3111POPC   C3B41661  28.080  30.238   6.978
 3111POPC   C4B41662  28.185  30.237   7.462
 3112POPC   NC341663  35.766  36.793   5.470
 3112POPC   PO441664  36.426  36.463   5.455
 3112POPC   GL141665  36.262  36.735   5.764
 3112POPC   GL241666  36.131  37.086   5.792
 3112POPC   C1A41667  36.429  36.848   6.173
 3112POPC   D2A41668  36.547  36.675   6.570
 3112POPC   C3A41669  36.343  36.827   6.933
 3112POPC   C4A41670  36.458  36.719   7.344
 3112POPC   C1B41671  35.894  36.827   6.111
 3112POPC   C2B41672  36.011  36.754   6.516
 3112POPC   C3B41673  35.774  36.736   6.873
 3112POPC   C4B41674  35.861  36.921   7.249
 3113POPC   NC341675  39.443  11.496   5.312
 3113POPC   PO441676  39.203  10.858   5.569
 3113POPC   GL141677  39.342  11.211   5.748
 3113POPC   GL241678  39.090  11.441   5.715
 3113POPC   C1A41679  39.486  11.390   6.124
 3113POPC   D2A41680  39.643  11.398   6.531
 3113POPC   C3A41681  39.455  11.160   6.840
 3113POPC   C4A41682  39.339  11.209   7.270
 3113POPC   C1B41683  39.019  11.590   6.136
 3113POPC   C2B41684  39.141  11.541   6.560
 3113POPC   C3B41685  38.996  11.405   6.953
 3113POPC   C4B41686  39.048  11.631   7.363
 3114POPC   NC341687  10.530  27.530   5.478
 3114POPC   PO441688  10.715  28.177   5.343
 3114POPC   GL141689  10.705  27.933   5.735
 3114POPC   GL241690  10.353  27.970   5.789
 3114POPC   C1A41691  10.622  27.671   6.138
 3114POPC   D2A41692  10.473  27.535   6.557
 3114POPC   C3A41693  10.821  27.488   6.829
 3114POPC   C4A41694  10.949  27.593   7.259
 3114POPC   C1B41695  10.137  27.845   6.151
 3114POPC   C2B41696   9.944  27.788   6.518
 3114POPC   C3B41697  10.159  27.824   6.896
 3114POPC   C4B41698  10.449  27.552   7.168
 3115POPC   NC341699  40.705  44.996   5.134
 3115POPC   PO441700  40.844  44.394   5.387
 3115POPC   GL141701  40.797  44.560   5.784
 3115POPC   GL241702  40.745  44.907   5.714
 3115POPC   C1A41703  40.654  44.487   6.203
 3115POPC   D2A41704  40.559  44.701   6.596
 3115POPC   C3A41705  40.662  44.372   6.888
 3115POPC   C4A41706  40.828  44.352   7.300
 3115POPC   C1B41707  40.803  44.971   6.173
 3115POPC   C2B41708  41.008  44.963   6.591
 3115POPC   C3B41709  40.894  44.860   7.020
 3115POPC   C4B41710  40.500  44.742   7.190
 3116POPC   NC341711   0.003  16.979   5.314
 3116POPC   PO441712  44.429  16.583   5.369
 3116POPC   GL141713  44.635  16.638   5.761
 3116POPC   GL241714  44.821  16.963   5.820
 3116POPC   C1A41715  44.583  16.660   6.203
 3116POPC   D2A41716  44.748  16.814   6.584
 3116POPC   C3A41717  44.857  16.575   6.941
 3116POPC   C4A41718  44.873  16.744   7.361
 3116POPC   C1B41719   0.065  17.078   6.191
 3116POPC   C2B41720   0.059  17.206   6.628
 3116POPC   C3B41721   0.155  16.976   6.956
 3116POPC   C4B41722   0.309  17.008   7.360
 3117POPC   NC341723   0.041  17.812   5.266
 3117POPC   PO441724  44.475  17.456   5.287
 3117POPC   GL141725  44.499  17.370   5.818
 3117POPC   GL241726  44.723  17.565   5.987
 3117POPC   C1A41727  44.575  17.201   6.278
 3117POPC   D2A41728  44.608  17.478   6.638
 3117POPC   C3A41729  44.641  17.206   6.941
 3117POPC   C4A41730  44.849  17.231   7.267
 3117POPC   C1B41731  44.975  17.596   6.311
 3117POPC   C2B41732   0.108  17.715   6.709
 3117POPC   C3B41733  44.888  17.696   7.088
 3117POPC   C4B41734  44.485  17.622   7.213
 3118POPC   NC341735  31.366  10.758   5.198
 3118POPC   PO441736  31.095  10.312   5.664
 3118POPC   GL141737  31.482  10.157   5.870
 3118POPC   GL241738  31.287   9.890   5.982
 3118POPC   C1A41739  31.700  10.384   6.231
 3118POPC   D2A41740  31.508  10.767   6.451
 3118POPC   C3A41741  31.552  10.846   6.897
 3118POPC   C4A41742  31.738  10.633   7.258
 3118POPC   C1B41743  31.442   9.933   6.388
 3118POPC   C2B41744  31.422  10.304   6.660
 3118POPC   C3B41745  31.298  10.433   7.041
 3118POPC   C4B41746  31.400  10.231   7.370
 3119POPC   NC341747   0.913  44.093   5.376
 3119POPC   PO441748   1.482  43.772   5.423
 3119POPC   GL141749   1.309  43.945   5.810
 3119POPC   GL241750   0.983  44.158   5.872
 3119POPC   C1A41751   1.265  43.670   6.197
 3119POPC   D2A41752   1.447  43.431   6.562
 3119POPC   C3A41753   1.417  43.745   6.887
 3119POPC   C4A41754   1.239  43.721   7.309
 3119POPC   C1B41755   1.212  44.195   6.257
 3119POPC   C2B41756   1.315  44.209   6.683
 3119POPC   C3B41757   1.281  44.193   7.137
 3119POPC   C4B41758   1.332  44.193   7.595
 3120POPC   NC341759  25.645   4.434   5.606
 3120POPC   PO441760  26.355   4.160   5.432
 3120POPC   GL141761  26.100   4.138   5.775
 3120POPC   GL241762  26.124   4.498   5.778
 3120POPC   C1A41763  25.937   4.204   6.172
 3120POPC   D2A41764  26.146   4.230   6.515
 3120POPC   C3A41765  25.956   4.366   6.841
 3120POPC   C4A41766  26.006   4.428   7.252
 3120POPC   C1B41767  26.078   4.685   6.177
 3120POPC   C2B41768  26.284   4.707   6.572
 3120POPC   C3B41769  26.417   4.629   6.978
 3120POPC   C4B41770  26.361   4.761   7.415
 3121POPC   NC341771  21.487   5.631   5.481
 3121POPC   PO441772  21.359   6.284   5.443
 3121POPC   GL141773  21.460   6.037   5.789
 3121POPC   GL241774  21.169   6.067   5.880
 3121POPC   C1A41775  21.599   5.812   6.188
 3121POPC   D2A41776  21.602   5.550   6.573
 3121POPC   C3A41777  21.563   5.737   6.993
 3121POPC   C4A41778  21.423   5.954   7.380
 3121POPC   C1B41779  21.075   5.836   6.237
 3121POPC   C2B41780  21.095   5.675   6.666
 3121POPC   C3B41781  21.056   5.910   7.038
 3121POPC   C4B41782  20.875   5.855   7.461
 3122POPC   NC341783  28.794  43.772   5.390
 3122POPC   PO441784  28.747  44.372   5.608
 3122POPC   GL141785  28.624  43.957   5.840
 3122POPC   GL241786  28.356  43.670   5.767
 3122POPC   C1A41787  28.543  43.784   6.256
 3122POPC   D2A41788  28.345  43.925   6.643
 3122POPC   C3A41789  28.573  44.021   7.052
 3122POPC   C4A41790  28.356  44.002   7.464
 3122POPC   C1B41791  28.051  43.629   6.169
 3122POPC   C2B41792  27.985  43.540   6.652
 3122POPC   C3B41793  28.206  43.668   7.066
 3122POPC   C4B41794  28.596  43.573   7.316
 3123POPC   NC341795  41.721  40.504   5.410
 3123POPC   PO441796  41.547  41.125   5.360
 3123POPC   GL141797  41.588  40.899   5.765
 3123POPC   GL241798  41.382  40.595   5.775
 3123POPC   C1A41799  41.720  40.953   6.208
 3123POPC   D2A41800  41.886  40.939   6.640
 3123POPC   C3A41801  41.615  41.022   6.980
 3123POPC   C4A41802  41.722  41.068   7.404
 3123POPC   C1B41803  41.411  40.535   6.206
 3123POPC   C2B41804  41.443  40.697   6.607
 3123POPC   C3B41805  41.601  40.508   6.976
 3123POPC   C4B41806  41.468  40.261   7.360
 3124POPC   NC341807   8.627  37.239   5.388
 3124POPC   PO441808   9.239  37.711   5.317
 3124POPC   GL141809   9.086  37.777   5.719
 3124POPC   GL241810   8.827  37.574   5.726
 3124POPC   C1A41811   9.107  37.825   6.153
 3124POPC   D2A41812   8.918  37.736   6.523
 3124POPC   C3A41813   8.908  38.047   6.846
 3124POPC   C4A41814   8.866  37.827   7.223
 3124POPC   C1B41815   8.743  37.431   6.117
 3124POPC   C2B41816   8.470  37.474   6.469
 3124POPC   C3B41817   8.587  37.562   6.874
 3124POPC   C4B41818   8.536  37.411   7.253
 3125POPC   NC341819  23.290  34.640   5.461
 3125POPC   PO441820  22.634  34.568   5.430
 3125POPC   GL141821  22.878  34.631   5.793
 3125POPC   GL241822  22.982  34.280   5.850
 3125POPC   C1A41823  22.981  34.669   6.237
 3125POPC   D2A41824  22.958  34.326   6.505
 3125POPC   C3A41825  22.775  34.409   6.915
 3125POPC   C4A41826  22.761  34.668   7.251
 3125POPC   C1B41827  23.348  34.322   6.123
 3125POPC   C2B41828  23.429  34.497   6.528
 3125POPC   C3B41829  23.283  34.336   6.916
 3125POPC   C4B41830  23.320  34.506   7.318
 3126POPC   NC341831  24.993  18.587   5.396
 3126POPC   PO441832  25.338  19.221   5.343
 3126POPC   GL141833  25.300  19.125   5.783
 3126POPC   GL241834  25.515  18.810   5.829
 3126POPC   C1A41835  25.108  19.083   6.218
 3126POPC   D2A41836  25.310  18.935   6.602
 3126POPC   C3A41837  25.243  19.144   6.962
 3126POPC   C4A41838  25.031  19.020   7.325
 3126POPC   C1B41839  25.618  19.050   6.204
 3126POPC   C2B41840  25.656  19.314   6.598
 3126POPC   C3B41841  25.772  19.171   6.999
 3126POPC   C4B41842  25.572  19.008   7.328
 3127POPC   NC341843   3.692  43.371   5.060
 3127POPC   PO441844   3.578  42.782   5.331
 3127POPC   GL141845   3.707  43.001   5.686
 3127POPC   GL241846   3.603  43.232   5.656
 3127POPC   C1A41847   3.779  43.265   6.115
 3127POPC   D2A41848   3.592  43.394   6.519
 3127POPC   C3A41849   3.821  43.241   6.883
 3127POPC   C4A41850   3.694  43.162   7.253
 3127POPC   C1B41851   3.356  43.026   6.068
 3127POPC   C2B41852   3.219  43.020   6.464
 3127POPC   C3B41853   3.348  43.043   6.860
 3127POPC   C4B41854   3.386  42.757   7.145
 3128POPC   NC341855  16.348   1.124   5.220
 3128POPC   PO441856  15.707   1.063   5.561
 3128POPC   GL141857  15.768   1.482   5.755
 3128POPC   GL241858  16.116   1.509   5.757
 3128POPC   C1A41859  15.865   1.661   6.184
 3128POPC   D2A41860  16.091   1.711   6.593
 3128POPC   C3A41861  15.982   1.400   6.892
 3128POPC   C4A41862  16.163   1.275   7.259
 3128POPC   C1B41863  16.136   1.224   6.133
 3128POPC   C2B41864  16.327   0.945   6.490
 3128POPC   C3B41865  16.193   0.872   6.919
 3128POPC   C4B41866  16.197   0.775   7.342
 3129POPC   NC341867  39.450  43.818   5.281
 3129POPC   PO441868  39.113  44.319   5.599
 3129POPC   GL141869  39.127  43.992   5.918
 3129POPC   GL241870  39.233  43.713   5.728
 3129POPC   C1A41871  38.928  43.765   6.289
 3129POPC   D2A41872  38.927  43.616   6.755
 3129POPC   C3A41873  39.224  43.869   7.044
 3129POPC   C4A41874  39.160  43.905   7.487
 3129POPC   C1B41875  39.356  43.545   6.122
 3129POPC   C2B41876  39.401  43.646   6.558
 3129POPC   C3B41877  39.363  43.401   6.945
 3129POPC   C4B41878  39.453  43.506   7.402
 3130POPC   NC341879  14.044  16.184   5.318
 3130POPC   PO441880  14.594  15.815   5.127
 3130POPC   GL141881  14.387  15.897   5.633
 3130POPC   GL241882  14.173  16.141   5.802
 3130POPC   C1A41883  14.287  15.747   6.101
 3130POPC   D2A41884  14.435  15.812   6.547
 3130POPC   C3A41885  14.233  15.777   6.929
 3130POPC   C4A41886  14.232  15.579   7.306
 3130POPC   C1B41887  14.355  16.244   6.198
 3130POPC   C2B41888  14.162  16.244   6.605
 3130POPC   C3B41889  14.331  16.279   7.020
 3130POPC   C4B41890  14.134  16.335   7.418
 3131POPC   NC341891   0.887   6.194   5.573
 3131POPC   PO441892   1.456   6.499   5.282
 3131POPC   GL141893   1.206   6.602   5.748
 3131POPC   GL241894   0.891   6.691   5.655
 3131POPC   C1A41895   1.365   6.609   6.218
 3131POPC   D2A41896   1.457   6.945   6.484
 3131POPC   C3A41897   1.412   6.830   6.894
 3131POPC   C4A41898   1.597   6.504   7.166
 3131POPC   C1B41899   0.884   6.723   6.122
 3131POPC   C2B41900   0.807   6.833   6.566
 3131POPC   C3B41901   0.908   6.777   7.014
 3131POPC   C4B41902   0.849   6.327   7.145
 3132POPC   NC341903  25.932   8.495   5.518
 3132POPC   PO441904  26.166   7.953   5.120
 3132POPC   GL141905  26.207   7.950   5.675
 3132POPC   GL241906  25.925   8.117   5.866
 3132POPC   C1A41907  26.199   7.918   6.208
 3132POPC   D2A41908  26.186   8.135   6.650
 3132POPC   C3A41909  26.095   7.943   7.076
 3132POPC   C4A41910  26.186   7.868   7.525
 3132POPC   C1B41911  25.799   8.257   6.267
 3132POPC   C2B41912  25.641   8.247   6.683
 3132POPC   C3B41913  25.823   8.401   7.073
 3132POPC   C4B41914  25.841   8.601   7.528
 3133POPC   NC341915  28.469   9.441   5.247
 3133POPC   PO441916  28.746  10.137   5.298
 3133POPC   GL141917  28.458   9.994   5.684
 3133POPC   GL241918  28.367   9.639   5.703
 3133POPC   C1A41919  28.333   9.962   6.160
 3133POPC   D2A41920  28.541   9.894   6.605
 3133POPC   C3A41921  28.329   9.976   7.046
 3133POPC   C4A41922  28.502   9.888   7.464
 3133POPC   C1B41923  28.114   9.476   6.014
 3133POPC   C2B41924  28.121   9.600   6.465
 3133POPC   C3B41925  28.236   9.490   6.883
 3133POPC   C4B41926  27.957   9.387   7.208
 3134POPC   NC341927   3.314  39.898   5.405
 3134POPC   PO441928   3.797  40.364   5.175
 3134POPC   GL141929   3.570  40.270   5.669
 3134POPC   GL241930   3.206  40.198   5.786
 3134POPC   C1A41931   3.667  40.060   6.107
 3134POPC   D2A41932   3.892  39.895   6.488
 3134POPC   C3A41933   3.667  39.774   6.879
 3134POPC   C4A41934   3.621  40.040   7.247
 3134POPC   C1B41935   3.163  40.127   6.212
 3134POPC   C2B41936   3.243  40.311   6.593
 3134POPC   C3B41937   2.983  40.319   6.934
 3134POPC   C4B41938   3.106  40.060   7.209
 3135POPC   NC341939  37.579   0.345   5.238
 3135POPC   PO441940  38.165   0.338   5.481
 3135POPC   GL141941  37.779   0.447   5.731
 3135POPC   GL241942  37.414   0.397   5.739
 3135POPC   C1A41943  37.764   0.303   6.158
 3135POPC   D2A41944  37.944   0.356   6.565
 3135POPC   C3A41945  37.652   0.357   6.908
 3135POPC   C4A41946  37.552   0.129   7.292
 3135POPC   C1B41947  37.384   0.636   6.149
 3135POPC   C2B41948  37.215   0.455   6.563
 3135POPC   C3B41949  37.150   0.246   6.961
 3135POPC   C4B41950  37.311   0.571   7.227
 3136POPC   NC341951  44.982  21.245   5.281
 3136POPC   PO441952  44.480  21.575   5.249
 3136POPC   GL141953  44.769  21.574   5.629
 3136POPC   GL241954  44.664  21.886   5.811
 3136POPC   C1A41955  44.826  21.405   6.041
 3136POPC   D2A41956  44.551  21.291   6.405
 3136POPC   C3A41957  44.580  21.372   6.856
 3136POPC   C4A41958  44.893  21.411   7.216
 3136POPC   C1B41959  44.366  21.653   6.066
 3136POPC   C2B41960  44.241  21.696   6.518
 3136POPC   C3B41961  44.366  21.847   6.941
 3136POPC   C4B41962  44.432  21.567   7.315
 3137POPC   NC341963   4.751   6.137   5.472
 3137POPC   PO441964   4.102   6.104   5.381
 3137POPC   GL141965   4.047   6.157   5.812
 3137POPC   GL241966   4.372   6.046   5.915
 3137POPC   C1A41967   3.917   6.039   6.256
 3137POPC   D2A41968   4.099   6.084   6.686
 3137POPC   C3A41969   3.995   6.065   7.148
 3137POPC   C4A41970   4.165   5.975   7.596
 3137POPC   C1B41971   4.564   6.099   6.334
 3137POPC   C2B41972   4.597   6.069   6.802
 3137POPC   C3B41973   4.535   6.113   7.267
 3137POPC   C4B41974   4.616   6.178   7.754
 3138POPC   NC341975  22.651  27.734   5.432
 3138POPC   PO441976  23.207  27.381   5.508
 3138POPC   GL141977  23.163  27.583   5.891
 3138POPC   GL241978  22.836  27.729   5.907
 3138POPC   C1A41979  23.068  27.466   6.302
 3138POPC   D2A41980  22.878  27.452   6.667
 3138POPC   C3A41981  23.113  27.491   7.019
 3138POPC   C4A41982  23.016  27.399   7.441
 3138POPC   C1B41983  22.916  27.956   6.293
 3138POPC   C2B41984  22.795  27.961   6.717
 3138POPC   C3B41985  22.674  27.947   7.129
 3138POPC   C4B41986  23.082  27.903   7.318
 3139POPC   NC341987  36.304  12.378   5.409
 3139POPC   PO441988  36.495  13.012   5.317
 3139POPC   GL141989  36.451  12.868   5.707
 3139POPC   GL241990  36.445  13.165   5.918
 3139POPC   C1A41991  36.367  12.666   6.088
 3139POPC   D2A41992  36.575  12.596   6.509
 3139POPC   C3A41993  36.330  12.642   6.910
 3139POPC   C4A41994  35.956  12.713   7.180
 3139POPC   C1B41995  36.041  13.030   6.193
 3139POPC   C2B41996  35.825  13.157   6.590
 3139POPC   C3B41997  36.040  13.178   6.993
 3139POPC   C4B41998  36.110  13.141   7.484
 3140POPC   NC341999  14.659  35.616   5.142
 3140POPC   PO442000  14.640  35.036   5.521
 3140POPC   GL142001  14.282  35.194   5.782
 3140POPC   GL242002  14.022  35.442   5.683
 3140POPC   C1A42003  14.293  35.114   6.222
 3140POPC   D2A42004  14.534  35.022   6.612
 3140POPC   C3A42005  14.362  35.260   6.962
 3140POPC   C4A42006  14.510  35.491   7.319
 3140POPC   C1B42007  14.111  35.599   6.110
 3140POPC   C2B42008  14.332  35.537   6.524
 3140POPC   C3B42009  14.291  35.759   6.909
 3140POPC   C4B42010  14.217  35.915   7.301
 3141POPC   NC342011  17.213  33.354   5.561
 3141POPC   PO442012  16.460  33.233   5.338
 3141POPC   GL142013  16.677  33.323   5.713
 3141POPC   GL242014  16.822  33.006   5.752
 3141POPC   C1A42015  16.822  33.363   6.169
 3141POPC   D2A42016  16.864  33.147   6.610
 3141POPC   C3A42017  16.853  33.258   7.078
 3141POPC   C4A42018  17.007  33.020   7.480
 3141POPC   C1B42019  16.452  32.831   6.026
 3141POPC   C2B42020  16.288  32.887   6.471
 3141POPC   C3B42021  16.464  32.867   6.900
 3141POPC   C4B42022  16.376  32.747   7.327
 3142POPC   NC342023  42.563   7.470   5.279
 3142POPC   PO442024  42.180   6.989   5.178
 3142POPC   GL142025  42.367   7.202   5.674
 3142POPC   GL242026  42.378   7.540   5.795
 3142POPC   C1A42027  42.152   7.190   6.144
 3142POPC   D2A42028  42.050   7.443   6.556
 3142POPC   C3A42029  42.001   7.251   7.009
 3142POPC   C4A42030  42.209   7.385   7.400
 3142POPC   C1B42031  42.617   7.353   6.137
 3142POPC   C2B42032  42.505   7.210   6.534
 3142POPC   C3B42033  42.489   7.386   6.929
 3142POPC   C4B42034  42.698   7.402   7.282
 3143POPC   NC342035  41.318  13.267   5.592
 3143POPC   PO442036  41.566  12.611   5.462
 3143POPC   GL142037  41.604  12.822   5.828
 3143POPC   GL242038  41.258  12.837   5.827
 3143POPC   C1A42039  41.498  12.853   6.276
 3143POPC   D2A42040  41.690  12.731   6.635
 3143POPC   C3A42041  41.846  12.893   7.002
 3143POPC   C4A42042  41.781  12.976   7.443
 3143POPC   C1B42043  41.037  13.073   6.181
 3143POPC   C2B42044  41.238  13.244   6.558
 3143POPC   C3B42045  41.341  13.035   6.922
 3143POPC   C4B42046  41.036  12.948   7.188
 3144POPC   NC342047   5.640   9.885   5.657
 3144POPC   PO442048   6.145   9.576   5.389
 3144POPC   GL142049   6.098   9.669   5.790
 3144POPC   GL242050   6.116  10.036   5.798
 3144POPC   C1A42051   5.949   9.495   6.186
 3144POPC   D2A42052   6.172   9.529   6.569
 3144POPC   C3A42053   5.896   9.368   6.862
 3144POPC   C4A42054   5.770   9.408   7.255
 3144POPC   C1B42055   5.907   9.993   6.225
 3144POPC   C2B42056   5.789   9.844   6.624
 3144POPC   C3B42057   5.801   9.994   7.041
 3144POPC   C4B42058   5.641   9.852   7.442
 3145POPC   NC342059   9.611  33.431   5.473
 3145POPC   PO442060   9.913  32.862   5.489
 3145POPC   GL142061   9.743  32.993   5.836
 3145POPC   GL242062   9.399  33.012   5.748
 3145POPC   C1A42063   9.621  33.228   6.183
 3145POPC   D2A42064   9.449  33.213   6.565
 3145POPC   C3A42065   9.733  33.198   6.866
 3145POPC   C4A42066   9.770  33.064   7.269
 3145POPC   C1B42067   9.393  32.726   6.102
 3145POPC   C2B42068   9.294  32.753   6.529
 3145POPC   C3B42069   9.501  32.763   6.935
 3145POPC   C4B42070   9.490  32.515   7.313
 3146POPC   NC342071   1.593  35.362   5.264
 3146POPC   PO442072   1.095  35.791   5.250
 3146POPC   GL142073   1.293  35.523   5.661
 3146POPC   GL242074   1.188  35.159   5.740
 3146POPC   C1A42075   1.427  35.499   6.135
 3146POPC   D2A42076   1.235  35.576   6.598
 3146POPC   C3A42077   1.409  35.451   7.030
 3146POPC   C4A42078   1.342  35.559   7.507
 3146POPC   C1B42079   1.233  34.987   6.179
 3146POPC   C2B42080   1.383  35.063   6.630
 3146POPC   C3B42081   1.279  34.934   7.079
 3146POPC   C4B42082   1.118  35.106   7.483
 3147POPC   NC342083   1.251  10.695   5.184
 3147POPC   PO442084   0.776  10.594   5.605
 3147POPC   GL142085   1.093  10.467   5.857
 3147POPC   GL242086   1.359  10.681   5.737
 3147POPC   C1A42087   1.062  10.341   6.284
 3147POPC   D2A42088   0.977  10.251   6.704
 3147POPC   C3A42089   0.945  10.470   7.037
 3147POPC   C4A42090   1.306  10.353   7.273
 3147POPC   C1B42091   1.415  10.701   6.179
 3147POPC   C2B42092   1.159  10.772   6.554
 3147POPC   C3B42093   1.368  10.720   6.932
 3147POPC   C4B42094   1.672  10.758   7.258
 3148POPC   NC342095  41.966  28.109   5.229
 3148POPC   PO442096  42.346  27.585   5.196
 3148POPC   GL142097  42.356  27.454   5.664
 3148POPC   GL242098  42.311  27.781   5.862
 3148POPC   C1A42099  42.261  27.273   6.067
 3148POPC   D2A42100  42.108  27.479   6.420
 3148POPC   C3A42101  42.222  27.332   6.825
 3148POPC   C4A42102  42.016  27.479   7.165
 3148POPC   C1B42103  42.609  27.844   6.220
 3148POPC   C2B42104  42.590  27.648   6.624
 3148POPC   C3B42105  42.474  27.757   7.050
 3148POPC   C4B42106  42.703  28.001   7.378
 3149POPC   NC342107  27.986  37.438   5.565
 3149POPC   PO442108  28.515  38.030   5.604
 3149POPC   GL142109  28.374  37.968   5.964
 3149POPC   GL242110  28.353  37.645   5.889
 3149POPC   C1A42111  28.447  37.844   6.378
 3149POPC   D2A42112  28.798  37.704   6.651
 3149POPC   C3A42113  28.788  37.955   7.000
 3149POPC   C4A42114  28.431  37.985   7.241
 3149POPC   C1B42115  28.245  37.385   6.202
 3149POPC   C2B42116  28.423  37.361   6.579
 3149POPC   C3B42117  28.294  37.685   6.849
 3149POPC   C4B42118  28.108  37.547   7.221
 3150POPC   NC342119  40.442  33.602   5.376
 3150POPC   PO442120  41.003  33.965   5.423
 3150POPC   GL142121  40.783  33.770   5.786
 3150POPC   GL242122  40.582  33.458   5.845
 3150POPC   C1A42123  40.715  33.912   6.219
 3150POPC   D2A42124  40.733  34.146   6.626
 3150POPC   C3A42125  40.571  34.012   7.037
 3150POPC   C4A42126  40.793  33.765   7.385
 3150POPC   C1B42127  40.576  33.407   6.287
 3150POPC   C2B42128  40.573  33.619   6.692
 3150POPC   C3B42129  40.442  33.519   7.112
 3150POPC   C4B42130  40.552  33.328   7.525
 3151POPC   NC342131  37.998  41.967   5.466
 3151POPC   PO442132  37.857  41.335   5.270
 3151POPC   GL142133  37.685  41.526   5.661
 3151POPC   GL242134  37.943  41.594   5.832
 3151POPC   C1A42135  37.529  41.550   6.112
 3151POPC   D2A42136  37.682  41.649   6.508
 3151POPC   C3A42137  37.741  41.383   6.816
 3151POPC   C4A42138  37.599  41.310   7.246
 3151POPC   C1B42139  38.034  41.415   6.238
 3151POPC   C2B42140  38.184  41.654   6.580
 3151POPC   C3B42141  38.055  41.821   6.963
 3151POPC   C4B42142  38.014  41.571   7.317
 3152POPC   NC342143   2.434  29.472   5.517
 3152POPC   PO442144   1.981  29.016   5.395
 3152POPC   GL142145   1.962  28.940   5.803
 3152POPC   GL242146   2.172  29.211   5.919
 3152POPC   C1A42147   1.839  28.872   6.197
 3152POPC   D2A42148   1.976  29.096   6.527
 3152POPC   C3A42149   1.851  28.888   6.856
 3152POPC   C4A42150   1.939  28.996   7.253
 3152POPC   C1B42151   1.825  29.417   6.134
 3152POPC   C2B42152   1.848  29.592   6.566
 3152POPC   C3B42153   1.951  29.406   6.958
 3152POPC   C4B42154   1.996  29.491   7.377
 3153POPC   NC342155  36.477  41.363   5.453
 3153POPC   PO442156  36.217  40.706   5.320
 3153POPC   GL142157  36.226  40.853   5.738
 3153POPC   GL242158  35.945  40.627   5.798
 3153POPC   C1A42159  36.380  40.949   6.154
 3153POPC   D2A42160  36.349  41.050   6.593
 3153POPC   C3A42161  36.342  40.736   6.881
 3153POPC   C4A42162  36.180  40.742   7.295
 3153POPC   C1B42163  35.784  40.529   6.191
 3153POPC   C2B42164  35.928  40.737   6.552
 3153POPC   C3B42165  35.872  40.511   6.900
 3153POPC   C4B42166  35.840  40.378   7.271
 3154POPC   NC342167  44.976  28.363   5.331
 3154POPC   PO442168   0.614  28.243   5.350
 3154POPC   GL142169   0.434  28.482   5.662
 3154POPC   GL242170   0.567  28.277   5.906
 3154POPC   C1A42171   0.170  28.573   6.021
 3154POPC   D2A42172   0.102  28.385   6.436
 3154POPC   C3A42173   0.166  28.644   6.786
 3154POPC   C4A42174  44.992  28.635   7.191
 3154POPC   C1B42175   0.606  28.479   6.297
 3154POPC   C2B42176   0.549  28.299   6.709
 3154POPC   C3B42177   0.533  28.414   7.143
 3154POPC   C4B42178   0.720  28.208   7.511
 3155POPC   NC342179  38.294  14.072   5.143
 3155POPC   PO442180  38.381  14.793   5.193
 3155POPC   GL142181  38.399  14.430   5.549
 3155POPC   GL242182  38.732  14.328   5.661
 3155POPC   C1A42183  38.348  14.238   6.004
 3155POPC   D2A42184  38.462  14.242   6.465
 3155POPC   C3A42185  38.411  14.384   6.899
 3155POPC   C4A42186  38.358  14.193   7.294
 3155POPC   C1B42187  38.745  14.597   6.073
 3155POPC   C2B42188  38.734  14.670   6.533
 3155POPC   C3B42189  38.851  14.644   6.960
 3155POPC   C4B42190  38.664  14.592   7.314
 3156POPC   NC342191  19.581  43.521   5.464
 3156POPC   PO442192  18.975  43.955   5.359
 3156POPC   GL142193  19.179  43.936   5.747
 3156POPC   GL242194  19.234  43.584   5.859
 3156POPC   C1A42195  19.213  44.129   6.142
 3156POPC   D2A42196  19.065  44.081   6.561
 3156POPC   C3A42197  18.883  43.849   6.894
 3156POPC   C4A42198  19.059  44.093   7.268
 3156POPC   C1B42199  19.093  43.635   6.304
 3156POPC   C2B42200  19.329  43.643   6.714
 3156POPC   C3B42201  19.266  43.656   7.140
 3156POPC   C4B42202  19.359  43.483   7.487
 3157POPC   NC342203   7.657  44.072   5.404
 3157POPC   PO442204   7.217  43.605   5.405
 3157POPC   GL142205   7.270  43.733   5.851
 3157POPC   GL242206   7.485  44.014   5.899
 3157POPC   C1A42207   7.507  43.696   6.275
 3157POPC   D2A42208   7.204  43.916   6.510
 3157POPC   C3A42209   7.060  43.854   6.925
 3157POPC   C4A42210   7.239  43.682   7.272
 3157POPC   C1B42211   7.520  44.251   6.257
 3157POPC   C2B42212   7.639  44.125   6.663
 3157POPC   C3B42213   7.615  43.985   7.078
 3157POPC   C4B42214   7.674  44.339   7.343
 3158POPC   NC342215  34.691   9.588   5.393
 3158POPC   PO442216  34.768  10.275   5.454
 3158POPC   GL142217  34.715   9.987   5.816
 3158POPC   GL242218  34.532   9.698   5.851
 3158POPC   C1A42219  34.580   9.987   6.276
 3158POPC   D2A42220  34.874   9.860   6.606
 3158POPC   C3A42221  34.724   9.864   7.049
 3158POPC   C4A42222  34.666   9.625   7.487
 3158POPC   C1B42223  34.760   9.521   6.165
 3158POPC   C2B42224  34.522   9.486   6.525
 3158POPC   C3B42225  34.491   9.427   6.961
 3158POPC   C4B42226  34.184   9.621   7.270
 3159POPC   NC342227  29.723  43.884   5.367
 3159POPC   PO442228  30.341  44.081   5.354
 3159POPC   GL142229  30.015  44.120   5.713
 3159POPC   GL242230  29.882  43.776   5.834
 3159POPC   C1A42231  29.906  44.171   6.165
 3159POPC   D2A42232  30.058  43.984   6.538
 3159POPC   C3A42233  29.957  43.992   6.942
 3159POPC   C4A42234  30.277  44.072   7.233
 3159POPC   C1B42235  29.800  43.636   6.272
 3159POPC   C2B42236  29.836  43.526   6.741
 3159POPC   C3B42237  29.613  43.654   7.148
 3159POPC   C4B42238  29.714  43.542   7.577
 3160POPC   NC342239  22.291  44.992   5.458
 3160POPC   PO442240  22.269   0.640   5.631
 3160POPC   GL142241  22.201   0.264   5.897
 3160POPC   GL242242  21.901   0.090   5.783
 3160POPC   C1A42243  22.332   0.268   6.314
 3160POPC   D2A42244  22.328   0.641   6.571
 3160POPC   C3A42245  22.475   0.641   6.997
 3160POPC   C4A42246  22.189   0.648   7.351
 3160POPC   C1B42247  21.707   0.061   6.193
 3160POPC   C2B42248  21.943   0.104   6.609
 3160POPC   C3B42249  22.081   0.273   7.006
 3160POPC   C4B42250  21.709   0.192   7.229
 3161POPC   NC342251  39.176  28.410   5.345
 3161POPC   PO442252  39.174  27.794   5.388
 3161POPC   GL142253  38.961  28.080   5.704
 3161POPC   GL242254  39.282  28.234   5.829
 3161POPC   C1A42255  38.877  28.308   6.127
 3161POPC   D2A42256  39.117  28.485   6.485
 3161POPC   C3A42257  38.927  28.495   6.903
 3161POPC   C4A42258  39.169  28.370   7.256
 3161POPC   C1B42259  39.316  28.020   6.262
 3161POPC   C2B42260  39.443  28.038   6.718
 3161POPC   C3B42261  39.652  28.265   7.067
 3161POPC   C4B42262  39.584  28.285   7.528
 3162POPC   NC342263   7.840  14.668   5.400
 3162POPC   PO442264   7.477  14.108   5.440
 3162POPC   GL142265   7.597  14.356   5.780
 3162POPC   GL242266   7.872  14.174   5.851
 3162POPC   C1A42267   7.434  14.560   6.199
 3162POPC   D2A42268   7.195  14.626   6.599
 3162POPC   C3A42269   7.356  14.512   7.006
 3162POPC   C4A42270   7.436  14.669   7.404
 3162POPC   C1B42271   7.670  14.098   6.235
 3162POPC   C2B42272   7.569  14.238   6.616
 3162POPC   C3B42273   7.511  14.021   6.979
 3162POPC   C4B42274   7.338  14.115   7.377
 3163POPC   NC342275  27.490   7.019   5.291
 3163POPC   PO442276  27.630   7.624   5.230
 3163POPC   GL142277  27.685   7.435   5.609
 3163POPC   GL242278  27.460   7.672   5.758
 3163POPC   C1A42279  27.657   7.310   6.037
 3163POPC   D2A42280  27.806   7.439   6.436
 3163POPC   C3A42281  27.674   7.308   6.821
 3163POPC   C4A42282  27.880   7.403   7.180
 3163POPC   C1B42283  27.510   7.775   6.223
 3163POPC   C2B42284  27.452   7.767   6.712
 3163POPC   C3B42285  27.401   7.607   7.168
 3163POPC   C4B42286  27.319   7.413   7.617
 3164POPC   NC342287  21.321  36.202   5.348
 3164POPC   PO442288  21.938  36.211   5.228
 3164POPC   GL142289  21.692  36.194   5.686
 3164POPC   GL242290  21.339  36.041   5.831
 3164POPC   C1A42291  21.742  35.995   6.132
 3164POPC   D2A42292  21.856  36.171   6.545
 3164POPC   C3A42293  21.763  36.009   6.937
 3164POPC   C4A42294  21.389  36.025   7.159
 3164POPC   C1B42295  21.248  36.214   6.227
 3164POPC   C2B42296  21.297  36.142   6.651
 3164POPC   C3B42297  21.017  36.320   6.925
 3164POPC   C4B42298  20.903  36.202   7.348
 3165POPC   NC342299  28.728  20.047   5.336
 3165POPC   PO442300  29.288  19.657   5.252
 3165POPC   GL142301  29.070  19.768   5.631
 3165POPC   GL242302  29.346  19.598   5.796
 3165POPC   C1A42303  28.923  20.098   5.964
 3165POPC   D2A42304  28.851  20.379   6.323
 3165POPC   C3A42305  28.971  20.305   6.788
 3165POPC   C4A42306  29.140  20.219   7.194
 3165POPC   C1B42307  29.162  19.707   6.182
 3165POPC   C2B42308  29.248  20.031   6.462
 3165POPC   C3B42309  29.471  20.043   6.840
 3165POPC   C4B42310  29.471  19.809   7.209
 3166POPC   NC342311  36.608  33.213   5.433
 3166POPC   PO442312  37.236  32.950   5.278
 3166POPC   GL142313  37.038  32.965   5.755
 3166POPC   GL242314  37.021  32.609   5.900
 3166POPC   C1A42315  36.838  33.252   6.129
 3166POPC   D2A42316  36.609  33.175   6.565
 3166POPC   C3A42317  36.821  33.337   6.986
 3166POPC   C4A42318  36.927  33.163   7.423
 3166POPC   C1B42319  36.730  32.765   6.208
 3166POPC   C2B42320  36.762  32.681   6.631
 3166POPC   C3B42321  36.667  32.833   7.030
 3166POPC   C4B42322  36.921  32.660   7.337
 3167POPC   NC342323  15.323  33.785   5.314
 3167POPC   PO442324  14.954  34.114   5.747
 3167POPC   GL142325  15.107  33.674   5.803
 3167POPC   GL242326  15.478  33.619   5.779
 3167POPC   C1A42327  15.209  33.538   6.243
 3167POPC   D2A42328  15.405  33.434   6.667
 3167POPC   C3A42329  15.211  33.585   7.085
 3167POPC   C4A42330  15.085  33.987   7.321
 3167POPC   C1B42331  15.694  33.483   6.121
 3167POPC   C2B42332  15.625  33.837   6.436
 3167POPC   C3B42333  15.484  33.951   6.838
 3167POPC   C4B42334  15.597  33.867   7.245
 3168POPC   NC342335   4.402  41.806   5.069
 3168POPC   PO442336   4.324  41.339   5.594
 3168POPC   GL142337   4.578  41.402   5.892
 3168POPC   GL242338   4.611  41.745   5.770
 3168POPC   C1A42339   4.395  41.263   6.280
 3168POPC   D2A42340   4.140  41.385   6.629
 3168POPC   C3A42341   4.317  41.216   6.969
 3168POPC   C4A42342   4.028  41.133   7.269
 3168POPC   C1B42343   4.646  41.784   6.232
 3168POPC   C2B42344   4.636  41.564   6.626
 3168POPC   C3B42345   4.493  41.707   7.018
 3168POPC   C4B42346   4.737  41.775   7.343
 3169POPC   NC342347  42.899  29.074   5.216
 3169POPC   PO442348  43.462  29.376   5.444
 3169POPC   GL142349  43.173  29.081   5.713
 3169POPC   GL242350  42.839  29.187   5.794
 3169POPC   C1A42351  43.075  28.816   6.119
 3169POPC   D2A42352  43.330  28.812   6.483
 3169POPC   C3A42353  43.141  28.915   6.877
 3169POPC   C4A42354  43.126  28.972   7.332
 3169POPC   C1B42355  43.121  29.307   6.194
 3169POPC   C2B42356  43.007  29.433   6.648
 3169POPC   C3B42357  43.222  29.401   7.064
 3169POPC   C4B42358  43.227  29.589   7.517
 3170POPC   NC342359   4.639   8.280   5.357
 3170POPC   PO442360   4.054   8.008   5.359
 3170POPC   GL142361   4.295   8.147   5.747
 3170POPC   GL242362   4.545   8.407   5.838
 3170POPC   C1A42363   4.369   7.981   6.167
 3170POPC   D2A42364   4.410   7.732   6.550
 3170POPC   C3A42365   4.564   7.886   6.960
 3170POPC   C4A42366   4.446   8.253   7.262
 3170POPC   C1B42367   4.373   8.496   6.227
 3170POPC   C2B42368   4.124   8.276   6.509
 3170POPC   C3B42369   4.092   8.132   6.899
 3170POPC   C4B42370   3.952   8.293   7.266
 3171POPC   NC342371  38.766  17.025   5.584
 3171POPC   PO442372  38.508  17.620   5.323
 3171POPC   GL142373  38.613  17.516   5.761
 3171POPC   GL242374  38.916  17.654   5.902
 3171POPC   C1A42375  38.505  17.587   6.213
 3171POPC   D2A42376  38.651  17.805   6.580
 3171POPC   C3A42377  38.552  17.607   6.951
 3171POPC   C4A42378  38.214  17.676   7.217
 3171POPC   C1B42379  38.879  17.249   6.175
 3171POPC   C2B42380  38.737  17.237   6.590
 3171POPC   C3B42381  38.828  17.161   7.002
 3171POPC   C4B42382  38.595  17.298   7.351
 3172POPC   NC342383  40.276  33.019   5.528
 3172POPC   PO442384  39.722  33.268   5.241
 3172POPC   GL142385  39.638  33.193   5.724
 3172POPC   GL242386  39.938  33.049   5.913
 3172POPC   C1A42387  39.502  33.036   6.150
 3172POPC   D2A42388  39.813  32.925   6.468
 3172POPC   C3A42389  39.729  33.119   6.867
 3172POPC   C4A42390  39.687  32.899   7.238
 3172POPC   C1B42391  39.888  33.390   6.229
 3172POPC   C2B42392  40.117  33.407   6.588
 3172POPC   C3B42393  40.254  33.106   6.881
 3172POPC   C4B42394  40.112  33.181   7.303
 3173POPC   NC342395   3.307   0.425   5.716
 3173POPC   PO442396   3.846   0.716   5.355
 3173POPC   GL142397   3.761   0.574   5.828
 3173POPC   GL242398   3.715   0.251   6.013
 3173POPC   C1A42399   3.549   0.680   6.261
 3173POPC   D2A42400   3.416   0.588   6.688
 3173POPC   C3A42401   3.621   0.245   6.931
 3173POPC   C4A42402   3.959  44.907   6.907
 3173POPC   C1B42403   3.380   0.189   6.353
 3173POPC   C2B42404   3.192  44.974   6.736
 3173POPC   C3B42405   3.197   0.089   7.180
 3173POPC   C4B42406   3.099   0.136   7.685
 3174POPC   NC342407  30.333  32.714   5.569
 3174POPC   PO442408  30.529  33.346   5.462
 3174POPC   GL142409  30.587  33.162   5.856
 3174POPC   GL242410  30.417  32.892   6.024
 3174POPC   C1A42411  30.685  33.219   6.279
 3174POPC   D2A42412  30.668  32.989   6.656
 3174POPC   C3A42413  31.035  33.009   6.910
 3174POPC   C4A42414  30.939  33.037   7.334
 3174POPC   C1B42415  30.276  32.729   6.398
 3174POPC   C2B42416  30.278  32.668   6.847
 3174POPC   C3B42417  30.405  32.881   7.219
 3174POPC   C4B42418  30.285  32.806   7.649
 3175POPC   NC342419  36.129  25.471   5.258
 3175POPC   PO442420  36.422  24.914   5.514
 3175POPC   GL142421  36.264  25.246   5.752
 3175POPC   GL242422  35.930  25.141   5.762
 3175POPC   C1A42423  36.411  25.396   6.163
 3175POPC   D2A42424  36.562  25.356   6.567
 3175POPC   C3A42425  36.298  25.452   6.922
 3175POPC   C4A42426  36.304  25.597   7.338
 3175POPC   C1B42427  35.909  25.332   6.166
 3175POPC   C2B42428  36.056  25.135   6.538
 3175POPC   C3B42429  36.071  24.983   6.941
 3175POPC   C4B42430  35.937  25.232   7.305
 3176POPC   NC342431  30.596   4.498   5.313
 3176POPC   PO442432  30.450   3.949   5.660
 3176POPC   GL142433  30.605   4.325   5.828
 3176POPC   GL242434  30.278   4.396   5.996
 3176POPC   C1A42435  30.760   4.537   6.221
 3176POPC   D2A42436  30.655   4.707   6.646
 3176POPC   C3A42437  30.833   4.482   6.980
 3176POPC   C4A42438  30.803   4.237   7.348
 3176POPC   C1B42439  30.489   4.078   6.282
 3176POPC   C2B42440  30.745   4.113   6.621
 3176POPC   C3B42441  30.519   4.029   6.990
 3176POPC   C4B42442  30.405   3.921   7.394
 3177POPC   NC342443  23.738  37.116   5.251
 3177POPC   PO442444  23.438  36.626   5.641
 3177POPC   GL142445  23.749  36.820   5.888
 3177POPC   GL242446  23.805  37.160   5.770
 3177POPC   C1A42447  23.815  36.718   6.309
 3177POPC   D2A42448  23.633  36.866   6.690
 3177POPC   C3A42449  23.849  36.840   7.069
 3177POPC   C4A42450  23.541  36.766   7.330
 3177POPC   C1B42451  23.599  37.251   6.183
 3177POPC   C2B42452  23.440  37.349   6.617
 3177POPC   C3B42453  23.532  37.252   7.046
 3177POPC   C4B42454  23.599  37.226   7.510
 3178POPC   NC342455  37.128   0.731   5.461
 3178POPC   PO442456  36.745   0.203   5.330
 3178POPC   GL142457  36.846   0.407   5.727
 3178POPC   GL242458  36.522   0.522   5.838
 3178POPC   C1A42459  36.885   0.541   6.178
 3178POPC   D2A42460  36.644   0.534   6.565
 3178POPC   C3A42461  36.823   0.644   6.983
 3178POPC   C4A42462  36.822   0.674   7.443
 3178POPC   C1B42463  36.603   0.114   6.079
 3178POPC   C2B42464  36.477   0.037   6.503
 3178POPC   C3B42465  36.645   0.125   6.886
 3178POPC   C4B42466  36.725  44.959   7.272
 3179POPC   NC342467  41.008   7.155   5.113
 3179POPC   PO442468  40.600   6.619   5.415
 3179POPC   GL142469  40.999   6.477   5.665
 3179POPC   GL242470  41.041   6.122   5.756
 3179POPC   C1A42471  41.068   6.551   6.095
 3179POPC   D2A42472  40.787   6.525   6.452
 3179POPC   C3A42473  40.858   6.778   6.796
 3179POPC   C4A42474  40.832   6.663   7.208
 3179POPC   C1B42475  40.686   6.176   6.061
 3179POPC   C2B42476  40.448   6.127   6.461
 3179POPC   C3B42477  40.610   6.246   6.883
 3179POPC   C4B42478  40.373   6.424   7.215
 3180POPC   NC342479  31.750  23.862   5.029
 3180POPC   PO442480  31.288  23.771   5.467
 3180POPC   GL142481  31.497  23.850   5.848
 3180POPC   GL242482  31.494  23.560   5.978
 3180POPC   C1A42483  31.342  23.980   6.242
 3180POPC   D2A42484  31.313  23.714   6.589
 3180POPC   C3A42485  31.405  23.932   6.950
 3180POPC   C4A42486  31.198  24.010   7.326
 3180POPC   C1B42487  31.747  23.645   6.312
 3180POPC   C2B42488  31.800  23.619   6.732
 3180POPC   C3B42489  31.868  23.459   7.112
 3180POPC   C4B42490  31.652  23.741   7.351
 3181POPC   NC342491  42.040  15.988   5.549
 3181POPC   PO442492  41.485  15.754   5.288
 3181POPC   GL142493  41.473  16.035   5.676
 3181POPC   GL242494  41.224  15.837   5.885
 3181POPC   C1A42495  41.628  16.094   6.110
 3181POPC   D2A42496  41.769  15.886   6.507
 3181POPC   C3A42497  41.848  16.168   6.857
 3181POPC   C4A42498  41.714  15.985   7.234
 3181POPC   C1B42499  41.259  15.571   6.252
 3181POPC   C2B42500  41.445  15.516   6.671
 3181POPC   C3B42501  41.400  15.555   7.111
 3181POPC   C4B42502  41.191  15.861   7.331
 3182POPC   NC342503  31.729  33.504   5.466
 3182POPC   PO442504  32.398  33.762   5.535
 3182POPC   GL142505  32.212  33.776   5.942
 3182POPC   GL242506  31.979  33.490   5.915
 3182POPC   C1A42507  32.226  33.915   6.382
 3182POPC   D2A42508  32.437  34.045   6.736
 3182POPC   C3A42509  32.120  33.994   7.059
 3182POPC   C4A42510  32.162  34.022   7.487
 3182POPC   C1B42511  32.136  33.418   6.328
 3182POPC   C2B42512  32.016  33.581   6.728
 3182POPC   C3B42513  31.852  33.372   7.084
 3182POPC   C4B42514  32.132  33.445   7.400
 3183POPC   NC342515   0.235  11.856   5.466
 3183POPC   PO442516   0.604  12.422   5.484
 3183POPC   GL142517   0.361  12.279   5.861
 3183POPC   GL242518   0.151  11.981   5.943
 3183POPC   C1A42519   0.396  12.187   6.315
 3183POPC   D2A42520   0.574  12.159   6.696
 3183POPC   C3A42521   0.466  12.418   7.020
 3183POPC   C4A42522   0.612  12.372   7.432
 3183POPC   C1B42523   0.339  11.657   6.222
 3183POPC   C2B42524   0.574  11.615   6.612
 3183POPC   C3B42525   0.504  11.767   7.040
 3183POPC   C4B42526   0.256  12.027   7.278
 3184POPC   NC342527  42.949  41.335   5.169
 3184POPC   PO442528  43.366  41.822   5.156
 3184POPC   GL142529  43.282  41.535   5.555
 3184POPC   GL242530  42.945  41.403   5.698
 3184POPC   C1A42531  43.383  41.516   6.012
 3184POPC   D2A42532  43.532  41.572   6.447
 3184POPC   C3A42533  43.333  41.529   6.824
 3184POPC   C4A42534  43.284  41.846   7.182
 3184POPC   C1B42535  42.896  41.658   6.082
 3184POPC   C2B42536  42.881  41.723   6.554
 3184POPC   C3B42537  42.863  41.603   6.999
 3184POPC   C4B42538  43.149  41.359   7.281
 3185POPC   NC342539  27.731  15.318   5.373
 3185POPC   PO442540  27.383  14.724   5.504
 3185POPC   GL142541  27.438  15.102   5.752
 3185POPC   GL242542  27.752  15.221   5.860
 3185POPC   C1A42543  27.337  15.230   6.167
 3185POPC   D2A42544  27.507  15.161   6.565
 3185POPC   C3A42545  27.289  15.306   6.894
 3185POPC   C4A42546  27.430  15.203   7.279
 3185POPC   C1B42547  27.791  15.462   6.221
 3185POPC   C2B42548  27.972  15.372   6.653
 3185POPC   C3B42549  27.919  15.228   7.112
 3185POPC   C4B42550  28.099  15.435   7.502
 3186POPC   NC342551  33.205  10.380   5.384
 3186POPC   PO442552  32.653  10.645   5.346
 3186POPC   GL142553  32.798  10.442   5.749
 3186POPC   GL242554  33.180  10.456   5.905
 3186POPC   C1A42555  32.773  10.334   6.187
 3186POPC   D2A42556  33.113  10.324   6.493
 3186POPC   C3A42557  32.895  10.387   6.874
 3186POPC   C4A42558  32.680  10.201   7.221
 3186POPC   C1B42559  33.203  10.776   6.281
 3186POPC   C2B42560  33.304  10.744   6.749
 3186POPC   C3B42561  33.181  10.639   7.201
 3186POPC   C4B42562  33.277  10.735   7.658
 3187POPC   NC342563   5.414  39.548   5.631
 3187POPC   PO442564   4.982  39.128   5.441
 3187POPC   GL142565   5.007  39.247   5.821
 3187POPC   GL242566   4.935  39.583   5.804
 3187POPC   C1A42567   4.981  38.959   6.144
 3187POPC   D2A42568   5.185  38.933   6.501
 3187POPC   C3A42569   5.051  39.207   6.812
 3187POPC   C4A42570   4.888  39.183   7.213
 3187POPC   C1B42571   5.023  39.546   6.272
 3187POPC   C2B42572   4.771  39.668   6.643
 3187POPC   C3B42573   4.946  39.663   7.058
 3187POPC   C4B42574   5.337  39.444   7.193
 3188POPC   NC342575   4.037  17.763   5.422
 3188POPC   PO442576   4.574  17.379   5.250
 3188POPC   GL142577   4.308  17.393   5.660
 3188POPC   GL242578   4.269  17.678   5.881
 3188POPC   C1A42579   4.230  17.214   6.068
 3188POPC   D2A42580   4.338  17.376   6.476
 3188POPC   C3A42581   4.122  17.267   6.845
 3188POPC   C4A42582   4.122  17.291   7.286
 3188POPC   C1B42583   4.525  17.809   6.253
 3188POPC   C2B42584   4.567  17.782   6.712
 3188POPC   C3B42585   4.610  17.466   7.038
 3188POPC   C4B42586   4.537  17.606   7.474
 3189POPC   NC342587  29.838  42.886   5.397
 3189POPC   PO442588  30.024  43.470   5.385
 3189POPC   GL142589  29.917  43.244   5.797
 3189POPC   GL242590  30.107  42.913   5.832
 3189POPC   C1A42591  29.993  43.143   6.270
 3189POPC   D2A42592  30.203  42.877   6.572
 3189POPC   C3A42593  30.173  43.130   6.928
 3189POPC   C4A42594  29.825  43.207   7.209
 3189POPC   C1B42595  29.671  42.827   6.027
 3189POPC   C2B42596  29.594  42.783   6.494
 3189POPC   C3B42597  29.781  42.787   6.905
 3189POPC   C4B42598  30.055  42.773   7.278
 3190POPC   NC342599  11.256  11.245   5.431
 3190POPC   PO442600  11.767  11.699   5.581
 3190POPC   GL142601  11.531  11.404   5.855
 3190POPC   GL242602  11.527  11.025   5.802
 3190POPC   C1A42603  11.369  11.435   6.298
 3190POPC   D2A42604  11.605  11.408   6.691
 3190POPC   C3A42605  11.481  11.670   7.033
 3190POPC   C4A42606  11.081  11.571   7.209
 3190POPC   C1B42607  11.176  10.975   6.091
 3190POPC   C2B42608  10.993  11.097   6.483
 3190POPC   C3B42609  11.147  11.199   6.871
 3190POPC   C4B42610  10.974  11.083   7.275
 3191POPC   NC342611  21.580  21.676   5.430
 3191POPC   PO442612  21.161  21.161   5.362
 3191POPC   GL142613  21.334  21.280   5.776
 3191POPC   GL242614  21.241  21.621   5.790
 3191POPC   C1A42615  21.513  21.213   6.241
 3191POPC   D2A42616  21.569  21.022   6.707
 3191POPC   C3A42617  21.409  21.237   7.099
 3191POPC   C4A42618  21.467  21.590   7.412
 3191POPC   C1B42619  21.268  21.804   6.157
 3191POPC   C2B42620  21.492  21.671   6.511
 3191POPC   C3B42621  21.439  21.712   6.928
 3191POPC   C4B42622  21.114  21.941   7.149
 3192POPC   NC342623  41.002  30.430   5.437
 3192POPC   PO442624  40.456  30.898   5.463
 3192POPC   GL142625  40.686  30.661   5.811
 3192POPC   GL242626  40.913  30.384   5.926
 3192POPC   C1A42627  40.697  30.724   6.268
 3192POPC   D2A42628  40.550  30.688   6.679
 3192POPC   C3A42629  40.775  30.853   7.047
 3192POPC   C4A42630  40.810  30.814   7.489
 3192POPC   C1B42631  41.086  30.387   6.329
 3192POPC   C2B42632  41.031  30.510   6.760
 3192POPC   C3B42633  41.114  30.435   7.217
 3192POPC   C4B42634  40.973  30.404   7.712
 3193POPC   NC342635  35.732   6.043   5.498
 3193POPC   PO442636  35.107   6.105   5.509
 3193POPC   GL142637  35.326   5.955   5.841
 3193POPC   GL242638  35.219   5.627   5.858
 3193POPC   C1A42639  35.354   5.924   6.274
 3193POPC   D2A42640  35.127   5.946   6.648
 3193POPC   C3A42641  35.318   6.040   7.041
 3193POPC   C4A42642  35.326   5.868   7.497
 3193POPC   C1B42643  34.976   5.570   6.220
 3193POPC   C2B42644  34.963   5.445   6.647
 3193POPC   C3B42645  34.942   5.642   7.048
 3193POPC   C4B42646  34.960   5.485   7.480
 3194POPC   NC342647  30.026  14.045   5.397
 3194POPC   PO442648  29.428  14.302   5.363
 3194POPC   GL142649  29.702  14.328   5.749
 3194POPC   GL242650  29.888  14.637   5.702
 3194POPC   C1A42651  29.868  14.182   6.161
 3194POPC   D2A42652  29.754  14.038   6.573
 3194POPC   C3A42653  29.833  14.258   6.941
 3194POPC   C4A42654  29.562  14.334   7.262
 3194POPC   C1B42655  30.072  14.731   6.097
 3194POPC   C2B42656  30.151  14.537   6.490
 3194POPC   C3B42657  30.280  14.552   6.940
 3194POPC   C4B42658  29.964  14.651   7.233
 3195POPC   NC342659  41.661   3.176   5.581
 3195POPC   PO442660  41.140   2.651   5.566
 3195POPC   GL142661  41.382   2.779   5.923
 3195POPC   GL242662  41.305   3.114   5.955
 3195POPC   C1A42663  41.683   2.563   6.205
 3195POPC   D2A42664  41.900   2.479   6.597
 3195POPC   C3A42665  41.742   2.617   6.991
 3195POPC   C4A42666  41.602   2.491   7.403
 3195POPC   C1B42667  41.542   3.040   6.359
 3195POPC   C2B42668  41.551   3.078   6.826
 3195POPC   C3B42669  41.484   2.981   7.272
 3195POPC   C4B42670  41.778   2.917   7.600
 3196POPC   NC342671  27.832  39.686   5.034
 3196POPC   PO442672  27.351  39.959   5.497
 3196POPC   GL142673  27.400  39.993   5.895
 3196POPC   GL242674  27.728  40.077   5.915
 3196POPC   C1A42675  27.480  39.823   6.289
 3196POPC   D2A42676  27.841  39.959   6.510
 3196POPC   C3A42677  27.761  40.018   6.895
 3196POPC   C4A42678  27.802  39.757   7.230
 3196POPC   C1B42679  27.600  40.328   6.255
 3196POPC   C2B42680  27.674  40.475   6.640
 3196POPC   C3B42681  27.447  40.405   7.043
 3196POPC   C4B42682  27.697  40.248   7.364
 3197POPC   NC342683  30.101  25.854   5.402
 3197POPC   PO442684  29.377  25.729   5.518
 3197POPC   GL142685  29.583  26.004   5.857
 3197POPC   GL242686  29.927  26.030   5.847
 3197POPC   C1A42687  29.694  26.138   6.304
 3197POPC   D2A42688  29.797  26.266   6.736
 3197POPC   C3A42689  29.905  25.877   6.944
 3197POPC   C4A42690  29.579  25.654   7.189
 3197POPC   C1B42691  30.148  26.277   6.115
 3197POPC   C2B42692  30.263  26.222   6.541
 3197POPC   C3B42693  30.241  26.504   6.918
 3197POPC   C4B42694  30.095  26.255   7.223
 3198POPC   NC342695  12.264   2.934   5.407
 3198POPC   PO442696  11.874   2.504   5.644
 3198POPC   GL142697  12.190   2.644   5.864
 3198POPC   GL242698  12.176   2.993   5.891
 3198POPC   C1A42699  12.132   2.689   6.287
 3198POPC   D2A42700  12.017   2.582   6.672
 3198POPC   C3A42701  12.250   2.754   6.969
 3198POPC   C4A42702  12.196   2.575   7.298
 3198POPC   C1B42703  11.746   2.964   6.070
 3198POPC   C2B42704  11.663   2.918   6.502
 3198POPC   C3B42705  11.800   3.016   6.916
 3198POPC   C4B42706  11.867   3.034   7.345
 3199POPC   NC342707   0.518  19.967   5.523
 3199POPC   PO442708   0.059  19.496   5.533
 3199POPC   GL142709   0.216  19.733   5.895
 3199POPC   GL242710   0.083  20.077   5.827
 3199POPC   C1A42711   0.575  19.839   6.191
 3199POPC   D2A42712   0.833  19.724   6.549
 3199POPC   C3A42713   0.678  19.824   6.963
 3199POPC   C4A42714   0.339  19.651   7.200
 3199POPC   C1B42715   0.112  20.065   6.287
 3199POPC   C2B42716   0.219  19.860   6.682
 3199POPC   C3B42717   0.183  20.103   7.066
 3199POPC   C4B42718   0.113  20.123   7.527
 3200POPC   NC342719  23.764   7.643   5.346
 3200POPC   PO442720  23.430   7.120   5.499
 3200POPC   GL142721  23.631   7.214   5.854
 3200POPC   GL242722  23.935   7.294   5.720
 3200POPC   C1A42723  23.668   7.292   6.291
 3200POPC   D2A42724  23.565   7.559   6.645
 3200POPC   C3A42725  23.542   7.377   7.053
 3200POPC   C4A42726  23.660   7.490   7.482
 3200POPC   C1B42727  24.121   7.475   6.083
 3200POPC   C2B42728  24.101   7.441   6.537
 3200POPC   C3B42729  24.013   7.577   6.957
 3200POPC   C4B42730  24.161   7.502   7.361
 3201POPC   NC342731  44.315   3.843   5.467
 3201POPC   PO442732  44.623   3.279   5.428
 3201POPC   GL142733  44.800   3.368   5.822
 3201POPC   GL242734  44.655   3.696   5.845
 3201POPC   C1A42735  44.938   3.308   6.221
 3201POPC   D2A42736   0.032   3.453   6.623
 3201POPC   C3A42737  44.684   3.584   6.841
 3201POPC   C4A42738  44.590   3.615   7.299
 3201POPC   C1B42739  44.817   3.818   6.266
 3201POPC   C2B42740  44.988   3.992   6.663
 3201POPC   C3B42741  44.948   3.923   7.106
 3201POPC   C4B42742   0.024   3.836   7.560
 3202POPC   NC342743  36.105  17.877   4.997
 3202POPC   PO442744  36.502  17.478   5.382
 3202POPC   GL142745  36.256  17.421   5.751
 3202POPC   GL242746  36.384  17.711   5.865
 3202POPC   C1A42747  36.111  17.375   6.196
 3202POPC   D2A42748  36.153  17.203   6.636
 3202POPC   C3A42749  35.821  17.327   6.880
 3202POPC   C4A42750  35.919  17.656   7.114
 3202POPC   C1B42751  36.433  17.928   6.248
 3202POPC   C2B42752  36.601  17.795   6.636
 3202POPC   C3B42753  36.436  17.553   6.971
 3202POPC   C4B42754  36.336  17.653   7.395
 3203POPC   NC342755   2.155  18.822   5.447
 3203POPC   PO442756   2.045  19.499   5.442
 3203POPC   GL142757   1.780  19.209   5.701
 3203POPC   GL242758   1.609  18.885   5.733
 3203POPC   C1A42759   1.802  19.190   6.151
 3203POPC   D2A42760   2.106  19.235   6.472
 3203POPC   C3A42761   2.092  19.117   6.914
 3203POPC   C4A42762   2.461  19.057   7.173
 3203POPC   C1B42763   1.773  18.694   6.145
 3203POPC   C2B42764   1.952  18.734   6.559
 3203POPC   C3B42765   1.836  18.674   6.975
 3203POPC   C4B42766   1.996  18.845   7.360
 3204POPC   NC342767   9.132  42.224   5.488
 3204POPC   PO442768   8.621  41.872   5.563
 3204POPC   GL142769   8.818  42.209   5.882
 3204POPC   GL242770   8.958  42.590   5.830
 3204POPC   C1A42771   9.065  42.323   6.263
 3204POPC   D2A42772   8.936  42.299   6.695
 3204POPC   C3A42773   9.217  42.476   7.000
 3204POPC   C4A42774   9.407  42.243   7.323
 3204POPC   C1B42775   8.716  42.703   6.247
 3204POPC   C2B42776   8.705  42.752   6.731
 3204POPC   C3B42777   8.712  42.485   7.145
 3204POPC   C4B42778   8.570  42.627   7.598
 3205POPC   NC342779  38.890  23.266   5.701
 3205POPC   PO442780  39.431  23.075   5.305
 3205POPC   GL142781  39.289  22.866   5.706
 3205POPC   GL242782  39.443  22.551   5.761
 3205POPC   C1A42783  39.164  22.859   6.157
 3205POPC   D2A42784  39.081  23.261   6.377
 3205POPC   C3A42785  39.113  23.190   6.826
 3205POPC   C4A42786  39.057  22.960   7.205
 3205POPC   C1B42787  39.518  22.473   6.208
 3205POPC   C2B42788  39.685  22.601   6.622
 3205POPC   C3B42789  39.648  22.481   7.047
 3205POPC   C4B42790  39.410  22.633   7.382
 3206POPC   NC342791  34.932   2.336   5.534
 3206POPC   PO442792  34.344   2.150   5.280
 3206POPC   GL142793  34.606   1.969   5.697
 3206POPC   GL242794  34.464   2.224   5.929
 3206POPC   C1A42795  34.793   1.943   6.172
 3206POPC   D2A42796  34.594   2.238   6.512
 3206POPC   C3A42797  34.574   2.058   6.965
 3206POPC   C4A42798  34.934   1.813   7.179
 3206POPC   C1B42799  34.300   1.879   6.228
 3206POPC   C2B42800  34.212   1.801   6.661
 3206POPC   C3B42801  34.177   1.811   7.105
 3206POPC   C4B42802  34.522   1.808   7.477
 3207POPC   NC342803  21.906   1.756   5.420
 3207POPC   PO442804  22.432   2.085   5.611
 3207POPC   GL142805  22.093   2.079   5.869
 3207POPC   GL242806  22.370   2.121   6.121
 3207POPC   C1A42807  21.908   2.025   6.274
 3207POPC   D2A42808  22.131   2.005   6.668
 3207POPC   C3A42809  21.954   2.062   7.099
 3207POPC   C4A42810  22.186   1.873   7.475
 3207POPC   C1B42811  22.605   1.795   6.241
 3207POPC   C2B42812  22.526   1.651   6.620
 3207POPC   C3B42813  22.476   1.849   7.021
 3207POPC   C4B42814  22.584   1.607   7.341
 3208POPC   NC342815  41.233  32.731   5.506
 3208POPC   PO442816  41.632  33.210   5.236
 3208POPC   GL142817  41.435  33.189   5.682
 3208POPC   GL242818  41.564  32.899   5.848
 3208POPC   C1A42819  41.460  33.251   6.173
 3208POPC   D2A42820  41.405  33.389   6.626
 3208POPC   C3A42821  41.284  33.052   6.837
 3208POPC   C4A42822  41.386  32.813   7.161
 3208POPC   C1B42823  41.794  32.783   6.181
 3208POPC   C2B42824  41.745  33.037   6.523
 3208POPC   C3B42825  41.821  33.114   6.920
 3208POPC   C4B42826  41.906  32.812   7.205
 3209POPC   NC342827  42.902  11.099   5.423
 3209POPC   PO442828  43.324  11.682   5.512
 3209POPC   GL142829  43.213  11.367   5.815
 3209POPC   GL242830  42.830  11.386   5.853
 3209POPC   C1A42831  43.296  11.016   6.107
 3209POPC   D2A42832  43.119  10.869   6.522
 3209POPC   C3A42833  43.011  11.162   6.891
 3209POPC   C4A42834  43.274  11.322   7.247
 3209POPC   C1B42835  42.986  11.362   6.305
 3209POPC   C2B42836  43.090  11.605   6.654
 3209POPC   C3B42837  42.904  11.703   7.015
 3209POPC   C4B42838  42.786  11.492   7.343
 3210POPC   NC342839  32.035  37.042   5.467
 3210POPC   PO442840  31.974  36.329   5.587
 3210POPC   GL142841  32.171  36.684   5.812
 3210POPC   GL242842  32.490  36.851   5.743
 3210POPC   C1A42843  32.060  36.954   6.172
 3210POPC   D2A42844  31.952  36.792   6.579
 3210POPC   C3A42845  32.060  37.051   6.930
 3210POPC   C4A42846  32.236  37.035   7.349
 3210POPC   C1B42847  32.557  36.766   6.205
 3210POPC   C2B42848  32.492  37.010   6.623
 3210POPC   C3B42849  32.503  37.326   7.000
 3210POPC   C4B42850  32.615  37.337   7.473
 3211POPC   NC342851  11.603  30.466   5.519
 3211POPC   PO442852  11.009  30.675   5.456
 3211POPC   GL142853  11.259  30.759   5.826
 3211POPC   GL242854  11.475  31.089   5.787
 3211POPC   C1A42855  11.270  30.547   6.232
 3211POPC   D2A42856  11.050  30.396   6.612
 3211POPC   C3A42857  11.094  30.654   6.995
 3211POPC   C4A42858  11.315  30.961   7.272
 3211POPC   C1B42859  11.478  31.013   6.227
 3211POPC   C2B42860  11.479  30.812   6.637
 3211POPC   C3B42861  11.724  30.922   6.976
 3211POPC   C4B42862  11.825  30.737   7.360
 3212POPC   NC342863  35.068  41.536   5.434
 3212POPC   PO442864  35.812  41.453   5.578
 3212POPC   GL142865  35.416  41.419   5.797
 3212POPC   GL242866  35.268  41.735   5.878
 3212POPC   C1A42867  35.187  41.332   6.197
 3212POPC   D2A42868  35.241  41.266   6.639
 3212POPC   C3A42869  35.373  41.412   7.025
 3212POPC   C4A42870  35.457  41.406   7.491
 3212POPC   C1B42871  35.587  41.685   6.227
 3212POPC   C2B42872  35.805  41.811   6.616
 3212POPC   C3B42873  35.713  41.784   7.039
 3212POPC   C4B42874  35.334  41.868   7.280
 3213POPC   NC342875  12.941  26.385   5.452
 3213POPC   PO442876  12.557  26.959   5.443
 3213POPC   GL142877  12.714  26.922   5.862
 3213POPC   GL242878  12.975  26.686   5.874
 3213POPC   C1A42879  12.643  26.809   6.289
 3213POPC   D2A42880  12.838  26.734   6.678
 3213POPC   C3A42881  12.548  26.792   7.015
 3213POPC   C4A42882  12.544  26.898   7.464
 3213POPC   C1B42883  13.150  26.820   6.248
 3213POPC   C2B42884  13.134  27.149   6.556
 3213POPC   C3B42885  13.022  27.100   6.999
 3213POPC   C4B42886  13.009  26.703   7.186
 3214POPC   NC342887  40.897   6.972   5.556
 3214POPC   PO442888  40.778   7.566   5.139
 3214POPC   GL142889  40.808   7.479   5.601
 3214POPC   GL242890  41.030   7.673   5.767
 3214POPC   C1A42891  40.698   7.285   6.053
 3214POPC   D2A42892  40.538   7.063   6.420
 3214POPC   C3A42893  40.631   7.289   6.792
 3214POPC   C4A42894  40.816   7.167   7.176
 3214POPC   C1B42895  40.960   7.685   6.227
 3214POPC   C2B42896  40.808   7.805   6.631
 3214POPC   C3B42897  40.904   7.670   7.039
 3214POPC   C4B42898  40.936   7.674   7.471
 3215POPC   NC342899  30.661   9.332   5.536
 3215POPC   PO442900  31.104   8.712   5.493
 3215POPC   GL142901  30.895   8.952   5.780
 3215POPC   GL242902  30.539   8.905   5.795
 3215POPC   C1A42903  30.825   9.077   6.194
 3215POPC   D2A42904  30.695   8.913   6.588
 3215POPC   C3A42905  30.748   9.185   6.903
 3215POPC   C4A42906  31.108   9.398   6.991
 3215POPC   C1B42907  30.308   9.091   6.159
 3215POPC   C2B42908  30.190   8.919   6.558
 3215POPC   C3B42909  30.352   8.844   6.988
 3215POPC   C4B42910  30.475   9.145   7.322
 3216POPC   NC342911  28.779  40.115   5.154
 3216POPC   PO442912  28.295  39.687   5.307
 3216POPC   GL142913  28.122  39.844   5.701
 3216POPC   GL242914  28.227  40.230   5.813
 3216POPC   C1A42915  28.163  39.856   6.140
 3216POPC   D2A42916  28.394  39.904   6.492
 3216POPC   C3A42917  28.239  40.220   6.740
 3216POPC   C4A42918  28.197  40.087   7.134
 3216POPC   C1B42919  28.546  40.296   6.189
 3216POPC   C2B42920  28.769  40.247   6.601
 3216POPC   C3B42921  28.702  40.081   7.010
 3216POPC   C4B42922  28.600  40.175   7.453
 3217POPC   NC342923  33.050  16.144   5.148
 3217POPC   PO442924  32.684  15.549   5.245
 3217POPC   GL142925  32.695  15.873   5.626
 3217POPC   GL242926  33.038  16.006   5.677
 3217POPC   C1A42927  32.650  16.031   6.084
 3217POPC   D2A42928  32.556  15.842   6.491
 3217POPC   C3A42929  32.515  15.880   6.955
 3217POPC   C4A42930  32.727  16.162   7.256
 3217POPC   C1B42931  33.144  15.940   6.115
 3217POPC   C2B42932  32.995  16.109   6.504
 3217POPC   C3B42933  33.043  15.939   6.905
 3217POPC   C4B42934  33.266  16.068   7.279
 3218POPC   NC342935  19.354  33.716   5.552
 3218POPC   PO442936  19.988  33.617   5.355
 3218POPC   GL142937  19.825  33.627   5.818
 3218POPC   GL242938  19.732  33.975   5.851
 3218POPC   C1A42939  19.766  33.739   6.308
 3218POPC   D2A42940  19.792  33.835   6.774
 3218POPC   C3A42941  20.072  33.661   7.019
 3218POPC   C4A42942  20.179  33.246   7.131
 3218POPC   C1B42943  19.952  34.205   6.192
 3218POPC   C2B42944  20.010  34.390   6.625
 3218POPC   C3B42945  19.913  34.266   7.062
 3218POPC   C4B42946  19.677  33.934   7.284
 3219POPC   NC342947  41.080  43.988   5.358
 3219POPC   PO442948  40.466  43.839   5.342
 3219POPC   GL142949  40.563  43.999   5.772
 3219POPC   GL242950  40.744  43.693   5.794
 3219POPC   C1A42951  40.823  43.996   6.207
 3219POPC   D2A42952  41.202  43.872   6.493
 3219POPC   C3A42953  41.144  43.872   6.949
 3219POPC   C4A42954  40.744  43.883   7.122
 3219POPC   C1B42955  40.697  43.487   6.202
 3219POPC   C2B42956  40.806  43.584   6.645
 3219POPC   C3B42957  40.711  43.376   7.024
 3219POPC   C4B42958  40.413  43.359   7.365
 3220POPC   NC342959  39.388   7.883   5.169
 3220POPC   PO442960  39.214   8.461   5.498
 3220POPC   GL142961  39.355   8.373   5.878
 3220POPC   GL242962  39.468   8.026   5.844
 3220POPC   C1A42963  39.281   8.340   6.326
 3220POPC   D2A42964  39.083   7.998   6.605
 3220POPC   C3A42965  39.188   8.077   7.041
 3220POPC   C4A42966  39.084   8.519   7.207
 3220POPC   C1B42967  39.495   7.888   6.264
 3220POPC   C2B42968  39.589   8.065   6.668
 3220POPC   C3B42969  39.703   8.075   7.111
 3220POPC   C4B42970  39.511   7.890   7.497
 3221POPC   NC342971  24.122  41.731   5.543
 3221POPC   PO442972  24.601  41.289   5.425
 3221POPC   GL142973  24.639  41.460   5.832
 3221POPC   GL242974  24.556  41.825   5.824
 3221POPC   C1A42975  24.482  41.292   6.248
 3221POPC   D2A42976  24.168  41.377   6.577
 3221POPC   C3A42977  24.398  41.440   6.943
 3221POPC   C4A42978  24.743  41.320   7.226
 3221POPC   C1B42979  24.295  41.760   6.189
 3221POPC   C2B42980  24.191  41.892   6.595
 3221POPC   C3B42981  24.366  41.961   6.984
 3221POPC   C4B42982  24.540  42.175   7.339
 3222POPC   NC342983  10.152  19.899   5.462
 3222POPC   PO442984  10.766  19.741   5.347
 3222POPC   GL142985  10.580  19.716   5.768
 3222POPC   GL242986  10.358  19.976   5.918
 3222POPC   C1A42987  10.638  19.644   6.207
 3222POPC   D2A42988  10.287  19.638   6.467
 3222POPC   C3A42989  10.352  19.750   6.857
 3222POPC   C4A42990  10.426  19.508   7.219
 3222POPC   C1B42991  10.444  20.106   6.338
 3222POPC   C2B42992  10.420  20.282   6.716
 3222POPC   C3B42993  10.244  20.216   7.087
 3222POPC   C4B42994  10.607  20.040   7.201
 3223POPC   NC342995  44.777  31.951   5.451
 3223POPC   PO442996  44.937  32.594   5.618
 3223POPC   GL142997  44.682  32.316   5.903
 3223POPC   GL242998  44.536  31.973   5.906
 3223POPC   C1A42999  44.632  32.241   6.343
 3223POPC   D2A43000  44.707  31.903   6.651
 3223POPC   C3A43001  44.602  32.112   7.046
 3223POPC   C4A43002  44.544  32.483   7.298
 3223POPC   C1B43003  44.922  31.869   6.162
 3223POPC   C2B43004   0.227  31.900   6.549
 3223POPC   C3B43005   0.084  31.898   7.020
 3223POPC   C4B43006  44.759  31.749   7.349
 3224POPC   NC343007   8.072   0.094   5.417
 3224POPC   PO443008   8.387   0.733   5.474
 3224POPC   GL143009   8.099   0.546   5.750
 3224POPC   GL243010   8.334   0.298   5.819
 3224POPC   C1A43011   7.990   0.432   6.192
 3224POPC   D2A43012   8.149   0.405   6.613
 3224POPC   C3A43013   7.935   0.380   6.987
 3224POPC   C4A43014   7.973   0.620   7.324
 3224POPC   C1B43015   8.384   0.110   6.227
 3224POPC   C2B43016   8.594   0.172   6.647
 3224POPC   C3B43017   8.329   0.061   6.987
 3224POPC   C4B43018   8.244   0.195   7.388
 3225POPC   NC343019   3.117  19.271   5.390
 3225POPC   PO443020   2.617  18.732   5.465
 3225POPC   GL143021   2.728  19.068   5.757
 3225POPC   GL243022   3.075  18.995   5.838
 3225POPC   C1A43023   2.575  19.199   6.192
 3225POPC   D2A43024   2.562  19.016   6.619
 3225POPC   C3A43025   2.900  19.175   6.866
 3225POPC   C4A43026   2.897  19.346   7.257
 3225POPC   C1B43027   2.860  18.756   6.165
 3225POPC   C2B43028   2.977  18.672   6.571
 3225POPC   C3B43029   2.828  18.678   6.965
 3225POPC   C4B43030   3.075  18.567   7.283
 3226POPC   NC343031  34.604  36.586   5.495
 3226POPC   PO443032  34.039  36.854   5.599
 3226POPC   GL143033  34.375  36.774   5.897
 3226POPC   GL243034  34.611  37.040   5.789
 3226POPC   C1A43035  34.611  36.788   6.314
 3226POPC   D2A43036  34.456  36.742   6.749
 3226POPC   C3A43037  34.690  36.863   7.125
 3226POPC   C4A43038  34.614  36.814   7.576
 3226POPC   C1B43039  34.360  37.207   6.149
 3226POPC   C2B43040  34.516  37.280   6.550
 3226POPC   C3B43041  34.358  37.223   6.944
 3226POPC   C4B43042  34.246  37.074   7.357
 3227POPC   NC343043  43.113  25.801   5.403
 3227POPC   PO443044  43.312  26.502   5.503
 3227POPC   GL143045  42.988  26.398   5.824
 3227POPC   GL243046  42.879  26.074   5.780
 3227POPC   C1A43047  43.047  26.261   6.237
 3227POPC   D2A43048  43.181  26.430   6.598
 3227POPC   C3A43049  42.964  26.255   6.913
 3227POPC   C4A43050  43.057  25.986   7.250
 3227POPC   C1B43051  42.675  25.949   6.104
 3227POPC   C2B43052  42.653  26.008   6.531
 3227POPC   C3B43053  42.713  25.809   6.931
 3227POPC   C4B43054  42.666  25.580   7.315
 3228POPC   NC343055  23.626  40.561   4.961
 3228POPC   PO443056  24.031  40.655   5.445
 3228POPC   GL143057  23.862  40.511   5.815
 3228POPC   GL243058  23.517  40.529   5.723
 3228POPC   C1A43059  23.862  40.705   6.229
 3228POPC   D2A43060  23.533  40.895   6.496
 3228POPC   C3A43061  23.707  41.025   6.904
 3228POPC   C4A43062  23.504  40.982   7.284
 3228POPC   C1B43063  23.426  40.443   6.129
 3228POPC   C2B43064  23.605  40.350   6.486
 3228POPC   C3B43065  23.559  40.539   6.866
 3228POPC   C4B43066  23.227  40.558   7.136
 3229POPC   NC343067   3.367  17.036   5.575
 3229POPC   PO443068   2.720  16.725   5.533
 3229POPC   GL143069   2.785  16.976   5.861
 3229POPC   GL243070   3.065  16.802   5.932
 3229POPC   C1A43071   2.681  16.835   6.282
 3229POPC   D2A43072   2.717  16.612   6.680
 3229POPC   C3A43073   2.579  16.760   7.089
 3229POPC   C4A43074   2.773  16.953   7.454
 3229POPC   C1B43075   3.257  16.963   6.286
 3229POPC   C2B43076   3.377  16.954   6.694
 3229POPC   C3B43077   3.117  16.869   7.076
 3229POPC   C4B43078   3.104  16.582   7.466
 3230POPC   NC343079   9.836  27.157   5.349
 3230POPC   PO443080  10.102  27.790   5.381
 3230POPC   GL143081   9.864  27.696   5.761
 3230POPC   GL243082  10.013  27.441   5.780
 3230POPC   C1A43083   9.581  27.720   6.118
 3230POPC   D2A43084   9.389  27.628   6.520
 3230POPC   C3A43085   9.644  27.661   6.905
 3230POPC   C4A43086   9.841  27.809   7.295
 3230POPC   C1B43087   9.924  27.345   6.198
 3230POPC   C2B43088  10.056  27.243   6.605
 3230POPC   C3B43089  10.018  27.354   7.020
 3230POPC   C4B43090   9.920  27.320   7.437
 3231POPC   NC343091  37.903  10.836   5.537
 3231POPC   PO443092  37.416  10.418   5.225
 3231POPC   GL143093  37.626  10.363   5.687
 3231POPC   GL243094  37.980  10.356   5.842
 3231POPC   C1A43095  37.589  10.408   6.167
 3231POPC   D2A43096  37.832  10.312   6.537
 3231POPC   C3A43097  37.736  10.467   6.968
 3231POPC   C4A43098  37.877  10.290   7.379
 3231POPC   C1B43099  38.020  10.709   6.153
 3231POPC   C2B43100  37.809  10.896   6.487
 3231POPC   C3B43101  37.852  10.990   6.908
 3231POPC   C4B43102  37.949  10.803   7.302
 3232POPC   NC343103   9.209  44.565   5.434
 3232POPC   PO443104   8.526  44.901   5.359
 3232POPC   GL143105   8.791  44.737   5.682
 3232POPC   GL243106   8.778   0.030   5.833
 3232POPC   C1A43107   9.052  44.627   6.081
 3232POPC   D2A43108   8.937  44.389   6.467
 3232POPC   C3A43109   9.108  44.489   6.885
 3232POPC   C4A43110   8.922  44.361   7.297
 3232POPC   C1B43111   8.899   0.106   6.231
 3232POPC   C2B43112   9.124  44.914   6.559
 3232POPC   C3B43113   9.051   0.019   6.980
 3232POPC   C4B43114   8.746   0.093   7.279
 3233POPC   NC343115  13.764   2.647   5.446
 3233POPC   PO443116  13.336   3.180   5.392
 3233POPC   GL143117  13.483   2.942   5.790
 3233POPC   GL243118  13.426   2.538   5.787
 3233POPC   C1A43119  13.517   2.759   6.233
 3233POPC   D2A43120  13.830   2.633   6.528
 3233POPC   C3A43121  13.727   2.805   6.913
 3233POPC   C4A43122  13.562   2.946   7.295
 3233POPC   C1B43123  13.140   2.399   6.090
 3233POPC   C2B43124  13.045   2.512   6.496
 3233POPC   C3B43125  13.267   2.575   6.884
 3233POPC   C4B43126  13.119   2.671   7.294
 3234POPC   NC343127   0.114  42.112   5.084
 3234POPC   PO443128  44.711  42.535   5.480
 3234POPC   GL143129  44.783  42.519   5.910
 3234POPC   GL243130  44.422  42.420   5.892
 3234POPC   C1A43131  44.940  42.576   6.359
 3234POPC   D2A43132  44.847  42.810   6.755
 3234POPC   C3A43133  44.818  42.590   7.173
 3234POPC   C4A43134  44.795  42.636   7.635
 3234POPC   C1B43135  44.468  42.369   6.306
 3234POPC   C2B43136  44.677  42.226   6.671
 3234POPC   C3B43137  44.418  42.262   7.016
 3234POPC   C4B43138  44.363  42.417   7.405
 3235POPC   NC343139  26.181  24.775   5.093
 3235POPC   PO443140  25.946  24.135   5.279
 3235POPC   GL143141  26.194  24.382   5.641
 3235POPC   GL243142  26.492  24.578   5.721
 3235POPC   C1A43143  26.122  24.545   6.082
 3235POPC   D2A43144  25.998  24.504   6.522
 3235POPC   C3A43145  26.076  24.463   6.968
 3235POPC   C4A43146  25.704  24.222   7.165
 3235POPC   C1B43147  26.539  24.831   6.105
 3235POPC   C2B43148  26.204  24.971   6.430
 3235POPC   C3B43149  26.144  25.002   6.897
 3235POPC   C4B43150  26.285  24.827   7.299
 3236POPC   NC343151  33.318  18.878   5.309
 3236POPC   PO443152  32.655  19.110   5.465
 3236POPC   GL143153  32.839  19.002   5.879
 3236POPC   GL243154  33.205  18.953   5.853
 3236POPC   C1A43155  32.705  19.116   6.319
 3236POPC   D2A43156  32.481  19.001   6.710
 3236POPC   C3A43157  32.655  19.144   7.123
 3236POPC   C4A43158  32.731  18.858   7.471
 3236POPC   C1B43159  33.196  19.243   6.252
 3236POPC   C2B43160  33.058  19.237   6.721
 3236POPC   C3B43161  33.140  18.999   7.120
 3236POPC   C4B43162  33.192  19.028   7.565
 3237POPC   NC343163  30.210   9.410   5.133
 3237POPC   PO443164  29.636   9.679   5.264
 3237POPC   GL143165  29.732   9.674   5.732
 3237POPC   GL243166  30.093   9.743   5.830
 3237POPC   C1A43167  29.682   9.799   6.173
 3237POPC   D2A43168  29.581   9.901   6.612
 3237POPC   C3A43169  29.765   9.698   6.984
 3237POPC   C4A43170  30.206   9.715   7.114
 3237POPC   C1B43171  30.194   9.801   6.277
 3237POPC   C2B43172  30.104   9.981   6.687
 3237POPC   C3B43173  29.937  10.178   7.081
 3237POPC   C4B43174  30.042  10.306   7.486
 3238POPC   NC343175  28.827  32.976   5.201
 3238POPC   PO443176  28.163  32.895   5.424
 3238POPC   GL143177  28.223  32.949   5.876
 3238POPC   GL243178  28.118  33.283   5.963
 3238POPC   C1A43179  28.400  32.762   6.255
 3238POPC   D2A43180  28.603  32.888   6.618
 3238POPC   C3A43181  28.340  33.071   6.886
 3238POPC   C4A43182  28.459  33.097   7.298
 3238POPC   C1B43183  28.502  33.254   6.235
 3238POPC   C2B43184  28.594  33.424   6.606
 3238POPC   C3B43185  28.799  33.300   6.958
 3238POPC   C4B43186  28.751  33.510   7.303
 3239POPC   NC343187  27.713   9.214   5.265
 3239POPC   PO443188  27.578   8.513   5.403
 3239POPC   GL143189  27.727   8.814   5.695
 3239POPC   GL243190  27.648   9.179   5.787
 3239POPC   C1A43191  27.768   8.798   6.147
 3239POPC   D2A43192  27.494   8.897   6.485
 3239POPC   C3A43193  27.643   8.797   6.898
 3239POPC   C4A43194  27.709   8.938   7.310
 3239POPC   C1B43195  27.669   9.328   6.237
 3239POPC   C2B43196  27.772   9.290   6.685
 3239POPC   C3B43197  27.500   9.308   7.010
 3239POPC   C4B43198  27.481   9.358   7.445
 3240POPC   NC343199  12.388  35.669   5.287
 3240POPC   PO443200  11.922  35.204   5.313
 3240POPC   GL143201  11.919  35.341   5.720
 3240POPC   GL243202  12.073  35.629   5.690
 3240POPC   C1A43203  11.863  35.355   6.155
 3240POPC   D2A43204  11.682  35.258   6.554
 3240POPC   C3A43205  11.947  35.010   6.853
 3240POPC   C4A43206  12.060  35.219   7.220
 3240POPC   C1B43207  12.130  35.822   6.098
 3240POPC   C2B43208  12.325  35.806   6.502
 3240POPC   C3B43209  12.276  35.642   6.907
 3240POPC   C4B43210  12.200  35.694   7.329
 3241POPC   NC343211  27.407  40.412   5.574
 3241POPC   PO443212  27.799  40.919   5.408
 3241POPC   GL143213  27.545  40.850   5.795
 3241POPC   GL243214  27.757  40.599   5.883
 3241POPC   C1A43215  27.292  40.733   6.211
 3241POPC   D2A43216  27.245  40.730   6.686
 3241POPC   C3A43217  27.444  40.913   7.073
 3241POPC   C4A43218  27.367  40.795   7.512
 3241POPC   C1B43219  27.779  40.899   6.244
 3241POPC   C2B43220  27.709  41.024   6.654
 3241POPC   C3B43221  27.868  41.188   7.052
 3241POPC   C4B43222  27.833  41.013   7.429
 3242POPC   NC343223  35.977   8.740   5.308
 3242POPC   PO443224  36.347   9.289   5.413
 3242POPC   GL143225  36.319   8.908   5.685
 3242POPC   GL243226  36.016   8.846   5.815
 3242POPC   C1A43227  36.404   8.766   6.138
 3242POPC   D2A43228  36.180   8.771   6.546
 3242POPC   C3A43229  36.343   8.682   6.935
 3242POPC   C4A43230  36.323   9.015   7.234
 3242POPC   C1B43231  35.918   8.584   6.162
 3242POPC   C2B43232  35.713   8.598   6.587
 3242POPC   C3B43233  35.795   8.865   6.951
 3242POPC   C4B43234  35.972   8.678   7.314
 3243POPC   NC343235  34.743  17.717   5.318
 3243POPC   PO443236  34.312  17.364   5.576
 3243POPC   GL143237  34.594  17.507   5.799
 3243POPC   GL243238  34.826  17.288   5.657
 3243POPC   C1A43239  34.494  17.482   6.225
 3243POPC   D2A43240  34.489  17.716   6.592
 3243POPC   C3A43241  34.439  17.442   6.921
 3243POPC   C4A43242  34.451  17.648   7.283
 3243POPC   C1B43243  34.966  17.320   6.096
 3243POPC   C2B43244  34.866  17.321   6.547
 3243POPC   C3B43245  34.891  17.188   6.986
 3243POPC   C4B43246  34.979  17.473   7.310
 3244POPC   NC343247  38.458   7.516   5.194
 3244POPC   PO443248  38.023   7.165   5.615
 3244POPC   GL143249  38.413   7.167   5.778
 3244POPC   GL243250  38.491   7.530   5.731
 3244POPC   C1A43251  38.514   7.184   6.224
 3244POPC   D2A43252  38.279   7.344   6.602
 3244POPC   C3A43253  38.480   7.322   7.012
 3244POPC   C4A43254  38.763   7.242   7.362
 3244POPC   C1B43255  38.527   7.705   6.157
 3244POPC   C2B43256  38.569   7.931   6.537
 3244POPC   C3B43257  38.451   7.866   6.943
 3244POPC   C4B43258  38.615   7.750   7.306
 3245POPC   NC343259  13.870  18.653   5.450
 3245POPC   PO443260  13.470  18.112   5.470
 3245POPC   GL143261  13.623  18.326   5.829
 3245POPC   GL243262  13.462  18.676   5.804
 3245POPC   C1A43263  13.902  18.228   6.189
 3245POPC   D2A43264  13.928  18.085   6.647
 3245POPC   C3A43265  13.803  18.391   6.995
 3245POPC   C4A43266  13.693  18.280   7.415
 3245POPC   C1B43267  13.545  18.645   6.241
 3245POPC   C2B43268  13.498  18.355   6.571
 3245POPC   C3B43269  13.293  18.398   6.951
 3245POPC   C4B43270  13.321  18.612   7.301
 3246POPC   NC343271  28.138  13.597   5.294
 3246POPC   PO443272  27.488  13.775   5.206
 3246POPC   GL143273  27.673  13.583   5.588
 3246POPC   GL243274  27.445  13.802   5.775
 3246POPC   C1A43275  27.654  13.425   6.044
 3246POPC   D2A43276  27.508  13.206   6.439
 3246POPC   C3A43277  27.529  13.421   6.853
 3246POPC   C4A43278  27.854  13.582   7.141
 3246POPC   C1B43279  27.354  13.806   6.247
 3246POPC   C2B43280  27.522  13.897   6.680
 3246POPC   C3B43281  27.427  13.856   7.121
 3246POPC   C4B43282  27.637  13.891   7.533
 3247POPC   NC343283  27.132  25.409   5.379
 3247POPC   PO443284  26.470  24.980   5.408
 3247POPC   GL143285  26.646  25.264   5.769
 3247POPC   GL243286  26.990  25.369   5.863
 3247POPC   C1A43287  26.604  25.309   6.236
 3247POPC   D2A43288  26.588  25.189   6.667
 3247POPC   C3A43289  26.802  25.416   6.965
 3247POPC   C4A43290  26.601  25.205   7.251
 3247POPC   C1B43291  27.035  25.056   6.172
 3247POPC   C2B43292  27.082  25.142   6.607
 3247POPC   C3B43293  26.986  24.948   7.015
 3247POPC   C4B43294  27.243  24.848   7.376
 3248POPC   NC343295  30.014   5.958   5.443
 3248POPC   PO443296  29.284   5.814   5.435
 3248POPC   GL143297  29.595   6.050   5.745
 3248POPC   GL243298  29.801   5.807   5.901
 3248POPC   C1A43299  29.863   6.221   6.147
 3248POPC   D2A43300  30.088   6.098   6.549
 3248POPC   C3A43301  29.878   6.182   6.944
 3248POPC   C4A43302  30.058   6.119   7.312
 3248POPC   C1B43303  29.883   5.673   6.324
 3248POPC   C2B43304  29.681   5.518   6.715
 3248POPC   C3B43305  29.701   5.672   7.149
 3248POPC   C4B43306  29.470   5.660   7.524
 3249POPC   NC343307  26.772  37.215   5.601
 3249POPC   PO443308  27.013  36.638   5.385
 3249POPC   GL143309  27.077  36.780   5.802
 3249POPC   GL243310  26.772  36.922   6.024
 3249POPC   C1A43311  27.113  36.602   6.219
 3249POPC   D2A43312  27.042  36.947   6.479
 3249POPC   C3A43313  26.809  36.987   6.825
 3249POPC   C4A43314  26.916  36.787   7.189
 3249POPC   C1B43315  26.701  37.323   6.282
 3249POPC   C2B43316  26.575  37.442   6.703
 3249POPC   C3B43317  26.465  37.249   7.082
 3249POPC   C4B43318  26.804  37.279   7.326
 3250POPC   NC343319  31.495  19.959   5.307
 3250POPC   PO443320  31.982  19.554   5.108
 3250POPC   GL143321  31.802  19.582   5.579
 3250POPC   GL243322  31.807  19.918   5.712
 3250POPC   C1A43323  31.542  19.601   6.027
 3250POPC   D2A43324  31.634  19.566   6.513
 3250POPC   C3A43325  31.384  19.687   6.920
 3250POPC   C4A43326  31.147  19.996   7.213
 3250POPC   C1B43327  31.673  20.094   6.114
 3250POPC   C2B43328  31.739  20.137   6.558
 3250POPC   C3B43329  31.628  20.139   6.994
 3250POPC   C4B43330  31.627  19.939   7.370
 3251POPC   NC343331   6.525  12.393   5.638
 3251POPC   PO443332   6.863  12.849   5.495
 3251POPC   GL143333   6.784  12.771   5.947
 3251POPC   GL243334   6.445  12.842   5.915
 3251POPC   C1A43335   6.679  12.598   6.403
 3251POPC   D2A43336   6.659  12.568   6.879
 3251POPC   C3A43337   6.797  12.825   7.229
 3251POPC   C4A43338   6.831  12.751   7.689
 3251POPC   C1B43339   6.561  13.082   6.296
 3251POPC   C2B43340   6.392  12.974   6.690
 3251POPC   C3B43341   6.307  12.905   7.109
 3251POPC   C4B43342   6.486  13.119   7.506
 3252POPC   NC343343  14.762  30.838   5.488
 3252POPC   PO443344  15.324  30.386   5.524
 3252POPC   GL143345  15.220  30.729   5.771
 3252POPC   GL243346  15.491  30.935   5.756
 3252POPC   C1A43347  14.987  30.842   6.126
 3252POPC   D2A43348  15.008  30.742   6.544
 3252POPC   C3A43349  15.079  31.001   6.879
 3252POPC   C4A43350  15.082  30.872   7.299
 3252POPC   C1B43351  15.476  30.862   6.225
 3252POPC   C2B43352  15.492  30.717   6.671
 3252POPC   C3B43353  15.552  30.845   7.104
 3252POPC   C4B43354  15.510  30.981   7.558
 3253POPC   NC343355  19.509   4.052   5.384
 3253POPC   PO443356  20.149   4.258   5.354
 3253POPC   GL143357  19.802   4.400   5.702
 3253POPC   GL243358  19.957   4.200   5.941
 3253POPC   C1A43359  19.691   4.574   6.153
 3253POPC   D2A43360  19.923   4.365   6.536
 3253POPC   C3A43361  19.953   4.554   6.965
 3253POPC   C4A43362  19.618   4.559   7.263
 3253POPC   C1B43363  19.624   4.065   6.219
 3253POPC   C2B43364  19.659   3.899   6.639
 3253POPC   C3B43365  19.657   4.121   7.016
 3253POPC   C4B43366  19.773   4.103   7.454
 3254POPC   NC343367  40.328  11.177   5.610
 3254POPC   PO443368  39.757  11.127   5.332
 3254POPC   GL143369  39.852  11.218   5.786
 3254POPC   GL243370  39.877  11.580   5.847
 3254POPC   C1A43371  39.925  11.091   6.220
 3254POPC   D2A43372  40.149  11.242   6.598
 3254POPC   C3A43373  39.920  11.351   6.981
 3254POPC   C4A43374  39.816  11.012   7.246
 3254POPC   C1B43375  40.234  11.514   6.159
 3254POPC   C2B43376  40.498  11.723   6.486
 3254POPC   C3B43377  40.368  11.583   6.932
 3254POPC   C4B43378  40.250  11.553   7.406
 3255POPC   NC343379  21.759   9.326   5.361
 3255POPC   PO443380  21.365   8.857   5.383
 3255POPC   GL143381  21.287   9.144   5.745
 3255POPC   GL243382  21.069   8.940   6.008
 3255POPC   C1A43383  21.372   9.295   6.192
 3255POPC   D2A43384  21.200   9.001   6.539
 3255POPC   C3A43385  21.107   8.943   6.985
 3255POPC   C4A43386  21.344   9.151   7.279
 3255POPC   C1B43387  21.434   8.733   6.169
 3255POPC   C2B43388  21.503   8.541   6.584
 3255POPC   C3B43389  21.568   8.735   6.998
 3255POPC   C4B43390  21.391   8.659   7.420
 3256POPC   NC343391  44.276  30.059   4.993
 3256POPC   PO443392  43.833  29.965   5.408
 3256POPC   GL143393  43.932  29.872   5.796
 3256POPC   GL243394  43.719  29.608   5.845
 3256POPC   C1A43395  44.108  30.032   6.165
 3256POPC   D2A43396  44.149  29.869   6.564
 3256POPC   C3A43397  44.112  30.193   6.861
 3256POPC   C4A43398  44.209  30.356   7.245
 3256POPC   C1B43399  43.694  29.719   6.291
 3256POPC   C2B43400  43.683  29.743   6.758
 3256POPC   C3B43401  43.642  29.646   7.195
 3256POPC   C4B43402  43.687  29.814   7.605
 3257POPC   NC343403   7.711  35.152   5.526
 3257POPC   PO443404   7.259  35.586   5.369
 3257POPC   GL143405   7.397  35.472   5.780
 3257POPC   GL243406   7.592  35.726   5.893
 3257POPC   C1A43407   7.421  35.293   6.205
 3257POPC   D2A43408   7.186  35.321   6.575
 3257POPC   C3A43409   7.018  35.136   6.920
 3257POPC   C4A43410   7.030  35.370   7.292
 3257POPC   C1B43411   7.750  35.699   6.307
 3257POPC   C2B43412   7.719  35.394   6.632
 3257POPC   C3B43413   7.489  35.390   7.023
 3257POPC   C4B43414   7.655  35.288   7.423
 3258POPC   NC343415  26.970  23.731   5.442
 3258POPC   PO443416  26.343  23.383   5.530
 3258POPC   GL143417  26.632  23.637   5.845
 3258POPC   GL243418  26.977  23.653   5.949
 3258POPC   C1A43419  26.659  23.857   6.286
 3258POPC   D2A43420  26.876  24.057   6.670
 3258POPC   C3A43421  26.713  23.896   7.053
 3258POPC   C4A43422  26.407  23.539   7.137
 3258POPC   C1B43423  27.102  23.661   6.402
 3258POPC   C2B43424  27.405  23.954   6.619
 3258POPC   C3B43425  27.305  24.016   7.031
 3258POPC   C4B43426  27.144  23.642   7.151
 3259POPC   NC343427  34.667   0.816   5.509
 3259POPC   PO443428  34.376   0.207   5.578
 3259POPC   GL143429  34.502   0.494   5.869
 3259POPC   GL243430  34.235   0.723   5.775
 3259POPC   C1A43431  34.819   0.575   6.160
 3259POPC   D2A43432  34.917   0.431   6.570
 3259POPC   C3A43433  34.683   0.602   6.903
 3259POPC   C4A43434  34.846   0.494   7.310
 3259POPC   C1B43435  34.402   0.947   6.139
 3259POPC   C2B43436  34.296   0.887   6.575
 3259POPC   C3B43437  34.283   0.996   7.006
 3259POPC   C4B43438  34.364   0.681   7.317
 3260POPC   NC343439  29.232  27.117   5.186
 3260POPC   PO443440  29.493  27.608   5.580
 3260POPC   GL143441  29.360  27.729   5.912
 3260POPC   GL243442  29.557  28.036   5.902
 3260POPC   C1A43443  29.063  27.713   6.259
 3260POPC   D2A43444  28.889  27.539   6.653
 3260POPC   C3A43445  29.137  27.665   6.991
 3260POPC   C4A43446  29.525  27.529   7.162
 3260POPC   C1B43447  29.520  27.977   6.308
 3260POPC   C2B43448  29.272  28.038   6.634
 3260POPC   C3B43449  29.518  28.014   6.972
 3260POPC   C4B43450  29.412  27.971   7.390
 3261POPC   NC343451  31.589   4.084   5.210
 3261POPC   PO443452  31.055   4.444   5.391
 3261POPC   GL143453  31.291   4.232   5.746
 3261POPC   GL243454  31.600   3.987   5.706
 3261POPC   C1A43455  31.185   4.200   6.204
 3261POPC   D2A43456  31.266   4.037   6.632
 3261POPC   C3A43457  31.237   4.202   7.073
 3261POPC   C4A43458  31.254   4.335   7.557
 3261POPC   C1B43459  31.731   4.239   6.044
 3261POPC   C2B43460  31.620   4.355   6.444
 3261POPC   C3B43461  31.706   4.201   6.851
 3261POPC   C4B43462  31.687   4.346   7.262
 3262POPC   NC343463  21.892   0.922   5.589
 3262POPC   PO443464  22.332   1.384   5.350
 3262POPC   GL143465  22.239   1.279   5.763
 3262POPC   GL243466  22.323   1.620   5.843
 3262POPC   C1A43467  22.156   1.026   6.166
 3262POPC   D2A43468  21.898   0.986   6.512
 3262POPC   C3A43469  22.079   0.951   6.904
 3262POPC   C4A43470  21.942   1.103   7.281
 3262POPC   C1B43471  22.033   1.544   6.154
 3262POPC   C2B43472  22.056   1.458   6.563
 3262POPC   C3B43473  22.173   1.450   6.963
 3262POPC   C4B43474  21.861   1.585   7.166
 3263POPC   NC343475   2.804  17.957   5.528
 3263POPC   PO443476   3.024  17.320   5.499
 3263POPC   GL143477   2.737  17.497   5.800
 3263POPC   GL243478   2.951  17.729   5.994
 3263POPC   C1A43479   2.487  17.625   6.212
 3263POPC   D2A43480   2.672  17.565   6.629
 3263POPC   C3A43481   2.812  17.751   6.988
 3263POPC   C4A43482   2.487  17.609   7.283
 3263POPC   C1B43483   2.880  17.306   6.235
 3263POPC   C2B43484   2.887  17.109   6.650
 3263POPC   C3B43485   2.741  17.235   7.021
 3263POPC   C4B43486   2.948  17.404   7.345
 3264POPC   NC343487   0.622  35.654   5.332
 3264POPC   PO443488   0.559  34.956   5.345
 3264POPC   GL143489   0.560  35.252   5.752
 3264POPC   GL243490   0.791  35.520   5.794
 3264POPC   C1A43491   0.449  35.432   6.205
 3264POPC   D2A43492   0.378  35.311   6.644
 3264POPC   C3A43493   0.425  35.488   7.054
 3264POPC   C4A43494   0.185  35.486   7.455
 3264POPC   C1B43495   0.943  35.417   6.186
 3264POPC   C2B43496   0.891  35.206   6.571
 3264POPC   C3B43497   0.819  35.139   6.977
 3264POPC   C4B43498   0.927  35.468   7.196
 3265POPC   NC343499  16.959  27.407   5.227
 3265POPC   PO443500  16.607  27.906   5.329
 3265POPC   GL143501  16.477  27.628   5.686
 3265POPC   GL243502  16.738  27.439   5.882
 3265POPC   C1A43503  16.343  27.633   6.137
 3265POPC   D2A43504  16.299  27.817   6.549
 3265POPC   C3A43505  16.533  27.597   6.861
 3265POPC   C4A43506  16.558  27.571   7.291
 3265POPC   C1B43507  16.795  27.522   6.380
 3265POPC   C2B43508  17.021  27.428   6.806
 3265POPC   C3B43509  17.070  27.517   7.264
 3265POPC   C4B43510  17.273  27.392   7.648
 3266POPC   NC343511  38.917  21.695   5.339
 3266POPC   PO443512  39.257  21.105   5.254
 3266POPC   GL143513  39.036  21.276   5.644
 3266POPC   GL243514  39.230  21.517   5.770
 3266POPC   C1A43515  38.891  21.416   6.109
 3266POPC   D2A43516  38.884  21.425   6.561
 3266POPC   C3A43517  39.052  21.122   6.840
 3266POPC   C4A43518  39.260  21.316   7.186
 3266POPC   C1B43519  39.388  21.588   6.211
 3266POPC   C2B43520  39.354  21.652   6.666
 3266POPC   C3B43521  39.107  21.761   7.011
 3266POPC   C4B43522  39.251  21.752   7.457
 3267POPC   NC343523   4.882  36.934   5.361
 3267POPC   PO443524   5.551  36.805   5.403
 3267POPC   GL143525   5.202  36.783   5.764
 3267POPC   GL243526   4.809  36.757   5.820
 3267POPC   C1A43527   5.288  36.902   6.203
 3267POPC   D2A43528   5.330  37.126   6.585
 3267POPC   C3A43529   5.294  36.896   6.945
 3267POPC   C4A43530   5.409  36.956   7.353
 3267POPC   C1B43531   4.910  36.585   6.203
 3267POPC   C2B43532   4.890  36.785   6.577
 3267POPC   C3B43533   4.888  36.576   6.948
 3267POPC   C4B43534   4.898  36.814   7.278
 3268POPC   NC343535  22.904  36.751   5.606
 3268POPC   PO443536  23.318  37.380   5.464
 3268POPC   GL143537  23.252  37.070   5.853
 3268POPC   GL243538  23.162  36.719   6.045
 3268POPC   C1A43539  23.100  37.151   6.283
 3268POPC   D2A43540  23.024  36.959   6.655
 3268POPC   C3A43541  22.924  37.232   6.959
 3268POPC   C4A43542  23.128  37.066   7.289
 3268POPC   C1B43543  22.785  36.643   6.298
 3268POPC   C2B43544  22.767  36.495   6.734
 3268POPC   C3B43545  22.765  36.756   7.126
 3268POPC   C4B43546  22.767  36.770   7.606
 3269POPC   NC343547  14.112  14.680   5.184
 3269POPC   PO443548  14.353  14.044   5.338
 3269POPC   GL143549  14.304  14.366   5.624
 3269POPC   GL243550  14.637  14.313   5.757
 3269POPC   C1A43551  14.254  14.340   6.103
 3269POPC   D2A43552  14.492  14.368   6.486
 3269POPC   C3A43553  14.371  14.614   6.850
 3269POPC   C4A43554  14.092  14.379   7.125
 3269POPC   C1B43555  14.839  14.536   6.145
 3269POPC   C2B43556  14.805  14.755   6.544
 3269POPC   C3B43557  14.904  14.723   6.963
 3269POPC   C4B43558  14.701  14.613   7.277
 3270POPC   NC343559  13.997  31.481   5.438
 3270POPC   PO443560  13.398  31.254   5.609
 3270POPC   GL143561  13.742  31.353   5.907
 3270POPC   GL243562  13.899  31.696   5.890
 3270POPC   C1A43563  13.809  31.467   6.342
 3270POPC   D2A43564  13.827  31.750   6.692
 3270POPC   C3A43565  13.748  31.477   7.057
 3270POPC   C4A43566  13.757  31.168   7.378
 3270POPC   C1B43567  13.512  31.812   6.121
 3270POPC   C2B43568  13.247  31.842   6.489
 3270POPC   C3B43569  13.376  31.874   6.915
 3270POPC   C4B43570  13.369  31.689   7.324
 3271POPC   NC343571  16.088  13.157   5.368
 3271POPC   PO443572  15.941  12.509   5.278
 3271POPC   GL143573  15.900  12.724   5.677
 3271POPC   GL243574  16.162  12.824   5.824
 3271POPC   C1A43575  15.733  12.876   6.114
 3271POPC   D2A43576  15.857  12.904   6.527
 3271POPC   C3A43577  15.610  12.857   6.869
 3271POPC   C4A43578  15.797  12.922   7.260
 3271POPC   C1B43579  16.179  13.088   6.179
 3271POPC   C2B43580  16.177  13.330   6.524
 3271POPC   C3B43581  16.134  13.165   6.915
 3271POPC   C4B43582  16.281  13.411   7.231
 3272POPC   NC343583   3.123  40.554   5.416
 3272POPC   PO443584   2.705  41.071   5.399
 3272POPC   GL143585   2.842  40.848   5.761
 3272POPC   GL243586   2.701  40.492   5.691
 3272POPC   C1A43587   2.967  40.947   6.210
 3272POPC   D2A43588   2.902  40.687   6.574
 3272POPC   C3A43589   2.958  40.829   6.994
 3272POPC   C4A43590   2.549  41.006   7.134
 3272POPC   C1B43591   2.760  40.469   6.118
 3272POPC   C2B43592   2.420  40.526   6.436
 3272POPC   C3B43593   2.490  40.570   6.883
 3272POPC   C4B43594   2.677  40.516   7.299
 3273POPC   NC343595   2.112  37.547   5.449
 3273POPC   PO443596   1.766  38.157   5.322
 3273POPC   GL143597   1.890  37.896   5.742
 3273POPC   GL243598   2.282  37.837   5.822
 3273POPC   C1A43599   1.987  37.864   6.214
 3273POPC   D2A43600   2.243  37.798   6.565
 3273POPC   C3A43601   1.930  37.688   6.872
 3273POPC   C4A43602   1.777  37.873   7.247
 3273POPC   C1B43603   2.264  37.441   6.112
 3273POPC   C2B43604   2.354  37.295   6.550
 3273POPC   C3B43605   2.401  37.498   6.968
 3273POPC   C4B43606   2.117  37.509   7.325
 3274POPC   NC343607   5.487  27.924   5.378
 3274POPC   PO443608   5.421  28.557   5.242
 3274POPC   GL143609   5.764  28.457   5.602
 3274POPC   GL243610   5.543  28.466   5.840
 3274POPC   C1A43611   5.968  28.486   6.095
 3274POPC   D2A43612   5.947  28.717   6.525
 3274POPC   C3A43613   6.175  28.496   6.866
 3274POPC   C4A43614   6.108  28.372   7.302
 3274POPC   C1B43615   5.492  28.661   6.248
 3274POPC   C2B43616   5.480  28.473   6.660
 3274POPC   C3B43617   5.681  28.541   7.038
 3274POPC   C4B43618   5.572  28.810   7.381
 3275POPC   NC343619  13.190  33.186   5.485
 3275POPC   PO443620  13.816  32.851   5.429
 3275POPC   GL143621  13.575  32.972   5.771
 3275POPC   GL243622  13.299  32.755   5.777
 3275POPC   C1A43623  13.714  33.099   6.162
 3275POPC   D2A43624  13.898  33.309   6.487
 3275POPC   C3A43625  13.610  33.321   6.811
 3275POPC   C4A43626  13.704  33.334   7.193
 3275POPC   C1B43627  13.320  32.778   6.223
 3275POPC   C2B43628  13.567  32.836   6.596
 3275POPC   C3B43629  13.772  32.821   6.986
 3275POPC   C4B43630  13.585  32.887   7.404
 3276POPC   NC343631   9.086  17.815   5.237
 3276POPC   PO443632   8.739  17.178   5.230
 3276POPC   GL143633   8.743  17.520   5.595
 3276POPC   GL243634   9.089  17.616   5.704
 3276POPC   C1A43635   8.725  17.507   6.085
 3276POPC   D2A43636   8.910  17.309   6.475
 3276POPC   C3A43637   8.859  17.503   6.907
 3276POPC   C4A43638   8.922  17.448   7.350
 3276POPC   C1B43639   9.232  17.436   6.087
 3276POPC   C2B43640   9.251  17.698   6.441
 3276POPC   C3B43641   9.269  17.816   6.837
 3276POPC   C4B43642   9.393  17.613   7.193
 3277POPC   NC343643   4.018  40.115   5.484
 3277POPC   PO443644   4.682  39.963   5.422
 3277POPC   GL143645   4.482  40.045   5.809
 3277POPC   GL243646   4.322  40.355   5.838
 3277POPC   C1A43647   4.458  39.865   6.235
 3277POPC   D2A43648   4.255  39.519   6.465
 3277POPC   C3A43649   4.194  39.686   6.861
 3277POPC   C4A43650   4.046  39.769   7.252
 3277POPC   C1B43651   4.154  40.300   6.255
 3277POPC   C2B43652   4.284  40.204   6.678
 3277POPC   C3B43653   4.075  40.246   7.082
 3277POPC   C4B43654   4.017  40.201   7.557
 3278POPC   NC343655  29.386  24.131   5.570
 3278POPC   PO443656  29.057  23.607   5.407
 3278POPC   GL143657  29.257  23.676   5.777
 3278POPC   GL243658  29.382  23.376   5.842
 3278POPC   C1A43659  29.156  23.790   6.191
 3278POPC   D2A43660  28.833  23.556   6.438
 3278POPC   C3A43661  28.877  23.334   6.839
 3278POPC   C4A43662  28.812  23.564   7.237
 3278POPC   C1B43663  29.242  23.286   6.227
 3278POPC   C2B43664  29.332  23.498   6.598
 3278POPC   C3B43665  29.292  23.566   7.006
 3278POPC   C4B43666  29.492  23.865   7.178
 3279POPC   NC343667  42.267  31.377   5.233
 3279POPC   PO443668  41.843  31.770   5.549
 3279POPC   GL143669  42.082  31.428   5.733
 3279POPC   GL243670  42.443  31.353   5.701
 3279POPC   C1A43671  42.102  31.381   6.168
 3279POPC   D2A43672  42.019  31.682   6.505
 3279POPC   C3A43673  42.189  31.555   6.891
 3279POPC   C4A43674  42.081  31.267   7.228
 3279POPC   C1B43675  42.607  31.385   6.110
 3279POPC   C2B43676  42.458  31.217   6.516
 3279POPC   C3B43677  42.537  31.201   6.959
 3279POPC   C4B43678  42.539  31.549   7.277
 3280POPC   NC343679  44.251   2.985   5.396
 3280POPC   PO443680  44.782   2.528   5.396
 3280POPC   GL143681  44.449   2.606   5.720
 3280POPC   GL243682  44.610   2.887   5.790
 3280POPC   C1A43683  44.487   2.449   6.165
 3280POPC   D2A43684  44.697   2.564   6.553
 3280POPC   C3A43685  44.478   2.523   6.933
 3280POPC   C4A43686  44.572   2.547   7.359
 3280POPC   C1B43687  44.474   2.962   6.199
 3280POPC   C2B43688  44.621   3.120   6.586
 3280POPC   C3B43689  44.474   3.147   6.996
 3280POPC   C4B43690  44.603   3.052   7.421
 3281POPC   NC343691  25.237  37.179   5.418
 3281POPC   PO443692  24.907  36.703   5.391
 3281POPC   GL143693  25.183  36.617   5.764
 3281POPC   GL243694  25.356  36.933   5.854
 3281POPC   C1A43695  25.312  36.602   6.229
 3281POPC   D2A43696  25.149  36.570   6.641
 3281POPC   C3A43697  25.340  36.614   7.022
 3281POPC   C4A43698  25.152  36.826   7.323
 3281POPC   C1B43699  25.641  37.012   6.213
 3281POPC   C2B43700  25.600  36.875   6.624
 3281POPC   C3B43701  25.442  37.084   6.977
 3281POPC   C4B43702  25.493  37.168   7.430
 3282POPC   NC343703  14.585  22.878   5.447
 3282POPC   PO443704  14.136  23.304   5.281
 3282POPC   GL143705  14.073  22.978   5.661
 3282POPC   GL243706  14.354  23.074   5.879
 3282POPC   C1A43707  14.129  22.689   6.111
 3282POPC   D2A43708  14.202  22.767   6.604
 3282POPC   C3A43709  14.537  22.961   6.903
 3282POPC   C4A43710  14.819  23.256   7.185
 3282POPC   C1B43711  13.934  23.166   6.123
 3282POPC   C2B43712  13.850  23.350   6.530
 3282POPC   C3B43713  13.934  23.201   6.955
 3282POPC   C4B43714  14.198  23.135   7.316
 3283POPC   NC343715   6.825  18.119   5.100
 3283POPC   PO443716   6.827  18.758   5.296
 3283POPC   GL143717   6.879  18.515   5.678
 3283POPC   GL243718   6.792  18.153   5.686
 3283POPC   C1A43719   6.722  18.505   6.110
 3283POPC   D2A43720   6.429  18.251   6.373
 3283POPC   C3A43721   6.526  18.222   6.789
 3283POPC   C4A43722   6.518  18.243   7.200
 3283POPC   C1B43723   6.904  18.013   6.093
 3283POPC   C2B43724   6.876  17.927   6.539
 3283POPC   C3B43725   6.987  18.041   6.982
 3283POPC   C4B43726   6.994  18.407   7.246
 3284POPC   NC343727  42.282  14.953   5.527
 3284POPC   PO443728  42.258  15.594   5.603
 3284POPC   GL143729  42.451  15.323   5.945
 3284POPC   GL243730  42.693  15.087   5.782
 3284POPC   C1A43731  42.326  15.076   6.341
 3284POPC   D2A43732  42.179  14.962   6.782
 3284POPC   C3A43733  42.265  15.265   7.115
 3284POPC   C4A43734  42.283  15.350   7.584
 3284POPC   C1B43735  42.787  14.947   6.168
 3284POPC   C2B43736  42.679  14.787   6.576
 3284POPC   C3B43737  42.650  14.964   6.984
 3284POPC   C4B43738  42.427  14.819   7.336
 3285POPC   NC343739  10.592  16.128   5.521
 3285POPC   PO443740   9.977  15.783   5.309
 3285POPC   GL143741  10.206  15.816   5.747
 3285POPC   GL243742  10.487  15.619   5.607
 3285POPC   C1A43743  10.431  15.966   6.184
 3285POPC   D2A43744  10.637  16.073   6.648
 3285POPC   C3A43745  10.410  16.069   7.060
 3285POPC   C4A43746  10.516  16.023   7.489
 3285POPC   C1B43747  10.653  15.517   6.001
 3285POPC   C2B43748  10.677  15.585   6.455
 3285POPC   C3B43749  10.450  15.622   6.814
 3285POPC   C4B43750  10.501  15.589   7.254
 3286POPC   NC343751  39.010  18.150   5.541
 3286POPC   PO443752  39.499  18.612   5.355
 3286POPC   GL143753  39.433  18.424   5.777
 3286POPC   GL243754  39.414  18.073   5.882
 3286POPC   C1A43755  39.276  18.497   6.245
 3286POPC   D2A43756  39.013  18.615   6.640
 3286POPC   C3A43757  39.100  18.446   7.059
 3286POPC   C4A43758  39.400  18.462   7.408
 3286POPC   C1B43759  39.065  18.040   6.215
 3286POPC   C2B43760  39.067  18.087   6.671
 3286POPC   C3B43761  38.832  18.020   7.062
 3286POPC   C4B43762  39.000  18.108   7.458
 3287POPC   NC343763  27.624  12.667   5.401
 3287POPC   PO443764  28.060  13.161   5.397
 3287POPC   GL143765  27.778  13.050   5.708
 3287POPC   GL243766  27.428  13.091   5.711
 3287POPC   C1A43767  27.732  12.899   6.103
 3287POPC   D2A43768  27.562  12.646   6.432
 3287POPC   C3A43769  27.508  12.883   6.833
 3287POPC   C4A43770  27.778  13.079   7.144
 3287POPC   C1B43771  27.239  12.804   6.060
 3287POPC   C2B43772  27.081  12.743   6.518
 3287POPC   C3B43773  27.222  12.455   6.884
 3287POPC   C4B43774  27.096  12.368   7.319
 3288POPC   NC343775  11.864  20.107   5.279
 3288POPC   PO443776  12.349  19.633   5.378
 3288POPC   GL143777  12.163  19.724   5.771
 3288POPC   GL243778  11.994  20.019   5.766
 3288POPC   C1A43779  12.341  19.911   6.157
 3288POPC   D2A43780  12.261  20.115   6.534
 3288POPC   C3A43781  12.197  19.863   6.882
 3288POPC   C4A43782  12.391  19.832   7.295
 3288POPC   C1B43783  11.831  19.835   6.155
 3288POPC   C2B43784  11.732  19.995   6.546
 3288POPC   C3B43785  11.686  19.920   6.961
 3288POPC   C4B43786  11.889  19.853   7.312
 3289POPC   NC343787  15.126  19.881   5.296
 3289POPC   PO443788  14.579  19.973   5.610
 3289POPC   GL143789  14.848  19.800   5.884
 3289POPC   GL243790  15.183  19.924   5.867
 3289POPC   C1A43791  14.932  19.900   6.323
 3289POPC   D2A43792  14.994  19.994   6.770
 3289POPC   C3A43793  15.149  19.668   7.057
 3289POPC   C4A43794  15.219  19.683   7.497
 3289POPC   C1B43795  15.412  20.040   6.294
 3289POPC   C2B43796  15.497  19.999   6.764
 3289POPC   C3B43797  15.609  19.990   7.205
 3289POPC   C4B43798  15.688  19.868   7.624
 3290POPC   NC343799  24.651  28.792   5.320
 3290POPC   PO443800  24.605  29.498   5.213
 3290POPC   GL143801  24.623  29.203   5.651
 3290POPC   GL243802  24.873  28.984   5.853
 3290POPC   C1A43803  24.438  29.079   6.079
 3290POPC   D2A43804  24.300  29.058   6.508
 3290POPC   C3A43805  24.547  28.962   6.870
 3290POPC   C4A43806  24.426  29.235   7.199
 3290POPC   C1B43807  24.918  29.268   6.201
 3290POPC   C2B43808  24.873  29.365   6.635
 3290POPC   C3B43809  24.943  29.262   7.052
 3290POPC   C4B43810  24.854  28.977   7.348
 3291POPC   NC343811  28.455  35.061   5.130
 3291POPC   PO443812  28.477  35.638   5.247
 3291POPC   GL143813  28.443  35.430   5.696
 3291POPC   GL243814  28.587  35.067   5.702
 3291POPC   C1A43815  28.496  35.451   6.185
 3291POPC   D2A43816  28.547  35.681   6.618
 3291POPC   C3A43817  28.360  35.443   6.995
 3291POPC   C4A43818  27.975  35.217   7.141
 3291POPC   C1B43819  28.337  34.932   6.090
 3291POPC   C2B43820  28.210  35.003   6.540
 3291POPC   C3B43821  28.371  34.895   6.968
 3291POPC   C4B43822  28.565  35.078   7.325
 3292POPC   NC343823  27.948  11.031   5.344
 3292POPC   PO443824  27.528  10.481   5.382
 3292POPC   GL143825  27.600  10.515   5.817
 3292POPC   GL243826  27.863  10.291   5.972
 3292POPC   C1A43827  27.674  10.668   6.240
 3292POPC   D2A43828  27.904  10.722   6.580
 3292POPC   C3A43829  27.633  10.769   6.917
 3292POPC   C4A43830  27.653  10.631   7.327
 3292POPC   C1B43831  27.458  10.214   6.196
 3292POPC   C2B43832  27.331  10.127   6.621
 3292POPC   C3B43833  27.336  10.347   7.014
 3292POPC   C4B43834  27.257  10.272   7.449
 3293POPC   NC343835  38.852  29.995   5.461
 3293POPC   PO443836  39.349  29.454   5.428
 3293POPC   GL143837  39.220  29.714   5.765
 3293POPC   GL243838  38.882  29.602   5.796
 3293POPC   C1A43839  39.430  29.886   6.164
 3293POPC   D2A43840  39.525  29.776   6.617
 3293POPC   C3A43841  39.484  30.046   6.983
 3293POPC   C4A43842  39.300  30.157   7.368
 3293POPC   C1B43843  38.912  29.843   6.189
 3293POPC   C2B43844  39.047  30.038   6.605
 3293POPC   C3B43845  38.949  29.969   7.036
 3293POPC   C4B43846  38.762  29.632   7.248
 3294POPC   NC343847  40.505  32.056   5.387
 3294POPC   PO443848  41.091  32.365   5.266
 3294POPC   GL143849  40.873  32.398   5.662
 3294POPC   GL243850  40.865  32.062   5.771
 3294POPC   C1A43851  40.956  32.413   6.126
 3294POPC   D2A43852  40.762  32.167   6.496
 3294POPC   C3A43853  40.812  32.273   6.952
 3294POPC   C4A43854  41.151  32.369   7.208
 3294POPC   C1B43855  40.494  32.203   6.045
 3294POPC   C2B43856  40.263  32.053   6.431
 3294POPC   C3B43857  40.426  31.949   6.866
 3294POPC   C4B43858  40.519  32.036   7.320
 3295POPC   NC343859  40.485  13.454   5.432
 3295POPC   PO443860  41.164  13.664   5.405
 3295POPC   GL143861  40.900  13.581   5.719
 3295POPC   GL243862  40.657  13.856   5.712
 3295POPC   C1A43863  40.944  13.677   6.138
 3295POPC   D2A43864  40.782  13.475   6.478
 3295POPC   C3A43865  40.900  13.586   6.872
 3295POPC   C4A43866  40.734  13.377   7.219
 3295POPC   C1B43867  40.449  13.585   6.071
 3295POPC   C2B43868  40.267  13.633   6.462
 3295POPC   C3B43869  40.384  13.593   6.853
 3295POPC   C4B43870  40.428  13.793   7.243
 3296POPC   NC343871  35.893  33.357   5.215
 3296POPC   PO443872  36.470  33.653   5.339
 3296POPC   GL143873  36.307  33.756   5.746
 3296POPC   GL243874  36.440  34.064   5.882
 3296POPC   C1A43875  36.021  33.749   6.129
 3296POPC   D2A43876  35.816  33.883   6.522
 3296POPC   C3A43877  35.915  33.610   6.845
 3296POPC   C4A43878  36.045  33.670   7.220
 3296POPC   C1B43879  36.535  33.756   6.209
 3296POPC   C2B43880  36.386  33.637   6.608
 3296POPC   C3B43881  36.506  33.775   7.009
 3296POPC   C4B43882  36.571  33.566   7.401
 3297POPC   NC343883   3.465  43.650   5.434
 3297POPC   PO443884   3.810  44.144   5.564
 3297POPC   GL143885   3.660  43.946   5.917
 3297POPC   GL243886   3.473  43.631   5.954
 3297POPC   C1A43887   3.774  43.832   6.325
 3297POPC   D2A43888   3.405  43.879   6.572
 3297POPC   C3A43889   3.512  44.081   6.925
 3297POPC   C4A43890   3.712  43.938   7.283
 3297POPC   C1B43891   3.140  43.500   6.258
 3297POPC   C2B43892   3.106  43.469   6.696
 3297POPC   C3B43893   3.407  43.555   7.003
 3297POPC   C4B43894   3.260  43.709   7.367
 3298POPC   NC343895  40.590   1.189   5.159
 3298POPC   PO443896  41.161   0.996   5.489
 3298POPC   GL143897  40.976   1.303   5.796
 3298POPC   GL243898  40.611   1.370   5.791
 3298POPC   C1A43899  40.854   1.246   6.248
 3298POPC   D2A43900  40.655   1.123   6.663
 3298POPC   C3A43901  40.937   1.255   6.989
 3298POPC   C4A43902  40.939   1.505   7.349
 3298POPC   C1B43903  40.409   1.482   6.206
 3298POPC   C2B43904  40.656   1.643   6.597
 3298POPC   C3B43905  40.548   1.614   7.026
 3298POPC   C4B43906  40.459   1.189   7.196
 3299POPC   NC343907  19.325  35.334   5.407
 3299POPC   PO443908  18.853  35.003   5.526
 3299POPC   GL143909  18.978  35.331   5.832
 3299POPC   GL243910  19.255  35.595   5.842
 3299POPC   C1A43911  18.980  35.243   6.289
 3299POPC   D2A43912  18.991  34.886   6.567
 3299POPC   C3A43913  18.776  35.025   6.921
 3299POPC   C4A43914  18.784  35.293   7.274
 3299POPC   C1B43915  19.441  35.255   6.086
 3299POPC   C2B43916  19.464  35.171   6.537
 3299POPC   C3B43917  19.289  35.344   6.916
 3299POPC   C4B43918  19.059  35.703   7.073
 3300POPC   NC343919  22.357  42.016   5.259
 3300POPC   PO443920  21.948  42.562   5.326
 3300POPC   GL143921  22.079  42.511   5.760
 3300POPC   GL243922  22.224  42.166   5.796
 3300POPC   C1A43923  22.161  42.467   6.217
 3300POPC   D2A43924  22.264  42.318   6.636
 3300POPC   C3A43925  21.932  42.336   6.950
 3300POPC   C4A43926  21.904  42.697   7.233
 3300POPC   C1B43927  22.463  42.005   6.194
 3300POPC   C2B43928  22.636  41.954   6.649
 3300POPC   C3B43929  22.332  41.975   7.021
 3300POPC   C4B43930  22.278  42.324   7.326
 3301POPC   NC343931   3.110  33.591   5.428
 3301POPC   PO443932   3.659  33.903   5.570
 3301POPC   GL143933   3.490  33.796   5.946
 3301POPC   GL243934   3.245  33.532   5.940
 3301POPC   C1A43935   3.605  33.866   6.372
 3301POPC   D2A43936   3.681  33.564   6.701
 3301POPC   C3A43937   3.791  33.719   7.124
 3301POPC   C4A43938   3.718  33.653   7.563
 3301POPC   C1B43939   3.166  33.599   6.385
 3301POPC   C2B43940   3.164  34.023   6.566
 3301POPC   C3B43941   3.378  33.982   6.940
 3301POPC   C4B43942   3.283  33.664   7.268
 3302POPC   NC343943  26.006  23.540   5.258
 3302POPC   PO443944  25.941  22.733   5.184
 3302POPC   GL143945  25.985  22.719   5.756
 3302POPC   GL243946  25.852  23.007   5.921
 3302POPC   C1A43947  26.134  22.678   6.210
 3302POPC   D2A43948  26.288  22.479   6.600
 3302POPC   C3A43949  26.111  22.710   6.949
 3302POPC   C4A43950  25.755  22.776   7.241
 3302POPC   C1B43951  25.984  23.185   6.325
 3302POPC   C2B43952  25.971  23.179   6.777
 3302POPC   C3B43953  26.045  23.193   7.230
 3302POPC   C4B43954  25.812  23.170   7.620
 3303POPC   NC343955  21.915  16.318   5.326
 3303POPC   PO443956  22.485  15.996   5.430
 3303POPC   GL143957  22.244  16.001   5.850
 3303POPC   GL243958  21.973  15.759   5.909
 3303POPC   C1A43959  22.220  16.034   6.317
 3303POPC   D2A43960  22.280  16.170   6.739
 3303POPC   C3A43961  21.933  16.434   6.901
 3303POPC   C4A43962  21.722  16.360   7.299
 3303POPC   C1B43963  21.852  15.680   6.315
 3303POPC   C2B43964  21.929  15.705   6.744
 3303POPC   C3B43965  22.021  15.951   7.117
 3303POPC   C4B43966  22.434  15.968   7.261
 3304POPC   NC343967  34.013   3.979   5.391
 3304POPC   PO443968  33.832   4.648   5.240
 3304POPC   GL143969  33.967   4.552   5.688
 3304POPC   GL243970  34.089   4.241   5.819
 3304POPC   C1A43971  33.828   4.550   6.124
 3304POPC   D2A43972  33.946   4.415   6.545
 3304POPC   C3A43973  33.636   4.282   6.854
 3304POPC   C4A43974  33.620   4.601   7.153
 3304POPC   C1B43975  33.915   4.025   6.200
 3304POPC   C2B43976  33.998   3.892   6.639
 3304POPC   C3B43977  34.140   4.179   6.968
 3304POPC   C4B43978  33.916   4.245   7.367
 3305POPC   NC343979  37.100  23.195   5.297
 3305POPC   PO443980  37.815  23.066   5.465
 3305POPC   GL143981  37.401  23.092   5.716
 3305POPC   GL243982  37.285  22.797   5.838
 3305POPC   C1A43983  37.214  23.211   6.119
 3305POPC   D2A43984  37.287  23.058   6.498
 3305POPC   C3A43985  37.663  23.122   6.715
 3305POPC   C4A43986  37.671  23.037   7.139
 3305POPC   C1B43987  37.616  22.851   6.138
 3305POPC   C2B43988  37.912  22.744   6.455
 3305POPC   C3B43989  37.934  22.669   6.879
 3305POPC   C4B43990  38.085  22.821   7.318
 3306POPC   NC343991  17.145  23.084   5.334
 3306POPC   PO443992  17.804  23.104   5.460
 3306POPC   GL143993  17.453  22.940   5.735
 3306POPC   GL243994  17.166  23.168   5.852
 3306POPC   C1A43995  17.267  22.751   6.125
 3306POPC   D2A43996  17.296  22.949   6.536
 3306POPC   C3A43997  17.506  22.757   6.895
 3306POPC   C4A43998  17.836  22.760   7.242
 3306POPC   C1B43999  17.165  23.392   6.268
 3306POPC   C2B44000  17.344  23.421   6.694
 3306POPC   C3B44001  17.518  23.227   7.065
 3306POPC   C4B44002  17.881  23.329   7.230
 3307POPC   NC344003   3.234  35.191   5.348
 3307POPC   PO444004   3.909  35.263   5.182
 3307POPC   GL144005   3.644  35.350   5.628
 3307POPC   GL244006   3.356  35.153   5.843
 3307POPC   C1A44007   3.606  35.477   6.123
 3307POPC   D2A44008   3.631  35.323   6.577
 3307POPC   C3A44009   3.405  35.408   6.965
 3307POPC   C4A44010   3.735  35.614   7.186
 3307POPC   C1B44011   3.617  34.958   6.227
 3307POPC   C2B44012   3.618  34.782   6.646
 3307POPC   C3B44013   3.690  34.999   6.990
 3307POPC   C4B44014   3.716  35.167   7.417
 3308POPC   NC344015  13.563   0.920   5.416
 3308POPC   PO444016  13.989   1.417   5.274
 3308POPC   GL144017  13.885   1.221   5.718
 3308POPC   GL244018  13.517   1.197   5.843
 3308POPC   C1A44019  13.871   1.258   6.202
 3308POPC   D2A44020  13.654   1.286   6.620
 3308POPC   C3A44021  13.791   1.390   7.013
 3308POPC   C4A44022  14.003   1.141   7.322
 3308POPC   C1B44023  13.317   1.235   6.258
 3308POPC   C2B44024  13.302   0.919   6.657
 3308POPC   C3B44025  13.514   0.952   7.091
 3308POPC   C4B44026  13.285   0.902   7.489
 3309POPC   NC344027   1.267   6.908   5.367
 3309POPC   PO444028   1.420   7.567   5.274
 3309POPC   GL144029   1.329   7.281   5.703
 3309POPC   GL244030   1.025   7.141   5.829
 3309POPC   C1A44031   1.392   7.345   6.151
 3309POPC   D2A44032   1.191   7.687   6.416
 3309POPC   C3A44033   1.257   7.687   6.851
 3309POPC   C4A44034   1.431   7.312   7.094
 3309POPC   C1B44035   0.911   7.235   6.267
 3309POPC   C2B44036   1.082   7.235   6.706
 3309POPC   C3B44037   0.941   7.368   7.130
 3309POPC   C4B44038   0.860   7.162   7.514
 3310POPC   NC344039  24.659   2.433   5.598
 3310POPC   PO444040  24.345   1.861   5.498
 3310POPC   GL144041  24.198   2.081   5.867
 3310POPC   GL244042  24.320   2.402   5.985
 3310POPC   C1A44043  24.232   1.974   6.292
 3310POPC   D2A44044  24.384   2.077   6.678
 3310POPC   C3A44045  24.346   1.796   6.974
 3310POPC   C4A44046  24.662   1.752   7.269
 3310POPC   C1B44047  24.688   2.263   6.251
 3310POPC   C2B44048  24.898   2.157   6.641
 3310POPC   C3B44049  24.745   2.203   7.058
 3310POPC   C4B44050  24.307   2.189   7.273
 3311POPC   NC344051  41.877  28.041   5.736
 3311POPC   PO444052  41.516  28.527   5.303
 3311POPC   GL144053  41.534  28.432   5.766
 3311POPC   GL244054  41.199  28.293   5.800
 3311POPC   C1A44055  41.628  28.487   6.226
 3311POPC   D2A44056  41.526  28.246   6.614
 3311POPC   C3A44057  41.755  28.282   7.006
 3311POPC   C4A44058  41.559  28.242   7.415
 3311POPC   C1B44059  41.113  28.476   6.214
 3311POPC   C2B44060  41.172  28.631   6.635
 3311POPC   C3B44061  41.319  28.552   7.072
 3311POPC   C4B44062  41.325  28.720   7.500
 3312POPC   NC344063  31.157  24.551   5.142
 3312POPC   PO444064  31.511  24.235   5.541
 3312POPC   GL144065  31.503  24.450   5.855
 3312POPC   GL244066  31.213  24.645   5.777
 3312POPC   C1A44067  31.680  24.403   6.241
 3312POPC   D2A44068  31.706  24.131   6.577
 3312POPC   C3A44069  31.744  24.401   6.917
 3312POPC   C4A44070  31.649  24.262   7.321
 3312POPC   C1B44071  31.173  24.476   6.230
 3312POPC   C2B44072  31.343  24.488   6.615
 3312POPC   C3B44073  31.232  24.421   7.019
 3312POPC   C4B44074  31.118  24.704   7.270
 3313POPC   NC344075   8.806   2.005   5.471
 3313POPC   PO444076   9.286   1.603   5.458
 3313POPC   GL144077   9.069   1.706   5.833
 3313POPC   GL244078   8.779   1.616   5.884
 3313POPC   C1A44079   9.101   1.847   6.271
 3313POPC   D2A44080   9.259   1.998   6.674
 3313POPC   C3A44081   8.979   1.897   7.036
 3313POPC   C4A44082   9.097   1.866   7.458
 3313POPC   C1B44083   8.563   1.624   6.249
 3313POPC   C2B44084   8.686   1.697   6.656
 3313POPC   C3B44085   8.475   1.717   7.077
 3313POPC   C4B44086   8.586   1.960   7.464
 3314POPC   NC344087  39.874  22.875   5.289
 3314POPC   PO444088  40.367  22.906   5.631
 3314POPC   GL144089  39.965  22.853   5.836
 3314POPC   GL244090  39.760  23.127   5.717
 3314POPC   C1A44091  39.952  22.872   6.288
 3314POPC   D2A44092  40.038  23.048   6.696
 3314POPC   C3A44093  40.089  22.789   7.068
 3314POPC   C4A44094  40.212  22.972   7.477
 3314POPC   C1B44095  39.567  23.143   6.096
 3314POPC   C2B44096  39.565  23.158   6.540
 3314POPC   C3B44097  39.578  22.992   6.975
 3314POPC   C4B44098  39.718  23.043   7.392
 3315POPC   NC344099  12.010  37.291   5.066
 3315POPC   PO444100  12.294  37.783   5.447
 3315POPC   GL144101  12.233  37.762   5.910
 3315POPC   GL244102  12.115  38.059   5.984
 3315POPC   C1A44103  12.049  37.473   6.239
 3315POPC   D2A44104  11.667  37.510   6.513
 3315POPC   C3A44105  11.751  37.405   6.940
 3315POPC   C4A44106  11.818  37.635   7.301
 3315POPC   C1B44107  11.907  37.951   6.356
 3315POPC   C2B44108  12.121  37.725   6.678
 3315POPC   C3B44109  12.217  37.852   7.065
 3315POPC   C4B44110  12.251  37.849   7.508
 3316POPC   NC344111  36.969  39.521   5.156
 3316POPC   PO444112  36.784  40.219   5.253
 3316POPC   GL144113  36.905  40.051   5.669
 3316POPC   GL244114  36.616  39.923   5.769
 3316POPC   C1A44115  37.001  39.948   6.134
 3316POPC   D2A44116  37.169  40.145   6.484
 3316POPC   C3A44117  37.099  40.016   6.900
 3316POPC   C4A44118  37.234  40.117   7.307
 3316POPC   C1B44119  36.516  39.990   6.214
 3316POPC   C2B44120  36.713  39.864   6.565
 3316POPC   C3B44121  36.591  39.837   6.965
 3316POPC   C4B44122  36.739  40.070   7.300
 3317POPC   NC344123   2.191  18.064   5.289
 3317POPC   PO444124   1.791  18.534   5.371
 3317POPC   GL144125   1.648  18.374   5.740
 3317POPC   GL244126   2.030  18.421   5.828
 3317POPC   C1A44127   1.701  18.177   6.138
 3317POPC   D2A44128   2.049  18.257   6.386
 3317POPC   C3A44129   1.968  18.189   6.815
 3317POPC   C4A44130   1.598  18.213   7.065
 3317POPC   C1B44131   2.311  18.650   6.162
 3317POPC   C2B44132   2.451  18.518   6.606
 3317POPC   C3B44133   2.328  18.574   7.054
 3317POPC   C4B44134   2.402  18.584   7.526
 3318POPC   NC344135   1.680  39.397   5.514
 3318POPC   PO444136   2.260  39.028   5.292
 3318POPC   GL144137   2.127  39.195   5.755
 3318POPC   GL244138   1.806  39.187   5.951
 3318POPC   C1A44139   2.222  39.087   6.223
 3318POPC   D2A44140   2.401  39.222   6.630
 3318POPC   C3A44141   2.187  39.169   7.050
 3318POPC   C4A44142   2.001  38.896   7.401
 3318POPC   C1B44143   1.703  38.952   6.310
 3318POPC   C2B44144   1.609  39.050   6.732
 3318POPC   C3B44145   1.681  39.190   7.122
 3318POPC   C4B44146   1.536  39.584   7.280
 3319POPC   NC344147  21.004  12.703   5.541
 3319POPC   PO444148  21.598  12.771   5.284
 3319POPC   GL144149  21.472  12.916   5.733
 3319POPC   GL244150  21.672  13.239   5.814
 3319POPC   C1A44151  21.274  12.792   6.174
 3319POPC   D2A44152  21.166  12.996   6.612
 3319POPC   C3A44153  21.348  12.882   7.026
 3319POPC   C4A44154  21.276  12.797   7.465
 3319POPC   C1B44155  21.730  13.054   6.249
 3319POPC   C2B44156  21.710  13.091   6.719
 3319POPC   C3B44157  21.810  13.033   7.180
 3319POPC   C4B44158  21.775  12.882   7.630
 3320POPC   NC344159  30.413   7.677   5.446
 3320POPC   PO444160  29.889   7.267   5.410
 3320POPC   GL144161  29.890   7.502   5.780
 3320POPC   GL244162  30.206   7.386   5.818
 3320POPC   C1A44163  29.905   7.360   6.219
 3320POPC   D2A44164  29.789   7.053   6.500
 3320POPC   C3A44165  29.652   7.235   6.848
 3320POPC   C4A44166  29.633   7.074   7.275
 3320POPC   C1B44167  30.263   7.739   6.139
 3320POPC   C2B44168  30.317   7.879   6.594
 3320POPC   C3B44169  30.317   7.516   6.913
 3320POPC   C4B44170  29.941   7.478   7.191
 3321POPC   NC344171   3.637   2.223   5.557
 3321POPC   PO444172   3.415   1.619   5.384
 3321POPC   GL144173   3.403   1.830   5.813
 3321POPC   GL244174   3.280   2.157   5.912
 3321POPC   C1A44175   3.288   1.777   6.287
 3321POPC   D2A44176   3.247   2.162   6.569
 3321POPC   C3A44177   3.447   2.200   7.018
 3321POPC   C4A44178   3.266   1.987   7.386
 3321POPC   C1B44179   3.647   2.124   6.197
 3321POPC   C2B44180   3.755   2.109   6.605
 3321POPC   C3B44181   3.915   1.995   6.996
 3321POPC   C4B44182   3.780   2.096   7.408
 3322POPC   NC344183  42.402  16.446   5.362
 3322POPC   PO444184  42.095  17.036   5.234
 3322POPC   GL144185  42.089  16.874   5.780
 3322POPC   GL244186  42.414  16.632   5.847
 3322POPC   C1A44187  42.139  16.770   6.266
 3322POPC   D2A44188  41.958  16.651   6.708
 3322POPC   C3A44189  42.033  16.907   7.079
 3322POPC   C4A44190  42.195  17.020   7.471
 3322POPC   C1B44191  42.524  16.390   6.243
 3322POPC   C2B44192  42.469  16.602   6.685
 3322POPC   C3B44193  42.467  16.635   7.149
 3322POPC   C4B44194  42.674  16.368   7.429
 3323POPC   NC344195   0.903  30.013   5.532
 3323POPC   PO444196   1.532  29.903   5.270
 3323POPC   GL144197   1.409  29.997   5.717
 3323POPC   GL244198   1.416  29.644   5.843
 3323POPC   C1A44199   1.331  30.003   6.209
 3323POPC   D2A44200   1.384  29.766   6.636
 3323POPC   C3A44201   1.263  29.924   7.060
 3323POPC   C4A44202   1.400  30.215   7.450
 3323POPC   C1B44203   1.131  29.519   6.184
 3323POPC   C2B44204   0.946  29.543   6.556
 3323POPC   C3B44205   1.042  29.442   6.920
 3323POPC   C4B44206   0.942  29.556   7.286
 3324POPC   NC344207  26.296  26.903   5.277
 3324POPC   PO444208  26.900  26.568   5.421
 3324POPC   GL144209  26.841  26.704   5.859
 3324POPC   GL244210  26.823  27.081   5.883
 3324POPC   C1A44211  26.584  26.728   6.258
 3324POPC   D2A44212  26.331  26.575   6.619
 3324POPC   C3A44213  26.524  26.539   7.039
 3324POPC   C4A44214  26.670  26.643   7.466
 3324POPC   C1B44215  26.597  27.262   6.271
 3324POPC   C2B44216  26.487  27.116   6.700
 3324POPC   C3B44217  26.703  27.046   7.100
 3324POPC   C4B44218  27.105  26.841   7.227
 3325POPC   NC344219   2.478  42.185   5.312
 3325POPC   PO444220   2.992  42.477   5.576
 3325POPC   GL144221   2.847  42.274   5.943
 3325POPC   GL244222   2.492  42.166   5.857
 3325POPC   C1A44223   2.965  42.153   6.383
 3325POPC   D2A44224   2.762  42.239   6.755
 3325POPC   C3A44225   3.064  42.324   7.093
 3325POPC   C4A44226   3.061  42.599   7.464
 3325POPC   C1B44227   2.388  42.568   6.117
 3325POPC   C2B44228   2.432  42.800   6.548
 3325POPC   C3B44229   2.429  42.674   6.995
 3325POPC   C4B44230   2.571  42.316   7.220
 3326POPC   NC344231  36.534  26.216   5.763
 3326POPC   PO444232  36.410  25.836   5.170
 3326POPC   GL144233  36.157  25.897   5.611
 3326POPC   GL244234  35.940  26.171   5.804
 3326POPC   C1A44235  36.129  25.824   6.112
 3326POPC   D2A44236  36.354  25.848   6.540
 3326POPC   C3A44237  36.083  25.973   6.910
 3326POPC   C4A44238  35.802  25.856   7.258
 3326POPC   C1B44239  36.066  26.396   6.222
 3326POPC   C2B44240  36.371  26.535   6.536
 3326POPC   C3B44241  36.271  26.527   6.984
 3326POPC   C4B44242  35.931  26.370   7.250
 3327POPC   NC344243  41.539  19.188   4.940
 3327POPC   PO444244  41.599  19.393   5.560
 3327POPC   GL144245  41.442  18.953   5.734
 3327POPC   GL244246  41.737  18.762   5.909
 3327POPC   C1A44247  41.333  18.946   6.170
 3327POPC   D2A44248  41.358  19.328   6.455
 3327POPC   C3A44249  41.355  19.177   6.883
 3327POPC   C4A44250  41.446  19.107   7.328
 3327POPC   C1B44251  41.701  18.632   6.304
 3327POPC   C2B44252  41.736  18.966   6.578
 3327POPC   C3B44253  41.810  18.997   6.991
 3327POPC   C4B44254  41.805  18.714   7.329
 3328POPC   NC344255   5.105  30.124   5.172
 3328POPC   PO444256   5.422  29.547   5.381
 3328POPC   GL144257   5.198  29.766   5.741
 3328POPC   GL244258   5.087  30.139   5.744
 3328POPC   C1A44259   5.366  29.886   6.114
 3328POPC   D2A44260   5.455  29.740   6.481
 3328POPC   C3A44261   5.355  29.937   6.837
 3328POPC   C4A44262   5.409  29.780   7.228
 3328POPC   C1B44263   4.894  30.035   6.207
 3328POPC   C2B44264   4.895  30.109   6.674
 3328POPC   C3B44265   4.900  29.980   7.143
 3328POPC   C4B44266   4.656  30.013   7.576
 3329POPC   NC344267  15.196   0.001   5.512
 3329POPC   PO444268  15.092  44.363   5.398
 3329POPC   GL144269  15.179  44.531   5.784
 3329POPC   GL244270  15.550  44.446   5.746
 3329POPC   C1A44271  15.014  44.636   6.214
 3329POPC   D2A44272  15.219  44.845   6.560
 3329POPC   C3A44273  15.204  44.677   6.954
 3329POPC   C4A44274  15.244  44.813   7.360
 3329POPC   C1B44275  15.447  44.345   6.193
 3329POPC   C2B44276  15.555  44.458   6.640
 3329POPC   C3B44277  15.655  44.503   7.100
 3329POPC   C4B44278  15.459  44.394   7.511
 3330POPC   NC344279  37.770  25.700   5.354
 3330POPC   PO444280  37.986  25.043   5.272
 3330POPC   GL144281  37.757  25.219   5.629
 3330POPC   GL244282  38.077  25.259   5.811
 3330POPC   C1A44283  37.650  25.445   6.018
 3330POPC   D2A44284  37.652  25.513   6.452
 3330POPC   C3A44285  37.528  25.304   6.838
 3330POPC   C4A44286  37.346  25.498   7.203
 3330POPC   C1B44287  38.127  25.461   6.250
 3330POPC   C2B44288  38.052  25.349   6.704
 3330POPC   C3B44289  37.955  25.116   7.068
 3330POPC   C4B44290  37.853  25.479   7.328
 3331POPC   NC344291  14.485  36.416   5.410
 3331POPC   PO444292  14.153  35.854   5.215
 3331POPC   GL144293  14.333  35.877   5.718
 3331POPC   GL244294  14.545  36.168   5.852
 3331POPC   C1A44295  14.598  35.795   6.181
 3331POPC   D2A44296  14.621  36.009   6.603
 3331POPC   C3A44297  14.767  35.843   7.048
 3331POPC   C4A44298  14.723  35.927   7.518
 3331POPC   C1B44299  14.240  36.155   6.191
 3331POPC   C2B44300  14.126  36.344   6.605
 3331POPC   C3B44301  14.446  36.473   6.830
 3331POPC   C4B44302  14.532  36.308   7.221
 3332POPC   NC344303  10.292   4.566   5.347
 3332POPC   PO444304  10.934   4.405   5.226
 3332POPC   GL144305  10.779   4.419   5.690
 3332POPC   GL244306  10.428   4.278   5.753
 3332POPC   C1A44307  10.657   4.567   6.121
 3332POPC   D2A44308  10.466   4.649   6.546
 3332POPC   C3A44309  10.725   4.592   6.896
 3332POPC   C4A44310  10.688   4.318   7.230
 3332POPC   C1B44311  10.245   4.037   6.114
 3332POPC   C2B44312  10.218   4.026   6.562
 3332POPC   C3B44313  10.306   4.300   6.891
 3332POPC   C4B44314  10.191   4.307   7.295
 3333POPC   NC344315   4.745  34.215   5.636
 3333POPC   PO444316   5.186  34.635   5.301
 3333POPC   GL144317   4.998  34.671   5.737
 3333POPC   GL244318   5.255  34.426   5.826
 3333POPC   C1A44319   4.932  34.521   6.206
 3333POPC   D2A44320   5.113  34.387   6.597
 3333POPC   C3A44321   5.079  34.626   6.975
 3333POPC   C4A44322   4.936  34.537   7.397
 3333POPC   C1B44323   5.417  34.641   6.214
 3333POPC   C2B44324   5.422  34.904   6.593
 3333POPC   C3B44325   5.570  34.787   7.012
 3333POPC   C4B44326   5.429  34.469   7.324
 3334POPC   NC344327   7.800  12.206   5.321
 3334POPC   PO444328   7.291  11.760   5.284
 3334POPC   GL144329   7.251  11.933   5.685
 3334POPC   GL244330   7.547  12.132   5.763
 3334POPC   C1A44331   7.260  11.977   6.148
 3334POPC   D2A44332   7.534  11.902   6.517
 3334POPC   C3A44333   7.386  12.032   6.902
 3334POPC   C4A44334   7.316  12.134   7.303
 3334POPC   C1B44335   7.625  12.368   6.174
 3334POPC   C2B44336   7.594  12.428   6.643
 3334POPC   C3B44337   7.672  12.460   7.117
 3334POPC   C4B44338   7.742  12.255   7.542
 3335POPC   NC344339  27.070  39.589   5.491
 3335POPC   PO444340  26.890  38.893   5.389
 3335POPC   GL144341  26.912  39.183   5.761
 3335POPC   GL244342  27.141  39.434   5.971
 3335POPC   C1A44343  26.711  39.184   6.135
 3335POPC   D2A44344  26.859  39.056   6.541
 3335POPC   C3A44345  26.717  39.274   6.890
 3335POPC   C4A44346  26.600  39.043   7.226
 3335POPC   C1B44347  27.255  39.366   6.405
 3335POPC   C2B44348  27.354  39.017   6.698
 3335POPC   C3B44349  27.159  39.032   7.100
 3335POPC   C4B44350  27.007  39.421   7.298
 3336POPC   NC344351  24.733   4.657   5.494
 3336POPC   PO444352  24.357   4.082   5.407
 3336POPC   GL144353  24.425   4.281   5.768
 3336POPC   GL244354  24.150   4.111   5.921
 3336POPC   C1A44355  24.713   4.366   6.117
 3336POPC   D2A44356  24.730   4.191   6.516
 3336POPC   C3A44357  24.581   4.435   6.857
 3336POPC   C4A44358  24.726   4.495   7.281
 3336POPC   C1B44359  24.217   4.515   6.172
 3336POPC   C2B44360  24.114   4.635   6.603
 3336POPC   C3B44361  24.072   4.350   6.930
 3336POPC   C4B44362  24.277   4.199   7.262
 3337POPC   NC344363  43.637  33.289   5.422
 3337POPC   PO444364  44.030  32.793   5.709
 3337POPC   GL144365  43.743  33.019   5.888
 3337POPC   GL244366  43.559  32.749   5.932
 3337POPC   C1A44367  43.830  33.188   6.300
 3337POPC   D2A44368  44.186  33.133   6.623
 3337POPC   C3A44369  44.085  33.208   7.058
 3337POPC   C4A44370  43.690  33.374   7.119
 3337POPC   C1B44371  43.370  32.667   6.269
 3337POPC   C2B44372  43.604  32.822   6.582
 3337POPC   C3B44373  43.904  32.763   6.877
 3337POPC   C4B44374  43.750  32.855   7.254
 3338POPC   NC344375   8.805  33.025   5.312
 3338POPC   PO444376   9.156  33.524   5.466
 3338POPC   GL144377   8.940  33.245   5.778
 3338POPC   GL244378   8.863  32.870   5.796
 3338POPC   C1A44379   9.095  33.213   6.192
 3338POPC   D2A44380   8.871  33.267   6.596
 3338POPC   C3A44381   9.117  33.107   6.929
 3338POPC   C4A44382   9.255  33.043   7.332
 3338POPC   C1B44383   8.698  32.913   6.216
 3338POPC   C2B44384   8.793  32.748   6.615
 3338POPC   C3B44385   8.656  32.925   7.018
 3338POPC   C4B44386   8.757  33.029   7.454
 3339POPC   NC344387  41.567  13.927   5.411
 3339POPC   PO444388  41.488  14.608   5.344
 3339POPC   GL144389  41.609  14.366   5.738
 3339POPC   GL244390  41.345  14.110   5.836
 3339POPC   C1A44391  41.627  14.393   6.226
 3339POPC   D2A44392  41.523  14.399   6.698
 3339POPC   C3A44393  41.744  14.691   7.041
 3339POPC   C4A44394  41.662  14.622   7.549
 3339POPC   C1B44395  41.134  14.158   6.230
 3339POPC   C2B44396  41.142  13.969   6.622
 3339POPC   C3B44397  41.157  14.162   7.000
 3339POPC   C4B44398  41.475  14.300   7.216
 3340POPC   NC344399  41.065  28.465   5.116
 3340POPC   PO444400  40.618  28.122   5.352
 3340POPC   GL144401  40.648  28.230   5.771
 3340POPC   GL244402  40.463  27.920   5.821
 3340POPC   C1A44403  40.655  28.240   6.226
 3340POPC   D2A44404  40.669  28.489   6.611
 3340POPC   C3A44405  40.837  28.424   7.035
 3340POPC   C4A44406  41.058  28.275   7.451
 3340POPC   C1B44407  40.306  27.862   6.246
 3340POPC   C2B44408  40.517  27.972   6.649
 3340POPC   C3B44409  40.637  27.961   7.052
 3340POPC   C4B44410  40.387  27.813   7.376
 3341POPC   NC344411  21.735   7.497   5.589
 3341POPC   PO444412  22.213   7.362   5.118
 3341POPC   GL144413  22.248   7.476   5.627
 3341POPC   GL244414  22.084   7.206   5.817
 3341POPC   C1A44415  22.206   7.554   6.155
 3341POPC   D2A44416  22.426   7.558   6.615
 3341POPC   C3A44417  22.212   7.556   7.044
 3341POPC   C4A44418  22.328   7.797   7.435
 3341POPC   C1B44419  22.256   7.036   6.200
 3341POPC   C2B44420  22.079   6.960   6.572
 3341POPC   C3B44421  22.216   6.989   6.972
 3341POPC   C4B44422  22.005   7.132   7.294
 3342POPC   NC344423  38.739  30.731   5.468
 3342POPC   PO444424  38.115  30.927   5.362
 3342POPC   GL144425  38.261  30.735   5.715
 3342POPC   GL244426  38.478  30.974   5.827
 3342POPC   C1A44427  38.364  30.505   6.052
 3342POPC   D2A44428  38.259  30.521   6.483
 3342POPC   C3A44429  38.501  30.423   6.831
 3342POPC   C4A44430  38.498  30.613   7.236
 3342POPC   C1B44431  38.571  30.903   6.261
 3342POPC   C2B44432  38.436  30.973   6.664
 3342POPC   C3B44433  38.503  31.083   7.079
 3342POPC   C4B44434  38.541  31.051   7.561
 3343POPC   NC344435  27.099  14.971   5.261
 3343POPC   PO444436  26.539  15.240   5.358
 3343POPC   GL144437  26.626  15.106   5.747
 3343POPC   GL244438  26.941  15.105   5.729
 3343POPC   C1A44439  26.706  15.385   6.117
 3343POPC   D2A44440  26.962  15.423   6.492
 3343POPC   C3A44441  26.768  15.273   6.880
 3343POPC   C4A44442  26.940  15.431   7.275
 3343POPC   C1B44443  26.938  14.917   6.150
 3343POPC   C2B44444  27.050  14.925   6.596
 3343POPC   C3B44445  27.057  14.868   7.064
 3343POPC   C4B44446  26.685  14.988   7.312
 3344POPC   NC344447  41.260  41.433   5.532
 3344POPC   PO444448  41.854  41.819   5.417
 3344POPC   GL144449  41.573  41.773   5.759
 3344POPC   GL244450  41.280  41.983   5.776
 3344POPC   C1A44451  41.609  41.554   6.161
 3344POPC   D2A44452  41.485  41.289   6.529
 3344POPC   C3A44453  41.554  41.516   6.906
 3344POPC   C4A44454  41.869  41.633   7.186
 3344POPC   C1B44455  41.169  41.819   6.141
 3344POPC   C2B44456  41.347  41.821   6.524
 3344POPC   C3B44457  41.180  41.888   6.883
 3344POPC   C4B44458  41.371  41.826   7.260
 3345POPC   NC344459   9.644  38.292   5.628
 3345POPC   PO444460  10.061  38.605   5.270
 3345POPC   GL144461   9.908  38.706   5.734
 3345POPC   GL244462   9.951  38.394   6.020
 3345POPC   C1A44463   9.797  38.838   6.167
 3345POPC   D2A44464   9.810  38.540   6.510
 3345POPC   C3A44465   9.711  38.590   6.929
 3345POPC   C4A44466   9.773  38.303   7.269
 3345POPC   C1B44467   9.573  38.153   6.228
 3345POPC   C2B44468   9.295  38.215   6.511
 3345POPC   C3B44469   9.441  38.151   6.865
 3345POPC   C4B44470   9.331  38.089   7.229
 3346POPC   NC344471  18.199  35.625   5.380
 3346POPC   PO444472  18.192  35.010   5.199
 3346POPC   GL144473  18.388  35.215   5.624
 3346POPC   GL244474  18.105  35.333   5.821
 3346POPC   C1A44475  18.525  35.409   6.069
 3346POPC   D2A44476  18.509  35.256   6.514
 3346POPC   C3A44477  18.457  35.457   6.900
 3346POPC   C4A44478  18.264  35.512   7.283
 3346POPC   C1B44479  18.050  35.305   6.281
 3346POPC   C2B44480  17.939  35.379   6.736
 3346POPC   C3B44481  17.791  35.641   7.112
 3346POPC   C4B44482  17.803  35.707   7.570
 3347POPC   NC344483  28.835   2.804   5.439
 3347POPC   PO444484  29.463   2.699   5.329
 3347POPC   GL144485  29.310   2.988   5.655
 3347POPC   GL244486  29.200   2.717   5.831
 3347POPC   C1A44487  29.256   3.118   6.134
 3347POPC   D2A44488  29.300   2.937   6.557
 3347POPC   C3A44489  29.191   3.132   6.937
 3347POPC   C4A44490  29.222   2.893   7.326
 3347POPC   C1B44491  29.006   2.673   6.245
 3347POPC   C2B44492  28.825   2.589   6.578
 3347POPC   C3B44493  28.939   2.674   6.930
 3347POPC   C4B44494  28.901   2.403   7.240
 3348POPC   NC344495   0.893   2.217   5.335
 3348POPC   PO444496   0.230   2.258   5.152
 3348POPC   GL144497   0.252   2.171   5.627
 3348POPC   GL244498   0.091   1.858   5.735
 3348POPC   C1A44499   0.447   2.044   6.070
 3348POPC   D2A44500   0.430   1.844   6.518
 3348POPC   C3A44501   0.539   2.050   6.925
 3348POPC   C4A44502   0.909   2.157   7.178
 3348POPC   C1B44503   0.050   1.699   6.171
 3348POPC   C2B44504  44.992   1.568   6.612
 3348POPC   C3B44505   0.114   1.756   7.033
 3348POPC   C4B44506   0.077   1.739   7.505
 3349POPC   NC344507  37.327  33.389   5.102
 3349POPC   PO444508  37.889  32.989   5.253
 3349POPC   GL144509  37.897  32.979   5.763
 3349POPC   GL244510  37.553  32.899   5.859
 3349POPC   C1A44511  37.823  33.205   6.207
 3349POPC   D2A44512  37.986  33.241   6.677
 3349POPC   C3A44513  37.878  33.255   7.148
 3349POPC   C4A44514  37.902  33.061   7.560
 3349POPC   C1B44515  37.274  32.924   6.213
 3349POPC   C2B44516  37.119  33.105   6.585
 3349POPC   C3B44517  37.182  32.977   7.008
 3349POPC   C4B44518  37.432  32.969   7.382
 3350POPC   NC344519  33.592  28.105   5.456
 3350POPC   PO444520  33.788  27.450   5.614
 3350POPC   GL144521  33.681  27.558   5.984
 3350POPC   GL244522  33.973  27.363   6.116
 3350POPC   C1A44523  33.656  27.799   6.361
 3350POPC   D2A44524  33.875  27.928   6.766
 3350POPC   C3A44525  33.780  27.713   7.147
 3350POPC   C4A44526  33.355  27.526   7.195
 3350POPC   C1B44527  33.662  27.276   6.406
 3350POPC   C2B44528  33.578  27.462   6.740
 3350POPC   C3B44529  33.683  27.185   7.005
 3350POPC   C4B44530  34.065  27.276   7.127
 3351POPC   NC344531  36.229  43.995   5.456
 3351POPC   PO444532  35.912  43.373   5.433
 3351POPC   GL144533  35.965  43.709   5.807
 3351POPC   GL244534  36.281  43.916   5.941
 3351POPC   C1A44535  35.961  43.775   6.281
 3351POPC   D2A44536  36.162  44.034   6.622
 3351POPC   C3A44537  35.952  43.917   6.994
 3351POPC   C4A44538  35.815  44.146   7.343
 3351POPC   C1B44539  36.562  44.165   6.195
 3351POPC   C2B44540  36.733  44.127   6.612
 3351POPC   C3B44541  36.511  44.223   6.986
 3351POPC   C4B44542  36.315  44.045   7.346
 3352POPC   NC344543   7.295  31.552   5.406
 3352POPC   PO444544   6.617  31.567   5.381
 3352POPC   GL144545   6.599  31.650   5.785
 3352POPC   GL244546   6.730  31.982   5.818
 3352POPC   C1A44547   6.731  31.472   6.182
 3352POPC   D2A44548   6.565  31.197   6.496
 3352POPC   C3A44549   6.807  31.196   6.858
 3352POPC   C4A44550   6.829  31.375   7.214
 3352POPC   C1B44551   6.472  31.944   6.181
 3352POPC   C2B44552   6.311  31.670   6.482
 3352POPC   C3B44553   6.559  31.665   6.860
 3352POPC   C4B44554   6.468  31.781   7.285
 3353POPC   NC344555  42.744  14.261   5.315
 3353POPC   PO444556  43.451  14.419   5.293
 3353POPC   GL144557  43.114  14.393   5.659
 3353POPC   GL244558  42.831  14.143   5.791
 3353POPC   C1A44559  43.034  14.508   6.107
 3353POPC   D2A44560  43.072  14.376   6.552
 3353POPC   C3A44561  43.001  14.601   6.927
 3353POPC   C4A44562  42.964  14.788   7.355
 3353POPC   C1B44563  42.845  14.046   6.238
 3353POPC   C2B44564  42.679  14.064   6.680
 3353POPC   C3B44565  42.903  13.931   7.066
 3353POPC   C4B44566  42.739  13.846   7.489
 3354POPC   NC344567  21.705  40.667   5.567
 3354POPC   PO444568  22.330  40.854   5.327
 3354POPC   GL144569  22.186  40.887   5.769
 3354POPC   GL244570  21.982  41.203   5.749
 3354POPC   C1A44571  22.204  40.667   6.207
 3354POPC   D2A44572  22.479  40.455   6.565
 3354POPC   C3A44573  22.357  40.561   7.024
 3354POPC   C4A44574  22.342  40.489   7.482
 3354POPC   C1B44575  22.118  41.204   6.192
 3354POPC   C2B44576  21.956  41.017   6.560
 3354POPC   C3B44577  21.828  40.849   6.941
 3354POPC   C4B44578  21.956  41.059   7.283
 3355POPC   NC344579  34.169  12.484   5.402
 3355POPC   PO444580  34.800  12.691   5.408
 3355POPC   GL144581  34.613  12.727   5.801
 3355POPC   GL244582  34.765  13.029   5.887
 3355POPC   C1A44583  34.598  12.678   6.258
 3355POPC   D2A44584  34.793  12.876   6.607
 3355POPC   C3A44585  34.535  12.834   6.938
 3355POPC   C4A44586  34.541  12.547   7.267
 3355POPC   C1B44587  34.370  13.125   6.124
 3355POPC   C2B44588  34.389  13.201   6.558
 3355POPC   C3B44589  34.427  13.334   6.970
 3355POPC   C4B44590  34.310  13.089   7.339
 3356POPC   NC344591  39.647  21.128   5.503
 3356POPC   PO444592  40.186  21.535   5.510
 3356POPC   GL144593  40.051  21.734   5.886
 3356POPC   GL244594  39.731  21.607   5.836
 3356POPC   C1A44595  40.141  21.677   6.302
 3356POPC   D2A44596  40.254  21.293   6.479
 3356POPC   C3A44597  40.200  21.368   6.882
 3356POPC   C4A44598  40.203  21.244   7.295
 3356POPC   C1B44599  39.818  21.280   6.165
 3356POPC   C2B44600  39.738  21.319   6.611
 3356POPC   C3B44601  39.733  21.430   7.055
 3356POPC   C4B44602  39.737  21.157   7.429
 3357POPC   NC344603  35.186  22.265   5.031
 3357POPC   PO444604  35.521  21.891   5.449
 3357POPC   GL144605  35.397  22.153   5.829
 3357POPC   GL244606  35.056  22.271   5.875
 3357POPC   C1A44607  35.586  22.107   6.238
 3357POPC   D2A44608  35.806  21.971   6.616
 3357POPC   C3A44609  35.593  22.210   6.880
 3357POPC   C4A44610  35.431  22.290   7.261
 3357POPC   C1B44611  35.094  21.922   6.192
 3357POPC   C2B44612  35.231  21.887   6.605
 3357POPC   C3B44613  35.074  22.150   6.944
 3357POPC   C4B44614  35.018  22.063   7.413
 3358POPC   NC344615  43.287  42.186   5.432
 3358POPC   PO444616  42.869  42.697   5.184
 3358POPC   GL144617  43.087  42.613   5.644
 3358POPC   GL244618  43.475  42.620   5.610
 3358POPC   C1A44619  43.030  42.412   6.115
 3358POPC   D2A44620  42.948  42.522   6.588
 3358POPC   C3A44621  43.031  42.271   6.983
 3358POPC   C4A44622  43.021  42.206   7.458
 3358POPC   C1B44623  43.520  42.585   6.039
 3358POPC   C2B44624  43.552  42.442   6.461
 3358POPC   C3B44625  43.440  42.552   6.877
 3358POPC   C4B44626  43.271  42.623   7.280
 3359POPC   NC344627   8.304  42.968   5.158
 3359POPC   PO444628   7.640  43.157   5.282
 3359POPC   GL144629   7.987  43.077   5.609
 3359POPC   GL244630   8.143  43.373   5.769
 3359POPC   C1A44631   8.307  42.919   5.944
 3359POPC   D2A44632   8.289  42.929   6.437
 3359POPC   C3A44633   8.323  43.087   6.864
 3359POPC   C4A44634   8.289  42.903   7.256
 3359POPC   C1B44635   7.905  43.179   6.140
 3359POPC   C2B44636   7.918  43.294   6.588
 3359POPC   C3B44637   7.892  43.318   7.040
 3359POPC   C4B44638   8.236  43.408   7.334
 3360POPC   NC344639   8.271  17.237   5.205
 3360POPC   PO444640   8.145  17.822   5.512
 3360POPC   GL144641   8.251  17.555   5.860
 3360POPC   GL244642   8.184  17.213   5.729
 3360POPC   C1A44643   8.272  17.523   6.339
 3360POPC   D2A44644   8.434  17.228   6.662
 3360POPC   C3A44645   8.352  17.370   7.061
 3360POPC   C4A44646   8.040  17.681   7.140
 3360POPC   C1B44647   7.930  17.188   6.106
 3360POPC   C2B44648   7.935  17.082   6.544
 3360POPC   C3B44649   7.877  17.211   6.956
 3360POPC   C4B44650   7.717  17.258   7.338
 3361POPC   NC344651  21.056   7.793   5.367
 3361POPC   PO444652  21.428   7.183   5.474
 3361POPC   GL144653  21.482   7.140   5.886
 3361POPC   GL244654  21.105   7.211   5.883
 3361POPC   C1A44655  21.749   7.289   6.234
 3361POPC   D2A44656  21.929   7.464   6.590
 3361POPC   C3A44657  21.739   7.346   6.941
 3361POPC   C4A44658  21.592   7.419   7.378
 3361POPC   C1B44659  21.261   7.537   6.151
 3361POPC   C2B44660  21.382   7.464   6.574
 3361POPC   C3B44661  21.270   7.537   6.977
 3361POPC   C4B44662  21.106   7.576   7.356
 3362POPC   NC344663  15.298   1.318   5.603
 3362POPC   PO444664  14.919   0.816   5.201
 3362POPC   GL144665  14.871   1.025   5.663
 3362POPC   GL244666  14.861   1.417   5.789
 3362POPC   C1A44667  15.082   0.908   6.073
 3362POPC   D2A44668  15.067   0.737   6.506
 3362POPC   C3A44669  15.292   0.981   6.807
 3362POPC   C4A44670  15.273   0.947   7.248
 3362POPC   C1B44671  14.875   1.396   6.224
 3362POPC   C2B44672  14.954   1.563   6.636
 3362POPC   C3B44673  15.097   1.397   7.056
 3362POPC   C4B44674  15.048   1.366   7.525
 3363POPC   NC344675  33.028   3.806   5.394
 3363POPC   PO444676  33.452   3.295   5.376
 3363POPC   GL144677  33.109   3.229   5.705
 3363POPC   GL244678  33.148   3.563   5.836
 3363POPC   C1A44679  32.944   3.262   6.171
 3363POPC   D2A44680  33.131   3.554   6.501
 3363POPC   C3A44681  33.015   3.534   6.938
 3363POPC   C4A44682  33.024   3.308   7.332
 3363POPC   C1B44683  32.928   3.865   6.130
 3363POPC   C2B44684  33.034   4.116   6.522
 3363POPC   C3B44685  33.121   4.062   6.976
 3363POPC   C4B44686  33.137   3.803   7.360
 3364POPC   NC344687  32.790   9.523   5.351
 3364POPC   PO444688  32.231   9.910   5.385
 3364POPC   GL144689  32.277   9.887   5.799
 3364POPC   GL244690  32.044   9.628   5.847
 3364POPC   C1A44691  32.467   9.712   6.189
 3364POPC   D2A44692  32.531   9.490   6.590
 3364POPC   C3A44693  32.546   9.744   6.966
 3364POPC   C4A44694  32.264   9.914   7.279
 3364POPC   C1B44695  31.913   9.922   6.163
 3364POPC   C2B44696  31.896  10.051   6.606
 3364POPC   C3B44697  31.792  10.163   7.039
 3364POPC   C4B44698  31.893  10.211   7.512
 3365POPC   NC344699  32.767  29.936   5.475
 3365POPC   PO444700  33.507  30.174   5.481
 3365POPC   GL144701  33.361  29.994   5.859
 3365POPC   GL244702  33.169  29.696   5.837
 3365POPC   C1A44703  33.311  29.913   6.311
 3365POPC   D2A44704  33.140  30.193   6.603
 3365POPC   C3A44705  33.149  30.086   7.017
 3365POPC   C4A44706  32.757  30.051   7.176
 3365POPC   C1B44707  32.938  29.565   6.234
 3365POPC   C2B44708  32.963  29.705   6.690
 3365POPC   C3B44709  33.016  29.600   7.140
 3365POPC   C4B44710  32.812  29.649   7.539
 3366POPC   NC344711  21.239  10.151   5.586
 3366POPC   PO444712  21.395   9.588   5.400
 3366POPC   GL144713  21.228   9.674   5.809
 3366POPC   GL244714  21.541   9.769   5.920
 3366POPC   C1A44715  21.175   9.775   6.277
 3366POPC   D2A44716  21.232   9.527   6.664
 3366POPC   C3A44717  21.259   9.664   7.112
 3366POPC   C4A44718  21.365   9.812   7.538
 3366POPC   C1B44719  21.663   9.740   6.376
 3366POPC   C2B44720  21.550   9.934   6.780
 3366POPC   C3B44721  21.705   9.970   7.202
 3366POPC   C4B44722  21.631  10.237   7.592
 3367POPC   NC344723  36.706  29.252   5.380
 3367POPC   PO444724  37.262  28.991   5.533
 3367POPC   GL144725  36.934  29.125   5.809
 3367POPC   GL244726  36.653  28.899   5.783
 3367POPC   C1A44727  36.878  29.135   6.229
 3367POPC   D2A44728  37.039  28.858   6.505
 3367POPC   C3A44729  36.965  29.047   6.880
 3367POPC   C4A44730  37.178  28.904   7.241
 3367POPC   C1B44731  36.564  28.738   6.193
 3367POPC   C2B44732  36.532  28.912   6.610
 3367POPC   C3B44733  36.541  28.877   7.069
 3367POPC   C4B44734  36.787  29.213   7.333
 3368POPC   NC344735   4.244   0.866   5.132
 3368POPC   PO444736   4.260   1.376   5.532
 3368POPC   GL144737   4.284   1.207   5.877
 3368POPC   GL244738   4.076   0.952   5.783
 3368POPC   C1A44739   4.327   1.261   6.306
 3368POPC   D2A44740   4.205   1.012   6.637
 3368POPC   C3A44741   4.067   1.264   6.989
 3368POPC   C4A44742   4.360   1.261   7.317
 3368POPC   C1B44743   3.893   1.031   6.175
 3368POPC   C2B44744   3.697   1.078   6.577
 3368POPC   C3B44745   3.814   0.829   6.894
 3368POPC   C4B44746   4.106   0.802   7.245
 3369POPC   NC344747   2.882  43.869   5.218
 3369POPC   PO444748   3.126  43.390   5.602
 3369POPC   GL144749   3.055  43.817   5.726
 3369POPC   GL244750   2.698  43.946   5.706
 3369POPC   C1A44751   3.117  44.000   6.128
 3369POPC   D2A44752   2.871  43.907   6.515
 3369POPC   C3A44753   3.014  43.943   6.932
 3369POPC   C4A44754   2.723  44.090   7.222
 3369POPC   C1B44755   2.555  43.818   6.115
 3369POPC   C2B44756   2.337  43.806   6.510
 3369POPC   C3B44757   2.524  43.715   6.917
 3369POPC   C4B44758   2.852  43.511   7.141
 3370POPC   NC344759  35.291  34.768   5.385
 3370POPC   PO444760  35.649  34.199   5.503
 3370POPC   GL144761  35.340  34.358   5.828
 3370POPC   GL244762  35.199  34.706   5.882
 3370POPC   C1A44763  35.197  34.309   6.268
 3370POPC   D2A44764  35.431  34.217   6.676
 3370POPC   C3A44765  35.140  34.164   7.031
 3370POPC   C4A44766  35.016  34.556   7.186
 3370POPC   C1B44767  35.481  34.734   6.240
 3370POPC   C2B44768  35.381  34.719   6.682
 3370POPC   C3B44769  35.549  34.602   7.093
 3370POPC   C4B44770  35.640  34.990   7.297
 3371POPC   NC344771  39.017  13.383   5.164
 3371POPC   PO444772  39.195  12.757   5.448
 3371POPC   GL144773  39.211  12.841   5.916
 3371POPC   GL244774  39.094  13.157   5.867
 3371POPC   C1A44775  39.354  13.135   6.298
 3371POPC   D2A44776  39.437  13.381   6.702
 3371POPC   C3A44777  39.416  13.095   7.046
 3371POPC   C4A44778  39.508  12.678   7.236
 3371POPC   C1B44779  38.817  13.076   6.204
 3371POPC   C2B44780  38.876  12.880   6.569
 3371POPC   C3B44781  38.800  13.019   6.957
 3371POPC   C4B44782  39.028  12.830   7.255
 3372POPC   NC344783  23.639   0.846   5.473
 3372POPC   PO444784  23.535   0.253   5.260
 3372POPC   GL144785  23.601   0.420   5.730
 3372POPC   GL244786  23.875   0.693   5.880
 3372POPC   C1A44787  23.458   0.541   6.162
 3372POPC   D2A44788  23.589   0.307   6.546
 3372POPC   C3A44789  23.464   0.405   6.958
 3372POPC   C4A44790  23.351   0.141   7.302
 3372POPC   C1B44791  23.970   0.537   6.286
 3372POPC   C2B44792  24.041   0.457   6.736
 3372POPC   C3B44793  23.957   0.507   7.172
 3372POPC   C4B44794  23.993   0.607   7.609
 3373POPC   NC344795   4.875  27.520   5.386
 3373POPC   PO444796   5.442  27.490   5.205
 3373POPC   GL144797   5.407  27.491   5.678
 3373POPC   GL244798   5.094  27.551   5.855
 3373POPC   C1A44799   5.477  27.520   6.182
 3373POPC   D2A44800   5.243  27.588   6.620
 3373POPC   C3A44801   5.390  27.452   7.065
 3373POPC   C4A44802   5.275  27.204   7.475
 3373POPC   C1B44803   5.088  27.862   6.214
 3373POPC   C2B44804   4.877  27.960   6.633
 3373POPC   C3B44805   4.888  27.660   7.000
 3373POPC   C4B44806   5.064  27.658   7.420
 3374POPC   NC344807  36.349  31.785   5.561
 3374POPC   PO444808  35.841  31.429   5.332
 3374POPC   GL144809  36.089  31.411   5.768
 3374POPC   GL244810  35.976  31.620   6.000
 3374POPC   C1A44811  36.356  31.349   6.174
 3374POPC   D2A44812  36.138  31.341   6.594
 3374POPC   C3A44813  36.291  31.478   7.013
 3374POPC   C4A44814  36.202  31.547   7.447
 3374POPC   C1B44815  35.735  31.838   6.313
 3374POPC   C2B44816  35.506  31.781   6.680
 3374POPC   C3B44817  35.711  31.697   7.072
 3374POPC   C4B44818  35.866  31.918   7.427
 3375POPC   NC344819  29.595  29.979   5.419
 3375POPC   PO444820  30.220  30.256   5.377
 3375POPC   GL144821  30.111  29.967   5.748
 3375POPC   GL244822  29.779  29.846   5.877
 3375POPC   C1A44823  30.154  29.996   6.218
 3375POPC   D2A44824  30.140  29.724   6.555
 3375POPC   C3A44825  29.872  29.879   6.875
 3375POPC   C4A44826  29.805  29.907   7.321
 3375POPC   C1B44827  29.660  30.070   6.281
 3375POPC   C2B44828  29.922  30.312   6.574
 3375POPC   C3B44829  29.837  30.407   6.999
 3375POPC   C4B44830  29.446  30.272   7.229
 3376POPC   NC344831  24.571  27.972   5.203
 3376POPC   PO444832  24.243  28.595   5.444
 3376POPC   GL144833  24.485  28.617   5.845
 3376POPC   GL244834  24.526  28.275   5.964
 3376POPC   C1A44835  24.514  28.621   6.334
 3376POPC   D2A44836  24.192  28.595   6.694
 3376POPC   C3A44837  24.379  28.473   7.094
 3376POPC   C4A44838  24.382  28.110   7.369
 3376POPC   C1B44839  24.844  28.092   6.251
 3376POPC   C2B44840  24.874  28.268   6.644
 3376POPC   C3B44841  24.811  28.130   7.064
 3376POPC   C4B44842  24.822  27.882   7.432
 3377POPC   NC344843  33.323  37.875   5.386
 3377POPC   PO444844  33.940  37.606   5.288
 3377POPC   GL144845  33.775  37.790   5.678
 3377POPC   GL244846  33.556  37.551   5.807
 3377POPC   C1A44847  33.636  37.933   6.122
 3377POPC   D2A44848  33.638  37.701   6.507
 3377POPC   C3A44849  33.886  37.783   6.864
 3377POPC   C4A44850  33.693  37.900   7.232
 3377POPC   C1B44851  33.383  37.381   6.187
 3377POPC   C2B44852  33.496  37.213   6.602
 3377POPC   C3B44853  33.475  37.471   6.973
 3377POPC   C4B44854  33.532  37.449   7.429
 3378POPC   NC344855  12.357  21.592   5.392
 3378POPC   PO444856  11.774  21.301   5.513
 3378POPC   GL144857  12.052  21.455   5.823
 3378POPC   GL244858  12.208  21.195   6.037
 3378POPC   C1A44859  11.898  21.566   6.215
 3378POPC   D2A44860  11.979  21.388   6.619
 3378POPC   C3A44861  12.267  21.613   6.837
 3378POPC   C4A44862  12.330  21.678   7.248
 3378POPC   C1B44863  11.815  21.040   6.259
 3378POPC   C2B44864  11.649  20.920   6.693
 3378POPC   C3B44865  11.896  20.979   7.081
 3378POPC   C4B44866  12.282  21.181   7.114
 3379POPC   NC344867  30.085  11.663   5.435
 3379POPC   PO444868  29.501  12.000   5.408
 3379POPC   GL144869  29.704  11.826   5.773
 3379POPC   GL244870  29.974  12.057   5.757
 3379POPC   C1A44871  29.963  11.797   6.192
 3379POPC   D2A44872  30.177  11.844   6.599
 3379POPC   C3A44873  30.001  11.727   6.989
 3379POPC   C4A44874  29.795  11.909   7.318
 3379POPC   C1B44875  30.164  12.287   6.095
 3379POPC   C2B44876  30.118  12.374   6.508
 3379POPC   C3B44877  30.231  12.308   6.908
 3379POPC   C4B44878  30.017  12.410   7.262
 3380POPC   NC344879   9.419   9.963   5.459
 3380POPC   PO444880   9.897   9.530   5.336
 3380POPC   GL144881   9.780   9.660   5.707
 3380POPC   GL244882   9.502   9.481   5.805
 3380POPC   C1A44883   9.806   9.763   6.145
 3380POPC   D2A44884   9.718   9.497   6.508
 3380POPC   C3A44885   9.594   9.748   6.857
 3380POPC   C4A44886   9.521  10.047   7.199
 3380POPC   C1B44887   9.286   9.517   6.210
 3380POPC   C2B44888   9.181   9.475   6.673
 3380POPC   C3B44889   9.253   9.502   7.142
 3380POPC   C4B44890   9.657   9.544   7.334
 3381POPC   NC344891  12.026   8.049   5.051
 3381POPC   PO444892  11.967   8.349   5.474
 3381POPC   GL144893  11.741   8.465   5.856
 3381POPC   GL244894  12.028   8.549   6.034
 3381POPC   C1A44895  11.686   8.248   6.267
 3381POPC   D2A44896  11.883   8.255   6.680
 3381POPC   C3A44897  11.808   8.031   7.038
 3381POPC   C4A44898  11.929   8.285   7.375
 3381POPC   C1B44899  12.225   8.207   6.309
 3381POPC   C2B44900  12.326   7.997   6.749
 3381POPC   C3B44901  12.315   7.981   7.223
 3381POPC   C4B44902  11.969   7.792   7.471
 3382POPC   NC344903  27.151   3.042   5.416
 3382POPC   PO444904  27.198   3.685   5.178
 3382POPC   GL144905  27.259   3.739   5.674
 3382POPC   GL244906  27.281   3.399   5.775
 3382POPC   C1A44907  27.379   3.867   6.124
 3382POPC   D2A44908  27.507   3.686   6.581
 3382POPC   C3A44909  27.890   3.627   6.809
 3382POPC   C4A44910  27.897   3.558   7.269
 3382POPC   C1B44911  27.363   3.368   6.210
 3382POPC   C2B44912  27.748   3.254   6.481
 3382POPC   C3B44913  27.594   3.221   6.922
 3382POPC   C4B44914  27.245   3.449   7.125
 3383POPC   NC344915  20.112   9.307   5.450
 3383POPC   PO444916  19.891   9.983   5.506
 3383POPC   GL144917  19.737   9.851   5.925
 3383POPC   GL244918  19.932   9.526   5.906
 3383POPC   C1A44919  19.831   9.746   6.378
 3383POPC   D2A44920  19.853   9.423   6.690
 3383POPC   C3A44921  19.546   9.441   7.020
 3383POPC   C4A44922  19.472   9.875   7.171
 3383POPC   C1B44923  20.209   9.870   6.063
 3383POPC   C2B44924  20.332  10.006   6.427
 3383POPC   C3B44925  20.272   9.893   6.840
 3383POPC   C4B44926  19.968   9.705   7.125
 3384POPC   NC344927   5.282  21.629   5.332
 3384POPC   PO444928   4.814  21.251   5.300
 3384POPC   GL144929   4.947  21.316   5.742
 3384POPC   GL244930   4.691  21.390   5.952
 3384POPC   C1A44931   5.201  21.360   6.138
 3384POPC   D2A44932   5.469  21.296   6.490
 3384POPC   C3A44933   5.314  21.350   6.883
 3384POPC   C4A44934   5.173  21.383   7.280
 3384POPC   C1B44935   4.846  21.008   6.175
 3384POPC   C2B44936   5.043  20.985   6.582
 3384POPC   C3B44937   4.880  21.052   7.012
 3384POPC   C4B44938   4.846  21.038   7.492
 3385POPC   NC344939  36.483  35.184   5.213
 3385POPC   PO444940  36.040  35.704   5.421
 3385POPC   GL144941  36.144  35.579   5.826
 3385POPC   GL244942  36.417  35.362   5.740
 3385POPC   C1A44943  36.046  35.383   6.211
 3385POPC   D2A44944  36.214  35.366   6.631
 3385POPC   C3A44945  36.007  35.229   7.006
 3385POPC   C4A44946  36.238  35.444   7.326
 3385POPC   C1B44947  36.482  35.077   6.125
 3385POPC   C2B44948  36.513  34.946   6.571
 3385POPC   C3B44949  36.475  35.049   7.030
 3385POPC   C4B44950  36.504  34.930   7.478
 3386POPC   NC344951  34.011   6.168   5.459
 3386POPC   PO444952  33.577   5.696   5.381
 3386POPC   GL144953  33.615   5.570   5.799
 3386POPC   GL244954  33.979   5.603   5.794
 3386POPC   C1A44955  33.662   5.518   6.240
 3386POPC   D2A44956  33.469   5.719   6.591
 3386POPC   C3A44957  33.671   5.832   6.959
 3386POPC   C4A44958  33.511   5.921   7.364
 3386POPC   C1B44959  34.002   5.892   6.142
 3386POPC   C2B44960  34.083   5.876   6.586
 3386POPC   C3B44961  34.048   6.167   6.919
 3386POPC   C4B44962  33.913   6.240   7.317
 3387POPC   NC344963   2.735   7.837   5.552
 3387POPC   PO444964   2.368   8.294   5.222
 3387POPC   GL144965   2.548   8.308   5.678
 3387POPC   GL244966   2.905   8.248   5.799
 3387POPC   C1A44967   2.547   8.141   6.126
 3387POPC   D2A44968   2.721   8.116   6.544
 3387POPC   C3A44969   2.508   8.264   6.914
 3387POPC   C4A44970   2.650   8.365   7.344
 3387POPC   C1B44971   3.137   8.140   6.216
 3387POPC   C2B44972   3.205   8.243   6.676
 3387POPC   C3B44973   2.985   8.107   7.051
 3387POPC   C4B44974   2.977   8.031   7.536
 3388POPC   NC344975  13.132  43.012   5.390
 3388POPC   PO444976  12.611  43.440   5.532
 3388POPC   GL144977  12.782  43.098   5.801
 3388POPC   GL244978  13.126  43.015   5.899
 3388POPC   C1A44979  12.661  43.128   6.221
 3388POPC   D2A44980  12.564  42.936   6.598
 3388POPC   C3A44981  12.553  43.272   6.878
 3388POPC   C4A44982  12.590  43.202   7.279
 3388POPC   C1B44983  13.143  43.327   6.202
 3388POPC   C2B44984  12.993  43.287   6.615
 3388POPC   C3B44985  13.058  43.166   7.029
 3388POPC   C4B44986  13.060  43.121   7.457
 3389POPC   NC344987  43.238  21.735   5.484
 3389POPC   PO444988  43.043  21.036   5.309
 3389POPC   GL144989  43.058  21.285   5.744
 3389POPC   GL244990  42.939  21.632   5.877
 3389POPC   C1A44991  43.077  21.219   6.228
 3389POPC   D2A44992  43.288  21.038   6.623
 3389POPC   C3A44993  43.152  21.185   7.067
 3389POPC   C4A44994  42.795  21.154   7.341
 3389POPC   C1B44995  43.233  21.719   6.210
 3389POPC   C2B44996  43.210  21.561   6.640
 3389POPC   C3B44997  43.121  21.752   7.018
 3389POPC   C4B44998  43.487  21.622   7.186
 3390POPC   NC344999   1.660  34.369   5.370
 3390POPC   PO445000   2.282  34.555   5.391
 3390POPC   GL145001   2.048  34.459   5.781
 3390POPC   GL245002   2.016  34.778   5.940
 3390POPC   C1A45003   2.032  34.417   6.270
 3390POPC   D2A45004   1.825  34.624   6.627
 3390POPC   C3A45005   1.997  34.365   6.912
 3390POPC   C4A45006   2.137  34.372   7.320
 3390POPC   C1B45007   2.277  34.887   6.256
 3390POPC   C2B45008   2.352  34.704   6.636
 3390POPC   C3B45009   2.215  34.803   7.026
 3390POPC   C4B45010   2.113  35.078   7.309
 3391POPC   NC345011  15.292   9.517   5.450
 3391POPC   PO445012  15.113  10.147   5.492
 3391POPC   GL145013  15.145   9.943   5.873
 3391POPC   GL245014  15.478   9.856   5.834
 3391POPC   C1A45015  15.096   9.816   6.324
 3391POPC   D2A45016  15.042   9.668   6.779
 3391POPC   C3A45017  14.838   9.842   7.162
 3391POPC   C4A45018  14.621   9.799   7.598
 3391POPC   C1B45019  15.614   9.811   6.252
 3391POPC   C2B45020  15.455   9.962   6.664
 3391POPC   C3B45021  15.376   9.933   7.103
 3391POPC   C4B45022  15.655   9.866   7.484
 3392POPC   NC345023   2.651  23.351   5.271
 3392POPC   PO445024   2.920  23.965   5.293
 3392POPC   GL145025   2.721  23.777   5.693
 3392POPC   GL245026   2.544  23.463   5.756
 3392POPC   C1A45027   2.658  23.785   6.162
 3392POPC   D2A45028   2.763  24.090   6.492
 3392POPC   C3A45029   2.778  24.118   6.940
 3392POPC   C4A45030   2.503  24.221   7.240
 3392POPC   C1B45031   2.927  23.373   5.994
 3392POPC   C2B45032   2.925  23.431   6.459
 3392POPC   C3B45033   2.661  23.429   6.850
 3392POPC   C4B45034   2.593  23.706   7.227
 3393POPC   NC345035  44.833   2.032   5.304
 3393POPC   PO445036  44.168   1.785   5.410
 3393POPC   GL145037  44.527   1.867   5.735
 3393POPC   GL245038  44.728   2.196   5.786
 3393POPC   C1A45039  44.580   1.930   6.191
 3393POPC   D2A45040  44.437   2.081   6.579
 3393POPC   C3A45041  44.591   1.811   6.889
 3393POPC   C4A45042  44.542   1.929   7.295
 3393POPC   C1B45043  44.978   2.249   6.176
 3393POPC   C2B45044  44.965   2.097   6.623
 3393POPC   C3B45045  44.904   2.236   7.069
 3393POPC   C4B45046  44.918   2.209   7.539
 3394POPC   NC345047  38.887  32.438   5.019
 3394POPC   PO445048  38.977  31.897   5.476
 3394POPC   GL145049  39.242  31.997   5.830
 3394POPC   GL245050  39.515  32.244   5.839
 3394POPC   C1A45051  39.170  32.161   6.257
 3394POPC   D2A45052  39.062  32.392   6.637
 3394POPC   C3A45053  39.119  32.229   7.036
 3394POPC   C4A45054  39.451  32.010   7.165
 3394POPC   C1B45055  39.595  32.456   6.223
 3394POPC   C2B45056  39.544  32.259   6.617
 3394POPC   C3B45057  39.590  32.465   6.975
 3394POPC   C4B45058  39.657  32.427   7.387
 3395POPC   NC345059  32.589  44.681   5.639
 3395POPC   PO445060  32.256   0.106   5.253
 3395POPC   GL145061  32.185   0.101   5.743
 3395POPC   GL245062  32.134  44.758   5.898
 3395POPC   C1A45063  32.283   0.100   6.211
 3395POPC   D2A45064  32.401  44.713   6.421
 3395POPC   C3A45065  32.304  44.748   6.870
 3395POPC   C4A45066  32.463  44.757   7.295
 3395POPC   C1B45067  32.025  44.436   6.191
 3395POPC   C2B45068  32.127  44.286   6.587
 3395POPC   C3B45069  31.969  44.359   6.981
 3395POPC   C4B45070  32.077  44.202   7.380
 3396POPC   NC345071  27.271  19.590   5.464
 3396POPC   PO445072  26.791  20.127   5.356
 3396POPC   GL145073  26.804  19.902   5.744
 3396POPC   GL245074  26.824  19.554   5.756
 3396POPC   C1A45075  26.851  19.876   6.189
 3396POPC   D2A45076  26.685  19.914   6.615
 3396POPC   C3A45077  26.938  19.950   7.000
 3396POPC   C4A45078  26.761  20.226   7.282
 3396POPC   C1B45079  27.085  19.430   6.127
 3396POPC   C2B45080  26.853  19.431   6.492
 3396POPC   C3B45081  26.749  19.482   6.903
 3396POPC   C4B45082  27.032  19.439   7.218
 3397POPC   NC345083  38.640  31.563   5.434
 3397POPC   PO445084  38.025  31.678   5.411
 3397POPC   GL145085  38.258  31.480   5.762
 3397POPC   GL245086  38.033  31.207   5.776
 3397POPC   C1A45087  38.654  31.382   6.060
 3397POPC   D2A45088  38.838  31.284   6.460
 3397POPC   C3A45089  38.561  31.487   6.739
 3397POPC   C4A45090  38.648  31.563   7.144
 3397POPC   C1B45091  38.194  31.228   6.197
 3397POPC   C2B45092  38.082  31.353   6.555
 3397POPC   C3B45093  38.060  31.224   6.924
 3397POPC   C4B45094  38.188  31.395   7.317
 3398POPC   NC345095  13.076  23.560   5.546
 3398POPC   PO445096  13.674  23.732   5.309
 3398POPC   GL145097  13.737  23.847   5.700
 3398POPC   GL245098  13.401  23.851   5.809
 3398POPC   C1A45099  13.741  23.673   6.130
 3398POPC   D2A45100  13.480  23.704   6.506
 3398POPC   C3A45101  13.754  23.717   6.874
 3398POPC   C4A45102  13.732  23.578   7.296
 3398POPC   C1B45103  13.327  24.105   6.185
 3398POPC   C2B45104  13.448  24.221   6.614
 3398POPC   C3B45105  13.472  24.107   7.040
 3398POPC   C4B45106  13.422  24.073   7.468
 3399POPC   NC345107  21.093   3.634   5.531
 3399POPC   PO445108  20.528   3.463   5.215
 3399POPC   GL145109  20.495   3.451   5.719
 3399POPC   GL245110  20.498   3.112   5.914
 3399POPC   C1A45111  20.526   3.689   6.131
 3399POPC   D2A45112  20.814   3.873   6.465
 3399POPC   C3A45113  20.802   3.713   6.893
 3399POPC   C4A45114  20.499   3.730   7.195
 3399POPC   C1B45115  20.690   3.244   6.326
 3399POPC   C2B45116  20.480   3.337   6.732
 3399POPC   C3B45117  20.233   3.295   7.119
 3399POPC   C4B45118  20.230   3.231   7.596
 3400POPC   NC345119  40.472  25.880   5.711
 3400POPC   PO445120  40.914  26.275   5.345
 3400POPC   GL145121  40.867  26.185   5.822
 3400POPC   GL245122  40.543  26.249   6.028
 3400POPC   C1A45123  40.904  26.007   6.259
 3400POPC   D2A45124  40.666  25.797   6.589
 3400POPC   C3A45125  41.023  25.780   6.848
 3400POPC   C4A45126  41.175  25.941   7.216
 3400POPC   C1B45127  40.626  26.572   6.295
 3400POPC   C2B45128  40.520  26.540   6.713
 3400POPC   C3B45129  40.668  26.182   6.958
 3400POPC   C4B45130  40.771  26.186   7.387
 3401POPC   NC345131   0.564  28.915   5.413
 3401POPC   PO445132   0.959  29.513   5.563
 3401POPC   GL145133   0.880  29.157   5.900
 3401POPC   GL245134   0.581  28.898   5.953
 3401POPC   C1A45135   0.636  29.264   6.294
 3401POPC   D2A45136   0.656  29.128   6.725
 3401POPC   C3A45137   0.529  29.421   7.023
 3401POPC   C4A45138   0.332  29.427   7.394
 3401POPC   C1B45139   0.238  28.963   6.337
 3401POPC   C2B45140   0.147  29.158   6.760
 3401POPC   C3B45141   0.366  28.967   7.158
 3401POPC   C4B45142   0.172  28.953   7.576
 3402POPC   NC345143   0.986   9.524   5.250
 3402POPC   PO445144   1.547   9.724   5.579
 3402POPC   GL145145   1.390   9.548   5.919
 3402POPC   GL245146   1.099   9.529   5.768
 3402POPC   C1A45147   1.220   9.580   6.322
 3402POPC   D2A45148   1.312   9.928   6.507
 3402POPC   C3A45149   1.381   9.939   6.941
 3402POPC   C4A45150   1.235   9.582   7.180
 3402POPC   C1B45151   0.979   9.910   5.981
 3402POPC   C2B45152   0.785   9.906   6.383
 3402POPC   C3B45153   0.918   9.719   6.767
 3402POPC   C4B45154   0.895   9.966   7.138
 3403POPC   NC345155  32.180  43.772   5.554
 3403POPC   PO445156  32.186  44.425   5.522
 3403POPC   GL145157  32.375  44.245   5.861
 3403POPC   GL245158  32.715  44.192   5.833
 3403POPC   C1A45159  32.330  43.952   6.190
 3403POPC   D2A45160  32.172  43.740   6.528
 3403POPC   C3A45161  32.202  43.882   6.936
 3403POPC   C4A45162  32.068  43.698   7.297
 3403POPC   C1B45163  32.734  44.275   6.264
 3403POPC   C2B45164  32.594  44.081   6.639
 3403POPC   C3B45165  32.487  44.289   7.034
 3403POPC   C4B45166  32.676  44.314   7.426
 3404POPC   NC345167  28.983  36.668   5.496
 3404POPC   PO445168  29.364  36.099   5.273
 3404POPC   GL145169  29.423  36.157   5.739
 3404POPC   GL245170  29.253  35.877   5.866
 3404POPC   C1A45171  29.305  36.273   6.206
 3404POPC   D2A45172  29.383  36.383   6.677
 3404POPC   C3A45173  29.167  36.331   7.091
 3404POPC   C4A45174  28.799  36.365   7.387
 3404POPC   C1B45175  29.472  35.723   6.186
 3404POPC   C2B45176  29.414  35.899   6.551
 3404POPC   C3B45177  29.524  35.968   6.952
 3404POPC   C4B45178  29.274  35.859   7.307
 3405POPC   NC345179   7.612  36.602   5.447
 3405POPC   PO445180   7.211  37.064   5.194
 3405POPC   GL145181   7.283  37.031   5.668
 3405POPC   GL245182   7.326  36.692   5.871
 3405POPC   C1A45183   7.529  37.121   6.060
 3405POPC   D2A45184   7.429  36.960   6.459
 3405POPC   C3A45185   7.423  37.076   6.860
 3405POPC   C4A45186   7.462  36.729   7.121
 3405POPC   C1B45187   7.677  36.604   6.190
 3405POPC   C2B45188   7.874  36.683   6.620
 3405POPC   C3B45189   7.896  36.971   6.985
 3405POPC   C4B45190   7.838  36.892   7.428
 3406POPC   NC345191  11.434  26.285   5.136
 3406POPC   PO445192  11.244  25.743   5.578
 3406POPC   GL145193  11.120  25.924   5.964
 3406POPC   GL245194  11.221  26.236   5.855
 3406POPC   C1A45195  11.082  25.966   6.448
 3406POPC   D2A45196  11.024  25.894   6.913
 3406POPC   C3A45197  11.447  25.896   7.125
 3406POPC   C4A45198  11.596  25.881   7.594
 3406POPC   C1B45199  11.419  26.262   6.226
 3406POPC   C2B45200  11.333  26.529   6.550
 3406POPC   C3B45201  11.278  26.349   6.924
 3406POPC   C4B45202  11.373  26.335   7.364
 3407POPC   NC345203   9.762  13.757   5.251
 3407POPC   PO445204  10.050  13.166   5.180
 3407POPC   GL145205   9.878  13.353   5.606
 3407POPC   GL245206   9.610  13.575   5.710
 3407POPC   C1A45207   9.910  13.469   6.108
 3407POPC   D2A45208   9.898  13.776   6.460
 3407POPC   C3A45209   9.996  13.621   6.861
 3407POPC   C4A45210   9.882  13.617   7.282
 3407POPC   C1B45211   9.503  13.799   6.112
 3407POPC   C2B45212   9.391  13.702   6.547
 3407POPC   C3B45213   9.545  13.845   6.919
 3407POPC   C4B45214   9.668  14.072   7.241
 3408POPC   NC345215   0.543  36.386   5.445
 3408POPC   PO445216   0.209  35.886   5.236
 3408POPC   GL145217   0.216  35.990   5.727
 3408POPC   GL245218   0.290  35.682   5.786
 3408POPC   C1A45219   0.485  35.949   6.209
 3408POPC   D2A45220   0.694  35.740   6.603
 3408POPC   C3A45221   0.568  35.981   7.002
 3408POPC   C4A45222   0.672  36.273   7.375
 3408POPC   C1B45223   0.034  35.733   6.184
 3408POPC   C2B45224   0.177  35.796   6.637
 3408POPC   C3B45225   0.061  35.864   7.082
 3408POPC   C4B45226   0.202  36.009   7.459
 3409POPC   NC345227  44.519  11.715   5.523
 3409POPC   PO445228  44.558  11.104   5.461
 3409POPC   GL145229  44.625  11.297   5.857
 3409POPC   GL245230  44.903  11.550   5.829
 3409POPC   C1A45231  44.504  11.114   6.260
 3409POPC   D2A45232  44.723  10.888   6.592
 3409POPC   C3A45233  44.556  10.810   7.010
 3409POPC   C4A45234  44.652  11.067   7.370
 3409POPC   C1B45235  44.805  11.558   6.277
 3409POPC   C2B45236   0.060  11.481   6.664
 3409POPC   C3B45237   0.045  11.533   7.116
 3409POPC   C4B45238  44.781  11.528   7.520
 3410POPC   NC345239  11.415  17.011   5.365
 3410POPC   PO445240  10.951  16.456   5.474
 3410POPC   GL145241  11.211  16.547   5.844
 3410POPC   GL245242  11.418  16.834   5.850
 3410POPC   C1A45243  11.364  16.519   6.266
 3410POPC   D2A45244  11.513  16.704   6.633
 3410POPC   C3A45245  11.346  16.562   7.045
 3410POPC   C4A45246  11.083  16.706   7.347
 3410POPC   C1B45247  11.665  17.002   6.209
 3410POPC   C2B45248  11.632  17.219   6.625
 3410POPC   C3B45249  11.644  17.002   7.060
 3410POPC   C4B45250  11.536  17.000   7.506
 3411POPC   NC345251  32.110  43.128   5.367
 3411POPC   PO445252  32.618  43.616   5.413
 3411POPC   GL145253  32.423  43.340   5.739
 3411POPC   GL245254  32.347  42.968   5.813
 3411POPC   C1A45255  32.235  43.386   6.141
 3411POPC   D2A45256  32.245  43.145   6.514
 3411POPC   C3A45257  32.245  43.359   6.878
 3411POPC   C4A45258  32.057  43.196   7.204
 3411POPC   C1B45259  32.627  43.054   6.148
 3411POPC   C2B45260  32.744  42.973   6.558
 3411POPC   C3B45261  32.685  43.109   6.949
 3411POPC   C4B45262  32.551  42.956   7.345
 3412POPC   NC345263  27.954  17.845   5.474
 3412POPC   PO445264  27.352  17.565   5.335
 3412POPC   GL145265  27.522  17.485   5.739
 3412POPC   GL245266  27.801  17.317   5.599
 3412POPC   C1A45267  27.517  17.607   6.209
 3412POPC   D2A45268  27.601  17.816   6.611
 3412POPC   C3A45269  27.663  17.541   6.984
 3412POPC   C4A45270  27.461  17.440   7.421
 3412POPC   C1B45271  27.889  17.260   6.038
 3412POPC   C2B45272  27.633  17.128   6.352
 3412POPC   C3B45273  27.661  17.082   6.766
 3412POPC   C4B45274  27.735  17.082   7.201
 3413POPC   NC345275  26.347  31.633   5.425
 3413POPC   PO445276  25.709  31.782   5.313
 3413POPC   GL145277  25.793  31.476   5.643
 3413POPC   GL245278  26.078  31.295   5.711
 3413POPC   C1A45279  25.791  31.399   6.108
 3413POPC   D2A45280  25.841  31.699   6.450
 3413POPC   C3A45281  25.843  31.519   6.867
 3413POPC   C4A45282  25.864  31.708   7.260
 3413POPC   C1B45283  26.248  31.571   6.065
 3413POPC   C2B45284  26.390  31.692   6.459
 3413POPC   C3B45285  26.344  31.668   6.890
 3413POPC   C4B45286  26.661  31.832   7.182
 3414POPC   NC345287  37.440  28.574   5.414
 3414POPC   PO445288  37.803  27.933   5.428
 3414POPC   GL145289  37.693  28.207   5.754
 3414POPC   GL245290  37.357  28.224   5.879
 3414POPC   C1A45291  37.845  28.206   6.171
 3414POPC   D2A45292  37.864  27.950   6.540
 3414POPC   C3A45293  37.781  28.138   6.948
 3414POPC   C4A45294  38.072  28.210   7.275
 3414POPC   C1B45295  37.452  28.541   6.236
 3414POPC   C2B45296  37.414  28.548   6.708
 3414POPC   C3B45297  37.548  28.568   7.144
 3414POPC   C4B45298  37.476  28.706   7.634
 3415POPC   NC345299  28.442  20.769   5.244
 3415POPC   PO445300  28.263  20.132   5.164
 3415POPC   GL145301  28.355  20.334   5.644
 3415POPC   GL245302  28.481  20.698   5.737
 3415POPC   C1A45303  28.372  20.458   6.145
 3415POPC   D2A45304  28.408  20.309   6.565
 3415POPC   C3A45305  28.539  20.549   6.910
 3415POPC   C4A45306  28.270  20.502   7.206
 3415POPC   C1B45307  28.712  20.859   6.080
 3415POPC   C2B45308  28.659  20.845   6.509
 3415POPC   C3B45309  28.627  21.075   6.873
 3415POPC   C4B45310  28.544  20.997   7.259
 3416POPC   NC345311  37.427  21.806   5.129
 3416POPC   PO445312  37.594  21.201   5.423
 3416POPC   GL145313  37.645  21.530   5.711
 3416POPC   GL245314  37.310  21.679   5.713
 3416POPC   C1A45315  37.821  21.477   6.137
 3416POPC   D2A45316  37.721  21.235   6.511
 3416POPC   C3A45317  37.946  21.393   6.857
 3416POPC   C4A45318  37.757  21.624   7.172
 3416POPC   C1B45319  37.300  21.465   6.116
 3416POPC   C2B45320  37.206  21.305   6.520
 3416POPC   C3B45321  37.388  21.324   6.942
 3416POPC   C4B45322  37.255  21.599   7.282
 3417POPC   NC345323  23.484  37.661   5.152
 3417POPC   PO445324  24.044  38.029   5.239
 3417POPC   GL145325  23.806  37.746   5.538
 3417POPC   GL245326  24.070  37.635   5.702
 3417POPC   C1A45327  23.654  37.737   5.997
 3417POPC   D2A45328  23.822  37.656   6.450
 3417POPC   C3A45329  23.671  37.767   6.875
 3417POPC   C4A45330  23.809  37.652   7.272
 3417POPC   C1B45331  24.105  37.413   6.099
 3417POPC   C2B45332  24.009  37.165   6.483
 3417POPC   C3B45333  24.002  37.353   6.877
 3417POPC   C4B45334  24.102  37.240   7.291
 3418POPC   NC345335  10.653   7.657   5.059
 3418POPC   PO445336  10.117   7.324   5.253
 3418POPC   GL145337  10.600   7.351   5.503
 3418POPC   GL245338  10.632   7.692   5.690
 3418POPC   C1A45339  10.736   7.134   5.940
 3418POPC   D2A45340  10.759   7.080   6.417
 3418POPC   C3A45341  10.620   7.030   6.844
 3418POPC   C4A45342  10.628   7.370   7.153
 3418POPC   C1B45343  10.598   7.706   6.175
 3418POPC   C2B45344  10.628   7.589   6.619
 3418POPC   C3B45345  10.334   7.738   6.928
 3418POPC   C4B45346  10.206   7.647   7.338
 3419POPC   NC345347  34.293  34.802   5.445
 3419POPC   PO445348  34.936  34.475   5.409
 3419POPC   GL145349  34.835  34.329   5.831
 3419POPC   GL245350  34.684  34.656   5.813
 3419POPC   C1A45351  34.675  34.215   6.252
 3419POPC   D2A45352  34.832  34.373   6.661
 3419POPC   C3A45353  34.572  34.638   6.921
 3419POPC   C4A45354  34.488  34.565   7.341
 3419POPC   C1B45355  34.761  34.726   6.215
 3419POPC   C2B45356  34.797  35.048   6.490
 3419POPC   C3B45357  34.958  34.969   6.880
 3419POPC   C4B45358  34.771  34.992   7.253
 3420POPC   NC345359  44.322  28.353   5.582
 3420POPC   PO445360  44.742  28.733   5.203
 3420POPC   GL145361  44.748  28.599   5.706
 3420POPC   GL245362  44.506  28.590   5.990
 3420POPC   C1A45363  44.818  28.224   6.041
 3420POPC   D2A45364  44.632  28.128   6.447
 3420POPC   C3A45365  44.807  28.279   6.861
 3420POPC   C4A45366  44.783  28.168   7.335
 3420POPC   C1B45367  44.640  28.654   6.406
 3420POPC   C2B45368  44.376  28.477   6.723
 3420POPC   C3B45369  44.335  28.210   7.103
 3420POPC   C4B45370  44.346  28.303   7.585
 3421POPC   NC345371  20.186  43.409   5.474
 3421POPC   PO445372  19.846  43.956   5.463
 3421POPC   GL145373  19.687  43.858   5.851
 3421POPC   GL245374  19.870  43.547   5.923
 3421POPC   C1A45375  19.575  43.787   6.283
 3421POPC   D2A45376  19.779  43.935   6.654
 3421POPC   C3A45377  19.745  43.775   7.069
 3421POPC   C4A45378  19.558  43.970   7.426
 3421POPC   C1B45379  20.060  43.915   6.211
 3421POPC   C2B45380  20.274  43.948   6.622
 3421POPC   C3B45381  20.166  44.066   7.052
 3421POPC   C4B45382  20.101  43.826   7.466
 3422POPC   NC345383   9.623  16.195   5.528
 3422POPC   PO445384  10.019  16.731   5.236
 3422POPC   GL145385  10.007  16.790   5.727
 3422POPC   GL245386   9.778  16.555   5.859
 3422POPC   C1A45387  10.033  16.795   6.216
 3422POPC   D2A45388   9.847  16.606   6.608
 3422POPC   C3A45389   9.605  16.798   6.957
 3422POPC   C4A45390   9.364  16.663   7.353
 3422POPC   C1B45391   9.976  16.276   6.193
 3422POPC   C2B45392  10.163  16.195   6.571
 3422POPC   C3B45393  10.306  16.501   6.825
 3422POPC   C4B45394  10.044  16.548   7.170
 3423POPC   NC345395  14.447  15.473   5.395
 3423POPC   PO445396  14.547  14.816   5.129
 3423POPC   GL145397  14.376  14.981   5.584
 3423POPC   GL245398  14.462  14.781   5.901
 3423POPC   C1A45399  14.333  15.245   6.019
 3423POPC   D2A45400  14.335  15.009   6.436
 3423POPC   C3A45401  14.327  15.202   6.855
 3423POPC   C4A45402  14.026  15.128   7.194
 3423POPC   C1B45403  14.790  15.059   6.128
 3423POPC   C2B45404  14.778  15.260   6.543
 3423POPC   C3B45405  14.839  15.228   6.994
 3423POPC   C4B45406  14.534  15.142   7.313
 3424POPC   NC345407  29.930  32.271   5.519
 3424POPC   PO445408  29.499  31.807   5.524
 3424POPC   GL145409  29.769  31.895   5.866
 3424POPC   GL245410  30.106  31.841   5.755
 3424POPC   C1A45411  29.851  32.220   6.197
 3424POPC   D2A45412  29.651  32.330   6.603
 3424POPC   C3A45413  29.887  32.307   6.983
 3424POPC   C4A45414  29.939  32.622   7.293
 3424POPC   C1B45415  30.295  31.914   6.179
 3424POPC   C2B45416  30.354  31.834   6.625
 3424POPC   C3B45417  30.323  31.900   7.087
 3424POPC   C4B45418  30.027  31.998   7.376
 3425POPC   NC345419   3.352  42.387   5.322
 3425POPC   PO445420   3.966  42.228   5.559
 3425POPC   GL145421   3.560  42.279   5.824
 3425POPC   GL245422   3.421  42.604   5.796
 3425POPC   C1A45423   3.389  42.415   6.259
 3425POPC   D2A45424   3.361  42.521   6.691
 3425POPC   C3A45425   3.586  42.301   7.060
 3425POPC   C4A45426   3.508  42.353   7.499
 3425POPC   C1B45427   3.771  42.717   6.088
 3425POPC   C2B45428   3.730  42.903   6.491
 3425POPC   C3B45429   3.805  42.735   6.887
 3425POPC   C4B45430   3.887  42.684   7.330
 3426POPC   NC345431  12.811   0.351   5.529
 3426POPC   PO445432  13.433   0.487   5.344
 3426POPC   GL145433  13.156   0.557   5.833
 3426POPC   GL245434  13.136   0.253   6.058
 3426POPC   C1A45435  12.781   0.545   6.194
 3426POPC   D2A45436  12.724   0.369   6.570
 3426POPC   C3A45437  12.755   0.720   6.800
 3426POPC   C4A45438  12.685   0.748   7.216
 3426POPC   C1B45439  13.017  44.947   6.396
 3426POPC   C2B45440  12.794  44.899   6.781
 3426POPC   C3B45441  12.806   0.257   7.088
 3426POPC   C4B45442  13.147   0.579   7.092
 3427POPC   NC345443  22.063  36.596   5.008
 3427POPC   PO445444  22.488  36.875   5.402
 3427POPC   GL145445  22.416  36.742   5.882
 3427POPC   GL245446  22.069  36.798   5.879
 3427POPC   C1A45447  22.350  36.959   6.333
 3427POPC   D2A45448  22.507  36.925   6.718
 3427POPC   C3A45449  22.250  36.966   7.045
 3427POPC   C4A45450  22.270  36.845   7.443
 3427POPC   C1B45451  21.851  36.978   6.239
 3427POPC   C2B45452  21.941  37.161   6.655
 3427POPC   C3B45453  21.727  37.002   7.031
 3427POPC   C4B45454  21.767  36.732   7.403
 3428POPC   NC345455  13.069  27.114   5.511
 3428POPC   PO445456  12.701  27.708   5.633
 3428POPC   GL145457  12.958  27.660   5.985
 3428POPC   GL245458  13.054  27.306   6.017
 3428POPC   C1A45459  12.856  27.802   6.405
 3428POPC   D2A45460  12.906  27.550   6.770
 3428POPC   C3A45461  13.118  27.595   7.153
 3428POPC   C4A45462  12.853  27.858   7.390
 3428POPC   C1B45463  12.695  27.314   6.280
 3428POPC   C2B45464  12.548  27.191   6.685
 3428POPC   C3B45465  12.559  27.296   7.128
 3428POPC   C4B45466  12.628  27.409   7.553
 3429POPC   NC345467  11.135  20.868   5.366
 3429POPC   PO445468  11.485  20.374   5.274
 3429POPC   GL145469  11.375  20.390   5.719
 3429POPC   GL245470  11.039  20.505   5.758
 3429POPC   C1A45471  11.433  20.267   6.160
 3429POPC   D2A45472  11.261  20.196   6.575
 3429POPC   C3A45473  11.506  20.398   6.889
 3429POPC   C4A45474  11.457  20.745   7.175
 3429POPC   C1B45475  11.024  20.594   6.211
 3429POPC   C2B45476  11.176  20.699   6.626
 3429POPC   C3B45477  11.024  20.508   7.018
 3429POPC   C4B45478  10.980  20.721   7.404
 3430POPC   NC345479  11.087   1.605   5.544
 3430POPC   PO445480  11.630   1.093   5.320
 3430POPC   GL145481  11.490   1.090   5.767
 3430POPC   GL245482  11.151   1.161   5.784
 3430POPC   C1A45483  11.412   1.294   6.220
 3430POPC   D2A45484  11.657   1.430   6.607
 3430POPC   C3A45485  11.478   1.405   7.051
 3430POPC   C4A45486  11.300   1.309   7.461
 3430POPC   C1B45487  10.946   1.054   6.179
 3430POPC   C2B45488  10.948   1.392   6.498
 3430POPC   C3B45489  10.960   1.435   6.954
 3430POPC   C4B45490  10.925   1.077   7.218
 3431POPC   NC345491  15.460  29.927   5.424
 3431POPC   PO445492  14.840  29.688   5.566
 3431POPC   GL145493  15.136  29.906   5.872
 3431POPC   GL245494  14.977  30.246   5.883
 3431POPC   C1A45495  15.238  29.881   6.342
 3431POPC   D2A45496  15.262  29.588   6.693
 3431POPC   C3A45497  15.409  29.781   7.048
 3431POPC   C4A45498  15.198  30.041   7.275
 3431POPC   C1B45499  15.227  30.384   6.236
 3431POPC   C2B45500  15.165  30.264   6.674
 3431POPC   C3B45501  15.123  30.473   7.005
 3431POPC   C4B45502  14.856  30.417   7.355
 3432POPC   NC345503  19.540  11.901   5.504
 3432POPC   PO445504  20.113  12.235   5.192
 3432POPC   GL145505  20.019  12.085   5.605
 3432POPC   GL245506  20.040  11.720   5.587
 3432POPC   C1A45507  19.979  12.177   6.069
 3432POPC   D2A45508  20.067  12.310   6.485
 3432POPC   C3A45509  19.762  12.236   6.809
 3432POPC   C4A45510  19.767  12.298   7.250
 3432POPC   C1B45511  19.935  11.659   6.052
 3432POPC   C2B45512  19.830  11.844   6.467
 3432POPC   C3B45513  20.036  11.804   6.875
 3432POPC   C4B45514  19.823  11.783   7.254
 3433POPC   NC345515  22.142   5.945   5.228
 3433POPC   PO445516  22.720   6.068   5.532
 3433POPC   GL145517  22.330   5.922   5.774
 3433POPC   GL245518  21.951   5.903   5.724
 3433POPC   C1A45519  22.178   5.878   6.206
 3433POPC   D2A45520  22.062   5.768   6.620
 3433POPC   C3A45521  22.326   5.947   6.921
 3433POPC   C4A45522  22.082   5.746   7.216
 3433POPC   C1B45523  21.845   6.239   6.071
 3433POPC   C2B45524  21.965   6.276   6.535
 3433POPC   C3B45525  21.866   6.165   6.972
 3433POPC   C4B45526  21.894   6.156   7.431
 3434POPC   NC345527  13.782   3.357   5.415
 3434POPC   PO445528  13.422   3.867   5.492
 3434POPC   GL145529  13.466   3.514   5.813
 3434POPC   GL245530  13.801   3.357   5.925
 3434POPC   C1A45531  13.394   3.289   6.202
 3434POPC   D2A45532  13.673   3.171   6.518
 3434POPC   C3A45533  13.543   3.286   6.908
 3434POPC   C4A45534  13.594   3.441   7.298
 3434POPC   C1B45535  13.761   3.646   6.300
 3434POPC   C2B45536  13.601   3.757   6.728
 3434POPC   C3B45537  13.913   3.768   7.072
 3434POPC   C4B45538  14.206   3.591   7.390
 3435POPC   NC345539   2.387   4.524   5.147
 3435POPC   PO445540   1.840   4.323   5.546
 3435POPC   GL145541   1.981   4.181   5.907
 3435POPC   GL245542   1.967   3.834   5.829
 3435POPC   C1A45543   2.034   4.396   6.276
 3435POPC   D2A45544   2.087   4.280   6.681
 3435POPC   C3A45545   2.299   4.528   6.977
 3435POPC   C4A45546   2.145   4.693   7.356
 3435POPC   C1B45547   1.631   3.877   6.116
 3435POPC   C2B45548   1.645   4.077   6.478
 3435POPC   C3B45549   1.695   4.030   6.900
 3435POPC   C4B45550   2.025   4.149   7.168
 3436POPC   NC345551  11.414  27.036   5.591
 3436POPC   PO445552  11.105  26.624   5.213
 3436POPC   GL145553  11.063  26.706   5.727
 3436POPC   GL245554  11.378  26.721   5.999
 3436POPC   C1A45555  10.973  26.984   6.101
 3436POPC   D2A45556  11.116  27.020   6.515
 3436POPC   C3A45557  10.932  26.806   6.839
 3436POPC   C4A45558  11.130  26.759   7.202
 3436POPC   C1B45559  11.774  26.616   6.234
 3436POPC   C2B45560  11.871  26.474   6.659
 3436POPC   C3B45561  11.687  26.618   7.048
 3436POPC   C4B45562  11.600  26.994   7.280
 3437POPC   NC345563   4.816  39.540   5.301
 3437POPC   PO445564   4.340  39.042   5.239
 3437POPC   GL145565   4.392  39.157   5.671
 3437POPC   GL245566   4.425  39.533   5.685
 3437POPC   C1A45567   4.177  39.076   6.086
 3437POPC   D2A45568   4.176  38.984   6.526
 3437POPC   C3A45569   3.951  39.217   6.799
 3437POPC   C4A45570   4.058  39.271   7.205
 3437POPC   C1B45571   4.582  39.378   6.088
 3437POPC   C2B45572   4.656  39.189   6.470
 3437POPC   C3B45573   4.498  39.263   6.871
 3437POPC   C4B45574   4.496  39.510   7.247
 3438POPC   NC345575  35.041   7.293   5.170
 3438POPC   PO445576  34.468   7.509   5.598
 3438POPC   GL145577  34.581   7.297   5.998
 3438POPC   GL245578  34.916   7.085   6.013
 3438POPC   C1A45579  34.716   7.556   6.343
 3438POPC   D2A45580  34.492   7.744   6.690
 3438POPC   C3A45581  34.522   7.504   7.059
 3438POPC   C4A45582  34.535   7.700   7.447
 3438POPC   C1B45583  35.173   7.274   6.339
 3438POPC   C2B45584  34.979   7.392   6.760
 3438POPC   C3B45585  34.944   7.217   7.167
 3438POPC   C4B45586  34.652   7.204   7.504
 3439POPC   NC345587   0.378   8.607   5.380
 3439POPC   PO445588   0.734   9.135   5.400
 3439POPC   GL145589   0.431   8.992   5.753
 3439POPC   GL245590   0.076   9.070   5.798
 3439POPC   C1A45591   0.394   9.095   6.197
 3439POPC   D2A45592   0.653   8.993   6.536
 3439POPC   C3A45593   0.437   9.025   6.915
 3439POPC   C4A45594   0.668   8.948   7.293
 3439POPC   C1B45595  44.957   8.840   6.166
 3439POPC   C2B45596   0.157   8.743   6.519
 3439POPC   C3B45597   0.125   8.535   6.881
 3439POPC   C4B45598   0.215   8.694   7.287
 3440POPC   NC345599  30.325  31.468   5.448
 3440POPC   PO445600  30.993  31.547   5.317
 3440POPC   GL145601  30.921  31.587   5.748
 3440POPC   GL245602  30.617  31.745   5.813
 3440POPC   C1A45603  31.066  31.730   6.156
 3440POPC   D2A45604  30.850  31.698   6.556
 3440POPC   C3A45605  31.037  31.615   6.981
 3440POPC   C4A45606  30.922  31.618   7.443
 3440POPC   C1B45607  30.623  31.415   6.139
 3440POPC   C2B45608  30.539  31.281   6.539
 3440POPC   C3B45609  30.539  31.466   6.927
 3440POPC   C4B45610  30.272  31.290   7.202
 3441POPC   NC345611  33.935  25.808   5.395
 3441POPC   PO445612  33.578  26.337   5.307
 3441POPC   GL145613  33.710  26.415   5.772
 3441POPC   GL245614  33.883  26.114   5.808
 3441POPC   C1A45615  33.831  26.327   6.258
 3441POPC   D2A45616  33.872  25.964   6.532
 3441POPC   C3A45617  33.725  26.133   6.847
 3441POPC   C4A45618  33.881  26.229   7.190
 3441POPC   C1B45619  33.730  25.773   6.080
 3441POPC   C2B45620  33.432  25.684   6.450
 3441POPC   C3B45621  33.560  25.656   6.881
 3441POPC   C4B45622  33.946  25.704   7.120
 3442POPC   NC345623  10.750  17.753   5.286
 3442POPC   PO445624  10.276  17.284   5.549
 3442POPC   GL145625  10.415  17.687   5.791
 3442POPC   GL245626  10.063  17.800   5.801
 3442POPC   C1A45627  10.596  17.841   6.263
 3442POPC   D2A45628  10.603  17.845   6.763
 3442POPC   C3A45629  10.637  17.455   7.021
 3442POPC   C4A45630  10.812  17.484   7.477
 3442POPC   C1B45631  10.180  17.543   6.215
 3442POPC   C2B45632  10.234  17.424   6.657
 3442POPC   C3B45633  10.168  17.639   7.032
 3442POPC   C4B45634  10.474  17.847   7.329
 3443POPC   NC345635   1.010  28.435   5.202
 3443POPC   PO445636   1.596  28.196   5.533
 3443POPC   GL145637   1.358  28.323   5.822
 3443POPC   GL245638   1.030  28.241   5.691
 3443POPC   C1A45639   1.516  28.427   6.221
 3443POPC   D2A45640   1.476  28.729   6.541
 3443POPC   C3A45641   1.488  28.524   6.943
 3443POPC   C4A45642   1.811  28.525   7.225
 3443POPC   C1B45643   1.008  28.134   6.144
 3443POPC   C2B45644   1.068  28.393   6.520
 3443POPC   C3B45645   1.003  28.362   6.946
 3443POPC   C4B45646   1.139  28.054   7.227
 3444POPC   NC345647  24.259  33.291   5.636
 3444POPC   PO445648  24.443  32.722   5.355
 3444POPC   GL145649  24.586  32.922   5.790
 3444POPC   GL245650  24.561  33.275   6.025
 3444POPC   C1A45651  24.388  32.835   6.197
 3444POPC   D2A45652  24.239  33.025   6.578
 3444POPC   C3A45653  24.375  32.787   6.930
 3444POPC   C4A45654  24.217  32.816   7.329
 3444POPC   C1B45655  24.915  33.481   6.247
 3444POPC   C2B45656  24.845  33.451   6.654
 3444POPC   C3B45657  24.567  33.282   6.962
 3444POPC   C4B45658  24.657  33.102   7.340
 3445POPC   NC345659  15.483  24.466   5.378
 3445POPC   PO445660  14.861  24.370   5.231
 3445POPC   GL145661  15.026  24.376   5.670
 3445POPC   GL245662  15.259  24.620   5.816
 3445POPC   C1A45663  14.960  24.312   6.129
 3445POPC   D2A45664  15.196  24.137   6.487
 3445POPC   C3A45665  15.161  24.459   6.802
 3445POPC   C4A45666  14.886  24.463   7.153
 3445POPC   C1B45667  15.411  24.559   6.286
 3445POPC   C2B45668  15.651  24.349   6.678
 3445POPC   C3B45669  15.544  24.339   7.132
 3445POPC   C4B45670  15.328  24.746   7.224
 3446POPC   NC345671  20.087   7.548   5.344
 3446POPC   PO445672  19.664   7.010   5.375
 3446POPC   GL145673  19.822   7.242   5.757
 3446POPC   GL245674  19.820   7.638   5.761
 3446POPC   C1A45675  19.661   7.357   6.188
 3446POPC   D2A45676  19.621   7.226   6.621
 3446POPC   C3A45677  19.585   7.542   6.968
 3446POPC   C4A45678  19.517   7.197   7.253
 3446POPC   C1B45679  20.125   7.534   6.084
 3446POPC   C2B45680  20.057   7.471   6.538
 3446POPC   C3B45681  20.028   7.321   6.985
 3446POPC   C4B45682  20.114   7.733   7.203
 3447POPC   NC345683   0.468  18.392   5.295
 3447POPC   PO445684   0.448  17.729   5.464
 3447POPC   GL145685   0.556  18.147   5.754
 3447POPC   GL245686   0.386  18.509   5.785
 3447POPC   C1A45687   0.712  18.380   6.160
 3447POPC   D2A45688   0.961  18.559   6.514
 3447POPC   C3A45689   0.852  18.376   6.923
 3447POPC   C4A45690   0.651  18.285   7.326
 3447POPC   C1B45691   0.071  18.451   6.133
 3447POPC   C2B45692   0.025  18.425   6.591
 3447POPC   C3B45693   0.331  18.418   6.944
 3447POPC   C4B45694   0.211  18.518   7.371
 3448POPC   NC345695  20.893  31.592   5.117
 3448POPC   PO445696  21.487  31.524   5.496
 3448POPC   GL145697  21.320  31.474   5.901
 3448POPC   GL245698  21.008  31.628   5.940
 3448POPC   C1A45699  21.566  31.497   6.260
 3448POPC   D2A45700  21.800  31.360   6.605
 3448POPC   C3A45701  21.610  31.520   6.981
 3448POPC   C4A45702  21.276  31.273   7.101
 3448POPC   C1B45703  21.205  31.889   6.244
 3448POPC   C2B45704  21.282  32.070   6.641
 3448POPC   C3B45705  21.064  32.017   6.997
 3448POPC   C4B45706  21.044  31.670   7.269
 3449POPC   NC345707  26.955   6.294   5.417
 3449POPC   PO445708  26.531   5.770   5.499
 3449POPC   GL145709  26.711   5.900   5.871
 3449POPC   GL245710  26.505   6.207   5.836
 3449POPC   C1A45711  26.746   5.742   6.328
 3449POPC   D2A45712  26.731   5.501   6.753
 3449POPC   C3A45713  26.900   5.610   7.204
 3449POPC   C4A45714  26.755   5.668   7.688
 3449POPC   C1B45715  26.701   6.259   6.260
 3449POPC   C2B45716  26.942   6.121   6.656
 3449POPC   C3B45717  26.890   6.124   7.115
 3449POPC   C4B45718  26.694   6.487   7.304
 3450POPC   NC345719  34.072  18.458   5.329
 3450POPC   PO445720  33.660  17.998   5.573
 3450POPC   GL145721  33.869  18.292   5.805
 3450POPC   GL245722  33.851  18.647   5.741
 3450POPC   C1A45723  33.755  18.268   6.223
 3450POPC   D2A45724  33.854  17.994   6.539
 3450POPC   C3A45725  33.732  18.155   6.930
 3450POPC   C4A45726  33.736  17.935   7.311
 3450POPC   C1B45727  34.052  18.702   6.136
 3450POPC   C2B45728  33.804  18.679   6.519
 3450POPC   C3B45729  33.849  18.687   6.952
 3450POPC   C4B45730  33.630  18.513   7.306
 3451POPC   NC345731  21.684  18.668   5.504
 3451POPC   PO445732  21.096  18.310   5.430
 3451POPC   GL145733  21.338  18.060   5.730
 3451POPC   GL245734  21.679  18.208   5.843
 3451POPC   C1A45735  21.261  18.096   6.164
 3451POPC   D2A45736  21.147  18.236   6.556
 3451POPC   C3A45737  21.479  18.356   6.822
 3451POPC   C4A45738  21.294  18.364   7.250
 3451POPC   C1B45739  21.673  17.823   6.090
 3451POPC   C2B45740  21.679  17.715   6.534
 3451POPC   C3B45741  21.812  17.960   6.908
 3451POPC   C4B45742  21.803  18.258   7.254
 3452POPC   NC345743   1.576  41.723   5.175
 3452POPC   PO445744   2.032  42.245   5.417
 3452POPC   GL145745   2.006  42.334   5.815
 3452POPC   GL245746   1.667  42.224   5.847
 3452POPC   C1A45747   2.029  42.124   6.210
 3452POPC   D2A45748   1.867  41.907   6.565
 3452POPC   C3A45749   2.195  41.990   6.860
 3452POPC   C4A45750   2.099  42.108   7.250
 3452POPC   C1B45751   1.461  42.218   6.244
 3452POPC   C2B45752   1.496  42.341   6.673
 3452POPC   C3B45753   1.626  42.106   7.042
 3452POPC   C4B45754   1.673  42.274   7.482
 3453POPC   NC345755  38.247  28.046   5.402
 3453POPC   PO445756  38.670  28.560   5.493
 3453POPC   GL145757  38.479  28.301   5.775
 3453POPC   GL245758  38.151  28.455   5.751
 3453POPC   C1A45759  38.377  28.204   6.196
 3453POPC   D2A45760  38.462  28.416   6.598
 3453POPC   C3A45761  38.497  28.170   6.978
 3453POPC   C4A45762  38.591  28.197   7.418
 3453POPC   C1B45763  38.116  28.648   6.178
 3453POPC   C2B45764  37.933  28.517   6.587
 3453POPC   C3B45765  38.051  28.663   6.995
 3453POPC   C4B45766  38.463  28.656   7.187
 3454POPC   NC345767   7.793  32.212   5.334
 3454POPC   PO445768   7.437  32.689   5.589
 3454POPC   GL145769   7.667  32.450   5.871
 3454POPC   GL245770   7.733  32.080   5.822
 3454POPC   C1A45771   7.496  32.464   6.286
 3454POPC   D2A45772   7.283  32.750   6.572
 3454POPC   C3A45773   7.390  32.550   6.923
 3454POPC   C4A45774   7.769  32.443   7.074
 3454POPC   C1B45775   7.455  31.972   6.160
 3454POPC   C2B45776   7.277  32.038   6.590
 3454POPC   C3B45777   7.427  32.034   7.015
 3454POPC   C4B45778   7.764  31.977   7.279
 3455POPC   NC345779  32.838  31.742   5.431
 3455POPC   PO445780  33.054  31.060   5.380
 3455POPC   GL145781  32.943  31.319   5.735
 3455POPC   GL245782  33.208  31.541   5.779
 3455POPC   C1A45783  32.958  31.355   6.198
 3455POPC   D2A45784  33.064  31.545   6.618
 3455POPC   C3A45785  32.869  31.313   6.986
 3455POPC   C4A45786  32.707  31.319   7.445
 3455POPC   C1B45787  33.428  31.600   6.181
 3455POPC   C2B45788  33.445  31.896   6.532
 3455POPC   C3B45789  33.362  31.911   7.000
 3455POPC   C4B45790  33.064  31.671   7.284
 3456POPC   NC345791   0.677  39.080   5.461
 3456POPC   PO445792   1.142  39.597   5.330
 3456POPC   GL145793   1.225  39.422   5.759
 3456POPC   GL245794   0.997  39.167   5.868
 3456POPC   C1A45795   1.354  39.345   6.201
 3456POPC   D2A45796   1.107  39.175   6.548
 3456POPC   C3A45797   1.145  39.328   6.984
 3456POPC   C4A45798   1.259  39.139   7.383
 3456POPC   C1B45799   0.863  39.523   6.142
 3456POPC   C2B45800   0.832  39.630   6.610
 3456POPC   C3B45801   0.671  39.565   7.040
 3456POPC   C4B45802   0.776  39.345   7.438
 3457POPC   NC345803  13.415  39.547   5.430
 3457POPC   PO445804  13.543  40.122   5.137
 3457POPC   GL145805  13.586  40.138   5.635
 3457POPC   GL245806  13.739  39.920   5.892
 3457POPC   C1A45807  13.534  40.356   6.083
 3457POPC   D2A45808  13.722  40.479   6.523
 3457POPC   C3A45809  13.634  40.254   6.874
 3457POPC   C4A45810  13.703  39.959   7.145
 3457POPC   C1B45811  13.527  39.881   6.310
 3457POPC   C2B45812  13.589  39.695   6.725
 3457POPC   C3B45813  13.964  39.551   7.000
 3457POPC   C4B45814  14.126  39.414   7.442
 3458POPC   NC345815   7.216  37.518   5.183
 3458POPC   PO445816   7.692  37.868   5.544
 3458POPC   GL145817   7.378  37.634   5.852
 3458POPC   GL245818   7.100  37.858   6.008
 3458POPC   C1A45819   7.298  37.490   6.320
 3458POPC   D2A45820   7.172  37.517   6.758
 3458POPC   C3A45821   7.500  37.558   7.071
 3458POPC   C4A45822   7.506  37.244   7.336
 3458POPC   C1B45823   7.495  37.958   6.234
 3458POPC   C2B45824   7.567  37.834   6.614
 3458POPC   C3B45825   7.320  37.999   6.906
 3458POPC   C4B45826   7.475  38.045   7.315
 3459POPC   NC345827  28.305  17.024   5.433
 3459POPC   PO445828  28.986  17.303   5.570
 3459POPC   GL145829  28.682  16.989   5.799
 3459POPC   GL245830  28.485  16.644   5.764
 3459POPC   C1A45831  28.335  16.974   6.118
 3459POPC   D2A45832  28.101  17.003   6.500
 3459POPC   C3A45833  28.141  16.919   6.936
 3459POPC   C4A45834  28.426  16.691   7.171
 3459POPC   C1B45835  28.352  16.467   6.196
 3459POPC   C2B45836  28.351  16.557   6.647
 3459POPC   C3B45837  28.093  16.370   6.986
 3459POPC   C4B45838  28.187  16.302   7.416
 3460POPC   NC345839  27.079  20.511   5.526
 3460POPC   PO445840  27.714  20.679   5.188
 3460POPC   GL145841  27.592  20.558   5.641
 3460POPC   GL245842  27.606  20.866   5.854
 3460POPC   C1A45843  27.451  20.395   6.081
 3460POPC   D2A45844  27.535  20.558   6.517
 3460POPC   C3A45845  27.347  20.778   6.859
 3460POPC   C4A45846  27.377  20.456   7.191
 3460POPC   C1B45847  27.889  20.654   6.150
 3460POPC   C2B45848  28.048  20.666   6.602
 3460POPC   C3B45849  27.814  20.635   6.990
 3460POPC   C4B45850  27.635  20.990   7.244
 3461POPC   NC345851  33.097  32.486   5.414
 3461POPC   PO445852  33.309  31.861   5.369
 3461POPC   GL145853  33.135  32.054   5.754
 3461POPC   GL245854  32.793  32.223   5.800
 3461POPC   C1A45855  32.957  31.869   6.143
 3461POPC   D2A45856  32.713  32.053   6.474
 3461POPC   C3A45857  32.839  31.933   6.892
 3461POPC   C4A45858  32.673  31.991   7.289
 3461POPC   C1B45859  33.035  32.375   6.199
 3461POPC   C2B45860  33.136  32.288   6.661
 3461POPC   C3B45861  33.049  32.362   7.135
 3461POPC   C4B45862  33.263  32.591   7.536
 3462POPC   NC345863  26.722  26.212   5.154
 3462POPC   PO445864  26.293  25.899   5.625
 3462POPC   GL145865  26.120  26.258   5.904
 3462POPC   GL245866  25.829  26.519   5.761
 3462POPC   C1A45867  26.068  26.199   6.324
 3462POPC   D2A45868  25.948  25.921   6.605
 3462POPC   C3A45869  26.209  26.027   6.933
 3462POPC   C4A45870  25.991  25.849   7.247
 3462POPC   C1B45871  25.622  26.335   6.114
 3462POPC   C2B45872  25.496  26.184   6.525
 3462POPC   C3B45873  25.698  26.211   6.943
 3462POPC   C4B45874  25.560  26.406   7.302
 3463POPC   NC345875  14.405  28.638   5.125
 3463POPC   PO445876  14.640  28.730   5.700
 3463POPC   GL145877  14.489  28.292   5.808
 3463POPC   GL245878  14.825  28.132   5.779
 3463POPC   C1A45879  14.243  28.290   6.231
 3463POPC   D2A45880  14.134  28.619   6.579
 3463POPC   C3A45881  14.268  28.523   7.023
 3463POPC   C4A45882  14.190  28.102   7.218
 3463POPC   C1B45883  14.793  28.303   6.210
 3463POPC   C2B45884  14.608  28.350   6.605
 3463POPC   C3B45885  14.753  28.302   7.003
 3463POPC   C4B45886  14.600  28.313   7.432
 3464POPC   NC345887  42.713   3.900   5.149
 3464POPC   PO445888  43.119   3.438   5.461
 3464POPC   GL145889  43.003   3.616   5.816
 3464POPC   GL245890  42.696   3.440   5.902
 3464POPC   C1A45891  43.287   3.609   6.185
 3464POPC   D2A45892  43.214   3.592   6.614
 3464POPC   C3A45893  43.326   3.279   6.875
 3464POPC   C4A45894  43.285   3.575   7.196
 3464POPC   C1B45895  42.799   3.560   6.297
 3464POPC   C2B45896  42.838   3.252   6.607
 3464POPC   C3B45897  42.749   3.297   7.013
 3464POPC   C4B45898  42.815   3.572   7.371
 3465POPC   NC345899   2.858  10.231   5.434
 3465POPC   PO445900   2.792  10.930   5.210
 3465POPC   GL145901   2.728  10.668   5.689
 3465POPC   GL245902   2.650  10.362   5.860
 3465POPC   C1A45903   2.835  10.653   6.201
 3465POPC   D2A45904   2.901  10.473   6.628
 3465POPC   C3A45905   2.817  10.737   7.012
 3465POPC   C4A45906   2.969  10.834   7.432
 3465POPC   C1B45907   2.526  10.112   6.183
 3465POPC   C2B45908   2.392  10.172   6.599
 3465POPC   C3B45909   2.610  10.201   6.988
 3465POPC   C4B45910   2.791  10.375   7.370
 3466POPC   NC345911  42.627  20.314   5.359
 3466POPC   PO445912  42.205  20.819   5.366
 3466POPC   GL145913  42.377  20.627   5.734
 3466POPC   GL245914  42.219  20.285   5.683
 3466POPC   C1A45915  42.420  20.783   6.182
 3466POPC   D2A45916  42.587  20.686   6.612
 3466POPC   C3A45917  42.399  20.810   7.006
 3466POPC   C4A45918  42.470  20.495   7.309
 3466POPC   C1B45919  42.019  20.458   6.071
 3466POPC   C2B45920  42.073  20.546   6.540
 3466POPC   C3B45921  42.075  20.403   6.988
 3466POPC   C4B45922  41.998  20.491   7.440
 3467POPC   NC345923  24.461  37.803   5.327
 3467POPC   PO445924  24.168  37.236   5.403
 3467POPC   GL145925  24.478  37.326   5.759
 3467POPC   GL245926  24.585  37.680   5.815
 3467POPC   C1A45927  24.646  37.298   6.164
 3467POPC   D2A45928  24.425  37.447   6.516
 3467POPC   C3A45929  24.518  37.453   6.932
 3467POPC   C4A45930  24.310  37.774   7.127
 3467POPC   C1B45931  24.837  37.763   6.208
 3467POPC   C2B45932  24.929  37.556   6.609
 3467POPC   C3B45933  24.859  37.839   6.970
 3467POPC   C4B45934  24.667  38.155   7.224
 3468POPC   NC345935  41.774  25.553   5.004
 3468POPC   PO445936  41.295  25.122   5.389
 3468POPC   GL145937  41.669  25.245   5.707
 3468POPC   GL245938  41.759  24.949   5.940
 3468POPC   C1A45939  41.825  25.468   6.091
 3468POPC   D2A45940  41.927  25.194   6.465
 3468POPC   C3A45941  41.835  25.319   6.872
 3468POPC   C4A45942  41.734  25.094   7.219
 3468POPC   C1B45943  41.461  25.123   6.210
 3468POPC   C2B45944  41.466  25.450   6.517
 3468POPC   C3B45945  41.288  25.328   6.897
 3468POPC   C4B45946  41.116  25.430   7.243
 3469POPC   NC345947   3.233  31.196   5.502
 3469POPC   PO445948   2.564  31.513   5.497
 3469POPC   GL145949   2.832  31.459   5.814
 3469POPC   GL245950   2.696  31.161   5.905
 3469POPC   C1A45951   2.893  31.706   6.160
 3469POPC   D2A45952   2.677  31.773   6.562
 3469POPC   C3A45953   2.830  31.686   6.961
 3469POPC   C4A45954   2.801  31.293   7.166
 3469POPC   C1B45955   2.563  31.323   6.305
 3469POPC   C2B45956   2.510  31.268   6.750
 3469POPC   C3B45957   2.343  31.049   7.102
 3469POPC   C4B45958   2.411  31.189   7.506
 3470POPC   NC345959  14.154  23.765   5.366
 3470POPC   PO445960  14.827  23.536   5.534
 3470POPC   GL145961  14.466  23.742   5.797
 3470POPC   GL245962  14.126  23.521   5.799
 3470POPC   C1A45963  14.393  24.076   6.167
 3470POPC   D2A45964  14.660  24.207   6.563
 3470POPC   C3A45965  14.565  23.971   6.951
 3470POPC   C4A45966  14.153  23.860   7.179
 3470POPC   C1B45967  14.241  23.581   6.233
 3470POPC   C2B45968  14.236  23.681   6.661
 3470POPC   C3B45969  14.400  23.470   6.994
 3470POPC   C4B45970  14.572  23.660   7.367
 3471POPC   NC345971  29.248  16.303   5.333
 3471POPC   PO445972  28.826  15.823   5.432
 3471POPC   GL145973  28.957  16.060   5.773
 3471POPC   GL245974  29.266  15.944   5.833
 3471POPC   C1A45975  29.119  16.256   6.198
 3471POPC   D2A45976  29.274  16.317   6.640
 3471POPC   C3A45977  29.109  16.143   7.026
 3471POPC   C4A45978  29.175  16.202   7.479
 3471POPC   C1B45979  29.074  15.753   6.250
 3471POPC   C2B45980  28.752  15.774   6.625
 3471POPC   C3B45981  28.771  15.731   7.092
 3471POPC   C4B45982  28.846  15.825   7.544
 3472POPC   NC345983  28.368  39.211   5.271
 3472POPC   PO445984  28.937  39.585   5.471
 3472POPC   GL145985  28.544  39.401   5.730
 3472POPC   GL245986  28.315  39.049   5.746
 3472POPC   C1A45987  28.316  39.374   6.138
 3472POPC   D2A45988  28.407  39.375   6.582
 3472POPC   C3A45989  28.162  39.618   6.861
 3472POPC   C4A45990  28.307  39.609   7.266
 3472POPC   C1B45991  28.358  38.837   6.178
 3472POPC   C2B45992  28.295  38.853   6.655
 3472POPC   C3B45993  28.331  39.096   7.039
 3472POPC   C4B45994  28.085  39.114   7.414
 3473POPC   NC345995   0.269  15.528   5.413
 3473POPC   PO445996   0.653  16.049   5.490
 3473POPC   GL145997   0.469  15.871   5.838
 3473POPC   GL245998   0.798  15.839   5.977
 3473POPC   C1A45999   0.159  15.986   6.210
 3473POPC   D2A46000   0.019  16.177   6.619
 3473POPC   C3A46001   0.150  16.008   7.012
 3473POPC   C4A46002   0.209  15.562   7.096
 3473POPC   C1B46003   0.638  16.147   6.284
 3473POPC   C2B46004   0.501  15.940   6.650
 3473POPC   C3B46005   0.650  15.878   7.074
 3473POPC   C4B46006   0.694  16.257   7.297
 3474POPC   NC346007  35.538  18.072   5.273
 3474POPC   PO446008  35.116  18.671   5.169
 3474POPC   GL146009  35.287  18.444   5.549
 3474POPC   GL246010  35.668  18.410   5.638
 3474POPC   C1A46011  35.290  18.223   5.974
 3474POPC   D2A46012  35.165  18.347   6.414
 3474POPC   C3A46013  35.169  18.214   6.848
 3474POPC   C4A46014  35.066  18.467   7.216
 3474POPC   C1B46015  35.757  18.428   6.118
 3474POPC   C2B46016  35.745  18.670   6.548
 3474POPC   C3B46017  35.534  18.570   6.962
 3474POPC   C4B46018  35.565  18.134   7.165
 3475POPC   NC346019  12.741  39.114   5.308
 3475POPC   PO446020  13.444  39.099   5.315
 3475POPC   GL146021  13.141  39.147   5.660
 3475POPC   GL246022  12.978  38.838   5.757
 3475POPC   C1A46023  12.994  39.308   6.082
 3475POPC   D2A46024  13.135  39.547   6.456
 3475POPC   C3A46025  12.922  39.521   6.846
 3475POPC   C4A46026  13.122  39.388   7.211
 3475POPC   C1B46027  12.862  38.805   6.191
 3475POPC   C2B46028  12.735  39.114   6.535
 3475POPC   C3B46029  12.803  39.036   6.960
 3475POPC   C4B46030  12.983  38.913   7.373
 3476POPC   NC346031   2.006   6.457   5.292
 3476POPC   PO446032   1.620   6.857   5.669
 3476POPC   GL146033   2.030   6.779   5.820
 3476POPC   GL246034   2.135   6.483   5.852
 3476POPC   C1A46035   2.246   6.926   6.202
 3476POPC   D2A46036   1.970   7.028   6.573
 3476POPC   C3A46037   1.910   6.932   7.001
 3476POPC   C4A46038   2.183   6.852   7.326
 3476POPC   C1B46039   1.896   6.548   6.261
 3476POPC   C2B46040   1.782   6.549   6.677
 3476POPC   C3B46041   2.083   6.457   7.011
 3476POPC   C4B46042   2.012   6.344   7.460
 3477POPC   NC346043  17.873  29.771   5.365
 3477POPC   PO446044  18.276  30.372   5.370
 3477POPC   GL146045  18.291  30.378   5.848
 3477POPC   GL246046  18.635  30.315   5.923
 3477POPC   C1A46047  18.258  30.391   6.312
 3477POPC   D2A46048  18.233  30.005   6.589
 3477POPC   C3A46049  18.407  29.867   6.963
 3477POPC   C4A46050  18.396  30.174   7.225
 3477POPC   C1B46051  18.696  30.122   6.318
 3477POPC   C2B46052  18.700  30.219   6.741
 3477POPC   C3B46053  18.892  30.225   7.135
 3477POPC   C4B46054  18.798  30.055   7.574
 3478POPC   NC346055  14.183  28.695   5.711
 3478POPC   PO446056  14.343  29.105   5.171
 3478POPC   GL146057  14.442  29.258   5.635
 3478POPC   GL246058  14.160  29.185   5.846
 3478POPC   C1A46059  14.571  29.341   6.116
 3478POPC   D2A46060  14.724  29.367   6.577
 3478POPC   C3A46061  14.541  29.296   7.012
 3478POPC   C4A46062  14.779  29.225   7.446
 3478POPC   C1B46063  14.191  29.059   6.304
 3478POPC   C2B46064  14.064  29.243   6.700
 3478POPC   C3B46065  14.033  29.277   7.144
 3478POPC   C4B46066  14.301  28.983   7.363
 3479POPC   NC346067  37.178   5.107   5.419
 3479POPC   PO446068  36.485   4.858   5.578
 3479POPC   GL146069  36.750   5.071   5.846
 3479POPC   GL246070  37.115   5.095   5.908
 3479POPC   C1A46071  36.761   5.175   6.262
 3479POPC   D2A46072  36.586   5.380   6.593
 3479POPC   C3A46073  36.821   5.184   6.893
 3479POPC   C4A46074  36.717   4.864   7.177
 3479POPC   C1B46075  37.207   5.440   6.119
 3479POPC   C2B46076  37.116   5.483   6.521
 3479POPC   C3B46077  37.290   5.431   6.905
 3479POPC   C4B46078  37.139   5.293   7.277
 3480POPC   NC346079  44.364  13.694   5.480
 3480POPC   PO446080  44.975  13.673   5.329
 3480POPC   GL146081  44.938  13.630   5.766
 3480POPC   GL246082  44.691  13.904   5.842
 3480POPC   C1A46083  44.738  13.345   6.047
 3480POPC   D2A46084  44.557  13.235   6.467
 3480POPC   C3A46085  44.612  13.485   6.850
 3480POPC   C4A46086  44.492  13.418   7.276
 3480POPC   C1B46087  44.670  13.792   6.289
 3480POPC   C2B46088  44.954  13.816   6.637
 3480POPC   C3B46089  44.984  13.809   7.073
 3480POPC   C4B46090  44.732  13.932   7.442
 3481POPC   NC346091   0.718  11.059   5.508
 3481POPC   PO446092   1.378  11.064   5.406
 3481POPC   GL146093   1.129  11.244   5.753
 3481POPC   GL246094   0.966  10.975   5.969
 3481POPC   C1A46095   0.918  11.479   6.110
 3481POPC   D2A46096   1.092  11.547   6.548
 3481POPC   C3A46097   0.949  11.537   6.984
 3481POPC   C4A46098   1.149  11.662   7.382
 3481POPC   C1B46099   1.315  11.184   6.228
 3481POPC   C2B46100   1.539  11.118   6.615
 3481POPC   C3B46101   1.328  11.202   7.016
 3481POPC   C4B46102   0.927  10.978   7.156
 3482POPC   NC346103  44.319  28.632   5.059
 3482POPC   PO446104  43.867  28.325   5.466
 3482POPC   GL146105  43.916  28.343   5.888
 3482POPC   GL246106  44.022  28.665   5.882
 3482POPC   C1A46107  44.096  28.314   6.301
 3482POPC   D2A46108  43.922  27.978   6.554
 3482POPC   C3A46109  43.847  28.108   6.974
 3482POPC   C4A46110  43.576  28.205   7.304
 3482POPC   C1B46111  43.762  28.702   6.227
 3482POPC   C2B46112  43.828  28.860   6.600
 3482POPC   C3B46113  43.948  28.614   6.914
 3482POPC   C4B46114  43.973  28.505   7.321
 3483POPC   NC346115  35.443  31.661   5.359
 3483POPC   PO446116  35.964  32.016   5.672
 3483POPC   GL146117  35.539  31.805   5.843
 3483POPC   GL246118  35.167  31.742   5.792
 3483POPC   C1A46119  35.450  31.438   6.139
 3483POPC   D2A46120  35.267  31.210   6.513
 3483POPC   C3A46121  35.251  31.374   6.934
 3483POPC   C4A46122  35.216  31.198   7.336
 3483POPC   C1B46123  35.193  31.862   6.236
 3483POPC   C2B46124  34.992  31.768   6.621
 3483POPC   C3B46125  35.142  31.847   7.061
 3483POPC   C4B46126  35.348  31.702   7.451
 3484POPC   NC346127   7.809  10.606   5.418
 3484POPC   PO446128   8.441  10.607   5.696
 3484POPC   GL146129   8.279  10.449   6.013
 3484POPC   GL246130   7.965  10.383   5.864
 3484POPC   C1A46131   8.269  10.626   6.404
 3484POPC   D2A46132   8.075  10.989   6.565
 3484POPC   C3A46133   8.057  10.863   6.961
 3484POPC   C4A46134   8.354  10.781   7.262
 3484POPC   C1B46135   7.927  10.154   6.208
 3484POPC   C2B46136   7.886  10.068   6.613
 3484POPC   C3B46137   8.086  10.343   6.918
 3484POPC   C4B46138   8.219  10.291   7.312
 3485POPC   NC346139  12.152   3.706   5.437
 3485POPC   PO446140  11.831   3.109   5.419
 3485POPC   GL146141  11.917   3.415   5.805
 3485POPC   GL246142  12.287   3.501   5.912
 3485POPC   C1A46143  11.972   3.354   6.289
 3485POPC   D2A46144  12.215   3.108   6.599
 3485POPC   C3A46145  12.240   3.275   7.033
 3485POPC   C4A46146  11.878   3.508   7.151
 3485POPC   C1B46147  12.424   3.551   6.383
 3485POPC   C2B46148  12.119   3.679   6.691
 3485POPC   C3B46149  12.100   3.940   7.047
 3485POPC   C4B46150  12.342   3.774   7.357
 3486POPC   NC346151  28.613  11.296   5.424
 3486POPC   PO446152  28.237  11.841   5.353
 3486POPC   GL146153  28.314  11.601   5.724
 3486POPC   GL246154  28.200  11.242   5.766
 3486POPC   C1A46155  28.567  11.411   6.083
 3486POPC   D2A46156  28.729  11.209   6.481
 3486POPC   C3A46157  28.638  11.393   6.874
 3486POPC   C4A46158  28.443  11.261   7.219
 3486POPC   C1B46159  28.087  11.486   6.159
 3486POPC   C2B46160  28.222  11.491   6.575
 3486POPC   C3B46161  28.068  11.542   7.010
 3486POPC   C4B46162  28.031  11.413   7.477
 3487POPC   NC346163  37.178  31.012   5.398
 3487POPC   PO446164  36.873  30.444   5.309
 3487POPC   GL146165  36.888  30.665   5.682
 3487POPC   GL246166  37.217  30.609   5.752
 3487POPC   C1A46167  36.791  30.679   6.129
 3487POPC   D2A46168  36.626  30.528   6.536
 3487POPC   C3A46169  36.832  30.692   6.906
 3487POPC   C4A46170  36.691  30.784   7.317
 3487POPC   C1B46171  37.247  30.440   6.153
 3487POPC   C2B46172  37.125  30.308   6.574
 3487POPC   C3B46173  37.279  30.447   6.958
 3487POPC   C4B46174  37.178  30.574   7.375
 3488POPC   NC346175  27.831  20.225   4.931
 3488POPC   PO446176  27.408  20.037   5.398
 3488POPC   GL146177  27.565  19.960   5.786
 3488POPC   GL246178  27.697  19.630   5.791
 3488POPC   C1A46179  27.384  19.859   6.171
 3488POPC   D2A46180  27.208  19.812   6.561
 3488POPC   C3A46181  27.392  20.129   6.802
 3488POPC   C4A46182  27.556  19.958   7.175
 3488POPC   C1B46183  27.878  19.730   6.225
 3488POPC   C2B46184  27.731  19.759   6.682
 3488POPC   C3B46185  27.904  19.600   7.106
 3488POPC   C4B46186  27.921  19.761   7.584
 3489POPC   NC346187  35.762  10.811   5.068
 3489POPC   PO446188  35.890  11.333   5.416
 3489POPC   GL146189  36.044  11.274   5.819
 3489POPC   GL246190  36.160  11.589   5.936
 3489POPC   C1A46191  35.838  11.288   6.221
 3489POPC   D2A46192  35.966  11.300   6.634
 3489POPC   C3A46193  35.806  11.376   7.025
 3489POPC   C4A46194  36.130  11.301   7.325
 3489POPC   C1B46195  36.444  11.728   6.200
 3489POPC   C2B46196  36.276  11.717   6.592
 3489POPC   C3B46197  36.369  11.462   6.903
 3489POPC   C4B46198  36.611  11.449   7.237
 3490POPC   NC346199   6.286  28.329   5.499
 3490POPC   PO446200   6.917  28.151   5.527
 3490POPC   GL146201   6.645  28.324   5.881
 3490POPC   GL246202   6.710  28.669   5.942
 3490POPC   C1A46203   6.538  28.279   6.351
 3490POPC   D2A46204   6.710  28.436   6.776
 3490POPC   C3A46205   6.587  28.205   7.153
 3490POPC   C4A46206   6.328  27.844   7.200
 3490POPC   C1B46207   6.419  28.763   6.319
 3490POPC   C2B46208   6.497  28.893   6.767
 3490POPC   C3B46209   6.510  28.709   7.192
 3490POPC   C4B46210   6.508  28.511   7.578
 3491POPC   NC346211  38.032  44.089   5.085
 3491POPC   PO446212  37.394  44.169   5.352
 3491POPC   GL146213  37.577  43.991   5.723
 3491POPC   GL246214  37.918  43.952   5.581
 3491POPC   C1A46215  37.497  43.878   6.169
 3491POPC   D2A46216  37.740  44.041   6.506
 3491POPC   C3A46217  37.618  44.013   6.919
 3491POPC   C4A46218  37.332  43.776   7.158
 3491POPC   C1B46219  38.018  43.944   6.020
 3491POPC   C2B46220  38.008  43.643   6.351
 3491POPC   C3B46221  38.031  43.724   6.801
 3491POPC   C4B46222  37.830  43.582   7.178
 3492POPC   NC346223   1.187  20.228   5.429
 3492POPC   PO446224   1.602  20.837   5.519
 3492POPC   GL146225   1.200  20.727   5.833
 3492POPC   GL246226   1.116  20.369   5.905
 3492POPC   C1A46227   1.013  20.652   6.300
 3492POPC   D2A46228   0.971  20.741   6.735
 3492POPC   C3A46229   1.176  20.555   7.084
 3492POPC   C4A46230   1.273  20.811   7.403
 3492POPC   C1B46231   1.030  20.131   6.285
 3492POPC   C2B46232   1.103  20.199   6.725
 3492POPC   C3B46233   1.087  20.054   7.166
 3492POPC   C4B46234   1.033  20.275   7.590
 3493POPC   NC346235   8.663   6.173   5.373
 3493POPC   PO446236   8.968   5.544   5.370
 3493POPC   GL146237   9.144   5.866   5.689
 3493POPC   GL246238   9.467   5.760   5.783
 3493POPC   C1A46239   9.128   6.093   6.117
 3493POPC   D2A46240   8.780   6.114   6.411
 3493POPC   C3A46241   8.914   6.120   6.831
 3493POPC   C4A46242   8.769   5.917   7.195
 3493POPC   C1B46243   9.393   5.626   6.209
 3493POPC   C2B46244   9.320   5.888   6.586
 3493POPC   C3B46245   9.240   5.760   7.037
 3493POPC   C4B46246   9.118   5.544   7.432
 3494POPC   NC346247   6.186  31.402   5.496
 3494POPC   PO446248   5.542  31.200   5.436
 3494POPC   GL146249   5.750  31.462   5.841
 3494POPC   GL246250   6.112  31.601   5.958
 3494POPC   C1A46251   5.759  31.605   6.311
 3494POPC   D2A46252   5.648  31.868   6.664
 3494POPC   C3A46253   5.669  31.608   7.035
 3494POPC   C4A46254   5.527  31.647   7.475
 3494POPC   C1B46255   6.081  31.194   6.210
 3494POPC   C2B46256   6.091  31.091   6.679
 3494POPC   C3B46257   6.219  31.332   7.064
 3494POPC   C4B46258   6.385  31.322   7.498
 3495POPC   NC346259  25.045  41.125   5.560
 3495POPC   PO446260  25.269  40.576   5.215
 3495POPC   GL146261  25.463  40.632   5.787
 3495POPC   GL246262  25.803  40.581   5.856
 3495POPC   C1A46263  25.191  40.679   6.279
 3495POPC   D2A46264  25.016  40.777   6.737
 3495POPC   C3A46265  25.187  40.995   7.081
 3495POPC   C4A46266  25.099  41.062   7.501
 3495POPC   C1B46267  25.687  40.613   6.299
 3495POPC   C2B46268  25.537  40.836   6.659
 3495POPC   C3B46269  25.574  40.666   7.059
 3495POPC   C4B46270  25.594  40.922   7.442
 3496POPC   NC346271  30.776  14.845   5.406
 3496POPC   PO446272  30.504  15.452   5.407
 3496POPC   GL146273  30.588  15.310   5.792
 3496POPC   GL246274  30.491  14.976   5.839
 3496POPC   C1A46275  30.752  15.307   6.196
 3496POPC   D2A46276  30.928  15.143   6.551
 3496POPC   C3A46277  30.825  15.377   6.914
 3496POPC   C4A46278  30.735  15.376   7.337
 3496POPC   C1B46279  30.568  14.806   6.229
 3496POPC   C2B46280  30.471  14.932   6.639
 3496POPC   C3B46281  30.725  14.898   6.979
 3496POPC   C4B46282  30.903  14.904   7.398
 3497POPC   NC346283  17.634  23.917   5.593
 3497POPC   PO446284  17.078  23.531   5.476
 3497POPC   GL146285  17.302  23.662   5.868
 3497POPC   GL246286  17.619  23.439   5.870
 3497POPC   C1A46287  17.532  23.756   6.286
 3497POPC   D2A46288  17.611  23.973   6.674
 3497POPC   C3A46289  17.465  23.774   7.056
 3497POPC   C4A46290  17.119  23.514   7.157
 3497POPC   C1B46291  17.696  23.273   6.313
 3497POPC   C2B46292  17.844  23.477   6.717
 3497POPC   C3B46293  17.969  23.789   6.997
 3497POPC   C4B46294  17.875  23.821   7.433
 3498POPC   NC346295  27.630  24.597   5.310
 3498POPC   PO446296  27.287  24.064   5.325
 3498POPC   GL146297  27.557  24.244   5.708
 3498POPC   GL246298  27.698  24.622   5.810
 3498POPC   C1A46299  27.630  24.263   6.154
 3498POPC   D2A46300  27.749  24.532   6.481
 3498POPC   C3A46301  27.684  24.358   6.861
 3498POPC   C4A46302  27.531  24.454   7.246
 3498POPC   C1B46303  27.975  24.849   6.130
 3498POPC   C2B46304  28.190  24.793   6.530
 3498POPC   C3B46305  27.974  24.801   6.894
 3498POPC   C4B46306  27.744  24.927   7.209
 3499POPC   NC346307  11.383  34.752   4.980
 3499POPC   PO446308  10.987  34.347   5.420
 3499POPC   GL146309  11.161  34.619   5.743
 3499POPC   GL246310  11.459  34.414   5.796
 3499POPC   C1A46311  11.148  34.708   6.208
 3499POPC   D2A46312  10.953  34.584   6.619
 3499POPC   C3A46313  11.085  34.714   7.039
 3499POPC   C4A46314  10.965  34.656   7.491
 3499POPC   C1B46315  11.621  34.496   6.190
 3499POPC   C2B46316  11.621  34.718   6.564
 3499POPC   C3B46317  11.625  34.575   6.968
 3499POPC   C4B46318  11.468  34.595   7.369
 3500POPC   NC346319  27.890  19.945   5.374
 3500POPC   PO446320  28.581  19.599   5.403
 3500POPC   GL146321  28.512  19.837   5.760
 3500POPC   GL246322  28.170  19.831   5.772
 3500POPC   C1A46323  28.413  19.940   6.199
 3500POPC   D2A46324  28.245  19.817   6.608
 3500POPC   C3A46325  28.585  19.948   6.883
 3500POPC   C4A46326  28.928  19.761   7.106
 3500POPC   C1B46327  27.977  20.170   6.002
 3500POPC   C2B46328  27.889  20.199   6.444
 3500POPC   C3B46329  27.982  20.165   6.893
 3500POPC   C4B46330  28.217  19.966   7.224
 3501POPC   NC346331  18.288  14.294   5.474
 3501POPC   PO446332  18.746  14.719   5.747
 3501POPC   GL146333  18.506  14.388   5.959
 3501POPC   GL246334  18.184  14.186   5.960
 3501POPC   C1A46335  18.321  14.421   6.392
 3501POPC   D2A46336  18.099  14.248   6.738
 3501POPC   C3A46337  18.196  14.467   7.127
 3501POPC   C4A46338  18.109  14.902   7.290
 3501POPC   C1B46339  18.484  13.961   6.236
 3501POPC   C2B46340  18.454  13.823   6.636
 3501POPC   C3B46341  18.467  14.016   7.010
 3501POPC   C4B46342  18.502  14.179   7.390
 3502POPC   NC346343   2.071  14.701   5.403
 3502POPC   PO446344   1.528  14.759   5.366
 3502POPC   GL146345   1.684  14.508   5.744
 3502POPC   GL246346   2.016  14.366   5.802
 3502POPC   C1A46347   1.712  14.481   6.237
 3502POPC   D2A46348   1.880  14.502   6.701
 3502POPC   C3A46349   1.633  14.442   7.104
 3502POPC   C4A46350   1.626  14.728   7.488
 3502POPC   C1B46351   2.241  14.531   6.206
 3502POPC   C2B46352   2.412  14.490   6.658
 3502POPC   C3B46353   2.345  14.254   7.073
 3502POPC   C4B46354   2.475  14.310   7.540
 3503POPC   NC346355  22.693  20.673   5.261
 3503POPC   PO446356  23.389  20.751   5.148
 3503POPC   GL146357  23.137  20.601   5.577
 3503POPC   GL246358  23.365  20.431   5.799
 3503POPC   C1A46359  22.960  20.592   6.071
 3503POPC   D2A46360  22.870  20.440   6.547
 3503POPC   C3A46361  23.025  20.535   7.011
 3503POPC   C4A46362  22.931  20.537   7.473
 3503POPC   C1B46363  23.475  20.562   6.220
 3503POPC   C2B46364  23.334  20.692   6.615
 3503POPC   C3B46365  23.431  20.836   7.023
 3503POPC   C4B46366  23.410  20.626   7.409
 3504POPC   NC346367  36.348  36.034   5.640
 3504POPC   PO446368  35.742  36.281   5.280
 3504POPC   GL146369  35.917  36.326   5.704
 3504POPC   GL246370  35.821  35.993   5.782
 3504POPC   C1A46371  36.151  36.389   6.146
 3504POPC   D2A46372  36.190  36.296   6.607
 3504POPC   C3A46373  36.272  35.886   6.785
 3504POPC   C4A46374  36.443  35.952   7.182
 3504POPC   C1B46375  35.721  36.115   6.184
 3504POPC   C2B46376  35.772  35.982   6.589
 3504POPC   C3B46377  35.871  36.136   6.991
 3504POPC   C4B46378  36.095  36.435   7.166
 3505POPC   NC346379  44.018  21.509   5.239
 3505POPC   PO446380  43.640  21.074   5.460
 3505POPC   GL146381  43.587  21.423   5.743
 3505POPC   GL246382  43.926  21.577   5.744
 3505POPC   C1A46383  43.581  21.313   6.203
 3505POPC   D2A46384  43.821  21.129   6.565
 3505POPC   C3A46385  43.647  21.158   6.978
 3505POPC   C4A46386  43.661  21.200   7.420
 3505POPC   C1B46387  43.851  21.748   6.157
 3505POPC   C2B46388  43.707  21.659   6.572
 3505POPC   C3B46389  43.936  21.570   6.929
 3505POPC   C4B46390  43.989  21.782   7.298
 3506POPC   NC346391  27.717  35.718   5.466
 3506POPC   PO446392  27.442  35.202   5.357
 3506POPC   GL146393  27.500  35.388   5.788
 3506POPC   GL246394  27.836  35.409   5.879
 3506POPC   C1A46395  27.430  35.281   6.237
 3506POPC   D2A46396  27.744  35.283   6.564
 3506POPC   C3A46397  27.538  35.118   6.907
 3506POPC   C4A46398  27.369  35.175   7.316
 3506POPC   C1B46399  27.640  35.731   6.183
 3506POPC   C2B46400  27.610  35.767   6.657
 3506POPC   C3B46401  27.598  35.590   7.082
 3506POPC   C4B46402  27.683  35.529   7.547
 3507POPC   NC346403  34.253  22.623   4.989
 3507POPC   PO446404  34.490  23.166   5.320
 3507POPC   GL146405  34.463  23.135   5.774
 3507POPC   GL246406  34.360  22.813   5.878
 3507POPC   C1A46407  34.382  23.283   6.211
 3507POPC   D2A46408  34.560  23.120   6.628
 3507POPC   C3A46409  34.352  22.943   7.016
 3507POPC   C4A46410  34.445  22.900   7.479
 3507POPC   C1B46411  34.742  22.895   6.153
 3507POPC   C2B46412  34.916  22.720   6.543
 3507POPC   C3B46413  34.777  22.623   6.994
 3507POPC   C4B46414  34.771  22.519   7.451
 3508POPC   NC346415  12.086  13.614   5.439
 3508POPC   PO446416  11.544  13.259   5.176
 3508POPC   GL146417  11.651  13.517   5.663
 3508POPC   GL246418  11.655  13.815   5.833
 3508POPC   C1A46419  12.034  13.587   6.071
 3508POPC   D2A46420  12.334  13.657   6.422
 3508POPC   C3A46421  12.195  13.684   6.854
 3508POPC   C4A46422  12.184  13.551   7.300
 3508POPC   C1B46423  11.582  13.402   6.148
 3508POPC   C2B46424  11.640  13.267   6.573
 3508POPC   C3B46425  11.756  13.437   6.976
 3508POPC   C4B46426  11.711  13.325   7.420
 3509POPC   NC346427  44.443  17.036   5.468
 3509POPC   PO446428  43.770  17.090   5.424
 3509POPC   GL146429  43.771  16.735   5.751
 3509POPC   GL246430  44.126  16.760   5.773
 3509POPC   C1A46431  43.792  16.640   6.209
 3509POPC   D2A46432  43.701  17.004   6.522
 3509POPC   C3A46433  43.852  16.897   6.897
 3509POPC   C4A46434  43.953  16.504   7.077
 3509POPC   C1B46435  44.128  17.011   6.138
 3509POPC   C2B46436  44.200  16.793   6.526
 3509POPC   C3B46437  44.360  16.786   6.928
 3509POPC   C4B46438  44.434  16.521   7.242
 3510POPC   NC346439   0.938   3.056   5.497
 3510POPC   PO446440   1.312   2.616   5.066
 3510POPC   GL146441   1.335   2.570   5.593
 3510POPC   GL246442   1.340   2.916   5.764
 3510POPC   C1A46443   1.207   2.578   6.105
 3510POPC   D2A46444   1.350   2.651   6.533
 3510POPC   C3A46445   1.118   2.536   6.886
 3510POPC   C4A46446   1.280   2.496   7.267
 3510POPC   C1B46447   1.055   3.087   6.117
 3510POPC   C2B46448   1.019   3.168   6.527
 3510POPC   C3B46449   0.902   3.004   6.902
 3510POPC   C4B46450   0.869   2.807   7.293
 3511POPC   NC346451  35.110  13.035   5.331
 3511POPC   PO446452  35.773  12.858   5.556
 3511POPC   GL146453  35.413  12.953   5.784
 3511POPC   GL246454  35.158  12.713   5.777
 3511POPC   C1A46455  35.513  12.938   6.216
 3511POPC   D2A46456  35.296  13.051   6.570
 3511POPC   C3A46457  35.513  12.899   6.933
 3511POPC   C4A46458  35.652  13.111   7.298
 3511POPC   C1B46459  35.097  12.661   6.220
 3511POPC   C2B46460  35.195  12.556   6.656
 3511POPC   C3B46461  35.047  12.720   7.072
 3511POPC   C4B46462  34.798  12.979   7.366
 3512POPC   NC346463   9.514   9.238   5.353
 3512POPC   PO446464   9.855   8.622   5.293
 3512POPC   GL146465   9.726   8.899   5.673
 3512POPC   GL246466   9.974   9.161   5.674
 3512POPC   C1A46467   9.578   9.067   6.104
 3512POPC   D2A46468   9.583   8.936   6.548
 3512POPC   C3A46469   9.572   9.181   6.909
 3512POPC   C4A46470   9.655   9.022   7.324
 3512POPC   C1B46471  10.028   9.300   6.113
 3512POPC   C2B46472  10.084   9.131   6.565
 3512POPC   C3B46473  10.071   9.240   7.030
 3512POPC   C4B46474  10.164   9.067   7.446
 3513POPC   NC346475  36.819  27.159   5.644
 3513POPC   PO446476  36.526  27.861   5.608
 3513POPC   GL146477  36.915  27.918   5.862
 3513POPC   GL246478  37.015  27.562   5.885
 3513POPC   C1A46479  37.168  27.901   6.249
 3513POPC   D2A46480  37.147  27.645   6.625
 3513POPC   C3A46481  37.133  27.924   7.002
 3513POPC   C4A46482  37.205  27.805   7.439
 3513POPC   C1B46483  36.758  27.589   6.228
 3513POPC   C2B46484  36.632  27.490   6.637
 3513POPC   C3B46485  36.756  27.563   7.070
 3513POPC   C4B46486  36.542  27.380   7.413
 3514POPC   NC346487  39.670  18.182   5.266
 3514POPC   PO446488  40.300  18.240   5.379
 3514POPC   GL146489  39.970  18.215   5.713
 3514POPC   GL246490  40.202  18.027   5.876
 3514POPC   C1A46491  39.774  18.346   6.127
 3514POPC   D2A46492  39.712  18.567   6.527
 3514POPC   C3A46493  39.634  18.316   6.927
 3514POPC   C4A46494  39.367  17.979   7.115
 3514POPC   C1B46495  40.250  18.276   6.254
 3514POPC   C2B46496  40.216  18.483   6.629
 3514POPC   C3B46497  40.213  18.454   7.047
 3514POPC   C4B46498  39.898  18.556   7.306
 3515POPC   NC346499  25.729  19.776   5.419
 3515POPC   PO446500  25.145  20.084   5.567
 3515POPC   GL146501  25.471  19.918   5.848
 3515POPC   GL246502  25.612  19.538   5.845
 3515POPC   C1A46503  25.338  20.046   6.247
 3515POPC   D2A46504  24.997  20.196   6.492
 3515POPC   C3A46505  25.129  20.047   6.871
 3515POPC   C4A46506  25.208  20.146   7.287
 3515POPC   C1B46507  25.378  19.522   6.226
 3515POPC   C2B46508  25.174  19.550   6.659
 3515POPC   C3B46509  25.258  19.628   7.135
 3515POPC   C4B46510  25.546  19.801   7.454
 3516POPC   NC346511   7.822   8.491   5.465
 3516POPC   PO446512   7.464   9.116   5.389
 3516POPC   GL146513   7.506   8.965   5.773
 3516POPC   GL246514   7.843   8.910   5.766
 3516POPC   C1A46515   7.262   8.885   6.139
 3516POPC   D2A46516   7.034   9.106   6.444
 3516POPC   C3A46517   7.156   9.136   6.845
 3516POPC   C4A46518   7.129   8.820   7.157
 3516POPC   C1B46519   7.796   9.157   6.147
 3516POPC   C2B46520   7.562   9.048   6.525
 3516POPC   C3B46521   7.624   8.930   6.953
 3516POPC   C4B46522   7.864   9.214   7.179
 3517POPC   NC346523  24.590  30.593   5.234
 3517POPC   PO446524  24.271  31.121   5.386
 3517POPC   GL146525  24.477  30.783   5.697
 3517POPC   GL246526  24.295  30.460   5.664
 3517POPC   C1A46527  24.715  30.619   6.105
 3517POPC   D2A46528  24.852  30.539   6.564
 3517POPC   C3A46529  24.654  30.836   6.847
 3517POPC   C4A46530  24.571  30.904   7.282
 3517POPC   C1B46531  24.197  30.642   6.095
 3517POPC   C2B46532  24.340  30.504   6.498
 3517POPC   C3B46533  24.232  30.579   6.909
 3517POPC   C4B46534  24.205  30.509   7.341
 3518POPC   NC346535  40.096   6.380   5.469
 3518POPC   PO446536  39.634   6.833   5.268
 3518POPC   GL146537  39.918   6.817   5.730
 3518POPC   GL246538  40.291   6.893   5.728
 3518POPC   C1A46539  39.881   6.626   6.183
 3518POPC   D2A46540  39.742   6.797   6.588
 3518POPC   C3A46541  39.921   6.630   6.971
 3518POPC   C4A46542  39.872   6.445   7.376
 3518POPC   C1B46543  40.391   6.649   6.128
 3518POPC   C2B46544  40.290   6.644   6.597
 3518POPC   C3B46545  40.376   6.891   6.992
 3518POPC   C4B46546  40.425   6.903   7.455
 3519POPC   NC346547  31.996   1.641   5.312
 3519POPC   PO446548  32.666   1.784   5.194
 3519POPC   GL146549  32.488   1.902   5.658
 3519POPC   GL246550  32.212   2.159   5.796
 3519POPC   C1A46551  32.481   1.924   6.147
 3519POPC   D2A46552  32.240   1.852   6.539
 3519POPC   C3A46553  32.382   1.965   6.941
 3519POPC   C4A46554  32.323   1.837   7.371
 3519POPC   C1B46555  31.973   1.877   6.104
 3519POPC   C2B46556  31.726   1.913   6.503
 3519POPC   C3B46557  31.878   1.936   6.908
 3519POPC   C4B46558  31.968   2.190   7.267
 3520POPC   NC346559  17.238  32.475   5.335
 3520POPC   PO446560  17.786  32.097   5.250
 3520POPC   GL146561  17.662  32.043   5.678
 3520POPC   GL246562  17.288  31.989   5.711
 3520POPC   C1A46563  17.702  32.296   6.060
 3520POPC   D2A46564  17.519  32.535   6.416
 3520POPC   C3A46565  17.358  32.309   6.771
 3520POPC   C4A46566  17.674  32.312   7.061
 3520POPC   C1B46567  17.061  31.961   6.135
 3520POPC   C2B46568  16.834  31.978   6.534
 3520POPC   C3B46569  16.969  31.965   6.950
 3520POPC   C4B46570  17.302  31.976   7.192
 3521POPC   NC346571  20.604  15.210   5.402
 3521POPC   PO446572  20.052  15.627   5.455
 3521POPC   GL146573  20.368  15.417   5.789
 3521POPC   GL246574  20.369  15.114   5.874
 3521POPC   C1A46575  20.763  15.311   6.110
 3521POPC   D2A46576  20.831  15.061   6.522
 3521POPC   C3A46577  20.708  15.171   6.947
 3521POPC   C4A46578  20.666  14.831   7.255
 3521POPC   C1B46579  20.349  15.082   6.341
 3521POPC   C2B46580  20.313  14.869   6.777
 3521POPC   C3B46581  20.218  15.068   7.200
 3521POPC   C4B46582  20.147  15.181   7.644
 3522POPC   NC346583  21.143  11.515   5.130
 3522POPC   PO446584  21.542  11.197   5.316
 3522POPC   GL146585  21.177  11.250   5.632
 3522POPC   GL246586  21.061  10.980   5.863
 3522POPC   C1A46587  21.066  11.417   6.091
 3522POPC   D2A46588  20.949  11.251   6.523
 3522POPC   C3A46589  21.111  11.421   6.918
 3522POPC   C4A46590  21.283  11.170   7.232
 3522POPC   C1B46591  21.311  10.991   6.275
 3522POPC   C2B46592  21.435  11.017   6.746
 3522POPC   C3B46593  21.712  10.939   7.131
 3522POPC   C4B46594  21.529  10.726   7.492
 3523POPC   NC346595   9.919  42.137   5.702
 3523POPC   PO446596   9.421  42.603   5.482
 3523POPC   GL146597   9.428  42.298   5.889
 3523POPC   GL246598   9.523  41.932   5.954
 3523POPC   C1A46599   9.595  42.235   6.336
 3523POPC   D2A46600   9.998  42.324   6.554
 3523POPC   C3A46601   9.987  42.595   6.903
 3523POPC   C4A46602   9.814  42.597   7.335
 3523POPC   C1B46603   9.866  41.793   6.233
 3523POPC   C2B46604   9.821  41.837   6.638
 3523POPC   C3B46605   9.735  42.103   6.955
 3523POPC   C4B46606   9.611  41.775   7.212
 3524POPC   NC346607   8.398  18.202   5.434
 3524POPC   PO446608   7.907  18.676   5.359
 3524POPC   GL146609   8.166  18.562   5.717
 3524POPC   GL246610   8.151  18.189   5.880
 3524POPC   C1A46611   8.220  18.605   6.152
 3524POPC   D2A46612   7.988  18.535   6.513
 3524POPC   C3A46613   8.220  18.512   6.878
 3524POPC   C4A46614   8.198  18.764   7.241
 3524POPC   C1B46615   8.284  18.097   6.344
 3524POPC   C2B46616   8.303  17.967   6.803
 3524POPC   C3B46617   8.402  18.172   7.210
 3524POPC   C4B46618   8.662  18.520   7.214
 3525POPC   NC346619   6.772  43.617   5.503
 3525POPC   PO446620   6.356  44.114   5.385
 3525POPC   GL146621   6.522  44.016   5.796
 3525POPC   GL246622   6.385  43.660   5.842
 3525POPC   C1A46623   6.640  44.266   6.183
 3525POPC   D2A46624   6.731  44.096   6.586
 3525POPC   C3A46625   6.704  44.267   6.958
 3525POPC   C4A46626   6.832  44.173   7.347
 3525POPC   C1B46627   6.603  43.753   6.225
 3525POPC   C2B46628   6.450  43.682   6.645
 3525POPC   C3B46629   6.550  43.818   7.070
 3525POPC   C4B46630   6.443  43.783   7.500
 3526POPC   NC346631  39.495  42.920   5.351
 3526POPC   PO446632  39.098  43.522   5.228
 3526POPC   GL146633  39.063  43.219   5.595
 3526POPC   GL246634  39.378  43.220   5.732
 3526POPC   C1A46635  39.083  43.014   6.063
 3526POPC   D2A46636  39.235  43.164   6.478
 3526POPC   C3A46637  39.280  42.909   6.847
 3526POPC   C4A46638  39.353  43.018   7.279
 3526POPC   C1B46639  39.608  43.063   6.118
 3526POPC   C2B46640  39.689  42.838   6.532
 3526POPC   C3B46641  39.788  42.914   7.019
 3526POPC   C4B46642  39.766  42.849   7.517
 3527POPC   NC346643  43.758  11.602   5.345
 3527POPC   PO446644  43.641  10.973   5.187
 3527POPC   GL146645  43.755  11.195   5.656
 3527POPC   GL246646  44.093  11.422   5.706
 3527POPC   C1A46647  43.707  11.351   6.122
 3527POPC   D2A46648  43.488  11.274   6.552
 3527POPC   C3A46649  43.706  11.408   6.965
 3527POPC   C4A46650  43.925  11.725   7.244
 3527POPC   C1B46651  44.236  11.569   6.134
 3527POPC   C2B46652  44.303  11.497   6.601
 3527POPC   C3B46653  44.204  11.234   6.999
 3527POPC   C4B46654  44.149  10.932   7.350
 3528POPC   NC346655  23.666  38.231   5.436
 3528POPC   PO446656  23.827  38.853   5.545
 3528POPC   GL146657  23.787  38.599   5.929
 3528POPC   GL246658  23.505  38.317   5.907
 3528POPC   C1A46659  23.871  38.639   6.401
 3528POPC   D2A46660  23.851  38.708   6.867
 3528POPC   C3A46661  23.764  38.289   7.122
 3528POPC   C4A46662  24.046  38.080   7.422
 3528POPC   C1B46663  23.396  38.561   6.260
 3528POPC   C2B46664  23.424  38.480   6.700
 3528POPC   C3B46665  23.363  38.621   7.102
 3528POPC   C4B46666  23.411  38.471   7.494
 3529POPC   NC346667  43.739   9.911   5.636
 3529POPC   PO446668  44.279   9.564   5.392
 3529POPC   GL146669  44.065   9.530   5.795
 3529POPC   GL246670  43.772   9.357   5.850
 3529POPC   C1A46671  43.978   9.734   6.227
 3529POPC   D2A46672  43.874  10.032   6.570
 3529POPC   C3A46673  44.105   9.987   6.898
 3529POPC   C4A46674  44.156   9.795   7.254
 3529POPC   C1B46675  43.497   9.535   6.195
 3529POPC   C2B46676  43.562   9.649   6.636
 3529POPC   C3B46677  43.653   9.787   7.065
 3529POPC   C4B46678  43.418   9.694   7.438
 3530POPC   NC346679  13.682  17.105   5.460
 3530POPC   PO446680  13.291  16.740   5.269
 3530POPC   GL146681  13.317  16.708   5.724
 3530POPC   GL246682  13.347  17.056   5.844
 3530POPC   C1A46683  13.455  16.415   6.075
 3530POPC   D2A46684  13.647  16.401   6.502
 3530POPC   C3A46685  13.419  16.305   6.856
 3530POPC   C4A46686  13.483  16.387   7.276
 3530POPC   C1B46687  13.611  16.919   6.206
 3530POPC   C2B46688  13.721  17.117   6.610
 3530POPC   C3B46689  13.647  17.041   7.030
 3530POPC   C4B46690  13.406  17.031   7.397
 3531POPC   NC346691   7.003   7.420   5.420
 3531POPC   PO446692   7.686   7.326   5.438
 3531POPC   GL146693   7.415   7.465   5.746
 3531POPC   GL246694   7.440   7.147   5.894
 3531POPC   C1A46695   7.130   7.436   6.124
 3531POPC   D2A46696   7.361   7.321   6.476
 3531POPC   C3A46697   7.427   7.606   6.798
 3531POPC   C4A46698   7.235   7.474   7.170
 3531POPC   C1B46699   7.748   7.025   6.214
 3531POPC   C2B46700   7.842   7.177   6.612
 3531POPC   C3B46701   7.600   7.146   6.980
 3531POPC   C4B46702   7.711   7.186   7.395
 3532POPC   NC346703  18.508   4.898   5.422
 3532POPC   PO446704  17.948   5.265   5.457
 3532POPC   GL146705  18.223   5.155   5.812
 3532POPC   GL246706  18.531   5.248   5.794
 3532POPC   C1A46707  18.344   4.954   6.225
 3532POPC   D2A46708  18.180   4.774   6.624
 3532POPC   C3A46709  18.016   5.005   6.941
 3532POPC   C4A46710  18.006   5.320   7.276
 3532POPC   C1B46711  18.455   5.446   6.178
 3532POPC   C2B46712  18.287   5.333   6.589
 3532POPC   C3B46713  18.460   5.233   6.969
 3532POPC   C4B46714  18.573   5.339   7.379
 3533POPC   NC346715   4.870  44.873   5.357
 3533POPC   PO446716   5.458  44.431   5.367
 3533POPC   GL146717   5.233  44.624   5.727
 3533POPC   GL246718   4.899  44.525   5.725
 3533POPC   C1A46719   5.336  44.725   6.165
 3533POPC   D2A46720   5.214  44.905   6.547
 3533POPC   C3A46721   5.338  44.669   6.911
 3533POPC   C4A46722   5.396  44.751   7.352
 3533POPC   C1B46723   4.859  44.835   6.058
 3533POPC   C2B46724   4.744  44.771   6.475
 3533POPC   C3B46725   4.846  44.866   6.901
 3533POPC   C4B46726   4.759  44.805   7.323
 3534POPC   NC346727  11.837   8.798   5.483
 3534POPC   PO446728  12.319   9.284   5.520
 3534POPC   GL146729  12.074   9.098   5.813
 3534POPC   GL246730  12.363   8.932   5.909
 3534POPC   C1A46731  11.936   9.000   6.215
 3534POPC   D2A46732  11.800   8.738   6.523
 3534POPC   C3A46733  12.007   8.842   6.902
 3534POPC   C4A46734  11.857   8.780   7.295
 3534POPC   C1B46735  12.353   9.307   6.198
 3534POPC   C2B46736  12.241   9.233   6.617
 3534POPC   C3B46737  12.367   9.206   7.035
 3534POPC   C4B46738  12.260   9.090   7.453
 3535POPC   NC346739  24.767  24.796   5.275
 3535POPC   PO446740  24.163  24.566   5.428
 3535POPC   GL146741  24.416  24.488   5.770
 3535POPC   GL246742  24.743  24.667   5.771
 3535POPC   C1A46743  24.308  24.474   6.208
 3535POPC   D2A46744  24.143  24.687   6.596
 3535POPC   C3A46745  24.362  24.516   6.977
 3535POPC   C4A46746  24.747  24.232   6.975
 3535POPC   C1B46747  24.534  24.914   6.117
 3535POPC   C2B46748  24.672  25.042   6.542
 3535POPC   C3B46749  24.814  24.745   6.863
 3535POPC   C4B46750  24.744  24.640   7.309
 3536POPC   NC346751  24.964  34.592   5.346
 3536POPC   PO446752  24.353  34.359   5.316
 3536POPC   GL146753  24.586  34.555   5.677
 3536POPC   GL246754  24.569  34.281   5.878
 3536POPC   C1A46755  24.671  34.812   6.048
 3536POPC   D2A46756  24.796  34.929   6.479
 3536POPC   C3A46757  24.898  34.689   6.845
 3536POPC   C4A46758  24.693  34.758   7.229
 3536POPC   C1B46759  24.407  34.454   6.279
 3536POPC   C2B46760  24.417  34.585   6.709
 3536POPC   C3B46761  24.212  34.566   7.111
 3536POPC   C4B46762  24.307  34.511   7.542
 3537POPC   NC346763  23.964   2.179   5.413
 3537POPC   PO446764  23.463   1.838   5.028
 3537POPC   GL146765  23.577   1.854   5.510
 3537POPC   GL246766  23.889   1.701   5.683
 3537POPC   C1A46767  23.597   2.008   5.974
 3537POPC   D2A46768  23.613   1.958   6.433
 3537POPC   C3A46769  23.844   2.070   6.833
 3537POPC   C4A46770  23.540   2.167   7.184
 3537POPC   C1B46771  23.870   1.602   6.140
 3537POPC   C2B46772  23.960   1.624   6.589
 3537POPC   C3B46773  23.954   1.495   7.033
 3537POPC   C4B46774  23.919   1.870   7.318
 3538POPC   NC346775  10.426  33.958   5.352
 3538POPC   PO446776  10.705  33.382   5.458
 3538POPC   GL146777  10.661  33.699   5.803
 3538POPC   GL246778  10.351  33.967   5.857
 3538POPC   C1A46779  10.583  33.751   6.261
 3538POPC   D2A46780  10.251  33.660   6.568
 3538POPC   C3A46781  10.419  33.712   6.981
 3538POPC   C4A46782  10.878  33.789   7.032
 3538POPC   C1B46783  10.272  34.178   6.282
 3538POPC   C2B46784  10.222  34.153   6.746
 3538POPC   C3B46785  10.417  34.188   7.160
 3538POPC   C4B46786  10.833  34.235   7.269
 3539POPC   NC346787  34.059  15.933   5.400
 3539POPC   PO446788  33.433  16.196   5.385
 3539POPC   GL146789  33.758  16.220   5.712
 3539POPC   GL246790  33.747  15.844   5.784
 3539POPC   C1A46791  34.109  16.086   6.047
 3539POPC   D2A46792  34.068  15.789   6.391
 3539POPC   C3A46793  34.126  15.879   6.834
 3539POPC   C4A46794  33.972  15.693   7.219
 3539POPC   C1B46795  33.635  16.014   6.181
 3539POPC   C2B46796  33.463  15.901   6.549
 3539POPC   C3B46797  33.599  15.871   6.939
 3539POPC   C4B46798  33.773  16.178   7.207
 3540POPC   NC346799  38.800  11.092   5.493
 3540POPC   PO446800  38.189  11.247   5.478
 3540POPC   GL146801  38.355  10.993   5.841
 3540POPC   GL246802  38.611  11.248   5.954
 3540POPC   C1A46803  38.496  10.896   6.307
 3540POPC   D2A46804  38.598  11.168   6.672
 3540POPC   C3A46805  38.336  11.062   7.019
 3540POPC   C4A46806  38.430  10.862   7.419
 3540POPC   C1B46807  38.498  11.602   6.218
 3540POPC   C2B46808  38.654  11.759   6.596
 3540POPC   C3B46809  38.524  11.618   6.975
 3540POPC   C4B46810  38.615  11.361   7.303
 3541POPC   NC346811  40.193  39.569   5.429
 3541POPC   PO446812  39.961  39.009   5.449
 3541POPC   GL146813  39.899  39.271   5.869
 3541POPC   GL246814  40.212  39.417   5.944
 3541POPC   C1A46815  39.898  39.356   6.360
 3541POPC   D2A46816  40.056  39.089   6.738
 3541POPC   C3A46817  39.819  38.990   7.132
 3541POPC   C4A46818  39.955  38.959   7.581
 3541POPC   C1B46819  40.375  39.620   6.343
 3541POPC   C2B46820  40.322  39.547   6.801
 3541POPC   C3B46821  39.941  39.485   7.046
 3541POPC   C4B46822  39.697  39.445   7.413
 3542POPC   NC346823  30.972  44.496   5.451
 3542POPC   PO446824  30.465  44.990   5.508
 3542POPC   GL146825  30.687  44.749   5.834
 3542POPC   GL246826  31.052  44.836   5.836
 3542POPC   C1A46827  30.581  44.515   6.222
 3542POPC   D2A46828  30.712  44.490   6.653
 3542POPC   C3A46829  30.463  44.686   6.974
 3542POPC   C4A46830  30.255  44.559   7.360
 3542POPC   C1B46831  31.052  44.692   6.281
 3542POPC   C2B46832  31.188  44.719   6.691
 3542POPC   C3B46833  30.984  44.621   7.071
 3542POPC   C4B46834  30.713  44.334   7.260
 3543POPC   NC346835  23.140  17.166   5.654
 3543POPC   PO446836  22.749  16.671   5.371
 3543POPC   GL146837  22.696  16.815   5.796
 3543POPC   GL246838  22.828  16.503   5.894
 3543POPC   C1A46839  22.765  16.888   6.251
 3543POPC   D2A46840  23.085  17.007   6.599
 3543POPC   C3A46841  23.063  16.770   7.004
 3543POPC   C4A46842  22.989  16.877   7.448
 3543POPC   C1B46843  23.100  16.417   6.257
 3543POPC   C2B46844  23.287  16.297   6.664
 3543POPC   C3B46845  23.229  16.250   7.100
 3543POPC   C4B46846  22.856  16.364   7.304
 3544POPC   NC346847  28.501  12.978   5.341
 3544POPC   PO446848  28.890  12.525   5.661
 3544POPC   GL146849  28.575  12.806   5.820
 3544POPC   GL246850  28.213  12.758   5.725
 3544POPC   C1A46851  28.504  12.985   6.207
 3544POPC   D2A46852  28.505  13.207   6.595
 3544POPC   C3A46853  28.723  13.030   6.922
 3544POPC   C4A46854  28.684  12.727   7.246
 3544POPC   C1B46855  28.152  12.633   6.163
 3544POPC   C2B46856  28.021  12.770   6.582
 3544POPC   C3B46857  27.898  12.587   6.984
 3544POPC   C4B46858  28.179  12.773   7.248
 3545POPC   NC346859  28.961  23.209   5.609
 3545POPC   PO446860  29.411  22.821   5.390
 3545POPC   GL146861  29.414  22.829   5.824
 3545POPC   GL246862  29.066  22.758   5.862
 3545POPC   C1A46863  29.343  22.745   6.282
 3545POPC   D2A46864  29.340  22.996   6.636
 3545POPC   C3A46865  29.292  22.880   7.034
 3545POPC   C4A46866  29.150  23.170   7.349
 3545POPC   C1B46867  28.867  22.938   6.247
 3545POPC   C2B46868  28.861  22.830   6.682
 3545POPC   C3B46869  28.788  22.893   7.122
 3545POPC   C4B46870  28.775  22.881   7.587
 3546POPC   NC346871  44.471  32.680   5.594
 3546POPC   PO446872  44.837  33.292   5.399
 3546POPC   GL146873  44.736  33.144   5.810
 3546POPC   GL246874  44.372  33.188   5.780
 3546POPC   C1A46875  44.689  32.854   6.184
 3546POPC   D2A46876  44.721  32.735   6.623
 3546POPC   C3A46877  44.441  32.834   6.942
 3546POPC   C4A46878  44.651  33.003   7.256
 3546POPC   C1B46879  44.437  33.313   6.213
 3546POPC   C2B46880  44.450  33.580   6.591
 3546POPC   C3B46881  44.531  33.460   7.006
 3546POPC   C4B46882  44.837  33.490   7.329
 3547POPC   NC346883   9.834  34.271   5.143
 3547POPC   PO446884  10.008  33.708   5.377
 3547POPC   GL146885   9.842  33.865   5.763
 3547POPC   GL246886   9.627  34.136   5.781
 3547POPC   C1A46887   9.848  33.901   6.213
 3547POPC   D2A46888   9.747  33.609   6.532
 3547POPC   C3A46889   9.891  33.660   6.958
 3547POPC   C4A46890  10.014  33.919   7.251
 3547POPC   C1B46891   9.357  34.167   6.183
 3547POPC   C2B46892   9.516  34.064   6.574
 3547POPC   C3B46893   9.735  34.155   6.896
 3547POPC   C4B46894   9.548  34.161   7.278
 3548POPC   NC346895  16.331   3.020   5.396
 3548POPC   PO446896  15.990   2.461   5.566
 3548POPC   GL146897  15.947   2.797   5.865
 3548POPC   GL246898  15.825   2.505   6.040
 3548POPC   C1A46899  15.868   2.902   6.328
 3548POPC   D2A46900  15.663   2.590   6.619
 3548POPC   C3A46901  15.671   2.706   7.064
 3548POPC   C4A46902  15.779   2.719   7.491
 3548POPC   C1B46903  16.229   2.548   6.255
 3548POPC   C2B46904  16.188   2.726   6.686
 3548POPC   C3B46905  16.137   2.518   7.061
 3548POPC   C4B46906  16.428   2.441   7.358
 3549POPC   NC346907   8.623  34.809   5.501
 3549POPC   PO446908   8.177  34.539   5.078
 3549POPC   GL146909   8.183  34.591   5.617
 3549POPC   GL246910   8.156  34.903   5.761
 3549POPC   C1A46911   7.918  34.536   6.039
 3549POPC   D2A46912   8.041  34.424   6.490
 3549POPC   C3A46913   7.886  34.543   6.920
 3549POPC   C4A46914   8.090  34.383   7.297
 3549POPC   C1B46915   8.412  34.711   6.135
 3549POPC   C2B46916   8.539  34.796   6.567
 3549POPC   C3B46917   8.412  34.653   6.963
 3549POPC   C4B46918   8.301  34.863   7.326
 3550POPC   NC346919  44.891  33.712   5.214
 3550POPC   PO446920  44.649  34.273   5.451
 3550POPC   GL146921  44.594  33.855   5.655
 3550POPC   GL246922  44.896  33.694   5.724
 3550POPC   C1A46923  44.556  33.799   6.127
 3550POPC   D2A46924  44.632  34.067   6.512
 3550POPC   C3A46925  44.532  33.965   6.961
 3550POPC   C4A46926  44.475  33.845   7.396
 3550POPC   C1B46927   0.043  33.589   6.109
 3550POPC   C2B46928   0.003  33.708   6.513
 3550POPC   C3B46929   0.003  33.764   6.927
 3550POPC   C4B46930   0.111  33.922   7.339
 3551POPC   NC346931  18.560   3.824   5.587
 3551POPC   PO446932  18.484   4.427   5.358
 3551POPC   GL146933  18.323   4.453   5.783
 3551POPC   GL246934  18.264   4.096   5.889
 3551POPC   C1A46935  18.281   4.454   6.237
 3551POPC   D2A46936  18.561   4.420   6.579
 3551POPC   C3A46937  18.602   4.735   6.896
 3551POPC   C4A46938  18.372   4.844   7.275
 3551POPC   C1B46939  18.108   3.971   6.296
 3551POPC   C2B46940  18.098   4.213   6.665
 3551POPC   C3B46941  18.267   4.371   7.027
 3551POPC   C4B46942  18.179   4.400   7.442
 3552POPC   NC346943  32.679  17.080   5.355
 3552POPC   PO446944  33.186  17.473   5.314
 3552POPC   GL146945  32.929  17.550   5.694
 3552POPC   GL246946  32.840  17.250   5.839
 3552POPC   C1A46947  32.841  17.680   6.138
 3552POPC   D2A46948  32.981  17.771   6.549
 3552POPC   C3A46949  32.788  17.619   6.918
 3552POPC   C4A46950  32.992  17.707   7.277
 3552POPC   C1B46951  32.736  17.171   6.300
 3552POPC   C2B46952  32.873  17.152   6.746
 3552POPC   C3B46953  32.936  17.187   7.212
 3552POPC   C4B46954  33.274  17.006   7.490
 3553POPC   NC346955   7.812  38.911   5.255
 3553POPC   PO446956   8.311  39.282   5.404
 3553POPC   GL146957   8.444  39.106   5.756
 3553POPC   GL246958   8.088  39.069   5.810
 3553POPC   C1A46959   8.404  39.177   6.190
 3553POPC   D2A46960   8.492  39.407   6.548
 3553POPC   C3A46961   8.351  39.242   6.892
 3553POPC   C4A46962   8.491  39.223   7.291
 3553POPC   C1B46963   7.889  39.070   6.196
 3553POPC   C2B46964   7.927  38.874   6.601
 3553POPC   C3B46965   7.927  39.008   7.034
 3553POPC   C4B46966   8.201  38.803   7.305
 3554POPC   NC346967  11.902   1.463   5.397
 3554POPC   PO446968  12.303   0.971   5.462
 3554POPC   GL146969  12.016   1.081   5.755
 3554POPC   GL246970  12.200   1.356   5.819
 3554POPC   C1A46971  11.918   1.163   6.201
 3554POPC   D2A46972  11.931   0.981   6.617
 3554POPC   C3A46973  11.971   1.266   6.988
 3554POPC   C4A46974  12.090   1.510   7.394
 3554POPC   C1B46975  12.438   1.215   6.159
 3554POPC   C2B46976  12.433   1.034   6.560
 3554POPC   C3B46977  12.497   1.177   6.961
 3554POPC   C4B46978  12.282   1.041   7.310
 3555POPC   NC346979  33.863  43.625   5.573
 3555POPC   PO446980  34.055  44.272   5.428
 3555POPC   GL146981  33.812  44.123   5.831
 3555POPC   GL246982  33.596  43.823   5.960
 3555POPC   C1A46983  33.779  44.168   6.306
 3555POPC   D2A46984  33.545  43.896   6.578
 3555POPC   C3A46985  33.730  43.865   6.976
 3555POPC   C4A46986  34.015  44.146   7.218
 3555POPC   C1B46987  33.934  43.700   6.242
 3555POPC   C2B46988  33.974  43.569   6.633
 3555POPC   C3B46989  34.147  43.584   7.011
 3555POPC   C4B46990  33.904  43.677   7.439
 3556POPC   NC346991  25.323  25.266   5.264
 3556POPC   PO446992  25.757  25.598   5.595
 3556POPC   GL146993  25.458  25.314   5.792
 3556POPC   GL246994  25.128  25.193   5.722
 3556POPC   C1A46995  25.268  25.393   6.183
 3556POPC   D2A46996  25.393  25.349   6.571
 3556POPC   C3A46997  25.067  25.412   6.847
 3556POPC   C4A46998  25.268  25.446   7.242
 3556POPC   C1B46999  25.059  24.929   6.079
 3556POPC   C2B47000  25.185  24.874   6.487
 3556POPC   C3B47001  25.278  24.971   6.887
 3556POPC   C4B47002  25.140  24.949   7.246
 3557POPC   NC347003   7.186  33.507   5.290
 3557POPC   PO447004   7.610  34.032   5.103
 3557POPC   GL147005   7.357  33.935   5.574
 3557POPC   GL247006   7.387  33.645   5.728
 3557POPC   C1A47007   7.082  33.905   6.030
 3557POPC   D2A47008   6.913  33.844   6.449
 3557POPC   C3A47009   7.097  33.962   6.869
 3557POPC   C4A47010   7.367  33.842   7.222
 3557POPC   C1B47011   7.562  33.821   6.116
 3557POPC   C2B47012   7.419  33.742   6.524
 3557POPC   C3B47013   7.542  33.493   6.868
 3557POPC   C4B47014   7.804  33.523   7.195
 3558POPC   NC347015  21.578  42.878   5.409
 3558POPC   PO447016  21.106  43.320   5.443
 3558POPC   GL147017  21.263  43.101   5.788
 3558POPC   GL247018  21.530  43.305   5.816
 3558POPC   C1A47019  21.181  42.924   6.219
 3558POPC   D2A47020  21.148  42.750   6.665
 3558POPC   C3A47021  21.130  42.979   7.070
 3558POPC   C4A47022  21.495  43.023   7.352
 3558POPC   C1B47023  21.466  43.335   6.251
 3558POPC   C2B47024  21.389  43.236   6.701
 3558POPC   C3B47025  21.351  43.451   7.100
 3558POPC   C4B47026  21.666  43.528   7.412
 3559POPC   NC347027  27.492  21.050   5.385
 3559POPC   PO447028  27.731  21.659   5.461
 3559POPC   GL147029  27.712  21.387   5.825
 3559POPC   GL247030  27.373  21.348   5.852
 3559POPC   C1A47031  27.872  21.395   6.275
 3559POPC   D2A47032  27.693  21.291   6.715
 3559POPC   C3A47033  27.862  21.448   7.115
 3559POPC   C4A47034  27.705  21.475   7.535
 3559POPC   C1B47035  27.354  21.479   6.296
 3559POPC   C2B47036  27.173  21.478   6.723
 3559POPC   C3B47037  27.334  21.382   7.141
 3559POPC   C4B47038  27.269  21.196   7.561
 3560POPC   NC347039  12.848  40.114   5.120
 3560POPC   PO447040  12.877  39.569   5.443
 3560POPC   GL147041  12.885  39.987   5.730
 3560POPC   GL247042  12.554  40.059   5.958
 3560POPC   C1A47043  13.025  40.107   6.170
 3560POPC   D2A47044  12.859  40.024   6.596
 3560POPC   C3A47045  13.190  39.962   6.885
 3560POPC   C4A47046  13.230  39.889   7.294
 3560POPC   C1B47047  12.372  39.912   6.402
 3560POPC   C2B47048  12.466  39.772   6.878
 3560POPC   C3B47049  12.714  39.771   7.320
 3560POPC   C4B47050  12.597  39.914   7.784
 3561POPC   NC347051   2.416  17.077   5.504
 3561POPC   PO447052   2.387  17.753   5.554
 3561POPC   GL147053   2.201  17.415   5.835
 3561POPC   GL247054   1.879  17.243   5.780
 3561POPC   C1A47055   1.963  17.444   6.236
 3561POPC   D2A47056   2.030  17.752   6.496
 3561POPC   C3A47057   2.177  17.646   6.877
 3561POPC   C4A47058   2.016  17.861   7.243
 3561POPC   C1B47059   1.712  17.002   6.124
 3561POPC   C2B47060   1.507  17.082   6.526
 3561POPC   C3B47061   1.682  17.109   6.952
 3561POPC   C4B47062   1.867  17.384   7.232
 3562POPC   NC347063  15.426  31.571   5.340
 3562POPC   PO447064  14.860  31.281   5.556
 3562POPC   GL147065  15.149  31.275   5.909
 3562POPC   GL247066  15.443  31.468   5.845
 3562POPC   C1A47067  15.132  31.300   6.362
 3562POPC   D2A47068  14.814  31.624   6.452
 3562POPC   C3A47069  14.705  31.666   6.859
 3562POPC   C4A47070  14.917  31.831   7.187
 3562POPC   C1B47071  15.362  31.732   6.193
 3562POPC   C2B47072  15.282  31.844   6.603
 3562POPC   C3B47073  15.197  31.515   6.871
 3562POPC   C4B47074  15.311  31.311   7.235
 3563POPC   NC347075  26.754  33.045   5.461
 3563POPC   PO447076  27.102  33.630   5.558
 3563POPC   GL147077  26.849  33.388   5.860
 3563POPC   GL247078  26.930  33.039   5.932
 3563POPC   C1A47079  26.511  33.262   6.142
 3563POPC   D2A47080  26.349  33.032   6.503
 3563POPC   C3A47081  26.628  33.098   6.854
 3563POPC   C4A47082  27.028  33.055   7.072
 3563POPC   C1B47083  26.826  32.916   6.325
 3563POPC   C2B47084  26.974  32.736   6.651
 3563POPC   C3B47085  26.895  32.544   6.995
 3563POPC   C4B47086  27.106  32.481   7.377
 3564POPC   NC347087   7.915  34.262   5.365
 3564POPC   PO447088   8.364  33.705   5.388
 3564POPC   GL147089   8.220  33.706   5.805
 3564POPC   GL247090   7.885  33.649   5.767
 3564POPC   C1A47091   8.327  33.840   6.240
 3564POPC   D2A47092   8.706  33.771   6.523
 3564POPC   C3A47093   8.580  33.649   6.951
 3564POPC   C4A47094   8.258  33.777   7.255
 3564POPC   C1B47095   7.921  33.480   6.211
 3564POPC   C2B47096   7.940  33.739   6.615
 3564POPC   C3B47097   7.835  33.997   6.991
 3564POPC   C4B47098   7.829  33.955   7.463
 3565POPC   NC347099  11.228   4.065   5.307
 3565POPC   PO447100  11.477   4.684   5.539
 3565POPC   GL147101  11.311   4.326   5.752
 3565POPC   GL247102  11.476   3.955   5.745
 3565POPC   C1A47103  11.103   4.336   6.144
 3565POPC   D2A47104  11.057   4.578   6.514
 3565POPC   C3A47105  11.085   4.254   6.852
 3565POPC   C4A47106  11.200   4.292   7.241
 3565POPC   C1B47107  11.551   4.117   6.157
 3565POPC   C2B47108  11.466   4.265   6.528
 3565POPC   C3B47109  11.575   4.422   6.912
 3565POPC   C4B47110  11.753   4.325   7.280
 3566POPC   NC347111  31.604  30.970   5.310
 3566POPC   PO447112  31.110  30.562   5.445
 3566POPC   GL147113  31.361  30.768   5.750
 3566POPC   GL247114  31.070  30.814   5.886
 3566POPC   C1A47115  31.556  30.924   6.139
 3566POPC   D2A47116  31.826  30.769   6.496
 3566POPC   C3A47117  31.684  30.903   6.902
 3566POPC   C4A47118  31.515  30.696   7.258
 3566POPC   C1B47119  31.103  30.575   6.233
 3566POPC   C2B47120  31.320  30.694   6.570
 3566POPC   C3B47121  31.239  30.470   6.928
 3566POPC   C4B47122  30.983  30.652   7.249
 3567POPC   NC347123  33.271  26.300   4.960
 3567POPC   PO447124  32.756  26.369   5.405
 3567POPC   GL147125  32.961  26.132   5.773
 3567POPC   GL247126  33.330  26.019   5.662
 3567POPC   C1A47127  32.996  25.887   6.189
 3567POPC   D2A47128  32.812  25.597   6.498
 3567POPC   C3A47129  32.763  25.729   6.939
 3567POPC   C4A47130  32.906  26.029   7.296
 3567POPC   C1B47131  33.392  26.172   6.068
 3567POPC   C2B47132  33.336  26.185   6.490
 3567POPC   C3B47133  33.203  26.026   6.871
 3567POPC   C4B47134  33.423  25.990   7.250
 3568POPC   NC347135   9.529   8.432   5.583
 3568POPC   PO447136   8.991   8.171   5.266
 3568POPC   GL147137   8.981   8.199   5.717
 3568POPC   GL247138   9.269   8.192   5.949
 3568POPC   C1A47139   8.826   8.016   6.118
 3568POPC   D2A47140   9.040   8.045   6.526
 3568POPC   C3A47141   8.793   8.070   6.917
 3568POPC   C4A47142   9.081   8.072   7.281
 3568POPC   C1B47143   9.013   8.481   6.249
 3568POPC   C2B47144   8.827   8.523   6.671
 3568POPC   C3B47145   8.920   8.528   7.113
 3568POPC   C4B47146   8.924   8.481   7.565
 3569POPC   NC347147  34.956  27.183   5.612
 3569POPC   PO447148  34.514  26.749   5.489
 3569POPC   GL147149  34.299  26.832   5.880
 3569POPC   GL247150  34.192  26.517   5.968
 3569POPC   C1A47151  34.436  26.910   6.325
 3569POPC   D2A47152  34.787  26.891   6.649
 3569POPC   C3A47153  34.723  26.815   7.070
 3569POPC   C4A47154  34.324  26.863   7.120
 3569POPC   C1B47155  34.614  26.449   6.143
 3569POPC   C2B47156  34.894  26.411   6.508
 3569POPC   C3B47157  34.986  26.400   6.967
 3569POPC   C4B47158  34.918  26.449   7.398
 3570POPC   NC347159  34.094  26.574   5.458
 3570POPC   PO447160  33.516  26.817   5.516
 3570POPC   GL147161  33.758  26.955   5.831
 3570POPC   GL247162  33.468  27.085   5.986
 3570POPC   C1A47163  33.915  26.861   6.234
 3570POPC   D2A47164  34.034  26.962   6.648
 3570POPC   C3A47165  34.031  26.570   6.847
 3570POPC   C4A47166  33.834  26.743   7.207
 3570POPC   C1B47167  33.435  26.682   6.193
 3570POPC   C2B47168  33.576  26.623   6.619
 3570POPC   C3B47169  33.409  26.499   7.018
 3570POPC   C4B47170  33.499  26.447   7.437
 3571POPC   NC347171  41.058  15.885   5.393
 3571POPC   PO447172  40.413  15.871   5.472
 3571POPC   GL147173  40.677  16.007   5.804
 3571POPC   GL247174  40.949  16.247   5.769
 3571POPC   C1A47175  40.844  15.908   6.225
 3571POPC   D2A47176  40.943  15.701   6.634
 3571POPC   C3A47177  40.867  15.997   6.948
 3571POPC   C4A47178  40.688  15.965   7.328
 3571POPC   C1B47179  41.110  16.357   6.177
 3571POPC   C2B47180  41.269  16.058   6.466
 3571POPC   C3B47181  41.362  16.008   6.864
 3571POPC   C4B47182  41.265  16.329   7.172
 3572POPC   NC347183   0.837  33.954   5.434
 3572POPC   PO447184   0.244  34.014   5.225
 3572POPC   GL147185   0.368  33.913   5.706
 3572POPC   GL247186   0.453  33.590   5.779
 3572POPC   C1A47187   0.465  33.979   6.176
 3572POPC   D2A47188   0.510  33.805   6.605
 3572POPC   C3A47189   0.501  33.981   6.999
 3572POPC   C4A47190   0.704  34.225   7.344
 3572POPC   C1B47191   0.536  33.459   6.221
 3572POPC   C2B47192   0.389  33.321   6.639
 3572POPC   C3B47193   0.386  33.479   7.094
 3572POPC   C4B47194   0.581  33.741   7.444
 3573POPC   NC347195  11.324   7.157   5.396
 3573POPC   PO447196  11.040   7.700   5.328
 3573POPC   GL147197  11.083   7.461   5.740
 3573POPC   GL247198  11.410   7.375   5.874
 3573POPC   C1A47199  11.031   7.454   6.202
 3573POPC   D2A47200  11.196   7.349   6.588
 3573POPC   C3A47201  11.063   7.581   6.915
 3573POPC   C4A47202  11.047   7.561   7.358
 3573POPC   C1B47203  11.462   7.731   6.218
 3573POPC   C2B47204  11.506   7.771   6.682
 3573POPC   C3B47205  11.569   7.560   7.104
 3573POPC   C4B47206  11.863   7.305   7.378
 3574POPC   NC347207   9.267  11.566   5.426
 3574POPC   PO447208   9.907  11.138   5.433
 3574POPC   GL147209   9.913  11.194   5.862
 3574POPC   GL247210   9.935  10.838   5.922
 3574POPC   C1A47211  10.053  11.226   6.299
 3574POPC   D2A47212  10.033  11.418   6.707
 3574POPC   C3A47213   9.644  11.412   7.006
 3574POPC   C4A47214   9.667  11.495   7.475
 3574POPC   C1B47215   9.846  10.755   6.380
 3574POPC   C2B47216  10.107  10.895   6.739
 3574POPC   C3B47217  10.071  11.130   7.130
 3574POPC   C4B47218   9.734  11.021   7.330
 3575POPC   NC347219   1.625  31.142   5.130
 3575POPC   PO447220   1.031  31.436   5.402
 3575POPC   GL147221   1.201  31.456   5.795
 3575POPC   GL247222   1.484  31.295   5.672
 3575POPC   C1A47223   1.398  31.752   6.105
 3575POPC   D2A47224   1.486  31.803   6.539
 3575POPC   C3A47225   1.196  31.639   6.843
 3575POPC   C4A47226   1.103  31.454   7.219
 3575POPC   C1B47227   1.564  31.280   6.134
 3575POPC   C2B47228   1.651  31.295   6.589
 3575POPC   C3B47229   1.557  31.355   7.053
 3575POPC   C4B47230   1.456  31.262   7.527
 3576POPC   NC347231  14.867  26.501   5.572
 3576POPC   PO447232  15.347  26.920   5.452
 3576POPC   GL147233  15.117  26.883   5.828
 3576POPC   GL247234  14.775  27.008   5.766
 3576POPC   C1A47235  15.212  26.593   6.183
 3576POPC   D2A47236  15.372  26.649   6.594
 3576POPC   C3A47237  15.163  26.987   6.824
 3576POPC   C4A47238  15.210  27.113   7.250
 3576POPC   C1B47239  14.748  26.829   6.181
 3576POPC   C2B47240  14.827  26.611   6.554
 3576POPC   C3B47241  14.997  26.497   6.926
 3576POPC   C4B47242  14.887  26.716   7.235
 3577POPC   NC347243  42.032  23.852   5.431
 3577POPC   PO447244  42.556  23.924   5.021
 3577POPC   GL147245  42.500  23.707   5.516
 3577POPC   GL247246  42.665  23.516   5.812
 3577POPC   C1A47247  42.279  23.783   5.996
 3577POPC   D2A47248  42.052  23.808   6.410
 3577POPC   C3A47249  42.266  23.778   6.816
 3577POPC   C4A47250  42.167  23.796   7.249
 3577POPC   C1B47251  42.666  23.593   6.244
 3577POPC   C2B47252  42.559  23.997   6.430
 3577POPC   C3B47253  42.615  24.152   6.854
 3577POPC   C4B47254  42.650  23.899   7.229
 3578POPC   NC347255  23.493  25.058   5.440
 3578POPC   PO447256  23.789  25.421   5.048
 3578POPC   GL147257  23.913  25.203   5.638
 3578POPC   GL247258  23.572  25.198   5.900
 3578POPC   C1A47259  23.968  24.948   6.077
 3578POPC   D2A47260  23.644  24.953   6.426
 3578POPC   C3A47261  23.752  24.908   6.869
 3578POPC   C4A47262  23.791  25.056   7.303
 3578POPC   C1B47263  23.580  25.430   6.239
 3578POPC   C2B47264  23.720  25.473   6.640
 3578POPC   C3B47265  23.530  25.408   7.028
 3578POPC   C4B47266  23.599  25.578   7.431
 3579POPC   NC347267  35.937  32.493   5.609
 3579POPC   PO447268  36.236  32.998   5.240
 3579POPC   GL147269  36.163  33.240   5.665
 3579POPC   GL247270  36.090  32.945   5.802
 3579POPC   C1A47271  36.269  33.290   6.154
 3579POPC   D2A47272  36.076  33.186   6.592
 3579POPC   C3A47273  36.319  33.247   7.003
 3579POPC   C4A47274  36.422  33.055   7.438
 3579POPC   C1B47275  36.083  32.808   6.208
 3579POPC   C2B47276  35.743  32.769   6.495
 3579POPC   C3B47277  35.732  32.711   6.929
 3579POPC   C4B47278  36.077  32.755   7.210
 3580POPC   NC347279  16.207  14.788   5.237
 3580POPC   PO447280  15.730  15.217   5.271
 3580POPC   GL147281  15.863  15.159   5.721
 3580POPC   GL247282  16.192  14.965   5.711
 3580POPC   C1A47283  15.735  15.221   6.179
 3580POPC   D2A47284  15.939  15.192   6.584
 3580POPC   C3A47285  15.763  15.255   7.015
 3580POPC   C4A47286  15.860  15.355   7.497
 3580POPC   C1B47287  16.221  14.955   6.141
 3580POPC   C2B47288  16.222  14.755   6.510
 3580POPC   C3B47289  16.102  14.812   6.906
 3580POPC   C4B47290  15.957  14.898   7.306
 3581POPC   NC347291  43.459  25.114   5.385
 3581POPC   PO447292  44.126  25.194   5.372
 3581POPC   GL147293  43.889  25.236   5.792
 3581POPC   GL247294  43.539  25.342   5.823
 3581POPC   C1A47295  44.045  25.344   6.230
 3581POPC   D2A47296  44.343  25.340   6.600
 3581POPC   C3A47297  44.109  25.167   6.971
 3581POPC   C4A47298  44.001  24.970   7.397
 3581POPC   C1B47299  43.476  25.411   6.236
 3581POPC   C2B47300  43.679  25.615   6.594
 3581POPC   C3B47301  43.816  25.603   7.027
 3581POPC   C4B47302  43.667  25.329   7.339
 3582POPC   NC347303  33.988  40.291   5.536
 3582POPC   PO447304  33.403  39.937   5.425
 3582POPC   GL147305  33.739  39.851   5.720
 3582POPC   GL247306  34.076  39.761   5.585
 3582POPC   C1A47307  33.754  39.970   6.172
 3582POPC   D2A47308  33.587  39.832   6.570
 3582POPC   C3A47309  33.558  40.155   6.887
 3582POPC   C4A47310  33.675  40.035   7.294
 3582POPC   C1B47311  34.157  39.692   6.034
 3582POPC   C2B47312  34.093  39.676   6.503
 3582POPC   C3B47313  33.995  39.876   6.916
 3582POPC   C4B47314  34.127  40.251   7.200
 3583POPC   NC347315  17.983  42.812   5.592
 3583POPC   PO447316  18.553  43.049   5.369
 3583POPC   GL147317  18.493  43.296   5.775
 3583POPC   GL247318  18.129  43.302   5.823
 3583POPC   C1A47319  18.415  43.243   6.234
 3583POPC   D2A47320  18.507  42.990   6.598
 3583POPC   C3A47321  18.495  43.200   7.002
 3583POPC   C4A47322  18.302  43.048   7.375
 3583POPC   C1B47323  17.879  43.326   6.200
 3583POPC   C2B47324  18.058  43.283   6.610
 3583POPC   C3B47325  17.973  43.108   6.986
 3583POPC   C4B47326  17.865  43.315   7.362
 3584POPC   NC347327  26.464  13.145   5.516
 3584POPC   PO447328  27.105  12.867   5.366
 3584POPC   GL147329  26.918  13.020   5.717
 3584POPC   GL247330  26.927  13.327   5.687
 3584POPC   C1A47331  26.781  13.002   6.148
 3584POPC   D2A47332  26.670  13.059   6.582
 3584POPC   C3A47333  26.811  12.803   6.973
 3584POPC   C4A47334  26.542  12.852   7.317
 3584POPC   C1B47335  27.148  13.347   6.071
 3584POPC   C2B47336  27.059  13.438   6.493
 3584POPC   C3B47337  27.083  13.200   6.838
 3584POPC   C4B47338  27.263  13.161   7.229
 3585POPC   NC347339   8.333  44.526   5.154
 3585POPC   PO447340   8.109  44.003   5.499
 3585POPC   GL147341   7.942  43.838   5.834
 3585POPC   GL247342   7.987  44.145   6.024
 3585POPC   C1A47343   8.063  43.662   6.226
 3585POPC   D2A47344   8.082  43.861   6.613
 3585POPC   C3A47345   8.267  43.778   6.993
 3585POPC   C4A47346   8.048  43.935   7.351
 3585POPC   C1B47347   8.303  44.250   6.354
 3585POPC   C2B47348   8.488  44.203   6.781
 3585POPC   C3B47349   8.402  44.271   7.233
 3585POPC   C4B47350   8.593  44.291   7.689
 3586POPC   NC347351  43.320  42.850   5.185
 3586POPC   PO447352  42.951  43.327   5.582
 3586POPC   GL147353  43.202  43.343   5.916
 3586POPC   GL247354  43.322  43.054   5.776
 3586POPC   C1A47355  43.178  43.354   6.336
 3586POPC   D2A47356  42.983  43.577   6.626
 3586POPC   C3A47357  43.242  43.449   6.906
 3586POPC   C4A47358  43.222  43.347   7.296
 3586POPC   C1B47359  43.051  42.910   6.132
 3586POPC   C2B47360  42.882  43.018   6.553
 3586POPC   C3B47361  43.051  42.938   6.946
 3586POPC   C4B47362  42.903  42.973   7.362
 3587POPC   NC347363  44.262  10.749   5.483
 3587POPC   PO447364  44.817  10.407   5.395
 3587POPC   GL147365  44.602  10.476   5.795
 3587POPC   GL247366  44.753  10.776   5.889
 3587POPC   C1A47367  44.441  10.533   6.263
 3587POPC   D2A47368  44.643  10.392   6.694
 3587POPC   C3A47369  44.467  10.270   7.108
 3587POPC   C4A47370  44.376  10.113   7.577
 3587POPC   C1B47371  44.945  10.555   6.257
 3587POPC   C2B47372   0.134  10.506   6.663
 3587POPC   C3B47373  44.995  10.487   7.095
 3587POPC   C4B47374  44.858  10.223   7.456
 3588POPC   NC347375  23.536  15.582   5.462
 3588POPC   PO447376  23.435  16.303   5.469
 3588POPC   GL147377  23.643  16.130   5.810
 3588POPC   GL247378  23.744  15.798   5.866
 3588POPC   C1A47379  23.590  16.172   6.229
 3588POPC   D2A47380  23.783  16.256   6.619
 3588POPC   C3A47381  23.686  16.010   6.968
 3588POPC   C4A47382  23.639  16.073   7.404
 3588POPC   C1B47383  24.007  15.861   6.201
 3588POPC   C2B47384  23.967  15.769   6.595
 3588POPC   C3B47385  24.126  15.735   6.973
 3588POPC   C4B47386  23.905  15.636   7.319
 3589POPC   NC347387  33.277  11.376   5.420
 3589POPC   PO447388  32.650  11.445   5.451
 3589POPC   GL147389  32.936  11.498   5.805
 3589POPC   GL247390  33.304  11.610   5.872
 3589POPC   C1A47391  32.931  11.204   6.180
 3589POPC   D2A47392  32.743  11.250   6.594
 3589POPC   C3A47393  32.916  11.030   6.939
 3589POPC   C4A47394  33.082  11.101   7.360
 3589POPC   C1B47395  33.093  11.681   6.267
 3589POPC   C2B47396  32.934  11.729   6.677
 3589POPC   C3B47397  33.045  11.529   7.057
 3589POPC   C4B47398  33.340  11.531   7.392
 3590POPC   NC347399   1.460  31.904   5.470
 3590POPC   PO447400   1.100  32.419   5.231
 3590POPC   GL147401   1.144  32.286   5.667
 3590POPC   GL247402   1.036  31.942   5.764
 3590POPC   C1A47403   1.249  32.238   6.127
 3590POPC   D2A47404   1.344  32.341   6.551
 3590POPC   C3A47405   1.353  32.133   6.945
 3590POPC   C4A47406   1.337  32.304   7.353
 3590POPC   C1B47407   0.870  31.819   6.146
 3590POPC   C2B47408   0.989  31.974   6.520
 3590POPC   C3B47409   0.845  32.010   6.927
 3590POPC   C4B47410   1.000  31.938   7.314
 3591POPC   NC347411  21.594  33.602   5.375
 3591POPC   PO447412  21.187  34.177   5.134
 3591POPC   GL147413  21.351  34.062   5.662
 3591POPC   GL247414  21.701  34.041   5.738
 3591POPC   C1A47415  21.236  33.902   6.112
 3591POPC   D2A47416  21.147  34.083   6.550
 3591POPC   C3A47417  21.258  33.887   6.922
 3591POPC   C4A47418  21.293  33.682   7.338
 3591POPC   C1B47419  21.722  33.713   6.098
 3591POPC   C2B47420  21.537  33.676   6.530
 3591POPC   C3B47421  21.706  33.650   6.988
 3591POPC   C4B47422  21.768  33.629   7.468
 3592POPC   NC347423  35.291  36.410   5.125
 3592POPC   PO447424  35.022  36.902   5.423
 3592POPC   GL147425  35.305  36.892   5.768
 3592POPC   GL247426  35.495  37.174   5.781
 3592POPC   C1A47427  35.300  37.014   6.224
 3592POPC   D2A47428  35.012  36.991   6.595
 3592POPC   C3A47429  35.198  36.794   6.953
 3592POPC   C4A47430  35.103  36.719   7.407
 3592POPC   C1B47431  35.759  37.303   6.131
 3592POPC   C2B47432  35.700  37.156   6.548
 3592POPC   C3B47433  35.524  37.312   6.917
 3592POPC   C4B47434  35.397  37.123   7.301
 3593POPC   NC347435   4.096  35.674   5.191
 3593POPC   PO447436   4.477  35.248   5.459
 3593POPC   GL147437   4.442  35.183   5.831
 3593POPC   GL247438   4.110  35.320   5.839
 3593POPC   C1A47439   4.641  35.338   6.182
 3593POPC   D2A47440   4.463  35.360   6.582
 3593POPC   C3A47441   4.600  35.227   6.968
 3593POPC   C4A47442   4.675  35.494   7.275
 3593POPC   C1B47443   4.107  35.177   6.226
 3593POPC   C2B47444   4.074  35.028   6.613
 3593POPC   C3B47445   4.079  35.329   6.935
 3593POPC   C4B47446   4.187  35.359   7.346
 3594POPC   NC347447  30.166  16.461   5.522
 3594POPC   PO447448  29.682  16.954   5.308
 3594POPC   GL147449  29.720  16.657   5.672
 3594POPC   GL247450  29.753  16.946   5.829
 3594POPC   C1A47451  29.922  16.553   6.122
 3594POPC   D2A47452  30.228  16.494   6.489
 3594POPC   C3A47453  30.022  16.586   6.891
 3594POPC   C4A47454  29.863  16.759   7.276
 3594POPC   C1B47455  29.816  17.084   6.212
 3594POPC   C2B47456  29.983  16.990   6.596
 3594POPC   C3B47457  29.941  17.176   6.990
 3594POPC   C4B47458  29.571  17.177   7.273
 3595POPC   NC347459   4.173   9.150   5.401
 3595POPC   PO447460   4.815   8.731   5.344
 3595POPC   GL147461   4.544   8.897   5.684
 3595POPC   GL247462   4.187   8.742   5.727
 3595POPC   C1A47463   4.407   9.007   6.111
 3595POPC   D2A47464   4.492   9.259   6.460
 3595POPC   C3A47465   4.412   9.141   6.884
 3595POPC   C4A47466   4.680   9.303   7.204
 3595POPC   C1B47467   3.936   8.736   6.116
 3595POPC   C2B47468   4.077   8.785   6.564
 3595POPC   C3B47469   4.226   8.662   6.987
 3595POPC   C4B47470   4.322   8.952   7.365
 3596POPC   NC347471  27.057  12.395   5.303
 3596POPC   PO447472  26.607  12.003   5.436
 3596POPC   GL147473  26.925  12.196   5.774
 3596POPC   GL247474  26.850  12.535   5.841
 3596POPC   C1A47475  27.081  12.294   6.243
 3596POPC   D2A47476  27.098  11.967   6.584
 3596POPC   C3A47477  26.963  11.995   7.005
 3596POPC   C4A47478  26.662  11.797   7.310
 3596POPC   C1B47479  26.638  12.531   6.275
 3596POPC   C2B47480  26.745  12.367   6.704
 3596POPC   C3B47481  26.610  12.341   7.166
 3596POPC   C4B47482  26.328  12.435   7.536
 3597POPC   NC347483   3.321  29.577   5.352
 3597POPC   PO447484   3.801  30.073   5.307
 3597POPC   GL147485   3.502  29.965   5.661
 3597POPC   GL247486   3.795  29.883   5.813
 3597POPC   C1A47487   3.405  29.900   6.123
 3597POPC   D2A47488   3.536  30.097   6.536
 3597POPC   C3A47489   3.524  29.870   6.899
 3597POPC   C4A47490   3.378  29.747   7.270
 3597POPC   C1B47491   3.896  30.157   6.150
 3597POPC   C2B47492   4.036  30.029   6.550
 3597POPC   C3B47493   3.938  30.138   6.955
 3597POPC   C4B47494   3.895  29.758   7.244
 3598POPC   NC347495   7.286  38.160   5.653
 3598POPC   PO447496   7.382  38.809   5.415
 3598POPC   GL147497   7.509  38.651   5.789
 3598POPC   GL247498   7.177  38.633   5.907
 3598POPC   C1A47499   7.651  38.596   6.212
 3598POPC   D2A47500   7.472  38.619   6.632
 3598POPC   C3A47501   7.706  38.541   7.002
 3598POPC   C4A47502   7.714  38.728   7.399
 3598POPC   C1B47503   7.161  38.376   6.301
 3598POPC   C2B47504   7.010  38.421   6.731
 3598POPC   C3B47505   7.213  38.435   7.116
 3598POPC   C4B47506   7.071  38.281   7.510
 3599POPC   NC347507  23.099  31.041   5.396
 3599POPC   PO447508  22.844  30.406   5.254
 3599POPC   GL147509  22.929  30.596   5.632
 3599POPC   GL247510  22.789  30.861   5.743
 3599POPC   C1A47511  22.901  30.474   6.077
 3599POPC   D2A47512  23.074  30.658   6.466
 3599POPC   C3A47513  22.937  30.489   6.874
 3599POPC   C4A47514  22.926  30.638   7.299
 3599POPC   C1B47515  22.687  31.002   6.125
 3599POPC   C2B47516  22.654  30.955   6.546
 3599POPC   C3B47517  22.592  30.873   6.969
 3599POPC   C4B47518  22.672  31.123   7.313
 3600POPC   NC347519  13.275  14.599   5.236
 3600POPC   PO447520  12.823  14.185   5.483
 3600POPC   GL147521  12.959  14.364   5.842
 3600POPC   GL247522  13.043  14.673   5.710
 3600POPC   C1A47523  12.781  14.470   6.255
 3600POPC   D2A47524  12.628  14.719   6.607
 3600POPC   C3A47525  12.759  14.510   6.985
 3600POPC   C4A47526  12.615  14.249   7.328
 3600POPC   C1B47527  13.197  14.751   6.143
 3600POPC   C2B47528  13.103  14.923   6.578
 3600POPC   C3B47529  13.194  14.832   7.007
 3600POPC   C4B47530  13.230  14.455   7.199
 3601POPC   NC347531   0.200   2.701   5.303
 3601POPC   PO447532   0.816   2.604   5.574
 3601POPC   GL147533   0.441   2.823   5.769
 3601POPC   GL247534   0.094   2.627   5.801
 3601POPC   C1A47535   0.504   2.892   6.216
 3601POPC   D2A47536   0.807   2.677   6.501
 3601POPC   C3A47537   0.587   2.605   6.908
 3601POPC   C4A47538   0.411   2.990   7.130
 3601POPC   C1B47539  44.968   2.796   6.176
 3601POPC   C2B47540   0.097   2.931   6.586
 3601POPC   C3B47541  44.900   2.856   6.985
 3601POPC   C4B47542   0.061   2.667   7.343
 3602POPC   NC347543  41.344   5.309   5.410
 3602POPC   PO447544  41.696   4.718   5.435
 3602POPC   GL147545  41.594   4.958   5.794
 3602POPC   GL247546  41.374   5.251   5.911
 3602POPC   C1A47547  41.455   4.823   6.210
 3602POPC   D2A47548  41.390   4.996   6.614
 3602POPC   C3A47549  41.414   4.830   7.028
 3602POPC   C4A47550  41.373   5.132   7.315
 3602POPC   C1B47551  41.758   5.254   6.183
 3602POPC   C2B47552  41.883   5.110   6.564
 3602POPC   C3B47553  41.826   5.151   6.984
 3602POPC   C4B47554  41.851   4.860   7.304
 3603POPC   NC347555   9.796   2.776   5.420
 3603POPC   PO447556   9.199   2.304   5.429
 3603POPC   GL147557   9.473   2.551   5.743
 3603POPC   GL247558   9.782   2.393   5.848
 3603POPC   C1A47559   9.667   2.832   6.100
 3603POPC   D2A47560   9.743   3.043   6.519
 3603POPC   C3A47561   9.919   2.816   6.873
 3603POPC   C4A47562   9.757   2.529   7.160
 3603POPC   C1B47563   9.973   2.309   6.260
 3603POPC   C2B47564  10.153   2.384   6.681
 3603POPC   C3B47565  10.249   2.474   7.127
 3603POPC   C4B47566  10.102   2.842   7.399
 3604POPC   NC347567  40.154   9.459   5.339
 3604POPC   PO447568  40.140  10.140   5.330
 3604POPC   GL147569  40.125   9.822   5.741
 3604POPC   GL247570  40.045   9.450   5.822
 3604POPC   C1A47571  40.187   9.736   6.219
 3604POPC   D2A47572  40.080  10.008   6.606
 3604POPC   C3A47573  39.891   9.942   7.049
 3604POPC   C4A47574  40.105   9.754   7.423
 3604POPC   C1B47575  39.824   9.353   6.184
 3604POPC   C2B47576  39.873   9.522   6.591
 3604POPC   C3B47577  40.008   9.457   6.988
 3604POPC   C4B47578  39.846   9.301   7.385
 3605POPC   NC347579  32.809  13.392   5.542
 3605POPC   PO447580  33.222  13.952   5.492
 3605POPC   GL147581  33.063  13.702   5.869
 3605POPC   GL247582  32.719  13.693   5.992
 3605POPC   C1A47583  33.115  13.645   6.328
 3605POPC   D2A47584  33.377  13.748   6.698
 3605POPC   C3A47585  33.113  13.724   7.051
 3605POPC   C4A47586  33.193  13.680   7.458
 3605POPC   C1B47587  32.754  13.293   6.229
 3605POPC   C2B47588  32.705  13.067   6.633
 3605POPC   C3B47589  32.525  13.245   7.009
 3605POPC   C4B47590  32.668  13.546   7.286
 3606POPC   NC347591  14.923  29.101   5.527
 3606POPC   PO447592  15.555  29.416   5.450
 3606POPC   GL147593  15.251  29.379   5.813
 3606POPC   GL247594  15.100  29.018   5.976
 3606POPC   C1A47595  15.079  29.431   6.220
 3606POPC   D2A47596  15.181  29.110   6.516
 3606POPC   C3A47597  15.037  29.169   6.930
 3606POPC   C4A47598  15.242  29.343   7.247
 3606POPC   C1B47599  14.756  28.907   6.303
 3606POPC   C2B47600  14.555  28.881   6.716
 3606POPC   C3B47601  14.741  28.796   7.125
 3606POPC   C4B47602  15.123  28.840   7.395
 3607POPC   NC347603  13.689  34.160   5.451
 3607POPC   PO447604  13.194  33.646   5.530
 3607POPC   GL147605  13.433  33.474   5.892
 3607POPC   GL247606  13.800  33.468   5.809
 3607POPC   C1A47607  13.412  33.496   6.362
 3607POPC   D2A47608  13.255  33.716   6.740
 3607POPC   C3A47609  13.472  33.781   7.100
 3607POPC   C4A47610  13.874  33.936   7.172
 3607POPC   C1B47611  13.818  33.752   6.196
 3607POPC   C2B47612  13.839  33.780   6.668
 3607POPC   C3B47613  14.087  33.558   6.945
 3607POPC   C4B47614  14.089  33.547   7.421
 3608POPC   NC347615  21.418  37.187   5.493
 3608POPC   PO447616  21.866  36.702   5.413
 3608POPC   GL147617  21.563  36.774   5.727
 3608POPC   GL247618  21.309  36.545   5.756
 3608POPC   C1A47619  21.345  36.931   6.122
 3608POPC   D2A47620  21.434  37.069   6.565
 3608POPC   C3A47621  21.226  36.891   6.934
 3608POPC   C4A47622  21.292  37.013   7.381
 3608POPC   C1B47623  21.656  36.496   6.109
 3608POPC   C2B47624  21.562  36.587   6.516
 3608POPC   C3B47625  21.587  36.495   6.940
 3608POPC   C4B47626  21.320  36.507   7.273
 3609POPC   NC347627   8.153  42.018   5.483
 3609POPC   PO447628   8.034  42.649   5.334
 3609POPC   GL147629   7.975  42.518   5.747
 3609POPC   GL247630   8.297  42.340   5.867
 3609POPC   C1A47631   7.985  42.605   6.185
 3609POPC   D2A47632   8.295  42.407   6.458
 3609POPC   C3A47633   8.260  42.550   6.881
 3609POPC   C4A47634   8.245  42.375   7.294
 3609POPC   C1B47635   7.992  42.097   6.109
 3609POPC   C2B47636   7.933  42.025   6.510
 3609POPC   C3B47637   8.143  42.046   6.847
 3609POPC   C4B47638   8.049  41.930   7.237
 3610POPC   NC347639   7.578  11.242   5.172
 3610POPC   PO447640   7.313  10.578   5.372
 3610POPC   GL147641   7.464  10.382   5.736
 3610POPC   GL247642   7.567  10.697   5.871
 3610POPC   C1A47643   7.394  10.324   6.195
 3610POPC   D2A47644   7.128  10.459   6.534
 3610POPC   C3A47645   7.194  10.446   6.972
 3610POPC   C4A47646   7.280  10.307   7.379
 3610POPC   C1B47647   7.778  10.646   6.272
 3610POPC   C2B47648   7.651  10.520   6.688
 3610POPC   C3B47649   7.656  10.595   7.133
 3610POPC   C4B47650   7.879  10.836   7.433
 3611POPC   NC347651   7.285  13.011   5.433
 3611POPC   PO447652   7.356  12.341   5.308
 3611POPC   GL147653   7.300  12.575   5.706
 3611POPC   GL247654   7.020  12.367   5.756
 3611POPC   C1A47655   7.438  12.853   6.099
 3611POPC   D2A47656   7.690  12.944   6.505
 3611POPC   C3A47657   7.512  12.929   6.927
 3611POPC   C4A47658   7.626  12.991   7.372
 3611POPC   C1B47659   7.119  12.460   6.182
 3611POPC   C2B47660   7.172  12.693   6.554
 3611POPC   C3B47661   7.171  12.544   6.972
 3611POPC   C4B47662   7.254  12.655   7.376
 3612POPC   NC347663  38.289  33.101   5.443
 3612POPC   PO447664  38.866  32.802   5.356
 3612POPC   GL147665  38.640  32.939   5.768
 3612POPC   GL247666  38.346  32.731   5.811
 3612POPC   C1A47667  38.427  33.145   6.167
 3612POPC   D2A47668  38.496  32.996   6.605
 3612POPC   C3A47669  38.334  33.017   7.022
 3612POPC   C4A47670  38.372  33.411   7.217
 3612POPC   C1B47671  38.588  32.652   6.206
 3612POPC   C2B47672  38.574  32.498   6.639
 3612POPC   C3B47673  38.772  32.628   7.006
 3612POPC   C4B47674  38.715  32.877   7.352
 3613POPC   NC347675   0.386  23.502   5.502
 3613POPC   PO447676   0.354  24.166   5.503
 3613POPC   GL147677   0.502  23.897   5.827
 3613POPC   GL247678   0.188  23.749   5.902
 3613POPC   C1A47679   0.637  23.641   6.201
 3613POPC   D2A47680   0.885  23.575   6.605
 3613POPC   C3A47681   0.762  23.704   7.027
 3613POPC   C4A47682   0.643  23.430   7.362
 3613POPC   C1B47683   0.167  23.455   6.229
 3613POPC   C2B47684   0.374  23.362   6.610
 3613POPC   C3B47685   0.278  23.514   7.013
 3613POPC   C4B47686   0.287  23.786   7.398
 3614POPC   NC347687   8.009   1.091   5.432
 3614POPC   PO447688   8.516   1.605   5.465
 3614POPC   GL147689   8.484   1.202   5.771
 3614POPC   GL247690   8.133   1.052   5.918
 3614POPC   C1A47691   8.526   1.085   6.223
 3614POPC   D2A47692   8.152   0.889   6.443
 3614POPC   C3A47693   8.162   0.872   6.911
 3614POPC   C4A47694   8.516   1.036   7.206
 3614POPC   C1B47695   8.118   1.372   6.266
 3614POPC   C2B47696   8.308   1.335   6.699
 3614POPC   C3B47697   8.076   1.337   7.111
 3614POPC   C4B47698   7.785   1.452   7.470
 3615POPC   NC347699   3.196  27.949   5.459
 3615POPC   PO447700   2.597  28.232   5.324
 3615POPC   GL147701   2.626  28.081   5.729
 3615POPC   GL247702   2.930  28.265   5.771
 3615POPC   C1A47703   2.550  28.288   6.118
 3615POPC   D2A47704   2.708  28.513   6.442
 3615POPC   C3A47705   2.554  28.316   6.791
 3615POPC   C4A47706   2.654  28.415   7.204
 3615POPC   C1B47707   2.967  27.998   6.155
 3615POPC   C2B47708   3.001  28.095   6.585
 3615POPC   C3B47709   2.911  28.011   7.018
 3615POPC   C4B47710   3.014  28.158   7.443
 3616POPC   NC347711  40.285  35.186   5.636
 3616POPC   PO447712  39.855  35.648   5.399
 3616POPC   GL147713  39.830  35.457   5.797
 3616POPC   GL247714  39.593  35.176   5.738
 3616POPC   C1A47715  40.069  35.504   6.190
 3616POPC   D2A47716  40.215  35.237   6.525
 3616POPC   C3A47717  40.085  35.325   6.948
 3616POPC   C4A47718  40.209  35.238   7.385
 3616POPC   C1B47719  39.448  35.341   6.122
 3616POPC   C2B47720  39.664  35.395   6.484
 3616POPC   C3B47721  39.565  35.344   6.885
 3616POPC   C4B47722  39.705  35.267   7.290
 3617POPC   NC347723  21.713  29.989   5.526
 3617POPC   PO447724  22.117  30.364   5.171
 3617POPC   GL147725  22.087  30.328   5.663
 3617POPC   GL247726  22.131  30.012   5.848
 3617POPC   C1A47727  21.946  30.381   6.128
 3617POPC   D2A47728  22.128  30.231   6.503
 3617POPC   C3A47729  21.932  30.186   6.901
 3617POPC   C4A47730  22.160  30.090   7.254
 3617POPC   C1B47731  22.143  29.799   6.234
 3617POPC   C2B47732  22.104  29.737   6.697
 3617POPC   C3B47733  22.236  29.530   7.080
 3617POPC   C4B47734  22.415  29.693   7.439
 3618POPC   NC347735   0.619   1.415   5.345
 3618POPC   PO447736   0.218   0.884   5.488
 3618POPC   GL147737   0.452   1.127   5.751
 3618POPC   GL247738   0.230   1.376   5.788
 3618POPC   C1A47739   0.621   1.329   6.141
 3618POPC   D2A47740   0.521   1.348   6.588
 3618POPC   C3A47741   0.570   0.998   6.852
 3618POPC   C4A47742   0.650   1.043   7.262
 3618POPC   C1B47743   0.126   1.167   6.196
 3618POPC   C2B47744   0.094   1.039   6.613
 3618POPC   C3B47745   0.156   1.243   6.986
 3618POPC   C4B47746   0.093   1.019   7.296
 3619POPC   NC347747  40.540  21.224   5.536
 3619POPC   PO447748  41.255  21.130   5.396
 3619POPC   GL147749  41.059  21.374   5.733
 3619POPC   GL247750  40.885  21.098   5.911
 3619POPC   C1A47751  40.931  21.661   6.116
 3619POPC   D2A47752  40.642  21.655   6.505
 3619POPC   C3A47753  40.694  21.340   6.855
 3619POPC   C4A47754  40.595  21.551   7.275
 3619POPC   C1B47755  40.906  21.185   6.368
 3619POPC   C2B47756  41.123  21.520   6.609
 3619POPC   C3B47757  41.005  21.707   6.996
 3619POPC   C4B47758  41.034  21.305   7.260
 3620POPC   NC347759   9.206  29.597   5.370
 3620POPC   PO447760   8.732  28.920   5.417
 3620POPC   GL147761   8.840  29.094   5.801
 3620POPC   GL247762   8.970  29.406   5.783
 3620POPC   C1A47763   8.759  29.262   6.257
 3620POPC   D2A47764   8.772  29.426   6.702
 3620POPC   C3A47765   8.795  29.161   7.088
 3620POPC   C4A47766   8.647  29.202   7.542
 3620POPC   C1B47767   9.233  29.190   6.104
 3620POPC   C2B47768   9.265  29.306   6.509
 3620POPC   C3B47769   9.267  29.309   6.918
 3620POPC   C4B47770   9.263  29.118   7.289
 3621POPC   NC347771   1.814   3.099   5.464
 3621POPC   PO447772   2.217   2.531   5.484
 3621POPC   GL147773   2.161   2.786   5.847
 3621POPC   GL247774   1.818   2.830   5.892
 3621POPC   C1A47775   2.038   2.599   6.272
 3621POPC   D2A47776   1.863   2.769   6.637
 3621POPC   C3A47777   2.201   2.700   6.946
 3621POPC   C4A47778   2.310   2.284   7.104
 3621POPC   C1B47779   1.553   3.008   6.229
 3621POPC   C2B47780   1.517   3.157   6.651
 3621POPC   C3B47781   1.461   2.905   6.979
 3621POPC   C4B47782   1.746   2.627   7.127
 3622POPC   NC347783  20.756  30.052   5.387
 3622POPC   PO447784  20.309  29.626   5.535
 3622POPC   GL147785  20.494  29.993   5.830
 3622POPC   GL247786  20.853  30.120   5.881
 3622POPC   C1A47787  20.541  30.115   6.282
 3622POPC   D2A47788  20.831  30.074   6.637
 3622POPC   C3A47789  20.674  30.130   7.047
 3622POPC   C4A47790  20.265  30.108   7.228
 3622POPC   C1B47791  20.902  29.741   6.178
 3622POPC   C2B47792  21.147  29.685   6.595
 3622POPC   C3B47793  20.920  29.659   7.020
 3622POPC   C4B47794  20.812  29.687   7.485
 3623POPC   NC347795  19.690  40.150   5.249
 3623POPC   PO447796  20.144  39.750   5.250
 3623POPC   GL147797  19.949  39.912   5.683
 3623POPC   GL247798  20.201  39.997   5.847
 3623POPC   C1A47799  19.878  40.191   6.165
 3623POPC   D2A47800  19.953  40.429   6.605
 3623POPC   C3A47801  19.847  40.217   7.010
 3623POPC   C4A47802  19.657  40.244   7.451
 3623POPC   C1B47803  20.217  39.794   6.274
 3623POPC   C2B47804  20.047  39.771   6.698
 3623POPC   C3B47805  20.220  39.866   7.093
 3623POPC   C4B47806  20.151  40.125   7.452
 3624POPC   NC347807  30.495  43.638   5.361
 3624POPC   PO447808  31.032  44.086   5.195
 3624POPC   GL147809  30.801  44.035   5.666
 3624POPC   GL247810  30.525  44.241   5.802
 3624POPC   C1A47811  30.794  44.029   6.193
 3624POPC   D2A47812  30.576  43.998   6.631
 3624POPC   C3A47813  30.743  43.850   7.074
 3624POPC   C4A47814  30.584  43.673   7.481
 3624POPC   C1B47815  30.323  43.887   6.065
 3624POPC   C2B47816  30.301  43.566   6.405
 3624POPC   C3B47817  30.339  43.607   6.854
 3624POPC   C4B47818  30.132  43.593   7.214
 3625POPC   NC347819  14.504  17.054   5.498
 3625POPC   PO447820  14.456  16.372   5.435
 3625POPC   GL147821  14.241  16.647   5.725
 3625POPC   GL247822  13.858  16.571   5.696
 3625POPC   C1A47823  14.404  16.779   6.155
 3625POPC   D2A47824  14.531  16.590   6.566
 3625POPC   C3A47825  14.402  16.786   6.959
 3625POPC   C4A47826  14.655  17.005   7.262
 3625POPC   C1B47827  13.957  16.558   6.136
 3625POPC   C2B47828  14.038  16.735   6.553
 3625POPC   C3B47829  13.908  16.607   6.980
 3625POPC   C4B47830  13.809  16.733   7.423
 3626POPC   NC347831   3.817   5.788   5.236
 3626POPC   PO447832   3.435   6.233   5.457
 3626POPC   GL147833   3.530   6.091   5.867
 3626POPC   GL247834   3.688   5.781   5.781
 3626POPC   C1A47835   3.303   6.027   6.271
 3626POPC   D2A47836   3.214   5.875   6.716
 3626POPC   C3A47837   3.484   5.922   7.112
 3626POPC   C4A47838   3.668   6.006   7.551
 3626POPC   C1B47839   3.620   5.632   6.227
 3626POPC   C2B47840   3.696   5.689   6.690
 3626POPC   C3B47841   3.547   5.413   7.050
 3626POPC   C4B47842   3.400   5.288   7.472
 3627POPC   NC347843  29.529  25.119   5.513
 3627POPC   PO447844  30.117  25.268   5.482
 3627POPC   GL147845  30.025  25.536   5.811
 3627POPC   GL247846  29.678  25.497   5.880
 3627POPC   C1A47847  30.130  25.680   6.224
 3627POPC   D2A47848  30.157  25.358   6.553
 3627POPC   C3A47849  29.927  25.369   6.932
 3627POPC   C4A47850  30.004  25.453   7.366
 3627POPC   C1B47851  29.837  25.176   6.169
 3627POPC   C2B47852  29.706  25.056   6.590
 3627POPC   C3B47853  29.733  24.927   7.062
 3627POPC   C4B47854  29.716  25.065   7.519
 3628POPC   NC347855  20.617   3.056   5.411
 3628POPC   PO447856  20.783   2.356   5.397
 3628POPC   GL147857  20.718   2.643   5.718
 3628POPC   GL247858  20.375   2.661   5.652
 3628POPC   C1A47859  20.847   2.776   6.129
 3628POPC   D2A47860  20.671   2.773   6.538
 3628POPC   C3A47861  20.824   2.978   6.895
 3628POPC   C4A47862  20.614   3.016   7.290
 3628POPC   C1B47863  20.342   2.614   6.094
 3628POPC   C2B47864  20.241   2.510   6.522
 3628POPC   C3B47865  20.337   2.674   6.938
 3628POPC   C4B47866  20.195   2.395   7.275
 3629POPC   NC347867   2.606   2.811   5.476
 3629POPC   PO447868   3.212   2.430   5.486
 3629POPC   GL147869   3.007   2.611   5.824
 3629POPC   GL247870   2.952   2.963   5.863
 3629POPC   C1A47871   2.839   2.594   6.246
 3629POPC   D2A47872   2.988   2.647   6.665
 3629POPC   C3A47873   2.720   2.644   7.045
 3629POPC   C4A47874   2.921   2.646   7.435
 3629POPC   C1B47875   2.554   3.015   6.111
 3629POPC   C2B47876   2.472   2.880   6.536
 3629POPC   C3B47877   2.532   3.095   6.938
 3629POPC   C4B47878   2.650   3.060   7.378
 3630POPC   NC347879  39.208   6.898   5.429
 3630POPC   PO447880  39.643   6.412   5.623
 3630POPC   GL147881  39.314   6.586   5.862
 3630POPC   GL247882  38.994   6.409   5.978
 3630POPC   C1A47883  39.364   6.535   6.295
 3630POPC   D2A47884  39.236   6.604   6.693
 3630POPC   C3A47885  39.440   6.477   7.082
 3630POPC   C4A47886  39.513   6.831   7.353
 3630POPC   C1B47887  38.899   6.806   6.251
 3630POPC   C2B47888  38.803   6.914   6.718
 3630POPC   C3B47889  38.993   6.722   7.121
 3630POPC   C4B47890  38.987   6.782   7.567
 3631POPC   NC347891  42.174  25.827   5.285
 3631POPC   PO447892  42.742  26.109   5.311
 3631POPC   GL147893  42.447  26.316   5.600
 3631POPC   GL247894  42.346  26.008   5.725
 3631POPC   C1A47895  42.416  26.382   6.070
 3631POPC   D2A47896  42.242  26.353   6.505
 3631POPC   C3A47897  42.444  26.300   6.901
 3631POPC   C4A47898  42.336  26.023   7.238
 3631POPC   C1B47899  42.174  25.869   6.114
 3631POPC   C2B47900  42.159  25.648   6.488
 3631POPC   C3B47901  42.233  25.643   6.911
 3631POPC   C4B47902  41.951  25.670   7.269
 3632POPC   NC347903   8.588  29.349   5.423
 3632POPC   PO447904   7.978  29.167   5.435
 3632POPC   GL147905   8.260  29.161   5.790
 3632POPC   GL247906   8.432  29.454   5.905
 3632POPC   C1A47907   8.465  28.879   6.051
 3632POPC   D2A47908   8.506  28.712   6.471
 3632POPC   C3A47909   8.383  29.032   6.767
 3632POPC   C4A47910   8.301  29.026   7.200
 3632POPC   C1B47911   8.254  29.271   6.313
 3632POPC   C2B47912   7.974  29.406   6.642
 3632POPC   C3B47913   8.083  29.458   7.055
 3632POPC   C4B47914   8.501  29.552   7.161
 3633POPC   NC347915  25.817  32.919   5.383
 3633POPC   PO447916  26.350  33.398   5.458
 3633POPC   GL147917  26.149  33.227   5.807
 3633POPC   GL247918  25.833  33.156   5.838
 3633POPC   C1A47919  26.016  33.371   6.239
 3633POPC   D2A47920  25.842  33.148   6.597
 3633POPC   C3A47921  26.060  33.249   6.975
 3633POPC   C4A47922  26.398  33.258   7.289
 3633POPC   C1B47923  25.977  32.843   6.181
 3633POPC   C2B47924  26.004  32.661   6.628
 3633POPC   C3B47925  25.878  32.726   7.063
 3633POPC   C4B47926  25.613  32.714   7.484
 3634POPC   NC347927  15.895  33.268   5.319
 3634POPC   PO447928  15.857  32.596   5.392
 3634POPC   GL147929  15.887  32.881   5.741
 3634POPC   GL247930  16.142  33.157   5.745
 3634POPC   C1A47931  15.860  32.978   6.173
 3634POPC   D2A47932  15.705  32.957   6.580
 3634POPC   C3A47933  15.969  32.994   6.883
 3634POPC   C4A47934  15.892  32.957   7.270
 3634POPC   C1B47935  16.266  33.298   6.127
 3634POPC   C2B47936  16.436  33.413   6.510
 3634POPC   C3B47937  16.428  33.539   6.924
 3634POPC   C4B47938  16.297  33.255   7.234
 3635POPC   NC347939  31.667  35.931   5.476
 3635POPC   PO447940  31.173  36.256   5.309
 3635POPC   GL147941  31.370  36.247   5.763
 3635POPC   GL247942  31.430  35.924   5.930
 3635POPC   C1A47943  31.654  36.297   6.153
 3635POPC   D2A47944  31.576  36.446   6.527
 3635POPC   C3A47945  31.740  36.347   6.889
 3635POPC   C4A47946  31.389  36.432   7.165
 3635POPC   C1B47947  31.422  35.798   6.348
 3635POPC   C2B47948  31.663  35.851   6.713
 3635POPC   C3B47949  31.543  35.945   7.143
 3635POPC   C4B47950  31.346  35.676   7.468
 3636POPC   NC347951  23.824  20.763   5.321
 3636POPC   PO447952  23.439  21.007   5.690
 3636POPC   GL147953  23.804  20.720   5.839
 3636POPC   GL247954  23.854  20.349   5.696
 3636POPC   C1A47955  23.989  20.711   6.258
 3636POPC   D2A47956  23.846  20.798   6.667
 3636POPC   C3A47957  24.119  20.841   6.990
 3636POPC   C4A47958  23.869  20.781   7.311
 3636POPC   C1B47959  23.970  20.227   6.117
 3636POPC   C2B47960  23.793  20.290   6.527
 3636POPC   C3B47961  23.672  20.377   6.955
 3636POPC   C4B47962  24.048  20.336   7.158
 3637POPC   NC347963  18.608   8.537   5.406
 3637POPC   PO447964  18.319   9.158   5.302
 3637POPC   GL147965  18.325   9.226   5.703
 3637POPC   GL247966  18.360   8.889   5.805
 3637POPC   C1A47967  18.356   9.270   6.150
 3637POPC   D2A47968  18.356   9.227   6.594
 3637POPC   C3A47969  18.244   9.126   7.007
 3637POPC   C4A47970  18.283   9.050   7.439
 3637POPC   C1B47971  18.536   8.810   6.249
 3637POPC   C2B47972  18.347   8.727   6.670
 3637POPC   C3B47973  18.448   8.631   7.084
 3637POPC   C4B47974  18.732   8.577   7.406
 3638POPC   NC347975   3.900  41.163   5.574
 3638POPC   PO447976   3.545  40.720   5.444
 3638POPC   GL147977   3.574  40.836   5.836
 3638POPC   GL247978   3.289  40.660   5.948
 3638POPC   C1A47979   3.491  41.039   6.234
 3638POPC   D2A47980   3.391  40.845   6.632
 3638POPC   C3A47981   3.579  41.019   6.995
 3638POPC   C4A47982   3.361  40.947   7.362
 3638POPC   C1B47983   3.602  40.530   6.264
 3638POPC   C2B47984   3.753  40.404   6.685
 3638POPC   C3B47985   3.596  40.525   7.125
 3638POPC   C4B47986   3.611  40.494   7.604
 3639POPC   NC347987  26.371   6.952   5.443
 3639POPC   PO447988  25.809   6.457   5.414
 3639POPC   GL147989  26.101   6.577   5.760
 3639POPC   GL247990  26.107   6.944   5.867
 3639POPC   C1A47991  25.971   6.586   6.204
 3639POPC   D2A47992  25.661   6.666   6.541
 3639POPC   C3A47993  25.924   6.586   6.887
 3639POPC   C4A47994  26.217   6.348   7.163
 3639POPC   C1B47995  26.302   6.975   6.290
 3639POPC   C2B47996  26.398   6.767   6.703
 3639POPC   C3B47997  26.289   6.858   7.165
 3639POPC   C4B47998  26.303   6.975   7.605
 3640POPC   NC347999  20.350  32.551   5.487
 3640POPC   PO448000  20.755  31.962   5.360
 3640POPC   GL148001  20.660  32.247   5.743
 3640POPC   GL248002  20.907  32.122   5.887
 3640POPC   C1A48003  20.493  32.495   6.173
 3640POPC   D2A48004  20.240  32.313   6.551
 3640POPC   C3A48005  20.383  32.313   7.008
 3640POPC   C4A48006  20.504  32.462   7.441
 3640POPC   C1B48007  20.676  32.014   6.222
 3640POPC   C2B48008  20.769  31.827   6.595
 3640POPC   C3B48009  20.593  31.822   7.000
 3640POPC   C4B48010  20.736  32.037   7.387
 3641POPC   NC348011  30.011  18.916   5.466
 3641POPC   PO448012  30.051  19.621   5.715
 3641POPC   GL148013  30.007  19.212   5.899
 3641POPC   GL248014  29.673  19.172   5.783
 3641POPC   C1A48015  30.221  18.890   6.166
 3641POPC   D2A48016  30.268  18.843   6.629
 3641POPC   C3A48017  30.202  19.261   6.810
 3641POPC   C4A48018  29.987  19.347   7.195
 3641POPC   C1B48019  29.679  18.829   6.104
 3641POPC   C2B48020  29.759  18.874   6.515
 3641POPC   C3B48021  29.687  19.134   6.839
 3641POPC   C4B48022  29.581  19.001   7.237
 3642POPC   NC348023  30.800  41.652   5.119
 3642POPC   PO448024  30.203  41.542   5.158
 3642POPC   GL148025  30.484  41.529   5.567
 3642POPC   GL248026  30.798  41.733   5.621
 3642POPC   C1A48027  30.466  41.573   6.039
 3642POPC   D2A48028  30.646  41.349   6.358
 3642POPC   C3A48029  30.684  41.462   6.785
 3642POPC   C4A48030  30.874  41.351   7.177
 3642POPC   C1B48031  30.967  41.671   6.064
 3642POPC   C2B48032  31.054  41.753   6.533
 3642POPC   C3B48033  30.931  41.853   7.013
 3642POPC   C4B48034  31.101  41.778   7.476
 3643POPC   NC348035  13.406  26.065   5.282
 3643POPC   PO448036  13.925  26.483   5.166
 3643POPC   GL148037  13.730  26.328   5.629
 3643POPC   GL248038  13.356  26.252   5.761
 3643POPC   C1A48039  13.769  26.103   6.087
 3643POPC   D2A48040  13.602  25.859   6.481
 3643POPC   C3A48041  13.669  25.962   6.938
 3643POPC   C4A48042  13.445  25.805   7.336
 3643POPC   C1B48043  13.260  26.181   6.211
 3643POPC   C2B48044  13.242  26.424   6.596
 3643POPC   C3B48045  13.369  26.369   7.028
 3643POPC   C4B48046  13.146  26.210   7.394
 3644POPC   NC348047   6.026  43.239   5.383
 3644POPC   PO448048   5.535  42.702   5.431
 3644POPC   GL148049   5.807  42.824   5.826
 3644POPC   GL248050   6.096  43.065   5.854
 3644POPC   C1A48051   5.804  42.943   6.291
 3644POPC   D2A48052   5.744  43.324   6.600
 3644POPC   C3A48053   5.784  43.222   7.043
 3644POPC   C4A48054   5.693  42.804   7.237
 3644POPC   C1B48055   6.189  43.306   6.260
 3644POPC   C2B48056   6.345  43.189   6.698
 3644POPC   C3B48057   6.299  43.387   7.114
 3644POPC   C4B48058   5.999  43.600   7.364
 3645POPC   NC348059  26.348   3.064   5.480
 3645POPC   PO448060  26.845   2.750   5.223
 3645POPC   GL148061  26.825   2.779   5.714
 3645POPC   GL248062  26.521   2.846   5.908
 3645POPC   C1A48063  26.965   2.937   6.158
 3645POPC   D2A48064  26.870   2.847   6.611
 3645POPC   C3A48065  27.015   2.971   7.045
 3645POPC   C4A48066  27.050   2.601   7.348
 3645POPC   C1B48067  26.466   3.030   6.337
 3645POPC   C2B48068  26.509   3.112   6.823
 3645POPC   C3B48069  26.524   2.854   7.215
 3645POPC   C4B48070  26.782   2.928   7.623
 3646POPC   NC348071  42.919  32.119   5.358
 3646POPC   PO448072  43.568  32.026   5.488
 3646POPC   GL148073  43.352  32.281   5.839
 3646POPC   GL248074  42.989  32.325   5.823
 3646POPC   C1A48075  43.179  32.197   6.266
 3646POPC   D2A48076  43.073  32.457   6.636
 3646POPC   C3A48077  43.092  32.204   6.998
 3646POPC   C4A48078  43.164  32.176   7.421
 3646POPC   C1B48079  42.725  32.510   6.164
 3646POPC   C2B48080  42.628  32.692   6.574
 3646POPC   C3B48081  42.701  32.568   7.021
 3646POPC   C4B48082  42.820  32.599   7.454
 3647POPC   NC348083  30.585  22.921   5.287
 3647POPC   PO448084  30.705  23.541   5.327
 3647POPC   GL148085  30.670  23.243   5.710
 3647POPC   GL248086  30.843  22.895   5.732
 3647POPC   C1A48087  30.630  23.142   6.155
 3647POPC   D2A48088  30.645  22.963   6.560
 3647POPC   C3A48089  30.624  23.116   7.008
 3647POPC   C4A48090  30.667  22.758   7.292
 3647POPC   C1B48091  30.966  22.762   6.142
 3647POPC   C2B48092  31.161  22.876   6.513
 3647POPC   C3B48093  31.104  22.969   6.910
 3647POPC   C4B48094  31.144  22.907   7.307
 3648POPC   NC348095  27.075  10.545   5.343
 3648POPC   PO448096  26.537  10.608   5.416
 3648POPC   GL148097  26.833  10.512   5.794
 3648POPC   GL248098  27.121  10.279   5.783
 3648POPC   C1A48099  27.151  10.642   6.140
 3648POPC   D2A48100  27.256  10.629   6.589
 3648POPC   C3A48101  26.932  10.709   6.948
 3648POPC   C4A48102  26.501  10.589   7.158
 3648POPC   C1B48103  26.955  10.163   6.218
 3648POPC   C2B48104  26.849  10.277   6.661
 3648POPC   C3B48105  26.860  10.226   7.108
 3648POPC   C4B48106  26.621  10.203   7.487
 3649POPC   NC348107  22.357  34.189   5.482
 3649POPC   PO448108  22.750  33.574   5.414
 3649POPC   GL148109  23.025  33.725   5.783
 3649POPC   GL248110  23.192  33.423   5.885
 3649POPC   C1A48111  23.211  33.829   6.195
 3649POPC   D2A48112  23.053  33.826   6.598
 3649POPC   C3A48113  23.242  33.679   6.963
 3649POPC   C4A48114  23.031  33.913   7.250
 3649POPC   C1B48115  22.817  33.499   6.208
 3649POPC   C2B48116  22.597  33.620   6.609
 3649POPC   C3B48117  22.718  33.532   7.049
 3649POPC   C4B48118  22.570  33.397   7.466
 3650POPC   NC348119  39.001  10.408   5.636
 3650POPC   PO448120  38.366  10.468   5.535
 3650POPC   GL148121  38.548  10.509   5.937
 3650POPC   GL248122  38.835  10.785   5.932
 3650POPC   C1A48123  38.354  10.383   6.344
 3650POPC   D2A48124  38.207  10.606   6.743
 3650POPC   C3A48125  38.325  10.376   7.141
 3650POPC   C4A48126  38.721  10.440   7.421
 3650POPC   C1B48127  38.928  10.551   6.295
 3650POPC   C2B48128  38.726  10.440   6.677
 3650POPC   C3B48129  38.668  10.695   6.984
 3650POPC   C4B48130  38.907  10.935   7.233
 3651POPC   NC348131  13.815  34.869   5.621
 3651POPC   PO448132  13.306  34.468   5.373
 3651POPC   GL148133  13.464  34.512   5.796
 3651POPC   GL248134  13.339  34.836   5.895
 3651POPC   C1A48135  13.699  34.275   6.134
 3651POPC   D2A48136  13.506  34.104   6.497
 3651POPC   C3A48137  13.584  34.266   6.911
 3651POPC   C4A48138  13.939  34.427   7.192
 3651POPC   C1B48139  13.533  34.716   6.325
 3651POPC   C2B48140  13.646  34.763   6.793
 3651POPC   C3B48141  13.514  34.670   7.240
 3651POPC   C4B48142  13.276  34.580   7.669
 3652POPC   NC348143  37.387   8.460   5.126
 3652POPC   PO448144  37.854   8.043   5.479
 3652POPC   GL148145  37.785   8.272   5.826
 3652POPC   GL248146  37.487   8.103   5.959
 3652POPC   C1A48147  37.782   8.423   6.239
 3652POPC   D2A48148  37.742   8.257   6.652
 3652POPC   C3A48149  37.512   8.538   6.949
 3652POPC   C4A48150  37.203   8.362   7.271
 3652POPC   C1B48151  37.598   7.838   6.289
 3652POPC   C2B48152  37.460   7.811   6.705
 3652POPC   C3B48153  37.559   8.031   7.076
 3652POPC   C4B48154  37.640   7.897   7.475
 3653POPC   NC348155  24.070  21.691   5.039
 3653POPC   PO448156  23.938  22.153   5.548
 3653POPC   GL148157  23.934  22.191   5.961
 3653POPC   GL248158  24.179  21.971   6.018
 3653POPC   C1A48159  23.788  22.413   6.324
 3653POPC   D2A48160  23.569  22.288   6.731
 3653POPC   C3A48161  23.603  22.298   7.183
 3653POPC   C4A48162  23.519  21.956   7.454
 3653POPC   C1B48163  24.296  22.254   6.325
 3653POPC   C2B48164  24.109  22.291   6.689
 3653POPC   C3B48165  24.032  22.073   7.038
 3653POPC   C4B48166  24.020  22.099   7.482
 3654POPC   NC348167  30.950  15.648   5.450
 3654POPC   PO448168  30.545  16.189   5.405
 3654POPC   GL148169  30.602  15.888   5.742
 3654POPC   GL248170  30.935  15.982   5.875
 3654POPC   C1A48171  30.420  15.706   6.110
 3654POPC   D2A48172  30.383  15.982   6.495
 3654POPC   C3A48173  30.663  15.997   6.786
 3654POPC   C4A48174  30.544  15.793   7.162
 3654POPC   C1B48175  30.870  15.820   6.298
 3654POPC   C2B48176  31.084  15.711   6.650
 3654POPC   C3B48177  31.039  15.803   7.077
 3654POPC   C4B48178  30.881  16.199   7.216
 3655POPC   NC348179  13.758  35.860   5.501
 3655POPC   PO448180  13.445  35.250   5.578
 3655POPC   GL148181  13.609  35.272   5.964
 3655POPC   GL248182  13.592  35.649   5.946
 3655POPC   C1A48183  13.339  35.190   6.338
 3655POPC   D2A48184  13.186  35.558   6.581
 3655POPC   C3A48185  13.403  35.585   6.971
 3655POPC   C4A48186  13.578  35.174   7.115
 3655POPC   C1B48187  13.645  35.577   6.380
 3655POPC   C2B48188  13.872  35.465   6.782
 3655POPC   C3B48189  13.980  35.467   7.229
 3655POPC   C4B48190  13.963  35.408   7.660
 3656POPC   NC348191  33.977   1.416   5.363
 3656POPC   PO448192  33.433   1.117   5.172
 3656POPC   GL148193  33.646   1.211   5.685
 3656POPC   GL248194  34.017   1.183   5.798
 3656POPC   C1A48195  33.691   1.096   6.181
 3656POPC   D2A48196  33.463   1.142   6.575
 3656POPC   C3A48197  33.630   1.105   6.997
 3656POPC   C4A48198  33.515   1.234   7.418
 3656POPC   C1B48199  34.121   1.382   6.170
 3656POPC   C2B48200  33.963   1.309   6.570
 3656POPC   C3B48201  33.797   1.560   6.866
 3656POPC   C4B48202  34.004   1.383   7.251
 3657POPC   NC348203  22.806  35.461   5.156
 3657POPC   PO448204  23.233  35.454   5.637
 3657POPC   GL148205  23.068  35.117   5.807
 3657POPC   GL248206  22.755  35.121   5.617
 3657POPC   C1A48207  23.075  35.166   6.246
 3657POPC   D2A48208  23.104  35.292   6.654
 3657POPC   C3A48209  22.829  35.539   6.867
 3657POPC   C4A48210  23.090  35.635   7.207
 3657POPC   C1B48211  22.609  35.009   6.045
 3657POPC   C2B48212  22.619  35.124   6.485
 3657POPC   C3B48213  22.797  34.947   6.838
 3657POPC   C4B48214  22.884  35.158   7.223
 3658POPC   NC348215   0.424  10.179   5.408
 3658POPC   PO448216   0.473  10.816   5.177
 3658POPC   GL148217   0.282  10.623   5.662
 3658POPC   GL248218   0.125  10.309   5.835
 3658POPC   C1A48219   0.390  10.734   6.111
 3658POPC   D2A48220   0.648  10.626   6.500
 3658POPC   C3A48221   0.515  10.720   6.925
 3658POPC   C4A48222   0.465  10.748   7.356
 3658POPC   C1B48223   0.377  10.242   6.263
 3658POPC   C2B48224   0.482  10.136   6.732
 3658POPC   C3B48225   0.465  10.248   7.183
 3658POPC   C4B48226   0.322  10.322   7.617
 3659POPC   NC348227  22.379  41.284   5.160
 3659POPC   PO448228  21.921  41.756   5.191
 3659POPC   GL148229  22.133  41.675   5.595
 3659POPC   GL248230  22.476  41.733   5.652
 3659POPC   C1A48231  22.031  41.750   6.039
 3659POPC   D2A48232  22.005  41.903   6.467
 3659POPC   C3A48233  22.146  41.574   6.740
 3659POPC   C4A48234  22.153  41.508   7.178
 3659POPC   C1B48235  22.489  41.505   6.024
 3659POPC   C2B48236  22.572  41.474   6.475
 3659POPC   C3B48237  22.623  41.493   6.957
 3659POPC   C4B48238  22.603  41.541   7.432
 3660POPC   NC348239  32.738  11.914   5.387
 3660POPC   PO448240  32.163  12.181   5.248
 3660POPC   GL148241  32.114  12.088   5.731
 3660POPC   GL248242  31.914  12.392   5.796
 3660POPC   C1A48243  32.198  11.910   6.171
 3660POPC   D2A48244  32.272  12.130   6.591
 3660POPC   C3A48245  32.166  11.972   7.012
 3660POPC   C4A48246  32.363  12.135   7.392
 3660POPC   C1B48247  31.900  12.299   6.228
 3660POPC   C2B48248  31.931  12.525   6.614
 3660POPC   C3B48249  31.941  12.450   7.049
 3660POPC   C4B48250  31.740  12.154   7.315
 3661POPC   NC348251  25.713  24.465   5.502
 3661POPC   PO448252  24.976  24.375   5.330
 3661POPC   GL148253  25.231  24.458   5.712
 3661POPC   GL248254  25.418  24.776   5.764
 3661POPC   C1A48255  25.238  24.434   6.183
 3661POPC   D2A48256  25.482  24.456   6.597
 3661POPC   C3A48257  25.247  24.468   6.978
 3661POPC   C4A48258  25.115  24.289   7.350
 3661POPC   C1B48259  25.632  24.758   6.178
 3661POPC   C2B48260  25.707  24.921   6.612
 3661POPC   C3B48261  25.695  24.758   7.036
 3661POPC   C4B48262  25.494  24.645   7.404
 3662POPC   NC348263  43.498  26.941   5.545
 3662POPC   PO448264  42.868  27.055   5.279
 3662POPC   GL148265  43.004  26.920   5.709
 3662POPC   GL248266  42.873  27.211   5.785
 3662POPC   C1A48267  43.114  26.814   6.178
 3662POPC   D2A48268  43.197  26.945   6.645
 3662POPC   C3A48269  43.217  26.679   7.052
 3662POPC   C4A48270  42.897  26.467   7.369
 3662POPC   C1B48271  42.762  27.355   6.160
 3662POPC   C2B48272  42.659  27.147   6.522
 3662POPC   C3B48273  42.744  27.259   6.947
 3662POPC   C4B48274  42.943  27.047   7.277
 3663POPC   NC348275  41.931  44.397   5.402
 3663POPC   PO448276  42.530  44.672   5.534
 3663POPC   GL148277  42.208  44.635   5.773
 3663POPC   GL248278  42.197  44.263   5.813
 3663POPC   C1A48279  42.124  44.853   6.139
 3663POPC   D2A48280  42.347  44.768   6.531
 3663POPC   C3A48281  42.234  44.906   6.945
 3663POPC   C4A48282  42.399  44.972   7.345
 3663POPC   C1B48283  42.270  44.362   6.210
 3663POPC   C2B48284  42.020  44.383   6.571
 3663POPC   C3B48285  42.254  44.395   6.909
 3663POPC   C4B48286  42.204  44.492   7.320
 3664POPC   NC348287  38.189  15.168   5.418
 3664POPC   PO448288  37.560  15.470   5.315
 3664POPC   GL148289  37.728  15.254   5.660
 3664POPC   GL248290  37.841  15.551   5.792
 3664POPC   C1A48291  37.718  15.111   6.099
 3664POPC   D2A48292  37.477  15.215   6.495
 3664POPC   C3A48293  37.705  15.157   6.908
 3664POPC   C4A48294  37.612  14.908   7.265
 3664POPC   C1B48295  37.492  15.578   6.091
 3664POPC   C2B48296  37.465  15.725   6.528
 3664POPC   C3B48297  37.376  15.549   6.918
 3664POPC   C4B48298  37.575  15.497   7.305
 3665POPC   NC348299  19.113  21.727   5.342
 3665POPC   PO448300  19.399  21.202   5.196
 3665POPC   GL148301  19.206  21.351   5.682
 3665POPC   GL248302  18.979  21.639   5.841
 3665POPC   C1A48303  19.186  21.270   6.160
 3665POPC   D2A48304  18.929  21.304   6.532
 3665POPC   C3A48305  19.040  21.312   6.950
 3665POPC   C4A48306  19.179  20.985   7.217
 3665POPC   C1B48307  19.031  21.755   6.305
 3665POPC   C2B48308  18.966  21.819   6.763
 3665POPC   C3B48309  18.778  21.701   7.173
 3665POPC   C4B48310  18.743  21.643   7.610
 3666POPC   NC348311  41.252  44.626   5.486
 3666POPC   PO448312  41.843  44.858   5.455
 3666POPC   GL148313  41.696  44.603   5.821
 3666POPC   GL248314  41.415  44.379   5.897
 3666POPC   C1A48315  41.662  44.675   6.263
 3666POPC   D2A48316  41.472  44.753   6.673
 3666POPC   C3A48317  41.764  44.615   7.000
 3666POPC   C4A48318  41.905  44.889   7.333
 3666POPC   C1B48319  41.163  44.591   6.183
 3666POPC   C2B48320  41.037  44.450   6.559
 3666POPC   C3B48321  41.198  44.422   6.954
 3666POPC   C4B48322  41.323  44.293   7.353
 3667POPC   NC348323  25.937  37.876   5.366
 3667POPC   PO448324  26.363  37.387   5.441
 3667POPC   GL148325  26.030  37.591   5.766
 3667POPC   GL248326  25.782  37.898   5.841
 3667POPC   C1A48327  25.862  37.505   6.162
 3667POPC   D2A48328  26.149  37.453   6.459
 3667POPC   C3A48329  26.090  37.538   6.897
 3667POPC   C4A48330  26.244  37.684   7.249
 3667POPC   C1B48331  26.054  37.999   6.173
 3667POPC   C2B48332  26.056  37.956   6.619
 3667POPC   C3B48333  25.796  37.967   6.962
 3667POPC   C4B48334  25.793  37.925   7.391
 3668POPC   NC348335  22.327  34.903   5.428
 3668POPC   PO448336  21.950  34.442   5.487
 3668POPC   GL148337  22.072  34.397   5.907
 3668POPC   GL248338  22.340  34.597   5.837
 3668POPC   C1A48339  22.094  34.323   6.376
 3668POPC   D2A48340  22.112  34.291   6.839
 3668POPC   C3A48341  21.822  34.578   7.032
 3668POPC   C4A48342  21.892  34.973   7.238
 3668POPC   C1B48343  22.533  34.465   6.156
 3668POPC   C2B48344  22.509  34.631   6.538
 3668POPC   C3B48345  22.335  34.731   6.928
 3668POPC   C4B48346  22.271  34.488   7.297
 3669POPC   NC348347  30.175  13.225   5.405
 3669POPC   PO448348  30.204  13.797   5.741
 3669POPC   GL148349  29.792  13.692   5.792
 3669POPC   GL248350  29.922  13.355   5.844
 3669POPC   C1A48351  29.682  13.674   6.216
 3669POPC   D2A48352  30.074  13.643   6.513
 3669POPC   C3A48353  29.957  13.713   6.944
 3669POPC   C4A48354  29.549  13.834   7.049
 3669POPC   C1B48355  29.903  13.211   6.282
 3669POPC   C2B48356  30.024  13.183   6.749
 3669POPC   C3B48357  30.173  13.301   7.160
 3669POPC   C4B48358  30.183  13.606   7.483
 3670POPC   NC348359  18.770  13.860   5.637
 3670POPC   PO448360  19.240  13.530   5.394
 3670POPC   GL148361  19.134  13.530   5.838
 3670POPC   GL248362  19.170  13.858   5.989
 3670POPC   C1A48363  19.299  13.430   6.255
 3670POPC   D2A48364  19.463  13.718   6.577
 3670POPC   C3A48365  19.400  13.672   7.025
 3670POPC   C4A48366  19.075  13.380   7.164
 3670POPC   C1B48367  18.955  13.788   6.396
 3670POPC   C2B48368  18.946  13.807   6.850
 3670POPC   C3B48369  18.875  13.840   7.299
 3670POPC   C4B48370  18.745  13.908   7.751
 3671POPC   NC348371  21.169  16.001   5.443
 3671POPC   PO448372  21.821  15.834   5.392
 3671POPC   GL148373  21.648  16.080   5.697
 3671POPC   GL248374  21.447  15.850   5.900
 3671POPC   C1A48375  21.784  16.207   6.093
 3671POPC   D2A48376  21.512  16.076   6.424
 3671POPC   C3A48377  21.577  16.049   6.867
 3671POPC   C4A48378  21.315  16.027   7.226
 3671POPC   C1B48379  21.353  15.580   6.270
 3671POPC   C2B48380  21.179  15.424   6.683
 3671POPC   C3B48381  20.991  15.618   7.063
 3671POPC   C4B48382  20.872  15.753   7.475
 3672POPC   NC348383   3.390  27.182   5.397
 3672POPC   PO448384   3.782  27.748   5.320
 3672POPC   GL148385   3.534  27.604   5.663
 3672POPC   GL248386   3.826  27.559   5.822
 3672POPC   C1A48387   3.349  27.644   6.085
 3672POPC   D2A48388   3.284  27.622   6.551
 3672POPC   C3A48389   3.419  27.942   6.845
 3672POPC   C4A48390   3.325  27.811   7.249
 3672POPC   C1B48391   3.788  27.408   6.215
 3672POPC   C2B48392   3.691  27.306   6.627
 3672POPC   C3B48393   3.697  27.549   7.023
 3672POPC   C4B48394   3.689  27.560   7.502
 3673POPC   NC348395   7.262  15.615   5.420
 3673POPC   PO448396   7.623  15.092   5.336
 3673POPC   GL148397   7.774  15.144   5.746
 3673POPC   GL248398   7.595  15.435   5.769
 3673POPC   C1A48399   7.669  15.108   6.201
 3673POPC   D2A48400   7.665  14.856   6.592
 3673POPC   C3A48401   7.493  15.018   6.997
 3673POPC   C4A48402   7.165  15.261   7.246
 3673POPC   C1B48403   7.292  15.536   6.090
 3673POPC   C2B48404   7.364  15.448   6.520
 3673POPC   C3B48405   7.445  15.540   6.941
 3673POPC   C4B48406   7.848  15.492   7.154
 3674POPC   NC348407  20.877  14.249   5.444
 3674POPC   PO448408  20.551  14.785   5.234
 3674POPC   GL148409  20.678  14.726   5.639
 3674POPC   GL248410  20.376  14.632   5.788
 3674POPC   C1A48411  20.794  14.773   6.082
 3674POPC   D2A48412  20.838  14.482   6.430
 3674POPC   C3A48413  20.731  14.566   6.841
 3674POPC   C4A48414  20.663  14.257   7.186
 3674POPC   C1B48415  20.325  14.582   6.249
 3674POPC   C2B48416  20.314  14.325   6.631
 3674POPC   C3B48417  20.188  14.340   7.065
 3674POPC   C4B48418  20.245  14.605   7.443
 3675POPC   NC348419   6.219   7.416   5.461
 3675POPC   PO448420   6.762   7.042   5.434
 3675POPC   GL148421   6.737   7.288   5.832
 3675POPC   GL248422   6.490   7.533   5.886
 3675POPC   C1A48423   6.658   7.267   6.292
 3675POPC   D2A48424   6.437   7.539   6.584
 3675POPC   C3A48425   6.410   7.274   6.955
 3675POPC   C4A48426   6.790   7.183   7.244
 3675POPC   C1B48427   6.736   7.751   6.211
 3675POPC   C2B48428   6.943   7.646   6.599
 3675POPC   C3B48429   6.748   7.659   7.008
 3675POPC   C4B48430   6.637   7.998   7.267
 3676POPC   NC348431   6.004  21.378   5.439
 3676POPC   PO448432   5.371  21.191   5.498
 3676POPC   GL148433   5.698  21.140   5.804
 3676POPC   GL248434   5.801  21.451   5.921
 3676POPC   C1A48435   5.818  21.036   6.230
 3676POPC   D2A48436   5.964  21.059   6.662
 3676POPC   C3A48437   5.778  21.131   7.067
 3676POPC   C4A48438   5.931  21.202   7.492
 3676POPC   C1B48439   5.929  21.511   6.370
 3676POPC   C2B48440   5.778  21.592   6.804
 3676POPC   C3B48441   5.641  21.583   7.247
 3676POPC   C4B48442   5.569  21.847   7.610
 3677POPC   NC348443   6.889  10.831   5.434
 3677POPC   PO448444   6.332  10.401   5.452
 3677POPC   GL148445   6.613  10.503   5.756
 3677POPC   GL248446   6.479  10.309   6.035
 3677POPC   C1A48447   6.875  10.617   6.105
 3677POPC   D2A48448   6.622  10.564   6.485
 3677POPC   C3A48449   6.799  10.762   6.820
 3677POPC   C4A48450   6.523  10.873   7.118
 3677POPC   C1B48451   6.803  10.107   6.308
 3677POPC   C2B48452   6.806  10.135   6.770
 3677POPC   C3B48453   6.705  10.347   7.138
 3677POPC   C4B48454   6.411  10.489   7.427
 3678POPC   NC348455  35.149  37.360   5.406
 3678POPC   PO448456  35.832  37.267   5.424
 3678POPC   GL148457  35.674  37.645   5.695
 3678POPC   GL248458  35.298  37.739   5.767
 3678POPC   C1A48459  35.617  37.777   6.144
 3678POPC   D2A48460  35.372  37.572   6.460
 3678POPC   C3A48461  35.322  37.796   6.833
 3678POPC   C4A48462  35.503  37.872   7.201
 3678POPC   C1B48463  35.209  38.072   6.139
 3678POPC   C2B48464  35.118  38.193   6.578
 3678POPC   C3B48465  34.875  38.062   6.954
 3678POPC   C4B48466  34.991  37.766   7.251
 3679POPC   NC348467   1.638  27.731   5.432
 3679POPC   PO448468   2.217  27.313   5.430
 3679POPC   GL148469   1.990  27.433   5.750
 3679POPC   GL248470   2.031  27.777   5.797
 3679POPC   C1A48471   2.108  27.406   6.168
 3679POPC   D2A48472   1.823  27.420   6.492
 3679POPC   C3A48473   1.882  27.230   6.875
 3679POPC   C4A48474   2.120  27.321   7.215
 3679POPC   C1B48475   1.745  27.906   6.139
 3679POPC   C2B48476   1.673  27.893   6.606
 3679POPC   C3B48477   2.005  27.753   6.899
 3679POPC   C4B48478   2.038  27.773   7.380
 3680POPC   NC348479  17.129  14.397   5.306
 3680POPC   PO448480  17.829  14.292   5.343
 3680POPC   GL148481  17.503  14.364   5.719
 3680POPC   GL248482  17.783  14.502   5.873
 3680POPC   C1A48483  17.348  14.575   6.158
 3680POPC   D2A48484  17.085  14.490   6.537
 3680POPC   C3A48485  17.291  14.342   6.911
 3680POPC   C4A48486  17.403  14.516   7.312
 3680POPC   C1B48487  17.796  14.374   6.294
 3680POPC   C2B48488  17.692  14.691   6.579
 3680POPC   C3B48489  17.754  14.657   6.996
 3680POPC   C4B48490  17.764  14.214   7.125
 3681POPC   NC348491  14.799  42.269   5.061
 3681POPC   PO448492  15.192  42.628   5.434
 3681POPC   GL148493  15.054  42.379   5.732
 3681POPC   GL248494  15.308  42.178   5.854
 3681POPC   C1A48495  15.004  42.441   6.179
 3681POPC   D2A48496  15.230  42.254   6.483
 3681POPC   C3A48497  15.053  42.356   6.901
 3681POPC   C4A48498  15.227  42.049   7.184
 3681POPC   C1B48499  15.493  42.531   6.085
 3681POPC   C2B48500  15.697  42.516   6.482
 3681POPC   C3B48501  15.549  42.386   6.868
 3681POPC   C4B48502  15.426  42.505   7.253
 3682POPC   NC348503   4.443  43.453   5.501
 3682POPC   PO448504   3.958  43.737   5.170
 3682POPC   GL148505   3.995  43.652   5.655
 3682POPC   GL248506   4.213  43.948   5.818
 3682POPC   C1A48507   4.181  43.552   6.103
 3682POPC   D2A48508   4.111  43.413   6.508
 3682POPC   C3A48509   3.931  43.722   6.823
 3682POPC   C4A48510   4.075  43.594   7.228
 3682POPC   C1B48511   4.527  43.926   6.162
 3682POPC   C2B48512   4.375  43.839   6.586
 3682POPC   C3B48513   4.378  43.983   7.021
 3682POPC   C4B48514   4.595  44.281   7.279
 3683POPC   NC348515   4.901  40.361   5.357
 3683POPC   PO448516   5.271  39.768   5.253
 3683POPC   GL148517   5.167  40.009   5.649
 3683POPC   GL248518   5.385  40.235   5.861
 3683POPC   C1A48519   4.928  40.026   6.046
 3683POPC   D2A48520   4.975  40.176   6.433
 3683POPC   C3A48521   4.851  40.127   6.864
 3683POPC   C4A48522   4.527  40.002   7.111
 3683POPC   C1B48523   5.398  39.910   6.210
 3683POPC   C2B48524   5.315  39.877   6.675
 3683POPC   C3B48525   5.341  39.976   7.115
 3683POPC   C4B48526   5.002  40.113   7.375
 3684POPC   NC348527   6.895  29.862   5.423
 3684POPC   PO448528   7.572  30.027   5.124
 3684POPC   GL148529   7.493  29.952   5.587
 3684POPC   GL248530   7.664  30.216   5.757
 3684POPC   C1A48531   7.362  29.764   6.028
 3684POPC   D2A48532   7.551  29.658   6.452
 3684POPC   C3A48533   7.352  29.723   6.870
 3684POPC   C4A48534   7.518  29.581   7.250
 3684POPC   C1B48535   7.698  30.101   6.195
 3684POPC   C2B48536   7.389  30.165   6.540
 3684POPC   C3B48537   7.307  30.230   6.977
 3684POPC   C4B48538   7.580  30.118   7.335
 3685POPC   NC348539  36.057  27.748   5.591
 3685POPC   PO448540  36.531  27.333   5.343
 3685POPC   GL148541  36.410  27.463   5.856
 3685POPC   GL248542  36.026  27.362   5.916
 3685POPC   C1A48543  36.265  27.616   6.280
 3685POPC   D2A48544  36.071  27.380   6.619
 3685POPC   C3A48545  36.255  27.473   6.991
 3685POPC   C4A48546  36.314  27.822   7.274
 3685POPC   C1B48547  35.770  27.560   6.247
 3685POPC   C2B48548  35.647  27.739   6.640
 3685POPC   C3B48549  35.821  27.730   7.062
 3685POPC   C4B48550  35.911  27.397   7.369
 3686POPC   NC348551  40.517  26.070   5.229
 3686POPC   PO448552  40.004  25.793   5.543
 3686POPC   GL148553  39.781  25.882   5.910
 3686POPC   GL248554  40.029  26.111   5.980
 3686POPC   C1A48555  39.687  25.966   6.373
 3686POPC   D2A48556  39.717  26.304   6.700
 3686POPC   C3A48557  39.755  26.145   7.127
 3686POPC   C4A48558  39.672  26.221   7.578
 3686POPC   C1B48559  40.212  25.897   6.282
 3686POPC   C2B48560  40.246  26.126   6.586
 3686POPC   C3B48561  40.182  25.968   6.920
 3686POPC   C4B48562  40.289  26.061   7.284
 3687POPC   NC348563  28.655  23.904   5.387
 3687POPC   PO448564  28.124  23.572   5.360
 3687POPC   GL148565  28.363  23.531   5.751
 3687POPC   GL248566  28.729  23.615   5.827
 3687POPC   C1A48567  28.373  23.505   6.192
 3687POPC   D2A48568  28.375  23.766   6.534
 3687POPC   C3A48569  28.402  23.533   6.905
 3687POPC   C4A48570  28.089  23.573   7.191
 3687POPC   C1B48571  28.657  23.961   6.118
 3687POPC   C2B48572  28.858  24.084   6.500
 3687POPC   C3B48573  28.684  23.987   6.882
 3687POPC   C4B48574  28.432  23.931   7.223
 3688POPC   NC348575  13.677  23.201   5.306
 3688POPC   PO448576  13.594  22.554   5.512
 3688POPC   GL148577  13.507  22.945   5.749
 3688POPC   GL248578  13.602  23.335   5.770
 3688POPC   C1A48579  13.452  22.853   6.167
 3688POPC   D2A48580  13.707  22.875   6.513
 3688POPC   C3A48581  13.513  22.819   6.897
 3688POPC   C4A48582  13.804  22.781   7.262
 3688POPC   C1B48583  13.332  23.354   6.114
 3688POPC   C2B48584  13.307  23.205   6.530
 3688POPC   C3B48585  13.437  23.319   6.926
 3688POPC   C4B48586  13.385  23.099   7.306
 3689POPC   NC348587  15.329  36.242   5.541
 3689POPC   PO448588  14.773  35.951   5.452
 3689POPC   GL148589  15.049  35.851   5.773
 3689POPC   GL248590  15.406  35.752   5.640
 3689POPC   C1A48591  15.008  36.101   6.136
 3689POPC   D2A48592  15.149  36.157   6.524
 3689POPC   C3A48593  14.947  36.299   6.885
 3689POPC   C4A48594  15.082  36.175   7.278
 3689POPC   C1B48595  15.487  35.890   6.077
 3689POPC   C2B48596  15.534  35.813   6.510
 3689POPC   C3B48597  15.428  36.005   6.922
 3689POPC   C4B48598  15.563  35.921   7.333
 3690POPC   NC348599  30.297  24.527   5.457
 3690POPC   PO448600  29.733  24.710   5.370
 3690POPC   GL148601  29.870  24.732   5.798
 3690POPC   GL248602  29.756  24.389   5.875
 3690POPC   C1A48603  29.975  24.672   6.255
 3690POPC   D2A48604  30.159  24.839   6.634
 3690POPC   C3A48605  30.111  24.559   6.945
 3690POPC   C4A48606  30.293  24.273   7.233
 3690POPC   C1B48607  29.455  24.234   6.204
 3690POPC   C2B48608  29.534  23.966   6.534
 3690POPC   C3B48609  29.824  24.125   6.818
 3690POPC   C4B48610  29.725  24.314   7.184
 3691POPC   NC348611  15.898  43.435   5.484
 3691POPC   PO448612  15.969  42.752   5.355
 3691POPC   GL148613  15.842  43.000   5.727
 3691POPC   GL248614  16.172  43.174   5.821
 3691POPC   C1A48615  15.794  43.280   6.133
 3691POPC   D2A48616  15.580  43.452   6.490
 3691POPC   C3A48617  15.649  43.384   6.938
 3691POPC   C4A48618  15.934  43.407   7.279
 3691POPC   C1B48619  16.287  43.400   6.190
 3691POPC   C2B48620  16.110  43.425   6.600
 3691POPC   C3B48621  16.322  43.301   6.970
 3691POPC   C4B48622  16.238  43.021   7.289
 3692POPC   NC348623  32.782  19.504   5.685
 3692POPC   PO448624  32.355  19.919   5.491
 3692POPC   GL148625  32.269  19.732   5.822
 3692POPC   GL248626  32.513  19.865   5.990
 3692POPC   C1A48627  32.026  19.706   6.189
 3692POPC   D2A48628  32.176  19.862   6.576
 3692POPC   C3A48629  31.947  19.748   6.910
 3692POPC   C4A48630  32.107  19.964   7.232
 3692POPC   C1B48631  32.513  19.584   6.292
 3692POPC   C2B48632  32.622  19.514   6.685
 3692POPC   C3B48633  32.507  19.701   7.035
 3692POPC   C4B48634  32.445  19.647   7.478
 3693POPC   NC348635   1.566  33.659   5.477
 3693POPC   PO448636   1.212  34.235   5.344
 3693POPC   GL148637   1.243  33.994   5.757
 3693POPC   GL248638   0.902  33.845   5.915
 3693POPC   C1A48639   1.305  33.907   6.202
 3693POPC   D2A48640   1.030  33.877   6.573
 3693POPC   C3A48641   1.280  33.847   6.964
 3693POPC   C4A48642   1.477  33.512   7.203
 3693POPC   C1B48643   1.043  33.464   6.143
 3693POPC   C2B48644   0.948  33.310   6.548
 3693POPC   C3B48645   0.865  33.523   6.932
 3693POPC   C4B48646   0.989  33.430   7.340
 3694POPC   NC348647  22.438  30.669   5.351
 3694POPC   PO448648  21.846  30.746   5.534
 3694POPC   GL148649  21.979  30.872   5.888
 3694POPC   GL248650  22.294  30.961   5.781
 3694POPC   C1A48651  21.852  30.908   6.292
 3694POPC   D2A48652  22.176  30.749   6.523
 3694POPC   C3A48653  22.109  30.734   6.936
 3694POPC   C4A48654  21.898  30.588   7.243
 3694POPC   C1B48655  22.399  30.593   6.058
 3694POPC   C2B48656  22.581  30.453   6.481
 3694POPC   C3B48657  22.441  30.366   6.902
 3694POPC   C4B48658  22.419  30.539   7.341
 3695POPC   NC348659  14.594  17.664   5.222
 3695POPC   PO448660  14.094  17.303   5.464
 3695POPC   GL148661  14.019  17.436   5.866
 3695POPC   GL248662  14.078  17.797   5.930
 3695POPC   C1A48663  14.071  17.176   6.240
 3695POPC   D2A48664  14.235  17.235   6.663
 3695POPC   C3A48665  14.130  17.196   7.101
 3695POPC   C4A48666  14.346  17.355   7.451
 3695POPC   C1B48667  14.337  17.718   6.305
 3695POPC   C2B48668  14.303  17.756   6.778
 3695POPC   C3B48669  14.546  17.747   7.177
 3695POPC   C4B48670  14.568  17.785   7.633
 3696POPC   NC348671  23.213  41.793   5.371
 3696POPC   PO448672  22.746  41.359   5.405
 3696POPC   GL148673  22.947  41.569   5.739
 3696POPC   GL248674  23.150  41.259   5.724
 3696POPC   C1A48675  22.924  41.746   6.171
 3696POPC   D2A48676  23.066  41.569   6.564
 3696POPC   C3A48677  23.057  41.733   6.977
 3696POPC   C4A48678  23.078  41.680   7.430
 3696POPC   C1B48679  22.917  41.243   6.122
 3696POPC   C2B48680  23.021  41.054   6.487
 3696POPC   C3B48681  23.185  41.106   6.876
 3696POPC   C4B48682  22.996  41.189   7.259
 3697POPC   NC348683   8.940  43.609   5.318
 3697POPC   PO448684   8.811  44.258   5.448
 3697POPC   GL148685   8.788  43.970   5.841
 3697POPC   GL248686   8.445  43.850   5.936
 3697POPC   C1A48687   9.053  43.911   6.239
 3697POPC   D2A48688   9.319  44.071   6.591
 3697POPC   C3A48689   9.238  44.017   7.045
 3697POPC   C4A48690   9.143  43.646   7.260
 3697POPC   C1B48691   8.564  43.804   6.384
 3697POPC   C2B48692   8.854  43.827   6.737
 3697POPC   C3B48693   8.739  43.914   7.164
 3697POPC   C4B48694   8.492  43.821   7.524
 3698POPC   NC348695  10.427  24.841   5.340
 3698POPC   PO448696  10.728  24.306   5.294
 3698POPC   GL148697  10.693  24.241   5.789
 3698POPC   GL248698  10.389  24.115   5.844
 3698POPC   C1A48699  10.851  24.332   6.229
 3698POPC   D2A48700  10.663  24.683   6.508
 3698POPC   C3A48701  10.529  24.593   6.905
 3698POPC   C4A48702  10.753  24.298   7.130
 3698POPC   C1B48703  10.347  24.301   6.270
 3698POPC   C2B48704  10.466  24.148   6.673
 3698POPC   C3B48705  10.266  24.152   7.082
 3698POPC   C4B48706  10.392  24.187   7.528
 3699POPC   NC348707  34.308  19.259   5.495
 3699POPC   PO448708  33.792  18.850   5.248
 3699POPC   GL148709  33.681  19.118   5.634
 3699POPC   GL248710  33.914  19.360   5.803
 3699POPC   C1A48711  33.668  19.048   6.113
 3699POPC   D2A48712  33.823  19.193   6.523
 3699POPC   C3A48713  33.568  19.224   6.903
 3699POPC   C4A48714  33.630  19.016   7.301
 3699POPC   C1B48715  34.204  19.226   6.158
 3699POPC   C2B48716  34.298  19.367   6.585
 3699POPC   C3B48717  34.107  19.206   6.973
 3699POPC   C4B48718  33.873  19.453   7.264
 3700POPC   NC348719   5.777  40.857   5.259
 3700POPC   PO448720   6.438  40.943   5.437
 3700POPC   GL148721   6.042  40.828   5.693
 3700POPC   GL248722   5.770  41.116   5.696
 3700POPC   C1A48723   5.743  40.678   6.046
 3700POPC   D2A48724   5.911  40.535   6.473
 3700POPC   C3A48725   5.867  40.702   6.883
 3700POPC   C4A48726   5.860  40.566   7.311
 3700POPC   C1B48727   5.943  41.126   6.106
 3700POPC   C2B48728   6.071  41.049   6.530
 3700POPC   C3B48729   5.925  41.211   6.881
 3700POPC   C4B48730   5.889  41.056   7.288
 3701POPC   NC348731  26.104  23.878   5.650
 3701POPC   PO448732  25.715  23.285   5.504
 3701POPC   GL148733  25.819  23.527   5.896
 3701POPC   GL248734  26.180  23.573   6.046
 3701POPC   C1A48735  25.799  23.684   6.330
 3701POPC   D2A48736  26.116  23.673   6.649
 3701POPC   C3A48737  25.883  23.638   7.005
 3701POPC   C4A48738  25.730  23.614   7.390
 3701POPC   C1B48739  26.191  24.031   6.272
 3701POPC   C2B48740  26.360  24.144   6.688
 3701POPC   C3B48741  26.211  24.007   7.111
 3701POPC   C4B48742  26.443  23.943   7.488
 3702POPC   NC348743  27.532  16.121   5.375
 3702POPC   PO448744  27.268  15.444   5.333
 3702POPC   GL148745  27.460  15.633   5.701
 3702POPC   GL248746  27.131  15.567   5.843
 3702POPC   C1A48747  27.690  15.928   6.002
 3702POPC   D2A48748  27.563  16.186   6.362
 3702POPC   C3A48749  27.703  16.110   6.784
 3702POPC   C4A48750  27.451  16.175   7.154
 3702POPC   C1B48751  27.294  15.726   6.215
 3702POPC   C2B48752  27.517  15.679   6.578
 3702POPC   C3B48753  27.668  15.644   6.975
 3702POPC   C4B48754  27.389  15.687   7.272
 3703POPC   NC348755  24.452  17.958   5.178
 3703POPC   PO448756  24.318  17.328   5.320
 3703POPC   GL148757  24.562  17.530   5.682
 3703POPC   GL248758  24.302  17.745   5.725
 3703POPC   C1A48759  24.695  17.582   6.158
 3703POPC   D2A48760  24.807  17.329   6.584
 3703POPC   C3A48761  24.828  17.549   7.018
 3703POPC   C4A48762  24.534  17.557   7.399
 3703POPC   C1B48763  24.171  17.525   6.101
 3703POPC   C2B48764  24.308  17.600   6.527
 3703POPC   C3B48765  24.310  17.745   6.958
 3703POPC   C4B48766  24.067  17.726   7.330
 3704POPC   NC348767  21.948  35.809   5.467
 3704POPC   PO448768  22.385  35.319   5.282
 3704POPC   GL148769  22.246  35.265   5.764
 3704POPC   GL248770  21.983  34.964   5.813
 3704POPC   C1A48771  22.280  35.413   6.221
 3704POPC   D2A48772  22.323  35.628   6.654
 3704POPC   C3A48773  21.992  35.541   6.970
 3704POPC   C4A48774  22.104  35.433   7.400
 3704POPC   C1B48775  22.147  34.881   6.243
 3704POPC   C2B48776  22.133  35.124   6.648
 3704POPC   C3B48777  22.401  35.237   6.995
 3704POPC   C4B48778  22.388  35.002   7.361
 3705POPC   NC348779  19.444  12.764   5.030
 3705POPC   PO448780  19.926  13.036   5.429
 3705POPC   GL148781  19.833  12.888   5.803
 3705POPC   GL248782  19.989  12.585   5.777
 3705POPC   C1A48783  19.759  12.712   6.211
 3705POPC   D2A48784  19.864  12.757   6.600
 3705POPC   C3A48785  19.695  12.721   6.967
 3705POPC   C4A48786  19.781  12.873   7.359
 3705POPC   C1B48787  20.261  12.727   6.118
 3705POPC   C2B48788  20.356  12.757   6.547
 3705POPC   C3B48789  20.226  12.540   6.914
 3705POPC   C4B48790  20.192  12.578   7.321
 3706POPC   NC348791  24.697  20.235   5.595
 3706POPC   PO448792  24.436  19.597   5.407
 3706POPC   GL148793  24.643  19.700   5.796
 3706POPC   GL248794  25.037  19.624   5.807
 3706POPC   C1A48795  24.421  19.906   6.171
 3706POPC   D2A48796  24.181  19.888   6.577
 3706POPC   C3A48797  24.325  19.627   6.952
 3706POPC   C4A48798  24.289  19.914   7.286
 3706POPC   C1B48799  24.918  19.730   6.225
 3706POPC   C2B48800  24.685  19.725   6.584
 3706POPC   C3B48801  24.616  20.034   6.877
 3706POPC   C4B48802  24.790  19.861   7.233
 3707POPC   NC348803  17.979  33.994   5.504
 3707POPC   PO448804  18.445  33.472   5.435
 3707POPC   GL148805  18.231  33.644   5.813
 3707POPC   GL248806  18.383  33.992   5.843
 3707POPC   C1A48807  18.346  33.724   6.265
 3707POPC   D2A48808  18.551  33.886   6.630
 3707POPC   C3A48809  18.553  33.627   6.974
 3707POPC   C4A48810  18.192  33.455   7.190
 3707POPC   C1B48811  17.996  34.101   6.156
 3707POPC   C2B48812  17.804  34.120   6.606
 3707POPC   C3B48813  18.092  33.887   6.905
 3707POPC   C4B48814  18.297  33.934   7.331
 3708POPC   NC348815   1.857  30.313   5.562
 3708POPC   PO448816   2.365  29.939   5.369
 3708POPC   GL148817   2.119  29.887   5.764
 3708POPC   GL248818   2.398  30.016   5.938
 3708POPC   C1A48819   1.855  29.949   6.179
 3708POPC   D2A48820   1.779  30.116   6.641
 3708POPC   C3A48821   1.765  29.886   7.067
 3708POPC   C4A48822   1.825  29.944   7.534
 3708POPC   C1B48823   2.275  29.647   6.217
 3708POPC   C2B48824   2.340  29.489   6.643
 3708POPC   C3B48825   2.259  29.812   6.990
 3708POPC   C4B48826   2.362  29.839   7.428
 3709POPC   NC348827  12.840  11.473   5.344
 3709POPC   PO448828  12.893  10.778   5.506
 3709POPC   GL148829  12.875  11.017   5.899
 3709POPC   GL248830  13.036  11.068   6.237
 3709POPC   C1A48831  12.713  11.404   6.071
 3709POPC   D2A48832  12.629  11.555   6.489
 3709POPC   C3A48833  12.866  11.376   6.809
 3709POPC   C4A48834  12.740  11.456   7.244
 3709POPC   C1B48835  13.130  11.499   6.349
 3709POPC   C2B48836  13.224  11.768   6.698
 3709POPC   C3B48837  13.218  11.578   7.121
 3709POPC   C4B48838  13.178  11.247   7.457
 3710POPC   NC348839  19.467   1.715   5.358
 3710POPC   PO448840  19.891   2.249   5.371
 3710POPC   GL148841  19.970   1.887   5.649
 3710POPC   GL248842  19.670   1.840   5.818
 3710POPC   C1A48843  20.107   1.710   6.071
 3710POPC   D2A48844  19.939   1.653   6.493
 3710POPC   C3A48845  20.068   1.799   6.889
 3710POPC   C4A48846  19.820   2.075   7.153
 3710POPC   C1B48847  19.548   1.603   6.172
 3710POPC   C2B48848  19.447   1.817   6.574
 3710POPC   C3B48849  19.496   1.701   6.997
 3710POPC   C4B48850  19.844   1.594   7.293
 3711POPC   NC348851  24.890   7.329   5.297
 3711POPC   PO448852  24.222   7.456   5.329
 3711POPC   GL148853  24.476   7.285   5.710
 3711POPC   GL248854  24.639   7.550   5.896
 3711POPC   C1A48855  24.400   7.053   6.102
 3711POPC   D2A48856  24.523   7.136   6.542
 3711POPC   C3A48857  24.274   7.129   6.923
 3711POPC   C4A48858  24.597   7.213   7.184
 3711POPC   C1B48859  24.570   7.617   6.358
 3711POPC   C2B48860  24.536   7.588   6.823
 3711POPC   C3B48861  24.564   7.798   7.229
 3711POPC   C4B48862  24.382   7.961   7.621
 3712POPC   NC348863  36.262  11.624   5.452
 3712POPC   PO448864  35.921  12.156   5.523
 3712POPC   GL148865  36.157  12.103   5.846
 3712POPC   GL248866  36.479  12.005   5.754
 3712POPC   C1A48867  36.036  12.034   6.255
 3712POPC   D2A48868  36.187  12.234   6.607
 3712POPC   C3A48869  35.960  12.242   6.974
 3712POPC   C4A48870  36.219  12.283   7.257
 3712POPC   C1B48871  36.534  12.213   6.172
 3712POPC   C2B48872  36.673  12.066   6.566
 3712POPC   C3B48873  36.515  11.978   6.964
 3712POPC   C4B48874  36.525  11.903   7.388
 3713POPC   NC348875  41.884   9.834   5.358
 3713POPC   PO448876  42.571   9.730   5.189
 3713POPC   GL148877  42.375   9.856   5.620
 3713POPC   GL248878  42.114   9.634   5.778
 3713POPC   C1A48879  42.482   9.793   6.093
 3713POPC   D2A48880  42.501   9.619   6.535
 3713POPC   C3A48881  42.395   9.828   6.952
 3713POPC   C4A48882  42.099  10.012   7.268
 3713POPC   C1B48883  41.887   9.555   6.170
 3713POPC   C2B48884  41.742   9.542   6.608
 3713POPC   C3B48885  41.942   9.556   7.013
 3713POPC   C4B48886  41.862   9.604   7.446
 3714POPC   NC348887   9.374   8.415   5.098
 3714POPC   PO448888   9.679   7.964   5.507
 3714POPC   GL148889   9.794   8.100   5.898
 3714POPC   GL248890   9.986   8.413   5.803
 3714POPC   C1A48891   9.599   8.037   6.315
 3714POPC   D2A48892   9.470   7.763   6.662
 3714POPC   C3A48893   9.525   7.960   7.078
 3714POPC   C4A48894   9.731   7.808   7.474
 3714POPC   C1B48895  10.040   8.359   6.256
 3714POPC   C2B48896   9.925   8.515   6.630
 3714POPC   C3B48897   9.871   8.725   6.977
 3714POPC   C4B48898   9.689   8.488   7.316
 3715POPC   NC348899  38.024   9.173   5.417
 3715POPC   PO448900  37.723   8.598   5.423
 3715POPC   GL148901  37.806   8.808   5.785
 3715POPC   GL248902  37.518   9.007   5.746
 3715POPC   C1A48903  37.922   8.915   6.228
 3715POPC   D2A48904  37.931   8.733   6.638
 3715POPC   C3A48905  37.848   8.985   6.951
 3715POPC   C4A48906  37.730   8.871   7.306
 3715POPC   C1B48907  37.407   8.878   6.164
 3715POPC   C2B48908  37.502   9.014   6.567
 3715POPC   C3B48909  37.339   9.115   6.934
 3715POPC   C4B48910  37.217   8.861   7.245
 3716POPC   NC348911  30.877   4.021   5.477
 3716POPC   PO448912  31.480   3.642   5.342
 3716POPC   GL148913  31.345   3.535   5.781
 3716POPC   GL248914  31.667   3.403   5.761
 3716POPC   C1A48915  31.393   3.307   6.219
 3716POPC   D2A48916  31.460   3.227   6.688
 3716POPC   C3A48917  31.452   3.579   7.014
 3716POPC   C4A48918  31.297   3.805   7.384
 3716POPC   C1B48919  31.736   3.694   6.108
 3716POPC   C2B48920  31.640   3.686   6.536
 3716POPC   C3B48921  31.935   3.654   6.874
 3716POPC   C4B48922  31.923   3.891   7.232
 3717POPC   NC348923  13.891  12.411   5.176
 3717POPC   PO448924  13.442  12.128   5.553
 3717POPC   GL148925  13.601  12.155   5.930
 3717POPC   GL248926  13.908  12.266   5.732
 3717POPC   C1A48927  13.505  12.193   6.388
 3717POPC   D2A48928  13.644  12.079   6.810
 3717POPC   C3A48929  13.312  12.074   7.138
 3717POPC   C4A48930  13.423  12.082   7.606
 3717POPC   C1B48931  14.042  12.287   6.152
 3717POPC   C2B48932  14.140  12.197   6.591
 3717POPC   C3B48933  14.126  12.327   7.026
 3717POPC   C4B48934  13.794  12.239   7.286
 3718POPC   NC348935  34.831  12.226   5.438
 3718POPC   PO448936  34.200  11.983   5.376
 3718POPC   GL148937  34.445  12.031   5.762
 3718POPC   GL248938  34.761  11.820   5.768
 3718POPC   C1A48939  34.385  12.193   6.194
 3718POPC   D2A48940  34.364  12.379   6.616
 3718POPC   C3A48941  34.739  12.369   6.830
 3718POPC   C4A48942  34.942  12.220   7.177
 3718POPC   C1B48943  34.710  11.719   6.209
 3718POPC   C2B48944  34.516  11.875   6.604
 3718POPC   C3B48945  34.577  11.890   7.044
 3718POPC   C4B48946  34.943  11.699   7.246
 3719POPC   NC348947  40.890   8.690   5.202
 3719POPC   PO448948  40.797   9.387   5.280
 3719POPC   GL148949  40.865   9.049   5.630
 3719POPC   GL248950  40.741   8.680   5.729
 3719POPC   C1A48951  40.876   9.036   6.090
 3719POPC   D2A48952  41.127   9.208   6.461
 3719POPC   C3A48953  40.896   9.318   6.847
 3719POPC   C4A48954  40.818   9.016   7.182
 3719POPC   C1B48955  40.480   8.624   6.154
 3719POPC   C2B48956  40.321   8.705   6.624
 3719POPC   C3B48957  40.497   8.628   7.065
 3719POPC   C4B48958  40.866   8.530   7.355
 3720POPC   NC348959  20.074   6.717   5.442
 3720POPC   PO448960  19.810   6.319   5.000
 3720POPC   GL148961  19.823   6.326   5.606
 3720POPC   GL248962  19.742   6.678   5.797
 3720POPC   C1A48963  19.736   6.321   6.134
 3720POPC   D2A48964  19.592   6.174   6.590
 3720POPC   C3A48965  19.749   6.396   6.983
 3720POPC   C4A48966  19.678   6.697   7.361
 3720POPC   C1B48967  19.996   6.781   6.203
 3720POPC   C2B48968  20.059   6.872   6.687
 3720POPC   C3B48969  20.122   6.804   7.149
 3720POPC   C4B48970  20.268   6.787   7.604
 3721POPC   NC348971  16.573  12.657   5.345
 3721POPC   PO448972  16.479  13.160   5.625
 3721POPC   GL148973  16.673  12.817   5.823
 3721POPC   GL248974  17.007  12.696   5.838
 3721POPC   C1A48975  16.528  12.679   6.191
 3721POPC   D2A48976  16.511  12.939   6.556
 3721POPC   C3A48977  16.554  12.741   6.935
 3721POPC   C4A48978  16.357  12.889   7.289
 3721POPC   C1B48979  16.979  12.967   6.236
 3721POPC   C2B48980  17.009  12.874   6.701
 3721POPC   C3B48981  17.048  12.703   7.140
 3721POPC   C4B48982  17.173  12.611   7.580
 3722POPC   NC348983   5.692  42.345   5.680
 3722POPC   PO448984   6.098  42.773   5.383
 3722POPC   GL148985   6.212  42.492   5.757
 3722POPC   GL248986   6.103  42.095   5.793
 3722POPC   C1A48987   6.062  42.457   6.193
 3722POPC   D2A48988   5.659  42.338   6.395
 3722POPC   C3A48989   5.646  42.442   6.846
 3722POPC   C4A48990   5.808  42.275   7.262
 3722POPC   C1B48991   6.210  41.955   6.175
 3722POPC   C2B48992   5.997  41.879   6.559
 3722POPC   C3B48993   6.039  41.873   7.009
 3722POPC   C4B48994   6.031  41.785   7.440
 3723POPC   NC348995  22.509  33.255   5.168
 3723POPC   PO448996  22.063  32.851   5.351
 3723POPC   GL148997  22.111  32.975   5.784
 3723POPC   GL248998  22.404  32.783   5.917
 3723POPC   C1A48999  21.840  33.151   6.125
 3723POPC   D2A49000  21.948  33.362   6.523
 3723POPC   C3A49001  21.938  33.157   6.927
 3723POPC   C4A49002  21.747  32.778   7.084
 3723POPC   C1B49003  22.511  33.068   6.296
 3723POPC   C2B49004  22.452  33.167   6.734
 3723POPC   C3B49005  22.439  33.048   7.126
 3723POPC   C4B49006  22.226  32.694   7.231
 3724POPC   NC349007  36.380  23.749   5.041
 3724POPC   PO449008  36.443  23.936   5.666
 3724POPC   GL149009  36.148  23.569   5.722
 3724POPC   GL249010  35.793  23.561   5.625
 3724POPC   C1A49011  36.074  23.414   6.150
 3724POPC   D2A49012  36.381  23.525   6.468
 3724POPC   C3A49013  36.316  23.492   6.879
 3724POPC   C4A49014  36.476  23.723   7.209
 3724POPC   C1B49015  35.844  23.901   5.965
 3724POPC   C2B49016  35.973  23.894   6.383
 3724POPC   C3B49017  35.914  23.787   6.800
 3724POPC   C4B49018  36.010  23.956   7.175
 3725POPC   NC349019  15.338  23.314   5.389
 3725POPC   PO449020  14.999  22.657   5.377
 3725POPC   GL149021  15.198  22.913   5.692
 3725POPC   GL249022  14.910  23.088   5.816
 3725POPC   C1A49023  15.396  23.075   6.077
 3725POPC   D2A49024  15.471  22.871   6.484
 3725POPC   C3A49025  15.175  23.009   6.798
 3725POPC   C4A49026  15.280  23.026   7.206
 3725POPC   C1B49027  14.707  22.743   6.079
 3725POPC   C2B49028  14.743  22.600   6.516
 3725POPC   C3B49029  14.939  22.569   6.900
 3725POPC   C4B49030  14.853  22.765   7.253
 3726POPC   NC349031  38.516  36.898   5.390
 3726POPC   PO449032  38.148  37.371   5.479
 3726POPC   GL149033  38.342  37.252   5.855
 3726POPC   GL249034  38.678  37.129   5.819
 3726POPC   C1A49035  38.394  36.863   6.123
 3726POPC   D2A49036  38.345  36.777   6.557
 3726POPC   C3A49037  38.111  36.761   6.927
 3726POPC   C4A49038  38.495  36.636   7.158
 3726POPC   C1B49039  38.655  37.266   6.269
 3726POPC   C2B49040  38.347  37.284   6.583
 3726POPC   C3B49041  38.474  37.109   6.968
 3726POPC   C4B49042  38.641  37.054   7.388
 3727POPC   NC349043  44.551  10.026   5.487
 3727POPC   PO449044   0.185   9.791   5.523
 3727POPC   GL149045  44.890   9.815   5.815
 3727POPC   GL249046  44.725   9.523   5.688
 3727POPC   C1A49047  44.711  10.090   6.137
 3727POPC   D2A49048  44.386  10.032   6.453
 3727POPC   C3A49049  44.583   9.841   6.826
 3727POPC   C4A49050  44.650   9.803   7.259
 3727POPC   C1B49051  44.475   9.627   6.068
 3727POPC   C2B49052  44.379   9.513   6.484
 3727POPC   C3B49053  44.239   9.451   6.899
 3727POPC   C4B49054  44.372   9.319   7.305
 3728POPC   NC349055  27.742  30.898   5.376
 3728POPC   PO449056  27.153  30.441   5.340
 3728POPC   GL149057  27.482  30.503   5.675
 3728POPC   GL249058  27.581  30.813   5.837
 3728POPC   C1A49059  27.536  30.399   6.141
 3728POPC   D2A49060  27.333  30.426   6.560
 3728POPC   C3A49061  27.578  30.386   6.930
 3728POPC   C4A49062  27.647  30.186   7.314
 3728POPC   C1B49063  27.879  30.853   6.153
 3728POPC   C2B49064  27.860  30.983   6.572
 3728POPC   C3B49065  27.947  30.768   6.920
 3728POPC   C4B49066  27.909  30.616   7.291
 3729POPC   NC349067  23.615  39.183   5.287
 3729POPC   PO449068  24.174  39.518   5.493
 3729POPC   GL149069  23.882  39.294   5.781
 3729POPC   GL249070  23.470  39.228   5.766
 3729POPC   C1A49071  24.011  39.138   6.174
 3729POPC   D2A49072  24.136  39.043   6.558
 3729POPC   C3A49073  24.051  39.345   6.856
 3729POPC   C4A49074  23.862  39.217   7.233
 3729POPC   C1B49075  23.523  39.040   6.165
 3729POPC   C2B49076  23.632  39.124   6.597
 3729POPC   C3B49077  23.411  39.118   6.988
 3729POPC   C4B49078  23.277  39.418   7.291
 3730POPC   NC349079  35.974  20.940   5.395
 3730POPC   PO449080  36.113  20.327   5.442
 3730POPC   GL149081  36.246  20.548   5.786
 3730POPC   GL249082  36.231  20.898   5.835
 3730POPC   C1A49083  36.107  20.506   6.196
 3730POPC   D2A49084  36.133  20.241   6.541
 3730POPC   C3A49085  36.055  20.484   6.899
 3730POPC   C4A49086  36.022  20.865   7.163
 3730POPC   C1B49087  36.424  20.949   6.237
 3730POPC   C2B49088  36.401  20.811   6.671
 3730POPC   C3B49089  36.478  21.022   7.055
 3730POPC   C4B49090  36.469  21.061   7.514
 3731POPC   NC349091  27.063  18.704   5.571
 3731POPC   PO449092  26.714  18.280   5.239
 3731POPC   GL149093  26.690  18.186   5.690
 3731POPC   GL249094  26.388  18.359   5.826
 3731POPC   C1A49095  26.811  18.175   6.122
 3731POPC   D2A49096  26.706  18.033   6.541
 3731POPC   C3A49097  26.880  18.148   6.955
 3731POPC   C4A49098  26.687  18.079   7.394
 3731POPC   C1B49099  26.564  18.637   6.105
 3731POPC   C2B49100  26.769  18.549   6.506
 3731POPC   C3B49101  26.571  18.539   6.887
 3731POPC   C4B49102  26.476  18.554   7.293
 3732POPC   NC349103  33.600  34.597   5.500
 3732POPC   PO449104  34.202  34.541   5.818
 3732POPC   GL149105  33.799  34.477   5.970
 3732POPC   GL249106  33.634  34.811   5.966
 3732POPC   C1A49107  33.906  34.278   6.360
 3732POPC   D2A49108  34.276  34.421   6.552
 3732POPC   C3A49109  34.130  34.376   6.952
 3732POPC   C4A49110  33.977  34.562   7.270
 3732POPC   C1B49111  33.508  34.602   6.358
 3732POPC   C2B49112  33.673  34.603   6.780
 3732POPC   C3B49113  33.475  34.667   7.155
 3732POPC   C4B49114  33.385  34.622   7.584
 3733POPC   NC349115  40.355  15.231   5.672
 3733POPC   PO449116  40.899  15.416   5.329
 3733POPC   GL149117  40.877  15.216   5.725
 3733POPC   GL249118  40.750  15.507   5.905
 3733POPC   C1A49119  40.865  15.083   6.181
 3733POPC   D2A49120  41.064  15.194   6.586
 3733POPC   C3A49121  40.989  15.249   7.034
 3733POPC   C4A49122  40.895  14.955   7.402
 3733POPC   C1B49123  40.547  15.479   6.332
 3733POPC   C2B49124  40.536  15.405   6.792
 3733POPC   C3B49125  40.524  15.035   7.073
 3733POPC   C4B49126  40.407  15.005   7.518
 3734POPC   NC349127  28.256  40.921   5.431
 3734POPC   PO449128  28.647  40.395   5.495
 3734POPC   GL149129  28.487  40.676   5.847
 3734POPC   GL249130  28.187  40.840   5.918
 3734POPC   C1A49131  28.542  40.856   6.281
 3734POPC   D2A49132  28.760  40.756   6.650
 3734POPC   C3A49133  28.513  40.600   6.977
 3734POPC   C4A49134  28.300  40.939   7.160
 3734POPC   C1B49135  28.114  40.534   6.259
 3734POPC   C2B49136  28.122  40.718   6.660
 3734POPC   C3B49137  27.920  40.631   7.056
 3734POPC   C4B49138  28.169  40.505   7.387
 3735POPC   NC349139  33.218   0.767   5.395
 3735POPC   PO449140  33.457   0.137   5.370
 3735POPC   GL149141  33.233   0.315   5.812
 3735POPC   GL249142  33.012   0.575   5.840
 3735POPC   C1A49143  33.068   0.274   6.268
 3735POPC   D2A49144  32.688   0.136   6.512
 3735POPC   C3A49145  32.716   0.105   6.944
 3735POPC   C4A49146  33.111   0.232   7.147
 3735POPC   C1B49147  33.210   0.775   6.241
 3735POPC   C2B49148  33.323   0.620   6.661
 3735POPC   C3B49149  33.349   0.695   7.108
 3735POPC   C4B49150  33.012   0.718   7.401
 3736POPC   NC349151  40.977  11.757   5.213
 3736POPC   PO449152  40.617  12.282   5.446
 3736POPC   GL149153  40.780  11.943   5.729
 3736POPC   GL249154  40.483  11.898   5.957
 3736POPC   C1A49155  40.951  11.888   6.177
 3736POPC   D2A49156  40.947  12.181   6.560
 3736POPC   C3A49157  40.952  11.996   6.980
 3736POPC   C4A49158  40.670  11.820   7.255
 3736POPC   C1B49159  40.665  12.284   6.101
 3736POPC   C2B49160  40.620  12.647   6.368
 3736POPC   C3B49161  40.630  12.560   6.796
 3736POPC   C4B49162  40.868  12.469   7.162
 3737POPC   NC349163  44.790  26.008   5.246
 3737POPC   PO449164  44.202  26.167   5.515
 3737POPC   GL149165  44.609  26.141   5.724
 3737POPC   GL249166  44.826  25.855   5.747
 3737POPC   C1A49167  44.719  26.175   6.156
 3737POPC   D2A49168  44.564  26.384   6.476
 3737POPC   C3A49169  44.523  26.247   6.879
 3737POPC   C4A49170  44.657  26.281   7.282
 3737POPC   C1B49171   0.013  25.764   6.158
 3737POPC   C2B49172   0.081  25.995   6.541
 3737POPC   C3B49173  44.929  25.918   6.940
 3737POPC   C4B49174   0.050  25.576   7.163
 3738POPC   NC349175  27.861  10.179   5.482
 3738POPC   PO449176  27.987   9.596   5.320
 3738POPC   GL149177  27.764   9.693   5.703
 3738POPC   GL249178  27.483   9.924   5.739
 3738POPC   C1A49179  27.791   9.825   6.139
 3738POPC   D2A49180  27.829  10.033   6.501
 3738POPC   C3A49181  27.825   9.816   6.885
 3738POPC   C4A49182  27.758  10.128   7.196
 3738POPC   C1B49183  27.299   9.732   6.157
 3738POPC   C2B49184  27.393   9.631   6.617
 3738POPC   C3B49185  27.339   9.810   7.080
 3738POPC   C4B49186  26.980   9.846   7.420
 3739POPC   NC349187  14.499  11.093   5.500
 3739POPC   PO449188  13.885  11.349   5.759
 3739POPC   GL149189  14.233  11.309   5.952
 3739POPC   GL249190  14.367  10.982   5.970
 3739POPC   C1A49191  14.351  11.293   6.370
 3739POPC   D2A49192  14.521  11.085   6.714
 3739POPC   C3A49193  14.563  11.399   7.023
 3739POPC   C4A49194  14.448  11.407   7.466
 3739POPC   C1B49195  14.009  10.910   6.247
 3739POPC   C2B49196  13.947  10.977   6.690
 3739POPC   C3B49197  14.116  11.154   7.067
 3739POPC   C4B49198  14.149  10.956   7.470
 3740POPC   NC349199  37.437  13.492   5.657
 3740POPC   PO449200  37.546  12.886   5.390
 3740POPC   GL149201  37.518  13.001   5.806
 3740POPC   GL249202  37.829  12.831   5.900
 3740POPC   C1A49203  37.396  12.878   6.226
 3740POPC   D2A49204  37.549  12.602   6.571
 3740POPC   C3A49205  37.342  12.700   6.965
 3740POPC   C4A49206  37.420  12.817   7.406
 3740POPC   C1B49207  37.890  12.956   6.344
 3740POPC   C2B49208  37.658  13.094   6.717
 3740POPC   C3B49209  37.804  12.924   7.099
 3740POPC   C4B49210  37.993  12.758   7.467
 3741POPC   NC349211  38.084  21.187   5.558
 3741POPC   PO449212  38.454  21.710   5.396
 3741POPC   GL149213  38.609  21.657   5.767
 3741POPC   GL249214  38.536  21.323   5.744
 3741POPC   C1A49215  38.335  21.658   6.126
 3741POPC   D2A49216  38.082  21.807   6.460
 3741POPC   C3A49217  38.284  21.845   6.851
 3741POPC   C4A49218  38.270  21.601   7.220
 3741POPC   C1B49219  38.426  21.174   6.156
 3741POPC   C2B49220  38.380  21.362   6.562
 3741POPC   C3B49221  38.525  21.247   6.969
 3741POPC   C4B49222  38.243  20.932   7.138
 3742POPC   NC349223  39.274  36.490   5.676
 3742POPC   PO449224  39.002  35.872   5.405
 3742POPC   GL149225  38.976  36.074   5.779
 3742POPC   GL249226  39.312  36.016   5.868
 3742POPC   C1A49227  38.892  36.201   6.185
 3742POPC   D2A49228  39.056  36.121   6.594
 3742POPC   C3A49229  38.969  36.316   6.956
 3742POPC   C4A49230  38.970  36.056   7.330
 3742POPC   C1B49231  39.419  36.242   6.279
 3742POPC   C2B49232  39.498  36.346   6.754
 3742POPC   C3B49233  39.390  36.341   7.226
 3742POPC   C4B49234  39.376  36.175   7.678
 3743POPC   NC349235  44.258  34.806   5.342
 3743POPC   PO449236  43.809  34.389   5.415
 3743POPC   GL149237  43.935  34.401   5.876
 3743POPC   GL249238  44.224  34.618   5.830
 3743POPC   C1A49239  44.152  34.143   6.212
 3743POPC   D2A49240  44.141  34.084   6.657
 3743POPC   C3A49241  43.892  34.391   6.849
 3743POPC   C4A49242  43.559  34.393   7.146
 3743POPC   C1B49243  44.363  34.610   6.268
 3743POPC   C2B49244  44.549  34.530   6.683
 3743POPC   C3B49245  44.390  34.444   7.056
 3743POPC   C4B49246  44.104  34.641   7.278
 3744POPC   NC349247  44.275   6.095   5.434
 3744POPC   PO449248  44.833   5.782   5.193
 3744POPC   GL149249  44.662   5.742   5.641
 3744POPC   GL249250  44.650   6.066   5.784
 3744POPC   C1A49251  44.442   5.715   6.085
 3744POPC   D2A49252  44.428   5.898   6.513
 3744POPC   C3A49253  44.495   5.612   6.880
 3744POPC   C4A49254  44.393   5.678   7.326
 3744POPC   C1B49255  44.759   6.155   6.218
 3744POPC   C2B49256  44.767   6.330   6.608
 3744POPC   C3B49257  44.665   6.093   6.951
 3744POPC   C4B49258  44.821   6.027   7.347
 3745POPC   NC349259   8.584   9.853   5.193
 3745POPC   PO449260   9.189   9.562   5.389
 3745POPC   GL149261   9.003   9.718   5.742
 3745POPC   GL249262   8.807   9.422   5.753
 3745POPC   C1A49263   8.983   9.932   6.141
 3745POPC   D2A49264   8.822   9.846   6.544
 3745POPC   C3A49265   9.105   9.960   6.863
 3745POPC   C4A49266   8.999   9.924   7.263
 3745POPC   C1B49267   8.737   9.497   6.173
 3745POPC   C2B49268   8.680   9.346   6.587
 3745POPC   C3B49269   8.751   9.525   7.009
 3745POPC   C4B49270   8.838   9.384   7.452
 3746POPC   NC349271   3.822   6.491   5.484
 3746POPC   PO449272   3.121   6.708   5.511
 3746POPC   GL149273   3.438   6.602   5.836
 3746POPC   GL249274   3.700   6.843   5.910
 3746POPC   C1A49275   3.612   6.455   6.245
 3746POPC   D2A49276   3.604   6.213   6.645
 3746POPC   C3A49277   3.531   6.433   7.017
 3746POPC   C4A49278   3.790   6.494   7.365
 3746POPC   C1B49279   3.958   6.860   6.275
 3746POPC   C2B49280   3.876   6.678   6.654
 3746POPC   C3B49281   3.802   6.881   7.028
 3746POPC   C4B49282   3.599   6.981   7.409
 3747POPC   NC349283  44.160  44.429   5.434
 3747POPC   PO449284  43.676  44.904   5.477
 3747POPC   GL149285  43.798  44.642   5.846
 3747POPC   GL249286  43.760  44.320   5.719
 3747POPC   C1A49287  43.994  44.660   6.285
 3747POPC   D2A49288  44.096   0.006   6.568
 3747POPC   C3A49289  44.023  44.884   6.977
 3747POPC   C4A49290  44.123  44.476   7.156
 3747POPC   C1B49291  43.826  44.171   6.122
 3747POPC   C2B49292  43.742  44.300   6.532
 3747POPC   C3B49293  43.684  44.307   6.951
 3747POPC   C4B49294  43.644  44.629   7.261
 3748POPC   NC349295  17.853  30.430   5.581
 3748POPC   PO449296  17.425  29.897   5.450
 3748POPC   GL149297  17.575  30.007   5.840
 3748POPC   GL249298  17.944  29.990   5.824
 3748POPC   C1A49299  17.362  30.092   6.270
 3748POPC   D2A49300  17.157  30.171   6.687
 3748POPC   C3A49301  17.223  29.911   7.050
 3748POPC   C4A49302  17.566  29.725   7.324
 3748POPC   C1B49303  17.869  30.038   6.251
 3748POPC   C2B49304  17.697  29.978   6.665
 3748POPC   C3B49305  17.912  30.003   7.054
 3748POPC   C4B49306  17.973  30.043   7.508
 3749POPC   NC349307  37.771   3.672   5.409
 3749POPC   PO449308  37.179   4.004   5.499
 3749POPC   GL149309  37.440   3.723   5.802
 3749POPC   GL249310  37.540   3.349   5.764
 3749POPC   C1A49311  37.847   3.707   6.064
 3749POPC   D2A49312  37.870   3.756   6.509
 3749POPC   C3A49313  37.856   3.419   6.813
 3749POPC   C4A49314  37.872   3.652   7.176
 3749POPC   C1B49315  37.470   3.372   6.237
 3749POPC   C2B49316  37.347   3.519   6.675
 3749POPC   C3B49317  37.394   3.413   7.117
 3749POPC   C4B49318  37.472   3.329   7.554
 3750POPC   NC349319   0.103  13.213   5.352
 3750POPC   PO449320   0.698  13.463   5.574
 3750POPC   GL149321   0.463  13.696   5.900
 3750POPC   GL249322   0.654  14.020   5.913
 3750POPC   C1A49323   0.163  13.571   6.242
 3750POPC   D2A49324   0.073  13.315   6.650
 3750POPC   C3A49325   0.394  13.326   6.973
 3750POPC   C4A49326   0.410  13.645   7.278
 3750POPC   C1B49327   0.499  13.970   6.328
 3750POPC   C2B49328   0.466  13.770   6.711
 3750POPC   C3B49329   0.812  13.760   6.982
 3750POPC   C4B49330   0.890  13.519   7.326
 3751POPC   NC349331   0.612  21.899   5.148
 3751POPC   PO449332   0.149  22.321   5.312
 3751POPC   GL149333   0.341  22.187   5.674
 3751POPC   GL249334   0.181  21.926   5.676
 3751POPC   C1A49335   0.491  22.170   6.098
 3751POPC   D2A49336   0.728  22.056   6.477
 3751POPC   C3A49337   0.517  22.249   6.834
 3751POPC   C4A49338   0.699  22.229   7.229
 3751POPC   C1B49339   0.116  21.815   6.054
 3751POPC   C2B49340   0.228  21.935   6.472
 3751POPC   C3B49341   0.419  21.741   6.815
 3751POPC   C4B49342   0.297  21.892   7.213
 3752POPC   NC349343  26.774  22.323   5.461
 3752POPC   PO449344  26.467  21.720   5.453
 3752POPC   GL149345  26.620  21.968   5.804
 3752POPC   GL249346  26.985  21.988   5.809
 3752POPC   C1A49347  26.718  22.258   6.160
 3752POPC   D2A49348  26.684  22.158   6.594
 3752POPC   C3A49349  26.697  22.352   7.000
 3752POPC   C4A49350  26.563  22.330   7.448
 3752POPC   C1B49351  26.957  21.812   6.243
 3752POPC   C2B49352  27.192  21.988   6.592
 3752POPC   C3B49353  27.242  22.204   6.990
 3752POPC   C4B49354  26.988  22.073   7.324
 3753POPC   NC349355  34.915   4.834   5.469
 3753POPC   PO449356  34.477   5.329   5.527
 3753POPC   GL149357  34.644   5.090   5.826
 3753POPC   GL249358  34.976   5.151   5.892
 3753POPC   C1A49359  34.620   5.183   6.255
 3753POPC   D2A49360  34.371   5.006   6.545
 3753POPC   C3A49361  34.627   5.070   6.886
 3753POPC   C4A49362  34.565   5.334   7.211
 3753POPC   C1B49363  34.924   4.781   6.148
 3753POPC   C2B49364  34.981   4.904   6.551
 3753POPC   C3B49365  35.049   4.764   6.959
 3753POPC   C4B49366  34.895   4.935   7.312
 3754POPC   NC349367  39.535   8.794   5.555
 3754POPC   PO449368  39.272   9.283   5.197
 3754POPC   GL149369  39.274   9.207   5.699
 3754POPC   GL249370  39.063   8.899   5.792
 3754POPC   C1A49371  39.408   9.046   6.146
 3754POPC   D2A49372  39.197   8.876   6.528
 3754POPC   C3A49373  39.411   8.850   6.946
 3754POPC   C4A49374  39.565   8.719   7.356
 3754POPC   C1B49375  38.883   9.112   6.149
 3754POPC   C2B49376  38.720   9.117   6.578
 3754POPC   C3B49377  38.913   8.986   6.954
 3754POPC   C4B49378  38.735   8.887   7.323
 3755POPC   NC349379  41.820  42.891   5.439
 3755POPC   PO449380  41.350  43.371   5.395
 3755POPC   GL149381  41.599  43.255   5.718
 3755POPC   GL249382  41.433  42.943   5.755
 3755POPC   C1A49383  41.699  43.179   6.133
 3755POPC   D2A49384  41.627  42.943   6.488
 3755POPC   C3A49385  41.919  43.056   6.808
 3755POPC   C4A49386  41.704  43.076   7.183
 3755POPC   C1B49387  41.209  42.860   6.115
 3755POPC   C2B49388  41.118  42.710   6.520
 3755POPC   C3B49389  41.386  42.724   6.894
 3755POPC   C4B49390  41.265  42.855   7.284
 3756POPC   NC349391  37.212  26.878   5.243
 3756POPC   PO449392  36.825  26.382   5.439
 3756POPC   GL149393  36.928  26.662   5.739
 3756POPC   GL249394  36.679  26.774   5.990
 3756POPC   C1A49395  37.138  26.675   6.134
 3756POPC   D2A49396  36.911  26.685   6.523
 3756POPC   C3A49397  37.141  26.640   6.895
 3756POPC   C4A49398  36.948  26.534   7.279
 3756POPC   C1B49399  36.927  27.119   6.284
 3756POPC   C2B49400  37.015  27.149   6.742
 3756POPC   C3B49401  36.836  27.037   7.150
 3756POPC   C4B49402  36.674  26.905   7.572
 3757POPC   NC349403  21.639  14.003   5.351
 3757POPC   PO449404  21.494  14.645   5.536
 3757POPC   GL149405  21.332  14.246   5.687
 3757POPC   GL249406  21.616  14.107   5.850
 3757POPC   C1A49407  21.133  14.226   6.070
 3757POPC   D2A49408  21.355  14.427   6.399
 3757POPC   C3A49409  21.200  14.376   6.831
 3757POPC   C4A49410  21.086  14.505   7.268
 3757POPC   C1B49411  21.705  14.070   6.289
 3757POPC   C2B49412  21.738  14.262   6.689
 3757POPC   C3B49413  21.617  14.644   6.924
 3757POPC   C4B49414  21.567  14.331   7.211
 3758POPC   NC349415   7.211  40.228   5.428
 3758POPC   PO449416   7.396  39.585   5.532
 3758POPC   GL149417   7.290  39.896   5.842
 3758POPC   GL249418   7.516  40.180   5.819
 3758POPC   C1A49419   7.339  40.024   6.292
 3758POPC   D2A49420   7.286  40.263   6.678
 3758POPC   C3A49421   7.315  40.200   7.139
 3758POPC   C4A49422   7.452  40.155   7.590
 3758POPC   C1B49423   7.801  40.286   6.098
 3758POPC   C2B49424   7.850  40.088   6.473
 3758POPC   C3B49425   7.872  40.217   6.891
 3758POPC   C4B49426   7.754  39.959   7.221
 3759POPC   NC349427  37.603  33.284   5.509
 3759POPC   PO449428  37.454  33.880   5.126
 3759POPC   GL149429  37.625  33.788   5.548
 3759POPC   GL249430  37.346  33.721   5.718
 3759POPC   C1A49431  37.720  33.742   6.042
 3759POPC   D2A49432  37.940  33.696   6.417
 3759POPC   C3A49433  37.724  33.896   6.747
 3759POPC   C4A49434  37.747  33.751   7.146
 3759POPC   C1B49435  37.332  33.411   6.074
 3759POPC   C2B49436  37.445  33.529   6.464
 3759POPC   C3B49437  37.491  33.388   6.852
 3759POPC   C4B49438  37.315  33.446   7.243
 3760POPC   NC349439   8.814  33.836   5.448
 3760POPC   PO449440   9.026  34.515   5.491
 3760POPC   GL149441   9.136  34.043   5.762
 3760POPC   GL249442   8.915  33.746   5.941
 3760POPC   C1A49443   9.397  33.694   6.055
 3760POPC   D2A49444   9.212  33.659   6.462
 3760POPC   C3A49445   9.366  33.605   6.885
 3760POPC   C4A49446   9.038  33.570   7.173
 3760POPC   C1B49447   8.743  34.119   6.130
 3760POPC   C2B49448   8.528  34.265   6.544
 3760POPC   C3B49449   8.631  34.184   6.998
 3760POPC   C4B49450   8.728  33.944   7.389
 3761POPC   NC349451  17.715   4.121   5.140
 3761POPC   PO449452  17.465   4.641   5.339
 3761POPC   GL149453  17.515   4.488   5.784
 3761POPC   GL249454  17.828   4.392   5.965
 3761POPC   C1A49455  17.328   4.392   6.191
 3761POPC   D2A49456  17.321   4.512   6.611
 3761POPC   C3A49457  17.315   4.328   7.007
 3761POPC   C4A49458  17.389   4.598   7.347
 3761POPC   C1B49459  17.784   4.554   6.399
 3761POPC   C2B49460  17.778   4.542   6.887
 3761POPC   C3B49461  17.784   4.200   7.182
 3761POPC   C4B49462  17.455   4.033   7.452
 3762POPC   NC349463  35.055  33.308   5.347
 3762POPC   PO449464  35.450  32.777   5.473
 3762POPC   GL149465  35.290  32.750   5.857
 3762POPC   GL249466  35.627  32.716   5.979
 3762POPC   C1A49467  35.109  32.830   6.253
 3762POPC   D2A49468  35.253  32.829   6.677
 3762POPC   C3A49469  35.145  33.013   7.081
 3762POPC   C4A49470  35.447  33.015   7.451
 3762POPC   C1B49471  35.702  33.157   6.102
 3762POPC   C2B49472  35.601  33.400   6.464
 3762POPC   C3B49473  35.585  33.217   6.880
 3762POPC   C4B49474  35.872  33.198   7.228
 3763POPC   NC349475  24.981   8.321   5.385
 3763POPC   PO449476  25.595   8.178   5.501
 3763POPC   GL149477  25.367   8.009   5.837
 3763POPC   GL249478  25.117   7.728   5.714
 3763POPC   C1A49479  25.287   8.194   6.253
 3763POPC   D2A49480  25.001   8.108   6.600
 3763POPC   C3A49481  25.172   8.205   7.005
 3763POPC   C4A49482  25.379   8.433   7.332
 3763POPC   C1B49483  25.058   7.750   6.189
 3763POPC   C2B49484  25.394   7.790   6.551
 3763POPC   C3B49485  25.552   7.855   6.989
 3763POPC   C4B49486  25.323   7.886   7.389
 3764POPC   NC349487   1.564  24.424   5.364
 3764POPC   PO449488   0.997  24.743   5.411
 3764POPC   GL149489   1.247  24.569   5.724
 3764POPC   GL249490   1.155  24.227   5.670
 3764POPC   C1A49491   1.462  24.376   6.066
 3764POPC   D2A49492   1.217  24.355   6.422
 3764POPC   C3A49493   1.183  24.626   6.762
 3764POPC   C4A49494   1.187  24.465   7.150
 3764POPC   C1B49495   0.852  24.260   6.027
 3764POPC   C2B49496   0.830  24.047   6.424
 3764POPC   C3B49497   0.915  24.148   6.837
 3764POPC   C4B49498   0.778  24.234   7.294
 3765POPC   NC349499  28.511   3.658   5.485
 3765POPC   PO449500  27.787   3.470   5.615
 3765POPC   GL149501  28.104   3.544   5.868
 3765POPC   GL249502  28.364   3.310   5.823
 3765POPC   C1A49503  28.154   3.674   6.308
 3765POPC   D2A49504  28.450   3.810   6.623
 3765POPC   C3A49505  28.358   3.671   7.019
 3765POPC   C4A49506  28.626   3.747   7.329
 3765POPC   C1B49507  28.217   3.180   6.211
 3765POPC   C2B49508  28.252   3.295   6.638
 3765POPC   C3B49509  28.146   3.173   7.038
 3765POPC   C4B49510  28.421   3.287   7.360
 3766POPC   NC349511  12.338  27.511   5.437
 3766POPC   PO449512  11.664  27.407   5.485
 3766POPC   GL149513  11.953  27.481   5.840
 3766POPC   GL249514  12.303  27.272   5.881
 3766POPC   C1A49515  11.837  27.628   6.282
 3766POPC   D2A49516  11.698  27.836   6.669
 3766POPC   C3A49517  11.935  27.602   6.975
 3766POPC   C4A49518  12.077  27.327   7.308
 3766POPC   C1B49519  12.332  27.663   6.136
 3766POPC   C2B49520  12.260  27.845   6.506
 3766POPC   C3B49521  12.429  27.715   6.875
 3766POPC   C4B49522  12.336  27.771   7.312
 3767POPC   NC349523  17.832   9.909   5.306
 3767POPC   PO449524  17.321   9.882   5.692
 3767POPC   GL149525  17.688   9.859   5.788
 3767POPC   GL249526  17.718   9.518   5.631
 3767POPC   C1A49527  17.753  10.020   6.196
 3767POPC   D2A49528  17.849   9.902   6.596
 3767POPC   C3A49529  17.515   9.907   6.873
 3767POPC   C4A49530  17.273  10.075   7.211
 3767POPC   C1B49531  17.604   9.459   6.099
 3767POPC   C2B49532  17.866   9.399   6.473
 3767POPC   C3B49533  17.740   9.429   6.922
 3767POPC   C4B49534  17.360   9.531   7.179
 3768POPC   NC349535   0.664  17.303   5.412
 3768POPC   PO449536  44.939  17.390   5.516
 3768POPC   GL149537   0.233  17.481   5.900
 3768POPC   GL249538   0.576  17.482   5.891
 3768POPC   C1A49539   0.438  17.425   6.372
 3768POPC   D2A49540   0.640  17.381   6.786
 3768POPC   C3A49541   0.327  17.439   7.111
 3768POPC   C4A49542   0.124  17.544   7.535
 3768POPC   C1B49543   0.585  17.866   6.173
 3768POPC   C2B49544   0.455  18.096   6.554
 3768POPC   C3B49545   0.487  17.930   6.987
 3768POPC   C4B49546   0.623  17.744   7.381
 3769POPC   NC349547  35.220  14.310   5.585
 3769POPC   PO449548  35.847  14.616   5.543
 3769POPC   GL149549  35.567  14.706   5.912
 3769POPC   GL249550  35.335  14.457   6.056
 3769POPC   C1A49551  35.536  14.770   6.391
 3769POPC   D2A49552  35.480  14.476   6.691
 3769POPC   C3A49553  35.374  14.588   7.096
 3769POPC   C4A49554  35.589  14.733   7.490
 3769POPC   C1B49555  35.403  14.089   6.327
 3769POPC   C2B49556  35.570  13.981   6.747
 3769POPC   C3B49557  35.612  14.087   7.187
 3769POPC   C4B49558  35.606  13.924   7.628
 3770POPC   NC349559  30.986  23.876   5.139
 3770POPC   PO449560  30.583  24.200   5.574
 3770POPC   GL149561  30.652  23.793   5.787
 3770POPC   GL249562  30.988  23.637   5.857
 3770POPC   C1A49563  30.593  23.642   6.199
 3770POPC   D2A49564  30.622  23.765   6.609
 3770POPC   C3A49565  30.321  23.960   6.824
 3770POPC   C4A49566  30.455  23.789   7.173
 3770POPC   C1B49567  31.084  23.373   6.232
 3770POPC   C2B49568  30.942  23.371   6.651
 3770POPC   C3B49569  30.915  23.621   7.031
 3770POPC   C4B49570  31.067  23.552   7.448
 3771POPC   NC349571  30.882  40.284   5.292
 3771POPC   PO449572  30.430  39.917   5.461
 3771POPC   GL149573  30.466  40.188   5.839
 3771POPC   GL249574  30.820  40.317   5.825
 3771POPC   C1A49575  30.587  40.114   6.296
 3771POPC   D2A49576  30.898  39.878   6.577
 3771POPC   C3A49577  30.711  39.712   6.951
 3771POPC   C4A49578  30.393  39.858   7.222
 3771POPC   C1B49579  30.911  40.513   6.226
 3771POPC   C2B49580  30.891  40.403   6.631
 3771POPC   C3B49581  30.822  40.248   7.035
 3771POPC   C4B49582  30.957  40.428   7.411
 3772POPC   NC349583  13.278  36.533   5.399
 3772POPC   PO449584  12.735  36.961   5.339
 3772POPC   GL149585  12.914  36.986   5.781
 3772POPC   GL249586  12.957  36.655   5.784
 3772POPC   C1A49587  13.031  37.156   6.200
 3772POPC   D2A49588  12.932  36.944   6.597
 3772POPC   C3A49589  12.884  37.194   6.987
 3772POPC   C4A49590  12.665  37.124   7.393
 3772POPC   C1B49591  12.562  36.705   6.031
 3772POPC   C2B49592  12.443  36.823   6.447
 3772POPC   C3B49593  12.513  36.828   6.898
 3772POPC   C4B49594  12.392  36.585   7.249
 3773POPC   NC349595   0.800  27.817   5.487
 3773POPC   PO449596   0.332  27.317   5.605
 3773POPC   GL149597   0.496  27.399   5.975
 3773POPC   GL249598   0.472  27.763   5.920
 3773POPC   C1A49599   0.309  27.442   6.374
 3773POPC   D2A49600   0.151  27.318   6.774
 3773POPC   C3A49601   0.198  27.591   7.115
 3773POPC   C4A49602   0.191  28.043   7.076
 3773POPC   C1B49603   0.392  27.969   6.317
 3773POPC   C2B49604   0.498  27.787   6.730
 3773POPC   C3B49605   0.658  27.881   7.131
 3773POPC   C4B49606   0.791  27.683   7.523
 3774POPC   NC349607   1.987  22.976   5.365
 3774POPC   PO449608   1.475  22.703   5.599
 3774POPC   GL149609   1.841  22.810   5.896
 3774POPC   GL249610   2.206  22.830   5.846
 3774POPC   C1A49611   2.021  23.090   6.239
 3774POPC   D2A49612   2.113  23.276   6.606
 3774POPC   C3A49613   1.783  23.214   6.922
 3774POPC   C4A49614   1.961  23.122   7.348
 3774POPC   C1B49615   2.154  22.615   6.288
 3774POPC   C2B49616   1.968  22.756   6.720
 3774POPC   C3B49617   1.729  22.740   7.140
 3774POPC   C4B49618   1.768  22.747   7.635
 3775POPC   NC349619  27.408  38.780   5.009
 3775POPC   PO449620  27.684  38.281   5.386
 3775POPC   GL149621  27.632  38.293   5.801
 3775POPC   GL249622  27.313  38.187   5.772
 3775POPC   C1A49623  27.535  38.485   6.199
 3775POPC   D2A49624  27.772  38.487   6.588
 3775POPC   C3A49625  27.570  38.543   6.960
 3775POPC   C4A49626  27.693  38.408   7.370
 3775POPC   C1B49627  27.076  38.187   6.158
 3775POPC   C2B49628  27.260  38.231   6.579
 3775POPC   C3B49629  27.143  38.212   6.999
 3775POPC   C4B49630  27.200  38.524   7.316
 3776POPC   NC349631  23.744  40.979   5.603
 3776POPC   PO449632  23.676  41.667   5.458
 3776POPC   GL149633  23.750  41.542   5.871
 3776POPC   GL249634  23.429  41.624   5.912
 3776POPC   C1A49635  23.790  41.702   6.305
 3776POPC   D2A49636  23.689  41.917   6.717
 3776POPC   C3A49637  23.933  41.689   7.015
 3776POPC   C4A49638  23.906  41.336   7.285
 3776POPC   C1B49639  23.408  41.345   6.238
 3776POPC   C2B49640  23.544  41.417   6.650
 3776POPC   C3B49641  23.471  41.479   7.074
 3776POPC   C4B49642  23.523  41.860   7.285
 3777POPC   NC349643  37.129  37.867   5.502
 3777POPC   PO449644  36.606  37.404   5.511
 3777POPC   GL149645  36.779  37.690   5.842
 3777POPC   GL249646  36.835  38.046   5.931
 3777POPC   C1A49647  37.074  37.665   6.187
 3777POPC   D2A49648  36.896  37.630   6.614
 3777POPC   C3A49649  37.083  37.470   6.986
 3777POPC   C4A49650  37.260  37.600   7.367
 3777POPC   C1B49651  36.597  37.905   6.297
 3777POPC   C2B49652  36.394  37.725   6.699
 3777POPC   C3B49653  36.406  37.646   7.156
 3777POPC   C4B49654  36.720  37.627   7.526
 3778POPC   NC349655  24.304  36.180   5.028
 3778POPC   PO449656  24.362  36.087   5.618
 3778POPC   GL149657  24.412  36.159   5.998
 3778POPC   GL249658  24.166  36.427   5.954
 3778POPC   C1A49659  24.239  35.973   6.385
 3778POPC   D2A49660  24.145  35.975   6.833
 3778POPC   C3A49661  24.508  36.083   7.114
 3778POPC   C4A49662  24.606  36.284   7.539
 3778POPC   C1B49663  24.292  36.493   6.357
 3778POPC   C2B49664  24.103  36.546   6.727
 3778POPC   C3B49665  24.119  36.393   7.141
 3778POPC   C4B49666  24.106  36.393   7.599
 3779POPC   NC349667  37.877  41.060   5.632
 3779POPC   PO449668  38.295  40.703   5.324
 3779POPC   GL149669  38.503  40.794   5.712
 3779POPC   GL249670  38.218  40.772   5.860
 3779POPC   C1A49671  38.592  40.663   6.185
 3779POPC   D2A49672  38.652  40.882   6.589
 3779POPC   C3A49673  38.491  40.831   7.033
 3779POPC   C4A49674  38.705  40.851   7.450
 3779POPC   C1B49675  38.141  40.918   6.264
 3779POPC   C2B49676  38.186  41.116   6.653
 3779POPC   C3B49677  38.066  41.116   7.080
 3779POPC   C4B49678  38.082  40.932   7.449
 3780POPC   NC349679  28.301  27.447   5.342
 3780POPC   PO449680  28.875  27.716   5.544
 3780POPC   GL149681  28.643  27.726   5.938
 3780POPC   GL249682  28.302  27.808   5.903
 3780POPC   C1A49683  28.521  27.818   6.373
 3780POPC   D2A49684  28.234  27.706   6.703
 3780POPC   C3A49685  28.402  27.365   6.954
 3780POPC   C4A49686  28.651  27.640   7.189
 3780POPC   C1B49687  28.165  27.458   6.213
 3780POPC   C2B49688  27.952  27.292   6.603
 3780POPC   C3B49689  27.890  27.436   7.008
 3780POPC   C4B49690  28.147  27.673   7.290
 3781POPC   NC349691  34.661  42.435   5.273
 3781POPC   PO449692  34.658  41.810   5.479
 3781POPC   GL149693  34.490  42.034   5.833
 3781POPC   GL249694  34.516  42.389   5.796
 3781POPC   C1A49695  34.447  42.134   6.290
 3781POPC   D2A49696  34.406  42.277   6.726
 3781POPC   C3A49697  34.507  42.096   7.125
 3781POPC   C4A49698  34.500  42.014   7.570
 3781POPC   C1B49699  34.634  42.616   6.181
 3781POPC   C2B49700  34.569  42.747   6.624
 3781POPC   C3B49701  34.635  42.617   7.057
 3781POPC   C4B49702  34.584  42.515   7.519
 3782POPC   NC349703  23.153   2.307   5.189
 3782POPC   PO449704  22.845   2.895   5.141
 3782POPC   GL149705  22.968   2.735   5.590
 3782POPC   GL249706  22.709   2.859   5.782
 3782POPC   C1A49707  23.047   2.722   6.121
 3782POPC   D2A49708  22.817   2.645   6.567
 3782POPC   C3A49709  23.048   2.705   6.965
 3782POPC   C4A49710  23.056   2.906   7.372
 3782POPC   C1B49711  22.522   2.769   6.155
 3782POPC   C2B49712  22.439   3.008   6.511
 3782POPC   C3B49713  22.616   2.983   6.916
 3782POPC   C4B49714  22.594   2.713   7.275
 3783POPC   NC349715   9.103  18.798   5.419
 3783POPC   PO449716   8.788  18.176   5.198
 3783POPC   GL149717   8.892  18.102   5.646
 3783POPC   GL249718   9.109  18.378   5.738
 3783POPC   C1A49719   8.947  17.965   6.098
 3783POPC   D2A49720   8.741  17.829   6.506
 3783POPC   C3A49721   8.809  18.073   6.896
 3783POPC   C4A49722   9.024  17.978   7.255
 3783POPC   C1B49723   9.040  18.469   6.177
 3783POPC   C2B49724   9.138  18.235   6.538
 3783POPC   C3B49725   9.363  18.330   6.904
 3783POPC   C4B49726   9.179  18.472   7.288
 3784POPC   NC349727  32.621  15.285   4.866
 3784POPC   PO449728  32.300  15.184   5.393
 3784POPC   GL149729  32.214  15.068   5.826
 3784POPC   GL249730  32.079  15.390   5.879
 3784POPC   C1A49731  32.176  15.005   6.296
 3784POPC   D2A49732  32.286  14.796   6.680
 3784POPC   C3A49733  32.047  14.884   7.011
 3784POPC   C4A49734  32.061  15.104   7.403
 3784POPC   C1B49735  32.334  15.488   6.199
 3784POPC   C2B49736  32.414  15.368   6.615
 3784POPC   C3B49737  32.314  15.364   7.026
 3784POPC   C4B49738  32.550  15.159   7.318
 3785POPC   NC349739  20.185  22.049   5.359
 3785POPC   PO449740  19.569  21.866   5.389
 3785POPC   GL149741  19.648  21.999   5.814
 3785POPC   GL249742  19.932  22.196   5.805
 3785POPC   C1A49743  19.833  22.022   6.250
 3785POPC   D2A49744  19.885  22.127   6.662
 3785POPC   C3A49745  19.674  21.859   6.938
 3785POPC   C4A49746  19.731  22.111   7.276
 3785POPC   C1B49747  20.122  22.441   6.149
 3785POPC   C2B49748  20.384  22.355   6.519
 3785POPC   C3B49749  20.300  22.242   6.954
 3785POPC   C4B49750  20.196  22.258   7.416
 3786POPC   NC349751  12.297  17.788   5.447
 3786POPC   PO449752  11.787  17.320   5.455
 3786POPC   GL149753  12.016  17.320   5.856
 3786POPC   GL249754  12.146  17.661   5.911
 3786POPC   C1A49755  12.077  17.324   6.306
 3786POPC   D2A49756  12.018  17.608   6.634
 3786POPC   C3A49757  11.998  17.363   6.975
 3786POPC   C4A49758  12.041  17.222   7.363
 3786POPC   C1B49759  12.260  17.913   6.269
 3786POPC   C2B49760  12.486  17.948   6.661
 3786POPC   C3B49761  12.400  17.690   7.017
 3786POPC   C4B49762  12.479  17.247   7.092
 3787POPC   NC349763  35.460  11.538   5.417
 3787POPC   PO449764  35.323  10.930   5.050
 3787POPC   GL149765  35.258  11.066   5.525
 3787POPC   GL249766  35.570  11.055   5.726
 3787POPC   C1A49767  35.078  11.301   5.952
 3787POPC   D2A49768  35.217  11.599   6.351
 3787POPC   C3A49769  35.282  11.553   6.836
 3787POPC   C4A49770  35.346  11.398   7.261
 3787POPC   C1B49771  35.421  10.995   6.169
 3787POPC   C2B49772  35.475  11.151   6.594
 3787POPC   C3B49773  35.458  10.982   7.011
 3787POPC   C4B49774  35.198  10.703   7.239
 3788POPC   NC349775  36.614   2.157   5.451
 3788POPC   PO449776  37.216   1.828   5.408
 3788POPC   GL149777  37.138   1.937   5.848
 3788POPC   GL249778  36.814   2.081   5.931
 3788POPC   C1A49779  37.186   1.962   6.298
 3788POPC   D2A49780  36.926   2.029   6.619
 3788POPC   C3A49781  37.104   1.875   6.938
 3788POPC   C4A49782  37.249   2.042   7.275
 3788POPC   C1B49783  36.508   1.983   6.292
 3788POPC   C2B49784  36.449   2.158   6.731
 3788POPC   C3B49785  36.709   2.112   7.141
 3788POPC   C4B49786  36.827   1.778   7.446
 3789POPC   NC349787   4.857  42.321   5.271
 3789POPC   PO449788   5.510  42.052   5.371
 3789POPC   GL149789   5.198  42.256   5.662
 3789POPC   GL249790   5.094  41.952   5.791
 3789POPC   C1A49791   5.224  42.498   6.091
 3789POPC   D2A49792   5.158  42.428   6.541
 3789POPC   C3A49793   5.006  42.574   6.942
 3789POPC   C4A49794   5.302  42.467   7.220
 3789POPC   C1B49795   5.204  41.977   6.239
 3789POPC   C2B49796   4.994  41.943   6.655
 3789POPC   C3B49797   5.135  41.994   7.093
 3789POPC   C4B49798   5.079  42.085   7.557
 3790POPC   NC349799  25.172  30.783   5.579
 3790POPC   PO449800  25.795  30.481   5.565
 3790POPC   GL149801  25.561  30.624   5.884
 3790POPC   GL249802  25.760  30.915   5.892
 3790POPC   C1A49803  25.257  30.584   6.238
 3790POPC   D2A49804  25.399  30.715   6.645
 3790POPC   C3A49805  25.132  30.745   6.987
 3790POPC   C4A49806  25.067  30.575   7.367
 3790POPC   C1B49807  25.469  31.033   6.213
 3790POPC   C2B49808  25.511  31.257   6.558
 3790POPC   C3B49809  25.494  31.106   6.954
 3790POPC   C4B49810  25.434  30.975   7.398
 3791POPC   NC349811  11.479  27.844   5.439
 3791POPC   PO449812  10.992  27.367   5.548
 3791POPC   GL149813  11.307  27.460   5.852
 3791POPC   GL249814  11.506  27.754   5.926
 3791POPC   C1A49815  11.434  27.312   6.226
 3791POPC   D2A49816  11.290  27.498   6.604
 3791POPC   C3A49817  11.243  27.244   6.977
 3791POPC   C4A49818  11.480  27.505   7.212
 3791POPC   C1B49819  11.101  27.878   6.104
 3791POPC   C2B49820  10.985  27.909   6.535
 3791POPC   C3B49821  11.180  27.903   6.944
 3791POPC   C4B49822  11.076  28.078   7.361
 3792POPC   NC349823  43.245  24.220   5.489
 3792POPC   PO449824  42.811  24.746   5.255
 3792POPC   GL149825  43.089  24.763   5.692
 3792POPC   GL249826  43.048  24.461   5.898
 3792POPC   C1A49827  43.332  24.832   6.093
 3792POPC   D2A49828  43.255  24.566   6.476
 3792POPC   C3A49829  43.200  24.633   6.924
 3792POPC   C4A49830  42.862  24.591   7.233
 3792POPC   C1B49831  43.010  24.179   6.267
 3792POPC   C2B49832  43.125  24.099   6.688
 3792POPC   C3B49833  43.064  24.162   7.104
 3792POPC   C4B49834  43.282  24.371   7.454
 3793POPC   NC349835  19.566  36.143   5.433
 3793POPC   PO449836  20.176  36.427   5.373
 3793POPC   GL149837  20.125  36.153   5.789
 3793POPC   GL249838  19.805  35.992   5.834
 3793POPC   C1A49839  20.043  36.100   6.252
 3793POPC   D2A49840  20.209  36.189   6.622
 3793POPC   C3A49841  19.906  36.235   6.936
 3793POPC   C4A49842  19.952  36.144   7.345
 3793POPC   C1B49843  19.687  35.731   6.179
 3793POPC   C2B49844  19.731  35.833   6.639
 3793POPC   C3B49845  19.594  35.756   7.071
 3793POPC   C4B49846  19.494  35.901   7.483
 3794POPC   NC349847  11.971  24.452   5.188
 3794POPC   PO449848  12.604  24.337   5.297
 3794POPC   GL149849  12.442  24.591   5.663
 3794POPC   GL249850  12.085  24.495   5.723
 3794POPC   C1A49851  12.330  24.750   6.106
 3794POPC   D2A49852  12.026  24.800   6.467
 3794POPC   C3A49853  12.103  24.730   6.912
 3794POPC   C4A49854  11.931  24.660   7.340
 3794POPC   C1B49855  11.907  24.397   6.155
 3794POPC   C2B49856  11.997  24.258   6.595
 3794POPC   C3B49857  12.098  24.238   7.032
 3794POPC   C4B49858  12.077  23.922   7.344
 3795POPC   NC349859  33.293   6.744   5.567
 3795POPC   PO449860  33.935   6.636   5.505
 3795POPC   GL149861  33.635   6.411   5.792
 3795POPC   GL249862  33.526   6.092   5.694
 3795POPC   C1A49863  33.400   6.492   6.199
 3795POPC   D2A49864  33.434   6.683   6.621
 3795POPC   C3A49865  33.859   6.648   6.810
 3795POPC   C4A49866  34.101   6.700   7.178
 3795POPC   C1B49867  33.504   6.004   6.144
 3795POPC   C2B49868  33.668   6.199   6.558
 3795POPC   C3B49869  33.510   6.320   6.991
 3795POPC   C4B49870  33.528   6.528   7.431
 3796POPC   NC349871  42.750  11.839   5.461
 3796POPC   PO449872  43.143  12.383   5.417
 3796POPC   GL149873  42.956  12.199   5.771
 3796POPC   GL249874  43.033  11.860   5.902
 3796POPC   C1A49875  42.881  12.226   6.209
 3796POPC   D2A49876  43.157  12.087   6.537
 3796POPC   C3A49877  43.043  12.185   6.970
 3796POPC   C4A49878  43.145  12.431   7.351
 3796POPC   C1B49879  43.358  11.724   6.215
 3796POPC   C2B49880  43.577  11.795   6.633
 3796POPC   C3B49881  43.406  11.818   7.075
 3796POPC   C4B49882  43.104  11.924   7.432
 3797POPC   NC349883   5.520  44.950   5.479
 3797POPC   PO449884   6.115   0.062   5.180
 3797POPC   GL149885   6.047  44.899   5.642
 3797POPC   GL249886   5.869  44.597   5.676
 3797POPC   C1A49887   5.869  44.864   6.122
 3797POPC   D2A49888   5.702  44.941   6.566
 3797POPC   C3A49889   5.824  44.821   6.968
 3797POPC   C4A49890   6.117  44.880   7.320
 3797POPC   C1B49891   5.679  44.391   6.021
 3797POPC   C2B49892   5.621  44.423   6.484
 3797POPC   C3B49893   5.729  44.316   6.912
 3797POPC   C4B49894   5.833  44.464   7.326
 3798POPC   NC349895   1.277  23.349   5.289
 3798POPC   PO449896   1.532  23.949   5.433
 3798POPC   GL149897   1.299  23.693   5.735
 3798POPC   GL249898   0.936  23.601   5.769
 3798POPC   C1A49899   1.212  23.915   6.109
 3798POPC   D2A49900   1.314  23.868   6.529
 3798POPC   C3A49901   1.436  24.136   6.845
 3798POPC   C4A49902   1.237  23.958   7.185
 3798POPC   C1B49903   1.109  23.428   6.167
 3798POPC   C2B49904   1.385  23.370   6.539
 3798POPC   C3B49905   1.346  23.525   6.914
 3798POPC   C4B49906   1.164  23.473   7.262
 3799POPC   NC349907  13.189  31.655   5.571
 3799POPC   PO449908  12.664  31.244   5.388
 3799POPC   GL149909  12.713  31.517   5.732
 3799POPC   GL249910  12.951  31.284   5.896
 3799POPC   C1A49911  12.785  31.726   6.139
 3799POPC   D2A49912  12.712  31.523   6.531
 3799POPC   C3A49913  12.959  31.570   6.893
 3799POPC   C4A49914  12.878  31.825   7.248
 3799POPC   C1B49915  13.227  31.374   6.256
 3799POPC   C2B49916  13.408  31.377   6.670
 3799POPC   C3B49917  13.306  31.231   7.083
 3799POPC   C4B49918  13.265  31.130   7.515
 3800POPC   NC349919  37.985  30.485   5.375
 3800POPC   PO449920  37.687  29.823   5.335
 3800POPC   GL149921  37.700  30.107   5.656
 3800POPC   GL249922  38.041  30.167   5.767
 3800POPC   C1A49923  37.516  30.022   6.056
 3800POPC   D2A49924  37.651  29.919   6.475
 3800POPC   C3A49925  37.379  29.873   6.831
 3800POPC   C4A49926  37.517  29.825   7.252
 3800POPC   C1B49927  37.927  30.277   6.185
 3800POPC   C2B49928  37.655  30.436   6.509
 3800POPC   C3B49929  37.741  30.255   6.896
 3800POPC   C4B49930  38.094  30.242   7.119
 3801POPC   NC349931  38.210   6.788   5.410
 3801POPC   PO449932  38.866   6.586   5.499
 3801POPC   GL149933  38.533   6.635   5.804
 3801POPC   GL249934  38.230   6.415   5.795
 3801POPC   C1A49935  38.532   6.441   6.195
 3801POPC   D2A49936  38.809   6.372   6.500
 3801POPC   C3A49937  38.590   6.463   6.857
 3801POPC   C4A49938  38.511   6.222   7.188
 3801POPC   C1B49939  38.106   6.715   6.117
 3801POPC   C2B49940  38.315   6.804   6.510
 3801POPC   C3B49941  38.253   6.865   6.930
 3801POPC   C4B49942  38.527   6.815   7.248
 3802POPC   NC349943  38.138  40.291   5.483
 3802POPC   PO449944  38.562  39.805   5.261
 3802POPC   GL149945  38.490  39.941   5.755
 3802POPC   GL249946  38.456  40.290   5.864
 3802POPC   C1A49947  38.379  39.974   6.253
 3802POPC   D2A49948  38.097  40.056   6.646
 3802POPC   C3A49949  38.368  39.852   6.944
 3802POPC   C4A49950  38.709  39.826   7.183
 3802POPC   C1B49951  38.120  40.398   6.175
 3802POPC   C2B49952  38.249  40.543   6.579
 3802POPC   C3B49953  38.542  40.345   6.844
 3802POPC   C4B49954  38.330  40.289   7.205
 3803POPC   NC349955   1.073  14.710   5.343
 3803POPC   PO449956   0.759  14.275   5.473
 3803POPC   GL149957   0.833  14.506   5.841
 3803POPC   GL249958   1.179  14.594   5.865
 3803POPC   C1A49959   0.892  14.357   6.286
 3803POPC   D2A49960   0.773  14.245   6.715
 3803POPC   C3A49961   1.127  14.188   7.026
 3803POPC   C4A49962   1.242  14.361   7.432
 3803POPC   C1B49963   1.252  14.728   6.311
 3803POPC   C2B49964   1.317  14.620   6.749
 3803POPC   C3B49965   1.244  14.796   7.159
 3803POPC   C4B49966   1.156  14.863   7.606
 3804POPC   NC349967  34.157  31.185   5.332
 3804POPC   PO449968  34.825  31.506   5.378
 3804POPC   GL149969  34.707  31.441   5.780
 3804POPC   GL249970  34.342  31.511   5.729
 3804POPC   C1A49971  34.910  31.412   6.212
 3804POPC   D2A49972  34.754  31.225   6.627
 3804POPC   C3A49973  34.736  31.532   6.995
 3804POPC   C4A49974  34.863  31.519   7.446
 3804POPC   C1B49975  34.409  31.425   6.186
 3804POPC   C2B49976  34.418  31.625   6.589
 3804POPC   C3B49977  34.219  31.441   6.961
 3804POPC   C4B49978  34.398  31.375   7.370
 3805POPC   NC349979  13.689  10.991   5.563
 3805POPC   PO449980  13.423  11.603   5.325
 3805POPC   GL149981  13.330  11.636   5.814
 3805POPC   GL249982  13.377  11.277   5.904
 3805POPC   C1A49983  13.582  11.689   6.239
 3805POPC   D2A49984  13.891  11.477   6.530
 3805POPC   C3A49985  13.919  11.627   6.957
 3805POPC   C4A49986  13.658  11.753   7.298
 3805POPC   C1B49987  13.538  11.151   6.322
 3805POPC   C2B49988  13.438  11.275   6.749
 3805POPC   C3B49989  13.606  11.242   7.166
 3805POPC   C4B49990  13.640  11.044   7.587
 3806POPC   NC349991  12.433  38.210   5.603
 3806POPC   PO449992  11.737  38.500   5.407
 3806POPC   GL149993  11.979  38.510   5.809
 3806POPC   GL249994  12.140  38.794   5.860
 3806POPC   C1A49995  12.059  38.457   6.301
 3806POPC   D2A49996  12.062  38.265   6.722
 3806POPC   C3A49997  12.142  38.367   7.140
 3806POPC   C4A49998  11.920  38.241   7.539
 3806POPC   C1B49999  11.853  38.911   6.237
 3806POPC   C2B50000  11.690  38.892   6.647
 3806POPC   C3B50001  11.953  38.859   6.997
 3806POPC   C4B50002  11.954  38.749   7.440
 3807POPC   NC350003  25.445  20.420   5.480
 3807POPC   PO450004  25.136  21.015   5.327
 3807POPC   GL150005  25.098  20.894   5.792
 3807POPC   GL250006  25.071  20.524   5.857
 3807POPC   C1A50007  24.942  20.881   6.238
 3807POPC   D2A50008  25.161  20.816   6.631
 3807POPC   C3A50009  25.044  20.565   6.988
 3807POPC   C4A50010  25.143  20.672   7.422
 3807POPC   C1B50011  25.350  20.561   6.228
 3807POPC   C2B50012  25.477  20.387   6.660
 3807POPC   C3B50013  25.551  20.481   7.123
 3807POPC   C4B50014  25.524  20.389   7.592
 3808POPC   NC350015   2.560  38.934   5.622
 3808POPC   PO450016   2.730  38.409   5.283
 3808POPC   GL150017   2.913  38.506   5.692
 3808POPC   GL250018   2.610  38.501   5.871
 3808POPC   C1A50019   3.046  38.535   6.147
 3808POPC   D2A50020   2.871  38.310   6.531
 3808POPC   C3A50021   2.947  38.471   6.958
 3808POPC   C4A50022   2.878  38.671   7.355
 3808POPC   C1B50023   2.558  38.674   6.276
 3808POPC   C2B50024   2.608  38.746   6.690
 3808POPC   C3B50025   2.409  38.716   7.108
 3808POPC   C4B50026   2.480  38.981   7.506
 3809POPC   NC350027  36.400  26.294   5.244
 3809POPC   PO450028  36.672  25.763   5.671
 3809POPC   GL150029  36.985  25.989   5.917
 3809POPC   GL250030  37.283  25.806   5.921
 3809POPC   C1A50031  37.062  26.202   6.302
 3809POPC   D2A50032  36.889  26.221   6.709
 3809POPC   C3A50033  37.165  26.113   7.026
 3809POPC   C4A50034  36.879  25.975   7.312
 3809POPC   C1B50035  37.187  25.709   6.376
 3809POPC   C2B50036  36.901  25.706   6.772
 3809POPC   C3B50037  36.810  25.492   7.178
 3809POPC   C4B50038  37.062  25.587   7.606
 3810POPC   NC350039  10.142   7.841   5.568
 3810POPC   PO450040  10.630   8.182   5.286
 3810POPC   GL150041  10.689   8.208   5.767
 3810POPC   GL250042  10.365   8.089   5.941
 3810POPC   C1A50043  10.705   8.269   6.247
 3810POPC   D2A50044  10.440   8.082   6.536
 3810POPC   C3A50045  10.413   8.279   6.911
 3810POPC   C4A50046  10.710   8.445   7.216
 3810POPC   C1B50047  10.092   7.856   6.259
 3810POPC   C2B50048   9.942   7.990   6.696
 3810POPC   C3B50049  10.011   8.098   7.143
 3810POPC   C4B50050  10.388   8.103   7.413
 3811POPC   NC350051   7.081  21.483   5.333
 3811POPC   PO450052   6.423  21.519   5.275
 3811POPC   GL150053   6.597  21.383   5.662
 3811POPC   GL250054   6.306  21.254   5.823
 3811POPC   C1A50055   6.728  21.457   6.084
 3811POPC   D2A50056   6.993  21.351   6.422
 3811POPC   C3A50057   6.762  21.346   6.795
 3811POPC   C4A50058   6.870  21.341   7.230
 3811POPC   C1B50059   6.325  21.169   6.261
 3811POPC   C2B50060   6.457  20.937   6.644
 3811POPC   C3B50061   6.345  21.062   7.090
 3811POPC   C4B50062   6.492  21.154   7.529
 3812POPC   NC350063   9.482  19.721   5.495
 3812POPC   PO450064  10.166  19.453   5.583
 3812POPC   GL150065   9.911  19.698   5.884
 3812POPC   GL250066   9.780  20.023   5.804
 3812POPC   C1A50067   9.938  19.952   6.265
 3812POPC   D2A50068   9.783  19.710   6.560
 3812POPC   C3A50069   9.831  19.956   6.888
 3812POPC   C4A50070  10.012  19.808   7.233
 3812POPC   C1B50071   9.447  19.981   6.115
 3812POPC   C2B50072   9.436  20.087   6.541
 3812POPC   C3B50073   9.312  20.051   6.955
 3812POPC   C4B50074   9.559  20.041   7.313
 3813POPC   NC350075  43.607  28.736   5.584
 3813POPC   PO450076  42.973  28.686   5.441
 3813POPC   GL150077  43.046  28.423   5.795
 3813POPC   GL250078  43.393  28.439   5.962
 3813POPC   C1A50079  42.968  28.262   6.203
 3813POPC   D2A50080  43.006  28.446   6.592
 3813POPC   C3A50081  42.967  28.267   6.989
 3813POPC   C4A50082  43.135  28.453   7.327
 3813POPC   C1B50083  43.471  28.283   6.405
 3813POPC   C2B50084  43.458  28.439   6.843
 3813POPC   C3B50085  43.540  28.736   7.176
 3813POPC   C4B50086  43.563  28.711   7.626
 3814POPC   NC350087   8.772  15.541   5.402
 3814POPC   PO450088   9.029  14.895   5.414
 3814POPC   GL150089   9.100  15.017   5.839
 3814POPC   GL250090   9.360  15.206   5.958
 3814POPC   C1A50091   9.020  15.017   6.282
 3814POPC   D2A50092   9.256  15.088   6.639
 3814POPC   C3A50093   9.147  14.978   7.080
 3814POPC   C4A50094   8.912  15.268   7.395
 3814POPC   C1B50095   9.357  15.502   6.302
 3814POPC   C2B50096   9.501  15.566   6.681
 3814POPC   C3B50097   9.233  15.486   7.005
 3814POPC   C4B50098   9.418  15.361   7.345
 3815POPC   NC350099  24.166  25.485   5.299
 3815POPC   PO450100  24.860  25.263   5.263
 3815POPC   GL150101  24.635  25.190   5.659
 3815POPC   GL250102  24.365  25.003   5.631
 3815POPC   C1A50103  24.767  25.360   6.082
 3815POPC   D2A50104  24.681  25.594   6.456
 3815POPC   C3A50105  24.541  25.450   6.848
 3815POPC   C4A50106  24.699  25.155   7.122
 3815POPC   C1B50107  24.263  25.340   6.007
 3815POPC   C2B50108  24.183  25.247   6.488
 3815POPC   C3B50109  24.232  25.055   6.936
 3815POPC   C4B50110  24.311  24.950   7.371
 3816POPC   NC350111  41.865  27.159   5.548
 3816POPC   PO450112  41.435  26.809   5.191
 3816POPC   GL150113  41.487  26.793   5.674
 3816POPC   GL250114  41.297  27.059   5.848
 3816POPC   C1A50115  41.565  26.685   6.150
 3816POPC   D2A50116  41.761  26.558   6.588
 3816POPC   C3A50117  41.570  26.666   7.012
 3816POPC   C4A50118  41.649  26.608   7.487
 3816POPC   C1B50119  41.642  27.176   6.169
 3816POPC   C2B50120  41.801  27.082   6.561
 3816POPC   C3B50121  41.655  27.235   6.918
 3816POPC   C4B50122  41.647  27.096   7.324
 3817POPC   NC350123  30.920   6.377   5.389
 3817POPC   PO450124  30.474   5.871   5.299
 3817POPC   GL150125  30.431   5.921   5.766
 3817POPC   GL250126  30.252   6.256   5.799
 3817POPC   C1A50127  30.678   5.719   6.142
 3817POPC   D2A50128  30.657   5.417   6.544
 3817POPC   C3A50129  30.778   5.618   6.956
 3817POPC   C4A50130  30.979   6.024   7.033
 3817POPC   C1B50131  30.453   6.198   6.205
 3817POPC   C2B50132  30.610   5.962   6.585
 3817POPC   C3B50133  30.437   6.079   6.961
 3817POPC   C4B50134  30.264   6.511   6.979
 3818POPC   NC350135  38.182   6.016   5.467
 3818POPC   PO450136  38.816   5.875   5.545
 3818POPC   GL150137  38.497   5.898   5.860
 3818POPC   GL250138  38.293   5.585   5.753
 3818POPC   C1A50139  38.507   5.950   6.318
 3818POPC   D2A50140  38.781   5.873   6.641
 3818POPC   C3A50141  38.662   5.769   7.043
 3818POPC   C4A50142  38.631   5.841   7.491
 3818POPC   C1B50143  38.525   5.467   6.143
 3818POPC   C2B50144  38.424   5.505   6.589
 3818POPC   C3B50145  38.186   5.609   6.944
 3818POPC   C4B50146  38.127   5.822   7.306
 3819POPC   NC350147  28.513   5.735   5.063
 3819POPC   PO450148  28.049   6.156   5.328
 3819POPC   GL150149  28.234   6.025   5.736
 3819POPC   GL250150  28.219   6.284   5.884
 3819POPC   C1A50151  28.493   5.879   6.104
 3819POPC   D2A50152  28.648   5.667   6.494
 3819POPC   C3A50153  28.467   5.728   6.888
 3819POPC   C4A50154  28.517   5.586   7.284
 3819POPC   C1B50155  28.091   6.160   6.283
 3819POPC   C2B50156  28.403   6.131   6.589
 3819POPC   C3B50157  28.550   6.317   6.964
 3819POPC   C4B50158  28.522   6.280   7.416
 3820POPC   NC350159  39.194   0.179   5.440
 3820POPC   PO450160  39.349   0.845   5.370
 3820POPC   GL150161  39.196   0.585   5.744
 3820POPC   GL250162  39.427   0.314   5.898
 3820POPC   C1A50163  39.123   0.620   6.181
 3820POPC   D2A50164  39.341   0.658   6.560
 3820POPC   C3A50165  39.158   0.680   6.951
 3820POPC   C4A50166  39.534   0.682   7.195
 3820POPC   C1B50167  39.277   0.132   6.305
 3820POPC   C2B50168  39.342   0.180   6.778
 3820POPC   C3B50169  39.231   0.254   7.232
 3820POPC   C4B50170  39.014   0.143   7.617
 3821POPC   NC350171  21.190  44.527   5.380
 3821POPC   PO450172  21.706  44.890   5.282
 3821POPC   GL150173  21.508  44.772   5.698
 3821POPC   GL250174  21.191  44.931   5.761
 3821POPC   C1A50175  21.379  44.518   6.070
 3821POPC   D2A50176  21.447  44.268   6.466
 3821POPC   C3A50177  21.335  44.491   6.852
 3821POPC   C4A50178  21.179  44.334   7.213
 3821POPC   C1B50179  21.157  44.992   6.218
 3821POPC   C2B50180  20.865   0.088   6.586
 3821POPC   C3B50181  20.864   0.086   7.046
 3821POPC   C4B50182  21.238  44.948   7.248
 3822POPC   NC350183   8.314  10.194   5.557
 3822POPC   PO450184   8.375   9.489   5.391
 3822POPC   GL150185   8.144   9.710   5.696
 3822POPC   GL250186   8.456   9.782   5.827
 3822POPC   C1A50187   8.023   9.667   6.137
 3822POPC   D2A50188   8.271   9.679   6.546
 3822POPC   C3A50189   8.142   9.815   6.966
 3822POPC   C4A50190   8.009   9.667   7.371
 3822POPC   C1B50191   8.444   9.991   6.185
 3822POPC   C2B50192   8.420  10.172   6.573
 3822POPC   C3B50193   8.590  10.061   6.963
 3822POPC   C4B50194   8.491   9.853   7.339
 3823POPC   NC350195  20.792  10.726   5.477
 3823POPC   PO450196  20.666  11.430   5.234
 3823POPC   GL150197  20.651  11.237   5.691
 3823POPC   GL250198  20.373  11.407   5.854
 3823POPC   C1A50199  20.611  11.006   6.125
 3823POPC   D2A50200  20.468  11.029   6.590
 3823POPC   C3A50201  20.722  11.100   6.990
 3823POPC   C4A50202  20.541  11.013   7.408
 3823POPC   C1B50203  20.573  11.481   6.257
 3823POPC   C2B50204  20.567  11.536   6.715
 3823POPC   C3B50205  20.335  11.411   7.081
 3823POPC   C4B50206  20.383  11.494   7.513
 3824POPC   NC350207  34.381  21.050   5.418
 3824POPC   PO450208  34.592  21.571   5.608
 3824POPC   GL150209  34.615  21.219   5.829
 3824POPC   GL250210  34.966  21.201   5.832
 3824POPC   C1A50211  34.355  21.176   6.199
 3824POPC   D2A50212  34.378  21.483   6.539
 3824POPC   C3A50213  34.481  21.378   6.953
 3824POPC   C4A50214  34.124  21.539   7.152
 3824POPC   C1B50215  34.782  21.479   6.212
 3824POPC   C2B50216  34.889  21.470   6.627
 3824POPC   C3B50217  34.903  21.684   6.997
 3824POPC   C4B50218  35.060  21.572   7.395
 3825POPC   NC350219  16.278  29.796   5.335
 3825POPC   PO450220  15.789  30.180   5.213
 3825POPC   GL150221  15.925  30.010   5.678
 3825POPC   GL250222  15.690  29.730   5.834
 3825POPC   C1A50223  16.092  29.842   6.125
 3825POPC   D2A50224  15.777  29.721   6.475
 3825POPC   C3A50225  15.901  29.773   6.909
 3825POPC   C4A50226  16.301  29.727   7.077
 3825POPC   C1B50227  15.627  30.069   6.108
 3825POPC   C2B50228  15.644  30.231   6.544
 3825POPC   C3B50229  15.612  30.291   7.004
 3825POPC   C4B50230  15.730  30.101   7.422
 3826POPC   NC350231  23.855  36.451   5.539
 3826POPC   PO450232  23.606  35.887   5.326
 3826POPC   GL150233  23.843  35.996   5.729
 3826POPC   GL250234  24.036  35.774   5.909
 3826POPC   C1A50235  23.819  36.183   6.174
 3826POPC   D2A50236  23.694  36.028   6.559
 3826POPC   C3A50237  23.671  36.328   6.886
 3826POPC   C4A50238  23.682  36.285   7.340
 3826POPC   C1B50239  23.614  35.731   6.095
 3826POPC   C2B50240  23.295  35.689   6.380
 3826POPC   C3B50241  23.386  35.701   6.807
 3826POPC   C4B50242  23.699  35.843   7.074
 3827POPC   NC350243  22.573  32.396   5.361
 3827POPC   PO450244  23.077  32.050   5.415
 3827POPC   GL150245  22.790  32.014   5.778
 3827POPC   GL250246  22.724  32.351   5.843
 3827POPC   C1A50247  22.730  32.028   6.230
 3827POPC   D2A50248  22.916  32.204   6.583
 3827POPC   C3A50249  22.747  32.056   6.975
 3827POPC   C4A50250  22.733  31.954   7.425
 3827POPC   C1B50251  23.147  32.292   6.099
 3827POPC   C2B50252  23.262  32.573   6.475
 3827POPC   C3B50253  23.167  32.496   6.914
 3827POPC   C4B50254  23.041  32.347   7.322
 3828POPC   NC350255  38.922  17.434   5.135
 3828POPC   PO450256  39.367  17.882   5.416
 3828POPC   GL150257  39.375  17.560   5.711
 3828POPC   GL250258  39.264  17.245   5.850
 3828POPC   C1A50259  39.395  17.644   6.153
 3828POPC   D2A50260  39.095  17.592   6.463
 3828POPC   C3A50261  39.081  17.607   6.889
 3828POPC   C4A50262  39.046  17.593   7.318
 3828POPC   C1B50263  39.402  17.169   6.292
 3828POPC   C2B50264  39.344  17.211   6.720
 3828POPC   C3B50265  39.328  17.188   7.148
 3828POPC   C4B50266  39.023  17.027   7.452
 3829POPC   NC350267  22.445   2.673   5.277
 3829POPC   PO450268  21.718   2.693   5.293
 3829POPC   GL150269  22.018   2.840   5.642
 3829POPC   GL250270  22.266   2.576   5.745
 3829POPC   C1A50271  22.056   3.015   6.071
 3829POPC   D2A50272  21.865   2.837   6.462
 3829POPC   C3A50273  22.072   2.893   6.870
 3829POPC   C4A50274  21.919   2.781   7.292
 3829POPC   C1B50275  22.083   2.515   6.144
 3829POPC   C2B50276  22.272   2.505   6.556
 3829POPC   C3B50277  22.291   2.420   7.002
 3829POPC   C4B50278  22.199   2.379   7.470
 3830POPC   NC350279  13.961   1.834   5.058
 3830POPC   PO450280  13.467   2.249   5.362
 3830POPC   GL150281  13.649   1.948   5.605
 3830POPC   GL250282  13.899   2.175   5.710
 3830POPC   C1A50283  13.587   1.688   5.992
 3830POPC   D2A50284  13.728   1.763   6.404
 3830POPC   C3A50285  13.492   1.777   6.787
 3830POPC   C4A50286  13.567   1.889   7.213
 3830POPC   C1B50287  13.645   2.200   6.103
 3830POPC   C2B50288  13.506   2.245   6.524
 3830POPC   C3B50289  13.692   2.287   6.920
 3830POPC   C4B50290  13.583   2.446   7.293
 3831POPC   NC350291  39.886  13.862   5.277
 3831POPC   PO450292  40.516  13.829   5.172
 3831POPC   GL150293  40.163  13.721   5.680
 3831POPC   GL250294  39.862  13.505   5.685
 3831POPC   C1A50295  39.984  13.865   6.116
 3831POPC   D2A50296  39.774  13.786   6.566
 3831POPC   C3A50297  39.944  13.860   7.004
 3831POPC   C4A50298  39.963  13.728   7.426
 3831POPC   C1B50299  39.851  13.365   6.129
 3831POPC   C2B50300  39.909  13.268   6.567
 3831POPC   C3B50301  39.883  13.350   7.002
 3831POPC   C4B50302  40.237  13.290   7.231
 3832POPC   NC350303   2.769   8.506   5.232
 3832POPC   PO450304   2.972   9.092   5.374
 3832POPC   GL150305   2.816   9.084   5.781
 3832POPC   GL250306   2.838   8.748   5.756
 3832POPC   C1A50307   2.628   9.054   6.185
 3832POPC   D2A50308   2.436   9.156   6.582
 3832POPC   C3A50309   2.593   9.057   6.970
 3832POPC   C4A50310   2.699   9.275   7.341
 3832POPC   C1B50311   2.830   8.575   6.173
 3832POPC   C2B50312   2.688   8.662   6.574
 3832POPC   C3B50313   2.900   8.615   6.943
 3832POPC   C4B50314   2.887   8.821   7.315
 3833POPC   NC350315  35.188  34.047   5.430
 3833POPC   PO450316  35.458  33.511   5.176
 3833POPC   GL150317  35.452  33.674   5.656
 3833POPC   GL250318  35.111  33.705   5.854
 3833POPC   C1A50319  35.512  33.885   6.089
 3833POPC   D2A50320  35.245  33.812   6.431
 3833POPC   C3A50321  35.412  33.736   6.839
 3833POPC   C4A50322  35.606  33.973   7.123
 3833POPC   C1B50323  35.120  33.369   6.207
 3833POPC   C2B50324  35.125  33.363   6.681
 3833POPC   C3B50325  35.017  33.518   7.108
 3833POPC   C4B50326  35.049  33.330   7.504
 3834POPC   NC350327  32.079  20.663   5.402
 3834POPC   PO450328  32.632  20.308   5.164
 3834POPC   GL150329  32.481  20.394   5.642
 3834POPC   GL250330  32.144  20.296   5.747
 3834POPC   C1A50331  32.460  20.607   6.068
 3834POPC   D2A50332  32.268  20.923   6.373
 3834POPC   C3A50333  32.256  20.857   6.831
 3834POPC   C4A50334  31.984  20.753   7.198
 3834POPC   C1B50335  32.176  20.194   6.163
 3834POPC   C2B50336  32.162  20.434   6.503
 3834POPC   C3B50337  32.102  20.346   6.902
 3834POPC   C4B50338  32.351  20.406   7.260
 3835POPC   NC350339   4.416  35.680   5.620
 3835POPC   PO450340   4.015  36.136   5.214
 3835POPC   GL150341   4.149  36.224   5.723
 3835POPC   GL250342   4.495  36.215   5.731
 3835POPC   C1A50343   4.067  36.094   6.234
 3835POPC   D2A50344   4.286  35.882   6.658
 3835POPC   C3A50345   4.212  35.854   7.152
 3835POPC   C4A50346   4.166  36.052   7.586
 3835POPC   C1B50347   4.457  36.398   6.143
 3835POPC   C2B50348   4.648  36.277   6.565
 3835POPC   C3B50349   4.452  36.296   6.982
 3835POPC   C4B50350   4.430  36.594   7.309
 3836POPC   NC350351  26.045  27.869   5.342
 3836POPC   PO450352  26.251  27.305   5.513
 3836POPC   GL150353  26.222  27.682   5.794
 3836POPC   GL250354  26.121  28.077   5.807
 3836POPC   C1A50355  26.050  27.701   6.194
 3836POPC   D2A50356  26.257  27.577   6.548
 3836POPC   C3A50357  26.062  27.454   6.901
 3836POPC   C4A50358  26.221  27.461   7.302
 3836POPC   C1B50359  25.943  28.186   6.242
 3836POPC   C2B50360  25.878  27.945   6.657
 3836POPC   C3B50361  26.200  27.924   7.000
 3836POPC   C4B50362  26.373  27.954   7.409
 3837POPC   NC350363  14.121  39.990   5.297
 3837POPC   PO450364  14.157  40.613   5.492
 3837POPC   GL150365  14.040  40.339   5.805
 3837POPC   GL250366  14.276  40.051   5.836
 3837POPC   C1A50367  14.005  40.182   6.244
 3837POPC   D2A50368  14.011  39.970   6.659
 3837POPC   C3A50369  14.205  40.158   7.014
 3837POPC   C4A50370  14.550  40.442   7.031
 3837POPC   C1B50371  14.512  40.163   6.286
 3837POPC   C2B50372  14.636  40.028   6.744
 3837POPC   C3B50373  14.707  40.004   7.215
 3837POPC   C4B50374  14.564  39.774   7.584
 3838POPC   NC350375  41.986  11.313   5.085
 3838POPC   PO450376  42.577  11.414   5.343
 3838POPC   GL150377  42.339  11.216   5.714
 3838POPC   GL250378  42.308  11.540   5.857
 3838POPC   C1A50379  42.127  11.176   6.161
 3838POPC   D2A50380  42.085  11.423   6.571
 3838POPC   C3A50381  42.027  11.235   6.997
 3838POPC   C4A50382  42.427  11.156   7.227
 3838POPC   C1B50383  42.509  11.529   6.260
 3838POPC   C2B50384  42.577  11.471   6.708
 3838POPC   C3B50385  42.365  11.636   7.059
 3838POPC   C4B50386  42.268  11.639   7.527
 3839POPC   NC350387   2.866  22.458   5.465
 3839POPC   PO450388   2.599  21.864   5.392
 3839POPC   GL150389   2.706  22.089   5.801
 3839POPC   GL250390   2.509  22.414   5.834
 3839POPC   C1A50391   2.814  22.045   6.247
 3839POPC   D2A50392   2.986  21.774   6.607
 3839POPC   C3A50393   2.715  21.811   6.982
 3839POPC   C4A50394   2.850  21.979   7.407
 3839POPC   C1B50395   2.652  22.542   6.244
 3839POPC   C2B50396   2.882  22.543   6.617
 3839POPC   C3B50397   2.921  22.269   6.949
 3839POPC   C4B50398   3.286  22.069   7.121
 3840POPC   NC350399  42.680  25.026   5.603
 3840POPC   PO450400  42.142  25.362   5.210
 3840POPC   GL150401  42.286  25.400   5.652
 3840POPC   GL250402  42.628  25.584   5.677
 3840POPC   C1A50403  42.220  25.138   6.055
 3840POPC   D2A50404  42.470  24.989   6.417
 3840POPC   C3A50405  42.338  25.132   6.828
 3840POPC   C4A50406  42.244  25.253   7.237
 3840POPC   C1B50407  42.586  25.462   6.124
 3840POPC   C2B50408  42.628  25.469   6.563
 3840POPC   C3B50409  42.862  25.292   6.894
 3840POPC   C4B50410  42.720  25.067   7.260
 3841POPC   NC350411  37.396   9.986   5.398
 3841POPC   PO450412  37.949   9.619   5.503
 3841POPC   GL150413  37.818   9.670   5.884
 3841POPC   GL250414  37.894   9.308   5.922
 3841POPC   C1A50415  37.609   9.894   6.227
 3841POPC   D2A50416  37.305   9.848   6.562
 3841POPC   C3A50417  37.564   9.984   6.919
 3841POPC   C4A50418  37.673   9.836   7.329
 3841POPC   C1B50419  37.577   9.372   6.215
 3841POPC   C2B50420  37.698   9.516   6.602
 3841POPC   C3B50421  37.838   9.494   6.987
 3841POPC   C4B50422  37.578   9.350   7.291
 3842POPC   NC350423  28.155   8.499   5.471
 3842POPC   PO450424  28.171   9.088   5.200
 3842POPC   GL150425  28.511   9.112   5.609
 3842POPC   GL250426  28.579   8.818   5.786
 3842POPC   C1A50427  28.531   9.221   6.085
 3842POPC   D2A50428  28.142   9.094   6.371
 3842POPC   C3A50429  28.185   8.974   6.818
 3842POPC   C4A50430  28.585   9.102   7.001
 3842POPC   C1B50431  28.786   8.789   6.222
 3842POPC   C2B50432  28.798   8.671   6.687
 3842POPC   C3B50433  28.504   8.600   7.061
 3842POPC   C4B50434  28.068   8.484   7.208
 3843POPC   NC350435  23.186  40.179   4.961
 3843POPC   PO450436  22.762  39.957   5.426
 3843POPC   GL150437  22.832  39.911   5.859
 3843POPC   GL250438  23.172  39.787   5.903
 3843POPC   C1A50439  22.823  39.778   6.288
 3843POPC   D2A50440  22.840  39.844   6.728
 3843POPC   C3A50441  22.853  40.239   6.899
 3843POPC   C4A50442  22.760  40.227   7.305
 3843POPC   C1B50443  23.310  39.958   6.305
 3843POPC   C2B50444  23.321  40.017   6.753
 3843POPC   C3B50445  23.188  39.933   7.174
 3843POPC   C4B50446  23.232  40.230   7.523
 3844POPC   NC350447   1.999  25.111   5.100
 3844POPC   PO450448   1.757  25.524   5.594
 3844POPC   GL150449   1.787  25.284   5.961
 3844POPC   GL250450   2.103  25.377   6.039
 3844POPC   C1A50451   1.750  25.307   6.409
 3844POPC   D2A50452   2.154  25.391   6.584
 3844POPC   C3A50453   2.113  25.413   6.985
 3844POPC   C4A50454   2.019  25.746   7.196
 3844POPC   C1B50455   2.136  25.003   6.255
 3844POPC   C2B50456   1.976  24.897   6.661
 3844POPC   C3B50457   2.068  24.911   7.090
 3844POPC   C4B50458   1.751  25.161   7.283
 3845POPC   NC350459   2.482  11.217   5.002
 3845POPC   PO450460   2.238  11.302   5.609
 3845POPC   GL150461   2.606  11.141   5.811
 3845POPC   GL250462   2.970  11.113   5.677
 3845POPC   C1A50463   2.655  11.133   6.250
 3845POPC   D2A50464   2.548  11.337   6.624
 3845POPC   C3A50465   2.776  11.276   6.991
 3845POPC   C4A50466   2.647  11.218   7.406
 3845POPC   C1B50467   3.139  11.055   6.124
 3845POPC   C2B50468   3.040  10.996   6.612
 3845POPC   C3B50469   3.236  11.091   7.063
 3845POPC   C4B50470   3.211  11.267   7.517
 3846POPC   NC350471  19.864  23.115   5.349
 3846POPC   PO450472  19.982  22.469   5.398
 3846POPC   GL150473  19.819  22.713   5.771
 3846POPC   GL250474  19.544  22.551   5.925
 3846POPC   C1A50475  19.826  22.917   6.206
 3846POPC   D2A50476  19.554  22.966   6.623
 3846POPC   C3A50477  19.764  23.060   7.025
 3846POPC   C4A50478  20.189  23.171   7.092
 3846POPC   C1B50479  19.607  22.491   6.368
 3846POPC   C2B50480  19.958  22.633   6.616
 3846POPC   C3B50481  19.967  22.598   7.015
 3846POPC   C4B50482  19.813  22.620   7.376
 3847POPC   NC350483   9.131  34.707   5.074
 3847POPC   PO450484   8.908  35.171   5.446
 3847POPC   GL150485   8.871  34.903   5.900
 3847POPC   GL250486   9.132  34.642   5.989
 3847POPC   C1A50487   8.860  35.028   6.247
 3847POPC   D2A50488   9.098  34.935   6.608
 3847POPC   C3A50489   8.942  34.641   6.893
 3847POPC   C4A50490   8.827  34.846   7.291
 3847POPC   C1B50491   8.928  34.527   6.347
 3847POPC   C2B50492   9.024  34.171   6.590
 3847POPC   C3B50493   9.140  34.059   6.980
 3847POPC   C4B50494   9.067  34.340   7.300
 3848POPC   NC350495  38.856  38.503   5.424
 3848POPC   PO450496  39.441  38.170   5.289
 3848POPC   GL150497  39.303  38.285   5.735
 3848POPC   GL250498  39.046  38.510   5.893
 3848POPC   C1A50499  39.368  38.247   6.203
 3848POPC   D2A50500  39.437  38.181   6.674
 3848POPC   C3A50501  39.500  38.499   7.006
 3848POPC   C4A50502  39.723  38.546   7.390
 3848POPC   C1B50503  38.887  38.411   6.316
 3848POPC   C2B50504  39.011  38.513   6.738
 3848POPC   C3B50505  39.022  38.307   7.094
 3848POPC   C4B50506  38.739  37.984   7.151
 3849POPC   NC350507  13.042  12.206   5.349
 3849POPC   PO450508  12.631  11.807   5.089
 3849POPC   GL150509  12.873  11.876   5.660
 3849POPC   GL250510  13.049  12.228   5.854
 3849POPC   C1A50511  12.822  11.892   6.145
 3849POPC   D2A50512  12.613  12.059   6.542
 3849POPC   C3A50513  12.772  11.888   6.940
 3849POPC   C4A50514  12.645  11.936   7.369
 3849POPC   C1B50515  12.997  12.356   6.308
 3849POPC   C2B50516  13.047  12.321   6.761
 3849POPC   C3B50517  12.877  12.354   7.190
 3849POPC   C4B50518  12.989  12.331   7.651
 3850POPC   NC350519  20.021   4.699   5.367
 3850POPC   PO450520  19.760   5.297   5.350
 3850POPC   GL150521  19.734   4.984   5.745
 3850POPC   GL250522  20.058   4.849   5.835
 3850POPC   C1A50523  19.854   5.079   6.232
 3850POPC   D2A50524  20.060   5.427   6.482
 3850POPC   C3A50525  20.016   5.406   6.936
 3850POPC   C4A50526  19.810   5.032   7.115
 3850POPC   C1B50527  20.193   4.659   6.191
 3850POPC   C2B50528  20.239   4.803   6.610
 3850POPC   C3B50529  20.316   4.988   7.019
 3850POPC   C4B50530  20.180   4.996   7.480
 3851POPC   NC350531  20.364  33.859   5.382
 3851POPC   PO450532  20.958  33.823   5.485
 3851POPC   GL150533  20.652  33.613   5.771
 3851POPC   GL250534  20.324  33.454   5.747
 3851POPC   C1A50535  20.698  33.397   6.154
 3851POPC   D2A50536  20.993  33.462   6.489
 3851POPC   C3A50537  20.781  33.668   6.816
 3851POPC   C4A50538  20.853  33.826   7.192
 3851POPC   C1B50539  20.254  33.689   6.153
 3851POPC   C2B50540  20.263  33.934   6.575
 3851POPC   C3B50541  20.406  34.019   7.026
 3851POPC   C4B50542  20.437  33.639   7.356
 3852POPC   NC350543  19.488   0.854   5.380
 3852POPC   PO450544  19.841   1.454   5.233
 3852POPC   GL150545  19.874   1.358   5.724
 3852POPC   GL250546  19.673   1.040   5.847
 3852POPC   C1A50547  19.975   1.231   6.182
 3852POPC   D2A50548  20.226   0.928   6.396
 3852POPC   C3A50549  20.011   0.920   6.785
 3852POPC   C4A50550  20.138   1.227   7.093
 3852POPC   C1B50551  19.453   1.093   6.264
 3852POPC   C2B50552  19.626   1.275   6.635
 3852POPC   C3B50553  19.629   1.204   7.071
 3852POPC   C4B50554  19.684   1.136   7.516
 3853POPC   NC350555  44.248  12.285   5.070
 3853POPC   PO450556  44.796  12.081   5.467
 3853POPC   GL150557  44.656  12.062   5.881
 3853POPC   GL250558  44.822  12.382   5.877
 3853POPC   C1A50559  44.716  12.067   6.308
 3853POPC   D2A50560  44.697  11.876   6.691
 3853POPC   C3A50561  44.419  11.991   7.018
 3853POPC   C4A50562  44.765  11.948   7.244
 3853POPC   C1B50563   0.001  12.485   6.246
 3853POPC   C2B50564   0.042  12.340   6.680
 3853POPC   C3B50565  44.880  12.415   7.093
 3853POPC   C4B50566  44.628  12.369   7.506
 3854POPC   NC350567   1.024   7.864   5.204
 3854POPC   PO450568   0.296   8.151   5.319
 3854POPC   GL150569   0.256   8.234   5.740
 3854POPC   GL250570   0.090   8.530   5.803
 3854POPC   C1A50571   0.451   8.066   6.109
 3854POPC   D2A50572   0.327   7.909   6.494
 3854POPC   C3A50573   0.558   8.029   6.812
 3854POPC   C4A50574   0.348   8.167   7.152
 3854POPC   C1B50575   0.424   8.589   6.101
 3854POPC   C2B50576   0.587   8.453   6.514
 3854POPC   C3B50577   0.640   8.541   6.958
 3854POPC   C4B50578   0.674   8.423   7.414
 3855POPC   NC350579  37.032  11.027   5.679
 3855POPC   PO450580  36.718  11.618   5.481
 3855POPC   GL150581  36.972  11.534   5.795
 3855POPC   GL250582  36.671  11.355   5.941
 3855POPC   C1A50583  37.080  11.477   6.222
 3855POPC   D2A50584  36.755  11.495   6.528
 3855POPC   C3A50585  36.847  11.214   6.842
 3855POPC   C4A50586  37.072  11.280   7.208
 3855POPC   C1B50587  36.361  11.224   6.274
 3855POPC   C2B50588  36.366  10.984   6.660
 3855POPC   C3B50589  36.467  10.967   7.082
 3855POPC   C4B50590  36.719  10.996   7.451
 3856POPC   NC350591  43.385   8.803   5.504
 3856POPC   PO450592  42.675   9.032   5.520
 3856POPC   GL150593  42.975   8.940   5.835
 3856POPC   GL250594  43.296   9.129   5.892
 3856POPC   C1A50595  42.924   9.034   6.270
 3856POPC   D2A50596  42.676   9.155   6.585
 3856POPC   C3A50597  42.898   9.087   6.956
 3856POPC   C4A50598  43.229   9.298   7.161
 3856POPC   C1B50599  43.305   8.726   6.176
 3856POPC   C2B50600  43.178   8.717   6.619
 3856POPC   C3B50601  43.404   8.828   7.019
 3856POPC   C4B50602  43.545   8.594   7.373
 3857POPC   NC350603  31.698   5.705   5.427
 3857POPC   PO450604  31.375   6.300   5.366
 3857POPC   GL150605  31.369   6.012   5.751
 3857POPC   GL250606  31.678   5.968   5.947
 3857POPC   C1A50607  31.218   5.849   6.170
 3857POPC   D2A50608  31.444   5.617   6.495
 3857POPC   C3A50609  31.292   5.620   6.913
 3857POPC   C4A50610  31.242   5.446   7.326
 3857POPC   C1B50611  31.490   6.288   6.234
 3857POPC   C2B50612  31.343   6.136   6.632
 3857POPC   C3B50613  31.480   6.106   7.070
 3857POPC   C4B50614  31.334   5.941   7.493
 3858POPC   NC350615  26.965   6.827   5.018
 3858POPC   PO450616  26.526   6.501   5.376
 3858POPC   GL150617  26.776   6.652   5.735
 3858POPC   GL250618  26.569   6.714   5.958
 3858POPC   C1A50619  27.073   6.580   6.122
 3858POPC   D2A50620  26.923   6.654   6.578
 3858POPC   C3A50621  27.156   6.548   6.971
 3858POPC   C4A50622  27.202   6.621   7.423
 3858POPC   C1B50623  26.801   7.019   6.210
 3858POPC   C2B50624  26.668   7.231   6.582
 3858POPC   C3B50625  26.747   7.020   6.983
 3858POPC   C4B50626  26.820   6.968   7.426
 3859POPC   NC350627   3.784  20.958   5.365
 3859POPC   PO450628   3.260  20.502   5.218
 3859POPC   GL150629   3.382  20.692   5.620
 3859POPC   GL250630   3.239  21.009   5.593
 3859POPC   C1A50631   3.589  20.628   6.053
 3859POPC   D2A50632   3.794  20.598   6.488
 3859POPC   C3A50633   3.729  20.380   6.895
 3859POPC   C4A50634   3.625  20.544   7.316
 3859POPC   C1B50635   3.198  20.971   6.066
 3859POPC   C2B50636   3.301  20.748   6.478
 3859POPC   C3B50637   3.477  20.880   6.898
 3859POPC   C4B50638   3.239  20.872   7.319
 3860POPC   NC350639  30.199  17.306   5.685
 3860POPC   PO450640  29.816  17.458   5.069
 3860POPC   GL150641  29.778  17.607   5.562
 3860POPC   GL250642  29.955  17.899   5.702
 3860POPC   C1A50643  29.762  17.602   6.082
 3860POPC   D2A50644  29.827  17.486   6.533
 3860POPC   C3A50645  29.642  17.612   6.930
 3860POPC   C4A50646  29.869  17.572   7.329
 3860POPC   C1B50647  30.151  17.917   6.174
 3860POPC   C2B50648  30.251  17.770   6.633
 3860POPC   C3B50649  30.164  17.947   7.067
 3860POPC   C4B50650  30.233  17.850   7.538
 3861POPC   NC350651  38.634  11.899   4.927
 3861POPC   PO450652  38.199  12.315   5.276
 3861POPC   GL150653  38.368  12.289   5.711
 3861POPC   GL250654  38.545  11.947   5.771
 3861POPC   C1A50655  38.307  12.211   6.151
 3861POPC   D2A50656  38.183  11.950   6.506
 3861POPC   C3A50657  38.341  12.104   6.896
 3861POPC   C4A50658  38.316  12.362   7.266
 3861POPC   C1B50659  38.784  12.041   6.152
 3861POPC   C2B50660  39.064  12.066   6.494
 3861POPC   C3B50661  39.038  11.925   6.916
 3861POPC   C4B50662  38.728  12.015   7.230
 3862POPC   NC350663   3.314   2.882   5.370
 3862POPC   PO450664   3.786   2.543   5.288
 3862POPC   GL150665   3.560   2.662   5.771
 3862POPC   GL250666   3.781   2.820   5.986
 3862POPC   C1A50667   3.374   2.569   6.222
 3862POPC   D2A50668   3.523   2.585   6.681
 3862POPC   C3A50669   3.295   2.678   7.077
 3862POPC   C4A50670   3.398   2.491   7.476
 3862POPC   C1B50671   3.899   2.559   6.337
 3862POPC   C2B50672   4.052   2.483   6.761
 3862POPC   C3B50673   3.815   2.554   7.152
 3862POPC   C4B50674   3.659   2.931   7.379
 3863POPC   NC350675  31.815  13.091   5.560
 3863POPC   PO450676  31.495  12.527   5.449
 3863POPC   GL150677  31.433  12.603   5.870
 3863POPC   GL250678  31.372  12.953   5.820
 3863POPC   C1A50679  31.494  12.583   6.322
 3863POPC   D2A50680  31.355  12.738   6.720
 3863POPC   C3A50681  31.377  12.539   7.133
 3863POPC   C4A50682  31.661  12.638   7.438
 3863POPC   C1B50683  31.592  13.072   6.209
 3863POPC   C2B50684  31.584  13.235   6.656
 3863POPC   C3B50685  31.666  13.001   7.049
 3863POPC   C4B50686  31.296  13.029   7.333
 3864POPC   NC350687  41.787  24.821   5.454
 3864POPC   PO450688  41.725  24.186   5.511
 3864POPC   GL150689  41.681  24.412   5.884
 3864POPC   GL250690  41.374  24.622   5.769
 3864POPC   C1A50691  41.676  24.241   6.334
 3864POPC   D2A50692  41.301  24.107   6.606
 3864POPC   C3A50693  41.316  24.364   6.990
 3864POPC   C4A50694  41.706  24.574   7.180
 3864POPC   C1B50695  41.239  24.443   6.168
 3864POPC   C2B50696  41.215  24.654   6.543
 3864POPC   C3B50697  41.418  24.853   6.867
 3864POPC   C4B50698  41.290  24.845   7.305
 3865POPC   NC350699  17.857  13.247   5.521
 3865POPC   PO450700  17.788  12.545   5.562
 3865POPC   GL150701  17.526  12.728   5.872
 3865POPC   GL250702  17.384  13.047   5.788
 3865POPC   C1A50703  17.413  12.704   6.310
 3865POPC   D2A50704  17.655  12.525   6.639
 3865POPC   C3A50705  17.522  12.796   6.962
 3865POPC   C4A50706  17.512  12.938   7.378
 3865POPC   C1B50707  17.526  13.182   6.188
 3865POPC   C2B50708  17.393  13.207   6.629
 3865POPC   C3B50709  17.190  13.197   7.055
 3865POPC   C4B50710  17.017  13.122   7.461
 3866POPC   NC350711   1.020  22.749   5.483
 3866POPC   PO450712   1.566  23.003   5.113
 3866POPC   GL150713   1.580  23.180   5.631
 3866POPC   GL250714   1.214  23.147   5.746
 3866POPC   C1A50715   1.544  23.150   6.121
 3866POPC   D2A50716   1.480  22.863   6.537
 3866POPC   C3A50717   1.306  23.003   6.962
 3866POPC   C4A50718   1.445  23.079   7.417
 3866POPC   C1B50719   1.082  22.932   6.127
 3866POPC   C2B50720   0.982  23.051   6.546
 3866POPC   C3B50721   0.801  23.187   6.929
 3866POPC   C4B50722   0.941  23.039   7.332
 3867POPC   NC350723  43.367   2.659   5.500
 3867POPC   PO450724  42.870   3.015   5.129
 3867POPC   GL150725  42.995   2.996   5.641
 3867POPC   GL250726  43.380   3.110   5.739
 3867POPC   C1A50727  43.045   3.117   6.121
 3867POPC   D2A50728  43.172   2.866   6.507
 3867POPC   C3A50729  42.997   2.862   6.932
 3867POPC   C4A50730  43.100   3.113   7.333
 3867POPC   C1B50731  43.537   2.881   6.118
 3867POPC   C2B50732  43.680   2.857   6.545
 3867POPC   C3B50733  43.505   2.799   6.961
 3867POPC   C4B50734  43.296   2.646   7.318
 3868POPC   NC350735   1.157  37.254   5.494
 3868POPC   PO450736   0.891  36.685   5.405
 3868POPC   GL150737   1.286  36.757   5.743
 3868POPC   GL250738   1.466  37.090   5.846
 3868POPC   C1A50739   1.448  36.640   6.198
 3868POPC   D2A50740   1.641  36.622   6.644
 3868POPC   C3A50741   1.396  36.567   7.016
 3868POPC   C4A50742   0.971  36.732   7.141
 3868POPC   C1B50743   1.267  37.131   6.223
 3868POPC   C2B50744   1.220  36.897   6.604
 3868POPC   C3B50745   1.310  37.080   6.976
 3868POPC   C4B50746   1.070  37.251   7.324
 3869POPC   NC350747   2.700   9.454   5.438
 3869POPC   PO450748   3.190   9.865   5.415
 3869POPC   GL150749   3.078   9.986   5.846
 3869POPC   GL250750   2.748   9.857   5.762
 3869POPC   C1A50751   3.011   9.963   6.326
 3869POPC   D2A50752   3.011   9.642   6.693
 3869POPC   C3A50753   3.184   9.741   7.094
 3869POPC   C4A50754   3.070   9.984   7.529
 3869POPC   C1B50755   2.735   9.573   6.091
 3869POPC   C2B50756   2.565   9.680   6.467
 3869POPC   C3B50757   2.531   9.690   6.892
 3869POPC   C4B50758   2.706   9.773   7.266
 3870POPC   NC350759  39.320  19.759   5.424
 3870POPC   PO450760  38.812  20.214   5.341
 3870POPC   GL150761  39.020  19.948   5.770
 3870POPC   GL250762  39.025  19.643   5.927
 3870POPC   C1A50763  39.232  19.978   6.247
 3870POPC   D2A50764  39.437  19.854   6.671
 3870POPC   C3A50765  39.269  20.064   7.074
 3870POPC   C4A50766  38.927  20.007   7.362
 3870POPC   C1B50767  39.462  19.528   6.093
 3870POPC   C2B50768  39.648  19.397   6.490
 3870POPC   C3B50769  39.463  19.321   6.891
 3870POPC   C4B50770  39.121  19.587   7.014
 3871POPC   NC350771  30.995  29.172   5.266
 3871POPC   PO450772  30.399  28.937   5.521
 3871POPC   GL150773  30.753  29.050   5.741
 3871POPC   GL250774  30.728  29.379   5.806
 3871POPC   C1A50775  30.771  28.983   6.189
 3871POPC   D2A50776  30.610  28.804   6.582
 3871POPC   C3A50777  30.772  29.068   6.920
 3871POPC   C4A50778  30.917  29.193   7.342
 3871POPC   C1B50779  30.387  29.337   6.142
 3871POPC   C2B50780  30.402  29.285   6.582
 3871POPC   C3B50781  30.508  29.519   6.962
 3871POPC   C4B50782  30.303  29.644   7.344
 3872POPC   NC350783  41.927  15.571   5.247
 3872POPC   PO450784  42.410  16.001   5.253
 3872POPC   GL150785  42.477  16.089   5.760
 3872POPC   GL250786  42.162  16.184   5.980
 3872POPC   C1A50787  42.525  15.863   6.182
 3872POPC   D2A50788  42.274  15.581   6.487
 3872POPC   C3A50789  42.103  15.713   6.906
 3872POPC   C4A50790  42.358  15.733   7.276
 3872POPC   C1B50791  42.050  16.276   6.371
 3872POPC   C2B50792  42.341  16.092   6.631
 3872POPC   C3B50793  42.550  16.127   6.994
 3872POPC   C4B50794  42.194  16.201   7.260
 3873POPC   NC350795  16.480  11.195   5.579
 3873POPC   PO450796  17.080  11.364   5.285
 3873POPC   GL150797  16.911  11.463   5.736
 3873POPC   GL250798  16.610  11.719   5.741
 3873POPC   C1A50799  16.828  11.225   6.171
 3873POPC   D2A50800  16.893  11.082   6.625
 3873POPC   C3A50801  16.635  11.202   7.002
 3873POPC   C4A50802  16.892  11.115   7.361
 3873POPC   C1B50803  16.702  11.722   6.193
 3873POPC   C2B50804  16.601  11.546   6.609
 3873POPC   C3B50805  16.697  11.686   7.065
 3873POPC   C4B50806  16.535  11.497   7.456
 3874POPC   NC350807  31.806  27.820   5.478
 3874POPC   PO450808  31.148  27.537   5.421
 3874POPC   GL150809  31.353  27.764   5.735
 3874POPC   GL250810  31.555  27.481   5.805
 3874POPC   C1A50811  31.496  27.849   6.178
 3874POPC   D2A50812  31.639  27.719   6.585
 3874POPC   C3A50813  31.442  27.695   6.977
 3874POPC   C4A50814  31.664  27.845   7.327
 3874POPC   C1B50815  31.665  27.361   6.223
 3874POPC   C2B50816  31.631  27.212   6.648
 3874POPC   C3B50817  31.549  27.209   7.070
 3874POPC   C4B50818  31.701  27.362   7.476
 3875POPC   NC350819  41.888  19.048   5.509
 3875POPC   PO450820  42.409  19.021   5.106
 3875POPC   GL150821  42.444  18.996   5.576
 3875POPC   GL250822  42.273  18.688   5.691
 3875POPC   C1A50823  42.652  19.128   5.980
 3875POPC   D2A50824  42.489  19.319   6.382
 3875POPC   C3A50825  42.759  19.377   6.766
 3875POPC   C4A50826  42.602  19.343   7.185
 3875POPC   C1B50827  42.224  18.840   6.113
 3875POPC   C2B50828  42.478  18.732   6.480
 3875POPC   C3B50829  42.473  18.650   6.920
 3875POPC   C4B50830  42.261  18.942   7.190
 3876POPC   NC350831   9.131  19.278   5.089
 3876POPC   PO450832   8.630  18.913   5.469
 3876POPC   GL150833   8.820  19.213   5.764
 3876POPC   GL250834   8.978  18.904   5.891
 3876POPC   C1A50835   9.008  19.285   6.203
 3876POPC   D2A50836   8.936  19.099   6.571
 3876POPC   C3A50837   8.852  19.358   6.918
 3876POPC   C4A50838   8.890  19.499   7.323
 3876POPC   C1B50839   9.348  18.891   6.140
 3876POPC   C2B50840   9.329  18.730   6.557
 3876POPC   C3B50841   9.007  18.692   6.865
 3876POPC   C4B50842   8.969  18.951   7.250
 3877POPC   NC350843  11.075  39.497   5.272
 3877POPC   PO450844  11.207  40.094   5.519
 3877POPC   GL150845  11.515  39.911   5.747
 3877POPC   GL250846  11.637  40.191   5.894
 3877POPC   C1A50847  11.383  39.665   6.065
 3877POPC   D2A50848  11.133  39.706   6.400
 3877POPC   C3A50849  11.343  39.688   6.784
 3877POPC   C4A50850  11.371  39.606   7.190
 3877POPC   C1B50851  11.280  40.173   6.163
 3877POPC   C2B50852  11.475  40.107   6.520
 3877POPC   C3B50853  11.511  40.152   6.938
 3877POPC   C4B50854  11.168  40.117   7.193
 3878POPC   NC350855  17.137   9.512   5.516
 3878POPC   PO450856  16.683   9.950   5.473
 3878POPC   GL150857  16.867   9.827   5.901
 3878POPC   GL250858  17.090   9.543   6.020
 3878POPC   C1A50859  17.096   9.986   6.300
 3878POPC   D2A50860  17.025  10.062   6.759
 3878POPC   C3A50861  16.856   9.761   7.126
 3878POPC   C4A50862  16.592   9.637   7.542
 3878POPC   C1B50863  16.990   9.519   6.482
 3878POPC   C2B50864  16.983   9.313   6.902
 3878POPC   C3B50865  16.929   9.311   7.364
 3878POPC   C4B50866  17.041   9.317   7.827
 3879POPC   NC350867  38.936   8.997   5.310
 3879POPC   PO450868  38.282   8.825   5.224
 3879POPC   GL150869  38.329   8.781   5.674
 3879POPC   GL250870  38.480   9.075   5.767
 3879POPC   C1A50871  38.586   8.672   6.057
 3879POPC   D2A50872  38.384   8.739   6.436
 3879POPC   C3A50873  38.452   8.759   6.875
 3879POPC   C4A50874  38.234   8.845   7.255
 3879POPC   C1B50875  38.363   9.187   6.202
 3879POPC   C2B50876  38.156   9.208   6.609
 3879POPC   C3B50877  38.331   9.292   7.020
 3879POPC   C4B50878  38.751   9.451   7.072
 3880POPC   NC350879  33.366  12.840   5.258
 3880POPC   PO450880  32.820  12.428   5.379
 3880POPC   GL150881  32.795  12.826   5.644
 3880POPC   GL250882  33.105  12.998   5.753
 3880POPC   C1A50883  32.766  12.797   6.115
 3880POPC   D2A50884  33.095  12.740   6.438
 3880POPC   C3A50885  33.045  12.673   6.877
 3880POPC   C4A50886  32.813  12.877   7.207
 3880POPC   C1B50887  33.290  13.151   6.149
 3880POPC   C2B50888  33.367  13.238   6.581
 3880POPC   C3B50889  33.124  13.192   6.952
 3880POPC   C4B50890  33.312  12.947   7.275
 3881POPC   NC350891  37.881  26.478   5.512
 3881POPC   PO450892  38.454  26.629   5.053
 3881POPC   GL150893  38.546  26.795   5.535
 3881POPC   GL250894  38.331  26.583   5.708
 3881POPC   C1A50895  38.370  26.969   6.013
 3881POPC   D2A50896  38.363  26.833   6.460
 3881POPC   C3A50897  38.466  27.061   6.828
 3881POPC   C4A50898  38.318  26.981   7.233
 3881POPC   C1B50899  38.487  26.470   6.125
 3881POPC   C2B50900  38.783  26.492   6.448
 3881POPC   C3B50901  38.654  26.591   6.846
 3881POPC   C4B50902  38.505  26.521   7.257
 3882POPC   NC350903  40.180  31.144   5.135
 3882POPC   PO450904  39.864  31.704   5.487
 3882POPC   GL150905  39.852  31.515   5.843
 3882POPC   GL250906  39.806  31.154   5.692
 3882POPC   C1A50907  40.124  31.587   6.201
 3882POPC   D2A50908  40.362  31.548   6.554
 3882POPC   C3A50909  40.125  31.541   6.949
 3882POPC   C4A50910  39.739  31.582   7.203
 3882POPC   C1B50911  39.859  31.118   6.151
 3882POPC   C2B50912  39.855  31.312   6.552
 3882POPC   C3B50913  39.778  31.157   6.943
 3882POPC   C4B50914  39.799  30.841   7.191
 3883POPC   NC350915  22.919   8.242   5.188
 3883POPC   PO450916  23.298   7.749   5.294
 3883POPC   GL150917  22.974   7.767   5.665
 3883POPC   GL250918  22.872   8.120   5.773
 3883POPC   C1A50919  22.911   7.769   6.145
 3883POPC   D2A50920  22.792   7.911   6.580
 3883POPC   C3A50921  22.688   7.807   7.020
 3883POPC   C4A50922  22.849   7.982   7.406
 3883POPC   C1B50923  22.861   8.294   6.241
 3883POPC   C2B50924  23.003   8.358   6.716
 3883POPC   C3B50925  23.216   8.367   7.143
 3883POPC   C4B50926  23.376   8.681   7.482
 3884POPC   NC350927  37.804  35.155   5.437
 3884POPC   PO450928  37.634  35.763   5.634
 3884POPC   GL150929  37.661  35.438   5.929
 3884POPC   GL250930  37.707  35.078   5.915
 3884POPC   C1A50931  38.051  35.435   6.169
 3884POPC   D2A50932  38.148  35.715   6.508
 3884POPC   C3A50933  37.862  35.568   6.804
 3884POPC   C4A50934  37.950  35.257   7.104
 3884POPC   C1B50935  37.938  34.935   6.242
 3884POPC   C2B50936  37.803  34.990   6.642
 3884POPC   C3B50937  37.468  35.212   6.797
 3884POPC   C4B50938  37.457  35.090   7.195
 3885POPC   NC350939  27.360  19.343   4.950
 3885POPC   PO450940  27.819  19.141   5.381
 3885POPC   GL150941  27.561  19.114   5.752
 3885POPC   GL250942  27.833  19.164   5.961
 3885POPC   C1A50943  27.436  18.875   6.149
 3885POPC   D2A50944  27.676  18.862   6.558
 3885POPC   C3A50945  27.544  19.005   6.971
 3885POPC   C4A50946  27.544  18.692   7.294
 3885POPC   C1B50947  27.593  19.330   6.315
 3885POPC   C2B50948  27.937  19.316   6.607
 3885POPC   C3B50949  28.074  19.147   6.975
 3885POPC   C4B50950  27.870  19.112   7.357
 3886POPC   NC350951  22.031   7.784   5.143
 3886POPC   PO450952  22.479   8.258   5.275
 3886POPC   GL150953  22.381   7.990   5.710
 3886POPC   GL250954  22.023   7.929   5.851
 3886POPC   C1A50955  22.423   8.004   6.205
 3886POPC   D2A50956  22.114   7.943   6.572
 3886POPC   C3A50957  22.166   8.064   6.999
 3886POPC   C4A50958  22.485   8.275   7.210
 3886POPC   C1B50959  21.968   8.271   6.210
 3886POPC   C2B50960  22.000   8.444   6.662
 3886POPC   C3B50961  22.068   8.576   7.106
 3886POPC   C4B50962  22.043   8.317   7.489
 3887POPC   NC350963   2.190  42.680   5.409
 3887POPC   PO450964   1.873  43.227   5.514
 3887POPC   GL150965   1.995  42.931   5.821
 3887POPC   GL250966   1.706  42.747   5.804
 3887POPC   C1A50967   2.099  43.017   6.233
 3887POPC   D2A50968   2.105  43.337   6.538
 3887POPC   C3A50969   1.962  43.150   6.891
 3887POPC   C4A50970   2.114  42.985   7.258
 3887POPC   C1B50971   1.809  42.593   6.223
 3887POPC   C2B50972   2.000  42.487   6.633
 3887POPC   C3B50973   1.861  42.580   7.061
 3887POPC   C4B50974   1.689  42.790   7.460
 3888POPC   NC350975  37.332  24.006   5.375
 3888POPC   PO450976  36.822  23.576   5.151
 3888POPC   GL150977  36.907  23.745   5.591
 3888POPC   GL250978  36.940  24.100   5.696
 3888POPC   C1A50979  36.979  23.664   6.041
 3888POPC   D2A50980  36.797  23.857   6.404
 3888POPC   C3A50981  36.803  23.709   6.816
 3888POPC   C4A50982  37.004  23.660   7.207
 3888POPC   C1B50983  37.236  24.133   6.062
 3888POPC   C2B50984  37.169  24.215   6.506
 3888POPC   C3B50985  37.206  24.027   6.922
 3888POPC   C4B50986  37.159  24.092   7.422
 3889POPC   NC350987   9.658  37.895   5.233
 3889POPC   PO450988  10.135  38.143   5.596
 3889POPC   GL150989   9.877  37.906   5.909
 3889POPC   GL250990   9.595  37.784   5.726
 3889POPC   C1A50991   9.915  37.793   6.398
 3889POPC   D2A50992  10.155  37.486   6.663
 3889POPC   C3A50993   9.861  37.379   7.001
 3889POPC   C4A50994   9.728  37.790   7.116
 3889POPC   C1B50995   9.550  37.591   6.118
 3889POPC   C2B50996   9.433  37.708   6.554
 3889POPC   C3B50997   9.251  37.654   6.952
 3889POPC   C4B50998   9.339  37.635   7.410
 3890POPC   NC350999  34.816  39.811   5.245
 3890POPC   PO451000  34.443  40.272   5.555
 3890POPC   GL151001  34.569  39.983   5.872
 3890POPC   GL251002  34.575  39.660   5.747
 3890POPC   C1A51003  34.515  39.960   6.337
 3890POPC   D2A51004  34.480  39.980   6.786
 3890POPC   C3A51005  34.796  40.181   7.029
 3890POPC   C4A51006  34.671  40.207   7.450
 3890POPC   C1B51007  34.611  39.472   6.183
 3890POPC   C2B51008  34.662  39.535   6.635
 3890POPC   C3B51009  34.819  39.653   7.067
 3890POPC   C4B51010  34.744  39.679   7.562
 3891POPC   NC351011  32.796  42.443   5.391
 3891POPC   PO451012  33.377  42.291   5.612
 3891POPC   GL151013  32.993  42.216   5.836
 3891POPC   GL251014  32.759  42.492   5.894
 3891POPC   C1A51015  33.033  42.213   6.275
 3891POPC   D2A51016  33.362  42.125   6.618
 3891POPC   C3A51017  33.236  42.265   7.049
 3891POPC   C4A51018  33.393  42.473   7.429
 3891POPC   C1B51019  32.608  42.555   6.294
 3891POPC   C2B51020  32.550  42.420   6.693
 3891POPC   C3B51021  32.623  42.456   7.139
 3891POPC   C4B51022  32.535  42.507   7.585
 3892POPC   NC351023  32.718  22.070   5.252
 3892POPC   PO451024  33.279  22.380   5.207
 3892POPC   GL151025  33.125  22.140   5.580
 3892POPC   GL251026  33.353  22.283   5.825
 3892POPC   C1A51027  32.876  22.199   6.016
 3892POPC   D2A51028  32.719  22.115   6.467
 3892POPC   C3A51029  32.897  22.330   6.841
 3892POPC   C4A51030  32.891  22.214   7.273
 3892POPC   C1B51031  33.318  22.185   6.274
 3892POPC   C2B51032  33.237  21.989   6.651
 3892POPC   C3B51033  33.255  21.896   7.063
 3892POPC   C4B51034  33.353  22.134   7.423
 3893POPC   NC351035  11.112  33.161   5.366
 3893POPC   PO451036  11.381  32.492   5.240
 3893POPC   GL151037  11.384  32.770   5.691
 3893POPC   GL251038  11.503  33.113   5.771
 3893POPC   C1A51039  11.162  32.853   6.151
 3893POPC   D2A51040  11.176  33.161   6.532
 3893POPC   C3A51041  11.162  33.014   6.971
 3893POPC   C4A51042  11.353  32.936   7.380
 3893POPC   C1B51043  11.660  32.936   6.191
 3893POPC   C2B51044  11.616  32.922   6.659
 3893POPC   C3B51045  11.661  33.175   7.044
 3893POPC   C4B51046  11.732  33.218   7.524
 3894POPC   NC351047  41.847  28.919   5.417
 3894POPC   PO451048  42.481  29.217   5.372
 3894POPC   GL151049  42.319  29.169   5.794
 3894POPC   GL251050  42.131  28.872   5.870
 3894POPC   C1A51051  42.461  29.089   6.241
 3894POPC   D2A51052  42.269  29.094   6.662
 3894POPC   C3A51053  42.600  29.211   6.969
 3894POPC   C4A51054  42.796  29.383   7.316
 3894POPC   C1B51055  42.089  28.717   6.305
 3894POPC   C2B51056  42.155  28.576   6.729
 3894POPC   C3B51057  42.253  28.814   7.114
 3894POPC   C4B51058  42.239  28.789   7.565
 3895POPC   NC351059  27.230  37.066   5.255
 3895POPC   PO451060  27.801  36.786   5.390
 3895POPC   GL151061  27.576  36.908   5.744
 3895POPC   GL251062  27.849  37.054   5.919
 3895POPC   C1A51063  27.351  37.118   6.100
 3895POPC   D2A51064  27.509  37.168   6.529
 3895POPC   C3A51065  27.312  37.040   6.934
 3895POPC   C4A51066  27.292  37.148   7.374
 3895POPC   C1B51067  27.651  36.702   6.196
 3895POPC   C2B51068  27.474  36.648   6.607
 3895POPC   C3B51069  27.680  36.667   7.002
 3895POPC   C4B51070  27.640  36.798   7.429
 3896POPC   NC351071   5.365  38.926   5.291
 3896POPC   PO451072   5.012  38.305   5.314
 3896POPC   GL151073   4.902  38.213   5.771
 3896POPC   GL251074   5.259  38.194   5.879
 3896POPC   C1A51075   4.806  38.361   6.244
 3896POPC   D2A51076   4.726  38.701   6.608
 3896POPC   C3A51077   4.927  38.689   7.046
 3896POPC   C4A51078   4.871  38.346   7.372
 3896POPC   C1B51079   5.307  38.494   6.244
 3896POPC   C2B51080   5.173  38.436   6.684
 3896POPC   C3B51081   5.346  38.350   7.123
 3896POPC   C4B51082   5.289  38.024   7.456
 3897POPC   NC351083  41.502  32.014   5.323
 3897POPC   PO451084  41.657  32.575   5.492
 3897POPC   GL151085  41.410  32.382   5.844
 3897POPC   GL251086  41.386  32.027   5.824
 3897POPC   C1A51087  41.428  32.428   6.309
 3897POPC   D2A51088  41.541  32.612   6.709
 3897POPC   C3A51089  41.656  32.381   7.077
 3897POPC   C4A51090  41.855  32.390   7.501
 3897POPC   C1B51091  41.196  31.954   6.238
 3897POPC   C2B51092  41.237  32.102   6.681
 3897POPC   C3B51093  41.392  31.909   7.046
 3897POPC   C4B51094  41.488  32.059   7.444
 3898POPC   NC351095  30.186  30.746   5.318
 3898POPC   PO451096  29.722  30.369   5.702
 3898POPC   GL151097  29.802  30.596   6.067
 3898POPC   GL251098  29.978  30.925   5.907
 3898POPC   C1A51099  29.602  30.682   6.416
 3898POPC   D2A51100  29.752  31.008   6.611
 3898POPC   C3A51101  29.990  30.916   6.959
 3898POPC   C4A51102  30.079  30.856   7.386
 3898POPC   C1B51103  30.183  30.946   6.304
 3898POPC   C2B51104  30.318  30.662   6.622
 3898POPC   C3B51105  30.399  30.585   7.051
 3898POPC   C4B51106  30.404  30.492   7.484
 3899POPC   NC351107   1.046  25.215   5.384
 3899POPC   PO451108   1.629  24.898   5.264
 3899POPC   GL151109   1.397  25.076   5.710
 3899POPC   GL251110   1.041  25.027   5.843
 3899POPC   C1A51111   1.294  25.384   6.096
 3899POPC   D2A51112   0.993  25.475   6.460
 3899POPC   C3A51113   1.181  25.668   6.831
 3899POPC   C4A51114   1.346  25.455   7.175
 3899POPC   C1B51115   1.157  24.803   6.179
 3899POPC   C2B51116   1.309  25.046   6.491
 3899POPC   C3B51117   1.488  25.050   6.859
 3899POPC   C4B51118   1.241  24.962   7.225
 3900POPC   NC351119  40.367   4.576   5.510
 3900POPC   PO451120  39.832   4.108   5.552
 3900POPC   GL151121  40.104   4.152   5.872
 3900POPC   GL251122  40.437   4.060   5.717
 3900POPC   C1A51123  39.842   4.276   6.233
 3900POPC   D2A51124  39.728   4.065   6.608
 3900POPC   C3A51125  39.736   4.386   6.892
 3900POPC   C4A51126  40.010   4.548   7.196
 3900POPC   C1B51127  40.551   4.157   6.131
 3900POPC   C2B51128  40.302   4.224   6.480
 3900POPC   C3B51129  40.207   4.192   6.890
 3900POPC   C4B51130  40.475   3.915   7.084
 3901POPC   NC351131  13.220  19.398   5.327
 3901POPC   PO451132  12.703  18.894   5.330
 3901POPC   GL151133  12.700  19.132   5.703
 3901POPC   GL251134  13.057  19.116   5.719
 3901POPC   C1A51135  12.646  19.171   6.175
 3901POPC   D2A51136  12.598  18.891   6.564
 3901POPC   C3A51137  12.502  19.010   7.001
 3901POPC   C4A51138  12.660  19.373   7.206
 3901POPC   C1B51139  13.148  19.003   6.120
 3901POPC   C2B51140  13.113  19.223   6.519
 3901POPC   C3B51141  13.108  19.061   6.935
 3901POPC   C4B51142  12.934  18.927   7.295
 3902POPC   NC351143  35.824   5.233   5.356
 3902POPC   PO451144  35.163   5.287   5.447
 3902POPC   GL151145  35.453   5.064   5.737
 3902POPC   GL251146  35.627   5.334   5.854
 3902POPC   C1A51147  35.441   4.934   6.210
 3902POPC   D2A51148  35.442   4.680   6.628
 3902POPC   C3A51149  35.552   4.854   7.049
 3902POPC   C4A51150  35.368   4.862   7.481
 3902POPC   C1B51151  35.554   5.435   6.292
 3902POPC   C2B51152  35.403   5.204   6.670
 3902POPC   C3B51153  35.279   5.267   7.118
 3902POPC   C4B51154  35.452   5.363   7.546
 3903POPC   NC351155  13.160  22.431   5.542
 3903POPC   PO451156  12.776  21.781   5.438
 3903POPC   GL151157  12.819  22.129   5.739
 3903POPC   GL251158  12.509  22.242   5.806
 3903POPC   C1A51159  12.919  22.465   6.134
 3903POPC   D2A51160  13.116  22.673   6.531
 3903POPC   C3A51161  13.169  22.361   6.880
 3903POPC   C4A51162  12.977  22.189   7.269
 3903POPC   C1B51163  12.706  21.996   6.195
 3903POPC   C2B51164  12.639  21.900   6.631
 3903POPC   C3B51165  12.483  22.112   6.997
 3903POPC   C4B51166  12.464  22.111   7.463
 3904POPC   NC351167  10.022  36.519   5.497
 3904POPC   PO451168   9.570  36.061   5.492
 3904POPC   GL151169   9.892  36.135   5.833
 3904POPC   GL251170   9.842  36.498   5.971
 3904POPC   C1A51171   9.874  36.047   6.292
 3904POPC   D2A51172   9.489  36.122   6.522
 3904POPC   C3A51173   9.489  36.246   6.937
 3904POPC   C4A51174   9.706  35.903   7.131
 3904POPC   C1B51175  10.199  36.444   6.253
 3904POPC   C2B51176  10.102  36.324   6.693
 3904POPC   C3B51177   9.964  36.382   7.132
 3904POPC   C4B51178   9.565  36.566   7.332
 3905POPC   NC351179  24.986  22.065   5.471
 3905POPC   PO451180  25.643  21.924   5.270
 3905POPC   GL151181  25.447  22.081   5.722
 3905POPC   GL251182  25.450  22.450   5.741
 3905POPC   C1A51183  25.194  22.258   6.143
 3905POPC   D2A51184  25.230  22.381   6.617
 3905POPC   C3A51185  24.901  22.262   6.976
 3905POPC   C4A51186  24.901  22.309   7.489
 3905POPC   C1B51187  25.602  22.603   6.152
 3905POPC   C2B51188  25.785  22.431   6.531
 3905POPC   C3B51189  25.691  22.362   6.947
 3905POPC   C4B51190  25.345  22.164   7.122
 3906POPC   NC351191   9.649  27.847   5.349
 3906POPC   PO451192   9.787  28.490   5.412
 3906POPC   GL151193   9.878  28.223   5.757
 3906POPC   GL251194   9.530  28.113   5.801
 3906POPC   C1A51195   9.839  28.271   6.212
 3906POPC   D2A51196  10.028  28.301   6.616
 3906POPC   C3A51197   9.929  28.589   6.960
 3906POPC   C4A51198   9.957  28.386   7.354
 3906POPC   C1B51199   9.350  28.162   6.238
 3906POPC   C2B51200   9.521  28.123   6.636
 3906POPC   C3B51201   9.603  28.195   7.045
 3906POPC   C4B51202   9.516  28.155   7.488
 3907POPC   NC351203  10.668  19.296   5.450
 3907POPC   PO451204  10.381  18.720   5.565
 3907POPC   GL151205  10.429  19.089   5.855
 3907POPC   GL251206  10.788  19.249   5.926
 3907POPC   C1A51207  10.418  19.174   6.299
 3907POPC   D2A51208  10.606  19.285   6.704
 3907POPC   C3A51209  10.446  19.041   7.053
 3907POPC   C4A51210  10.044  18.899   7.224
 3907POPC   C1B51211  10.810  18.864   6.122
 3907POPC   C2B51212  10.733  18.782   6.541
 3907POPC   C3B51213  10.936  18.890   6.922
 3907POPC   C4B51214  10.777  18.683   7.259
 3908POPC   NC351215   8.432  11.022   5.518
 3908POPC   PO451216   8.953  11.241   5.212
 3908POPC   GL151217   8.837  11.334   5.663
 3908POPC   GL251218   8.518  11.490   5.728
 3908POPC   C1A51219   8.763  11.153   6.093
 3908POPC   D2A51220   8.728  10.869   6.454
 3908POPC   C3A51221   8.964  11.002   6.813
 3908POPC   C4A51222   8.855  10.925   7.211
 3908POPC   C1B51223   8.752  11.669   6.086
 3908POPC   C2B51224   8.889  11.669   6.507
 3908POPC   C3B51225   8.798  11.538   6.916
 3908POPC   C4B51226   8.868  11.598   7.344
 3909POPC   NC351227  43.503   3.297   5.262
 3909POPC   PO451228  43.800   2.713   5.357
 3909POPC   GL151229  43.919   2.662   5.749
 3909POPC   GL251230  43.898   3.003   5.784
 3909POPC   C1A51231  44.026   2.659   6.181
 3909POPC   D2A51232  44.070   2.447   6.567
 3909POPC   C3A51233  43.994   2.686   6.920
 3909POPC   C4A51234  44.150   2.866   7.268
 3909POPC   C1B51235  43.992   3.158   6.185
 3909POPC   C2B51236  44.118   3.098   6.599
 3909POPC   C3B51237  43.864   3.199   6.939
 3909POPC   C4B51238  43.627   3.166   7.309
 3910POPC   NC351239  14.677  35.490   5.640
 3910POPC   PO451240  15.164  35.196   5.298
 3910POPC   GL151241  15.133  35.331   5.778
 3910POPC   GL251242  15.430  35.381   5.977
 3910POPC   C1A51243  14.896  35.156   6.172
 3910POPC   D2A51244  15.055  35.163   6.605
 3910POPC   C3A51245  14.877  35.290   6.999
 3910POPC   C4A51246  14.918  35.143   7.413
 3910POPC   C1B51247  15.112  35.603   6.241
 3910POPC   C2B51248  15.054  35.675   6.661
 3910POPC   C3B51249  15.337  35.516   6.956
 3910POPC   C4B51250  15.401  35.242   7.291
 3911POPC   NC351251  41.476  27.252   5.070
 3911POPC   PO451252  41.897  27.631   5.522
 3911POPC   GL151253  41.811  27.556   5.904
 3911POPC   GL251254  41.434  27.559   5.841
 3911POPC   C1A51255  41.635  27.711   6.283
 3911POPC   D2A51256  41.373  27.729   6.612
 3911POPC   C3A51257  41.625  27.777   6.955
 3911POPC   C4A51258  41.532  27.601   7.311
 3911POPC   C1B51259  41.189  27.414   6.226
 3911POPC   C2B51260  41.202  27.222   6.651
 3911POPC   C3B51261  41.185  27.264   7.119
 3911POPC   C4B51262  41.183  27.365   7.568
 3912POPC   NC351263  42.077  17.483   5.153
 3912POPC   PO451264  41.526  17.289   5.494
 3912POPC   GL151265  41.447  17.443   5.921
 3912POPC   GL251266  41.287  17.815   5.928
 3912POPC   C1A51267  41.628  17.585   6.307
 3912POPC   D2A51268  41.900  17.907   6.512
 3912POPC   C3A51269  41.887  17.852   6.952
 3912POPC   C4A51270  41.868  17.405   7.113
 3912POPC   C1B51271  41.104  17.579   6.271
 3912POPC   C2B51272  41.256  17.452   6.691
 3912POPC   C3B51273  41.342  17.286   7.138
 3912POPC   C4B51274  41.216  17.174   7.569
 3913POPC   NC351275   6.387  30.425   5.420
 3913POPC   PO451276   6.410  29.763   5.447
 3913POPC   GL151277   6.464  30.059   5.773
 3913POPC   GL251278   6.786  30.174   5.833
 3913POPC   C1A51279   6.258  30.085   6.175
 3913POPC   D2A51280   6.461  29.957   6.565
 3913POPC   C3A51281   6.339  29.629   6.849
 3913POPC   C4A51282   6.499  29.694   7.283
 3913POPC   C1B51283   6.781  29.877   6.147
 3913POPC   C2B51284   6.992  29.846   6.522
 3913POPC   C3B51285   6.841  29.862   6.928
 3913POPC   C4B51286   7.014  29.749   7.303
 3914POPC   NC351287   6.786  44.274   5.435
 3914POPC   PO451288   6.943  44.924   5.400
 3914POPC   GL151289   6.589  44.838   5.751
 3914POPC   GL251290   6.405  44.520   5.712
 3914POPC   C1A51291   6.531  44.875   6.232
 3914POPC   D2A51292   6.663  44.631   6.616
 3914POPC   C3A51293   6.785  44.739   7.073
 3914POPC   C4A51294   6.576   0.075   7.284
 3914POPC   C1B51295   6.190  44.483   6.099
 3914POPC   C2B51296   6.124  44.635   6.530
 3914POPC   C3B51297   6.269  44.568   6.952
 3914POPC   C4B51298   6.401  44.462   7.349
 3915POPC   NC351299  12.216   2.221   5.481
 3915POPC   PO451300  11.590   2.057   5.192
 3915POPC   GL151301  11.784   2.003   5.681
 3915POPC   GL251302  12.052   1.827   5.765
 3915POPC   C1A51303  11.898   2.100   6.170
 3915POPC   D2A51304  11.920   1.908   6.602
 3915POPC   C3A51305  12.003   2.155   6.973
 3915POPC   C4A51306  12.260   2.074   7.326
 3915POPC   C1B51307  12.280   1.732   6.168
 3915POPC   C2B51308  12.219   1.498   6.557
 3915POPC   C3B51309  12.290   1.679   6.962
 3915POPC   C4B51310  12.580   1.556   7.313
 3916POPC   NC351311  24.715  21.103   5.488
 3916POPC   PO451312  24.294  20.451   5.449
 3916POPC   GL151313  24.318  20.551   5.868
 3916POPC   GL251314  24.593  20.759   5.864
 3916POPC   C1A51315  24.448  20.434   6.284
 3916POPC   D2A51316  24.254  20.421   6.687
 3916POPC   C3A51317  24.517  20.507   7.036
 3916POPC   C4A51318  24.746  20.339   7.373
 3916POPC   C1B51319  24.433  20.972   6.232
 3916POPC   C2B51320  24.600  21.172   6.570
 3916POPC   C3B51321  24.729  20.991   6.941
 3916POPC   C4B51322  24.667  20.863   7.356
 3917POPC   NC351323   8.596  39.611   5.240
 3917POPC   PO451324   8.848  40.126   5.436
 3917POPC   GL151325   8.881  39.883   5.762
 3917POPC   GL251326   8.716  39.578   5.721
 3917POPC   C1A51327   8.935  40.051   6.175
 3917POPC   D2A51328   9.184  40.108   6.543
 3917POPC   C3A51329   9.088  39.913   6.926
 3917POPC   C4A51330   9.272  40.039   7.337
 3917POPC   C1B51331   8.605  39.672   6.139
 3917POPC   C2B51332   8.589  39.914   6.542
 3917POPC   C3B51333   8.574  39.767   6.974
 3917POPC   C4B51334   8.839  39.589   7.255
 3918POPC   NC351335  38.117  17.670   5.589
 3918POPC   PO451336  37.715  17.135   5.349
 3918POPC   GL151337  37.616  17.413   5.693
 3918POPC   GL251338  37.376  17.665   5.582
 3918POPC   C1A51339  37.638  17.320   6.139
 3918POPC   D2A51340  37.652  17.155   6.558
 3918POPC   C3A51341  37.910  17.394   6.853
 3918POPC   C4A51342  37.836  17.328   7.267
 3918POPC   C1B51343  37.309  17.696   6.023
 3918POPC   C2B51344  37.506  17.745   6.432
 3918POPC   C3B51345  37.431  17.569   6.819
 3918POPC   C4B51346  37.502  17.707   7.194
 3919POPC   NC351347  27.872  18.693   5.511
 3919POPC   PO451348  27.302  18.308   5.578
 3919POPC   GL151349  27.291  17.983   5.863
 3919POPC   GL251350  27.644  17.966   5.873
 3919POPC   C1A51351  27.300  18.104   6.301
 3919POPC   D2A51352  27.282  18.484   6.559
 3919POPC   C3A51353  27.424  18.337   6.951
 3919POPC   C4A51354  27.416  17.943   7.156
 3919POPC   C1B51355  27.981  17.824   6.154
 3919POPC   C2B51356  28.126  17.967   6.559
 3919POPC   C3B51357  27.933  17.988   6.955
 3919POPC   C4B51358  27.856  18.243   7.277
 3920POPC   NC351359  41.758   3.613   5.074
 3920POPC   PO451360  41.241   3.371   5.485
 3920POPC   GL151361  41.423   3.610   5.787
 3920POPC   GL251362  41.775   3.664   5.719
 3920POPC   C1A51363  41.502   3.538   6.214
 3920POPC   D2A51364  41.230   3.666   6.556
 3920POPC   C3A51365  41.434   3.589   6.929
 3920POPC   C4A51366  41.267   3.626   7.334
 3920POPC   C1B51367  41.903   3.889   6.104
 3920POPC   C2B51368  41.975   3.727   6.527
 3920POPC   C3B51369  41.927   3.783   6.994
 3920POPC   C4B51370  41.815   3.374   7.214
 3921POPC   NC351371  14.124  42.888   5.386
 3921POPC   PO451372  13.552  43.204   5.295
 3921POPC   GL151373  13.616  43.123   5.721
 3921POPC   GL251374  13.824  42.847   5.797
 3921POPC   C1A51375  13.660  43.150   6.164
 3921POPC   D2A51376  13.429  43.030   6.497
 3921POPC   C3A51377  13.507  43.294   6.826
 3921POPC   C4A51378  13.587  43.136   7.216
 3921POPC   C1B51379  13.908  42.683   6.208
 3921POPC   C2B51380  13.898  42.895   6.633
 3921POPC   C3B51381  14.010  42.854   7.081
 3921POPC   C4B51382  13.836  42.698   7.443
 3922POPC   NC351383  43.049   0.923   5.379
 3922POPC   PO451384  43.437   0.435   5.508
 3922POPC   GL151385  43.072   0.501   5.740
 3922POPC   GL251386  42.930   0.796   5.833
 3922POPC   C1A51387  42.943   0.368   6.140
 3922POPC   D2A51388  43.203   0.133   6.448
 3922POPC   C3A51389  43.179   0.315   6.868
 3922POPC   C4A51390  43.045   0.333   7.302
 3922POPC   C1B51391  43.119   0.857   6.185
 3922POPC   C2B51392  42.992   0.689   6.554
 3922POPC   C3B51393  42.887   0.764   6.968
 3922POPC   C4B51394  43.232   0.803   7.233
 3923POPC   NC351395  38.125   0.795   5.482
 3923POPC   PO451396  38.774   0.454   5.472
 3923POPC   GL151397  38.533   0.420   5.843
 3923POPC   GL251398  38.217   0.570   5.946
 3923POPC   C1A51399  38.627   0.539   6.258
 3923POPC   D2A51400  38.371   0.642   6.600
 3923POPC   C3A51401  38.543   0.467   7.001
 3923POPC   C4A51402  38.553   0.323   7.431
 3923POPC   C1B51403  37.903   0.800   6.200
 3923POPC   C2B51404  37.829   0.854   6.652
 3923POPC   C3B51405  38.043   0.664   6.994
 3923POPC   C4B51406  38.217   0.699   7.363
 3924POPC   NC351407  40.830  37.735   5.360
 3924POPC   PO451408  40.327  37.889   5.283
 3924POPC   GL151409  40.281  37.855   5.750
 3924POPC   GL251410  40.634  37.822   5.836
 3924POPC   C1A51411  40.334  37.882   6.247
 3924POPC   D2A51412  40.552  37.775   6.657
 3924POPC   C3A51413  40.372  37.786   7.091
 3924POPC   C4A51414  40.529  38.050   7.445
 3924POPC   C1B51415  40.890  37.932   6.226
 3924POPC   C2B51416  41.089  37.730   6.591
 3924POPC   C3B51417  40.923  37.495   6.914
 3924POPC   C4B51418  40.805  37.585   7.308
 3925POPC   NC351419  11.137  13.666   5.126
 3925POPC   PO451420  10.977  13.218   5.552
 3925POPC   GL151421  11.125  13.380   5.877
 3925POPC   GL251422  11.176  13.665   5.683
 3925POPC   C1A51423  11.114  13.220   6.284
 3925POPC   D2A51424  10.947  13.262   6.687
 3925POPC   C3A51425  11.255  13.341   6.952
 3925POPC   C4A51426  11.356  13.636   7.241
 3925POPC   C1B51427  11.262  13.784   6.129
 3925POPC   C2B51428  11.283  13.646   6.527
 3925POPC   C3B51429  11.278  13.932   6.841
 3925POPC   C4B51430  11.330  14.141   7.227
 3926POPC   NC351431  22.266  20.200   5.478
 3926POPC   PO451432  21.951  19.656   5.267
 3926POPC   GL151433  22.149  19.727   5.778
 3926POPC   GL251434  22.495  19.883   5.785
 3926POPC   C1A51435  22.106  19.939   6.198
 3926POPC   D2A51436  22.016  19.725   6.565
 3926POPC   C3A51437  21.874  19.893   6.928
 3926POPC   C4A51438  21.795  19.606   7.265
 3926POPC   C1B51439  22.567  19.713   6.170
 3926POPC   C2B51440  22.523  19.595   6.590
 3926POPC   C3B51441  22.407  19.939   6.846
 3926POPC   C4B51442  22.251  20.042   7.244
 3927POPC   NC351443  11.453   2.346   5.535
 3927POPC   PO451444  10.993   2.821   5.295
 3927POPC   GL151445  11.125   2.722   5.732
 3927POPC   GL251446  11.098   2.393   5.917
 3927POPC   C1A51447  11.244   2.835   6.157
 3927POPC   D2A51448  11.223   2.655   6.566
 3927POPC   C3A51449  11.299   2.899   6.910
 3927POPC   C4A51450  11.019   3.016   7.215
 3927POPC   C1B51451  11.448   2.352   6.211
 3927POPC   C2B51452  11.584   2.292   6.642
 3927POPC   C3B51453  11.622   2.510   7.046
 3927POPC   C4B51454  11.265   2.595   7.326
 3928POPC   NC351455  37.574  14.272   5.403
 3928POPC   PO451456  37.430  14.829   5.501
 3928POPC   GL151457  37.587  14.577   5.833
 3928POPC   GL251458  37.857  14.299   5.824
 3928POPC   C1A51459  37.426  14.682   6.213
 3928POPC   D2A51460  37.539  14.732   6.630
 3928POPC   C3A51461  37.510  14.484   6.965
 3928POPC   C4A51462  37.919  14.446   7.143
 3928POPC   C1B51463  37.799  14.329   6.279
 3928POPC   C2B51464  37.992  14.200   6.667
 3928POPC   C3B51465  37.944  13.942   7.009
 3928POPC   C4B51466  37.593  14.055   7.226
 3929POPC   NC351467  22.894  37.632   5.399
 3929POPC   PO451468  22.633  37.187   5.834
 3929POPC   GL151469  22.959  37.494   5.875
 3929POPC   GL251470  22.789  37.817   5.852
 3929POPC   C1A51471  23.165  37.674   6.205
 3929POPC   D2A51472  22.959  37.577   6.579
 3929POPC   C3A51473  23.167  37.702   6.934
 3929POPC   C4A51474  23.309  37.597   7.342
 3929POPC   C1B51475  22.562  38.021   6.161
 3929POPC   C2B51476  22.719  38.038   6.557
 3929POPC   C3B51477  22.660  37.857   6.948
 3929POPC   C4B51478  22.804  37.634   7.291
 3930POPC   NC351479  14.716  42.741   5.523
 3930POPC   PO451480  14.230  43.307   5.576
 3930POPC   GL151481  14.498  43.148   5.810
 3930POPC   GL251482  14.327  42.868   5.874
 3930POPC   C1A51483  14.617  43.360   6.158
 3930POPC   D2A51484  14.437  43.507   6.542
 3930POPC   C3A51485  14.670  43.435   6.905
 3930POPC   C4A51486  14.463  43.184   7.185
 3930POPC   C1B51487  14.212  43.089   6.270
 3930POPC   C2B51488  14.382  43.015   6.697
 3930POPC   C3B51489  14.484  42.691   6.997
 3930POPC   C4B51490  14.789  42.615   7.330
 3931POPC   NC351491  31.127   4.890   5.529
 3931POPC   PO451492  31.671   5.232   5.405
 3931POPC   GL151493  31.524   5.140   5.802
 3931POPC   GL251494  31.622   4.796   5.837
 3931POPC   C1A51495  31.578   5.155   6.245
 3931POPC   D2A51496  31.673   4.870   6.581
 3931POPC   C3A51497  31.708   5.082   6.983
 3931POPC   C4A51498  31.657   4.835   7.349
 3931POPC   C1B51499  31.310   4.712   6.171
 3931POPC   C2B51500  31.175   4.585   6.587
 3931POPC   C3B51501  31.307   4.714   6.993
 3931POPC   C4B51502  31.118   4.839   7.399
 3932POPC   NC351503  21.010  24.278   5.532
 3932POPC   PO451504  21.652  24.440   5.597
 3932POPC   GL151505  21.403  24.360   5.882
 3932POPC   GL251506  21.196  24.665   5.803
 3932POPC   C1A51507  21.537  24.221   6.290
 3932POPC   D2A51508  21.795  24.432   6.600
 3932POPC   C3A51509  21.521  24.462   6.900
 3932POPC   C4A51510  21.336  24.417   7.283
 3932POPC   C1B51511  21.025  24.483   6.175
 3932POPC   C2B51512  21.060  24.232   6.525
 3932POPC   C3B51513  20.993  24.352   6.914
 3932POPC   C4B51514  20.862  24.257   7.298
 3933POPC   NC351515  24.730  41.779   5.335
 3933POPC   PO451516  25.250  41.536   5.493
 3933POPC   GL151517  25.152  41.470   5.921
 3933POPC   GL251518  25.061  41.800   5.920
 3933POPC   C1A51519  24.991  41.190   6.257
 3933POPC   D2A51520  24.826  41.251   6.685
 3933POPC   C3A51521  25.181  41.464   6.898
 3933POPC   C4A51522  25.573  41.352   7.152
 3933POPC   C1B51523  24.813  41.686   6.259
 3933POPC   C2B51524  24.685  41.744   6.651
 3933POPC   C3B51525  24.838  41.806   7.073
 3933POPC   C4B51526  25.124  42.062   7.340
 3934POPC   NC351527  20.834  21.585   5.325
 3934POPC   PO451528  20.582  22.205   5.185
 3934POPC   GL151529  20.681  22.208   5.645
 3934POPC   GL251530  20.818  21.918   5.785
 3934POPC   C1A51531  20.715  22.352   6.090
 3934POPC   D2A51532  20.895  22.542   6.473
 3934POPC   C3A51533  20.816  22.314   6.859
 3934POPC   C4A51534  20.681  22.189   7.265
 3934POPC   C1B51535  20.379  21.967   6.017
 3934POPC   C2B51536  20.272  21.864   6.458
 3934POPC   C3B51537  20.190  21.766   6.909
 3934POPC   C4B51538  20.387  21.730   7.334
 3935POPC   NC351539   8.970  16.095   5.396
 3935POPC   PO451540   9.075  15.548   5.735
 3935POPC   GL151541   9.084  15.945   5.887
 3935POPC   GL251542   8.742  16.013   5.843
 3935POPC   C1A51543   9.218  16.021   6.336
 3935POPC   D2A51544   9.123  15.889   6.703
 3935POPC   C3A51545   9.171  16.028   7.090
 3935POPC   C4A51546   9.145  15.770   7.439
 3935POPC   C1B51547   8.740  15.891   6.263
 3935POPC   C2B51548   8.631  15.864   6.674
 3935POPC   C3B51549   8.740  15.715   7.078
 3935POPC   C4B51550   8.717  16.054   7.347
 3936POPC   NC351551  42.142   1.700   5.387
 3936POPC   PO451552  42.606   2.141   5.177
 3936POPC   GL151553  42.392   2.138   5.611
 3936POPC   GL251554  42.262   1.856   5.846
 3936POPC   C1A51555  42.476   2.262   6.063
 3936POPC   D2A51556  42.410   2.325   6.523
 3936POPC   C3A51557  42.574   2.079   6.860
 3936POPC   C4A51558  42.494   2.200   7.302
 3936POPC   C1B51559  42.594   1.763   6.156
 3936POPC   C2B51560  42.689   1.645   6.550
 3936POPC   C3B51561  42.350   1.551   6.808
 3936POPC   C4B51562  42.251   1.771   7.131
 3937POPC   NC351563  21.929  14.702   5.682
 3937POPC   PO451564  22.139  14.131   5.465
 3937POPC   GL151565  22.328  14.417   5.806
 3937POPC   GL251566  22.071  14.307   6.012
 3937POPC   C1A51567  22.415  14.617   6.232
 3937POPC   D2A51568  22.360  14.323   6.550
 3937POPC   C3A51569  22.540  14.334   6.957
 3937POPC   C4A51570  22.398  14.239   7.394
 3937POPC   C1B51571  21.882  14.576   6.310
 3937POPC   C2B51572  22.053  14.687   6.671
 3937POPC   C3B51573  22.049  14.432   7.061
 3937POPC   C4B51574  21.925  14.664   7.455
 3938POPC   NC351575  28.356  33.321   5.509
 3938POPC   PO451576  28.677  33.996   5.485
 3938POPC   GL151577  28.373  33.799   5.787
 3938POPC   GL251578  28.602  33.571   5.863
 3938POPC   C1A51579  28.246  33.701   6.246
 3938POPC   D2A51580  28.076  33.451   6.631
 3938POPC   C3A51581  28.260  33.549   7.058
 3938POPC   C4A51582  28.188  33.934   7.273
 3938POPC   C1B51583  28.723  33.907   6.144
 3938POPC   C2B51584  28.886  33.838   6.517
 3938POPC   C3B51585  28.687  33.839   6.922
 3938POPC   C4B51586  28.704  34.020   7.341
 3939POPC   NC351587  29.324   4.455   5.492
 3939POPC   PO451588  28.765   4.075   5.436
 3939POPC   GL151589  29.017   4.115   5.805
 3939POPC   GL251590  29.355   3.981   5.751
 3939POPC   C1A51591  28.926   4.201   6.243
 3939POPC   D2A51592  29.129   4.045   6.613
 3939POPC   C3A51593  28.936   4.275   6.922
 3939POPC   C4A51594  28.818   4.239   7.347
 3939POPC   C1B51595  29.433   4.149   6.183
 3939POPC   C2B51596  29.638   4.297   6.559
 3939POPC   C3B51597  29.534   4.150   6.937
 3939POPC   C4B51598  29.319   4.320   7.262
 3940POPC   NC351599   5.777   9.283   5.429
 3940POPC   PO451600   5.808   8.640   5.279
 3940POPC   GL151601   5.963   8.855   5.665
 3940POPC   GL251602   6.051   8.606   5.856
 3940POPC   C1A51603   5.795   8.978   6.115
 3940POPC   D2A51604   5.690   8.697   6.483
 3940POPC   C3A51605   5.685   8.877   6.918
 3940POPC   C4A51606   5.541   8.629   7.275
 3940POPC   C1B51607   6.259   8.815   6.201
 3940POPC   C2B51608   6.096   9.002   6.558
 3940POPC   C3B51609   6.186   8.887   6.950
 3940POPC   C4B51610   6.045   8.672   7.266
 3941POPC   NC351611  21.615   3.122   5.429
 3941POPC   PO451612  21.837   3.794   5.347
 3941POPC   GL151613  21.560   3.784   5.687
 3941POPC   GL251614  21.480   3.447   5.803
 3941POPC   C1A51615  21.354   3.830   6.115
 3941POPC   D2A51616  21.175   3.508   6.427
 3941POPC   C3A51617  21.295   3.567   6.875
 3941POPC   C4A51618  21.280   3.779   7.283
 3941POPC   C1B51619  21.612   3.252   6.184
 3941POPC   C2B51620  21.528   3.175   6.620
 3941POPC   C3B51621  21.627   3.113   7.021
 3941POPC   C4B51622  21.567   3.374   7.301
 3942POPC   NC351623  20.367   8.041   5.284
 3942POPC   PO451624  20.911   8.325   5.402
 3942POPC   GL151625  20.609   8.167   5.746
 3942POPC   GL251626  20.414   7.811   5.747
 3942POPC   C1A51627  20.573   8.412   6.160
 3942POPC   D2A51628  20.285   8.587   6.496
 3942POPC   C3A51629  20.403   8.498   6.908
 3942POPC   C4A51630  20.522   8.137   7.120
 3942POPC   C1B51631  20.398   7.943   6.196
 3942POPC   C2B51632  20.647   8.044   6.585
 3942POPC   C3B51633  20.841   7.799   6.936
 3942POPC   C4B51634  20.615   7.672   7.317
 3943POPC   NC351635   6.564  34.286   5.371
 3943POPC   PO451636   6.964  34.748   5.308
 3943POPC   GL151637   6.853  34.622   5.711
 3943POPC   GL251638   7.020  34.314   5.717
 3943POPC   C1A51639   6.572  34.766   6.093
 3943POPC   D2A51640   6.355  34.720   6.524
 3943POPC   C3A51641   6.643  34.766   6.882
 3943POPC   C4A51642   6.731  34.729   7.344
 3943POPC   C1B51643   6.885  34.362   6.158
 3943POPC   C2B51644   6.722  34.316   6.586
 3943POPC   C3B51645   6.724  34.291   7.034
 3943POPC   C4B51646   7.068  34.253   7.322
 3944POPC   NC351647  10.107  29.971   5.487
 3944POPC   PO451648   9.467  30.000   5.256
 3944POPC   GL151649   9.658  29.822   5.670
 3944POPC   GL251650   9.522  29.487   5.755
 3944POPC   C1A51651   9.899  29.933   6.102
 3944POPC   D2A51652  10.056  30.075   6.507
 3944POPC   C3A51653   9.878  30.092   6.907
 3944POPC   C4A51654  10.013  29.891   7.284
 3944POPC   C1B51655   9.581  29.549   6.185
 3944POPC   C2B51656   9.642  29.726   6.589
 3944POPC   C3B51657   9.696  29.594   7.010
 3944POPC   C4B51658   9.531  29.520   7.426
 3945POPC   NC351659  23.379  23.721   5.362
 3945POPC   PO451660  22.809  23.320   5.357
 3945POPC   GL151661  22.801  23.511   5.751
 3945POPC   GL251662  23.102  23.668   5.787
 3945POPC   C1A51663  22.716  23.522   6.184
 3945POPC   D2A51664  22.952  23.463   6.567
 3945POPC   C3A51665  22.764  23.527   6.970
 3945POPC   C4A51666  22.793  23.678   7.384
 3945POPC   C1B51667  23.189  23.734   6.205
 3945POPC   C2B51668  23.177  23.984   6.586
 3945POPC   C3B51669  23.100  23.939   7.033
 3945POPC   C4B51670  23.147  24.029   7.493
 3946POPC   NC351671   0.138  34.781   5.264
 3946POPC   PO451672   0.570  34.355   5.546
 3946POPC   GL151673   0.479  34.661   5.810
 3946POPC   GL251674   0.803  34.824   5.838
 3946POPC   C1A51675   0.414  34.504   6.238
 3946POPC   D2A51676   0.643  34.326   6.592
 3946POPC   C3A51677   0.401  34.460   6.946
 3946POPC   C4A51678   0.251  34.472   7.327
 3946POPC   C1B51679   0.651  34.954   6.217
 3946POPC   C2B51680   0.539  34.838   6.645
 3946POPC   C3B51681   0.345  34.951   7.072
 3946POPC   C4B51682   0.132  34.955   7.502
 3947POPC   NC351683  20.887  41.232   5.462
 3947POPC   PO451684  20.455  40.690   5.347
 3947POPC   GL151685  20.645  40.736   5.765
 3947POPC   GL251686  20.657  41.079   5.885
 3947POPC   C1A51687  20.704  40.695   6.229
 3947POPC   D2A51688  20.464  40.695   6.607
 3947POPC   C3A51689  20.693  40.813   7.004
 3947POPC   C4A51690  20.907  40.826   7.429
 3947POPC   C1B51691  20.388  41.131   6.247
 3947POPC   C2B51692  20.390  41.229   6.678
 3947POPC   C3B51693  20.413  41.257   7.106
 3947POPC   C4B51694  20.719  41.303   7.448
 3948POPC   NC351695  40.842  41.251   5.106
 3948POPC   PO451696  41.061  41.822   5.358
 3948POPC   GL151697  40.803  41.703   5.715
 3948POPC   GL251698  40.750  41.359   5.694
 3948POPC   C1A51699  40.670  41.853   6.134
 3948POPC   D2A51700  40.780  41.681   6.559
 3948POPC   C3A51701  41.045  41.405   6.822
 3948POPC   C4A51702  40.910  41.603   7.202
 3948POPC   C1B51703  40.524  41.357   6.104
 3948POPC   C2B51704  40.283  41.617   6.407
 3948POPC   C3B51705  40.235  41.528   6.823
 3948POPC   C4B51706  40.458  41.397   7.193
 3949POPC   NC351707  36.958  44.754   5.333
 3949POPC   PO451708  36.432  44.420   5.455
 3949POPC   GL151709  36.761  44.582   5.790
 3949POPC   GL251710  36.987  44.919   5.805
 3949POPC   C1A51711  36.873  44.657   6.224
 3949POPC   D2A51712  36.981  44.883   6.579
 3949POPC   C3A51713  36.847  44.626   6.905
 3949POPC   C4A51714  36.890  44.446   7.308
 3949POPC   C1B51715  37.240   0.103   6.164
 3949POPC   C2B51716  37.486  44.999   6.567
 3949POPC   C3B51717  37.342  44.761   6.971
 3949POPC   C4B51718  37.273  44.737   7.459
 3950POPC   NC351719  42.953  23.460   5.414
 3950POPC   PO451720  42.818  24.073   5.647
 3950POPC   GL151721  43.095  23.812   5.911
 3950POPC   GL251722  43.315  23.602   5.735
 3950POPC   C1A51723  43.140  23.694   6.369
 3950POPC   D2A51724  42.826  23.671   6.739
 3950POPC   C3A51725  43.054  23.631   7.114
 3950POPC   C4A51726  43.379  23.875   7.345
 3950POPC   C1B51727  43.549  23.451   6.123
 3950POPC   C2B51728  43.456  23.318   6.554
 3950POPC   C3B51729  43.499  23.437   7.005
 3950POPC   C4B51730  43.370  23.399   7.471
 3951POPC   NC351731   3.835  31.257   5.218
 3951POPC   PO451732   3.342  31.664   5.468
 3951POPC   GL151733   3.625  31.441   5.703
 3951POPC   GL251734   3.346  31.476   5.956
 3951POPC   C1A51735   3.782  31.256   6.078
 3951POPC   D2A51736   3.554  31.272   6.468
 3951POPC   C3A51737   3.821  31.226   6.838
 3951POPC   C4A51738   3.707  31.444   7.210
 3951POPC   C1B51739   3.080  31.243   6.234
 3951POPC   C2B51740   3.017  31.227   6.655
 3951POPC   C3B51741   3.275  31.389   6.958
 3951POPC   C4B51742   3.213  31.478   7.393
 3952POPC   NC351743  31.355  42.004   5.509
 3952POPC   PO451744  31.507  42.649   5.380
 3952POPC   GL151745  31.510  42.449   5.771
 3952POPC   GL251746  31.179  42.537   5.820
 3952POPC   C1A51747  31.559  42.533   6.224
 3952POPC   D2A51748  31.255  42.569   6.599
 3952POPC   C3A51749  31.374  42.546   7.049
 3952POPC   C4A51750  31.733  42.388   7.248
 3952POPC   C1B51751  31.152  42.185   6.150
 3952POPC   C2B51752  31.503  42.041   6.422
 3952POPC   C3B51753  31.672  42.065   6.825
 3952POPC   C4B51754  31.389  42.014   7.137
 3953POPC   NC351755   3.708   8.311   5.374
 3953POPC   PO451756   3.039   8.119   5.327
 3953POPC   GL151757   3.375   8.117   5.700
 3953POPC   GL251758   3.690   7.900   5.697
 3953POPC   C1A51759   3.446   8.499   6.012
 3953POPC   D2A51760   3.537   8.676   6.451
 3953POPC   C3A51761   3.683   8.457   6.841
 3953POPC   C4A51762   3.450   8.239   7.195
 3953POPC   C1B51763   3.863   8.200   6.031
 3953POPC   C2B51764   3.645   8.133   6.430
 3953POPC   C3B51765   3.600   7.919   6.838
 3953POPC   C4B51766   3.756   7.824   7.253
 3954POPC   NC351767  33.667  42.645   5.539
 3954POPC   PO451768  34.205  42.454   5.288
 3954POPC   GL151769  34.013  42.295   5.712
 3954POPC   GL251770  34.059  42.614   5.892
 3954POPC   C1A51771  33.770  42.270   6.140
 3954POPC   D2A51772  33.923  42.171   6.555
 3954POPC   C3A51773  33.752  42.245   6.956
 3954POPC   C4A51774  33.597  41.915   7.230
 3954POPC   C1B51775  34.147  42.561   6.337
 3954POPC   C2B51776  34.043  42.653   6.764
 3954POPC   C3B51777  34.158  42.488   7.182
 3954POPC   C4B51778  34.042  42.098   7.376
 3955POPC   NC351779  28.438   6.417   5.442
 3955POPC   PO451780  27.957   6.905   5.330
 3955POPC   GL151781  28.078   6.758   5.715
 3955POPC   GL251782  28.427   6.776   5.840
 3955POPC   C1A51783  28.000   6.643   6.127
 3955POPC   D2A51784  28.302   6.616   6.438
 3955POPC   C3A51785  28.075   6.493   6.795
 3955POPC   C4A51786  28.137   6.553   7.213
 3955POPC   C1B51787  28.664   6.439   6.091
 3955POPC   C2B51788  28.794   6.473   6.513
 3955POPC   C3B51789  28.650   6.783   6.811
 3955POPC   C4B51790  28.602   6.803   7.246
 3956POPC   NC351791  44.093  25.642   5.521
 3956POPC   PO451792  44.751  25.551   5.297
 3956POPC   GL151793  44.752  25.355   5.735
 3956POPC   GL251794  44.409  25.312   5.836
 3956POPC   C1A51795  44.795  25.299   6.210
 3956POPC   D2A51796  44.906  25.472   6.643
 3956POPC   C3A51797  44.696  25.245   7.003
 3956POPC   C4A51798  44.879  24.895   7.243
 3956POPC   C1B51799  44.476  25.694   6.114
 3956POPC   C2B51800  44.558  25.837   6.554
 3956POPC   C3B51801  44.454  25.730   7.007
 3956POPC   C4B51802  44.662  25.791   7.422
 3957POPC   NC351803  44.028  17.482   5.376
 3957POPC   PO451804  43.422  17.803   5.387
 3957POPC   GL151805  43.768  17.815   5.714
 3957POPC   GL251806  44.136  17.722   5.794
 3957POPC   C1A51807  43.769  17.556   6.114
 3957POPC   D2A51808  43.811  17.738   6.530
 3957POPC   C3A51809  43.694  17.465   6.880
 3957POPC   C4A51810  43.601  17.459   7.344
 3957POPC   C1B51811  44.260  17.597   6.237
 3957POPC   C2B51812  44.127  17.310   6.596
 3957POPC   C3B51813  44.139  17.296   7.055
 3957POPC   C4B51814  44.112  17.445   7.514
 3958POPC   NC351815  39.144  18.788   5.575
 3958POPC   PO451816  39.494  19.318   5.301
 3958POPC   GL151817  39.542  19.101   5.675
 3958POPC   GL251818  39.237  19.236   5.748
 3958POPC   C1A51819  39.581  18.877   6.089
 3958POPC   D2A51820  39.364  18.968   6.491
 3958POPC   C3A51821  39.430  18.798   6.900
 3958POPC   C4A51822  39.582  18.967   7.267
 3958POPC   C1B51823  39.024  19.185   6.145
 3958POPC   C2B51824  38.981  19.309   6.581
 3958POPC   C3B51825  38.985  19.061   6.954
 3958POPC   C4B51826  39.098  18.873   7.332
 3959POPC   NC351827  28.486  32.598   5.606
 3959POPC   PO451828  28.504  31.902   5.557
 3959POPC   GL151829  28.257  32.162   5.881
 3959POPC   GL251830  27.984  32.458   5.803
 3959POPC   C1A51831  28.487  32.247   6.283
 3959POPC   D2A51832  28.660  32.370   6.697
 3959POPC   C3A51833  28.460  32.146   7.016
 3959POPC   C4A51834  28.529  32.076   7.418
 3959POPC   C1B51835  28.005  32.443   6.280
 3959POPC   C2B51836  28.185  32.552   6.706
 3959POPC   C3B51837  28.335  32.625   7.123
 3959POPC   C4B51838  28.095  32.734   7.499
 3960POPC   NC351839  37.873  27.469   5.382
 3960POPC   PO451840  37.169  27.320   5.400
 3960POPC   GL151841  37.437  27.635   5.634
 3960POPC   GL251842  37.574  27.341   5.777
 3960POPC   C1A51843  37.631  27.737   6.076
 3960POPC   D2A51844  37.675  27.472   6.464
 3960POPC   C3A51845  37.599  27.627   6.875
 3960POPC   C4A51846  37.255  27.429   7.105
 3960POPC   C1B51847  37.936  27.255   6.057
 3960POPC   C2B51848  38.165  27.312   6.458
 3960POPC   C3B51849  37.987  27.236   6.867
 3960POPC   C4B51850  37.731  27.285   7.229
 3961POPC   NC351851   2.792  28.611   5.156
 3961POPC   PO451852   2.956  29.238   5.395
 3961POPC   GL151853   2.888  29.322   5.843
 3961POPC   GL251854   3.034  29.000   5.960
 3961POPC   C1A51855   2.602  29.247   6.228
 3961POPC   D2A51856   2.485  29.000   6.608
 3961POPC   C3A51857   2.435  29.170   7.050
 3961POPC   C4A51858   2.625  28.903   7.395
 3961POPC   C1B51859   2.985  28.947   6.391
 3961POPC   C2B51860   2.898  29.276   6.698
 3961POPC   C3B51861   2.947  29.242   7.140
 3961POPC   C4B51862   3.257  29.296   7.414
 3962POPC   NC351863  32.574  39.194   5.668
 3962POPC   PO451864  32.139  39.562   5.368
 3962POPC   GL151865  32.062  39.323   5.778
 3962POPC   GL251866  31.982  38.948   5.782
 3962POPC   C1A51867  32.228  39.274   6.217
 3962POPC   D2A51868  32.367  39.054   6.611
 3962POPC   C3A51869  32.456  39.278   6.988
 3962POPC   C4A51870  32.100  39.542   7.134
 3962POPC   C1B51871  32.035  38.798   6.200
 3962POPC   C2B51872  31.879  38.884   6.600
 3962POPC   C3B51873  32.044  38.997   7.011
 3962POPC   C4B51874  31.846  39.037   7.385
 3963POPC   NC351875  12.553  32.436   5.347
 3963POPC   PO451876  13.170  32.114   5.529
 3963POPC   GL151877  12.926  32.399   5.759
 3963POPC   GL251878  12.669  32.167   5.811
 3963POPC   C1A51879  12.947  32.402   6.215
 3963POPC   D2A51880  12.808  32.120   6.550
 3963POPC   C3A51881  12.964  32.214   6.932
 3963POPC   C4A51882  12.944  32.521   7.247
 3963POPC   C1B51883  12.431  32.147   6.201
 3963POPC   C2B51884  12.283  32.162   6.680
 3963POPC   C3B51885  12.470  32.132   7.141
 3963POPC   C4B51886  12.446  31.920   7.559
 3964POPC   NC351887  30.972  30.128   5.336
 3964POPC   PO451888  30.706  29.532   5.295
 3964POPC   GL151889  30.619  29.846   5.627
 3964POPC   GL251890  30.935  29.893   5.779
 3964POPC   C1A51891  30.591  29.801   6.101
 3964POPC   D2A51892  30.648  29.812   6.535
 3964POPC   C3A51893  30.376  30.124   6.755
 3964POPC   C4A51894  30.237  30.121   7.159
 3964POPC   C1B51895  31.038  30.040   6.229
 3964POPC   C2B51896  31.239  29.901   6.624
 3964POPC   C3B51897  31.195  29.962   7.077
 3964POPC   C4B51898  30.910  29.742   7.346
 3965POPC   NC351899  14.027  33.266   5.342
 3965POPC   PO451900  14.675  33.365   5.501
 3965POPC   GL151901  14.611  33.165   5.884
 3965POPC   GL251902  14.939  33.199   5.987
 3965POPC   C1A51903  14.233  33.019   6.099
 3965POPC   D2A51904  14.088  32.836   6.487
 3965POPC   C3A51905  14.207  33.078   6.869
 3965POPC   C4A51906  14.093  33.040   7.305
 3965POPC   C1B51907  14.801  33.164   6.382
 3965POPC   C2B51908  14.887  33.349   6.756
 3965POPC   C3B51909  14.923  33.145   7.126
 3965POPC   C4B51910  14.583  32.906   7.249
 3966POPC   NC351911  14.871  40.458   5.357
 3966POPC   PO451912  14.912  41.097   5.301
 3966POPC   GL151913  15.069  41.090   5.765
 3966POPC   GL251914  15.069  40.727   5.789
 3966POPC   C1A51915  15.174  40.956   6.245
 3966POPC   D2A51916  15.256  40.849   6.731
 3966POPC   C3A51917  15.235  41.164   7.116
 3966POPC   C4A51918  15.501  41.103   7.512
 3966POPC   C1B51919  14.850  40.552   6.162
 3966POPC   C2B51920  14.851  40.492   6.613
 3966POPC   C3B51921  15.053  40.368   7.008
 3966POPC   C4B51922  15.290  40.659   7.257
 3967POPC   NC351923  29.825   2.950   5.453
 3967POPC   PO451924  30.058   2.371   5.297
 3967POPC   GL151925  30.040   2.588   5.757
 3967POPC   GL251926  29.727   2.765   5.924
 3967POPC   C1A51927  30.096   2.562   6.234
 3967POPC   D2A51928  29.795   2.680   6.569
 3967POPC   C3A51929  29.921   2.579   6.986
 3967POPC   C4A51930  30.139   2.559   7.366
 3967POPC   C1B51931  29.750   3.112   6.252
 3967POPC   C2B51932  29.702   3.215   6.698
 3967POPC   C3B51933  29.660   3.009   7.120
 3967POPC   C4B51934  29.573   3.081   7.648
 3968POPC   NC351935  22.494  33.305   5.691
 3968POPC   PO451936  22.040  33.764   5.452
 3968POPC   GL151937  22.183  33.882   5.856
 3968POPC   GL251938  22.524  33.820   5.821
 3968POPC   C1A51939  22.237  33.744   6.269
 3968POPC   D2A51940  22.095  33.810   6.685
 3968POPC   C3A51941  22.205  33.590   7.077
 3968POPC   C4A51942  22.082  33.981   7.280
 3968POPC   C1B51943  22.702  33.990   6.188
 3968POPC   C2B51944  22.512  34.111   6.567
 3968POPC   C3B51945  22.508  33.993   6.989
 3968POPC   C4B51946  22.565  33.933   7.427
 3969POPC   NC351947  24.257  27.939   5.661
 3969POPC   PO451948  24.623  27.501   5.276
 3969POPC   GL151949  24.545  27.497   5.753
 3969POPC   GL251950  24.226  27.401   5.895
 3969POPC   C1A51951  24.706  27.529   6.215
 3969POPC   D2A51952  24.707  27.759   6.637
 3969POPC   C3A51953  24.487  27.685   7.057
 3969POPC   C4A51954  24.443  27.543   7.502
 3969POPC   C1B51955  24.349  27.151   6.253
 3969POPC   C2B51956  24.215  27.178   6.675
 3969POPC   C3B51957  24.285  27.212   7.132
 3969POPC   C4B51958  23.991  27.275   7.467
 3970POPC   NC351959  37.584  24.747   5.331
 3970POPC   PO451960  37.826  24.063   5.390
 3970POPC   GL151961  37.684  24.396   5.740
 3970POPC   GL251962  37.908  24.729   5.753
 3970POPC   C1A51963  37.632  24.458   6.223
 3970POPC   D2A51964  37.597  24.416   6.690
 3970POPC   C3A51965  37.950  24.546   6.982
 3970POPC   C4A51966  37.805  24.613   7.438
 3970POPC   C1B51967  37.818  24.965   6.160
 3970POPC   C2B51968  37.771  24.896   6.612
 3970POPC   C3B51969  37.533  24.804   7.012
 3970POPC   C4B51970  37.518  25.027   7.334
 3971POPC   NC351971  22.535   4.320   5.544
 3971POPC   PO451972  22.117   4.703   5.363
 3971POPC   GL151973  22.056   4.475   5.722
 3971POPC   GL251974  22.065   4.103   5.694
 3971POPC   C1A51975  22.076   4.542   6.164
 3971POPC   D2A51976  22.179   4.323   6.541
 3971POPC   C3A51977  22.098   4.475   6.950
 3971POPC   C4A51978  22.300   4.324   7.318
 3971POPC   C1B51979  22.267   4.011   6.104
 3971POPC   C2B51980  22.142   3.824   6.514
 3971POPC   C3B51981  22.189   3.942   6.942
 3971POPC   C4B51982  22.481   3.800   7.230
 3972POPC   NC351983  35.815   3.586   5.691
 3972POPC   PO451984  36.413   3.901   5.296
 3972POPC   GL151985  36.310   3.640   5.686
 3972POPC   GL251986  36.287   3.291   5.631
 3972POPC   C1A51987  36.250   3.634   6.180
 3972POPC   D2A51988  36.293   3.808   6.624
 3972POPC   C3A51989  36.125   3.577   6.981
 3972POPC   C4A51990  36.385   3.328   7.243
 3972POPC   C1B51991  36.261   3.150   6.064
 3972POPC   C2B51992  36.086   3.213   6.465
 3972POPC   C3B51993  36.123   3.070   6.875
 3972POPC   C4B51994  35.875   3.150   7.243
 3973POPC   NC351995  15.322  27.369   5.414
 3973POPC   PO451996  14.925  27.867   5.333
 3973POPC   GL151997  15.127  27.715   5.744
 3973POPC   GL251998  15.486  27.805   5.692
 3973POPC   C1A51999  15.045  27.348   6.084
 3973POPC   D2A52000  14.866  27.308   6.536
 3973POPC   C3A52001  14.979  27.483   6.966
 3973POPC   C4A52002  14.919  27.482   7.435
 3973POPC   C1B52003  15.497  27.593   6.101
 3973POPC   C2B52004  15.332  27.505   6.524
 3973POPC   C3B52005  15.494  27.444   6.951
 3973POPC   C4B52006  15.388  27.619   7.316
 3974POPC   NC352007  40.145  16.208   5.641
 3974POPC   PO452008  39.873  15.708   5.222
 3974POPC   GL152009  39.936  15.722   5.694
 3974POPC   GL252010  40.236  15.662   5.895
 3974POPC   C1A52011  39.844  15.834   6.166
 3974POPC   D2A52012  39.987  16.030   6.583
 3974POPC   C3A52013  39.974  15.779   6.989
 3974POPC   C4A52014  39.844  15.684   7.458
 3974POPC   C1B52015  40.342  15.933   6.220
 3974POPC   C2B52016  40.472  15.914   6.639
 3974POPC   C3B52017  40.345  16.170   6.991
 3974POPC   C4B52018  40.038  16.146   7.334
 3975POPC   NC352019  39.501  13.109   5.539
 3975POPC   PO452020  40.170  13.121   5.516
 3975POPC   GL152021  39.956  12.850   5.806
 3975POPC   GL252022  39.663  12.608   5.763
 3975POPC   C1A52023  40.028  12.888   6.227
 3975POPC   D2A52024  40.145  12.695   6.588
 3975POPC   C3A52025  39.838  12.830   6.852
 3975POPC   C4A52026  39.953  12.886   7.257
 3975POPC   C1B52027  39.697  12.405   6.194
 3975POPC   C2B52028  39.846  12.274   6.627
 3975POPC   C3B52029  39.903  12.383   7.094
 3975POPC   C4B52030  40.099  12.453   7.539
 3976POPC   NC352031  41.863   6.657   5.257
 3976POPC   PO452032  41.198   6.749   5.276
 3976POPC   GL152033  41.480   6.782   5.659
 3976POPC   GL252034  41.689   6.478   5.714
 3976POPC   C1A52035  41.588   6.727   6.150
 3976POPC   D2A52036  41.753   6.637   6.599
 3976POPC   C3A52037  41.491   6.734   6.983
 3976POPC   C4A52038  41.614   6.975   7.354
 3976POPC   C1B52039  41.811   6.248   6.109
 3976POPC   C2B52040  41.919   6.158   6.543
 3976POPC   C3B52041  41.745   6.253   6.964
 3976POPC   C4B52042  41.782   6.357   7.406
 3977POPC   NC352043  30.851  33.520   5.149
 3977POPC   PO452044  31.392  33.849   5.522
 3977POPC   GL152045  31.552  33.753   5.885
 3977POPC   GL252046  31.298  33.596   6.001
 3977POPC   C1A52047  31.749  33.950   6.233
 3977POPC   D2A52048  31.769  34.096   6.663
 3977POPC   C3A52049  31.600  33.824   6.952
 3977POPC   C4A52050  31.721  33.788   7.357
 3977POPC   C1B52051  31.247  34.034   6.174
 3977POPC   C2B52052  31.276  33.953   6.574
 3977POPC   C3B52053  31.059  33.843   6.935
 3977POPC   C4B52054  31.142  33.965   7.342
 3978POPC   NC352055  37.120  11.772   5.297
 3978POPC   PO452056  36.733  12.312   5.291
 3978POPC   GL152057  36.954  12.161   5.653
 3978POPC   GL252058  36.780  12.463   5.792
 3978POPC   C1A52059  36.934  11.944   6.081
 3978POPC   D2A52060  37.146  11.908   6.500
 3978POPC   C3A52061  36.976  11.744   6.912
 3978POPC   C4A52062  37.033  11.911   7.320
 3978POPC   C1B52063  37.102  12.427   6.115
 3978POPC   C2B52064  37.073  12.418   6.553
 3978POPC   C3B52065  37.010  12.264   6.950
 3978POPC   C4B52066  36.710  12.366   7.268
 3979POPC   NC352067  26.767   9.300   4.954
 3979POPC   PO452068  27.179   9.095   5.329
 3979POPC   GL152069  27.137   9.117   5.808
 3979POPC   GL252070  27.290   8.843   5.998
 3979POPC   C1A52071  27.146   9.250   6.258
 3979POPC   D2A52072  27.128   9.177   6.682
 3979POPC   C3A52073  26.793   9.218   6.944
 3979POPC   C4A52074  27.037   9.401   7.209
 3979POPC   C1B52075  27.009   8.716   6.344
 3979POPC   C2B52076  26.942   8.715   6.799
 3979POPC   C3B52077  27.184   8.914   7.137
 3979POPC   C4B52078  27.181   8.940   7.568
 3980POPC   NC352079  36.056  32.116   5.227
 3980POPC   PO452080  36.415  32.568   5.632
 3980POPC   GL152081  36.262  32.317   5.966
 3980POPC   GL252082  36.350  31.976   6.015
 3980POPC   C1A52083  36.201  32.348   6.394
 3980POPC   D2A52084  36.257  32.694   6.681
 3980POPC   C3A52085  36.363  32.421   6.959
 3980POPC   C4A52086  36.000  32.274   7.110
 3980POPC   C1B52087  36.241  31.819   6.385
 3980POPC   C2B52088  36.145  31.918   6.780
 3980POPC   C3B52089  36.380  31.948   7.168
 3980POPC   C4B52090  36.358  32.053   7.607
 3981POPC   NC352091  40.108  26.967   5.059
 3981POPC   PO452092  40.091  27.606   5.394
 3981POPC   GL152093  40.073  27.575   5.819
 3981POPC   GL252094  40.381  27.407   5.800
 3981POPC   C1A52095  39.853  27.605   6.230
 3981POPC   D2A52096  39.951  27.821   6.622
 3981POPC   C3A52097  39.784  27.728   7.011
 3981POPC   C4A52098  39.891  27.894   7.421
 3981POPC   C1B52099  40.289  27.273   6.187
 3981POPC   C2B52100  40.137  27.336   6.577
 3981POPC   C3B52101  40.259  27.519   6.943
 3981POPC   C4B52102  40.360  27.118   7.108
 3982POPC   NC352103   1.259   8.761   5.294
 3982POPC   PO452104   1.408   9.356   5.101
 3982POPC   GL152105   1.390   9.164   5.590
 3982POPC   GL252106   1.421   8.873   5.799
 3982POPC   C1A52107   1.128   9.134   6.077
 3982POPC   D2A52108   1.248   9.108   6.545
 3982POPC   C3A52109   1.005   9.161   6.944
 3982POPC   C4A52110   1.159   9.118   7.393
 3982POPC   C1B52111   1.600   8.931   6.196
 3982POPC   C2B52112   1.581   8.698   6.595
 3982POPC   C3B52113   1.426   8.814   6.994
 3982POPC   C4B52114   1.079   8.650   7.188
 3983POPC   NC352115  27.799  22.125   5.417
 3983POPC   PO452116  27.200  22.426   5.640
 3983POPC   GL152117  27.596  22.245   5.866
 3983POPC   GL252118  27.990  22.341   5.827
 3983POPC   C1A52119  27.807  21.959   6.171
 3983POPC   D2A52120  27.919  21.843   6.612
 3983POPC   C3A52121  27.561  21.790   6.893
 3983POPC   C4A52122  27.436  21.842   7.327
 3983POPC   C1B52123  27.864  22.506   6.213
 3983POPC   C2B52124  27.654  22.309   6.578
 3983POPC   C3B52125  27.792  22.231   6.991
 3983POPC   C4B52126  27.602  22.315   7.392
 3984POPC   NC352127  37.188  35.690   5.571
 3984POPC   PO452128  36.948  35.207   5.163
 3984POPC   GL152129  36.909  35.212   5.632
 3984POPC   GL252130  37.223  35.128   5.756
 3984POPC   C1A52131  36.859  35.420   6.083
 3984POPC   D2A52132  36.671  35.632   6.490
 3984POPC   C3A52133  36.653  35.531   6.954
 3984POPC   C4A52134  36.734  35.377   7.407
 3984POPC   C1B52135  37.294  35.182   6.212
 3984POPC   C2B52136  36.982  35.194   6.547
 3984POPC   C3B52137  36.979  35.134   6.969
 3984POPC   C4B52138  37.148  35.478   7.163
 3985POPC   NC352139  15.931  23.695   5.287
 3985POPC   PO452140  16.203  23.233   5.677
 3985POPC   GL152141  15.835  23.429   5.762
 3985POPC   GL252142  15.976  23.772   5.798
 3985POPC   C1A52143  15.777  23.508   6.193
 3985POPC   D2A52144  15.683  23.899   6.424
 3985POPC   C3A52145  15.565  23.851   6.857
 3985POPC   C4A52146  15.741  23.541   7.183
 3985POPC   C1B52147  16.186  23.828   6.203
 3985POPC   C2B52148  16.099  23.638   6.609
 3985POPC   C3B52149  16.190  23.676   7.024
 3985POPC   C4B52150  15.971  24.042   7.061
 3986POPC   NC352151   2.640  30.290   5.521
 3986POPC   PO452152   3.058  30.737   5.222
 3986POPC   GL152153   2.907  30.746   5.686
 3986POPC   GL252154   2.567  30.666   5.870
 3986POPC   C1A52155   2.957  30.732   6.172
 3986POPC   D2A52156   2.622  30.833   6.496
 3986POPC   C3A52157   2.784  30.825   6.932
 3986POPC   C4A52158   3.141  30.936   7.220
 3986POPC   C1B52159   2.582  30.384   6.235
 3986POPC   C2B52160   2.749  30.361   6.681
 3986POPC   C3B52161   2.611  30.254   7.089
 3986POPC   C4B52162   2.951  30.479   7.284
 3987POPC   NC352163   6.793  36.030   5.417
 3987POPC   PO452164   6.131  36.125   5.478
 3987POPC   GL152165   6.283  35.923   5.827
 3987POPC   GL252166   6.623  36.036   5.893
 3987POPC   C1A52167   6.232  36.044   6.232
 3987POPC   D2A52168   6.583  36.150   6.469
 3987POPC   C3A52169   6.486  36.173   6.874
 3987POPC   C4A52170   6.640  36.147   7.262
 3987POPC   C1B52171   6.934  36.307   6.107
 3987POPC   C2B52172   7.024  36.429   6.540
 3987POPC   C3B52173   6.895  36.517   6.960
 3987POPC   C4B52174   7.011  36.494   7.390
 3988POPC   NC352175  29.356  33.070   5.468
 3988POPC   PO452176  28.687  33.022   5.639
 3988POPC   GL152177  28.996  32.851   5.832
 3988POPC   GL252178  29.265  33.060   5.966
 3988POPC   C1A52179  28.967  32.787   6.259
 3988POPC   D2A52180  29.288  32.870   6.529
 3988POPC   C3A52181  29.036  32.786   6.876
 3988POPC   C4A52182  28.971  32.915   7.283
 3988POPC   C1B52183  29.528  33.305   6.257
 3988POPC   C2B52184  29.608  33.301   6.685
 3988POPC   C3B52185  29.301  33.195   6.982
 3988POPC   C4B52186  29.204  33.349   7.418
 3989POPC   NC352187  30.752   2.575   5.440
 3989POPC   PO452188  30.618   3.170   5.520
 3989POPC   GL152189  30.642   2.872   5.897
 3989POPC   GL252190  30.528   2.504   5.893
 3989POPC   C1A52191  30.600   2.809   6.367
 3989POPC   D2A52192  30.503   2.660   6.787
 3989POPC   C3A52193  30.742   2.951   7.054
 3989POPC   C4A52194  31.095   3.232   7.141
 3989POPC   C1B52195  30.592   2.326   6.282
 3989POPC   C2B52196  30.926   2.411   6.567
 3989POPC   C3B52197  30.934   2.403   7.001
 3989POPC   C4B52198  30.629   2.522   7.301
 3990POPC   NC352199  29.317  37.179   5.178
 3990POPC   PO452200  28.726  37.067   5.433
 3990POPC   GL152201  28.912  37.143   5.810
 3990POPC   GL252202  29.238  37.122   5.687
 3990POPC   C1A52203  29.075  36.865   6.133
 3990POPC   D2A52204  28.987  36.618   6.462
 3990POPC   C3A52205  29.134  36.807   6.827
 3990POPC   C4A52206  28.911  36.815   7.187
 3990POPC   C1B52207  29.429  37.225   6.084
 3990POPC   C2B52208  29.412  37.184   6.531
 3990POPC   C3B52209  29.486  37.209   6.987
 3990POPC   C4B52210  29.343  37.111   7.403
 3991POPC   NC352211  38.600  37.535   5.468
 3991POPC   PO452212  38.442  38.144   5.265
 3991POPC   GL152213  38.337  37.926   5.725
 3991POPC   GL252214  38.047  37.724   5.823
 3991POPC   C1A52215  38.525  37.702   6.083
 3991POPC   D2A52216  38.500  37.778   6.516
 3991POPC   C3A52217  38.687  37.562   6.852
 3991POPC   C4A52218  38.579  37.523   7.260
 3991POPC   C1B52219  38.105  37.931   6.204
 3991POPC   C2B52220  38.081  38.089   6.613
 3991POPC   C3B52221  38.266  37.929   6.961
 3991POPC   C4B52222  38.251  38.069   7.345
 3992POPC   NC352223  14.533  30.020   5.471
 3992POPC   PO452224  13.909  29.795   5.216
 3992POPC   GL152225  14.113  29.678   5.674
 3992POPC   GL252226  14.418  29.744   5.870
 3992POPC   C1A52227  14.046  29.563   6.159
 3992POPC   D2A52228  14.317  29.661   6.531
 3992POPC   C3A52229  14.208  29.745   6.989
 3992POPC   C4A52230  14.294  30.065   7.332
 3992POPC   C1B52231  14.725  29.833   6.205
 3992POPC   C2B52232  14.809  29.890   6.626
 3992POPC   C3B52233  14.739  30.055   7.009
 3992POPC   C4B52234  14.833  29.675   7.190
 3993POPC   NC352235  10.767  34.807   5.440
 3993POPC   PO452236  10.241  34.404   5.305
 3993POPC   GL152237  10.497  34.492   5.726
 3993POPC   GL252238  10.480  34.881   5.848
 3993POPC   C1A52239  10.650  34.525   6.177
 3993POPC   D2A52240  10.437  34.623   6.585
 3993POPC   C3A52241  10.569  34.647   7.039
 3993POPC   C4A52242  10.450  34.584   7.503
 3993POPC   C1B52243  10.714  35.038   6.262
 3993POPC   C2B52244  10.729  35.047   6.736
 3993POPC   C3B52245  10.733  35.102   7.193
 3993POPC   C4B52246  10.723  35.079   7.623
 3994POPC   NC352247  28.895  21.557   5.313
 3994POPC   PO452248  29.490  21.214   5.456
 3994POPC   GL152249  29.202  21.428   5.709
 3994POPC   GL252250  29.343  21.697   5.847
 3994POPC   C1A52251  28.965  21.362   6.113
 3994POPC   D2A52252  29.040  21.203   6.550
 3994POPC   C3A52253  28.990  21.474   6.944
 3994POPC   C4A52254  29.141  21.616   7.362
 3994POPC   C1B52255  29.495  21.320   6.127
 3994POPC   C2B52256  29.535  21.042   6.497
 3994POPC   C3B52257  29.440  21.199   6.886
 3994POPC   C4B52258  29.587  21.078   7.239
 3995POPC   NC352259  17.253  42.914   5.346
 3995POPC   PO452260  17.793  43.234   5.458
 3995POPC   GL152261  17.560  43.087   5.802
 3995POPC   GL252262  17.225  43.228   5.797
 3995POPC   C1A52263  17.416  43.002   6.223
 3995POPC   D2A52264  17.620  43.009   6.602
 3995POPC   C3A52265  17.355  42.871   6.936
 3995POPC   C4A52266  17.587  42.918   7.257
 3995POPC   C1B52267  17.378  43.521   6.143
 3995POPC   C2B52268  17.559  43.512   6.568
 3995POPC   C3B52269  17.487  43.361   6.991
 3995POPC   C4B52270  17.451  43.611   7.352
 3996POPC   NC352271   1.612   3.795   5.476
 3996POPC   PO452272   2.169   3.394   5.374
 3996POPC   GL152273   2.124   3.347   5.830
 3996POPC   GL252274   1.777   3.347   5.932
 3996POPC   C1A52275   2.045   3.599   6.268
 3996POPC   D2A52276   1.780   3.601   6.625
 3996POPC   C3A52277   2.044   3.669   6.974
 3996POPC   C4A52278   2.299   3.450   7.202
 3996POPC   C1B52279   2.054   3.107   6.262
 3996POPC   C2B52280   2.105   3.207   6.678
 3996POPC   C3B52281   1.918   3.145   7.007
 3996POPC   C4B52282   1.637   3.387   7.121
 3997POPC   NC352283   4.122  30.210   5.005
 3997POPC   PO452284   4.472  30.406   5.472
 3997POPC   GL152285   4.378  30.555   5.853
 3997POPC   GL252286   4.754  30.522   5.944
 3997POPC   C1A52287   4.070  30.669   6.164
 3997POPC   D2A52288   4.098  30.913   6.530
 3997POPC   C3A52289   3.948  30.692   6.878
 3997POPC   C4A52290   4.261  30.579   7.133
 3997POPC   C1B52291   4.582  30.755   6.274
 3997POPC   C2B52292   4.828  30.630   6.562
 3997POPC   C3B52293   4.756  30.513   6.942
 3997POPC   C4B52294   4.690  30.431   7.319
 3998POPC   NC352295  43.292   6.145   5.608
 3998POPC   PO452296  43.837   5.802   5.313
 3998POPC   GL152297  43.867   5.900   5.746
 3998POPC   GL252298  43.873   6.252   5.718
 3998POPC   C1A52299  43.674   5.825   6.177
 3998POPC   D2A52300  43.479   5.731   6.605
 3998POPC   C3A52301  43.634   5.949   6.958
 3998POPC   C4A52302  43.869   5.809   7.350
 3998POPC   C1B52303  44.082   6.201   6.128
 3998POPC   C2B52304  43.938   6.092   6.552
 3998POPC   C3B52305  44.137   5.977   6.939
 3998POPC   C4B52306  44.281   6.188   7.280
 3999POPC   NC352307   6.061  35.662   5.449
 3999POPC   PO452308   5.692  35.088   5.427
 3999POPC   GL152309   5.503  35.129   5.845
 3999POPC   GL252310   5.689  35.451   5.848
 3999POPC   C1A52311   5.458  35.336   6.271
 3999POPC   D2A52312   5.677  35.559   6.574
 3999POPC   C3A52313   5.602  35.368   6.962
 3999POPC   C4A52314   5.819  35.156   7.248
 3999POPC   C1B52315   6.031  35.560   6.168
 3999POPC   C2B52316   6.191  35.681   6.608
 3999POPC   C3B52317   6.139  35.437   6.983
 3999POPC   C4B52318   6.188  35.444   7.460
 4000POPC   NC352319  44.545  24.990   5.435
 4000POPC   PO452320  44.363  24.296   5.497
 4000POPC   GL152321  44.631  24.496   5.842
 4000POPC   GL252322  44.706  24.857   5.906
 4000POPC   C1A52323  44.802  24.464   6.274
 4000POPC   D2A52324   0.013  24.267   6.658
 4000POPC   C3A52325  44.759  24.401   7.046
 4000POPC   C4A52326  44.675  24.480   7.500
 4000POPC   C1B52327  44.445  24.917   6.271
 4000POPC   C2B52328  44.494  24.843   6.730
 4000POPC   C3B52329  44.405  24.791   7.167
 4000POPC   C4B52330  44.448  24.916   7.629
 4001POPC   NC352331   8.720   0.395   5.460
 4001POPC   PO452332   9.271   0.125   5.635
 4001POPC   GL152333   9.146   0.465   5.909
 4001POPC   GL252334   8.786   0.535   5.932
 4001POPC   C1A52335   9.274   0.451   6.348
 4001POPC   D2A52336   9.417   0.353   6.758
 4001POPC   C3A52337   9.311   0.504   7.187
 4001POPC   C4A52338   9.315   0.678   7.619
 4001POPC   C1B52339   8.524   0.581   6.262
 4001POPC   C2B52340   8.586   0.713   6.673
 4001POPC   C3B52341   8.524   0.532   7.080
 4001POPC   C4B52342   8.857   0.572   7.389
 4002POPC   NC352343  36.401   6.229   5.342
 4002POPC   PO452344  36.004   5.669   5.429
 4002POPC   GL152345  36.127   5.911   5.784
 4002POPC   GL252346  35.823   5.818   5.966
 4002POPC   C1A52347  36.234   6.101   6.173
 4002POPC   D2A52348  36.374   5.849   6.532
 4002POPC   C3A52349  36.122   5.767   6.890
 4002POPC   C4A52350  36.302   5.857   7.272
 4002POPC   C1B52351  35.851   5.866   6.414
 4002POPC   C2B52352  35.596   5.722   6.727
 4002POPC   C3B52353  35.641   5.663   7.147
 4002POPC   C4B52354  35.849   5.694   7.539
 4003POPC   NC352355  30.037  44.848   5.404
 4003POPC   PO452356  29.615  44.356   5.433
 4003POPC   GL152357  29.784  44.583   5.809
 4003POPC   GL252358  30.170  44.625   5.860
 4003POPC   C1A52359  29.851  44.671   6.260
 4003POPC   D2A52360  30.161  44.489   6.537
 4003POPC   C3A52361  29.977  44.501   6.936
 4003POPC   C4A52362  29.715  44.604   7.283
 4003POPC   C1B52363  30.286  44.928   6.223
 4003POPC   C2B52364  30.133  44.973   6.691
 4003POPC   C3B52365  30.054  44.990   7.159
 4003POPC   C4B52366  30.111  44.925   7.671
 4004POPC   NC352367  21.990  24.739   5.539
 4004POPC   PO452368  22.254  24.133   5.360
 4004POPC   GL152369  22.161  24.322   5.791
 4004POPC   GL252370  22.272  24.654   5.952
 4004POPC   C1A52371  22.055  24.237   6.211
 4004POPC   D2A52372  22.260  24.175   6.624
 4004POPC   C3A52373  22.031  24.179   7.015
 4004POPC   C4A52374  21.926  24.567   7.190
 4004POPC   C1B52375  22.329  24.648   6.415
 4004POPC   C2B52376  22.260  24.807   6.852
 4004POPC   C3B52377  22.283  24.897   7.334
 4004POPC   C4B52378  22.235  24.986   7.788
 4005POPC   NC352379  10.685  23.879   5.432
 4005POPC   PO452380  10.223  23.454   5.434
 4005POPC   GL152381  10.356  23.609   5.822
 4005POPC   GL252382  10.714  23.706   5.893
 4005POPC   C1A52383  10.300  23.461   6.225
 4005POPC   D2A52384  10.285  23.663   6.602
 4005POPC   C3A52385  10.298  23.437   6.951
 4005POPC   C4A52386  10.184  23.678   7.281
 4005POPC   C1B52387  10.643  23.855   6.275
 4005POPC   C2B52388  10.786  23.677   6.658
 4005POPC   C3B52389  10.647  23.815   7.043
 4005POPC   C4B52390  10.783  23.860   7.452
 4006POPC   NC352391  33.948  20.716   5.111
 4006POPC   PO452392  33.390  20.304   5.295
 4006POPC   GL152393  33.750  20.501   5.561
 4006POPC   GL252394  33.745  20.862   5.654
 4006POPC   C1A52395  33.937  20.470   5.991
 4006POPC   D2A52396  33.872  20.204   6.371
 4006POPC   C3A52397  33.945  20.324   6.804
 4006POPC   C4A52398  33.689  20.314   7.200
 4006POPC   C1B52399  33.894  20.966   6.077
 4006POPC   C2B52400  33.823  20.797   6.500
 4006POPC   C3B52401  33.705  20.760   6.928
 4006POPC   C4B52402  34.049  20.658   7.216
 4007POPC   NC352403  36.574  20.507   5.381
 4007POPC   PO452404  37.282  20.530   5.428
 4007POPC   GL152405  36.997  20.479   5.766
 4007POPC   GL252406  36.739  20.740   5.794
 4007POPC   C1A52407  37.145  20.529   6.187
 4007POPC   D2A52408  37.156  20.283   6.577
 4007POPC   C3A52409  37.034  20.536   6.946
 4007POPC   C4A52410  37.300  20.860   7.185
 4007POPC   C1B52411  36.620  20.488   6.147
 4007POPC   C2B52412  36.641  20.338   6.566
 4007POPC   C3B52413  36.536  20.389   7.001
 4007POPC   C4B52414  36.672  20.641   7.336
 4008POPC   NC352415  33.919   2.274   5.422
 4008POPC   PO452416  33.622   1.704   5.476
 4008POPC   GL152417  33.794   1.674   5.883
 4008POPC   GL252418  34.084   1.856   5.761
 4008POPC   C1A52419  33.800   1.754   6.346
 4008POPC   D2A52420  33.633   2.090   6.625
 4008POPC   C3A52421  33.719   2.074   7.062
 4008POPC   C4A52422  33.643   1.732   7.318
 4008POPC   C1B52423  33.922   2.180   6.076
 4008POPC   C2B52424  34.076   2.280   6.488
 4008POPC   C3B52425  34.142   2.325   6.934
 4008POPC   C4B52426  34.209   2.211   7.382
 4009POPC   NC352427   6.361  16.183   5.269
 4009POPC   PO452428   6.859  15.811   5.407
 4009POPC   GL152429   6.804  16.084   5.805
 4009POPC   GL252430   6.636  15.825   5.985
 4009POPC   C1A52431   6.642  16.266   6.224
 4009POPC   D2A52432   6.800  16.280   6.665
 4009POPC   C3A52433   6.689  16.060   7.085
 4009POPC   C4A52434   6.725  16.002   7.578
 4009POPC   C1B52435   6.934  15.851   6.355
 4009POPC   C2B52436   6.961  15.659   6.771
 4009POPC   C3B52437   6.713  15.500   7.114
 4009POPC   C4B52438   6.390  15.670   7.386
 4010POPC   NC352439  32.935   2.094   5.433
 4010POPC   PO452440  32.850   1.511   5.656
 4010POPC   GL152441  33.169   1.807   5.796
 4010POPC   GL252442  32.937   2.093   5.940
 4010POPC   C1A52443  33.387   1.988   6.155
 4010POPC   D2A52444  33.124   2.168   6.509
 4010POPC   C3A52445  33.210   2.019   6.932
 4010POPC   C4A52446  33.302   2.092   7.366
 4010POPC   C1B52447  32.939   1.756   6.258
 4010POPC   C2B52448  32.763   1.786   6.635
 4010POPC   C3B52449  32.727   1.588   7.003
 4010POPC   C4B52450  32.813   1.913   7.244
 4011POPC   NC352451  32.999   0.139   5.404
 4011POPC   PO452452  32.992  44.459   5.451
 4011POPC   GL152453  33.031  44.619   5.858
 4011POPC   GL252454  33.265  44.815   5.727
 4011POPC   C1A52455  32.947  44.742   6.294
 4011POPC   D2A52456  32.792  44.590   6.707
 4011POPC   C3A52457  32.927  44.675   7.114
 4011POPC   C4A52458  33.161  44.424   7.349
 4011POPC   C1B52459  33.403  44.913   6.126
 4011POPC   C2B52460  33.324  44.951   6.600
 4011POPC   C3B52461  33.406  44.808   7.026
 4011POPC   C4B52462  33.305  44.881   7.464
 4012POPC   NC352463   6.321  32.986   5.193
 4012POPC   PO452464   5.694  32.788   5.491
 4012POPC   GL152465   5.710  33.085   5.846
 4012POPC   GL252466   5.430  32.995   5.991
 4012POPC   C1A52467   5.881  33.221   6.225
 4012POPC   D2A52468   5.725  33.301   6.629
 4012POPC   C3A52469   5.974  33.276   7.015
 4012POPC   C4A52470   5.765  33.195   7.423
 4012POPC   C1B52471   5.709  32.718   6.198
 4012POPC   C2B52472   5.926  32.793   6.553
 4012POPC   C3B52473   5.902  32.775   6.984
 4012POPC   C4B52474   6.037  32.501   7.280
 4013POPC   NC352475  11.392  44.908   5.420
 4013POPC   PO452476  11.213  44.241   5.452
 4013POPC   GL152477  11.191  44.502   5.791
 4013POPC   GL252478  10.990  44.811   5.731
 4013POPC   C1A52479  11.405  44.522   6.184
 4013POPC   D2A52480  11.451  44.839   6.478
 4013POPC   C3A52481  11.384  44.659   6.832
 4013POPC   C4A52482  11.333  44.378   7.116
 4013POPC   C1B52483  11.025  44.883   6.165
 4013POPC   C2B52484  10.933  44.738   6.581
 4013POPC   C3B52485  10.888  44.624   7.010
 4013POPC   C4B52486  11.097  44.913   7.279
 4014POPC   NC352487   6.203  38.990   5.375
 4014POPC   PO452488   5.813  39.493   5.414
 4014POPC   GL152489   5.818  39.184   5.729
 4014POPC   GL252490   5.496  39.014   5.771
 4014POPC   C1A52491   6.078  39.171   6.103
 4014POPC   D2A52492   6.138  39.409   6.505
 4014POPC   C3A52493   6.169  39.211   6.906
 4014POPC   C4A52494   5.775  39.167   7.119
 4014POPC   C1B52495   5.571  39.115   6.192
 4014POPC   C2B52496   5.730  38.991   6.607
 4014POPC   C3B52497   5.433  38.835   6.919
 4014POPC   C4B52498   5.341  38.912   7.337
 4015POPC   NC352499  10.906  22.233   5.207
 4015POPC   PO452500  10.355  21.904   5.482
 4015POPC   GL152501  10.532  21.854   5.852
 4015POPC   GL252502  10.259  21.645   5.912
 4015POPC   C1A52503  10.669  22.118   6.185
 4015POPC   D2A52504  10.615  22.524   6.428
 4015POPC   C3A52505  10.539  22.514   6.883
 4015POPC   C4A52506  10.794  22.489   7.262
 4015POPC   C1B52507  10.331  21.700   6.341
 4015POPC   C2B52508  10.508  21.964   6.633
 4015POPC   C3B52509  10.337  22.028   6.986
 4015POPC   C4B52510  10.590  22.024   7.285
 4016POPC   NC352511  30.986  19.098   5.321
 4016POPC   PO452512  30.450  19.061   5.410
 4016POPC   GL152513  30.697  19.205   5.732
 4016POPC   GL252514  30.932  18.913   5.812
 4016POPC   C1A52515  30.616  19.328   6.123
 4016POPC   D2A52516  30.718  19.050   6.427
 4016POPC   C3A52517  30.718  19.105   6.848
 4016POPC   C4A52518  30.474  19.066   7.195
 4016POPC   C1B52519  31.049  18.711   6.219
 4016POPC   C2B52520  31.112  18.793   6.683
 4016POPC   C3B52521  30.983  18.748   7.138
 4016POPC   C4B52522  30.895  18.524   7.526
 4017POPC   NC352523   8.990  16.878   4.976
 4017POPC   PO452524   9.261  16.475   5.407
 4017POPC   GL152525   9.103  16.687   5.762
 4017POPC   GL252526   8.779  16.509   5.732
 4017POPC   C1A52527   9.157  16.898   6.180
 4017POPC   D2A52528   9.184  16.821   6.627
 4017POPC   C3A52529   8.841  16.975   6.868
 4017POPC   C4A52530   8.663  17.015   7.256
 4017POPC   C1B52531   8.919  16.396   6.152
 4017POPC   C2B52532   8.886  16.350   6.600
 4017POPC   C3B52533   8.992  16.509   7.029
 4017POPC   C4B52534   8.894  16.517   7.472
 4018POPC   NC352535  12.903  41.031   5.514
 4018POPC   PO452536  12.616  40.351   5.433
 4018POPC   GL152537  12.784  40.562   5.849
 4018POPC   GL252538  12.751  40.934   5.976
 4018POPC   C1A52539  13.020  40.625   6.275
 4018POPC   D2A52540  13.192  40.442   6.668
 4018POPC   C3A52541  12.896  40.357   7.011
 4018POPC   C4A52542  12.699  40.605   7.314
 4018POPC   C1B52543  12.682  41.052   6.387
 4018POPC   C2B52544  12.693  40.766   6.736
 4018POPC   C3B52545  13.024  40.866   7.009
 4018POPC   C4B52546  13.004  41.235   7.293
 4019POPC   NC352547  20.267  31.956   5.380
 4019POPC   PO452548  20.531  31.335   5.270
 4019POPC   GL152549  20.623  31.374   5.699
 4019POPC   GL252550  20.528  31.736   5.789
 4019POPC   C1A52551  20.875  31.158   6.040
 4019POPC   D2A52552  21.045  31.405   6.424
 4019POPC   C3A52553  20.848  31.386   6.848
 4019POPC   C4A52554  20.661  31.332   7.260
 4019POPC   C1B52555  20.559  31.517   6.211
 4019POPC   C2B52556  20.381  31.483   6.633
 4019POPC   C3B52557  20.224  31.448   7.056
 4019POPC   C4B52558  20.337  31.757   7.428
 4020POPC   NC352559  35.675  14.907   5.242
 4020POPC   PO452560  35.117  15.289   5.281
 4020POPC   GL152561  35.381  15.134   5.623
 4020POPC   GL252562  35.103  14.974   5.810
 4020POPC   C1A52563  35.495  15.178   6.088
 4020POPC   D2A52564  35.716  15.227   6.492
 4020POPC   C3A52565  35.628  15.009   6.893
 4020POPC   C4A52566  35.295  15.100   7.210
 4020POPC   C1B52567  35.043  14.839   6.254
 4020POPC   C2B52568  35.169  15.009   6.656
 4020POPC   C3B52569  34.986  15.356   6.874
 4020POPC   C4B52570  34.786  15.280   7.256
 4021POPC   NC352571  18.035  12.172   5.665
 4021POPC   PO452572  18.563  12.457   5.516
 4021POPC   GL152573  18.523  12.148   5.867
 4021POPC   GL252574  18.380  11.804   5.750
 4021POPC   C1A52575  18.389  12.206   6.323
 4021POPC   D2A52576  18.088  12.169   6.690
 4021POPC   C3A52577  18.036  12.509   6.994
 4021POPC   C4A52578  18.394  12.654   7.209
 4021POPC   C1B52579  18.286  11.721   6.196
 4021POPC   C2B52580  18.133  11.636   6.616
 4021POPC   C3B52581  18.244  11.645   7.027
 4021POPC   C4B52582  18.233  12.062   7.205
 4022POPC   NC352583   6.725  37.019   5.284
 4022POPC   PO452584   6.288  36.580   5.165
 4022POPC   GL152585   6.440  36.739   5.644
 4022POPC   GL252586   6.819  36.779   5.755
 4022POPC   C1A52587   6.470  36.929   6.095
 4022POPC   D2A52588   6.566  36.679   6.488
 4022POPC   C3A52589   6.385  36.685   6.910
 4022POPC   C4A52590   6.564  36.785   7.259
 4022POPC   C1B52591   6.981  36.830   6.217
 4022POPC   C2B52592   6.959  36.960   6.690
 4022POPC   C3B52593   7.030  36.993   7.186
 4022POPC   C4B52594   7.041  37.302   7.567
 4023POPC   NC352595  17.057  10.232   5.545
 4023POPC   PO452596  16.497  10.669   5.470
 4023POPC   GL152597  16.661  10.638   5.879
 4023POPC   GL252598  16.669  10.300   5.889
 4023POPC   C1A52599  16.658  10.718   6.338
 4023POPC   D2A52600  16.432  10.828   6.722
 4023POPC   C3A52601  16.656  10.723   7.119
 4023POPC   C4A52602  16.799  10.628   7.555
 4023POPC   C1B52603  16.428  10.265   6.280
 4023POPC   C2B52604  16.557  10.335   6.737
 4023POPC   C3B52605  16.763  10.250   7.158
 4023POPC   C4B52606  16.711  10.120   7.566
 4024POPC   NC352607  28.756  37.641   5.532
 4024POPC   PO452608  29.385  37.593   5.376
 4024POPC   GL152609  29.181  37.622   5.848
 4024POPC   GL252610  28.891  37.873   5.983
 4024POPC   C1A52611  29.233  37.660   6.326
 4024POPC   D2A52612  29.227  37.989   6.654
 4024POPC   C3A52613  29.290  37.905   7.048
 4024POPC   C4A52614  29.177  37.555   7.243
 4024POPC   C1B52615  28.769  37.473   6.179
 4024POPC   C2B52616  28.912  37.194   6.510
 4024POPC   C3B52617  28.916  37.262   6.928
 4024POPC   C4B52618  28.631  37.507   7.157
 4025POPC   NC352619   9.323  12.292   5.573
 4025POPC   PO452620   8.841  11.799   5.439
 4025POPC   GL152621   9.083  11.902   5.794
 4025POPC   GL252622   8.894  12.179   5.865
 4025POPC   C1A52623   9.152  12.034   6.260
 4025POPC   D2A52624   8.915  12.167   6.651
 4025POPC   C3A52625   8.993  12.036   7.076
 4025POPC   C4A52626   9.336  11.794   7.240
 4025POPC   C1B52627   8.630  12.177   6.220
 4025POPC   C2B52628   8.478  12.390   6.555
 4025POPC   C3B52629   8.569  12.336   6.990
 4025POPC   C4B52630   8.806  12.436   7.378
 4026POPC   NC352631  14.858  22.140   5.388
 4026POPC   PO452632  14.298  22.507   5.467
 4026POPC   GL152633  14.544  22.293   5.772
 4026POPC   GL252634  14.416  21.963   5.788
 4026POPC   C1A52635  14.732  22.223   6.176
 4026POPC   D2A52636  14.539  22.105   6.596
 4026POPC   C3A52637  14.466  22.421   6.922
 4026POPC   C4A52638  14.683  22.285   7.290
 4026POPC   C1B52639  14.214  22.135   6.164
 4026POPC   C2B52640  14.048  22.261   6.568
 4026POPC   C3B52641  14.117  22.080   6.991
 4026POPC   C4B52642  14.024  22.312   7.367
 4027POPC   NC352643   5.290  10.740   5.503
 4027POPC   PO452644   4.751  10.445   5.306
 4027POPC   GL152645   4.979  10.377   5.775
 4027POPC   GL252646   5.280  10.527   5.956
 4027POPC   C1A52647   4.904  10.374   6.263
 4027POPC   D2A52648   4.878  10.619   6.675
 4027POPC   C3A52649   4.930  10.510   7.116
 4027POPC   C4A52650   5.216  10.711   7.402
 4027POPC   C1B52651   5.466  10.257   6.263
 4027POPC   C2B52652   5.347  10.095   6.685
 4027POPC   C3B52653   5.415  10.316   7.084
 4027POPC   C4B52654   5.386  10.269   7.524
 4028POPC   NC352655  30.050  20.745   5.231
 4028POPC   PO452656  29.639  20.324   5.518
 4028POPC   GL152657  29.852  20.655   5.727
 4028POPC   GL252658  30.225  20.731   5.712
 4028POPC   C1A52659  29.756  20.762   6.132
 4028POPC   D2A52660  29.999  20.782   6.522
 4028POPC   C3A52661  29.912  20.805   6.946
 4028POPC   C4A52662  30.160  20.987   7.281
 4028POPC   C1B52663  30.250  20.539   6.123
 4028POPC   C2B52664  30.122  20.280   6.493
 4028POPC   C3B52665  30.240  20.324   6.903
 4028POPC   C4B52666  30.077  20.449   7.275
 4029POPC   NC352667  43.907  14.573   5.354
 4029POPC   PO452668  43.998  13.936   5.608
 4029POPC   GL152669  43.846  14.325   5.817
 4029POPC   GL252670  43.592  14.606   5.750
 4029POPC   C1A52671  44.041  14.639   6.102
 4029POPC   D2A52672  44.284  14.624   6.493
 4029POPC   C3A52673  44.007  14.630   6.853
 4029POPC   C4A52674  43.962  14.363   7.197
 4029POPC   C1B52675  43.528  14.621   6.165
 4029POPC   C2B52676  43.663  14.782   6.510
 4029POPC   C3B52677  43.493  14.723   6.876
 4029POPC   C4B52678  43.419  14.498   7.205
 4030POPC   NC352679  24.548  22.527   5.307
 4030POPC   PO452680  24.647  21.876   5.191
 4030POPC   GL152681  24.494  22.040   5.624
 4030POPC   GL252682  24.382  22.381   5.768
 4030POPC   C1A52683  24.684  21.971   6.066
 4030POPC   D2A52684  24.775  22.146   6.488
 4030POPC   C3A52685  24.498  21.983   6.833
 4030POPC   C4A52686  24.409  21.798   7.270
 4030POPC   C1B52687  24.686  22.503   6.103
 4030POPC   C2B52688  24.740  22.652   6.547
 4030POPC   C3B52689  24.502  22.534   6.884
 4030POPC   C4B52690  24.428  22.325   7.240
 4031POPC   NC352691  30.626  10.227   5.624
 4031POPC   PO452692  30.955  10.533   5.124
 4031POPC   GL152693  30.937  10.772   5.608
 4031POPC   GL252694  30.654  10.707   5.804
 4031POPC   C1A52695  31.026  10.865   6.110
 4031POPC   D2A52696  31.003  10.691   6.564
 4031POPC   C3A52697  31.047  10.914   6.962
 4031POPC   C4A52698  30.859  10.613   7.248
 4031POPC   C1B52699  30.626  10.532   6.228
 4031POPC   C2B52700  30.424  10.402   6.629
 4031POPC   C3B52701  30.437  10.332   7.084
 4031POPC   C4B52702  30.378  10.664   7.388
 4032POPC   NC352703  26.669  24.592   5.234
 4032POPC   PO452704  26.531  23.986   5.490
 4032POPC   GL152705  26.703  24.138   5.866
 4032POPC   GL252706  27.045  24.130   5.779
 4032POPC   C1A52707  26.646  24.363   6.272
 4032POPC   D2A52708  26.789  24.713   6.539
 4032POPC   C3A52709  26.562  24.683   6.896
 4032POPC   C4A52710  26.558  24.368   7.212
 4032POPC   C1B52711  27.128  24.149   6.220
 4032POPC   C2B52712  27.227  24.434   6.593
 4032POPC   C3B52713  27.045  24.452   7.024
 4032POPC   C4B52714  27.097  24.369   7.483
 4033POPC   NC352715  20.395  10.262   5.536
 4033POPC   PO452716  21.022  10.487   5.791
 4033POPC   GL152717  20.595  10.547   5.920
 4033POPC   GL252718  20.552  10.227   6.001
 4033POPC   C1A52719  20.383  10.541   6.345
 4033POPC   D2A52720  20.558  10.339   6.730
 4033POPC   C3A52721  20.589  10.619   7.042
 4033POPC   C4A52722  20.584  10.506   7.434
 4033POPC   C1B52723  20.856  10.204   6.338
 4033POPC   C2B52724  21.058  10.122   6.744
 4033POPC   C3B52725  20.904  10.235   7.142
 4033POPC   C4B52726  21.052  10.277   7.567
 4034POPC   NC352727  42.679  10.217   5.343
 4034POPC   PO452728  43.254  10.459   5.144
 4034POPC   GL152729  43.124  10.348   5.626
 4034POPC   GL252730  43.329  10.154   5.806
 4034POPC   C1A52731  43.040  10.537   6.083
 4034POPC   D2A52732  42.712  10.488   6.442
 4034POPC   C3A52733  42.828  10.624   6.883
 4034POPC   C4A52734  43.234  10.727   7.067
 4034POPC   C1B52735  43.463  10.092   6.252
 4034POPC   C2B52736  43.379  10.143   6.719
 4034POPC   C3B52737  43.316  10.190   7.176
 4034POPC   C4B52738  43.154  10.092   7.599
 4035POPC   NC352739  18.833  22.687   5.322
 4035POPC   PO452740  19.464  22.860   5.416
 4035POPC   GL152741  19.188  22.938   5.756
 4035POPC   GL252742  18.844  23.064   5.686
 4035POPC   C1A52743  19.297  22.912   6.177
 4035POPC   D2A52744  19.039  22.974   6.505
 4035POPC   C3A52745  19.137  22.790   6.887
 4035POPC   C4A52746  19.359  22.828   7.262
 4035POPC   C1B52747  18.648  23.055   6.105
 4035POPC   C2B52748  18.659  23.318   6.469
 4035POPC   C3B52749  18.798  23.246   6.879
 4035POPC   C4B52750  18.905  23.066   7.252
 4036POPC   NC352751  40.564  27.641   5.379
 4036POPC   PO452752  41.114  27.253   5.391
 4036POPC   GL152753  40.916  27.451   5.745
 4036POPC   GL252754  40.971  27.817   5.726
 4036POPC   C1A52755  40.726  27.602   6.113
 4036POPC   D2A52756  40.635  27.516   6.493
 4036POPC   C3A52757  40.907  27.616   6.800
 4036POPC   C4A52758  40.724  27.464   7.147
 4036POPC   C1B52759  41.115  27.938   6.172
 4036POPC   C2B52760  41.021  28.111   6.593
 4036POPC   C3B52761  41.188  28.047   6.998
 4036POPC   C4B52762  41.058  27.793   7.328
 4037POPC   NC352763   6.383  37.913   5.524
 4037POPC   PO452764   6.801  37.464   5.338
 4037POPC   GL152765   6.670  37.298   5.723
 4037POPC   GL252766   6.668  37.640   5.828
 4037POPC   C1A52767   6.843  37.308   6.152
 4037POPC   D2A52768   6.708  37.454   6.542
 4037POPC   C3A52769   6.534  37.179   6.855
 4037POPC   C4A52770   6.720  37.383   7.178
 4037POPC   C1B52771   6.628  37.874   6.208
 4037POPC   C2B52772   6.926  37.945   6.524
 4037POPC   C3B52773   6.815  37.843   6.936
 4037POPC   C4B52774   7.012  37.788   7.313
 4038POPC   NC352775   7.339  28.294   5.440
 4038POPC   PO452776   7.168  28.949   5.303
 4038POPC   GL152777   7.224  28.774   5.765
 4038POPC   GL252778   7.543  28.559   5.838
 4038POPC   C1A52779   7.296  28.743   6.250
 4038POPC   D2A52780   7.498  28.565   6.640
 4038POPC   C3A52781   7.205  28.363   6.948
 4038POPC   C4A52782   7.006  28.472   7.341
 4038POPC   C1B52783   7.803  28.329   6.174
 4038POPC   C2B52784   7.838  28.137   6.601
 4038POPC   C3B52785   7.746  28.290   7.017
 4038POPC   C4B52786   7.833  28.143   7.425
 4039POPC   NC352787  40.094   0.346   5.368
 4039POPC   PO452788  39.635  44.985   5.563
 4039POPC   GL152789  39.954   0.131   5.838
 4039POPC   GL252790  40.081   0.508   5.870
 4039POPC   C1A52791  39.828   0.165   6.242
 4039POPC   D2A52792  39.858   0.528   6.475
 4039POPC   C3A52793  39.878   0.437   6.894
 4039POPC   C4A52794  39.735   0.154   7.179
 4039POPC   C1B52795  40.339   0.709   6.220
 4039POPC   C2B52796  40.295   0.727   6.678
 4039POPC   C3B52797  40.307   0.671   7.126
 4039POPC   C4B52798  40.375   0.769   7.562
 4040POPC   NC352799  24.831  26.107   5.491
 4040POPC   PO452800  24.228  25.905   5.496
 4040POPC   GL152801  24.313  26.210   5.841
 4040POPC   GL252802  24.677  26.318   5.941
 4040POPC   C1A52803  24.259  26.129   6.308
 4040POPC   D2A52804  24.215  25.778   6.633
 4040POPC   C3A52805  24.360  25.932   7.060
 4040POPC   C4A52806  24.649  26.316   7.085
 4040POPC   C1B52807  24.784  26.102   6.264
 4040POPC   C2B52808  24.661  26.059   6.649
 4040POPC   C3B52809  24.846  25.853   6.925
 4040POPC   C4B52810  24.812  25.633   7.257
 4041POPC   NC352811  11.941   4.701   5.532
 4041POPC   PO452812  11.882   4.082   5.408
 4041POPC   GL152813  11.915   4.241   5.813
 4041POPC   GL252814  11.968   3.910   5.969
 4041POPC   C1A52815  11.938   4.425   6.238
 4041POPC   D2A52816  11.952   4.195   6.632
 4041POPC   C3A52817  12.121   4.439   6.950
 4041POPC   C4A52818  12.092   4.736   7.270
 4041POPC   C1B52819  12.287   4.027   6.288
 4041POPC   C2B52820  12.522   4.005   6.717
 4041POPC   C3B52821  12.532   4.195   7.152
 4041POPC   C4B52822  12.211   4.263   7.500
 4042POPC   NC352823  24.909  32.386   5.091
 4042POPC   PO452824  25.423  32.669   5.412
 4042POPC   GL152825  25.266  32.387   5.736
 4042POPC   GL252826  25.198  32.029   5.640
 4042POPC   C1A52827  25.254  32.357   6.201
 4042POPC   D2A52828  25.305  32.049   6.543
 4042POPC   C3A52829  25.324  32.341   6.891
 4042POPC   C4A52830  25.204  32.486   7.283
 4042POPC   C1B52831  24.967  31.958   6.074
 4042POPC   C2B52832  24.807  32.025   6.520
 4042POPC   C3B52833  24.970  31.977   6.965
 4042POPC   C4B52834  25.338  31.967   7.253
 4043POPC   NC352835  38.669  16.045   5.415
 4043POPC   PO452836  38.237  15.606   5.208
 4043POPC   GL152837  38.292  15.751   5.658
 4043POPC   GL252838  38.601  15.654   5.776
 4043POPC   C1A52839  38.324  16.075   6.034
 4043POPC   D2A52840  38.298  16.311   6.451
 4043POPC   C3A52841  38.318  16.082   6.862
 4043POPC   C4A52842  38.228  16.168   7.313
 4043POPC   C1B52843  38.811  15.899   6.077
 4043POPC   C2B52844  38.699  15.829   6.470
 4043POPC   C3B52845  38.810  15.806   6.879
 4043POPC   C4B52846  38.579  15.830   7.250
 4044POPC   NC352847  36.455   4.456   5.352
 4044POPC   PO452848  35.965   4.004   5.553
 4044POPC   GL152849  36.213   4.325   5.789
 4044POPC   GL252850  36.462   4.073   5.907
 4044POPC   C1A52851  35.996   4.601   6.140
 4044POPC   D2A52852  35.901   4.884   6.515
 4044POPC   C3A52853  35.992   4.667   6.896
 4044POPC   C4A52854  36.276   4.594   7.196
 4044POPC   C1B52855  36.124   4.114   6.225
 4044POPC   C2B52856  35.997   4.247   6.610
 4044POPC   C3B52857  36.063   4.092   7.009
 4044POPC   C4B52858  36.129   4.151   7.401
 4045POPC   NC352859   2.694  34.703   5.171
 4045POPC   PO452860   2.933  34.147   5.525
 4045POPC   GL152861   2.837  34.485   5.818
 4045POPC   GL252862   2.536  34.691   5.836
 4045POPC   C1A52863   2.729  34.452   6.268
 4045POPC   D2A52864   2.561  34.244   6.626
 4045POPC   C3A52865   2.586  34.446   7.033
 4045POPC   C4A52866   2.926  34.590   7.298
 4045POPC   C1B52867   2.770  34.973   6.176
 4045POPC   C2B52868   2.779  35.013   6.656
 4045POPC   C3B52869   2.679  34.997   7.120
 4045POPC   C4B52870   2.873  35.023   7.576
 4046POPC   NC352871  10.870  28.620   5.347
 4046POPC   PO452872  11.605  28.404   5.448
 4046POPC   GL152873  11.379  28.294   5.826
 4046POPC   GL252874  11.115  28.588   5.811
 4046POPC   C1A52875  11.515  28.139   6.268
 4046POPC   D2A52876  11.383  28.297   6.687
 4046POPC   C3A52877  11.595  28.182   7.077
 4046POPC   C4A52878  11.543  28.180   7.527
 4046POPC   C1B52879  11.150  28.488   6.254
 4046POPC   C2B52880  10.869  28.401   6.580
 4046POPC   C3B52881  10.937  28.388   6.983
 4046POPC   C4B52882  11.235  28.537   7.239
 4047POPC   NC352883  15.361  25.723   5.183
 4047POPC   PO452884  14.820  26.076   5.349
 4047POPC   GL152885  15.194  26.091   5.643
 4047POPC   GL252886  15.020  25.859   5.781
 4047POPC   C1A52887  15.318  26.082   6.128
 4047POPC   D2A52888  15.095  26.165   6.536
 4047POPC   C3A52889  15.248  26.054   6.972
 4047POPC   C4A52890  15.489  26.017   7.372
 4047POPC   C1B52891  14.854  25.883   6.171
 4047POPC   C2B52892  14.860  25.683   6.545
 4047POPC   C3B52893  15.034  25.578   6.911
 4047POPC   C4B52894  14.970  25.736   7.305
 4048POPC   NC352895   4.770  37.916   5.308
 4048POPC   PO452896   5.333  37.597   5.337
 4048POPC   GL152897   5.052  37.711   5.697
 4048POPC   GL252898   4.772  37.485   5.615
 4048POPC   C1A52899   4.994  37.848   6.159
 4048POPC   D2A52900   4.893  37.984   6.615
 4048POPC   C3A52901   5.217  37.848   6.950
 4048POPC   C4A52902   5.339  37.411   7.062
 4048POPC   C1B52903   4.783  37.327   6.024
 4048POPC   C2B52904   4.721  37.334   6.464
 4048POPC   C3B52905   4.891  37.229   6.862
 4048POPC   C4B52906   4.703  37.281   7.235
 4049POPC   NC352907   4.678  30.836   5.552
 4049POPC   PO452908   5.224  30.548   5.307
 4049POPC   GL152909   5.237  30.709   5.731
 4049POPC   GL252910   5.484  30.474   5.776
 4049POPC   C1A52911   5.081  30.873   6.143
 4049POPC   D2A52912   5.005  31.123   6.525
 4049POPC   C3A52913   5.098  30.900   6.906
 4049POPC   C4A52914   5.118  30.797   7.349
 4049POPC   C1B52915   5.246  30.387   6.164
 4049POPC   C2B52916   5.305  30.428   6.604
 4049POPC   C3B52917   5.230  30.393   7.036
 4049POPC   C4B52918   5.157  30.302   7.446
 4050POPC   NC352919  23.893  17.509   5.424
 4050POPC   PO452920  23.324  17.854   5.304
 4050POPC   GL152921  23.485  17.672   5.723
 4050POPC   GL252922  23.800  17.814   5.804
 4050POPC   C1A52923  23.638  17.492   6.150
 4050POPC   D2A52924  23.856  17.262   6.478
 4050POPC   C3A52925  23.573  17.304   6.809
 4050POPC   C4A52926  23.610  17.510   7.190
 4050POPC   C1B52927  23.904  17.973   6.190
 4050POPC   C2B52928  23.806  17.787   6.585
 4050POPC   C3B52929  23.776  17.958   6.992
 4050POPC   C4B52930  23.991  18.248   7.289
 4051POPC   NC352931  17.827   1.994   5.382
 4051POPC   PO452932  17.187   2.039   5.087
 4051POPC   GL152933  17.355   1.908   5.562
 4051POPC   GL252934  17.066   1.733   5.705
 4051POPC   C1A52935  17.428   1.932   6.065
 4051POPC   D2A52936  17.727   1.933   6.475
 4051POPC   C3A52937  17.640   1.971   6.933
 4051POPC   C4A52938  17.691   2.183   7.373
 4051POPC   C1B52939  16.960   1.648   6.129
 4051POPC   C2B52940  17.165   1.690   6.522
 4051POPC   C3B52941  17.068   1.780   6.921
 4051POPC   C4B52942  17.256   1.917   7.243
 4052POPC   NC352943  22.618  29.707   5.558
 4052POPC   PO452944  22.598  29.018   5.383
 4052POPC   GL152945  22.905  29.131   5.729
 4052POPC   GL252946  22.731  29.373   5.921
 4052POPC   C1A52947  23.020  29.020   6.179
 4052POPC   D2A52948  22.831  29.004   6.602
 4052POPC   C3A52949  23.051  29.057   6.990
 4052POPC   C4A52950  22.824  28.884   7.330
 4052POPC   C1B52951  22.838  29.491   6.340
 4052POPC   C2B52952  22.859  29.501   6.783
 4052POPC   C3B52953  22.720  29.379   7.206
 4052POPC   C4B52954  22.632  29.273   7.661
 4053POPC   NC352955  10.398  38.300   5.226
 4053POPC   PO452956  10.785  38.798   5.486
 4053POPC   GL152957  10.583  38.476   5.695
 4053POPC   GL252958  10.382  38.618   5.863
 4053POPC   C1A52959  10.614  38.297   6.151
 4053POPC   D2A52960  10.759  38.493   6.533
 4053POPC   C3A52961  10.612  38.398   6.938
 4053POPC   C4A52962  10.229  38.451   7.148
 4053POPC   C1B52963  10.295  38.687   6.299
 4053POPC   C2B52964  10.260  38.771   6.745
 4053POPC   C3B52965  10.044  38.920   7.140
 4053POPC   C4B52966  10.235  38.799   7.569
 4054POPC   NC352967  12.413  29.070   5.231
 4054POPC   PO452968  11.800  29.255   5.514
 4054POPC   GL152969  12.181  29.215   5.765
 4054POPC   GL252970  12.314  28.877   5.712
 4054POPC   C1A52971  12.077  29.282   6.212
 4054POPC   D2A52972  11.947  29.331   6.667
 4054POPC   C3A52973  11.846  29.046   7.021
 4054POPC   C4A52974  11.778  29.113   7.499
 4054POPC   C1B52975  12.481  28.959   6.142
 4054POPC   C2B52976  12.438  29.186   6.549
 4054POPC   C3B52977  12.392  29.077   6.950
 4054POPC   C4B52978  12.251  29.033   7.336
 4055POPC   NC352979   5.657  30.728   5.378
 4055POPC   PO452980   6.345  30.903   5.437
 4055POPC   GL152981   6.014  30.725   5.755
 4055POPC   GL252982   5.723  30.945   5.844
 4055POPC   C1A52983   6.087  30.611   6.209
 4055POPC   D2A52984   6.219  30.410   6.590
 4055POPC   C3A52985   6.103  30.624   6.937
 4055POPC   C4A52986   6.021  30.823   7.284
 4055POPC   C1B52987   5.599  30.734   6.197
 4055POPC   C2B52988   5.725  30.723   6.601
 4055POPC   C3B52989   5.588  30.790   7.011
 4055POPC   C4B52990   5.585  30.575   7.375
 4056POPC   NC352991  43.376  43.530   5.489
 4056POPC   PO452992  43.739  42.987   5.328
 4056POPC   GL152993  43.856  43.020   5.768
 4056POPC   GL252994  43.736  43.332   5.847
 4056POPC   C1A52995  44.099  43.178   6.165
 4056POPC   D2A52996  44.121  43.286   6.600
 4056POPC   C3A52997  44.071  43.010   6.972
 4056POPC   C4A52998  44.080  43.250   7.325
 4056POPC   C1B52999  43.588  43.068   6.190
 4056POPC   C2B53000  43.393  42.933   6.539
 4056POPC   C3B53001  43.560  43.044   6.918
 4056POPC   C4B53002  43.638  42.990   7.316
 4057POPC   NC353003  34.296  29.243   5.458
 4057POPC   PO453004  33.646  29.184   5.474
 4057POPC   GL153005  33.893  29.136   5.818
 4057POPC   GL253006  34.141  28.937   5.837
 4057POPC   C1A53007  33.778  29.107   6.221
 4057POPC   D2A53008  33.854  29.268   6.586
 4057POPC   C3A53009  33.596  29.267   6.916
 4057POPC   C4A53010  33.708  29.218   7.323
 4057POPC   C1B53011  34.057  28.686   6.144
 4057POPC   C2B53012  34.148  28.818   6.536
 4057POPC   C3B53013  33.986  28.917   6.925
 4057POPC   C4B53014  33.996  28.759   7.314
 4058POPC   NC353015  20.243  11.206   5.385
 4058POPC   PO453016  19.581  11.428   5.449
 4058POPC   GL153017  19.877  11.250   5.739
 4058POPC   GL253018  19.822  10.905   5.676
 4058POPC   C1A53019  20.055  11.160   6.170
 4058POPC   D2A53020  20.105  11.405   6.548
 4058POPC   C3A53021  19.876  11.270   6.933
 4058POPC   C4A53022  19.935  11.304   7.406
 4058POPC   C1B53023  19.560  11.039   6.055
 4058POPC   C2B53024  19.643  10.888   6.457
 4058POPC   C3B53025  19.676  10.785   6.866
 4058POPC   C4B53026  19.615  10.941   7.253
 4059POPC   NC353027  13.049  17.862   5.446
 4059POPC   PO453028  12.542  17.358   5.451
 4059POPC   GL153029  12.861  17.484   5.735
 4059POPC   GL253030  12.703  17.803   5.829
 4059POPC   C1A53031  13.081  17.414   6.115
 4059POPC   D2A53032  13.254  17.245   6.475
 4059POPC   C3A53033  13.197  17.257   6.918
 4059POPC   C4A53034  12.934  17.110   7.248
 4059POPC   C1B53035  12.822  17.839   6.256
 4059POPC   C2B53036  12.953  17.660   6.679
 4059POPC   C3B53037  12.896  17.617   7.149
 4059POPC   C4B53038  12.633  17.897   7.422
 4060POPC   NC353039  29.321  39.576   5.185
 4060POPC   PO453040  29.327  38.992   5.552
 4060POPC   GL153041  29.075  39.174   5.849
 4060POPC   GL253042  28.795  38.956   5.859
 4060POPC   C1A53043  29.262  39.246   6.259
 4060POPC   D2A53044  29.388  38.978   6.598
 4060POPC   C3A53045  29.305  39.164   6.993
 4060POPC   C4A53046  29.065  39.193   7.355
 4060POPC   C1B53047  28.756  39.162   6.257
 4060POPC   C2B53048  28.914  39.222   6.658
 4060POPC   C3B53049  28.738  39.400   7.024
 4060POPC   C4B53050  28.815  39.702   7.333
 4061POPC   NC353051  18.090   2.697   5.180
 4061POPC   PO453052  18.692   2.912   5.098
 4061POPC   GL153053  18.538   2.856   5.591
 4061POPC   GL253054  18.194   2.954   5.709
 4061POPC   C1A53055  18.477   2.680   6.071
 4061POPC   D2A53056  18.514   2.853   6.552
 4061POPC   C3A53057  18.307   2.767   6.982
 4061POPC   C4A53058  18.276   2.440   7.306
 4061POPC   C1B53059  18.043   2.967   6.166
 4061POPC   C2B53060  17.975   2.790   6.577
 4061POPC   C3B53061  17.811   2.501   6.890
 4061POPC   C4B53062  17.817   2.719   7.248
 4062POPC   NC353063   0.892  13.112   5.351
 4062POPC   PO453064   1.365  12.740   5.355
 4062POPC   GL153065   1.212  12.714   5.819
 4062POPC   GL253066   0.860  12.687   5.849
 4062POPC   C1A53067   1.157  12.846   6.283
 4062POPC   D2A53068   1.243  13.050   6.682
 4062POPC   C3A53069   1.370  12.919   7.091
 4062POPC   C4A53070   1.221  13.143   7.428
 4062POPC   C1B53071   0.816  12.477   6.286
 4062POPC   C2B53072   0.876  12.617   6.736
 4062POPC   C3B53073   0.983  12.602   7.173
 4062POPC   C4B53074   0.966  12.690   7.634
 4063POPC   NC353075   1.312   7.776   5.670
 4063POPC   PO453076   1.172   8.309   5.239
 4063POPC   GL153077   1.328   8.392   5.664
 4063POPC   GL253078   1.603   8.252   5.790
 4063POPC   C1A53079   1.308   8.488   6.143
 4063POPC   D2A53080   1.079   8.214   6.457
 4063POPC   C3A53081   1.091   8.207   6.911
 4063POPC   C4A53082   0.876   7.942   7.188
 4063POPC   C1B53083   1.562   8.053   6.241
 4063POPC   C2B53084   1.562   8.100   6.676
 4063POPC   C3B53085   1.680   7.902   7.052
 4063POPC   C4B53086   1.350   7.779   7.337
 4064POPC   NC353087  40.322  44.297   5.377
 4064POPC   PO453088  40.255  44.955   5.208
 4064POPC   GL153089  40.248  44.757   5.629
 4064POPC   GL253090  39.980  44.499   5.720
 4064POPC   C1A53091  40.232  44.733   6.090
 4064POPC   D2A53092  40.169  44.394   6.409
 4064POPC   C3A53093  40.086  44.578   6.818
 4064POPC   C4A53094  39.989  44.708   7.219
 4064POPC   C1B53095  39.750  44.562   6.137
 4064POPC   C2B53096  39.601  44.781   6.521
 4064POPC   C3B53097  39.554  44.731   6.954
 4064POPC   C4B53098  39.585  44.377   7.241
 4065POPC   NC353099   2.203  33.353   5.404
 4065POPC   PO453100   1.945  33.999   5.471
 4065POPC   GL153101   1.992  33.928   5.837
 4065POPC   GL253102   1.960  33.543   5.882
 4065POPC   C1A53103   1.813  33.946   6.198
 4065POPC   D2A53104   1.735  33.564   6.372
 4065POPC   C3A53105   1.760  33.622   6.796
 4065POPC   C4A53106   1.794  33.943   7.105
 4065POPC   C1B53107   2.245  33.489   6.286
 4065POPC   C2B53108   2.264  33.475   6.756
 4065POPC   C3B53109   2.070  33.498   7.186
 4065POPC   C4B53110   2.271  33.422   7.587
 4066POPC   NC353111  17.180  34.102   5.321
 4066POPC   PO453112  17.686  33.626   5.474
 4066POPC   GL153113  17.526  33.907   5.778
 4066POPC   GL253114  17.275  33.701   5.909
 4066POPC   C1A53115  17.465  34.038   6.234
 4066POPC   D2A53116  17.306  33.924   6.660
 4066POPC   C3A53117  17.584  33.822   7.004
 4066POPC   C4A53118  17.807  34.129   7.257
 4066POPC   C1B53119  17.306  33.512   6.332
 4066POPC   C2B53120  17.288  33.420   6.790
 4066POPC   C3B53121  17.367  33.260   7.218
 4066POPC   C4B53122  17.226  33.450   7.670
 4067POPC   NC353123   7.793  31.037   5.307
 4067POPC   PO453124   7.724  31.749   5.408
 4067POPC   GL153125   7.615  31.570   5.818
 4067POPC   GL253126   7.600  31.231   5.772
 4067POPC   C1A53127   7.302  31.476   6.147
 4067POPC   D2A53128   7.209  31.285   6.546
 4067POPC   C3A53129   7.250  31.535   6.947
 4067POPC   C4A53130   6.954  31.876   7.153
 4067POPC   C1B53131   7.760  31.248   6.217
 4067POPC   C2B53132   7.705  31.163   6.668
 4067POPC   C3B53133   7.761  31.126   7.100
 4067POPC   C4B53134   7.772  31.463   7.388
 4068POPC   NC353135  13.860  44.338   5.341
 4068POPC   PO453136  13.477  44.791   5.271
 4068POPC   GL153137  13.646  44.651   5.663
 4068POPC   GL253138  13.810  44.903   5.807
 4068POPC   C1A53139  13.800  44.433   6.019
 4068POPC   D2A53140  14.044  44.391   6.377
 4068POPC   C3A53141  13.891  44.558   6.735
 4068POPC   C4A53142  13.762  44.555   7.144
 4068POPC   C1B53143  13.885  44.880   6.272
 4068POPC   C2B53144  13.747   0.050   6.680
 4068POPC   C3B53145  13.987   0.143   7.074
 4068POPC   C4B53146  14.035  44.906   7.456
 4069POPC   NC353147  19.319   9.035   4.903
 4069POPC   PO453148  19.139   8.614   5.479
 4069POPC   GL153149  18.865   8.763   5.851
 4069POPC   GL253150  18.796   9.169   5.912
 4069POPC   C1A53151  19.068   8.849   6.272
 4069POPC   D2A53152  19.285   8.675   6.652
 4069POPC   C3A53153  19.288   8.954   7.026
 4069POPC   C4A53154  19.150   8.861   7.451
 4069POPC   C1B53155  18.825   9.301   6.349
 4069POPC   C2B53156  18.824   9.015   6.701
 4069POPC   C3B53157  18.769   9.035   7.116
 4069POPC   C4B53158  18.607   9.427   7.219
 4070POPC   NC353159  21.518  34.408   5.358
 4070POPC   PO453160  21.025  34.820   5.465
 4070POPC   GL153161  21.214  34.591   5.788
 4070POPC   GL253162  21.571  34.538   5.867
 4070POPC   C1A53163  21.178  34.448   6.194
 4070POPC   D2A53164  21.452  34.587   6.541
 4070POPC   C3A53165  21.324  34.462   6.943
 4070POPC   C4A53166  21.348  34.660   7.342
 4070POPC   C1B53167  21.627  34.209   6.231
 4070POPC   C2B53168  21.655  34.134   6.714
 4070POPC   C3B53169  21.613  34.121   7.206
 4070POPC   C4B53170  21.575  34.044   7.690
 4071POPC   NC353171  19.425  10.019   5.561
 4071POPC   PO453172  19.011   9.513   5.444
 4071POPC   GL153173  19.113   9.615   5.850
 4071POPC   GL253174  19.428   9.446   5.831
 4071POPC   C1A53175  19.207   9.659   6.289
 4071POPC   D2A53176  19.390   9.815   6.659
 4071POPC   C3A53177  19.068   9.995   6.916
 4071POPC   C4A53178  18.928   9.823   7.261
 4071POPC   C1B53179  19.577   9.314   6.243
 4071POPC   C2B53180  19.297   9.244   6.590
 4071POPC   C3B53181  19.047   9.445   6.911
 4071POPC   C4B53182  19.143   9.375   7.360
 4072POPC   NC353183   6.398  33.589   5.458
 4072POPC   PO453184   6.920  33.976   5.320
 4072POPC   GL153185   6.730  33.884   5.687
 4072POPC   GL253186   6.863  33.563   5.718
 4072POPC   C1A53187   6.532  33.998   6.083
 4072POPC   D2A53188   6.300  34.031   6.495
 4072POPC   C3A53189   6.574  33.854   6.821
 4072POPC   C4A53190   6.763  33.810   7.225
 4072POPC   C1B53191   6.707  33.503   6.134
 4072POPC   C2B53192   6.670  33.396   6.580
 4072POPC   C3B53193   6.509  33.388   7.032
 4072POPC   C4B53194   6.687  33.346   7.464
 4073POPC   NC353195  44.926  42.117   5.562
 4073POPC   PO453196   0.406  42.558   5.312
 4073POPC   GL153197   0.377  42.340   5.733
 4073POPC   GL253198   0.628  42.092   5.810
 4073POPC   C1A53199   0.385  42.306   6.218
 4073POPC   D2A53200   0.364  42.476   6.654
 4073POPC   C3A53201   0.127  42.223   6.974
 4073POPC   C4A53202   0.172  42.309   7.430
 4073POPC   C1B53203   0.650  41.855   6.201
 4073POPC   C2B53204   0.582  41.961   6.636
 4073POPC   C3B53205   0.621  42.142   7.061
 4073POPC   C4B53206   0.549  41.930   7.467
 4074POPC   NC353207  20.138  20.879   5.459
 4074POPC   PO453208  20.246  21.562   5.395
 4074POPC   GL153209  20.498  21.521   5.750
 4074POPC   GL253210  20.815  21.353   5.763
 4074POPC   C1A53211  20.591  21.535   6.197
 4074POPC   D2A53212  20.364  21.372   6.544
 4074POPC   C3A53213  20.560  21.424   6.913
 4074POPC   C4A53214  20.482  21.216   7.271
 4074POPC   C1B53215  20.982  21.199   6.137
 4074POPC   C2B53216  21.091  21.036   6.534
 4074POPC   C3B53217  20.932  21.066   6.967
 4074POPC   C4B53218  20.956  21.456   7.240
 4075POPC   NC353219  16.317  10.214   5.483
 4075POPC   PO453220  15.816  10.481   5.143
 4075POPC   GL153221  15.810  10.592   5.617
 4075POPC   GL253222  16.124  10.582   5.805
 4075POPC   C1A53223  15.712  10.696   6.083
 4075POPC   D2A53224  16.068  10.636   6.356
 4075POPC   C3A53225  15.945  10.648   6.784
 4075POPC   C4A53226  16.150  10.729   7.163
 4075POPC   C1B53227  15.912  10.232   6.038
 4075POPC   C2B53228  15.867  10.192   6.497
 4075POPC   C3B53229  15.829  10.185   6.964
 4075POPC   C4B53230  16.239  10.216   7.145
 4076POPC   NC353231  27.560  32.597   5.356
 4076POPC   PO453232  27.736  32.006   5.587
 4076POPC   GL153233  27.483  32.208   5.851
 4076POPC   GL253234  27.449  32.535   5.838
 4076POPC   C1A53235  27.532  32.274   6.261
 4076POPC   D2A53236  27.650  32.037   6.567
 4076POPC   C3A53237  27.703  32.266   6.949
 4076POPC   C4A53238  28.009  32.271   7.298
 4076POPC   C1B53239  27.284  32.723   6.196
 4076POPC   C2B53240  27.498  32.705   6.572
 4076POPC   C3B53241  27.390  32.688   6.975
 4076POPC   C4B53242  27.606  32.602   7.337
 4077POPC   NC353243  33.736  11.915   5.327
 4077POPC   PO453244  33.784  12.628   5.204
 4077POPC   GL153245  33.784  12.300   5.648
 4077POPC   GL253246  33.513  12.089   5.777
 4077POPC   C1A53247  33.967  11.972   5.989
 4077POPC   D2A53248  33.795  11.811   6.403
 4077POPC   C3A53249  34.030  11.809   6.823
 4077POPC   C4A53250  34.113  11.848   7.289
 4077POPC   C1B53251  33.665  12.332   6.168
 4077POPC   C2B53252  33.849  12.337   6.571
 4077POPC   C3B53253  33.691  12.282   6.968
 4077POPC   C4B53254  33.613  11.915   7.187
 4078POPC   NC353255  10.100   6.110   5.466
 4078POPC   PO453256  10.521   5.659   5.358
 4078POPC   GL153257  10.482   5.913   5.773
 4078POPC   GL253258  10.828   5.990   5.860
 4078POPC   C1A53259  10.310   5.976   6.227
 4078POPC   D2A53260  10.120   5.839   6.651
 4078POPC   C3A53261  10.315   5.925   7.062
 4078POPC   C4A53262  10.276   5.923   7.521
 4078POPC   C1B53263  10.770   5.739   6.251
 4078POPC   C2B53264  10.647   5.987   6.629
 4078POPC   C3B53265  10.797   6.074   7.047
 4078POPC   C4B53266  10.775   5.888   7.449
 4079POPC   NC353267   6.939  41.062   5.546
 4079POPC   PO453268   6.841  40.410   5.638
 4079POPC   GL153269   6.681  40.764   5.880
 4079POPC   GL253270   6.444  41.091   5.922
 4079POPC   C1A53271   6.791  40.711   6.302
 4079POPC   D2A53272   7.110  40.739   6.602
 4079POPC   C3A53273   6.964  40.547   6.972
 4079POPC   C4A53274   6.803  40.827   7.225
 4079POPC   C1B53275   6.284  40.740   6.182
 4079POPC   C2B53276   6.393  40.661   6.632
 4079POPC   C3B53277   6.336  40.905   7.011
 4079POPC   C4B53278   6.351  40.844   7.458
 4080POPC   NC353279  10.879  42.074   5.428
 4080POPC   PO453280  10.255  42.153   5.397
 4080POPC   GL153281  10.499  42.193   5.766
 4080POPC   GL253282  10.679  42.531   5.779
 4080POPC   C1A53283  10.396  42.337   6.181
 4080POPC   D2A53284  10.482  42.561   6.560
 4080POPC   C3A53285  10.447  42.301   6.898
 4080POPC   C4A53286  10.152  42.222   7.218
 4080POPC   C1B53287  10.892  42.556   6.214
 4080POPC   C2B53288  10.987  42.631   6.672
 4080POPC   C3B53289  10.693  42.771   7.007
 4080POPC   C4B53290  10.328  42.724   7.247
 4081POPC   NC353291   7.452  20.557   5.415
 4081POPC   PO453292   7.029  21.030   5.328
 4081POPC   GL153293   7.115  20.713   5.755
 4081POPC   GL253294   7.517  20.634   5.919
 4081POPC   C1A53295   7.104  20.514   6.185
 4081POPC   D2A53296   7.423  20.556   6.503
 4081POPC   C3A53297   7.264  20.595   6.905
 4081POPC   C4A53298   7.222  20.413   7.293
 4081POPC   C1B53299   7.748  20.286   6.199
 4081POPC   C2B53300   7.685  20.104   6.604
 4081POPC   C3B53301   7.689  20.296   7.029
 4081POPC   C4B53302   7.668  20.682   7.290
 4082POPC   NC353303   2.093  38.527   5.244
 4082POPC   PO453304   1.715  38.827   5.608
 4082POPC   GL153305   2.055  38.691   5.865
 4082POPC   GL253306   2.119  38.341   5.831
 4082POPC   C1A53307   2.060  38.583   6.298
 4082POPC   D2A53308   2.086  38.800   6.675
 4082POPC   C3A53309   1.857  38.629   7.001
 4082POPC   C4A53310   1.890  38.361   7.344
 4082POPC   C1B53311   2.388  38.186   6.202
 4082POPC   C2B53312   2.345  38.299   6.635
 4082POPC   C3B53313   2.236  38.123   7.027
 4082POPC   C4B53314   2.574  38.264   7.268
 4083POPC   NC353315  37.709  37.082   5.455
 4083POPC   PO453316  38.239  36.518   5.385
 4083POPC   GL153317  37.863  36.597   5.674
 4083POPC   GL253318  37.967  36.894   5.849
 4083POPC   C1A53319  37.567  36.644   6.067
 4083POPC   D2A53320  37.608  36.552   6.523
 4083POPC   C3A53321  37.496  36.808   6.897
 4083POPC   C4A53322  37.712  36.814   7.294
 4083POPC   C1B53323  37.920  36.941   6.300
 4083POPC   C2B53324  37.849  37.121   6.682
 4083POPC   C3B53325  37.606  37.342   6.979
 4083POPC   C4B53326  37.713  37.360   7.394
 4084POPC   NC353327   4.567   1.523   5.224
 4084POPC   PO453328   5.211   1.228   5.264
 4084POPC   GL153329   4.948   1.140   5.667
 4084POPC   GL253330   5.004   0.813   5.872
 4084POPC   C1A53331   4.817   1.215   6.124
 4084POPC   D2A53332   4.712   1.004   6.545
 4084POPC   C3A53333   4.742   1.176   6.972
 4084POPC   C4A53334   5.027   1.184   7.340
 4084POPC   C1B53335   5.100   0.766   6.321
 4084POPC   C2B53336   5.169   0.885   6.793
 4084POPC   C3B53337   5.490   1.021   7.127
 4084POPC   C4B53338   5.866   1.253   7.322
 4085POPC   NC353339  18.645  43.516   5.335
 4085POPC   PO453340  18.183  43.978   5.398
 4085POPC   GL153341  18.286  43.812   5.768
 4085POPC   GL253342  18.633  43.914   5.758
 4085POPC   C1A53343  18.384  43.755   6.205
 4085POPC   D2A53344  18.486  43.607   6.608
 4085POPC   C3A53345  18.358  43.831   6.960
 4085POPC   C4A53346  18.254  43.631   7.354
 4085POPC   C1B53347  18.701  44.165   6.146
 4085POPC   C2B53348  18.566  44.146   6.583
 4085POPC   C3B53349  18.640  44.268   7.008
 4085POPC   C4B53350  18.590  44.013   7.376
 4086POPC   NC353351  11.588  40.310   5.405
 4086POPC   PO453352  11.153  40.779   5.254
 4086POPC   GL153353  11.041  40.761   5.681
 4086POPC   GL253354  11.374  40.627   5.767
 4086POPC   C1A53355  11.071  40.976   6.086
 4086POPC   D2A53356  11.419  41.091   6.357
 4086POPC   C3A53357  11.336  41.012   6.818
 4086POPC   C4A53358  11.231  41.087   7.253
 4086POPC   C1B53359  11.543  40.615   6.186
 4086POPC   C2B53360  11.228  40.597   6.495
 4086POPC   C3B53361  11.137  40.539   6.903
 4086POPC   C4B53362  11.412  40.558   7.264
 4087POPC   NC353363  28.634  26.504   5.348
 4087POPC   PO453364  28.084  26.221   5.581
 4087POPC   GL153365  28.459  26.200   5.812
 4087POPC   GL253366  28.243  26.253   6.073
 4087POPC   C1A53367  28.721  26.120   6.199
 4087POPC   D2A53368  28.664  25.908   6.608
 4087POPC   C3A53369  28.370  26.101   6.879
 4087POPC   C4A53370  28.405  26.210   7.298
 4087POPC   C1B53371  27.895  26.429   6.275
 4087POPC   C2B53372  27.736  26.258   6.652
 4087POPC   C3B53373  27.956  26.372   7.028
 4087POPC   C4B53374  27.962  26.358   7.447
 4088POPC   NC353375   3.385  34.257   5.636
 4088POPC   PO453376   3.671  34.816   5.613
 4088POPC   GL153377   3.325  34.646   5.953
 4088POPC   GL253378   3.213  34.278   6.104
 4088POPC   C1A53379   3.166  34.719   6.380
 4088POPC   D2A53380   3.027  34.501   6.756
 4088POPC   C3A53381   3.375  34.492   7.047
 4088POPC   C4A53382   3.635  34.667   7.363
 4088POPC   C1B53383   3.576  34.382   6.336
 4088POPC   C2B53384   3.765  34.244   6.707
 4088POPC   C3B53385   3.826  34.243   7.123
 4088POPC   C4B53386   3.581  34.130   7.393
 4089POPC   NC353387  17.967  22.682   5.527
 4089POPC   PO453388  18.499  23.020   5.210
 4089POPC   GL153389  18.318  23.081   5.624
 4089POPC   GL253390  18.429  22.765   5.730
 4089POPC   C1A53391  18.133  23.027   6.073
 4089POPC   D2A53392  18.188  23.168   6.511
 4089POPC   C3A53393  18.164  23.005   6.940
 4089POPC   C4A53394  18.286  23.079   7.391
 4089POPC   C1B53395  18.422  22.561   6.141
 4089POPC   C2B53396  18.608  22.708   6.530
 4089POPC   C3B53397  18.614  22.769   6.969
 4089POPC   C4B53398  18.369  22.604   7.312
 4090POPC   NC353399   4.083  41.745   5.533
 4090POPC   PO453400   3.480  41.355   5.610
 4090POPC   GL153401   3.452  41.743   5.815
 4090POPC   GL253402   3.110  41.823   5.827
 4090POPC   C1A53403   3.399  41.898   6.242
 4090POPC   D2A53404   3.371  41.990   6.687
 4090POPC   C3A53405   3.743  41.848   6.903
 4090POPC   C4A53406   4.007  41.609   7.145
 4090POPC   C1B53407   3.109  41.471   6.176
 4090POPC   C2B53408   3.282  41.388   6.582
 4090POPC   C3B53409   3.392  41.492   6.988
 4090POPC   C4B53410   3.579  41.420   7.376
 4091POPC   NC353411  27.446  36.484   5.492
 4091POPC   PO453412  27.826  36.069   5.200
 4091POPC   GL153413  27.753  36.154   5.718
 4091POPC   GL253414  27.893  36.472   5.780
 4091POPC   C1A53415  27.469  36.210   6.150
 4091POPC   D2A53416  27.237  36.198   6.590
 4091POPC   C3A53417  27.240  35.941   6.973
 4091POPC   C4A53418  27.438  35.950   7.408
 4091POPC   C1B53419  27.989  36.266   6.163
 4091POPC   C2B53420  27.789  36.227   6.564
 4091POPC   C3B53421  27.712  36.153   7.010
 4091POPC   C4B53422  27.939  36.356   7.335
 4092POPC   NC353423  29.940   8.550   5.323
 4092POPC   PO453424  30.395   9.032   5.322
 4092POPC   GL153425  30.015   8.919   5.695
 4092POPC   GL253426  29.617   9.016   5.720
 4092POPC   C1A53427  29.845   8.820   6.155
 4092POPC   D2A53428  29.666   8.985   6.557
 4092POPC   C3A53429  29.832   8.837   6.952
 4092POPC   C4A53430  29.706   8.584   7.275
 4092POPC   C1B53431  29.598   9.286   6.127
 4092POPC   C2B53432  29.901   9.434   6.491
 4092POPC   C3B53433  30.076   9.282   6.899
 4092POPC   C4B53434  29.997   9.311   7.360
 4093POPC   NC353435  16.535  44.896   5.376
 4093POPC   PO453436  16.754  44.238   5.234
 4093POPC   GL153437  16.733  44.484   5.673
 4093POPC   GL253438  16.514  44.775   5.864
 4093POPC   C1A53439  16.910  44.554   6.101
 4093POPC   D2A53440  16.915  44.574   6.561
 4093POPC   C3A53441  17.014  44.246   6.876
 4093POPC   C4A53442  17.022  44.440   7.304
 4093POPC   C1B53443  16.406  44.532   6.215
 4093POPC   C2B53444  16.515  44.252   6.538
 4093POPC   C3B53445  16.526  44.381   6.970
 4093POPC   C4B53446  16.605  44.132   7.310
 4094POPC   NC353447   3.596  26.393   5.488
 4094POPC   PO453448   3.914  25.821   5.476
 4094POPC   GL153449   3.594  25.973   5.809
 4094POPC   GL253450   3.235  26.092   5.754
 4094POPC   C1A53451   3.571  26.140   6.247
 4094POPC   D2A53452   3.523  25.932   6.647
 4094POPC   C3A53453   3.757  25.992   7.072
 4094POPC   C4A53454   3.694  26.101   7.523
 4094POPC   C1B53455   3.064  26.225   6.155
 4094POPC   C2B53456   3.212  26.370   6.574
 4094POPC   C3B53457   3.304  26.213   7.014
 4094POPC   C4B53458   3.277  26.364   7.461
 4095POPC   NC353459   8.110  40.409   5.309
 4095POPC   PO453460   8.306  40.960   5.542
 4095POPC   GL153461   8.201  40.622   5.776
 4095POPC   GL253462   8.512  40.437   5.659
 4095POPC   C1A53463   8.072  40.713   6.192
 4095POPC   D2A53464   8.069  40.925   6.595
 4095POPC   C3A53465   8.064  40.709   6.970
 4095POPC   C4A53466   8.232  41.040   7.210
 4095POPC   C1B53467   8.575  40.494   6.096
 4095POPC   C2B53468   8.537  40.822   6.392
 4095POPC   C3B53469   8.558  40.821   6.854
 4095POPC   C4B53470   8.527  40.613   7.256
 4096POPC   NC353471  27.356  38.631   5.511
 4096POPC   PO453472  27.639  39.165   5.139
 4096POPC   GL153473  27.456  39.208   5.608
 4096POPC   GL253474  27.597  39.540   5.754
 4096POPC   C1A53475  27.501  39.052   6.078
 4096POPC   D2A53476  27.833  38.990   6.437
 4096POPC   C3A53477  27.818  39.048   6.918
 4096POPC   C4A53478  27.618  38.920   7.322
 4096POPC   C1B53479  27.806  39.464   6.170
 4096POPC   C2B53480  27.718  39.470   6.625
 4096POPC   C3B53481  27.462  39.443   7.002
 4096POPC   C4B53482  27.489  39.415   7.461
 4097POPC   NC353483  23.815  24.337   5.614
 4097POPC   PO453484  23.280  24.710   5.640
 4097POPC   GL153485  23.574  24.678   5.916
 4097POPC   GL253486  23.433  24.354   5.964
 4097POPC   C1A53487  23.798  24.489   6.269
 4097POPC   D2A53488  23.599  24.377   6.635
 4097POPC   C3A53489  23.872  24.361   6.955
 4097POPC   C4A53490  23.952  24.573   7.296
 4097POPC   C1B53491  23.239  24.613   6.325
 4097POPC   C2B53492  23.262  24.808   6.751
 4097POPC   C3B53493  23.441  24.581   7.108
 4097POPC   C4B53494  23.523  24.653   7.558
 4098POPC   NC353495  25.012  32.880   5.464
 4098POPC   PO453496  25.546  33.343   5.449
 4098POPC   GL153497  25.340  33.143   5.824
 4098POPC   GL253498  25.038  33.213   5.846
 4098POPC   C1A53499  25.451  32.957   6.268
 4098POPC   D2A53500  25.471  32.815   6.736
 4098POPC   C3A53501  25.527  33.092   7.134
 4098POPC   C4A53502  25.527  33.221   7.613
 4098POPC   C1B53503  24.923  32.944   6.191
 4098POPC   C2B53504  24.790  32.935   6.623
 4098POPC   C3B53505  25.018  32.914   7.009
 4098POPC   C4B53506  25.130  32.968   7.435
 4099POPC   NC353507  25.757   7.727   5.597
 4099POPC   PO453508  25.358   7.333   5.247
 4099POPC   GL153509  25.321   7.231   5.711
 4099POPC   GL253510  24.997   7.167   5.781
 4099POPC   C1A53511  25.370   7.360   6.190
 4099POPC   D2A53512  25.559   7.323   6.622
 4099POPC   C3A53513  25.401   7.365   7.032
 4099POPC   C4A53514  25.102   7.059   7.136
 4099POPC   C1B53515  24.884   7.228   6.199
 4099POPC   C2B53516  25.009   7.435   6.595
 4099POPC   C3B53517  25.028   7.712   6.939
 4099POPC   C4B53518  24.974   7.517   7.307
 4100POPC   NC353519  38.250  23.024   5.608
 4100POPC   PO453520  38.817  22.810   5.514
 4100POPC   GL153521  38.700  22.871   5.952
 4100POPC   GL253522  38.497  23.175   6.020
 4100POPC   C1A53523  38.707  22.917   6.405
 4100POPC   D2A53524  38.377  22.798   6.663
 4100POPC   C3A53525  38.210  23.117   6.924
 4100POPC   C4A53526  38.547  22.946   7.161
 4100POPC   C1B53527  38.308  23.233   6.414
 4100POPC   C2B53528  38.634  23.335   6.735
 4100POPC   C3B53529  38.735  23.404   7.170
 4100POPC   C4B53530  38.308  23.324   7.422
 4101POPC   NC353531  42.595  28.745   5.675
 4101POPC   PO453532  42.009  28.452   5.564
 4101POPC   GL153533  42.197  28.366   5.957
 4101POPC   GL253534  42.534  28.290   5.937
 4101POPC   C1A53535  42.231  28.187   6.364
 4101POPC   D2A53536  42.565  28.175   6.667
 4101POPC   C3A53537  42.439  28.311   7.073
 4101POPC   C4A53538  42.114  28.346   7.381
 4101POPC   C1B53539  42.579  28.576   6.315
 4101POPC   C2B53540  42.640  28.752   6.730
 4101POPC   C3B53541  42.738  28.716   7.156
 4101POPC   C4B53542  42.653  28.481   7.539
 4102POPC   NC353543  28.609  24.729   5.468
 4102POPC   PO453544  27.998  24.342   5.406
 4102POPC   GL153545  28.209  24.539   5.770
 4102POPC   GL253546  28.544  24.395   5.856
 4102POPC   C1A53547  28.157  24.379   6.192
 4102POPC   D2A53548  28.400  24.288   6.537
 4102POPC   C3A53549  28.320  24.438   6.925
 4102POPC   C4A53550  28.043  24.400   7.254
 4102POPC   C1B53551  28.552  24.732   6.180
 4102POPC   C2B53552  28.688  24.762   6.643
 4102POPC   C3B53553  28.817  24.475   7.004
 4102POPC   C4B53554  28.576  24.378   7.373
 4103POPC   NC353555  33.689  13.862   5.468
 4103POPC   PO453556  33.250  13.295   5.362
 4103POPC   GL153557  33.488  13.444   5.783
 4103POPC   GL253558  33.849  13.511   5.847
 4103POPC   C1A53559  33.608  13.590   6.252
 4103POPC   D2A53560  34.029  13.531   6.422
 4103POPC   C3A53561  33.921  13.285   6.806
 4103POPC   C4A53562  33.559  13.411   7.071
 4103POPC   C1B53563  33.944  13.936   6.052
 4103POPC   C2B53564  33.968  14.047   6.469
 4103POPC   C3B53565  33.869  13.800   6.819
 4103POPC   C4B53566  34.134  13.877   7.115
 4104POPC   NC353567  38.620  15.148   4.976
 4104POPC   PO453568  38.635  15.176   5.598
 4104POPC   GL153569  38.548  15.147   5.986
 4104POPC   GL253570  38.233  15.274   5.936
 4104POPC   C1A53571  38.571  15.181   6.432
 4104POPC   D2A53572  38.743  15.290   6.825
 4104POPC   C3A53573  38.664  15.071   7.183
 4104POPC   C4A53574  38.238  14.858   7.180
 4104POPC   C1B53575  38.300  15.597   6.239
 4104POPC   C2B53576  38.329  15.582   6.708
 4104POPC   C3B53577  38.310  15.405   7.124
 4104POPC   C4B53578  38.509  15.442   7.562
 4105POPC   NC353579  30.516   5.475   5.509
 4105POPC   PO453580  30.673   4.907   5.479
 4105POPC   GL153581  30.752   5.146   5.873
 4105POPC   GL253582  30.434   5.304   5.981
 4105POPC   C1A53583  31.053   5.255   6.229
 4105POPC   D2A53584  31.226   5.143   6.657
 4105POPC   C3A53585  30.896   5.078   6.978
 4105POPC   C4A53586  30.568   4.834   7.208
 4105POPC   C1B53587  30.381   5.008   6.317
 4105POPC   C2B53588  30.283   5.062   6.771
 4105POPC   C3B53589  30.412   5.299   7.141
 4105POPC   C4B53590  30.765   5.258   7.454
 4106POPC   NC353591  28.218  19.356   5.241
 4106POPC   PO453592  28.706  18.896   5.311
 4106POPC   GL153593  28.337  18.973   5.623
 4106POPC   GL253594  28.283  19.325   5.751
 4106POPC   C1A53595  28.295  18.920   6.092
 4106POPC   D2A53596  28.575  18.840   6.479
 4106POPC   C3A53597  28.478  18.850   6.901
 4106POPC   C4A53598  28.466  18.966   7.328
 4106POPC   C1B53599  28.289  19.426   6.211
 4106POPC   C2B53600  28.454  19.341   6.651
 4106POPC   C3B53601  28.454  19.485   7.094
 4106POPC   C4B53602  28.253  19.392   7.478
 4107POPC   NC353603  32.763  27.557   5.348
 4107POPC   PO453604  32.205  27.699   5.307
 4107POPC   GL153605  32.399  27.620   5.730
 4107POPC   GL253606  32.077  27.495   5.816
 4107POPC   C1A53607  32.511  27.850   6.133
 4107POPC   D2A53608  32.316  27.988   6.521
 4107POPC   C3A53609  32.467  27.829   6.926
 4107POPC   C4A53610  32.638  27.824   7.348
 4107POPC   C1B53611  32.167  27.503   6.239
 4107POPC   C2B53612  32.084  27.540   6.635
 4107POPC   C3B53613  31.939  27.504   7.004
 4107POPC   C4B53614  32.195  27.570   7.311
 4108POPC   NC353615  35.252  44.199   5.387
 4108POPC   PO453616  35.051  44.849   5.291
 4108POPC   GL153617  35.178  44.640   5.694
 4108POPC   GL253618  35.527  44.560   5.670
 4108POPC   C1A53619  35.062  44.701   6.170
 4108POPC   D2A53620  35.073  44.938   6.582
 4108POPC   C3A53621  35.065  44.703   6.979
 4108POPC   C4A53622  34.958  44.219   7.031
 4108POPC   C1B53623  35.511  44.891   5.997
 4108POPC   C2B53624  35.556  44.884   6.442
 4108POPC   C3B53625  35.598  44.872   6.916
 4108POPC   C4B53626  35.408  44.834   7.359
 4109POPC   NC353627  29.356  26.212   5.451
 4109POPC   PO453628  28.700  26.016   5.393
 4109POPC   GL153629  28.989  26.003   5.773
 4109POPC   GL253630  28.962  26.357   5.779
 4109POPC   C1A53631  29.211  25.895   6.208
 4109POPC   D2A53632  29.449  25.817   6.640
 4109POPC   C3A53633  29.154  25.833   6.984
 4109POPC   C4A53634  28.863  26.133   7.095
 4109POPC   C1B53635  29.318  26.390   6.067
 4109POPC   C2B53636  29.376  26.510   6.518
 4109POPC   C3B53637  29.333  26.402   6.947
 4109POPC   C4B53638  29.589  26.164   7.197
 4110POPC   NC353639   9.584   1.248   5.489
 4110POPC   PO453640  10.035   0.770   5.603
 4110POPC   GL153641   9.694   0.916   5.855
 4110POPC   GL253642   9.793   1.291   5.957
 4110POPC   C1A53643   9.480   0.966   6.218
 4110POPC   D2A53644   9.733   1.199   6.535
 4110POPC   C3A53645   9.580   1.208   6.943
 4110POPC   C4A53646   9.611   0.920   7.264
 4110POPC   C1B53647   9.456   1.476   6.224
 4110POPC   C2B53648   9.251   1.492   6.671
 4110POPC   C3B53649   9.445   1.698   7.088
 4110POPC   C4B53650   9.565   1.650   7.557
 4111POPC   NC353651  34.689  28.674   5.228
 4111POPC   PO453652  34.738  29.383   5.411
 4111POPC   GL153653  34.799  29.063   5.685
 4111POPC   GL253654  34.556  29.223   5.905
 4111POPC   C1A53655  34.981  29.031   6.098
 4111POPC   D2A53656  34.717  29.125   6.452
 4111POPC   C3A53657  34.798  29.029   6.869
 4111POPC   C4A53658  34.758  29.206   7.273
 4111POPC   C1B53659  34.275  29.223   6.265
 4111POPC   C2B53660  34.323  29.265   6.757
 4111POPC   C3B53661  34.258  29.200   7.228
 4111POPC   C4B53662  34.107  29.419   7.612
 4112POPC   NC353663  12.121  24.986   5.502
 4112POPC   PO453664  11.826  25.658   5.395
 4112POPC   GL153665  11.898  25.393   5.734
 4112POPC   GL253666  12.274  25.365   5.809
 4112POPC   C1A53667  11.867  25.135   6.090
 4112POPC   D2A53668  11.783  25.264   6.493
 4112POPC   C3A53669  11.648  24.996   6.836
 4112POPC   C4A53670  11.888  25.127   7.193
 4112POPC   C1B53671  12.359  25.233   6.249
 4112POPC   C2B53672  12.534  24.979   6.577
 4112POPC   C3B53673  12.482  25.064   7.012
 4112POPC   C4B53674  12.428  25.480   7.147
 4113POPC   NC353675  29.019  34.707   5.438
 4113POPC   PO453676  29.506  34.246   5.345
 4113POPC   GL153677  29.269  34.358   5.717
 4113POPC   GL253678  28.909  34.351   5.809
 4113POPC   C1A53679  29.330  34.587   6.106
 4113POPC   D2A53680  29.143  34.540   6.512
 4113POPC   C3A53681  29.330  34.646   6.911
 4113POPC   C4A53682  29.512  35.005   7.140
 4113POPC   C1B53683  28.845  34.759   6.071
 4113POPC   C2B53684  28.692  34.821   6.496
 4113POPC   C3B53685  28.830  34.694   6.900
 4113POPC   C4B53686  29.017  34.856   7.270
 4114POPC   NC353687  30.401  36.011   5.597
 4114POPC   PO453688  30.722  36.521   5.446
 4114POPC   GL153689  30.843  36.316   5.809
 4114POPC   GL253690  30.909  35.987   5.860
 4114POPC   C1A53691  30.610  36.252   6.216
 4114POPC   D2A53692  30.741  36.265   6.661
 4114POPC   C3A53693  30.558  36.010   6.990
 4114POPC   C4A53694  30.287  36.253   7.229
 4114POPC   C1B53695  31.111  36.175   6.259
 4114POPC   C2B53696  31.231  36.111   6.716
 4114POPC   C3B53697  31.047  36.028   7.101
 4114POPC   C4B53698  30.861  35.720   7.372
 4115POPC   NC353699  39.834  26.242   5.533
 4115POPC   PO453700  39.192  26.027   5.359
 4115POPC   GL153701  39.219  25.963   5.778
 4115POPC   GL253702  38.994  25.691   5.847
 4115POPC   C1A53703  39.318  26.230   6.127
 4115POPC   D2A53704  39.180  26.150   6.541
 4115POPC   C3A53705  39.348  25.950   6.892
 4115POPC   C4A53706  39.260  26.231   7.272
 4115POPC   C1B53707  39.179  25.724   6.256
 4115POPC   C2B53708  39.129  25.487   6.592
 4115POPC   C3B53709  38.933  25.620   6.912
 4115POPC   C4B53710  39.050  25.770   7.267
 4116POPC   NC353711  32.761  28.307   5.326
 4116POPC   PO453712  33.389  28.542   5.500
 4116POPC   GL153713  33.051  28.337   5.764
 4116POPC   GL253714  32.786  28.042   5.757
 4116POPC   C1A53715  32.794  28.435   6.140
 4116POPC   D2A53716  32.743  28.260   6.563
 4116POPC   C3A53717  33.125  28.379   6.785
 4116POPC   C4A53718  33.207  28.391   7.204
 4116POPC   C1B53719  33.014  27.957   6.150
 4116POPC   C2B53720  32.959  27.788   6.573
 4116POPC   C3B53721  33.055  27.914   6.988
 4116POPC   C4B53722  33.131  27.927   7.423
 4117POPC   NC353723   2.165  36.009   5.420
 4117POPC   PO453724   1.637  36.441   5.492
 4117POPC   GL153725   1.814  36.174   5.758
 4117POPC   GL253726   2.085  36.354   5.807
 4117POPC   C1A53727   2.059  35.912   6.060
 4117POPC   D2A53728   2.141  35.848   6.492
 4117POPC   C3A53729   1.977  36.109   6.813
 4117POPC   C4A53730   1.962  36.119   7.259
 4117POPC   C1B53731   1.905  36.376   6.223
 4117POPC   C2B53732   2.109  36.532   6.529
 4117POPC   C3B53733   2.194  36.533   6.945
 4117POPC   C4B53734   2.151  36.636   7.349
 4118POPC   NC353735  29.330  11.567   5.449
 4118POPC   PO453736  28.949  10.995   5.529
 4118POPC   GL153737  29.021  11.360   5.802
 4118POPC   GL253738  29.419  11.398   5.915
 4118POPC   C1A53739  29.030  11.518   6.207
 4118POPC   D2A53740  29.283  11.289   6.481
 4118POPC   C3A53741  29.157  11.333   6.887
 4118POPC   C4A53742  28.944  11.131   7.213
 4118POPC   C1B53743  29.462  11.741   6.214
 4118POPC   C2B53744  29.254  11.797   6.605
 4118POPC   C3B53745  29.445  11.730   7.013
 4118POPC   C4B53746  29.316  11.474   7.377
 4119POPC   NC353747  22.728  44.151   5.459
 4119POPC   PO453748  23.157  43.648   5.458
 4119POPC   GL153749  23.025  43.681   5.923
 4119POPC   GL253750  22.853  43.988   5.939
 4119POPC   C1A53751  23.086  43.756   6.393
 4119POPC   D2A53752  22.937  44.031   6.740
 4119POPC   C3A53753  23.046  43.818   7.086
 4119POPC   C4A53754  23.095  43.372   7.027
 4119POPC   C1B53755  22.607  43.783   6.272
 4119POPC   C2B53756  22.663  43.606   6.703
 4119POPC   C3B53757  22.544  43.798   7.110
 4119POPC   C4B53758  22.463  43.759   7.562
 4120POPC   NC353759  34.522  44.821   5.372
 4120POPC   PO453760  34.838  44.250   5.586
 4120POPC   GL153761  34.671  44.633   5.819
 4120POPC   GL253762  34.824   0.002   5.758
 4120POPC   C1A53763  34.541  44.585   6.244
 4120POPC   D2A53764  34.759  44.493   6.639
 4120POPC   C3A53765  34.574  44.576   7.087
 4120POPC   C4A53766  34.528  44.310   7.472
 4120POPC   C1B53767  34.685   0.079   6.169
 4120POPC   C2B53768  34.559  44.986   6.569
 4120POPC   C3B53769  34.712   0.083   6.943
 4120POPC   C4B53770  34.421   0.141   7.245
 4121POPC   NC353771  26.292  29.272   5.299
 4121POPC   PO453772  25.777  28.892   5.357
 4121POPC   GL153773  25.877  29.202   5.656
 4121POPC   GL253774  26.211  29.120   5.769
 4121POPC   C1A53775  25.802  29.152   6.084
 4121POPC   D2A53776  26.081  29.098   6.409
 4121POPC   C3A53777  25.972  29.177   6.812
 4121POPC   C4A53778  25.819  28.986   7.175
 4121POPC   C1B53779  26.488  29.198   6.104
 4121POPC   C2B53780  26.518  29.360   6.488
 4121POPC   C3B53781  26.533  29.297   6.895
 4121POPC   C4B53782  26.277  29.277   7.205
 4122POPC   NC353783  28.182  34.160   5.466
 4122POPC   PO453784  28.598  34.660   5.277
 4122POPC   GL153785  28.416  34.561   5.712
 4122POPC   GL253786  28.030  34.611   5.715
 4122POPC   C1A53787  28.509  34.389   6.146
 4122POPC   D2A53788  28.687  34.299   6.559
 4122POPC   C3A53789  28.493  34.323   6.972
 4122POPC   C4A53790  28.578  34.555   7.331
 4122POPC   C1B53791  28.022  34.508   6.151
 4122POPC   C2B53792  28.181  34.466   6.563
 4122POPC   C3B53793  27.994  34.250   6.914
 4122POPC   C4B53794  28.059  34.434   7.304
 4123POPC   NC353795  43.551  27.195   5.048
 4123POPC   PO453796  43.819  26.699   5.319
 4123POPC   GL153797  43.823  26.636   5.796
 4123POPC   GL253798  43.943  26.978   5.825
 4123POPC   C1A53799  44.066  26.644   6.218
 4123POPC   D2A53800  44.133  26.560   6.678
 4123POPC   C3A53801  43.792  26.510   6.965
 4123POPC   C4A53802  43.577  26.516   7.368
 4123POPC   C1B53803  43.722  27.057   6.193
 4123POPC   C2B53804  43.746  26.909   6.602
 4123POPC   C3B53805  43.809  27.029   7.012
 4123POPC   C4B53806  43.526  27.011   7.300
 4124POPC   NC353807   1.564  44.926   5.588
 4124POPC   PO453808   1.173  44.469   5.391
 4124POPC   GL153809   1.121  44.680   5.753
 4124POPC   GL253810   1.392  44.471   5.852
 4124POPC   C1A53811   0.954  44.621   6.153
 4124POPC   D2A53812   0.842  44.458   6.532
 4124POPC   C3A53813   0.983  44.546   6.935
 4124POPC   C4A53814   1.177  44.651   7.341
 4124POPC   C1B53815   1.526  44.615   6.218
 4124POPC   C2B53816   1.326  44.709   6.578
 4124POPC   C3B53817   1.516  44.658   6.965
 4124POPC   C4B53818   1.699   0.006   7.189
 4125POPC   NC353819  31.811  39.917   5.349
 4125POPC   PO453820  31.306  40.460   5.339
 4125POPC   GL153821  31.286  40.126   5.659
 4125POPC   GL253822  31.622  40.182   5.746
 4125POPC   C1A53823  31.191  40.065   6.160
 4125POPC   D2A53824  31.356  40.144   6.632
 4125POPC   C3A53825  31.253  39.949   7.080
 4125POPC   C4A53826  31.334  40.104   7.534
 4125POPC   C1B53827  31.718  39.909   6.085
 4125POPC   C2B53828  31.845  39.967   6.501
 4125POPC   C3B53829  31.730  39.832   6.906
 4125POPC   C4B53830  31.765  39.904   7.355
 4126POPC   NC353831   9.044  40.520   5.399
 4126POPC   PO453832   8.984  41.175   5.405
 4126POPC   GL153833   8.857  40.922   5.767
 4126POPC   GL253834   9.029  40.606   5.881
 4126POPC   C1A53835   8.973  41.044   6.189
 4126POPC   D2A53836   8.993  40.910   6.597
 4126POPC   C3A53837   9.044  41.158   6.884
 4126POPC   C4A53838   9.029  41.037   7.280
 4126POPC   C1B53839   9.048  40.530   6.275
 4126POPC   C2B53840   8.781  40.411   6.583
 4126POPC   C3B53841   8.908  40.390   6.982
 4126POPC   C4B53842   9.082  40.502   7.345
 4127POPC   NC353843  39.382  31.671   5.427
 4127POPC   PO453844  38.911  31.198   5.433
 4127POPC   GL153845  39.050  31.486   5.779
 4127POPC   GL253846  39.357  31.356   5.834
 4127POPC   C1A53847  39.113  31.656   6.229
 4127POPC   D2A53848  39.236  31.833   6.678
 4127POPC   C3A53849  39.214  31.574   7.090
 4127POPC   C4A53850  39.367  31.687   7.550
 4127POPC   C1B53851  39.335  31.193   6.230
 4127POPC   C2B53852  39.339  31.320   6.645
 4127POPC   C3B53853  39.257  31.050   6.964
 4127POPC   C4B53854  38.936  30.931   7.229
 4128POPC   NC353855   7.189  43.222   5.161
 4128POPC   PO453856   6.510  43.236   5.403
 4128POPC   GL153857   6.691  43.190   5.804
 4128POPC   GL253858   6.572  42.908   5.936
 4128POPC   C1A53859   6.694  43.270   6.266
 4128POPC   D2A53860   6.934  43.494   6.543
 4128POPC   C3A53861   6.793  43.414   6.920
 4128POPC   C4A53862   6.807  43.452   7.337
 4128POPC   C1B53863   6.963  42.860   6.203
 4128POPC   C2B53864   6.944  42.994   6.670
 4128POPC   C3B53865   6.658  42.961   7.065
 4128POPC   C4B53866   6.190  42.898   7.137
 4129POPC   NC353867  30.549  18.322   5.316
 4129POPC   PO453868  30.367  17.678   5.474
 4129POPC   GL153869  30.425  18.098   5.765
 4129POPC   GL253870  30.766  18.295   5.777
 4129POPC   C1A53871  30.475  18.334   6.180
 4129POPC   D2A53872  30.673  18.553   6.522
 4129POPC   C3A53873  30.719  18.379   6.917
 4129POPC   C4A53874  30.540  18.228   7.293
 4129POPC   C1B53875  31.017  18.199   6.123
 4129POPC   C2B53876  31.123  18.290   6.528
 4129POPC   C3B53877  31.167  18.022   6.850
 4129POPC   C4B53878  31.051  18.144   7.241
 4130POPC   NC353879  40.284  30.438   5.465
 4130POPC   PO453880  40.842  29.981   5.360
 4130POPC   GL153881  40.782  29.894   5.775
 4130POPC   GL253882  40.505  30.107   5.789
 4130POPC   C1A53883  40.905  29.917   6.221
 4130POPC   D2A53884  41.150  29.995   6.628
 4130POPC   C3A53885  40.915  29.980   6.982
 4130POPC   C4A53886  40.969  29.982   7.408
 4130POPC   C1B53887  40.494  30.255   6.187
 4130POPC   C2B53888  40.660  30.196   6.583
 4130POPC   C3B53889  40.474  30.276   6.967
 4130POPC   C4B53890  40.636  30.357   7.320
 4131POPC   NC353891  33.191  12.477   5.672
 4131POPC   PO453892  33.211  11.838   5.423
 4131POPC   GL153893  32.997  12.023   5.830
 4131POPC   GL253894  32.619  11.997   5.866
 4131POPC   C1A53895  33.179  12.185   6.249
 4131POPC   D2A53896  33.378  12.022   6.629
 4131POPC   C3A53897  33.174  12.104   7.020
 4131POPC   C4A53898  32.947  12.381   7.289
 4131POPC   C1B53899  32.699  12.025   6.296
 4131POPC   C2B53900  32.831  12.248   6.634
 4131POPC   C3B53901  32.666  12.083   6.971
 4131POPC   C4B53902  32.807  11.890   7.333
 4132POPC   NC353903  13.050  34.927   5.394
 4132POPC   PO453904  12.568  34.435   5.412
 4132POPC   GL153905  12.891  34.527   5.729
 4132POPC   GL253906  12.811  34.860   5.839
 4132POPC   C1A53907  13.027  34.542   6.170
 4132POPC   D2A53908  13.150  34.463   6.579
 4132POPC   C3A53909  12.847  34.472   6.868
 4132POPC   C4A53910  13.042  34.465   7.242
 4132POPC   C1B53911  12.584  34.853   6.241
 4132POPC   C2B53912  12.808  34.942   6.618
 4132POPC   C3B53913  13.151  34.891   6.903
 4132POPC   C4B53914  13.146  34.986   7.328
 4133POPC   NC353915  31.339  34.318   5.504
 4133POPC   PO453916  31.782  34.821   5.627
 4133POPC   GL153917  31.561  34.563   5.906
 4133POPC   GL253918  31.213  34.688   5.867
 4133POPC   C1A53919  31.516  34.432   6.326
 4133POPC   D2A53920  31.187  34.473   6.605
 4133POPC   C3A53921  31.301  34.287   6.983
 4133POPC   C4A53922  31.681  34.278   7.205
 4133POPC   C1B53923  31.396  34.943   6.213
 4133POPC   C2B53924  31.781  34.856   6.441
 4133POPC   C3B53925  31.659  34.611   6.812
 4133POPC   C4B53926  31.375  34.759   7.182
 4134POPC   NC353927  37.667  13.296   5.208
 4134POPC   PO453928  37.918  13.935   5.407
 4134POPC   GL153929  37.811  13.774   5.854
 4134POPC   GL253930  37.885  13.373   5.887
 4134POPC   C1A53931  37.984  13.848   6.262
 4134POPC   D2A53932  37.622  13.880   6.538
 4134POPC   C3A53933  37.513  13.630   6.887
 4134POPC   C4A53934  37.236  13.705   7.223
 4134POPC   C1B53935  37.713  13.426   6.299
 4134POPC   C2B53936  37.979  13.513   6.680
 4134POPC   C3B53937  37.913  13.422   7.121
 4134POPC   C4B53938  37.495  13.292   7.283
 4135POPC   NC353939  16.112  10.818   5.232
 4135POPC   PO453940  15.568  11.038   5.496
 4135POPC   GL153941  15.833  11.104   5.805
 4135POPC   GL253942  16.008  11.379   5.726
 4135POPC   C1A53943  15.777  11.280   6.218
 4135POPC   D2A53944  16.048  11.114   6.524
 4135POPC   C3A53945  16.102  11.207   6.934
 4135POPC   C4A53946  15.852  11.147   7.278
 4135POPC   C1B53947  16.218  11.545   6.100
 4135POPC   C2B53948  16.061  11.628   6.511
 4135POPC   C3B53949  16.204  11.715   6.896
 4135POPC   C4B53950  16.087  11.599   7.272
 4136POPC   NC353951  42.251  31.967   5.546
 4136POPC   PO453952  42.643  32.469   5.472
 4136POPC   GL153953  42.248  32.508   5.779
 4136POPC   GL253954  41.923  32.270   5.794
 4136POPC   C1A53955  42.176  32.386   6.229
 4136POPC   D2A53956  42.294  32.196   6.642
 4136POPC   C3A53957  42.188  32.408   7.035
 4136POPC   C4A53958  42.347  32.448   7.455
 4136POPC   C1B53959  41.767  32.066   6.171
 4136POPC   C2B53960  41.759  32.143   6.603
 4136POPC   C3B53961  41.897  31.957   6.958
 4136POPC   C4B53962  42.157  31.966   7.303
 4137POPC   NC353963  29.501  23.373   5.340
 4137POPC   PO453964  30.131  23.029   5.360
 4137POPC   GL153965  29.996  22.990   5.744
 4137POPC   GL253966  29.868  23.313   5.760
 4137POPC   C1A53967  30.216  22.851   6.094
 4137POPC   D2A53968  30.127  22.860   6.511
 4137POPC   C3A53969  30.314  22.709   6.869
 4137POPC   C4A53970  30.189  22.907   7.252
 4137POPC   C1B53971  29.719  23.102   6.151
 4137POPC   C2B53972  29.785  23.225   6.561
 4137POPC   C3B53973  29.767  23.090   6.977
 4137POPC   C4B53974  29.639  23.353   7.310
 4138POPC   NC353975  13.306  38.306   5.357
 4138POPC   PO453976  13.971  38.552   5.174
 4138POPC   GL153977  13.726  38.542   5.609
 4138POPC   GL253978  13.488  38.285   5.807
 4138POPC   C1A53979  13.741  38.605   6.086
 4138POPC   D2A53980  13.723  38.838   6.472
 4138POPC   C3A53981  13.710  38.661   6.878
 4138POPC   C4A53982  13.810  38.364   7.165
 4138POPC   C1B53983  13.255  38.458   6.123
 4138POPC   C2B53984  13.353  38.475   6.537
 4138POPC   C3B53985  13.330  38.288   6.936
 4138POPC   C4B53986  13.347  38.465   7.311
 4139POPC   NC353987  17.529   5.070   5.459
 4139POPC   PO453988  17.502   5.686   5.586
 4139POPC   GL153989  17.724   5.327   5.910
 4139POPC   GL253990  17.780   4.929   5.881
 4139POPC   C1A53991  17.857   5.137   6.351
 4139POPC   D2A53992  17.578   4.959   6.673
 4139POPC   C3A53993  17.550   5.065   7.119
 4139POPC   C4A53994  17.547   5.205   7.567
 4139POPC   C1B53995  17.435   4.892   6.163
 4139POPC   C2B53996  17.099   4.942   6.473
 4139POPC   C3B53997  17.116   4.850   6.940
 4139POPC   C4B53998  17.090   5.066   7.343
 4140POPC   NC353999  37.201  42.045   5.563
 4140POPC   PO454000  36.793  42.613   5.484
 4140POPC   GL154001  36.908  42.375   5.819
 4140POPC   GL254002  36.685  42.093   5.694
 4140POPC   C1A54003  37.038  42.374   6.242
 4140POPC   D2A54004  36.833  42.305   6.635
 4140POPC   C3A54005  37.004  42.440   7.039
 4140POPC   C4A54006  37.284  42.203   7.290
 4140POPC   C1B54007  36.565  42.086   6.138
 4140POPC   C2B54008  36.411  42.000   6.577
 4140POPC   C3B54009  36.526  42.131   7.002
 4140POPC   C4B54010  36.751  42.142   7.388
 4141POPC   NC354011   3.806   1.245   5.433
 4141POPC   PO454012   3.259   0.853   5.551
 4141POPC   GL154013   3.479   1.006   5.865
 4141POPC   GL254014   3.423   1.320   5.797
 4141POPC   C1A54015   3.313   1.165   6.260
 4141POPC   D2A54016   3.237   1.362   6.640
 4141POPC   C3A54017   3.380   1.130   7.012
 4141POPC   C4A54018   3.542   0.798   7.294
 4141POPC   C1B54019   3.699   1.497   6.085
 4141POPC   C2B54020   3.723   1.601   6.509
 4141POPC   C3B54021   3.485   1.733   6.853
 4141POPC   C4B54022   3.570   1.574   7.235
 4142POPC   NC354023  35.688  30.308   5.405
 4142POPC   PO454024  35.182  29.858   5.261
 4142POPC   GL154025  35.404  29.923   5.654
 4142POPC   GL254026  35.280  30.244   5.742
 4142POPC   C1A54027  35.311  29.874   6.111
 4142POPC   D2A54028  35.390  29.687   6.516
 4142POPC   C3A54029  35.290  29.925   6.848
 4142POPC   C4A54030  35.005  29.835   7.195
 4142POPC   C1B54031  35.007  30.304   6.115
 4142POPC   C2B54032  34.864  30.202   6.537
 4142POPC   C3B54033  35.021  30.350   6.924
 4142POPC   C4B54034  35.309  30.258   7.241
 4143POPC   NC354035  31.068  13.586   5.382
 4143POPC   PO454036  30.428  13.703   5.263
 4143POPC   GL154037  30.604  13.457   5.668
 4143POPC   GL254038  30.915  13.236   5.747
 4143POPC   C1A54039  30.711  13.565   6.132
 4143POPC   D2A54040  30.742  13.836   6.512
 4143POPC   C3A54041  30.495  13.682   6.855
 4143POPC   C4A54042  30.619  13.724   7.246
 4143POPC   C1B54043  31.101  13.213   6.185
 4143POPC   C2B54044  31.172  13.528   6.515
 4143POPC   C3B54045  31.030  13.631   6.936
 4143POPC   C4B54046  31.065  13.521   7.381
 4144POPC   NC354047   9.034  35.633   5.438
 4144POPC   PO454048   8.419  35.228   5.427
 4144POPC   GL154049   8.648  35.365   5.824
 4144POPC   GL254050   9.043  35.388   5.893
 4144POPC   C1A54051   8.707  35.537   6.248
 4144POPC   D2A54052   8.792  35.352   6.610
 4144POPC   C3A54053   8.770  35.538   6.945
 4144POPC   C4A54054   8.914  35.372   7.322
 4144POPC   C1B54055   9.274  35.357   6.313
 4144POPC   C2B54056   9.286  35.365   6.790
 4144POPC   C3B54057   9.258  35.045   7.115
 4144POPC   C4B54058   9.226  35.096   7.604
 4145POPC   NC354059   3.810  38.168   5.430
 4145POPC   PO454060   3.644  37.464   5.402
 4145POPC   GL154061   3.582  37.778   5.683
 4145POPC   GL254062   3.245  37.783   5.715
 4145POPC   C1A54063   3.593  37.834   6.124
 4145POPC   D2A54064   3.810  37.643   6.451
 4145POPC   C3A54065   3.606  37.744   6.818
 4145POPC   C4A54066   3.519  37.764   7.236
 4145POPC   C1B54067   3.179  37.512   6.103
 4145POPC   C2B54068   3.307  37.399   6.536
 4145POPC   C3B54069   3.157  37.500   6.968
 4145POPC   C4B54070   3.249  37.346   7.397
 4146POPC   NC354071  42.896  22.187   5.214
 4146POPC   PO454072  43.393  22.377   5.540
 4146POPC   GL154073  43.151  22.151   5.797
 4146POPC   GL254074  42.833  22.288   5.757
 4146POPC   C1A54075  43.230  22.251   6.223
 4146POPC   D2A54076  43.361  22.060   6.596
 4146POPC   C3A54077  43.184  22.265   6.956
 4146POPC   C4A54078  43.273  22.422   7.353
 4146POPC   C1B54079  42.782  22.035   6.147
 4146POPC   C2B54080  42.827  22.103   6.568
 4146POPC   C3B54081  42.658  22.190   6.952
 4146POPC   C4B54082  42.824  22.169   7.336
 4147POPC   NC354083  15.252  28.182   5.398
 4147POPC   PO454084  15.272  28.804   5.389
 4147POPC   GL154085  15.156  28.552   5.784
 4147POPC   GL254086  15.393  28.297   5.861
 4147POPC   C1A54087  15.197  28.599   6.262
 4147POPC   D2A54088  15.015  28.661   6.664
 4147POPC   C3A54089  15.301  28.737   6.925
 4147POPC   C4A54090  15.265  28.392   7.119
 4147POPC   C1B54091  15.294  28.070   6.209
 4147POPC   C2B54092  15.134  28.165   6.587
 4147POPC   C3B54093  15.247  27.924   6.908
 4147POPC   C4B54094  15.013  27.955   7.256
 4148POPC   NC354095   5.393  18.494   5.508
 4148POPC   PO454096   4.761  18.141   5.320
 4148POPC   GL154097   5.055  18.094   5.680
 4148POPC   GL254098   4.830  18.162   5.956
 4148POPC   C1A54099   5.341  18.157   6.076
 4148POPC   D2A54100   5.378  18.344   6.496
 4148POPC   C3A54101   5.041  18.364   6.800
 4148POPC   C4A54102   5.125  18.205   7.200
 4148POPC   C1B54103   4.915  18.475   6.288
 4148POPC   C2B54104   4.703  18.739   6.601
 4148POPC   C3B54105   4.555  18.532   6.966
 4148POPC   C4B54106   4.730  18.461   7.391
 4149POPC   NC354107  20.710  43.113   5.356
 4149POPC   PO454108  20.193  43.032   5.732
 4149POPC   GL154109  20.578  43.290   5.806
 4149POPC   GL254110  20.762  42.984   5.874
 4149POPC   C1A54111  20.886  43.398   6.142
 4149POPC   D2A54112  20.908  43.226   6.554
 4149POPC   C3A54113  20.878  43.500   6.883
 4149POPC   C4A54114  20.850  43.381   7.298
 4149POPC   C1B54115  20.520  43.012   6.295
 4149POPC   C2B54116  20.457  42.951   6.768
 4149POPC   C3B54117  20.588  42.958   7.213
 4149POPC   C4B54118  20.562  43.106   7.664
 4150POPC   NC354119  33.553  19.864   5.449
 4150POPC   PO454120  34.169  19.728   5.544
 4150POPC   GL154121  33.960  19.874   5.923
 4150POPC   GL254122  33.665  20.075   5.884
 4150POPC   C1A54123  33.867  19.681   6.329
 4150POPC   D2A54124  33.853  19.642   6.789
 4150POPC   C3A54125  34.002  19.936   7.142
 4150POPC   C4A54126  34.074  20.211   7.534
 4150POPC   C1B54127  33.384  20.057   6.187
 4150POPC   C2B54128  33.147  20.181   6.519
 4150POPC   C3B54129  33.443  20.114   6.818
 4150POPC   C4B54130  33.486  19.759   7.119
 4151POPC   NC354131  42.602  43.505   5.333
 4151POPC   PO454132  42.152  43.968   5.395
 4151POPC   GL154133  42.268  43.733   5.707
 4151POPC   GL254134  41.996  43.567   5.866
 4151POPC   C1A54135  42.463  43.807   6.098
 4151POPC   D2A54136  42.370  43.958   6.511
 4151POPC   C3A54137  42.547  43.801   6.870
 4151POPC   C4A54138  42.527  44.087   7.219
 4151POPC   C1B54139  42.058  43.561   6.308
 4151POPC   C2B54140  41.886  43.871   6.598
 4151POPC   C3B54141  42.079  43.923   6.982
 4151POPC   C4B54142  42.205  43.730   7.380
 4152POPC   NC354143  32.065  22.947   5.178
 4152POPC   PO454144  32.470  22.460   5.374
 4152POPC   GL154145  32.167  22.750   5.641
 4152POPC   GL254146  32.215  23.146   5.665
 4152POPC   C1A54147  32.005  22.857   6.073
 4152POPC   D2A54148  32.242  22.878   6.470
 4152POPC   C3A54149  32.038  23.007   6.867
 4152POPC   C4A54150  32.225  22.743   7.212
 4152POPC   C1B54151  32.497  23.158   6.073
 4152POPC   C2B54152  32.671  23.217   6.513
 4152POPC   C3B54153  32.530  23.071   6.900
 4152POPC   C4B54154  32.328  23.244   7.254
 4153POPC   NC354155  21.244  38.853   5.434
 4153POPC   PO454156  21.553  38.281   5.465
 4153POPC   GL154157  21.400  38.526   5.838
 4153POPC   GL254158  21.602  38.859   5.821
 4153POPC   C1A54159  21.214  38.514   6.291
 4153POPC   D2A54160  21.121  38.352   6.721
 4153POPC   C3A54161  21.404  38.397   7.046
 4153POPC   C4A54162  21.348  38.447   7.455
 4153POPC   C1B54163  21.681  38.713   6.223
 4153POPC   C2B54164  21.631  38.606   6.641
 4153POPC   C3B54165  21.684  38.825   7.047
 4153POPC   C4B54166  21.666  38.829   7.508
 4154POPC   NC354167   3.003   0.576   5.298
 4154POPC   PO454168   2.567   0.137   5.455
 4154POPC   GL154169   2.515   0.412   5.823
 4154POPC   GL254170   2.840   0.575   5.847
 4154POPC   C1A54171   2.630   0.396   6.284
 4154POPC   D2A54172   2.834   0.411   6.685
 4154POPC   C3A54173   2.504   0.489   6.992
 4154POPC   C4A54174   2.357   0.754   7.332
 4154POPC   C1B54175   3.041   0.711   6.254
 4154POPC   C2B54176   3.010   0.905   6.647
 4154POPC   C3B54177   3.084   0.698   7.054
 4154POPC   C4B54178   2.882   0.444   7.330
 4155POPC   NC354179  19.453   6.465   5.276
 4155POPC   PO454180  18.890   6.745   5.154
 4155POPC   GL154181  18.923   6.789   5.604
 4155POPC   GL254182  19.263   6.808   5.667
 4155POPC   C1A54183  18.988   6.568   6.032
 4155POPC   D2A54184  19.095   6.685   6.471
 4155POPC   C3A54185  19.117   6.426   6.850
 4155POPC   C4A54186  18.811   6.460   7.214
 4155POPC   C1B54187  19.420   6.897   6.109
 4155POPC   C2B54188  19.599   6.700   6.502
 4155POPC   C3B54189  19.468   6.817   6.902
 4155POPC   C4B54190  19.090   6.872   7.131
 4156POPC   NC354191  22.183  29.153   5.241
 4156POPC   PO454192  22.187  29.815   5.402
 4156POPC   GL154193  22.205  29.495   5.755
 4156POPC   GL254194  21.884  29.514   5.896
 4156POPC   C1A54195  22.298  29.308   6.188
 4156POPC   D2A54196  22.410  29.329   6.639
 4156POPC   C3A54197  22.439  28.999   6.990
 4156POPC   C4A54198  22.339  28.856   7.446
 4156POPC   C1B54199  21.799  29.452   6.363
 4156POPC   C2B54200  21.897  29.272   6.782
 4156POPC   C3B54201  21.961  29.126   7.215
 4156POPC   C4B54202  22.098  29.335   7.605
 4157POPC   NC354203  36.637  38.829   5.183
 4157POPC   PO454204  36.971  38.335   5.540
 4157POPC   GL154205  37.123  38.483   5.908
 4157POPC   GL254206  37.356  38.221   5.957
 4157POPC   C1A54207  36.952  38.597   6.312
 4157POPC   D2A54208  37.130  38.537   6.723
 4157POPC   C3A54209  36.898  38.538   7.120
 4157POPC   C4A54210  37.028  38.629   7.541
 4157POPC   C1B54211  37.152  38.130   6.372
 4157POPC   C2B54212  36.820  38.122   6.721
 4157POPC   C3B54213  36.921  37.988   7.153
 4157POPC   C4B54214  37.320  38.123   7.376
 4158POPC   NC354215  20.612  34.820   5.257
 4158POPC   PO454216  20.482  35.475   5.388
 4158POPC   GL154217  20.549  35.329   5.835
 4158POPC   GL254218  20.843  35.124   5.843
 4158POPC   C1A54219  20.405  35.181   6.291
 4158POPC   D2A54220  20.308  35.206   6.753
 4158POPC   C3A54221  20.528  35.481   7.049
 4158POPC   C4A54222  20.473  35.388   7.479
 4158POPC   C1B54223  20.895  35.297   6.237
 4158POPC   C2B54224  20.795  35.204   6.657
 4158POPC   C3B54225  21.003  35.302   7.032
 4158POPC   C4B54226  20.923  35.150   7.438
 4159POPC   NC354227  30.006   3.930   5.532
 4159POPC   PO454228  29.783   4.539   5.205
 4159POPC   GL154229  29.800   4.554   5.702
 4159POPC   GL254230  29.789   4.241   5.850
 4159POPC   C1A54231  29.825   4.606   6.189
 4159POPC   D2A54232  30.087   4.631   6.559
 4159POPC   C3A54233  29.904   4.527   6.968
 4159POPC   C4A54234  29.801   4.371   7.384
 4159POPC   C1B54235  29.956   4.041   6.239
 4159POPC   C2B54236  30.114   4.120   6.675
 4159POPC   C3B54237  29.990   3.975   7.103
 4159POPC   C4B54238  29.609   3.887   7.367
 4160POPC   NC354239  12.236  31.488   5.385
 4160POPC   PO454240  11.746  31.815   5.632
 4160POPC   GL154241  11.893  31.432   5.807
 4160POPC   GL254242  12.218  31.571   5.909
 4160POPC   C1A54243  11.963  31.216   6.199
 4160POPC   D2A54244  12.071  31.519   6.516
 4160POPC   C3A54245  12.008  31.355   6.936
 4160POPC   C4A54246  12.109  31.626   7.259
 4160POPC   C1B54247  12.471  31.268   6.137
 4160POPC   C2B54248  12.381  31.115   6.566
 4160POPC   C3B54249  12.506  31.309   6.973
 4160POPC   C4B54250  12.572  31.446   7.417
 4161POPC   NC354251  30.156  15.040   5.463
 4161POPC   PO454252  29.549  15.172   5.482
 4161POPC   GL154253  29.771  15.122   5.885
 4161POPC   GL254254  30.068  15.339   5.870
 4161POPC   C1A54255  29.775  15.066   6.360
 4161POPC   D2A54256  29.968  14.930   6.771
 4161POPC   C3A54257  29.845  15.143   7.144
 4161POPC   C4A54258  29.731  15.566   7.180
 4161POPC   C1B54259  30.254  15.226   6.250
 4161POPC   C2B54260  30.427  15.458   6.602
 4161POPC   C3B54261  30.317  15.338   7.030
 4161POPC   C4B54262  30.346  14.969   7.285
 4162POPC   NC354263  23.353  30.188   5.081
 4162POPC   PO454264  23.480  30.751   5.460
 4162POPC   GL154265  23.636  30.677   5.833
 4162POPC   GL254266  23.305  30.735   5.959
 4162POPC   C1A54267  23.710  30.734   6.250
 4162POPC   D2A54268  23.837  30.558   6.566
 4162POPC   C3A54269  23.754  30.777   6.895
 4162POPC   C4A54270  23.774  30.748   7.302
 4162POPC   C1B54271  23.395  30.337   6.236
 4162POPC   C2B54272  23.435  30.283   6.694
 4162POPC   C3B54273  23.388  30.466   7.109
 4162POPC   C4B54274  23.382  30.545   7.571
 4163POPC   NC354275  13.891  27.021   5.602
 4163POPC   PO454276  14.415  26.590   5.602
 4163POPC   GL154277  14.276  26.893   5.917
 4163POPC   GL254278  14.303  27.231   5.800
 4163POPC   C1A54279  14.054  26.835   6.298
 4163POPC   D2A54280  14.223  26.501   6.555
 4163POPC   C3A54281  14.435  26.615   6.911
 4163POPC   C4A54282  14.362  26.803   7.322
 4163POPC   C1B54283  14.504  27.273   6.186
 4163POPC   C2B54284  14.459  27.005   6.566
 4163POPC   C3B54285  14.644  27.086   6.964
 4163POPC   C4B54286  14.460  27.337   7.265
 4164POPC   NC354287  43.384  17.339   5.369
 4164POPC   PO454288  42.856  17.057   5.583
 4164POPC   GL154289  43.002  17.510   5.737
 4164POPC   GL254290  43.328  17.578   5.842
 4164POPC   C1A54291  42.959  17.822   6.120
 4164POPC   D2A54292  42.786  17.836   6.573
 4164POPC   C3A54293  42.822  17.552   6.922
 4164POPC   C4A54294  43.091  17.434   7.264
 4164POPC   C1B54295  43.234  17.379   6.247
 4164POPC   C2B54296  43.233  17.321   6.707
 4164POPC   C3B54297  43.405  17.073   7.070
 4164POPC   C4B54298  43.346  17.025   7.508
 4165POPC   NC354299  16.517  14.521   5.641
 4165POPC   PO454300  16.868  14.018   5.384
 4165POPC   GL154301  16.816  14.139   5.807
 4165POPC   GL254302  16.949  14.469   5.889
 4165POPC   C1A54303  16.697  14.196   6.238
 4165POPC   D2A54304  16.448  14.288   6.576
 4165POPC   C3A54305  16.684  14.294   6.897
 4165POPC   C4A54306  16.610  14.339   7.312
 4165POPC   C1B54307  16.697  14.699   6.269
 4165POPC   C2B54308  16.696  14.774   6.740
 4165POPC   C3B54309  16.950  14.674   7.143
 4165POPC   C4B54310  17.121  14.833   7.566
 4166POPC   NC354311  11.632  23.562   5.493
 4166POPC   PO454312  11.099  23.949   5.619
 4166POPC   GL154313  11.237  23.603   5.869
 4166POPC   GL254314  11.516  23.760   6.012
 4166POPC   C1A54315  11.300  23.350   6.260
 4166POPC   D2A54316  11.155  23.288   6.675
 4166POPC   C3A54317  11.300  23.624   6.944
 4166POPC   C4A54318  11.692  23.911   6.958
 4166POPC   C1B54319  11.155  23.859   6.332
 4166POPC   C2B54320  11.014  24.126   6.711
 4166POPC   C3B54321  11.212  24.087   7.144
 4166POPC   C4B54322  11.265  23.991   7.585
 4167POPC   NC354323  12.103  40.741   5.348
 4167POPC   PO454324  12.466  41.203   5.598
 4167POPC   GL154325  12.274  40.831   5.850
 4167POPC   GL254326  11.910  40.759   5.845
 4167POPC   C1A54327  12.327  40.691   6.307
 4167POPC   D2A54328  12.059  40.736   6.688
 4167POPC   C3A54329  12.252  40.663   7.094
 4167POPC   C4A54330  12.269  40.519   7.569
 4167POPC   C1B54331  11.958  41.036   6.246
 4167POPC   C2B54332  12.234  41.218   6.586
 4167POPC   C3B54333  12.091  41.154   6.990
 4167POPC   C4B54334  11.769  40.877   7.123
 4168POPC   NC354335  33.831  38.698   5.494
 4168POPC   PO454336  33.265  38.339   5.374
 4168POPC   GL154337  33.498  38.260   5.757
 4168POPC   GL254338  33.876  38.290   5.792
 4168POPC   C1A54339  33.522  38.493   6.159
 4168POPC   D2A54340  33.774  38.650   6.515
 4168POPC   C3A54341  33.610  38.692   6.920
 4168POPC   C4A54342  33.769  38.735   7.318
 4168POPC   C1B54343  34.103  38.154   6.157
 4168POPC   C2B54344  34.037  38.217   6.581
 4168POPC   C3B54345  33.917  38.299   7.000
 4168POPC   C4B54346  34.161  38.082   7.294
 4169POPC   NC354347  15.170  34.761   5.163
 4169POPC   PO454348  14.941  34.198   5.251
 4169POPC   GL154349  15.160  34.545   5.688
 4169POPC   GL254350  15.113  34.846   5.720
 4169POPC   C1A54351  15.052  34.547   6.187
 4169POPC   D2A54352  15.295  34.299   6.502
 4169POPC   C3A54353  15.055  34.237   6.875
 4169POPC   C4A54354  14.939  34.477   7.250
 4169POPC   C1B54355  15.352  34.926   6.139
 4169POPC   C2B54356  15.403  34.801   6.598
 4169POPC   C3B54357  15.227  34.849   7.025
 4169POPC   C4B54358  15.275  34.788   7.503
 4170POPC   NC354359  18.571   9.535   5.340
 4170POPC   PO454360  18.239  10.148   5.399
 4170POPC   GL154361  18.207   9.764   5.650
 4170POPC   GL254362  18.536   9.671   5.828
 4170POPC   C1A54363  18.065   9.645   6.044
 4170POPC   D2A54364  18.298   9.703   6.435
 4170POPC   C3A54365  18.194   9.642   6.877
 4170POPC   C4A54366  18.085   9.531   7.298
 4170POPC   C1B54367  18.742   9.851   6.161
 4170POPC   C2B54368  18.770   9.773   6.590
 4170POPC   C3B54369  18.558   9.978   6.931
 4170POPC   C4B54370  18.434   9.898   7.320
 4171POPC   NC354371   5.246  31.640   5.377
 4171POPC   PO454372   4.626  31.317   5.535
 4171POPC   GL154373   4.984  31.520   5.794
 4171POPC   GL254374   5.254  31.263   5.850
 4171POPC   C1A54375   5.305  31.727   6.089
 4171POPC   D2A54376   5.241  31.616   6.520
 4171POPC   C3A54377   5.155  31.641   6.962
 4171POPC   C4A54378   4.871  31.394   7.215
 4171POPC   C1B54379   5.455  31.212   6.263
 4171POPC   C2B54380   5.497  31.217   6.733
 4171POPC   C3B54381   5.364  31.226   7.198
 4171POPC   C4B54382   5.371  31.139   7.649
 4172POPC   NC354383  15.858   1.753   5.318
 4172POPC   PO454384  16.222   2.228   5.106
 4172POPC   GL154385  16.148   2.002   5.626
 4172POPC   GL254386  15.780   2.014   5.753
 4172POPC   C1A54387  16.159   2.062   6.112
 4172POPC   D2A54388  16.087   2.219   6.587
 4172POPC   C3A54389  16.326   2.060   6.956
 4172POPC   C4A54390  16.151   1.773   7.203
 4172POPC   C1B54391  15.586   2.086   6.157
 4172POPC   C2B54392  15.645   1.981   6.586
 4172POPC   C3B54393  15.795   2.085   7.004
 4172POPC   C4B54394  15.693   1.869   7.398
 4173POPC   NC354395  36.483   8.088   5.338
 4173POPC   PO454396  35.926   8.279   5.319
 4173POPC   GL154397  35.978   8.321   5.728
 4173POPC   GL254398  36.344   8.380   5.789
 4173POPC   C1A54399  35.937   8.078   6.111
 4173POPC   D2A54400  36.125   8.249   6.489
 4173POPC   C3A54401  35.907   8.200   6.844
 4173POPC   C4A54402  35.904   8.122   7.228
 4173POPC   C1B54403  36.462   8.055   6.122
 4173POPC   C2B54404  36.489   7.895   6.553
 4173POPC   C3B54405  36.396   8.086   6.947
 4173POPC   C4B54406  36.315   7.855   7.328
 4174POPC   NC354407  35.291  25.477   5.349
 4174POPC   PO454408  35.253  26.093   5.370
 4174POPC   GL154409  35.409  26.294   5.736
 4174POPC   GL254410  35.150  26.373   6.005
 4174POPC   C1A54411  35.593  26.184   6.163
 4174POPC   D2A54412  35.353  26.195   6.541
 4174POPC   C3A54413  35.437  25.897   6.849
 4174POPC   C4A54414  35.202  25.964   7.198
 4174POPC   C1B54415  35.181  25.897   6.138
 4174POPC   C2B54416  35.118  25.629   6.533
 4174POPC   C3B54417  35.058  25.523   6.984
 4174POPC   C4B54418  34.921  25.468   7.428
 4175POPC   NC354419  14.710  31.696   5.414
 4175POPC   PO454420  14.334  31.212   5.274
 4175POPC   GL154421  14.403  31.464   5.747
 4175POPC   GL254422  14.740  31.605   5.929
 4175POPC   C1A54423  14.287  31.568   6.186
 4175POPC   D2A54424  14.236  31.371   6.611
 4175POPC   C3A54425  14.226  31.577   6.992
 4175POPC   C4A54426  14.440  31.747   7.320
 4175POPC   C1B54427  14.652  31.221   6.154
 4175POPC   C2B54428  14.666  31.103   6.552
 4175POPC   C3B54429  14.585  31.150   6.962
 4175POPC   C4B54430  14.812  31.338   7.260
 4176POPC   NC354431  29.187  44.492   5.553
 4176POPC   PO454432  29.244  43.800   5.330
 4176POPC   GL154433  29.362  43.828   5.772
 4176POPC   GL254434  29.490  44.139   5.859
 4176POPC   C1A54435  29.328  43.860   6.257
 4176POPC   D2A54436  29.375  43.759   6.713
 4176POPC   C3A54437  29.077  43.704   7.089
 4176POPC   C4A54438  29.078  43.430   7.457
 4176POPC   C1B54439  29.443  44.365   6.250
 4176POPC   C2B54440  29.598  44.224   6.659
 4176POPC   C3B54441  29.407  44.137   7.084
 4176POPC   C4B54442  28.992  44.186   7.319
 4177POPC   NC354443   4.099   9.887   5.272
 4177POPC   PO454444   4.533   9.473   5.402
 4177POPC   GL154445   4.233   9.604   5.708
 4177POPC   GL254446   3.963   9.871   5.750
 4177POPC   C1A54447   4.182   9.511   6.127
 4177POPC   D2A54448   4.353   9.764   6.466
 4177POPC   C3A54449   4.293   9.626   6.880
 4177POPC   C4A54450   4.516   9.787   7.214
 4177POPC   C1B54451   4.022   9.996   6.146
 4177POPC   C2B54452   3.926  10.021   6.583
 4177POPC   C3B54453   4.103  10.077   6.982
 4177POPC   C4B54454   4.031   9.828   7.338
 4178POPC   NC354455  21.584  20.929   5.413
 4178POPC   PO454456  21.252  20.367   5.188
 4178POPC   GL154457  21.251  20.581   5.585
 4178POPC   GL254458  21.561  20.472   5.730
 4178POPC   C1A54459  21.283  20.807   5.998
 4178POPC   D2A54460  21.432  20.647   6.378
 4178POPC   C3A54461  21.221  20.614   6.779
 4178POPC   C4A54462  21.255  20.735   7.193
 4178POPC   C1B54463  21.250  20.294   6.023
 4178POPC   C2B54464  21.126  20.210   6.437
 4178POPC   C3B54465  21.105  20.121   6.852
 4178POPC   C4B54466  21.057  20.256   7.255
 4179POPC   NC354467  31.043   7.015   5.524
 4179POPC   PO454468  30.541   6.608   5.514
 4179POPC   GL154469  30.726   6.503   5.879
 4179POPC   GL254470  30.875   6.169   5.881
 4179POPC   C1A54471  30.629   6.701   6.265
 4179POPC   D2A54472  30.748   6.988   6.589
 4179POPC   C3A54473  30.614   6.915   6.991
 4179POPC   C4A54474  30.783   6.884   7.386
 4179POPC   C1B54475  30.944   6.275   6.325
 4179POPC   C2B54476  30.716   6.454   6.706
 4179POPC   C3B54477  30.745   6.442   7.161
 4179POPC   C4B54478  30.964   6.292   7.563
 4180POPC   NC354479  40.383   7.830   5.257
 4180POPC   PO454480  39.745   8.174   5.179
 4180POPC   GL154481  39.894   8.199   5.626
 4180POPC   GL254482  39.966   7.855   5.748
 4180POPC   C1A54483  39.814   8.321   6.073
 4180POPC   D2A54484  40.012   8.328   6.456
 4180POPC   C3A54485  39.821   8.505   6.800
 4180POPC   C4A54486  40.020   8.479   7.180
 4180POPC   C1B54487  40.240   8.040   6.056
 4180POPC   C2B54488  40.334   7.939   6.489
 4180POPC   C3B54489  40.290   8.155   6.892
 4180POPC   C4B54490  40.160   7.990   7.314
 4181POPC   NC354491   1.783   5.191   5.321
 4181POPC   PO454492   1.156   4.929   5.141
 4181POPC   GL154493   1.368   4.982   5.546
 4181POPC   GL254494   1.346   5.310   5.659
 4181POPC   C1A54495   1.395   4.901   5.997
 4181POPC   D2A54496   1.395   5.012   6.455
 4181POPC   C3A54497   1.227   4.786   6.832
 4181POPC   C4A54498   1.202   4.924   7.251
 4181POPC   C1B54499   1.074   5.284   6.063
 4181POPC   C2B54500   0.962   5.351   6.494
 4181POPC   C3B54501   1.186   5.307   6.869
 4181POPC   C4B54502   1.061   5.399   7.277
 4182POPC   NC354503  42.736  19.563   5.386
 4182POPC   PO454504  42.284  20.011   5.174
 4182POPC   GL154505  42.194  19.769   5.611
 4182POPC   GL254506  42.436  19.572   5.859
 4182POPC   C1A54507  42.109  19.933   6.046
 4182POPC   D2A54508  42.083  19.727   6.454
 4182POPC   C3A54509  42.036  19.901   6.873
 4182POPC   C4A54510  42.127  19.596   7.187
 4182POPC   C1B54511  42.570  19.834   6.248
 4182POPC   C2B54512  42.435  20.113   6.623
 4182POPC   C3B54513  42.539  19.914   7.041
 4182POPC   C4B54514  42.755  19.760   7.428
 4183POPC   NC354515  31.553  14.030   5.783
 4183POPC   PO454516  31.607  13.469   5.367
 4183POPC   GL154517  31.458  13.468   5.808
 4183POPC   GL254518  31.186  13.658   5.969
 4183POPC   C1A54519  31.627  13.572   6.230
 4183POPC   D2A54520  31.833  13.741   6.574
 4183POPC   C3A54521  31.566  13.719   6.919
 4183POPC   C4A54522  31.581  13.457   7.258
 4183POPC   C1B54523  31.201  14.007   6.300
 4183POPC   C2B54524  31.492  14.152   6.597
 4183POPC   C3B54525  31.226  14.106   6.911
 4183POPC   C4B54526  31.037  14.036   7.284
 4184POPC   NC354527   1.594  19.556   5.327
 4184POPC   PO454528   0.937  19.774   5.410
 4184POPC   GL154529   1.047  19.856   5.818
 4184POPC   GL254530   1.398  19.926   5.782
 4184POPC   C1A54531   1.229  19.660   6.194
 4184POPC   D2A54532   1.349  19.780   6.615
 4184POPC   C3A54533   1.146  19.532   6.919
 4184POPC   C4A54534   1.109  19.563   7.338
 4184POPC   C1B54535   1.523  20.101   6.184
 4184POPC   C2B54536   1.724  20.121   6.592
 4184POPC   C3B54537   1.590  20.185   7.007
 4184POPC   C4B54538   1.505  20.135   7.443
 4185POPC   NC354539   4.768  34.164   5.108
 4185POPC   PO454540   5.216  33.662   5.404
 4185POPC   GL154541   5.213  33.899   5.782
 4185POPC   GL254542   4.880  33.791   5.873
 4185POPC   C1A54543   5.326  34.077   6.201
 4185POPC   D2A54544   5.220  33.887   6.600
 4185POPC   C3A54545   5.259  34.080   7.025
 4185POPC   C4A54546   5.425  33.973   7.463
 4185POPC   C1B54547   4.828  34.011   6.264
 4185POPC   C2B54548   4.691  33.997   6.679
 4185POPC   C3B54549   4.756  34.214   7.045
 4185POPC   C4B54550   4.936  34.033   7.422
 4186POPC   NC354551   5.699  17.042   5.355
 4186POPC   PO454552   6.067  16.538   5.285
 4186POPC   GL154553   5.952  16.710   5.743
 4186POPC   GL254554   5.702  16.989   5.869
 4186POPC   C1A54555   6.103  16.849   6.165
 4186POPC   D2A54556   5.947  16.722   6.578
 4186POPC   C3A54557   6.071  16.902   6.966
 4186POPC   C4A54558   5.963  16.720   7.395
 4186POPC   C1B54559   5.670  17.085   6.333
 4186POPC   C2B54560   5.618  17.080   6.790
 4186POPC   C3B54561   5.504  16.843   7.178
 4186POPC   C4B54562   5.559  16.953   7.649
 4187POPC   NC354563  20.898  39.559   5.409
 4187POPC   PO454564  21.543  39.234   5.446
 4187POPC   GL154565  21.304  39.286   5.809
 4187POPC   GL254566  21.538  39.543   5.888
 4187POPC   C1A54567  21.263  39.030   6.222
 4187POPC   D2A54568  21.161  38.867   6.686
 4187POPC   C3A54569  21.221  38.972   7.157
 4187POPC   C4A54570  21.244  39.389   7.388
 4187POPC   C1B54571  21.528  39.451   6.308
 4187POPC   C2B54572  21.618  39.132   6.579
 4187POPC   C3B54573  21.483  39.338   6.917
 4187POPC   C4B54574  21.578  39.724   7.181
 4188POPC   NC354575  23.225   4.103   5.379
 4188POPC   PO454576  22.835   4.681   5.488
 4188POPC   GL154577  22.971   4.429   5.814
 4188POPC   GL254578  23.299   4.587   5.851
 4188POPC   C1A54579  22.726   4.324   6.203
 4188POPC   D2A54580  22.618   4.019   6.520
 4188POPC   C3A54581  22.596   4.246   6.899
 4188POPC   C4A54582  22.792   4.189   7.285
 4188POPC   C1B54583  23.253   4.368   6.245
 4188POPC   C2B54584  23.045   4.291   6.636
 4188POPC   C3B54585  23.232   4.413   7.011
 4188POPC   C4B54586  23.229   4.428   7.428
 4189POPC   NC354587  43.038   7.870   5.407
 4189POPC   PO454588  43.046   8.511   5.540
 4189POPC   GL154589  43.319   8.350   5.829
 4189POPC   GL254590  43.192   8.028   5.873
 4189POPC   C1A54591  43.476   8.249   6.279
 4189POPC   D2A54592  43.590   8.432   6.691
 4189POPC   C3A54593  43.273   8.334   6.990
 4189POPC   C4A54594  43.358   8.118   7.328
 4189POPC   C1B54595  42.958   8.281   6.199
 4189POPC   C2B54596  42.936   8.179   6.632
 4189POPC   C3B54597  42.702   8.248   7.021
 4189POPC   C4B54598  42.820   8.064   7.429
 4190POPC   NC354599  23.079  42.569   5.675
 4190POPC   PO454600  22.808  42.052   5.336
 4190POPC   GL154601  22.829  42.095   5.791
 4190POPC   GL254602  23.175  42.056   5.823
 4190POPC   C1A54603  22.913  42.259   6.242
 4190POPC   D2A54604  22.949  42.537   6.621
 4190POPC   C3A54605  22.665  42.459   6.981
 4190POPC   C4A54606  22.768  42.513   7.420
 4190POPC   C1B54607  23.367  41.981   6.236
 4190POPC   C2B54608  23.211  42.071   6.617
 4190POPC   C3B54609  23.127  42.227   6.995
 4190POPC   C4B54610  23.207  42.251   7.401
 4191POPC   NC354611  23.366  43.210   5.504
 4191POPC   PO454612  22.730  42.857   5.632
 4191POPC   GL154613  22.923  43.188   5.818
 4191POPC   GL254614  23.198  42.996   5.942
 4191POPC   C1A54615  22.835  43.306   6.253
 4191POPC   D2A54616  23.032  43.064   6.583
 4191POPC   C3A54617  22.772  42.964   6.908
 4191POPC   C4A54618  22.582  43.285   7.109
 4191POPC   C1B54619  23.336  43.344   6.183
 4191POPC   C2B54620  23.439  43.368   6.629
 4191POPC   C3B54621  23.444  43.013   6.925
 4191POPC   C4B54622  23.173  42.711   7.124
 4192POPC   NC354623  12.480  14.467   5.636
 4192POPC   PO454624  11.869  14.148   5.497
 4192POPC   GL154625  12.001  14.413   5.861
 4192POPC   GL254626  12.293  14.229   6.043
 4192POPC   C1A54627  12.010  14.565   6.313
 4192POPC   D2A54628  12.042  14.300   6.702
 4192POPC   C3A54629  11.887  14.476   7.109
 4192POPC   C4A54630  12.173  14.464   7.488
 4192POPC   C1B54631  11.915  14.055   6.230
 4192POPC   C2B54632  11.754  13.823   6.566
 4192POPC   C3B54633  11.768  13.960   6.986
 4192POPC   C4B54634  12.165  14.057   7.184
 4193POPC   NC354635  12.987  17.065   5.411
 4193POPC   PO454636  12.632  16.491   5.438
 4193POPC   GL154637  12.758  16.620   5.845
 4193POPC   GL254638  12.833  16.971   5.894
 4193POPC   C1A54639  12.642  16.603   6.289
 4193POPC   D2A54640  12.834  16.817   6.652
 4193POPC   C3A54641  12.663  16.745   7.040
 4193POPC   C4A54642  12.537  16.450   7.340
 4193POPC   C1B54643  13.118  16.789   6.211
 4193POPC   C2B54644  13.340  16.774   6.628
 4193POPC   C3B54645  13.204  16.738   7.027
 4193POPC   C4B54646  13.024  16.597   7.405
 4194POPC   NC354647  33.817  28.736   5.492
 4194POPC   PO454648  34.075  28.099   5.516
 4194POPC   GL154649  33.915  28.165   5.914
 4194POPC   GL254650  33.688  28.426   5.891
 4194POPC   C1A54651  33.866  28.271   6.362
 4194POPC   D2A54652  33.944  28.434   6.785
 4194POPC   C3A54653  34.176  28.200   7.096
 4194POPC   C4A54654  34.033  28.027   7.515
 4194POPC   C1B54655  33.441  28.729   6.135
 4194POPC   C2B54656  33.451  28.892   6.566
 4194POPC   C3B54657  33.526  28.721   6.976
 4194POPC   C4B54658  33.703  28.337   7.231
 4195POPC   NC354659   3.383  30.368   5.357
 4195POPC   PO454660   3.604  30.931   5.422
 4195POPC   GL154661   3.419  30.726   5.728
 4195POPC   GL254662   3.667  30.450   5.783
 4195POPC   C1A54663   3.433  30.902   6.112
 4195POPC   D2A54664   3.631  30.765   6.463
 4195POPC   C3A54665   3.436  30.913   6.815
 4195POPC   C4A54666   3.645  30.938   7.213
 4195POPC   C1B54667   3.423  30.412   6.160
 4195POPC   C2B54668   3.230  30.496   6.605
 4195POPC   C3B54669   3.424  30.463   7.043
 4195POPC   C4B54670   3.406  30.591   7.508
 4196POPC   NC354671  40.615  22.530   5.467
 4196POPC   PO454672  41.055  22.009   5.367
 4196POPC   GL154673  40.842  22.129   5.751
 4196POPC   GL254674  40.492  21.977   5.725
 4196POPC   C1A54675  41.008  22.235   6.173
 4196POPC   D2A54676  41.090  22.029   6.572
 4196POPC   C3A54677  41.032  22.232   6.999
 4196POPC   C4A54678  41.073  22.007   7.427
 4196POPC   C1B54679  40.527  22.049   6.180
 4196POPC   C2B54680  40.660  22.328   6.535
 4196POPC   C3B54681  40.511  22.429   6.915
 4196POPC   C4B54682  40.563  22.038   7.103
 4197POPC   NC354683  12.260  19.189   5.272
 4197POPC   PO454684  11.806  18.851   5.684
 4197POPC   GL154685  12.213  18.858   5.787
 4197POPC   GL254686  12.194  19.215   5.802
 4197POPC   C1A54687  12.212  18.883   6.230
 4197POPC   D2A54688  11.859  18.964   6.497
 4197POPC   C3A54689  11.958  19.015   6.911
 4197POPC   C4A54690  12.104  18.962   7.351
 4197POPC   C1B54691  12.160  19.407   6.234
 4197POPC   C2B54692  12.305  19.380   6.686
 4197POPC   C3B54693  12.155  19.421   7.132
 4197POPC   C4B54694  12.262  19.426   7.588
 4198POPC   NC354695  39.639   1.186   5.469
 4198POPC   PO454696  38.981   1.432   5.463
 4198POPC   GL154697  39.309   1.434   5.780
 4198POPC   GL254698  39.215   1.089   5.816
 4198POPC   C1A54699  39.516   1.280   6.173
 4198POPC   D2A54700  39.257   1.164   6.532
 4198POPC   C3A54701  39.442   1.240   6.935
 4198POPC   C4A54702  39.204   1.545   7.204
 4198POPC   C1B54703  38.894   1.076   6.153
 4198POPC   C2B54704  38.814   0.925   6.583
 4198POPC   C3B54705  38.941   1.142   6.970
 4198POPC   C4B54706  39.200   1.030   7.342
 4199POPC   NC354707  16.074   3.729   5.355
 4199POPC   PO454708  15.874   3.126   5.387
 4199POPC   GL154709  16.108   3.296   5.768
 4199POPC   GL254710  16.206   3.632   5.840
 4199POPC   C1A54711  16.022   3.371   6.214
 4199POPC   D2A54712  15.845   3.537   6.590
 4199POPC   C3A54713  16.010   3.453   6.963
 4199POPC   C4A54714  15.818   3.173   7.212
 4199POPC   C1B54715  16.216   3.870   6.247
 4199POPC   C2B54716  16.188   3.945   6.720
 4199POPC   C3B54717  16.250   3.870   7.179
 4199POPC   C4B54718  15.955   3.648   7.436
 4200POPC   NC354719  37.730   7.044   5.265
 4200POPC   PO454720  37.929   6.400   5.388
 4200POPC   GL154721  37.756   6.688   5.705
 4200POPC   GL254722  37.455   6.512   5.832
 4200POPC   C1A54723  37.614   6.871   6.129
 4200POPC   D2A54724  37.389   6.813   6.518
 4200POPC   C3A54725  37.275   6.769   6.964
 4200POPC   C4A54726  37.325   6.467   7.311
 4200POPC   C1B54727  37.657   6.368   6.245
 4200POPC   C2B54728  37.600   6.367   6.703
 4200POPC   C3B54729  37.788   6.607   7.016
 4200POPC   C4B54730  38.126   6.517   7.293
 4201POPC   NC354731  34.335   2.549   5.049
 4201POPC   PO454732  34.923   2.804   5.377
 4201POPC   GL154733  34.818   2.803   5.797
 4201POPC   GL254734  34.802   3.128   5.959
 4201POPC   C1A54735  34.577   2.683   6.169
 4201POPC   D2A54736  34.329   2.708   6.541
 4201POPC   C3A54737  34.572   2.606   6.884
 4201POPC   C4A54738  34.435   2.640   7.272
 4201POPC   C1B54739  34.937   3.228   6.363
 4201POPC   C2B54740  34.635   3.090   6.642
 4201POPC   C3B54741  34.440   3.103   7.006
 4201POPC   C4B54742  34.715   3.128   7.318
 4202POPC   NC354743  18.038  32.460   5.441
 4202POPC   PO454744  18.680  32.323   5.637
 4202POPC   GL154745  18.286  32.196   5.828
 4202POPC   GL254746  18.177  32.529   5.950
 4202POPC   C1A54747  18.123  32.040   6.229
 4202POPC   D2A54748  18.108  32.277   6.633
 4202POPC   C3A54749  18.135  32.043   7.013
 4202POPC   C4A54750  18.252  32.119   7.445
 4202POPC   C1B54751  18.505  32.407   6.274
 4202POPC   C2B54752  18.723  32.328   6.666
 4202POPC   C3B54753  18.649  32.212   7.127
 4202POPC   C4B54754  18.726  32.193   7.602
 4203POPC   NC354755  33.538  29.693   5.413
 4203POPC   PO454756  34.191  29.974   5.329
 4203POPC   GL154757  33.891  29.881   5.749
 4203POPC   GL254758  33.676  29.585   5.880
 4203POPC   C1A54759  33.765  30.079   6.170
 4203POPC   D2A54760  33.654  30.228   6.617
 4203POPC   C3A54761  33.879  30.040   7.010
 4203POPC   C4A54762  33.991  29.598   7.067
 4203POPC   C1B54763  33.963  29.608   6.194
 4203POPC   C2B54764  33.871  29.768   6.575
 4203POPC   C3B54765  33.491  29.767   6.795
 4203POPC   C4B54766  33.503  29.708   7.205
 4204POPC   NC354767  37.189   2.974   5.491
 4204POPC   PO454768  36.609   2.622   5.442
 4204POPC   GL154769  36.890   2.625   5.778
 4204POPC   GL254770  37.192   2.426   5.629
 4204POPC   C1A54771  36.941   2.836   6.220
 4204POPC   D2A54772  37.059   2.949   6.701
 4204POPC   C3A54773  36.893   2.941   7.163
 4204POPC   C4A54774  37.124   2.972   7.599
 4204POPC   C1B54775  37.225   2.412   6.074
 4204POPC   C2B54776  37.164   2.465   6.506
 4204POPC   C3B54777  37.089   2.440   6.943
 4204POPC   C4B54778  37.145   2.533   7.365
 4205POPC   NC354779  14.629  25.559   5.343
 4205POPC   PO454780  14.243  25.043   5.221
 4205POPC   GL154781  14.281  25.113   5.703
 4205POPC   GL254782  14.582  25.229   5.740
 4205POPC   C1A54783  14.250  25.237   6.153
 4205POPC   D2A54784  13.944  25.475   6.423
 4205POPC   C3A54785  14.038  25.572   6.869
 4205POPC   C4A54786  14.136  25.345   7.251
 4205POPC   C1B54787  14.747  25.368   6.141
 4205POPC   C2B54788  14.611  25.228   6.557
 4205POPC   C3B54789  14.591  25.347   6.999
 4205POPC   C4B54790  14.617  25.366   7.453
 4206POPC   NC354791  22.493  22.287   5.415
 4206POPC   PO454792  21.898  22.007   5.341
 4206POPC   GL154793  22.130  21.987   5.718
 4206POPC   GL254794  22.099  22.327   5.785
 4206POPC   C1A54795  22.307  21.921   6.148
 4206POPC   D2A54796  22.448  21.804   6.587
 4206POPC   C3A54797  22.240  22.054   6.930
 4206POPC   C4A54798  22.193  22.107   7.380
 4206POPC   C1B54799  21.999  22.326   6.225
 4206POPC   C2B54800  21.934  22.483   6.659
 4206POPC   C3B54801  21.807  22.570   7.125
 4206POPC   C4B54802  21.834  22.411   7.588
 4207POPC   NC354803  23.752  35.480   5.481
 4207POPC   PO454804  23.546  34.898   5.187
 4207POPC   GL154805  23.570  35.040   5.648
 4207POPC   GL254806  23.699  34.785   5.776
 4207POPC   C1A54807  23.762  35.228   6.078
 4207POPC   D2A54808  24.035  35.486   6.349
 4207POPC   C3A54809  23.939  35.467   6.797
 4207POPC   C4A54810  23.928  35.415   7.253
 4207POPC   C1B54811  23.463  34.832   6.146
 4207POPC   C2B54812  23.535  35.026   6.577
 4207POPC   C3B54813  23.481  35.242   7.009
 4207POPC   C4B54814  23.334  35.160   7.442
 4208POPC   NC354815  18.821   1.366   5.525
 4208POPC   PO454816  19.406   1.282   5.514
 4208POPC   GL154817  19.162   1.165   5.845
 4208POPC   GL254818  18.938   0.897   5.756
 4208POPC   C1A54819  19.039   1.423   6.190
 4208POPC   D2A54820  19.128   1.434   6.622
 4208POPC   C3A54821  19.201   1.038   6.829
 4208POPC   C4A54822  19.189   1.068   7.294
 4208POPC   C1B54823  18.855   0.926   6.183
 4208POPC   C2B54824  18.688   1.186   6.481
 4208POPC   C3B54825  18.740   1.231   6.895
 4208POPC   C4B54826  18.667   0.995   7.258
 4209POPC   NC354827   3.435  44.432   5.586
 4209POPC   PO454828   3.562   0.091   5.548
 4209POPC   GL154829   3.403  44.854   5.895
 4209POPC   GL254830   3.726  44.665   5.959
 4209POPC   C1A54831   3.354  44.670   6.311
 4209POPC   D2A54832   3.621  44.551   6.658
 4209POPC   C3A54833   3.422  44.603   7.057
 4209POPC   C4A54834   3.237  44.692   7.467
 4209POPC   C1B54835   3.956  44.326   6.220
 4209POPC   C2B54836   4.023  44.214   6.670
 4209POPC   C3B54837   3.891  44.387   7.077
 4209POPC   C4B54838   3.658  44.395   7.505
 4210POPC   NC354839  41.160  31.315   5.240
 4210POPC   PO454840  40.514  31.581   5.306
 4210POPC   GL154841  40.751  31.556   5.705
 4210POPC   GL254842  40.790  31.187   5.755
 4210POPC   C1A54843  40.694  31.736   6.152
 4210POPC   D2A54844  40.878  31.650   6.565
 4210POPC   C3A54845  40.659  31.492   6.955
 4210POPC   C4A54846  40.908  31.788   7.129
 4210POPC   C1B54847  40.715  31.232   6.204
 4210POPC   C2B54848  40.885  31.135   6.618
 4210POPC   C3B54849  41.148  31.390   6.939
 4210POPC   C4B54850  40.989  31.250   7.320
 4211POPC   NC354851   5.751  37.235   5.352
 4211POPC   PO454852   5.916  37.909   5.475
 4211POPC   GL154853   5.857  37.594   5.749
 4211POPC   GL254854   6.179  37.480   5.748
 4211POPC   C1A54855   5.904  37.681   6.195
 4211POPC   D2A54856   6.016  37.941   6.571
 4211POPC   C3A54857   5.762  37.740   6.892
 4211POPC   C4A54858   5.728  37.800   7.328
 4211POPC   C1B54859   6.341  37.425   6.167
 4211POPC   C2B54860   6.196  37.477   6.599
 4211POPC   C3B54861   6.232  37.551   7.056
 4211POPC   C4B54862   6.282  37.203   7.357
 4212POPC   NC354863  11.693  41.701   5.619
 4212POPC   PO454864  11.858  41.145   5.346
 4212POPC   GL154865  12.009  41.291   5.794
 4212POPC   GL254866  11.812  41.458   6.025
 4212POPC   C1A54867  12.319  41.487   6.145
 4212POPC   D2A54868  12.338  41.822   6.490
 4212POPC   C3A54869  12.117  41.664   6.876
 4212POPC   C4A54870  12.346  41.502   7.244
 4212POPC   C1B54871  11.890  41.566   6.413
 4212POPC   C2B54872  11.722  41.324   6.691
 4212POPC   C3B54873  11.633  41.377   7.085
 4212POPC   C4B54874  11.882  41.593   7.378
 4213POPC   NC354875  24.273  27.039   5.406
 4213POPC   PO454876  24.787  26.560   5.507
 4213POPC   GL154877  24.446  26.708   5.741
 4213POPC   GL254878  24.561  26.997   5.820
 4213POPC   C1A54879  24.278  26.628   6.145
 4213POPC   D2A54880  24.516  26.526   6.521
 4213POPC   C3A54881  24.417  26.752   6.895
 4213POPC   C4A54882  24.584  26.779   7.291
 4213POPC   C1B54883  24.751  26.808   6.163
 4213POPC   C2B54884  24.844  26.933   6.568
 4213POPC   C3B54885  24.713  27.253   6.832
 4213POPC   C4B54886  24.779  27.258   7.246
 4214POPC   NC354887  43.717   1.159   5.180
 4214POPC   PO454888  43.106   1.305   5.142
 4214POPC   GL154889  43.044   1.367   5.631
 4214POPC   GL254890  43.290   1.167   5.777
 4214POPC   C1A54891  42.882   1.308   6.092
 4214POPC   D2A54892  43.024   1.232   6.539
 4214POPC   C3A54893  42.805   1.305   6.942
 4214POPC   C4A54894  42.941   1.207   7.360
 4214POPC   C1B54895  43.414   1.302   6.192
 4214POPC   C2B54896  43.418   1.570   6.587
 4214POPC   C3B54897  43.357   1.450   7.019
 4214POPC   C4B54898  43.569   1.182   7.274
 4215POPC   NC354899  35.394   0.188   5.358
 4215POPC   PO454900  35.135   0.837   5.422
 4215POPC   GL154901  35.145   0.501   5.744
 4215POPC   GL254902  35.511   0.545   5.733
 4215POPC   C1A54903  35.260   0.310   6.186
 4215POPC   D2A54904  35.435   0.341   6.631
 4215POPC   C3A54905  35.219   0.208   7.017
 4215POPC   C4A54906  35.310   0.333   7.454
 4215POPC   C1B54907  35.357   0.841   6.072
 4215POPC   C2B54908  35.273   0.822   6.511
 4215POPC   C3B54909  35.193   0.704   6.944
 4215POPC   C4B54910  35.249   0.843   7.364
 4216POPC   NC354911  25.446  37.744   5.484
 4216POPC   PO454912  24.865  37.480   5.397
 4216POPC   GL154913  25.097  37.553   5.811
 4216POPC   GL254914  25.444  37.433   5.875
 4216POPC   C1A54915  25.316  37.899   6.082
 4216POPC   D2A54916  25.590  37.899   6.423
 4216POPC   C3A54917  25.346  37.805   6.774
 4216POPC   C4A54918  25.310  37.946   7.196
 4216POPC   C1B54919  25.366  37.439   6.318
 4216POPC   C2B54920  25.669  37.413   6.655
 4216POPC   C3B54921  25.608  37.528   7.100
 4216POPC   C4B54922  25.138  37.456   7.164
 4217POPC   NC354923  34.931   4.057   5.371
 4217POPC   PO454924  34.486   4.593   5.476
 4217POPC   GL154925  34.552   4.510   5.852
 4217POPC   GL254926  34.598   4.155   5.752
 4217POPC   C1A54927  34.369   4.507   6.249
 4217POPC   D2A54928  34.432   4.523   6.698
 4217POPC   C3A54929  34.500   4.625   7.111
 4217POPC   C4A54930  34.829   4.392   7.264
 4217POPC   C1B54931  34.415   3.960   6.093
 4217POPC   C2B54932  34.479   4.047   6.512
 4217POPC   C3B54933  34.654   4.055   6.913
 4217POPC   C4B54934  34.442   3.962   7.306
 4218POPC   NC354935  18.462   1.777   5.305
 4218POPC   PO454936  18.352   2.311   5.183
 4218POPC   GL154937  18.398   2.172   5.648
 4218POPC   GL254938  18.618   1.872   5.785
 4218POPC   C1A54939  18.288   2.135   6.123
 4218POPC   D2A54940  18.167   2.321   6.540
 4218POPC   C3A54941  18.123   2.098   6.950
 4218POPC   C4A54942  18.062   1.827   7.337
 4218POPC   C1B54943  18.780   2.247   6.006
 4218POPC   C2B54944  18.688   2.370   6.439
 4218POPC   C3B54945  18.581   2.324   6.866
 4218POPC   C4B54946  18.563   1.990   7.180
 4219POPC   NC354947  13.649  30.200   5.238
 4219POPC   PO454948  13.570  30.911   5.127
 4219POPC   GL154949  13.589  30.772   5.566
 4219POPC   GL254950  13.257  30.734   5.751
 4219POPC   C1A54951  13.738  30.827   6.011
 4219POPC   D2A54952  13.720  30.977   6.460
 4219POPC   C3A54953  13.746  30.659   6.791
 4219POPC   C4A54954  13.779  30.653   7.220
 4219POPC   C1B54955  13.273  30.791   6.231
 4219POPC   C2B54956  13.272  30.863   6.705
 4219POPC   C3B54957  13.264  30.725   7.155
 4219POPC   C4B54958  13.394  30.393   7.434
 4220POPC   NC354959  30.675  20.003   4.987
 4220POPC   PO454960  30.624  20.600   5.364
 4220POPC   GL154961  30.718  20.681   5.820
 4220POPC   GL254962  30.628  21.012   5.977
 4220POPC   C1A54963  30.801  20.599   6.218
 4220POPC   D2A54964  30.593  20.458   6.546
 4220POPC   C3A54965  30.767  20.577   6.913
 4220POPC   C4A54966  30.530  20.634   7.237
 4220POPC   C1B54967  30.451  20.973   6.373
 4220POPC   C2B54968  30.410  20.955   6.820
 4220POPC   C3B54969  30.658  21.106   7.176
 4220POPC   C4B54970  30.733  20.921   7.611
 4221POPC   NC354971  29.217  12.366   5.378
 4221POPC   PO454972  28.870  11.724   5.451
 4221POPC   GL154973  29.133  11.885   5.818
 4221POPC   GL254974  29.318  12.215   5.852
 4221POPC   C1A54975  29.000  12.067   6.229
 4221POPC   D2A54976  28.828  12.208   6.647
 4221POPC   C3A54977  29.116  12.112   6.973
 4221POPC   C4A54978  28.938  11.744   7.127
 4221POPC   C1B54979  29.636  12.213   6.174
 4221POPC   C2B54980  29.700  12.065   6.605
 4221POPC   C3B54981  29.605  12.259   7.002
 4221POPC   C4B54982  29.559  12.383   7.467
 4222POPC   NC354983  38.376   9.978   5.633
 4222POPC   PO454984  38.822   9.380   5.531
 4222POPC   GL154985  38.667   9.542   5.878
 4222POPC   GL254986  38.329   9.558   5.886
 4222POPC   C1A54987  38.737   9.574   6.299
 4222POPC   D2A54988  38.501   9.594   6.641
 4222POPC   C3A54989  38.560   9.969   6.836
 4222POPC   C4A54990  38.690   9.989   7.214
 4222POPC   C1B54991  38.114   9.656   6.302
 4222POPC   C2B54992  38.061   9.879   6.729
 4222POPC   C3B54993  38.172   9.860   7.197
 4222POPC   C4B54994  38.069   9.852   7.671
 4223POPC   NC354995  42.545   2.599   5.215
 4223POPC   PO454996  41.959   2.832   5.500
 4223POPC   GL154997  42.321   2.681   5.785
 4223POPC   GL254998  42.694   2.564   5.715
 4223POPC   C1A54999  42.197   2.691   6.234
 4223POPC   D2A55000  42.025   2.972   6.601
 4223POPC   C3A55001  42.133   2.936   7.068
 4223POPC   C4A55002  42.122   2.587   7.350
 4223POPC   C1B55003  42.717   2.717   6.171
 4223POPC   C2B55004  42.548   2.822   6.591
 4223POPC   C3B55005  42.528   2.608   6.976
 4223POPC   C4B55006  42.649   2.861   7.318
 4224POPC   NC355007  30.297  39.489   5.551
 4224POPC   PO455008  30.717  38.967   5.333
 4224POPC   GL155009  30.583  39.043   5.741
 4224POPC   GL255010  30.745  39.353   5.787
 4224POPC   C1A55011  30.697  39.039   6.193
 4224POPC   D2A55012  30.757  39.274   6.601
 4224POPC   C3A55013  30.750  39.020   7.002
 4224POPC   C4A55014  30.574  38.934   7.426
 4224POPC   C1B55015  30.691  39.604   6.163
 4224POPC   C2B55016  30.420  39.666   6.495
 4224POPC   C3B55017  30.189  39.562   6.825
 4224POPC   C4B55018  30.347  39.329   7.156
 4225POPC   NC355019  27.367  37.945   5.263
 4225POPC   PO455020  27.541  37.335   5.486
 4225POPC   GL155021  27.546  37.735   5.751
 4225POPC   GL255022  27.876  37.848   5.836
 4225POPC   C1A55023  27.528  37.957   6.200
 4225POPC   D2A55024  27.478  37.761   6.631
 4225POPC   C3A55025  27.584  37.966   7.042
 4225POPC   C4A55026  27.414  38.029   7.500
 4225POPC   C1B55027  27.753  37.514   6.178
 4225POPC   C2B55028  27.907  37.466   6.601
 4225POPC   C3B55029  27.683  37.402   6.982
 4225POPC   C4B55030  27.607  37.578   7.380
 4226POPC   NC355031  30.886  11.605   5.425
 4226POPC   PO455032  30.389  12.111   5.452
 4226POPC   GL155033  30.622  11.948   5.776
 4226POPC   GL255034  30.861  12.188   5.954
 4226POPC   C1A55035  30.507  11.905   6.200
 4226POPC   D2A55036  30.603  12.129   6.572
 4226POPC   C3A55037  30.575  11.906   6.957
 4226POPC   C4A55038  30.318  12.013   7.314
 4226POPC   C1B55039  31.047  12.336   6.352
 4226POPC   C2B55040  31.001  12.342   6.814
 4226POPC   C3B55041  30.734  12.355   7.216
 4226POPC   C4B55042  30.830  12.348   7.709
 4227POPC   NC355043  11.939  22.433   5.244
 4227POPC   PO455044  11.314  22.185   5.430
 4227POPC   GL155045  11.098  22.169   5.824
 4227POPC   GL255046  11.053  21.805   5.833
 4227POPC   C1A55047  11.104  22.375   6.259
 4227POPC   D2A55048  10.962  22.240   6.680
 4227POPC   C3A55049  11.217  22.452   6.957
 4227POPC   C4A55050  11.309  22.540   7.377
 4227POPC   C1B55051  11.241  21.898   6.248
 4227POPC   C2B55052  11.448  22.052   6.635
 4227POPC   C3B55053  11.423  21.862   7.000
 4227POPC   C4B55054  11.074  22.014   7.174
 4228POPC   NC355055  34.137   4.967   5.441
 4228POPC   PO455056  33.482   4.977   5.633
 4228POPC   GL155057  33.831   5.069   5.894
 4228POPC   GL255058  34.180   4.928   5.968
 4228POPC   C1A55059  33.777   5.006   6.338
 4228POPC   D2A55060  33.717   4.951   6.764
 4228POPC   C3A55061  33.666   5.328   7.031
 4228POPC   C4A55062  33.649   5.059   7.347
 4228POPC   C1B55063  34.139   5.336   6.205
 4228POPC   C2B55064  33.991   5.374   6.632
 4228POPC   C3B55065  34.132   5.139   7.014
 4228POPC   C4B55066  34.104   5.277   7.439
 4229POPC   NC355067  14.468  27.889   5.393
 4229POPC   PO455068  14.000  27.446   5.425
 4229POPC   GL155069  14.215  27.728   5.806
 4229POPC   GL255070  14.604  27.657   5.834
 4229POPC   C1A55071  14.336  27.767   6.273
 4229POPC   D2A55072  14.364  27.502   6.661
 4229POPC   C3A55073  14.095  27.626   7.032
 4229POPC   C4A55074  14.087  27.637   7.512
 4229POPC   C1B55075  14.847  27.794   6.200
 4229POPC   C2B55076  14.770  27.828   6.631
 4229POPC   C3B55077  14.578  27.808   7.016
 4229POPC   C4B55078  14.556  27.812   7.432
 4230POPC   NC355079   4.952  17.700   5.258
 4230POPC   PO455080   5.564  17.476   5.324
 4230POPC   GL155081   5.209  17.574   5.693
 4230POPC   GL255082   4.792  17.601   5.725
 4230POPC   C1A55083   5.067  17.731   6.121
 4230POPC   D2A55084   4.975  17.987   6.454
 4230POPC   C3A55085   5.102  17.821   6.847
 4230POPC   C4A55086   5.045  17.653   7.246
 4230POPC   C1B55087   4.729  17.358   6.125
 4230POPC   C2B55088   4.904  17.427   6.554
 4230POPC   C3B55089   5.121  17.256   6.927
 4230POPC   C4B55090   5.079  17.073   7.346
 4231POPC   NC355091  41.616   6.014   5.504
 4231POPC   PO455092  41.788   5.378   5.526
 4231POPC   GL155093  41.736   5.661   5.870
 4231POPC   GL255094  41.408   5.774   5.909
 4231POPC   C1A55095  41.684   5.759   6.326
 4231POPC   D2A55096  41.455   5.916   6.683
 4231POPC   C3A55097  41.587   5.675   7.053
 4231POPC   C4A55098  41.812   5.852   7.410
 4231POPC   C1B55099  41.330   6.124   6.191
 4231POPC   C2B55100  41.297   6.411   6.553
 4231POPC   C3B55101  41.162   6.339   6.972
 4231POPC   C4B55102  41.373   6.088   7.279
 4232POPC   NC355103  28.587  31.223   5.355
 4232POPC   PO455104  29.063  31.577   5.107
 4232POPC   GL155105  29.070  31.522   5.664
 4232POPC   GL255106  28.815  31.360   5.815
 4232POPC   C1A55107  29.159  31.571   6.118
 4232POPC   D2A55108  28.994  31.532   6.541
 4232POPC   C3A55109  29.100  31.459   6.959
 4232POPC   C4A55110  29.387  31.714   7.208
 4232POPC   C1B55111  28.859  31.156   6.217
 4232POPC   C2B55112  28.715  31.122   6.619
 4232POPC   C3B55113  28.835  30.989   7.011
 4232POPC   C4B55114  28.989  31.186   7.373
 4233POPC   NC355115  20.987  18.745   5.527
 4233POPC   PO455116  20.487  19.097   5.342
 4233POPC   GL155117  20.780  19.166   5.745
 4233POPC   GL255118  20.652  18.871   5.904
 4233POPC   C1A55119  20.975  19.089   6.219
 4233POPC   D2A55120  20.819  18.917   6.640
 4233POPC   C3A55121  20.881  19.103   7.074
 4233POPC   C4A55122  20.802  18.828   7.424
 4233POPC   C1B55123  20.461  19.099   6.264
 4233POPC   C2B55124  20.323  19.059   6.698
 4233POPC   C3B55125  20.413  18.859   7.101
 4233POPC   C4B55126  20.322  18.954   7.545
 4234POPC   NC355127   1.658  44.276   5.411
 4234POPC   PO455128   2.021  44.877   5.533
 4234POPC   GL155129   2.127  44.714   5.883
 4234POPC   GL255130   1.896  44.464   5.847
 4234POPC   C1A55131   2.057  44.698   6.293
 4234POPC   D2A55132   1.855  44.887   6.614
 4234POPC   C3A55133   2.029  44.623   6.882
 4234POPC   C4A55134   1.930  44.540   7.285
 4234POPC   C1B55135   2.200  44.229   6.096
 4234POPC   C2B55136   2.408  44.322   6.479
 4234POPC   C3B55137   2.297  44.176   6.879
 4234POPC   C4B55138   2.207  44.099   7.301
 4235POPC   NC355139  20.358  40.235   5.433
 4235POPC   PO455140  20.530  39.601   5.689
 4235POPC   GL155141  20.654  39.878   6.010
 4235POPC   GL255142  20.683  40.216   5.860
 4235POPC   C1A55143  20.842  40.038   6.366
 4235POPC   D2A55144  20.882  40.280   6.741
 4235POPC   C3A55145  20.711  40.034   7.060
 4235POPC   C4A55146  20.662  39.627   7.208
 4235POPC   C1B55147  20.393  40.294   6.214
 4235POPC   C2B55148  20.386  40.156   6.637
 4235POPC   C3B55149  20.342  40.380   7.006
 4235POPC   C4B55150  20.565  40.436   7.366
 4236POPC   NC355151   6.532   0.175   5.349
 4236POPC   PO455152   6.847   0.761   5.252
 4236POPC   GL155153   6.756   0.622   5.703
 4236POPC   GL255154   6.859   0.283   5.747
 4236POPC   C1A55155   6.567   0.447   6.119
 4236POPC   D2A55156   6.683   0.427   6.560
 4236POPC   C3A55157   6.454   0.462   6.968
 4236POPC   C4A55158   6.482   0.782   7.306
 4236POPC   C1B55159   6.970   0.150   6.155
 4236POPC   C2B55160   7.062   0.050   6.548
 4236POPC   C3B55161   6.940   0.189   6.926
 4236POPC   C4B55162   6.922   0.539   7.151
 4237POPC   NC355163  22.344  21.599   5.407
 4237POPC   PO455164  21.802  21.293   5.583
 4237POPC   GL155165  22.087  21.462   5.825
 4237POPC   GL255166  22.292  21.174   5.764
 4237POPC   C1A55167  22.133  21.458   6.244
 4237POPC   D2A55168  21.921  21.377   6.597
 4237POPC   C3A55169  22.123  21.545   6.915
 4237POPC   C4A55170  21.930  21.711   7.242
 4237POPC   C1B55171  22.450  21.038   6.172
 4237POPC   C2B55172  22.418  21.210   6.591
 4237POPC   C3B55173  22.232  21.044   6.965
 4237POPC   C4B55174  22.338  21.258   7.333
 4238POPC   NC355175  43.918  22.469   5.500
 4238POPC   PO455176  43.670  21.822   5.329
 4238POPC   GL155177  43.729  22.053   5.760
 4238POPC   GL255178  44.109  22.084   5.813
 4238POPC   C1A55179  43.776  22.245   6.212
 4238POPC   D2A55180  43.960  22.103   6.626
 4238POPC   C3A55181  43.683  22.042   6.987
 4238POPC   C4A55182  43.670  22.137   7.446
 4238POPC   C1B55183  44.308  22.132   6.218
 4238POPC   C2B55184  44.512  22.230   6.616
 4238POPC   C3B55185  44.448  22.373   7.014
 4238POPC   C4B55186  44.063  22.319   7.203
 4239POPC   NC355187   9.588  32.519   5.457
 4239POPC   PO455188   9.229  32.002   5.441
 4239POPC   GL155189   9.468  32.040   5.827
 4239POPC   GL255190   9.857  32.076   5.775
 4239POPC   C1A55191   9.641  32.060   6.249
 4239POPC   D2A55192   9.965  32.174   6.534
 4239POPC   C3A55193   9.710  32.308   6.858
 4239POPC   C4A55194   9.426  32.047   7.107
 4239POPC   C1B55195   9.933  32.459   6.083
 4239POPC   C2B55196   9.829  32.690   6.491
 4239POPC   C3B55197  10.024  32.764   6.908
 4239POPC   C4B55198   9.990  32.611   7.339
 4240POPC   NC355199  29.719  42.066   5.418
 4240POPC   PO455200  30.247  42.497   5.453
 4240POPC   GL155201  30.027  42.411   5.830
 4240POPC   GL255202  29.863  42.131   5.901
 4240POPC   C1A55203  29.973  42.516   6.269
 4240POPC   D2A55204  29.834  42.316   6.621
 4240POPC   C3A55205  30.032  42.357   7.007
 4240POPC   C4A55206  29.719  42.379   7.280
 4240POPC   C1B55207  30.142  42.027   6.215
 4240POPC   C2B55208  30.178  41.878   6.612
 4240POPC   C3B55209  29.898  41.885   6.929
 4240POPC   C4B55210  29.776  41.878   7.360
 4241POPC   NC355211   6.993   9.160   5.363
 4241POPC   PO455212   6.633   8.560   5.355
 4241POPC   GL155213   6.495   8.834   5.687
 4241POPC   GL255214   6.370   9.178   5.635
 4241POPC   C1A55215   6.736   8.915   6.065
 4241POPC   D2A55216   6.745   8.662   6.446
 4241POPC   C3A55217   6.705   8.851   6.849
 4241POPC   C4A55218   6.550   8.635   7.216
 4241POPC   C1B55219   6.394   9.300   6.067
 4241POPC   C2B55220   6.548   9.193   6.486
 4241POPC   C3B55221   6.466   9.300   6.933
 4241POPC   C4B55222   6.250   9.217   7.348
 4242POPC   NC355223  16.895  23.958   5.329
 4242POPC   PO455224  16.446  23.508   5.176
 4242POPC   GL155225  16.500  23.799   5.678
 4242POPC   GL255226  16.841  23.969   5.824
 4242POPC   C1A55227  16.653  23.613   6.121
 4242POPC   D2A55228  16.595  23.653   6.532
 4242POPC   C3A55229  16.674  23.594   6.966
 4242POPC   C4A55230  16.681  23.273   7.311
 4242POPC   C1B55231  17.040  23.911   6.252
 4242POPC   C2B55232  17.075  23.839   6.702
 4242POPC   C3B55233  16.981  23.995   7.120
 4242POPC   C4B55234  16.881  24.056   7.550
 4243POPC   NC355235  11.966   6.349   5.224
 4243POPC   PO455236  11.650   6.841   5.408
 4243POPC   GL155237  11.650   6.755   5.865
 4243POPC   GL255238  11.733   6.414   5.893
 4243POPC   C1A55239  11.840   6.726   6.309
 4243POPC   D2A55240  12.062   6.565   6.701
 4243POPC   C3A55241  12.006   6.796   7.125
 4243POPC   C4A55242  12.210   6.956   7.519
 4243POPC   C1B55243  11.762   6.202   6.346
 4243POPC   C2B55244  11.818   6.107   6.811
 4243POPC   C3B55245  12.102   6.287   7.137
 4243POPC   C4B55246  12.018   6.460   7.531
 4244POPC   NC355247  22.518   0.965   5.428
 4244POPC   PO455248  23.191   0.951   5.401
 4244POPC   GL155249  23.056   1.094   5.784
 4244POPC   GL255250  22.766   1.305   5.747
 4244POPC   C1A55251  23.090   1.090   6.215
 4244POPC   D2A55252  22.949   1.340   6.527
 4244POPC   C3A55253  23.177   1.268   6.884
 4244POPC   C4A55254  23.029   1.391   7.248
 4244POPC   C1B55255  22.585   1.300   6.157
 4244POPC   C2B55256  22.456   1.151   6.557
 4244POPC   C3B55257  22.640   1.237   6.933
 4244POPC   C4B55258  22.455   1.099   7.266
 4245POPC   NC355259  31.990   3.654   5.436
 4245POPC   PO455260  32.708   3.442   5.431
 4245POPC   GL155261  32.551   3.341   5.823
 4245POPC   GL255262  32.194   3.308   5.768
 4245POPC   C1A55263  32.479   3.559   6.229
 4245POPC   D2A55264  32.555   3.893   6.563
 4245POPC   C3A55265  32.478   3.679   6.961
 4245POPC   C4A55266  32.586   3.265   7.099
 4245POPC   C1B55267  31.922   3.185   6.119
 4245POPC   C2B55268  31.942   3.232   6.541
 4245POPC   C3B55269  32.116   3.146   6.935
 4245POPC   C4B55270  32.145   3.412   7.289
 4246POPC   NC355271  33.437  21.971   5.084
 4246POPC   PO455272  34.058  22.184   5.262
 4246POPC   GL155273  33.837  22.138   5.658
 4246POPC   GL255274  33.570  21.863   5.589
 4246POPC   C1A55275  33.807  22.342   6.104
 4246POPC   D2A55276  33.824  22.491   6.545
 4246POPC   C3A55277  33.633  22.290   6.928
 4246POPC   C4A55278  33.795  22.338   7.360
 4246POPC   C1B55279  33.651  21.869   6.042
 4246POPC   C2B55280  33.743  21.963   6.478
 4246POPC   C3B55281  33.947  21.910   6.853
 4246POPC   C4B55282  33.728  21.837   7.253
 4247POPC   NC355283  24.203  18.474   5.451
 4247POPC   PO455284  24.853  18.168   5.228
 4247POPC   GL155285  24.597  18.163   5.639
 4247POPC   GL255286  24.558  18.479   5.823
 4247POPC   C1A55287  24.466  18.057   6.103
 4247POPC   D2A55288  24.599  18.233   6.523
 4247POPC   C3A55289  24.466  18.248   6.978
 4247POPC   C4A55290  24.673  18.044   7.308
 4247POPC   C1B55291  24.641  18.699   6.241
 4247POPC   C2B55292  24.512  18.716   6.690
 4247POPC   C3B55293  24.715  18.685   7.088
 4247POPC   C4B55294  24.932  18.534   7.456
 4248POPC   NC355295  14.852   2.125   5.406
 4248POPC   PO455296  15.408   1.676   5.353
 4248POPC   GL155297  15.252   1.817   5.765
 4248POPC   GL255298  15.196   2.173   5.806
 4248POPC   C1A55299  15.130   1.865   6.207
 4248POPC   D2A55300  15.172   2.154   6.549
 4248POPC   C3A55301  15.245   1.887   6.909
 4248POPC   C4A55302  15.210   1.815   7.340
 4248POPC   C1B55303  14.873   2.335   6.135
 4248POPC   C2B55304  14.683   2.291   6.559
 4248POPC   C3B55305  14.879   2.252   6.977
 4248POPC   C4B55306  14.951   2.228   7.456
 4249POPC   NC355307   1.844  20.493   5.331
 4249POPC   PO455308   2.392  20.236   5.637
 4249POPC   GL155309   2.042  20.499   5.813
 4249POPC   GL255310   1.651  20.421   5.811
 4249POPC   C1A55311   2.014  20.620   6.251
 4249POPC   D2A55312   1.993  20.740   6.699
 4249POPC   C3A55313   2.174  20.513   7.090
 4249POPC   C4A55314   2.313  20.773   7.485
 4249POPC   C1B55315   1.518  20.620   6.215
 4249POPC   C2B55316   1.476  20.571   6.662
 4249POPC   C3B55317   1.662  20.679   7.077
 4249POPC   C4B55318   1.822  20.540   7.455
 4250POPC   NC355319  10.195  44.733   5.408
 4250POPC   PO455320   9.688  44.281   5.300
 4250POPC   GL155321   9.687  44.623   5.670
 4250POPC   GL255322   9.983  44.719   5.853
 4250POPC   C1A55323   9.565  44.759   6.136
 4250POPC   D2A55324   9.564  44.518   6.540
 4250POPC   C3A55325   9.607  44.672   6.955
 4250POPC   C4A55326   9.536   0.066   7.144
 4250POPC   C1B55327  10.020  44.540   6.232
 4250POPC   C2B55328  10.084  44.643   6.644
 4250POPC   C3B55329  10.090  44.457   6.996
 4250POPC   C4B55330  10.084  44.458   7.408
 4251POPC   NC355331   3.429  20.025   5.300
 4251POPC   PO455332   3.566  19.307   5.248
 4251POPC   GL155333   3.505  19.593   5.687
 4251POPC   GL255334   3.694  19.939   5.758
 4251POPC   C1A55335   3.528  19.719   6.186
 4251POPC   D2A55336   3.788  19.801   6.600
 4251POPC   C3A55337   3.741  19.697   7.056
 4251POPC   C4A55338   3.377  19.548   7.294
 4251POPC   C1B55339   3.789  20.160   6.166
 4251POPC   C2B55340   3.440  20.214   6.471
 4251POPC   C3B55341   3.346  19.978   6.846
 4251POPC   C4B55342   3.490  20.070   7.269
 4252POPC   NC355343  31.659  18.482   5.439
 4252POPC   PO455344  31.006  18.186   5.340
 4252POPC   GL155345  31.277  18.139   5.672
 4252POPC   GL255346  31.271  18.502   5.784
 4252POPC   C1A55347  31.550  18.115   6.029
 4252POPC   D2A55348  31.530  18.003   6.448
 4252POPC   C3A55349  31.697  18.083   6.852
 4252POPC   C4A55350  31.547  18.031   7.266
 4252POPC   C1B55351  31.546  18.622   6.144
 4252POPC   C2B55352  31.573  18.519   6.578
 4252POPC   C3B55353  31.397  18.477   6.986
 4252POPC   C4B55354  31.738  18.510   7.238
 4253POPC   NC355355   3.924  19.314   5.547
 4253POPC   PO455356   3.399  18.849   5.462
 4253POPC   GL155357   3.558  18.797   5.855
 4253POPC   GL255358   3.637  19.134   5.927
 4253POPC   C1A55359   3.400  18.839   6.275
 4253POPC   D2A55360   3.633  18.884   6.648
 4253POPC   C3A55361   3.350  18.853   6.968
 4253POPC   C4A55362   3.287  19.027   7.375
 4253POPC   C1B55363   3.724  19.287   6.350
 4253POPC   C2B55364   3.513  19.355   6.766
 4253POPC   C3B55365   3.725  19.180   7.148
 4253POPC   C4B55366   3.784  19.322   7.582
 4254POPC   NC355367  26.794  15.661   5.438
 4254POPC   PO455368  27.029  16.305   5.439
 4254POPC   GL155369  26.914  16.035   5.816
 4254POPC   GL255370  26.586  15.959   5.858
 4254POPC   C1A55371  26.828  15.889   6.269
 4254POPC   D2A55372  27.056  15.935   6.626
 4254POPC   C3A55373  26.806  15.788   6.917
 4254POPC   C4A55374  26.986  15.969   7.244
 4254POPC   C1B55375  26.484  16.269   6.216
 4254POPC   C2B55376  26.604  16.443   6.616
 4254POPC   C3B55377  26.399  16.308   6.980
 4254POPC   C4B55378  26.481  15.996   7.261
 4255POPC   NC355379  19.153   8.121   5.272
 4255POPC   PO455380  18.501   8.080   5.387
 4255POPC   GL155381  18.829   8.203   5.727
 4255POPC   GL255382  19.185   8.174   5.771
 4255POPC   C1A55383  18.889   8.364   6.176
 4255POPC   D2A55384  18.804   8.521   6.610
 4255POPC   C3A55385  19.005   8.388   7.012
 4255POPC   C4A55386  18.960   8.108   7.386
 4255POPC   C1B55387  19.323   8.079   6.193
 4255POPC   C2B55388  19.115   8.088   6.591
 4255POPC   C3B55389  19.162   7.878   6.973
 4255POPC   C4B55390  19.266   7.706   7.366
 4256POPC   NC355391  35.262  27.900   5.468
 4256POPC   PO455392  35.764  27.383   5.454
 4256POPC   GL155393  35.511  27.545   5.804
 4256POPC   GL255394  35.625  27.898   5.884
 4256POPC   C1A55395  35.331  27.331   6.195
 4256POPC   D2A55396  35.560  27.126   6.544
 4256POPC   C3A55397  35.614  27.302   6.916
 4256POPC   C4A55398  35.313  27.608   7.053
 4256POPC   C1B55399  35.329  27.858   6.220
 4256POPC   C2B55400  35.107  27.871   6.615
 4256POPC   C3B55401  35.177  28.096   6.976
 4256POPC   C4B55402  35.511  28.089   7.241
 4257POPC   NC355403  40.640  23.239   5.500
 4257POPC   PO455404  41.084  22.749   5.441
 4257POPC   GL155405  40.864  22.845   5.797
 4257POPC   GL255406  40.972  23.171   5.872
 4257POPC   C1A55407  40.644  22.645   6.142
 4257POPC   D2A55408  40.448  22.798   6.513
 4257POPC   C3A55409  40.792  22.850   6.790
 4257POPC   C4A55410  40.807  22.714   7.231
 4257POPC   C1B55411  40.673  23.178   6.225
 4257POPC   C2B55412  40.486  23.332   6.634
 4257POPC   C3B55413  40.472  23.147   7.061
 4257POPC   C4B55414  40.704  23.158   7.479
 4258POPC   NC355415  19.810  20.396   5.388
 4258POPC   PO455416  20.398  20.554   5.671
 4258POPC   GL155417  19.960  20.688   5.931
 4258POPC   GL255418  19.587  20.908   5.983
 4258POPC   C1A55419  19.757  20.644   6.367
 4258POPC   D2A55420  19.863  20.850   6.741
 4258POPC   C3A55421  20.106  20.597   7.027
 4258POPC   C4A55422  20.115  20.884   7.326
 4258POPC   C1B55423  19.659  21.155   6.315
 4258POPC   C2B55424  19.376  21.026   6.614
 4258POPC   C3B55425  19.397  20.678   6.872
 4258POPC   C4B55426  19.649  20.633   7.244
 4259POPC   NC355427   4.771  20.804   5.396
 4259POPC   PO455428   4.111  20.590   5.393
 4259POPC   GL155429   4.406  20.568   5.763
 4259POPC   GL255430   4.447  20.921   5.876
 4259POPC   C1A55431   4.482  20.420   6.202
 4259POPC   D2A55432   4.616  20.701   6.569
 4259POPC   C3A55433   4.532  20.638   7.022
 4259POPC   C4A55434   4.522  20.250   7.240
 4259POPC   C1B55435   4.189  20.834   6.274
 4259POPC   C2B55436   4.153  20.844   6.757
 4259POPC   C3B55437   4.055  20.762   7.208
 4259POPC   C4B55438   4.047  21.039   7.596
 4260POPC   NC355439  30.325  29.383   5.487
 4260POPC   PO455440  29.679  29.421   5.479
 4260POPC   GL155441  29.925  29.257   5.811
 4260POPC   GL255442  29.976  28.904   5.789
 4260POPC   C1A55443  29.855  29.160   6.251
 4260POPC   D2A55444  29.771  29.395   6.623
 4260POPC   C3A55445  29.994  29.383   6.994
 4260POPC   C4A55446  29.835  29.032   7.181
 4260POPC   C1B55447  30.250  28.839   6.157
 4260POPC   C2B55448  30.088  28.815   6.573
 4260POPC   C3B55449  30.276  28.948   6.942
 4260POPC   C4B55450  30.388  29.136   7.332
 4261POPC   NC355451   8.969  13.150   5.201
 4261POPC   PO455452   8.947  12.560   5.526
 4261POPC   GL155453   9.122  12.692   5.872
 4261POPC   GL255454   8.943  13.013   5.798
 4261POPC   C1A55455   9.004  12.538   6.261
 4261POPC   D2A55456   8.927  12.716   6.630
 4261POPC   C3A55457   9.069  12.562   6.978
 4261POPC   C4A55458   9.223  12.812   7.294
 4261POPC   C1B55459   9.002  13.063   6.232
 4261POPC   C2B55460   9.135  13.241   6.622
 4261POPC   C3B55461   8.939  13.108   6.997
 4261POPC   C4B55462   8.834  13.073   7.449
 4262POPC   NC355463  12.340  18.563   5.373
 4262POPC   PO455464  11.879  18.078   5.419
 4262POPC   GL155465  12.177  18.214   5.738
 4262POPC   GL255466  11.902  18.395   5.894
 4262POPC   C1A55467  12.350  18.396   6.133
 4262POPC   D2A55468  12.176  18.465   6.567
 4262POPC   C3A55469  12.018  18.094   6.830
 4262POPC   C4A55470  12.131  18.042   7.278
 4262POPC   C1B55471  11.672  18.521   6.288
 4262POPC   C2B55472  11.682  18.511   6.751
 4262POPC   C3B55473  11.972  18.536   7.092
 4262POPC   C4B55474  11.935  18.449   7.517
 4263POPC   NC355475   6.392  18.455   5.487
 4263POPC   PO455476   5.743  18.175   5.496
 4263POPC   GL155477   5.844  18.451   5.857
 4263POPC   GL255478   6.197  18.441   5.959
 4263POPC   C1A55479   5.834  18.527   6.324
 4263POPC   D2A55480   5.684  18.687   6.734
 4263POPC   C3A55481   5.634  18.348   7.004
 4263POPC   C4A55482   6.048  18.414   7.150
 4263POPC   C1B55483   5.993  18.040   6.156
 4263POPC   C2B55484   5.881  17.889   6.591
 4263POPC   C3B55485   6.122  17.925   6.991
 4263POPC   C4B55486   6.153  17.970   7.440
 4264POPC   NC355487  24.701  17.080   5.448
 4264POPC   PO455488  24.378  16.485   5.495
 4264POPC   GL155489  24.450  16.648   5.907
 4264POPC   GL255490  24.790  16.847   5.907
 4264POPC   C1A55491  24.515  16.630   6.355
 4264POPC   D2A55492  24.710  16.744   6.742
 4264POPC   C3A55493  24.413  16.674   7.038
 4264POPC   C4A55494  24.301  16.534   7.439
 4264POPC   C1B55495  24.508  17.108   6.161
 4264POPC   C2B55496  24.347  17.093   6.583
 4264POPC   C3B55497  24.477  17.181   7.001
 4264POPC   C4B55498  24.351  17.045   7.401
 4265POPC   NC355499  13.680  14.881   5.661
 4265POPC   PO455500  13.948  15.483   5.462
 4265POPC   GL155501  13.704  15.402   5.843
 4265POPC   GL255502  13.856  15.122   6.056
 4265POPC   C1A55503  13.776  15.573   6.237
 4265POPC   D2A55504  14.005  15.475   6.582
 4265POPC   C3A55505  13.778  15.518   6.993
 4265POPC   C4A55506  13.528  15.179   7.234
 4265POPC   C1B55507  13.826  14.820   6.390
 4265POPC   C2B55508  13.872  14.787   6.842
 4265POPC   C3B55509  13.700  14.699   7.265
 4265POPC   C4B55510  13.746  14.935   7.658
 4266POPC   NC355511   9.562   0.490   5.569
 4266POPC   PO455512  10.067   0.205   5.249
 4266POPC   GL155513   9.986   0.238   5.747
 4266POPC   GL255514  10.234   0.407   5.957
 4266POPC   C1A55515   9.760   0.435   6.162
 4266POPC   D2A55516   9.742   0.679   6.536
 4266POPC   C3A55517   9.981   0.539   6.846
 4266POPC   C4A55518   9.842   0.462   7.232
 4266POPC   C1B55519  10.074   0.053   6.252
 4266POPC   C2B55520   9.846   0.076   6.665
 4266POPC   C3B55521  10.014  44.972   7.088
 4266POPC   C4B55522  10.086   0.138   7.533
 4267POPC   NC355523  34.881  35.631   5.599
 4267POPC   PO455524  34.342  35.348   5.307
 4267POPC   GL155525  34.386  35.472   5.745
 4267POPC   GL255526  34.440  35.123   5.832
 4267POPC   C1A55527  34.608  35.498   6.172
 4267POPC   D2A55528  34.780  35.800   6.482
 4267POPC   C3A55529  34.688  35.795   6.923
 4267POPC   C4A55530  34.833  35.544   7.269
 4267POPC   C1B55531  34.289  35.100   6.252
 4267POPC   C2B55532  34.397  35.366   6.615
 4267POPC   C3B55533  34.440  35.312   7.034
 4267POPC   C4B55534  34.245  35.012   7.317
 4268POPC   NC355535   8.395  35.699   5.447
 4268POPC   PO455536   7.970  36.287   5.429
 4268POPC   GL155537   8.267  36.110   5.736
 4268POPC   GL255538   8.052  35.891   5.783
 4268POPC   C1A55539   8.342  35.939   6.203
 4268POPC   D2A55540   8.592  35.899   6.600
 4268POPC   C3A55541   8.412  35.932   7.029
 4268POPC   C4A55542   8.517  36.249   7.333
 4268POPC   C1B55543   7.890  36.153   6.089
 4268POPC   C2B55544   7.941  36.149   6.541
 4268POPC   C3B55545   7.899  36.073   6.995
 4268POPC   C4B55546   8.053  36.084   7.452
 4269POPC   NC355547  12.081  33.316   5.292
 4269POPC   PO455548  12.137  32.667   5.283
 4269POPC   GL155549  12.074  32.894   5.673
 4269POPC   GL255550  12.414  32.880   5.684
 4269POPC   C1A55551  12.166  32.955   6.144
 4269POPC   D2A55552  12.002  33.244   6.466
 4269POPC   C3A55553  12.146  33.368   6.875
 4269POPC   C4A55554  12.147  33.123   7.220
 4269POPC   C1B55555  12.532  32.631   6.024
 4269POPC   C2B55556  12.522  32.572   6.460
 4269POPC   C3B55557  12.564  32.570   6.886
 4269POPC   C4B55558  12.399  32.657   7.282
 4270POPC   NC355559  26.007  30.864   5.414
 4270POPC   PO455560  26.389  30.326   5.295
 4270POPC   GL155561  26.276  30.443   5.728
 4270POPC   GL255562  26.297  30.780   5.791
 4270POPC   C1A55563  26.093  30.532   6.167
 4270POPC   D2A55564  25.864  30.806   6.464
 4270POPC   C3A55565  25.878  30.685   6.908
 4270POPC   C4A55566  26.195  30.692   7.238
 4270POPC   C1B55567  26.191  31.043   6.133
 4270POPC   C2B55568  26.137  31.255   6.510
 4270POPC   C3B55569  26.196  31.147   6.929
 4270POPC   C4B55570  25.917  31.124   7.222
 4271POPC   NC355571   7.738  19.735   5.326
 4271POPC   PO455572   7.390  20.199   5.690
 4271POPC   GL155573   7.619  19.848   5.828
 4271POPC   GL255574   7.336  19.609   5.836
 4271POPC   C1A55575   7.637  19.729   6.248
 4271POPC   D2A55576   7.344  19.640   6.600
 4271POPC   C3A55577   7.500  19.819   6.968
 4271POPC   C4A55578   7.411  19.962   7.387
 4271POPC   C1B55579   7.098  19.822   6.192
 4271POPC   C2B55580   7.153  20.116   6.569
 4271POPC   C3B55581   7.016  20.049   7.007
 4271POPC   C4B55582   6.904  19.941   7.451
 4272POPC   NC355583   6.125  32.883   5.662
 4272POPC   PO455584   6.676  33.230   5.364
 4272POPC   GL155585   6.627  33.099   5.770
 4272POPC   GL255586   6.343  33.285   5.861
 4272POPC   C1A55587   6.872  33.013   6.150
 4272POPC   D2A55588   6.769  32.824   6.524
 4272POPC   C3A55589   6.846  33.003   6.901
 4272POPC   C4A55590   6.941  32.884   7.322
 4272POPC   C1B55591   6.372  33.080   6.266
 4272POPC   C2B55592   6.330  33.043   6.702
 4272POPC   C3B55593   6.397  32.858   7.081
 4272POPC   C4B55594   6.215  32.968   7.452
 4273POPC   NC355595  43.172  16.704   5.594
 4273POPC   PO455596  43.614  16.194   5.481
 4273POPC   GL155597  43.395  16.395   5.924
 4273POPC   GL255598  43.008  16.498   6.018
 4273POPC   C1A55599  43.331  16.810   6.227
 4273POPC   D2A55600  43.214  16.813   6.680
 4273POPC   C3A55601  43.455  16.555   6.964
 4273POPC   C4A55602  43.569  16.582   7.400
 4273POPC   C1B55603  42.854  16.726   6.340
 4273POPC   C2B55604  42.924  16.376   6.641
 4273POPC   C3B55605  42.966  16.493   7.051
 4273POPC   C4B55606  42.929  16.913   7.223
 4274POPC   NC355607  35.781  41.953   5.567
 4274POPC   PO455608  36.441  41.808   5.296
 4274POPC   GL155609  36.275  41.752   5.753
 4274POPC   GL255610  36.221  41.389   5.891
 4274POPC   C1A55611  36.112  41.784   6.193
 4274POPC   D2A55612  36.217  41.531   6.578
 4274POPC   C3A55613  36.217  41.686   7.008
 4274POPC   C4A55614  36.246  41.962   7.384
 4274POPC   C1B55615  35.943  41.269   6.233
 4274POPC   C2B55616  35.772  41.272   6.645
 4274POPC   C3B55617  35.902  41.049   6.989
 4274POPC   C4B55618  35.898  41.166   7.413
 4275POPC   NC355619  37.386   6.131   5.486
 4275POPC   PO455620  37.832   5.709   5.491
 4275POPC   GL155621  37.628   5.848   5.846
 4275POPC   GL255622  37.793   6.141   5.810
 4275POPC   C1A55623  37.587   5.748   6.283
 4275POPC   D2A55624  37.410   5.894   6.651
 4275POPC   C3A55625  37.687   5.751   6.954
 4275POPC   C4A55626  37.571   5.546   7.326
 4275POPC   C1B55627  38.041   5.972   6.119
 4275POPC   C2B55628  38.031   5.910   6.549
 4275POPC   C3B55629  38.043   6.148   6.922
 4275POPC   C4B55630  37.732   6.151   7.256
 4276POPC   NC355631   0.817  16.472   5.364
 4276POPC   PO455632   0.322  16.853   4.998
 4276POPC   GL155633   0.362  16.696   5.495
 4276POPC   GL255634   0.337  17.012   5.722
 4276POPC   C1A55635   0.389  16.544   5.958
 4276POPC   D2A55636   0.175  16.581   6.361
 4276POPC   C3A55637   0.416  16.457   6.758
 4276POPC   C4A55638   0.299  16.523   7.184
 4276POPC   C1B55639   0.577  17.007   6.134
 4276POPC   C2B55640   0.489  16.929   6.558
 4276POPC   C3B55641   0.656  16.876   6.970
 4276POPC   C4B55642   0.788  17.166   7.272
 4277POPC   NC355643   0.912  34.638   5.383
 4277POPC   PO455644   1.565  34.920   5.396
 4277POPC   GL155645   1.528  34.697   5.779
 4277POPC   GL255646   1.215  34.515   5.790
 4277POPC   C1A55647   1.529  34.549   6.204
 4277POPC   D2A55648   1.361  34.294   6.529
 4277POPC   C3A55649   1.461  34.349   6.942
 4277POPC   C4A55650   1.190  34.356   7.271
 4277POPC   C1B55651   0.982  34.508   6.194
 4277POPC   C2B55652   1.029  34.697   6.592
 4277POPC   C3B55653   0.873  34.622   6.980
 4277POPC   C4B55654   0.813  34.722   7.383
 4278POPC   NC355655  20.133  17.801   5.305
 4278POPC   PO455656  19.826  17.335   5.394
 4278POPC   GL155657  20.189  17.462   5.698
 4278POPC   GL255658  20.340  17.179   5.851
 4278POPC   C1A55659  20.300  17.621   6.166
 4278POPC   D2A55660  20.155  17.693   6.658
 4278POPC   C3A55661  19.785  17.463   6.917
 4278POPC   C4A55662  19.738  17.425   7.405
 4278POPC   C1B55663  20.343  17.133   6.323
 4278POPC   C2B55664  20.241  17.203   6.768
 4278POPC   C3B55665  20.230  17.450   7.152
 4278POPC   C4B55666  20.206  17.283   7.592
 4279POPC   NC355667  33.304  30.664   5.366
 4279POPC   PO455668  32.665  30.445   5.349
 4279POPC   GL155669  32.931  30.613   5.725
 4279POPC   GL255670  33.202  30.884   5.843
 4279POPC   C1A55671  33.065  30.450   6.142
 4279POPC   D2A55672  32.842  30.624   6.510
 4279POPC   C3A55673  32.905  30.534   6.937
 4279POPC   C4A55674  32.851  30.859   7.243
 4279POPC   C1B55675  33.221  30.909   6.310
 4279POPC   C2B55676  33.351  30.654   6.686
 4279POPC   C3B55677  33.360  30.750   7.143
 4279POPC   C4B55678  33.355  30.743   7.595
 4280POPC   NC355679  36.164   2.675   5.361
 4280POPC   PO455680  35.811   3.223   5.398
 4280POPC   GL155681  35.948   2.896   5.762
 4280POPC   GL255682  35.920   2.528   5.806
 4280POPC   C1A55683  36.344   2.659   6.056
 4280POPC   D2A55684  36.486   2.853   6.485
 4280POPC   C3A55685  36.478   2.672   6.922
 4280POPC   C4A55686  36.306   2.840   7.306
 4280POPC   C1B55687  35.894   2.746   6.244
 4280POPC   C2B55688  36.006   2.612   6.667
 4280POPC   C3B55689  35.894   2.649   7.102
 4280POPC   C4B55690  35.679   2.397   7.391
 4281POPC   NC355691  25.461  39.291   5.369
 4281POPC   PO455692  24.977  39.689   5.500
 4281POPC   GL155693  25.265  39.443   5.799
 4281POPC   GL255694  25.631  39.593   5.746
 4281POPC   C1A55695  25.172  39.224   6.204
 4281POPC   D2A55696  24.960  39.402   6.580
 4281POPC   C3A55697  24.918  39.226   7.027
 4281POPC   C4A55698  25.130  39.167   7.415
 4281POPC   C1B55699  25.658  39.407   6.145
 4281POPC   C2B55700  25.589  39.241   6.556
 4281POPC   C3B55701  25.417  39.311   6.960
 4281POPC   C4B55702  25.433  39.566   7.335
 4282POPC   NC355703  34.064  32.735   5.366
 4282POPC   PO455704  33.860  33.411   5.363
 4282POPC   GL155705  33.837  33.111   5.686
 4282POPC   GL255706  34.168  33.117   5.763
 4282POPC   C1A55707  33.650  33.064   6.104
 4282POPC   D2A55708  33.828  33.101   6.535
 4282POPC   C3A55709  33.594  33.139   6.898
 4282POPC   C4A55710  33.580  32.886   7.247
 4282POPC   C1B55711  34.155  32.930   6.179
 4282POPC   C2B55712  34.297  32.899   6.630
 4282POPC   C3B55713  34.179  32.920   7.073
 4282POPC   C4B55714  34.008  32.634   7.383
 4283POPC   NC355715  20.046  35.207   5.431
 4283POPC   PO455716  19.597  35.691   5.464
 4283POPC   GL155717  19.771  35.465   5.750
 4283POPC   GL255718  20.119  35.611   5.737
 4283POPC   C1A55719  19.944  35.236   6.087
 4283POPC   D2A55720  19.958  35.422   6.472
 4283POPC   C3A55721  19.818  35.322   6.890
 4283POPC   C4A55722  20.085  35.218   7.211
 4283POPC   C1B55723  20.306  35.671   6.142
 4283POPC   C2B55724  20.368  35.702   6.598
 4283POPC   C3B55725  20.110  35.756   6.989
 4283POPC   C4B55726  19.960  35.651   7.417
 4284POPC   NC355727   6.972  38.668   5.234
 4284POPC   PO455728   6.840  38.088   5.536
 4284POPC   GL155729   6.701  38.508   5.699
 4284POPC   GL255730   6.767  38.333   5.988
 4284POPC   C1A55731   6.384  38.719   6.027
 4284POPC   D2A55732   6.317  38.915   6.466
 4284POPC   C3A55733   6.575  38.749   6.788
 4284POPC   C4A55734   6.870  38.792   7.104
 4284POPC   C1B55735   6.622  38.418   6.380
 4284POPC   C2B55736   6.510  38.226   6.749
 4284POPC   C3B55737   6.683  38.303   7.143
 4284POPC   C4B55738   6.608  38.088   7.514
 4285POPC   NC355739  38.290  18.209   5.154
 4285POPC   PO455740  38.750  18.579   5.468
 4285POPC   GL155741  38.513  18.192   5.659
 4285POPC   GL255742  38.162  18.209   5.770
 4285POPC   C1A55743  38.547  18.091   6.116
 4285POPC   D2A55744  38.600  18.321   6.527
 4285POPC   C3A55745  38.359  18.165   6.883
 4285POPC   C4A55746  38.401  18.168   7.319
 4285POPC   C1B55747  38.161  18.449   6.193
 4285POPC   C2B55748  38.160  18.594   6.623
 4285POPC   C3B55749  38.001  18.532   7.045
 4285POPC   C4B55750  38.188  18.603   7.433
 4286POPC   NC355751  36.720  36.956   5.525
 4286POPC   PO455752  37.363  36.752   5.468
 4286POPC   GL155753  37.189  36.966   5.829
 4286POPC   GL255754  37.119  37.315   5.774
 4286POPC   C1A55755  36.969  36.791   6.207
 4286POPC   D2A55756  37.066  36.685   6.628
 4286POPC   C3A55757  36.907  36.841   6.998
 4286POPC   C4A55758  36.952  36.743   7.451
 4286POPC   C1B55759  36.789  37.254   6.120
 4286POPC   C2B55760  36.772  37.134   6.536
 4286POPC   C3B55761  36.604  37.267   6.884
 4286POPC   C4B55762  36.681  37.182   7.290
 4287POPC   NC355763  11.510  17.787   5.431
 4287POPC   PO455764  11.064  17.381   5.240
 4287POPC   GL155765  11.199  17.467   5.695
 4287POPC   GL255766  11.495  17.347   5.857
 4287POPC   C1A55767  11.164  17.630   6.160
 4287POPC   D2A55768  10.992  17.566   6.603
 4287POPC   C3A55769  11.076  17.671   7.057
 4287POPC   C4A55770  11.175  17.230   7.197
 4287POPC   C1B55771  11.684  17.615   6.168
 4287POPC   C2B55772  11.518  17.742   6.566
 4287POPC   C3B55773  11.560  17.612   6.977
 4287POPC   C4B55774  11.752  17.650   7.346
 4288POPC   NC355775  16.212  22.807   5.471
 4288POPC   PO455776  15.625  22.964   5.349
 4288POPC   GL155777  15.763  22.897   5.751
 4288POPC   GL255778  15.882  22.570   5.787
 4288POPC   C1A55779  15.888  22.948   6.180
 4288POPC   D2A55780  15.887  23.183   6.560
 4288POPC   C3A55781  15.707  23.054   6.914
 4288POPC   C4A55782  15.784  23.021   7.330
 4288POPC   C1B55783  16.131  22.494   6.181
 4288POPC   C2B55784  16.073  22.707   6.603
 4288POPC   C3B55785  15.983  22.587   7.031
 4288POPC   C4B55786  16.368  22.454   7.218
 4289POPC   NC355787  30.702  42.622   5.398
 4289POPC   PO455788  30.879  43.244   5.453
 4289POPC   GL155789  30.931  43.004   5.847
 4289POPC   GL255790  30.639  42.821   5.876
 4289POPC   C1A55791  30.908  43.131   6.291
 4289POPC   D2A55792  30.615  43.223   6.617
 4289POPC   C3A55793  30.785  43.333   6.997
 4289POPC   C4A55794  30.522  43.207   7.291
 4289POPC   C1B55795  30.902  42.633   6.221
 4289POPC   C2B55796  30.719  42.719   6.609
 4289POPC   C3B55797  30.486  42.707   6.990
 4289POPC   C4B55798  30.769  42.764   7.309
 4290POPC   NC355799  43.646  15.719   5.411
 4290POPC   PO455800  43.732  14.993   5.419
 4290POPC   GL155801  43.919  15.079   5.775
 4290POPC   GL255802  43.979  15.440   5.775
 4290POPC   C1A55803  43.854  15.134   6.194
 4290POPC   D2A55804  44.067  15.078   6.566
 4290POPC   C3A55805  43.805  15.119   6.917
 4290POPC   C4A55806  43.798  14.856   7.304
 4290POPC   C1B55807  43.933  15.641   6.193
 4290POPC   C2B55808  43.776  15.719   6.603
 4290POPC   C3B55809  43.927  15.624   7.001
 4290POPC   C4B55810  43.969  15.366   7.327
 4291POPC   NC355811   4.092  34.966   5.476
 4291POPC   PO455812   4.590  34.533   5.339
 4291POPC   GL155813   4.424  34.669   5.755
 4291POPC   GL255814   4.476  34.407   6.018
 4291POPC   C1A55815   4.072  34.678   6.118
 4291POPC   D2A55816   4.196  34.455   6.501
 4291POPC   C3A55817   4.074  34.612   6.898
 4291POPC   C4A55818   4.114  34.884   7.212
 4291POPC   C1B55819   4.540  34.836   6.233
 4291POPC   C2B55820   4.740  34.860   6.633
 4291POPC   C3B55821   4.579  34.715   7.053
 4291POPC   C4B55822   4.495  34.751   7.502
 4292POPC   NC355823  18.875  36.421   5.282
 4292POPC   PO455824  18.489  35.962   5.294
 4292POPC   GL155825  18.328  36.047   5.725
 4292POPC   GL255826  18.117  36.353   5.833
 4292POPC   C1A55827  18.413  35.958   6.165
 4292POPC   D2A55828  18.196  35.764   6.527
 4292POPC   C3A55829  18.212  35.914   6.964
 4292POPC   C4A55830  18.163  36.032   7.399
 4292POPC   C1B55831  17.963  36.186   6.258
 4292POPC   C2B55832  17.896  36.239   6.722
 4292POPC   C3B55833  17.739  36.160   7.164
 4292POPC   C4B55834  17.613  36.177   7.627
 4293POPC   NC355835  33.030  36.971   5.402
 4293POPC   PO455836  32.739  36.468   5.479
 4293POPC   GL155837  32.986  36.674   5.834
 4293POPC   GL255838  33.186  37.011   5.871
 4293POPC   C1A55839  33.042  36.549   6.266
 4293POPC   D2A55840  32.926  36.358   6.665
 4293POPC   C3A55841  32.705  36.640   6.920
 4293POPC   C4A55842  32.764  36.943   7.187
 4293POPC   C1B55843  32.965  37.079   6.265
 4293POPC   C2B55844  33.048  36.949   6.697
 4293POPC   C3B55845  33.354  36.955   7.048
 4293POPC   C4B55846  33.238  37.012   7.471
 4294POPC   NC355847  11.494  14.449   5.494
 4294POPC   PO455848  11.001  14.095   5.255
 4294POPC   GL155849  11.246  14.143   5.763
 4294POPC   GL255850  11.139  14.507   5.859
 4294POPC   C1A55851  11.449  14.262   6.183
 4294POPC   D2A55852  11.535  14.341   6.632
 4294POPC   C3A55853  11.147  14.429   6.832
 4294POPC   C4A55854  10.910  14.529   7.151
 4294POPC   C1B55855  11.303  14.798   6.153
 4294POPC   C2B55856  11.263  14.848   6.577
 4294POPC   C3B55857  11.539  14.842   6.922
 4294POPC   C4B55858  11.403  14.642   7.272
 4295POPC   NC355859  13.755  37.412   5.370
 4295POPC   PO455860  13.579  37.946   5.434
 4295POPC   GL155861  13.610  37.777   5.838
 4295POPC   GL255862  13.394  37.453   5.799
 4295POPC   C1A55863  13.670  38.072   6.230
 4295POPC   D2A55864  13.765  38.199   6.660
 4295POPC   C3A55865  13.747  37.889   6.982
 4295POPC   C4A55866  13.505  37.580   7.186
 4295POPC   C1B55867  13.426  37.501   6.265
 4295POPC   C2B55868  13.623  37.439   6.687
 4295POPC   C3B55869  13.707  37.111   7.023
 4295POPC   C4B55870  13.527  37.139   7.445
 4296POPC   NC355871  14.378  40.958   5.268
 4296POPC   PO455872  14.512  40.231   5.224
 4296POPC   GL155873  14.556  40.472   5.739
 4296POPC   GL255874  14.576  40.859   5.741
 4296POPC   C1A55875  14.314  40.623   6.145
 4296POPC   D2A55876  14.385  40.716   6.596
 4296POPC   C3A55877  14.121  40.694   6.985
 4296POPC   C4A55878  14.405  40.794   7.357
 4296POPC   C1B55879  14.655  41.017   6.173
 4296POPC   C2B55880  14.800  41.024   6.615
 4296POPC   C3B55881  14.843  40.843   7.048
 4296POPC   C4B55882  14.903  40.857   7.538
 4297POPC   NC355883  11.095  43.914   5.157
 4297POPC   PO455884  11.623  43.591   5.515
 4297POPC   GL155885  11.285  43.823   5.773
 4297POPC   GL255886  10.955  44.011   5.837
 4297POPC   C1A55887  11.293  43.946   6.219
 4297POPC   D2A55888  11.387  43.661   6.544
 4297POPC   C3A55889  11.205  43.670   6.919
 4297POPC   C4A55890  11.403  43.899   7.235
 4297POPC   C1B55891  10.925  44.313   6.207
 4297POPC   C2B55892  11.096  44.258   6.629
 4297POPC   C3B55893  10.940  44.085   7.009
 4297POPC   C4B55894  10.956  44.175   7.439
 4298POPC   NC355895  28.586  28.103   5.565
 4298POPC   PO455896  28.185  28.580   5.675
 4298POPC   GL155897  28.355  28.322   5.977
 4298POPC   GL255898  28.640  28.452   5.948
 4298POPC   C1A55899  28.364  28.312   6.407
 4298POPC   D2A55900  28.248  28.460   6.801
 4298POPC   C3A55901  28.265  28.121   7.072
 4298POPC   C4A55902  28.087  28.219   7.477
 4298POPC   C1B55903  28.825  28.711   6.216
 4298POPC   C2B55904  28.645  28.732   6.611
 4298POPC   C3B55905  28.778  28.631   7.030
 4298POPC   C4B55906  28.439  28.538   7.302
 4299POPC   NC355907  10.312   8.750   5.188
 4299POPC   PO455908  10.789   9.153   5.106
 4299POPC   GL155909  10.513   9.033   5.555
 4299POPC   GL255910  10.621   8.691   5.616
 4299POPC   C1A55911  10.506   9.127   6.048
 4299POPC   D2A55912  10.747   9.371   6.372
 4299POPC   C3A55913  10.529   9.314   6.771
 4299POPC   C4A55914  10.577   9.158   7.185
 4299POPC   C1B55915  10.417   8.624   6.014
 4299POPC   C2B55916  10.401   8.662   6.480
 4299POPC   C3B55917  10.372   8.785   6.924
 4299POPC   C4B55918  10.217   8.576   7.327
 4300POPC   NC355919  18.034  21.135   5.415
 4300POPC   PO455920  18.690  21.394   5.454
 4300POPC   GL155921  18.456  21.521   5.862
 4300POPC   GL255922  18.089  21.661   5.835
 4300POPC   C1A55923  18.558  21.585   6.300
 4300POPC   D2A55924  18.534  21.520   6.766
 4300POPC   C3A55925  18.129  21.420   6.902
 4300POPC   C4A55926  17.896  21.381   7.238
 4300POPC   C1B55927  18.076  21.372   6.228
 4300POPC   C2B55928  17.960  21.070   6.594
 4300POPC   C3B55929  18.119  20.938   7.049
 4300POPC   C4B55930  18.033  20.985   7.528
 4301POPC   NC355931  28.366   4.344   5.358
 4301POPC   PO455932  28.109   3.749   5.279
 4301POPC   GL155933  28.255   4.010   5.730
 4301POPC   GL255934  28.129   4.326   5.832
 4301POPC   C1A55935  28.403   4.112   6.196
 4301POPC   D2A55936  28.496   4.366   6.595
 4301POPC   C3A55937  28.414   4.191   7.021
 4301POPC   C4A55938  28.349   4.136   7.487
 4301POPC   C1B55939  28.068   4.510   6.239
 4301POPC   C2B55940  27.780   4.609   6.549
 4301POPC   C3B55941  28.011   4.530   6.904
 4301POPC   C4B55942  28.042   4.479   7.321
 4302POPC   NC355943  16.929  20.853   4.863
 4302POPC   PO455944  16.703  20.332   5.175
 4302POPC   GL155945  16.659  20.465   5.688
 4302POPC   GL255946  16.574  20.830   5.759
 4302POPC   C1A55947  16.521  20.444   6.170
 4302POPC   D2A55948  16.432  20.691   6.599
 4302POPC   C3A55949  16.632  20.502   7.011
 4302POPC   C4A55950  16.546  20.315   7.452
 4302POPC   C1B55951  16.742  20.895   6.215
 4302POPC   C2B55952  16.873  20.947   6.683
 4302POPC   C3B55953  16.668  20.997   7.107
 4302POPC   C4B55954  16.724  20.789   7.497
 4303POPC   NC355955  28.283  13.875   5.725
 4303POPC   PO455956  28.570  13.442   5.395
 4303POPC   GL155957  28.443  13.297   5.775
 4303POPC   GL255958  28.126  13.401   5.844
 4303POPC   C1A55959  28.576  13.484   6.170
 4303POPC   D2A55960  28.591  13.741   6.551
 4303POPC   C3A55961  28.293  13.788   6.875
 4303POPC   C4A55962  28.572  14.021   7.133
 4303POPC   C1B55963  28.074  13.235   6.269
 4303POPC   C2B55964  27.996  13.275   6.702
 4303POPC   C3B55965  28.259  13.265   7.056
 4303POPC   C4B55966  28.163  13.316   7.482
 4304POPC   NC355967  23.186  40.150   5.553
 4304POPC   PO455968  23.637  40.102   5.055
 4304POPC   GL155969  23.665  40.057   5.577
 4304POPC   GL255970  23.622  39.720   5.654
 4304POPC   C1A55971  23.764  40.065   6.039
 4304POPC   D2A55972  24.024  40.030   6.412
 4304POPC   C3A55973  23.834  40.055   6.830
 4304POPC   C4A55974  23.624  40.168   7.183
 4304POPC   C1B55975  23.614  39.576   6.108
 4304POPC   C2B55976  23.715  39.642   6.526
 4304POPC   C3B55977  23.595  39.608   6.941
 4304POPC   C4B55978  23.717  39.703   7.346
 4305POPC   NC355979  28.497  29.915   5.239
 4305POPC   PO455980  28.840  30.237   5.757
 4305POPC   GL155981  28.478  30.006   5.968
 4305POPC   GL255982  28.210  29.849   5.776
 4305POPC   C1A55983  28.367  30.063   6.409
 4305POPC   D2A55984  28.667  30.159   6.723
 4305POPC   C3A55985  28.573  30.139   7.148
 4305POPC   C4A55986  28.695  29.809   7.401
 4305POPC   C1B55987  28.043  29.595   6.137
 4305POPC   C2B55988  28.090  29.653   6.582
 4305POPC   C3B55989  28.017  29.453   6.965
 4305POPC   C4B55990  28.104  29.793   7.240
 4306POPC   NC355991  41.822  12.212   5.492
 4306POPC   PO455992  42.489  12.232   5.512
 4306POPC   GL155993  42.466  12.037   5.875
 4306POPC   GL255994  42.122  12.036   5.873
 4306POPC   C1A55995  42.396  12.035   6.313
 4306POPC   D2A55996  42.672  11.963   6.620
 4306POPC   C3A55997  42.536  12.142   6.968
 4306POPC   C4A55998  42.609  11.981   7.356
 4306POPC   C1B55999  41.965  11.775   6.185
 4306POPC   C2B56000  41.795  11.841   6.572
 4306POPC   C3B56001  41.845  11.776   7.002
 4306POPC   C4B56002  42.112  12.042   7.235
 4307POPC   NC356003   5.079  32.519   5.076
 4307POPC   PO456004   4.998  32.014   5.587
 4307POPC   GL156005   5.100  32.211   5.903
 4307POPC   GL256006   5.041  32.539   5.744
 4307POPC   C1A56007   5.034  32.123   6.330
 4307POPC   D2A56008   5.189  32.113   6.720
 4307POPC   C3A56009   4.850  32.067   6.963
 4307POPC   C4A56010   4.896  31.904   7.361
 4307POPC   C1B56011   5.184  32.602   6.195
 4307POPC   C2B56012   5.038  32.607   6.634
 4307POPC   C3B56013   5.076  32.501   7.101
 4307POPC   C4B56014   5.281  32.488   7.520
 4308POPC   NC356015  10.754  43.057   5.172
 4308POPC   PO456016  10.164  43.178   5.469
 4308POPC   GL156017  10.451  43.266   5.793
 4308POPC   GL256018  10.747  43.056   5.695
 4308POPC   C1A56019  10.528  43.392   6.239
 4308POPC   D2A56020  10.617  43.093   6.594
 4308POPC   C3A56021  10.410  43.196   7.011
 4308POPC   C4A56022  10.392  43.245   7.495
 4308POPC   C1B56023  10.933  43.073   6.109
 4308POPC   C2B56024  11.181  43.083   6.484
 4308POPC   C3B56025  11.027  43.162   6.890
 4308POPC   C4B56026  10.851  43.209   7.283
 4309POPC   NC356027  26.724  30.585   5.468
 4309POPC   PO456028  26.497  31.185   5.465
 4309POPC   GL156029  26.750  30.965   5.833
 4309POPC   GL256030  27.077  30.833   5.747
 4309POPC   C1A56031  26.600  30.704   6.206
 4309POPC   D2A56032  26.373  30.783   6.611
 4309POPC   C3A56033  26.628  30.834   7.014
 4309POPC   C4A56034  26.550  30.987   7.473
 4309POPC   C1B56035  27.044  30.457   6.026
 4309POPC   C2B56036  26.874  30.279   6.392
 4309POPC   C3B56037  26.881  30.287   6.838
 4309POPC   C4B56038  27.124  30.572   7.123
 4310POPC   NC356039  15.286  41.368   5.348
 4310POPC   PO456040  15.050  42.018   5.349
 4310POPC   GL156041  15.059  41.756   5.722
 4310POPC   GL256042  15.372  41.656   5.781
 4310POPC   C1A56043  14.921  41.919   6.156
 4310POPC   D2A56044  14.982  41.819   6.600
 4310POPC   C3A56045  14.814  41.491   6.846
 4310POPC   C4A56046  14.964  41.621   7.216
 4310POPC   C1B56047  15.134  41.455   6.135
 4310POPC   C2B56048  15.221  41.356   6.575
 4310POPC   C3B56049  15.399  41.619   6.909
 4310POPC   C4B56050  15.460  41.598   7.367
 4311POPC   NC356051  42.703  42.943   5.546
 4311POPC   PO456052  42.131  43.245   5.379
 4311POPC   GL156053  42.147  43.073   5.807
 4311POPC   GL256054  42.444  43.270   5.833
 4311POPC   C1A56055  42.180  43.037   6.289
 4311POPC   D2A56056  42.412  42.852   6.658
 4311POPC   C3A56057  42.400  42.918   7.094
 4311POPC   C4A56058  42.161  43.229   7.303
 4311POPC   C1B56059  42.658  43.317   6.196
 4311POPC   C2B56060  42.497  43.370   6.589
 4311POPC   C3B56061  42.711  43.314   6.971
 4311POPC   C4B56062  42.620  43.414   7.356
 4312POPC   NC356063  14.584  18.551   5.548
 4312POPC   PO456064  14.297  17.993   5.375
 4312POPC   GL156065  14.159  18.302   5.717
 4312POPC   GL256066  14.413  18.203   5.945
 4312POPC   C1A56067  14.201  18.627   6.109
 4312POPC   D2A56068  14.001  18.584   6.541
 4312POPC   C3A56069  14.262  18.572   6.923
 4312POPC   C4A56070  14.263  18.166   7.117
 4312POPC   C1B56071  14.373  18.232   6.413
 4312POPC   C2B56072  14.637  18.246   6.779
 4312POPC   C3B56073  14.894  18.183   7.148
 4312POPC   C4B56074  14.919  18.191   7.619
 4313POPC   NC356075   3.546  10.125   5.545
 4313POPC   PO456076   3.838   9.506   5.373
 4313POPC   GL156077   3.515   9.619   5.763
 4313POPC   GL256078   3.157   9.474   5.767
 4313POPC   C1A56079   3.516   9.930   6.167
 4313POPC   D2A56080   3.421  10.192   6.577
 4313POPC   C3A56081   3.597  10.066   6.984
 4313POPC   C4A56082   3.543   9.956   7.407
 4313POPC   C1B56083   3.237   9.503   6.235
 4313POPC   C2B56084   3.505   9.679   6.617
 4313POPC   C3B56085   3.648   9.535   7.037
 4313POPC   C4B56086   3.989   9.313   7.213
 4314POPC   NC356087  25.485   6.084   5.478
 4314POPC   PO456088  25.112   5.484   5.423
 4314POPC   GL156089  25.201   5.743   5.772
 4314POPC   GL256090  25.559   5.732   5.850
 4314POPC   C1A56091  25.173   5.914   6.188
 4314POPC   D2A56092  25.343   5.823   6.591
 4314POPC   C3A56093  25.079   5.862   6.968
 4314POPC   C4A56094  25.024   6.219   7.249
 4314POPC   C1B56095  25.721   5.675   6.249
 4314POPC   C2B56096  25.707   5.453   6.626
 4314POPC   C3B56097  25.489   5.553   7.006
 4314POPC   C4B56098  25.483   5.861   7.292
 4315POPC   NC356099  16.379  44.105   5.492
 4315POPC   PO456100  15.850  43.811   5.236
 4315POPC   GL156101  15.841  43.932   5.692
 4315POPC   GL256102  16.095  43.739   5.846
 4315POPC   C1A56103  15.710  43.871   6.151
 4315POPC   D2A56104  15.498  43.959   6.543
 4315POPC   C3A56105  15.721  44.035   6.900
 4315POPC   C4A56106  15.670  43.836   7.270
 4315POPC   C1B56107  16.264  43.956   6.174
 4315POPC   C2B56108  16.107  43.937   6.583
 4315POPC   C3B56109  16.147  43.781   6.998
 4315POPC   C4B56110  16.195  43.836   7.428
 4316POPC   NC356111  30.600  13.988   5.608
 4316POPC   PO456112  30.367  14.633   5.456
 4316POPC   GL156113  30.587  14.470   5.794
 4316POPC   GL256114  30.290  14.306   5.893
 4316POPC   C1A56115  30.803  14.344   6.177
 4316POPC   D2A56116  30.657  14.430   6.586
 4316POPC   C3A56117  30.713  14.176   6.915
 4316POPC   C4A56118  30.706  14.451   7.224
 4316POPC   C1B56119  30.359  14.102   6.296
 4316POPC   C2B56120  30.253  14.089   6.715
 4316POPC   C3B56121  30.258  14.079   7.174
 4316POPC   C4B56122  30.169  14.323   7.538
 4317POPC   NC356123   2.291   5.594   5.372
 4317POPC   PO456124   2.130   4.883   5.362
 4317POPC   GL156125   1.960   5.018   5.769
 4317POPC   GL256126   1.954   5.389   5.763
 4317POPC   C1A56127   1.883   4.931   6.217
 4317POPC   D2A56128   2.166   4.800   6.549
 4317POPC   C3A56129   2.107   5.005   6.943
 4317POPC   C4A56130   1.701   5.001   7.148
 4317POPC   C1B56131   1.952   5.552   6.185
 4317POPC   C2B56132   1.825   5.641   6.614
 4317POPC   C3B56133   1.905   5.483   7.023
 4317POPC   C4B56134   2.055   5.302   7.381
 4318POPC   NC356135   7.841   7.768   5.515
 4318POPC   PO456136   8.477   7.328   5.427
 4318POPC   GL156137   8.303   7.218   5.830
 4318POPC   GL256138   7.953   7.296   5.849
 4318POPC   C1A56139   8.216   7.321   6.279
 4318POPC   D2A56140   8.413   7.165   6.637
 4318POPC   C3A56141   8.421   7.384   7.042
 4318POPC   C4A56142   8.518   7.197   7.440
 4318POPC   C1B56143   7.740   7.543   6.193
 4318POPC   C2B56144   7.910   7.679   6.624
 4318POPC   C3B56145   7.921   7.541   7.077
 4318POPC   C4B56146   7.800   7.679   7.512
 4319POPC   NC356147  34.460  25.074   4.965
 4319POPC   PO456148  35.005  25.117   5.340
 4319POPC   GL156149  34.664  25.043   5.659
 4319POPC   GL256150  34.464  25.352   5.774
 4319POPC   C1A56151  34.575  25.001   6.124
 4319POPC   D2A56152  34.722  25.269   6.471
 4319POPC   C3A56153  34.668  25.092   6.868
 4319POPC   C4A56154  34.546  25.073   7.274
 4319POPC   C1B56155  34.246  25.479   6.179
 4319POPC   C2B56156  34.321  25.663   6.580
 4319POPC   C3B56157  34.547  25.580   6.941
 4319POPC   C4B56158  34.403  25.553   7.316
 4320POPC   NC356159  17.073  21.410   5.446
 4320POPC   PO456160  17.716  21.456   5.352
 4320POPC   GL156161  17.488  21.561   5.709
 4320POPC   GL256162  17.396  21.242   5.819
 4320POPC   C1A56163  17.458  21.630   6.152
 4320POPC   D2A56164  17.697  21.527   6.546
 4320POPC   C3A56165  17.500  21.520   6.937
 4320POPC   C4A56166  17.292  21.611   7.347
 4320POPC   C1B56167  17.562  21.135   6.236
 4320POPC   C2B56168  17.435  21.078   6.672
 4320POPC   C3B56169  17.609  20.991   7.082
 4320POPC   C4B56170  17.591  20.707   7.483
 4321POPC   NC356171   3.073  38.723   5.251
 4321POPC   PO456172   3.346  38.162   5.362
 4321POPC   GL156173   3.398  38.295   5.781
 4321POPC   GL256174   3.408  38.668   5.770
 4321POPC   C1A56175   3.547  38.340   6.216
 4321POPC   D2A56176   3.411  38.329   6.640
 4321POPC   C3A56177   3.631  38.231   7.025
 4321POPC   C4A56178   3.391  38.498   7.254
 4321POPC   C1B56179   3.733  38.801   6.075
 4321POPC   C2B56180   3.680  38.808   6.481
 4321POPC   C3B56181   3.671  38.727   6.872
 4321POPC   C4B56182   3.776  38.864   7.241
 4322POPC   NC356183  22.379  13.632   5.452
 4322POPC   PO456184  21.777  13.568   5.342
 4322POPC   GL156185  21.928  13.699   5.777
 4322POPC   GL256186  22.279  13.857   5.892
 4322POPC   C1A56187  21.797  13.570   6.227
 4322POPC   D2A56188  21.810  13.730   6.680
 4322POPC   C3A56189  21.958  13.564   7.117
 4322POPC   C4A56190  21.994  13.349   7.547
 4322POPC   C1B56191  22.197  13.892   6.351
 4322POPC   C2B56192  22.261  13.912   6.836
 4322POPC   C3B56193  22.565  13.815   7.172
 4322POPC   C4B56194  22.707  13.911   7.645
 4323POPC   NC356195  35.491  39.714   5.423
 4323POPC   PO456196  35.114  40.135   5.061
 4323POPC   GL156197  35.119  40.047   5.580
 4323POPC   GL256198  35.084  39.686   5.731
 4323POPC   C1A56199  35.393  40.093   5.979
 4323POPC   D2A56200  35.508  40.042   6.429
 4323POPC   C3A56201  35.307  40.302   6.749
 4323POPC   C4A56202  35.344  40.437   7.160
 4323POPC   C1B56203  34.978  39.829   6.146
 4323POPC   C2B56204  35.010  39.894   6.588
 4323POPC   C3B56205  35.303  39.728   6.869
 4323POPC   C4B56206  35.563  39.972   7.117
 4324POPC   NC356207  23.374  32.873   5.494
 4324POPC   PO456208  22.647  32.905   5.469
 4324POPC   GL156209  22.888  33.003   5.852
 4324POPC   GL256210  23.103  32.737   5.895
 4324POPC   C1A56211  23.097  33.076   6.279
 4324POPC   D2A56212  22.985  33.288   6.647
 4324POPC   C3A56213  22.951  33.077   7.008
 4324POPC   C4A56214  23.058  33.272   7.359
 4324POPC   C1B56215  22.808  32.651   6.230
 4324POPC   C2B56216  22.799  32.773   6.635
 4324POPC   C3B56217  22.685  32.600   7.024
 4324POPC   C4B56218  22.823  32.789   7.407
 4325POPC   NC356219   6.274  21.917   5.099
 4325POPC   PO456220   5.695  21.839   5.417
 4325POPC   GL156221   5.820  21.964   5.877
 4325POPC   GL256222   5.749  22.322   5.984
 4325POPC   C1A56223   5.926  22.021   6.344
 4325POPC   D2A56224   5.728  22.109   6.732
 4325POPC   C3A56225   5.882  22.026   7.147
 4325POPC   C4A56226   5.871  22.249   7.554
 4325POPC   C1B56227   5.429  22.276   6.320
 4325POPC   C2B56228   5.370  22.469   6.737
 4325POPC   C3B56229   5.580  22.447   7.137
 4325POPC   C4B56230   5.535  22.698   7.529
 4326POPC   NC356231  37.274  30.222   5.312
 4326POPC   PO456232  36.776  29.715   5.357
 4326POPC   GL156233  36.720  29.860   5.783
 4326POPC   GL256234  36.930  30.162   5.763
 4326POPC   C1A56235  36.779  29.646   6.212
 4326POPC   D2A56236  36.667  29.434   6.614
 4326POPC   C3A56237  36.816  29.626   7.005
 4326POPC   C4A56238  36.606  29.739   7.391
 4326POPC   C1B56239  36.787  30.161   6.198
 4326POPC   C2B56240  36.627  30.013   6.582
 4326POPC   C3B56241  36.707  30.185   6.987
 4326POPC   C4B56242  37.058  30.056   7.208
 4327POPC   NC356243  22.430   6.947   5.126
 4327POPC   PO456244  21.990   6.394   5.226
 4327POPC   GL156245  22.102   6.400   5.675
 4327POPC   GL256246  22.015   6.705   5.749
 4327POPC   C1A56247  22.257   6.508   6.165
 4327POPC   D2A56248  22.449   6.601   6.570
 4327POPC   C3A56249  22.286   6.460   6.977
 4327POPC   C4A56250  22.392   6.208   7.364
 4327POPC   C1B56251  21.813   6.791   6.125
 4327POPC   C2B56252  21.638   6.672   6.503
 4327POPC   C3B56253  21.740   6.740   6.921
 4327POPC   C4B56254  21.905   6.636   7.300
 4328POPC   NC356255   1.483   2.194   5.205
 4328POPC   PO456256   0.950   1.757   5.369
 4328POPC   GL156257   1.248   1.985   5.661
 4328POPC   GL256258   1.475   1.747   5.811
 4328POPC   C1A56259   1.219   2.057   6.128
 4328POPC   D2A56260   1.078   2.143   6.555
 4328POPC   C3A56261   1.381   2.083   6.884
 4328POPC   C4A56262   1.365   1.898   7.281
 4328POPC   C1B56263   1.137   1.552   6.049
 4328POPC   C2B56264   0.958   1.630   6.456
 4328POPC   C3B56265   0.944   1.725   6.890
 4328POPC   C4B56266   0.593   1.520   7.095
 4329POPC   NC356267   4.226  29.878   5.529
 4329POPC   PO456268   4.754  29.817   5.146
 4329POPC   GL156269   4.700  29.821   5.672
 4329POPC   GL256270   4.562  30.072   5.838
 4329POPC   C1A56271   4.534  29.679   6.134
 4329POPC   D2A56272   4.509  29.798   6.561
 4329POPC   C3A56273   4.216  29.640   6.865
 4329POPC   C4A56274   4.387  29.635   7.296
 4329POPC   C1B56275   4.415  30.236   6.240
 4329POPC   C2B56276   4.366  30.394   6.644
 4329POPC   C3B56277   4.433  30.106   7.001
 4329POPC   C4B56278   4.200  30.125   7.396
 4330POPC   NC356279   8.587   8.426   5.310
 4330POPC   PO456280   8.120   8.136   5.518
 4330POPC   GL156281   8.172   8.415   5.843
 4330POPC   GL256282   8.539   8.448   5.832
 4330POPC   C1A56283   7.932   8.361   6.247
 4330POPC   D2A56284   7.792   8.575   6.631
 4330POPC   C3A56285   7.916   8.359   7.033
 4330POPC   C4A56286   8.219   7.971   7.039
 4330POPC   C1B56287   8.487   8.388   6.280
 4330POPC   C2B56288   8.309   8.377   6.697
 4330POPC   C3B56289   8.423   8.440   7.134
 4330POPC   C4B56290   8.585   8.131   7.389
 4331POPC   NC356291  35.706  22.313   5.461
 4331POPC   PO456292  36.317  22.035   5.443
 4331POPC   GL156293  36.105  22.248   5.811
 4331POPC   GL256294  36.130  22.594   5.791
 4331POPC   C1A56295  36.080  22.304   6.287
 4331POPC   D2A56296  36.058  22.546   6.691
 4331POPC   C3A56297  36.046  22.306   7.097
 4331POPC   C4A56298  35.818  21.936   7.249
 4331POPC   C1B56299  36.511  22.468   6.050
 4331POPC   C2B56300  36.599  22.374   6.479
 4331POPC   C3B56301  36.532  22.477   6.911
 4331POPC   C4B56302  36.520  22.259   7.282
 4332POPC   NC356303   5.264  19.991   5.536
 4332POPC   PO456304   4.614  19.729   5.471
 4332POPC   GL156305   4.830  19.995   5.795
 4332POPC   GL256306   4.985  19.694   5.888
 4332POPC   C1A56307   5.149  20.041   6.187
 4332POPC   D2A56308   5.235  19.841   6.590
 4332POPC   C3A56309   5.164  20.058   6.979
 4332POPC   C4A56310   5.161  20.105   7.441
 4332POPC   C1B56311   5.208  19.465   6.217
 4332POPC   C2B56312   5.375  19.337   6.615
 4332POPC   C3B56313   5.385  19.569   7.006
 4332POPC   C4B56314   5.031  19.652   7.254
 4333POPC   NC356315  20.772  30.823   5.301
 4333POPC   PO456316  20.348  30.342   5.294
 4333POPC   GL156317  20.569  30.507   5.666
 4333POPC   GL256318  20.485  30.868   5.723
 4333POPC   C1A56319  20.769  30.603   6.082
 4333POPC   D2A56320  20.673  30.546   6.522
 4333POPC   C3A56321  20.926  30.548   6.883
 4333POPC   C4A56322  20.707  30.598   7.290
 4333POPC   C1B56323  20.387  31.025   6.130
 4333POPC   C2B56324  20.635  31.057   6.497
 4333POPC   C3B56325  20.562  30.954   6.926
 4333POPC   C4B56326  20.239  30.937   7.257
 4334POPC   NC356327   6.236  20.054   5.249
 4334POPC   PO456328   5.694  20.290   5.579
 4334POPC   GL156329   5.680  19.947   5.860
 4334POPC   GL256330   6.002  19.771   5.835
 4334POPC   C1A56331   5.635  19.739   6.247
 4334POPC   D2A56332   5.790  19.635   6.656
 4334POPC   C3A56333   5.877  19.936   6.962
 4334POPC   C4A56334   5.604  19.961   7.257
 4334POPC   C1B56335   6.164  19.768   6.281
 4334POPC   C2B56336   6.296  19.562   6.685
 4334POPC   C3B56337   6.229  19.626   7.148
 4334POPC   C4B56338   6.005  19.820   7.535
 4335POPC   NC356339  10.078  31.649   5.404
 4335POPC   PO456340   9.573  31.260   5.457
 4335POPC   GL156341   9.661  31.556   5.758
 4335POPC   GL256342   9.955  31.385   5.857
 4335POPC   C1A56343   9.535  31.542   6.183
 4335POPC   D2A56344   9.429  31.296   6.554
 4335POPC   C3A56345   9.722  31.390   6.903
 4335POPC   C4A56346   9.861  31.085   7.202
 4335POPC   C1B56347  10.056  31.738   6.124
 4335POPC   C2B56348  10.292  31.752   6.501
 4335POPC   C3B56349  10.183  31.800   6.930
 4335POPC   C4B56350  10.044  31.598   7.284
 4336POPC   NC356351  31.730   2.757   5.029
 4336POPC   PO456352  31.232   2.484   5.448
 4336POPC   GL156353  31.321   2.614   5.875
 4336POPC   GL256354  31.539   2.913   5.894
 4336POPC   C1A56355  31.098   2.837   6.200
 4336POPC   D2A56356  30.996   3.036   6.591
 4336POPC   C3A56357  31.231   2.796   6.860
 4336POPC   C4A56358  31.283   2.668   7.257
 4336POPC   C1B56359  31.641   2.803   6.332
 4336POPC   C2B56360  31.741   2.791   6.779
 4336POPC   C3B56361  31.642   3.081   7.144
 4336POPC   C4B56362  31.419   3.089   7.538
 4337POPC   NC356363  13.175  35.636   5.588
 4337POPC   PO456364  12.662  35.235   5.347
 4337POPC   GL156365  12.715  35.364   5.757
 4337POPC   GL256366  12.404  35.173   5.808
 4337POPC   C1A56367  12.866  35.305   6.201
 4337POPC   D2A56368  12.706  35.477   6.615
 4337POPC   C3A56369  12.944  35.353   7.027
 4337POPC   C4A56370  13.005  35.412   7.533
 4337POPC   C1B56371  12.375  35.388   6.165
 4337POPC   C2B56372  12.256  35.252   6.541
 4337POPC   C3B56373  12.462  35.174   6.926
 4337POPC   C4B56374  12.564  35.224   7.363
 4338POPC   NC356375   4.300  36.488   5.316
 4338POPC   PO456376   4.447  37.140   5.414
 4338POPC   GL156377   4.373  37.071   5.808
 4338POPC   GL256378   4.288  36.730   5.778
 4338POPC   C1A56379   4.512  36.925   6.215
 4338POPC   D2A56380   4.378  36.711   6.562
 4338POPC   C3A56381   4.490  36.912   6.918
 4338POPC   C4A56382   4.228  37.133   7.175
 4338POPC   C1B56383   4.009  36.820   6.139
 4338POPC   C2B56384   3.863  36.659   6.551
 4338POPC   C3B56385   4.040  36.643   6.960
 4338POPC   C4B56386   3.960  36.397   7.292
 4339POPC   NC356387  38.218  13.643   5.609
 4339POPC   PO456388  38.717  13.897   5.295
 4339POPC   GL156389  38.639  13.838   5.792
 4339POPC   GL256390  38.597  13.429   5.867
 4339POPC   C1A56391  38.508  13.782   6.232
 4339POPC   D2A56392  38.702  13.824   6.626
 4339POPC   C3A56393  38.475  13.815   6.981
 4339POPC   C4A56394  38.678  13.752   7.387
 4339POPC   C1B56395  38.341  13.295   6.257
 4339POPC   C2B56396  38.471  13.351   6.718
 4339POPC   C3B56397  38.433  13.341   7.182
 4339POPC   C4B56398  38.157  13.247   7.566
 4340POPC   NC356399   1.884  41.835   5.592
 4340POPC   PO456400   1.835  41.304   5.156
 4340POPC   GL156401   1.917  41.328   5.653
 4340POPC   GL256402   2.188  41.387   5.792
 4340POPC   C1A56403   1.771  41.403   6.129
 4340POPC   D2A56404   1.778  41.355   6.607
 4340POPC   C3A56405   1.879  41.619   7.022
 4340POPC   C4A56406   1.777  41.520   7.501
 4340POPC   C1B56407   2.233  41.627   6.171
 4340POPC   C2B56408   2.247  41.524   6.608
 4340POPC   C3B56409   2.444  41.510   6.996
 4340POPC   C4B56410   2.265  41.655   7.369
 4341POPC   NC356411   5.201  11.325   5.403
 4341POPC   PO456412   4.700  11.064   5.482
 4341POPC   GL156413   4.963  10.924   5.844
 4341POPC   GL256414   5.305  11.088   5.877
 4341POPC   C1A56415   5.106  10.881   6.287
 4341POPC   D2A56416   5.340  11.089   6.613
 4341POPC   C3A56417   5.103  11.015   6.999
 4341POPC   C4A56418   4.955  11.146   7.425
 4341POPC   C1B56419   5.239  11.408   6.218
 4341POPC   C2B56420   5.297  11.589   6.663
 4341POPC   C3B56421   5.294  11.480   7.117
 4341POPC   C4B56422   5.290  11.520   7.570
 4342POPC   NC356423  36.511  24.366   5.494
 4342POPC   PO456424  37.199  24.479   5.356
 4342POPC   GL156425  37.098  24.585   5.778
 4342POPC   GL256426  36.744  24.664   5.843
 4342POPC   C1A56427  37.162  24.666   6.203
 4342POPC   D2A56428  37.261  24.773   6.593
 4342POPC   C3A56429  37.067  24.536   6.935
 4342POPC   C4A56430  36.765  24.655   7.267
 4342POPC   C1B56431  36.779  24.342   6.156
 4342POPC   C2B56432  36.640  24.311   6.574
 4342POPC   C3B56433  36.412  24.059   6.831
 4342POPC   C4B56434  36.750  24.137   7.134
 4343POPC   NC356435  29.413  31.380   5.336
 4343POPC   PO456436  30.049  31.178   5.227
 4343POPC   GL156437  29.879  31.374   5.657
 4343POPC   GL256438  29.568  31.397   5.829
 4343POPC   C1A56439  30.103  31.425   6.081
 4343POPC   D2A56440  30.050  31.422   6.551
 4343POPC   C3A56441  29.877  31.745   6.838
 4343POPC   C4A56442  29.861  31.556   7.232
 4343POPC   C1B56443  29.655  31.562   6.246
 4343POPC   C2B56444  29.506  31.454   6.642
 4343POPC   C3B56445  29.538  31.210   7.027
 4343POPC   C4B56446  29.530  31.248   7.463
 4344POPC   NC356447  12.992  29.272   5.348
 4344POPC   PO456448  12.566  28.645   5.311
 4344POPC   GL156449  12.838  28.865   5.633
 4344POPC   GL256450  12.731  29.199   5.769
 4344POPC   C1A56451  12.989  28.798   6.063
 4344POPC   D2A56452  12.879  28.956   6.479
 4344POPC   C3A56453  12.912  29.148   6.876
 4344POPC   C4A56454  12.804  28.979   7.291
 4344POPC   C1B56455  12.623  29.460   6.116
 4344POPC   C2B56456  12.798  29.543   6.525
 4344POPC   C3B56457  12.576  29.571   6.921
 4344POPC   C4B56458  12.559  29.433   7.342
 4345POPC   NC356459  23.407  14.643   5.028
 4345POPC   PO456460  23.714  15.158   5.373
 4345POPC   GL156461  23.763  15.236   5.808
 4345POPC   GL256462  24.073  15.395   5.791
 4345POPC   C1A56463  23.604  15.110   6.233
 4345POPC   D2A56464  23.481  15.277   6.627
 4345POPC   C3A56465  23.553  15.084   7.022
 4345POPC   C4A56466  23.626  15.235   7.447
 4345POPC   C1B56467  24.070  15.361   6.239
 4345POPC   C2B56468  24.289  15.358   6.644
 4345POPC   C3B56469  24.046  15.233   7.003
 4345POPC   C4B56470  24.111  15.022   7.388
 4346POPC   NC356471   5.868  27.422   5.318
 4346POPC   PO456472   5.960  28.009   5.413
 4346POPC   GL156473   5.809  27.824   5.799
 4346POPC   GL256474   5.492  27.944   5.885
 4346POPC   C1A56475   5.930  27.763   6.252
 4346POPC   D2A56476   5.734  27.691   6.668
 4346POPC   C3A56477   5.910  27.535   7.080
 4346POPC   C4A56478   5.719  27.448   7.499
 4346POPC   C1B56479   5.559  28.132   6.265
 4346POPC   C2B56480   5.897  28.185   6.559
 4346POPC   C3B56481   5.896  28.055   6.984
 4346POPC   C4B56482   5.875  27.917   7.415
 4347POPC   NC356483  25.614  22.843   5.473
 4347POPC   PO456484  24.965  22.624   5.490
 4347POPC   GL156485  25.066  22.778   5.902
 4347POPC   GL256486  25.334  23.002   5.872
 4347POPC   C1A56487  25.186  22.862   6.342
 4347POPC   D2A56488  25.519  22.874   6.665
 4347POPC   C3A56489  25.285  22.728   7.009
 4347POPC   C4A56490  24.877  22.717   7.195
 4347POPC   C1B56491  25.481  23.283   6.219
 4347POPC   C2B56492  25.507  23.411   6.669
 4347POPC   C3B56493  25.550  23.241   7.087
 4347POPC   C4B56494  25.354  23.037   7.422
 4348POPC   NC356495  14.128   1.727   5.591
 4348POPC   PO456496  14.406   2.272   5.268
 4348POPC   GL156497  14.423   2.130   5.750
 4348POPC   GL256498  14.729   1.937   5.878
 4348POPC   C1A56499  14.161   2.010   6.158
 4348POPC   D2A56500  14.032   2.148   6.564
 4348POPC   C3A56501  14.084   1.954   6.984
 4348POPC   C4A56502  14.432   2.171   7.181
 4348POPC   C1B56503  14.629   1.860   6.289
 4348POPC   C2B56504  14.514   1.838   6.710
 4348POPC   C3B56505  14.741   1.766   7.067
 4348POPC   C4B56506  14.728   1.754   7.474
 4349POPC   NC356507  23.180  19.809   5.372
 4349POPC   PO456508  22.723  20.259   5.469
 4349POPC   GL156509  22.983  20.090   5.770
 4349POPC   GL256510  22.990  19.731   5.851
 4349POPC   C1A56511  22.961  20.092   6.194
 4349POPC   D2A56512  22.915  19.880   6.541
 4349POPC   C3A56513  22.889  20.067   6.914
 4349POPC   C4A56514  22.760  20.102   7.301
 4349POPC   C1B56515  22.966  19.417   6.169
 4349POPC   C2B56516  23.076  19.411   6.586
 4349POPC   C3B56517  23.005  19.573   6.980
 4349POPC   C4B56518  23.069  19.666   7.436
 4350POPC   NC356519  42.046   5.015   5.450
 4350POPC   PO456520  42.567   5.266   5.176
 4350POPC   GL156521  42.537   5.098   5.613
 4350POPC   GL256522  42.264   5.302   5.823
 4350POPC   C1A56523  42.516   4.872   6.024
 4350POPC   D2A56524  42.326   5.172   6.323
 4350POPC   C3A56525  42.344   5.171   6.779
 4350POPC   C4A56526  42.360   5.143   7.216
 4350POPC   C1B56527  42.148   5.613   6.171
 4350POPC   C2B56528  42.097   5.607   6.640
 4350POPC   C3B56529  42.106   5.561   7.121
 4350POPC   C4B56530  42.228   5.570   7.596
 4351POPC   NC356531  26.443  37.722   5.121
 4351POPC   PO456532  26.964  37.443   5.255
 4351POPC   GL156533  26.745  37.726   5.563
 4351POPC   GL256534  26.986  37.800   5.819
 4351POPC   C1A56535  26.499  37.757   5.981
 4351POPC   D2A56536  26.523  37.916   6.402
 4351POPC   C3A56537  26.861  37.897   6.679
 4351POPC   C4A56538  26.736  37.758   7.087
 4351POPC   C1B56539  27.135  37.617   6.230
 4351POPC   C2B56540  27.085  37.430   6.653
 4351POPC   C3B56541  27.201  37.566   7.065
 4351POPC   C4B56542  27.127  37.609   7.522
 4352POPC   NC356543  30.294   1.976   5.285
 4352POPC   PO456544  29.689   1.726   5.372
 4352POPC   GL156545  29.780   1.551   5.799
 4352POPC   GL256546  30.126   1.731   5.850
 4352POPC   C1A56547  29.766   1.704   6.240
 4352POPC   D2A56548  29.740   2.132   6.450
 4352POPC   C3A56549  29.715   2.123   6.886
 4352POPC   C4A56550  29.851   1.776   7.067
 4352POPC   C1B56551  30.199   2.001   6.231
 4352POPC   C2B56552  30.206   2.232   6.646
 4352POPC   C3B56553  30.223   2.138   7.088
 4352POPC   C4B56554  30.360   2.139   7.549
 4353POPC   NC356555  17.008  15.380   5.172
 4353POPC   PO456556  16.660  14.862   5.367
 4353POPC   GL156557  16.721  14.961   5.821
 4353POPC   GL256558  17.075  14.964   5.929
 4353POPC   C1A56559  16.685  15.206   6.215
 4353POPC   D2A56560  16.439  15.220   6.579
 4353POPC   C3A56561  16.492  15.169   7.008
 4353POPC   C4A56562  16.484  14.826   7.244
 4353POPC   C1B56563  17.126  14.985   6.380
 4353POPC   C2B56564  16.951  15.216   6.711
 4353POPC   C3B56565  16.991  15.181   7.144
 4353POPC   C4B56566  17.262  15.321   7.487
 4354POPC   NC356567  34.867  10.738   5.508
 4354POPC   PO456568  35.534  10.613   5.433
 4354POPC   GL156569  35.335  10.601   5.813
 4354POPC   GL256570  35.066  10.387   5.835
 4354POPC   C1A56571  35.432  10.496   6.231
 4354POPC   D2A56572  35.297  10.669   6.618
 4354POPC   C3A56573  35.546  10.487   6.932
 4354POPC   C4A56574  35.452  10.231   7.304
 4354POPC   C1B56575  35.061  10.152   6.187
 4354POPC   C2B56576  35.294  10.148   6.581
 4354POPC   C3B56577  35.087  10.267   6.944
 4354POPC   C4B56578  34.833  10.345   7.261
 4355POPC   NC356579  36.914   6.008   4.956
 4355POPC   PO456580  36.879   5.456   5.324
 4355POPC   GL156581  36.856   5.568   5.756
 4355POPC   GL256582  37.094   5.843   5.811
 4355POPC   C1A56583  36.744   5.688   6.185
 4355POPC   D2A56584  36.892   5.922   6.542
 4355POPC   C3A56585  36.848   5.709   6.912
 4355POPC   C4A56586  36.784   5.658   7.320
 4355POPC   C1B56587  37.238   6.089   6.163
 4355POPC   C2B56588  37.116   6.380   6.486
 4355POPC   C3B56589  37.096   6.239   6.911
 4355POPC   C4B56590  37.236   5.937   7.221
 4356POPC   NC356591  16.701  29.310   5.233
 4356POPC   PO456592  16.892  28.766   5.412
 4356POPC   GL156593  16.606  29.115   5.698
 4356POPC   GL256594  16.830  29.234   5.947
 4356POPC   C1A56595  16.371  29.350   6.100
 4356POPC   D2A56596  16.612  29.287   6.516
 4356POPC   C3A56597  16.484  29.246   6.980
 4356POPC   C4A56598  16.769  29.206   7.348
 4356POPC   C1B56599  16.577  28.889   6.185
 4356POPC   C2B56600  16.460  28.818   6.647
 4356POPC   C3B56601  16.435  28.638   7.083
 4356POPC   C4B56602  16.785  28.676   7.394
 4357POPC   NC356603  28.868   8.187   5.652
 4357POPC   PO456604  29.516   8.537   5.533
 4357POPC   GL156605  29.286   8.311   5.915
 4357POPC   GL256606  29.266   7.952   6.091
 4357POPC   C1A56607  29.007   8.330   6.280
 4357POPC   D2A56608  29.082   8.060   6.619
 4357POPC   C3A56609  28.996   8.284   6.975
 4357POPC   C4A56610  29.246   8.382   7.324
 4357POPC   C1B56611  28.850   7.823   6.223
 4357POPC   C2B56612  28.648   7.741   6.607
 4357POPC   C3B56613  28.867   7.752   6.977
 4357POPC   C4B56614  29.147   7.888   7.281
 4358POPC   NC356615  21.028  43.762   5.360
 4358POPC   PO456616  21.560  44.171   5.367
 4358POPC   GL156617  21.422  43.862   5.685
 4358POPC   GL256618  21.711  43.783   5.885
 4358POPC   C1A56619  21.200  43.807   6.079
 4358POPC   D2A56620  21.203  43.669   6.505
 4358POPC   C3A56621  21.177  43.959   6.816
 4358POPC   C4A56622  21.054  43.851   7.230
 4358POPC   C1B56623  21.675  43.816   6.339
 4358POPC   C2B56624  21.645  43.709   6.767
 4358POPC   C3B56625  21.558  43.947   7.155
 4358POPC   C4B56626  21.639  44.221   7.504
 4359POPC   NC356627  27.666  26.254   5.383
 4359POPC   PO456628  27.785  25.628   5.451
 4359POPC   GL156629  27.869  25.839   5.827
 4359POPC   GL256630  27.559  26.006   5.812
 4359POPC   C1A56631  27.801  25.925   6.249
 4359POPC   D2A56632  27.652  25.697   6.597
 4359POPC   C3A56633  27.882  25.859   6.936
 4359POPC   C4A56634  28.032  25.861   7.334
 4359POPC   C1B56635  27.294  25.831   6.154
 4359POPC   C2B56636  27.229  26.033   6.548
 4359POPC   C3B56637  27.351  25.970   6.936
 4359POPC   C4B56638  27.553  26.100   7.273
 4360POPC   NC356639  26.087  39.757   5.407
 4360POPC   PO456640  26.239  40.400   5.383
 4360POPC   GL156641  26.039  40.149   5.729
 4360POPC   GL256642  26.292  39.966   5.846
 4360POPC   C1A56643  25.848  39.893   6.114
 4360POPC   D2A56644  25.596  39.782   6.512
 4360POPC   C3A56645  25.801  39.664   6.898
 4360POPC   C4A56646  25.868  39.855   7.296
 4360POPC   C1B56647  26.521  40.071   6.210
 4360POPC   C2B56648  26.278  39.864   6.496
 4360POPC   C3B56649  26.271  39.886   6.918
 4360POPC   C4B56650  26.344  40.040   7.317
 4361POPC   NC356651  44.401  18.554   5.395
 4361POPC   PO456652  44.611  19.200   5.174
 4361POPC   GL156653  44.535  19.054   5.604
 4361POPC   GL256654  44.784  18.814   5.734
 4361POPC   C1A56655  44.365  18.945   6.030
 4361POPC   D2A56656  44.558  18.943   6.465
 4361POPC   C3A56657  44.436  19.212   6.795
 4361POPC   C4A56658  44.638  19.092   7.158
 4361POPC   C1B56659  44.896  19.093   6.131
 4361POPC   C2B56660   0.052  19.000   6.601
 4361POPC   C3B56661  44.948  18.743   7.005
 4361POPC   C4B56662  44.944  18.908   7.502
 4362POPC   NC356663  34.611  35.688   5.104
 4362POPC   PO456664  34.296  36.215   5.444
 4362POPC   GL156665  34.530  35.982   5.700
 4362POPC   GL256666  34.824  36.145   5.761
 4362POPC   C1A56667  34.459  35.990   6.133
 4362POPC   D2A56668  34.417  36.306   6.461
 4362POPC   C3A56669  34.383  36.235   6.923
 4362POPC   C4A56670  34.525  36.340   7.358
 4362POPC   C1B56671  34.851  36.358   6.162
 4362POPC   C2B56672  34.912  36.294   6.620
 4362POPC   C3B56673  34.958  36.331   7.064
 4362POPC   C4B56674  34.932  36.034   7.396
 4363POPC   NC356675  16.750  43.776   5.288
 4363POPC   PO456676  17.297  44.064   5.437
 4363POPC   GL156677  17.050  44.110   5.844
 4363POPC   GL256678  16.746  43.947   5.790
 4363POPC   C1A56679  16.984  44.096   6.321
 4363POPC   D2A56680  17.070  43.715   6.543
 4363POPC   C3A56681  17.090  43.680   6.972
 4363POPC   C4A56682  17.062  43.929   7.318
 4363POPC   C1B56683  16.723  43.697   6.139
 4363POPC   C2B56684  16.558  43.675   6.528
 4363POPC   C3B56685  16.631  43.866   6.878
 4363POPC   C4B56686  16.636  43.607   7.237
 4364POPC   NC356687  14.476   0.525   5.609
 4364POPC   PO456688  14.779  44.958   5.696
 4364POPC   GL156689  14.441   0.153   5.941
 4364POPC   GL256690  14.107   0.319   5.902
 4364POPC   C1A56691  14.365   0.334   6.335
 4364POPC   D2A56692  14.523   0.612   6.612
 4364POPC   C3A56693  14.472   0.311   6.908
 4364POPC   C4A56694  14.468   0.101   7.280
 4364POPC   C1B56695  14.101   0.740   6.171
 4364POPC   C2B56696  14.209   1.025   6.519
 4364POPC   C3B56697  14.286   0.963   6.932
 4364POPC   C4B56698  14.032   0.664   7.150
 4365POPC   NC356699  38.529   0.045   5.441
 4365POPC   PO456700  38.181  44.418   5.376
 4365POPC   GL156701  38.359  44.636   5.746
 4365POPC   GL256702  38.194  44.965   5.833
 4365POPC   C1A56703  38.320  44.595   6.196
 4365POPC   D2A56704  38.499  44.629   6.601
 4365POPC   C3A56705  38.714  44.422   6.891
 4365POPC   C4A56706  38.518  44.354   7.281
 4365POPC   C1B56707  38.296   0.144   6.217
 4365POPC   C2B56708  38.503   0.139   6.607
 4365POPC   C3B56709  38.407  44.951   7.019
 4365POPC   C4B56710  38.671  44.831   7.362
 4366POPC   NC356711  43.610  12.974   5.415
 4366POPC   PO456712  43.940  12.405   5.401
 4366POPC   GL156713  43.769  12.496   5.796
 4366POPC   GL256714  44.070  12.527   5.947
 4366POPC   C1A56715  43.700  12.852   6.086
 4366POPC   D2A56716  43.490  12.919   6.466
 4366POPC   C3A56717  43.718  12.772   6.822
 4366POPC   C4A56718  43.689  13.098   7.120
 4366POPC   C1B56719  43.995  12.536   6.382
 4366POPC   C2B56720  44.225  12.805   6.627
 4366POPC   C3B56721  44.270  13.088   6.905
 4366POPC   C4B56722  44.152  13.018   7.258
 4367POPC   NC356723   7.894   9.314   5.402
 4367POPC   PO456724   8.280   8.770   5.394
 4367POPC   GL156725   8.339   8.913   5.808
 4367POPC   GL256726   8.251   9.232   5.807
 4367POPC   C1A56727   8.179   8.794   6.196
 4367POPC   D2A56728   8.429   8.850   6.554
 4367POPC   C3A56729   8.165   8.829   6.931
 4367POPC   C4A56730   8.129   8.824   7.371
 4367POPC   C1B56731   8.301   9.266   6.228
 4367POPC   C2B56732   8.070   9.200   6.587
 4367POPC   C3B56733   8.283   9.326   6.921
 4367POPC   C4B56734   8.360   9.282   7.313
 4368POPC   NC356735  41.316  23.953   5.542
 4368POPC   PO456736  41.792  23.456   5.465
 4368POPC   GL156737  41.677  23.711   5.819
 4368POPC   GL256738  41.365  23.525   5.856
 4368POPC   C1A56739  41.548  23.745   6.266
 4368POPC   D2A56740  41.625  23.443   6.598
 4368POPC   C3A56741  41.764  23.637   6.977
 4368POPC   C4A56742  41.563  23.976   7.202
 4368POPC   C1B56743  41.295  23.289   6.231
 4368POPC   C2B56744  41.004  23.305   6.593
 4368POPC   C3B56745  40.980  23.280   7.026
 4368POPC   C4B56746  41.374  23.418   7.238
 4369POPC   NC356747  17.056   3.379   5.261
 4369POPC   PO456748  16.447   3.472   5.367
 4369POPC   GL156749  16.676   3.492   5.719
 4369POPC   GL256750  16.631   3.184   5.775
 4369POPC   C1A56751  16.565   3.474   6.182
 4369POPC   D2A56752  16.358   3.485   6.574
 4369POPC   C3A56753  16.598   3.615   6.897
 4369POPC   C4A56754  16.815   3.745   7.245
 4369POPC   C1B56755  16.920   3.090   6.100
 4369POPC   C2B56756  17.083   3.205   6.510
 4369POPC   C3B56757  16.914   3.200   6.900
 4369POPC   C4B56758  16.779   3.135   7.312
 4370POPC   NC356759  41.274  25.550   5.622
 4370POPC   PO456760  41.729  25.882   5.335
 4370POPC   GL156761  41.814  25.927   5.742
 4370POPC   GL256762  41.915  26.269   5.683
 4370POPC   C1A56763  41.499  25.994   6.083
 4370POPC   D2A56764  41.334  26.296   6.394
 4370POPC   C3A56765  41.423  26.164   6.808
 4370POPC   C4A56766  41.559  25.745   6.948
 4370POPC   C1B56767  41.904  26.310   6.119
 4370POPC   C2B56768  41.825  26.046   6.479
 4370POPC   C3B56769  41.949  26.078   6.888
 4370POPC   C4B56770  41.682  26.139   7.242
 4371POPC   NC356771  30.520  25.092   5.388
 4371POPC   PO456772  30.626  25.707   5.360
 4371POPC   GL156773  30.533  25.480   5.726
 4371POPC   GL256774  30.838  25.282   5.819
 4371POPC   C1A56775  30.408  25.237   6.104
 4371POPC   D2A56776  30.680  25.205   6.472
 4371POPC   C3A56777  30.490  25.140   6.874
 4371POPC   C4A56778  30.232  25.028   7.180
 4371POPC   C1B56779  30.966  24.935   6.134
 4371POPC   C2B56780  30.910  24.760   6.574
 4371POPC   C3B56781  30.987  25.057   6.883
 4371POPC   C4B56782  30.836  25.463   7.039
 4372POPC   NC356783   9.964  40.742   5.422
 4372POPC   PO456784   9.466  40.311   5.339
 4372POPC   GL156785   9.544  40.541   5.715
 4372POPC   GL256786   9.408  40.889   5.683
 4372POPC   C1A56787   9.871  40.549   6.075
 4372POPC   D2A56788   9.920  40.820   6.444
 4372POPC   C3A56789   9.875  40.671   6.874
 4372POPC   C4A56790   9.823  40.950   7.231
 4372POPC   C1B56791   9.446  40.829   6.149
 4372POPC   C2B56792   9.429  40.665   6.590
 4372POPC   C3B56793   9.376  40.782   7.024
 4372POPC   C4B56794   9.419  40.835   7.526
 4373POPC   NC356795  31.241  28.703   5.651
 4373POPC   PO456796  31.688  28.257   5.531
 4373POPC   GL156797  31.428  28.258   5.878
 4373POPC   GL256798  31.083  28.195   5.847
 4373POPC   C1A56799  31.311  28.404   6.282
 4373POPC   D2A56800  31.397  28.583   6.696
 4373POPC   C3A56801  31.757  28.464   6.926
 4373POPC   C4A56802  31.682  28.363   7.358
 4373POPC   C1B56803  31.021  27.968   6.263
 4373POPC   C2B56804  31.273  28.053   6.640
 4373POPC   C3B56805  31.298  28.186   7.057
 4373POPC   C4B56806  31.230  28.106   7.503
 4374POPC   NC356807   3.077   4.303   5.303
 4374POPC   PO456808   3.654   4.288   5.233
 4374POPC   GL156809   3.482   4.277   5.703
 4374POPC   GL256810   3.134   4.255   5.823
 4374POPC   C1A56811   3.483   4.160   6.195
 4374POPC   D2A56812   3.395   4.247   6.679
 4374POPC   C3A56813   3.697   4.331   7.051
 4374POPC   C4A56814   3.955   4.269   7.454
 4374POPC   C1B56815   3.130   4.530   6.229
 4374POPC   C2B56816   3.056   4.625   6.681
 4374POPC   C3B56817   3.200   4.489   7.126
 4374POPC   C4B56818   3.130   4.487   7.593
 4375POPC   NC356819  26.622  40.253   5.597
 4375POPC   PO456820  26.580  39.618   5.490
 4375POPC   GL156821  26.683  39.644   5.898
 4375POPC   GL256822  26.893  39.910   5.866
 4375POPC   C1A56823  26.788  39.641   6.341
 4375POPC   D2A56824  26.771  39.950   6.655
 4375POPC   C3A56825  26.776  39.899   7.099
 4375POPC   C4A56826  26.863  40.277   7.389
 4375POPC   C1B56827  27.049  40.096   6.226
 4375POPC   C2B56828  27.265  40.168   6.603
 4375POPC   C3B56829  27.264  39.924   6.951
 4375POPC   C4B56830  27.223  39.891   7.379
 4376POPC   NC356831   4.548  18.454   5.609
 4376POPC   PO456832   4.279  19.017   5.332
 4376POPC   GL156833   4.321  19.198   5.801
 4376POPC   GL256834   4.112  18.923   5.855
 4376POPC   C1A56835   4.236  19.224   6.281
 4376POPC   D2A56836   4.308  19.558   6.628
 4376POPC   C3A56837   4.178  19.436   7.043
 4376POPC   C4A56838   4.290  19.219   7.419
 4376POPC   C1B56839   3.926  18.794   6.229
 4376POPC   C2B56840   4.126  18.705   6.628
 4376POPC   C3B56841   4.154  18.892   7.018
 4376POPC   C4B56842   4.194  18.718   7.405
 4377POPC   NC356843   1.509  16.978   5.487
 4377POPC   PO456844   0.809  16.897   5.565
 4377POPC   GL156845   0.904  16.633   5.864
 4377POPC   GL256846   1.270  16.618   5.789
 4377POPC   C1A56847   0.885  16.640   6.330
 4377POPC   D2A56848   0.986  17.029   6.558
 4377POPC   C3A56849   1.171  17.012   6.970
 4377POPC   C4A56850   1.060  16.627   7.167
 4377POPC   C1B56851   1.397  16.622   6.236
 4377POPC   C2B56852   1.305  16.624   6.665
 4377POPC   C3B56853   1.558  16.617   7.005
 4377POPC   C4B56854   1.495  16.780   7.385
 4378POPC   NC356855  40.542  10.798   5.238
 4378POPC   PO456856  40.620  11.508   5.411
 4378POPC   GL156857  40.825  11.418   5.763
 4378POPC   GL256858  40.876  11.086   5.653
 4378POPC   C1A56859  40.765  11.400   6.194
 4378POPC   D2A56860  40.653  11.265   6.606
 4378POPC   C3A56861  40.856  11.455   6.936
 4378POPC   C4A56862  40.667  11.287   7.269
 4378POPC   C1B56863  41.035  10.983   6.062
 4378POPC   C2B56864  41.115  11.135   6.482
 4378POPC   C3B56865  40.998  10.977   6.890
 4378POPC   C4B56866  40.947  10.828   7.310
 4379POPC   NC356867  40.333  41.065   5.466
 4379POPC   PO456868  39.767  40.765   5.359
 4379POPC   GL156869  39.880  40.944   5.725
 4379POPC   GL256870  39.675  41.235   5.699
 4379POPC   C1A56871  40.069  40.884   6.110
 4379POPC   D2A56872  40.163  41.113   6.474
 4379POPC   C3A56873  40.252  40.796   6.779
 4379POPC   C4A56874  40.258  40.523   7.140
 4379POPC   C1B56875  39.577  41.076   6.148
 4379POPC   C2B56876  39.715  40.850   6.521
 4379POPC   C3B56877  39.834  41.103   6.865
 4379POPC   C4B56878  40.090  41.038   7.195
 4380POPC   NC356879   0.155  32.983   5.521
 4380POPC   PO456880   0.711  32.833   5.241
 4380POPC   GL156881   0.615  32.742   5.693
 4380POPC   GL256882   0.554  33.089   5.849
 4380POPC   C1A56883   0.499  32.710   6.161
 4380POPC   D2A56884   0.652  32.862   6.554
 4380POPC   C3A56885   0.378  32.877   6.909
 4380POPC   C4A56886   0.416  32.662   7.300
 4380POPC   C1B56887   0.168  33.098   6.157
 4380POPC   C2B56888  44.879  33.223   6.486
 4380POPC   C3B56889  44.963  33.214   6.910
 4380POPC   C4B56890   0.144  33.089   7.310
 4381POPC   NC356891  23.481   1.372   5.041
 4381POPC   PO456892  24.007   1.114   5.452
 4381POPC   GL156893  23.758   1.218   5.796
 4381POPC   GL256894  23.490   1.347   5.597
 4381POPC   C1A56895  23.648   1.056   6.204
 4381POPC   D2A56896  23.857   1.124   6.614
 4381POPC   C3A56897  23.766   1.000   7.042
 4381POPC   C4A56898  24.075   1.060   7.370
 4381POPC   C1B56899  23.374   1.491   6.027
 4381POPC   C2B56900  23.469   1.456   6.479
 4381POPC   C3B56901  23.488   1.685   6.872
 4381POPC   C4B56902  23.518   1.547   7.289
 4382POPC   NC356903  13.000   2.199   5.333
 4382POPC   PO456904  12.496   1.754   5.487
 4382POPC   GL156905  12.785   1.923   5.830
 4382POPC   GL256906  13.164   1.960   5.821
 4382POPC   C1A56907  12.721   2.093   6.250
 4382POPC   D2A56908  12.346   2.224   6.471
 4382POPC   C3A56909  12.483   2.292   6.883
 4382POPC   C4A56910  12.694   1.982   7.087
 4382POPC   C1B56911  13.203   1.899   6.296
 4382POPC   C2B56912  13.063   2.064   6.721
 4382POPC   C3B56913  13.153   2.166   7.155
 4382POPC   C4B56914  13.222   2.244   7.591
 4383POPC   NC356915  38.751  19.085   5.298
 4383POPC   PO456916  38.092  18.982   5.361
 4383POPC   GL156917  38.213  19.107   5.792
 4383POPC   GL256918  38.584  19.206   5.765
 4383POPC   C1A56919  38.248  18.978   6.257
 4383POPC   D2A56920  38.593  18.918   6.567
 4383POPC   C3A56921  38.555  18.696   6.965
 4383POPC   C4A56922  38.498  18.982   7.304
 4383POPC   C1B56923  38.529  19.405   6.134
 4383POPC   C2B56924  38.499  19.495   6.538
 4383POPC   C3B56925  38.550  19.321   6.905
 4383POPC   C4B56926  38.733  19.416   7.273
 4384POPC   NC356927   0.106  34.316   5.546
 4384POPC   PO456928  44.703  34.837   5.399
 4384POPC   GL156929  44.753  34.599   5.837
 4384POPC   GL256930  44.590  34.277   5.953
 4384POPC   C1A56931  44.881  34.571   6.291
 4384POPC   D2A56932   0.046  34.727   6.690
 4384POPC   C3A56933  44.844  34.742   7.113
 4384POPC   C4A56934  44.577  34.738   7.504
 4384POPC   C1B56935  44.975  34.101   6.138
 4384POPC   C2B56936   0.143  34.194   6.561
 4384POPC   C3B56937  44.935  34.271   6.935
 4384POPC   C4B56938  44.767  34.283   7.335
 4385POPC   NC356939  44.169   1.328   5.555
 4385POPC   PO456940  43.966   0.791   5.150
 4385POPC   GL156941  43.822   0.872   5.642
 4385POPC   GL256942  43.545   0.741   5.905
 4385POPC   C1A56943  43.948   1.029   6.091
 4385POPC   D2A56944  43.871   1.353   6.430
 4385POPC   C3A56945  43.937   1.332   6.886
 4385POPC   C4A56946  44.260   1.482   7.172
 4385POPC   C1B56947  43.595   0.828   6.383
 4385POPC   C2B56948  44.038   0.811   6.560
 4385POPC   C3B56949  44.255   0.903   6.914
 4385POPC   C4B56950  44.087   1.022   7.302
 4386POPC   NC356951  20.551  36.707   5.360
 4386POPC   PO456952  20.165  37.228   5.346
 4386POPC   GL156953  20.612  37.174   5.635
 4386POPC   GL256954  20.901  36.873   5.688
 4386POPC   C1A56955  20.852  37.178   6.077
 4386POPC   D2A56956  20.960  36.921   6.463
 4386POPC   C3A56957  20.720  37.003   6.824
 4386POPC   C4A56958  20.825  37.110   7.206
 4386POPC   C1B56959  20.757  36.622   6.102
 4386POPC   C2B56960  20.632  36.539   6.600
 4386POPC   C3B56961  20.616  36.584   7.091
 4386POPC   C4B56962  20.486  36.431   7.511
 4387POPC   NC356963   0.744  21.800   5.616
 4387POPC   PO456964   0.187  21.654   5.255
 4387POPC   GL156965   0.272  21.427   5.695
 4387POPC   GL256966   0.145  21.092   5.773
 4387POPC   C1A56967   0.437  21.455   6.141
 4387POPC   D2A56968   0.103  21.425   6.467
 4387POPC   C3A56969   0.175  21.233   6.834
 4387POPC   C4A56970   0.437  21.357   7.166
 4387POPC   C1B56971   0.257  21.000   6.194
 4387POPC   C2B56972   0.536  20.990   6.544
 4387POPC   C3B56973   0.558  20.897   6.993
 4387POPC   C4B56974   0.905  21.117   7.214
 4388POPC   NC356975  27.887  29.562   5.390
 4388POPC   PO456976  27.533  28.977   5.375
 4388POPC   GL156977  27.674  29.213   5.713
 4388POPC   GL256978  27.442  29.497   5.789
 4388POPC   C1A56979  27.871  29.041   6.081
 4388POPC   D2A56980  27.939  29.179   6.489
 4388POPC   C3A56981  27.851  28.945   6.831
 4388POPC   C4A56982  27.753  29.073   7.227
 4388POPC   C1B56983  27.509  29.384   6.175
 4388POPC   C2B56984  27.587  29.543   6.538
 4388POPC   C3B56985  27.493  29.359   6.886
 4388POPC   C4B56986  27.265  29.256   7.250
 4389POPC   NC356987   5.668  33.889   5.428
 4389POPC   PO456988   6.033  33.292   5.434
 4389POPC   GL156989   5.895  33.554   5.759
 4389POPC   GL256990   6.088  33.852   5.804
 4389POPC   C1A56991   5.678  33.700   6.130
 4389POPC   D2A56992   5.756  33.895   6.538
 4389POPC   C3A56993   5.582  33.702   6.914
 4389POPC   C4A56994   5.754  33.660   7.278
 4389POPC   C1B56995   6.194  33.626   6.186
 4389POPC   C2B56996   6.178  33.530   6.597
 4389POPC   C3B56997   6.093  33.780   6.931
 4389POPC   C4B56998   6.290  33.980   7.254
 4390POPC   NC356999  25.473  16.025   4.903
 4390POPC   PO457000  24.953  15.744   5.306
 4390POPC   GL157001  25.004  15.803   5.751
 4390POPC   GL257002  25.348  15.939   5.807
 4390POPC   C1A57003  25.024  15.874   6.197
 4390POPC   D2A57004  25.345  15.869   6.487
 4390POPC   C3A57005  25.280  16.113   6.829
 4390POPC   C4A57006  25.072  15.848   7.112
 4390POPC   C1B57007  25.693  15.849   6.114
 4390POPC   C2B57008  25.833  15.697   6.519
 4390POPC   C3B57009  25.634  15.740   6.920
 4390POPC   C4B57010  25.532  15.843   7.328
 4391POPC   NC357011  10.254  11.468   5.395
 4391POPC   PO457012  10.507  10.898   5.358
 4391POPC   GL157013  10.405  11.122   5.767
 4391POPC   GL257014  10.677  11.382   5.798
 4391POPC   C1A57015  10.545  11.144   6.231
 4391POPC   D2A57016  10.535  11.268   6.691
 4391POPC   C3A57017  10.534  10.973   7.045
 4391POPC   C4A57018  10.450  10.955   7.512
 4391POPC   C1B57019  10.865  11.531   6.216
 4391POPC   C2B57020  10.921  11.627   6.661
 4391POPC   C3B57021  10.638  11.693   7.031
 4391POPC   C4B57022  10.505  11.431   7.357
 4392POPC   NC357023  38.525  20.301   5.699
 4392POPC   PO457024  38.132  20.763   5.392
 4392POPC   GL157025  38.371  20.804   5.790
 4392POPC   GL257026  38.747  20.877   5.835
 4392POPC   C1A57027  38.380  20.650   6.225
 4392POPC   D2A57028  38.127  20.356   6.487
 4392POPC   C3A57029  38.348  20.293   6.877
 4392POPC   C4A57030  38.438  20.420   7.288
 4392POPC   C1B57031  38.842  20.952   6.297
 4392POPC   C2B57032  38.603  20.858   6.642
 4392POPC   C3B57033  38.717  20.763   7.033
 4392POPC   C4B57034  38.867  21.029   7.340
 4393POPC   NC357035  24.568   6.249   5.451
 4393POPC   PO457036  24.226   5.685   5.715
 4393POPC   GL157037  24.367   6.014   5.890
 4393POPC   GL257038  24.314   5.825   6.194
 4393POPC   C1A57039  24.658   6.199   6.186
 4393POPC   D2A57040  24.800   6.312   6.593
 4393POPC   C3A57041  24.598   6.218   6.972
 4393POPC   C4A57042  24.645   5.839   7.235
 4393POPC   C1B57043  24.714   5.645   6.269
 4393POPC   C2B57044  24.673   5.795   6.667
 4393POPC   C3B57045  24.267   5.840   6.867
 4393POPC   C4B57046  24.067   5.724   7.230
 4394POPC   NC357047   6.203   8.392   5.271
 4394POPC   PO457048   6.615   7.760   5.441
 4394POPC   GL157049   6.591   8.033   5.825
 4394POPC   GL257050   6.424   8.293   5.746
 4394POPC   C1A57051   6.863   8.230   6.165
 4394POPC   D2A57052   6.685   8.121   6.586
 4394POPC   C3A57053   6.851   8.367   6.900
 4394POPC   C4A57054   6.984   8.364   7.319
 4394POPC   C1B57055   6.373   8.325   6.209
 4394POPC   C2B57056   6.284   8.483   6.639
 4394POPC   C3B57057   6.273   8.259   7.051
 4394POPC   C4B57058   6.249   8.306   7.550
 4395POPC   NC357059  36.593  17.996   5.474
 4395POPC   PO457060  35.980  18.256   5.244
 4395POPC   GL157061  36.195  18.316   5.650
 4395POPC   GL257062  36.019  18.068   5.826
 4395POPC   C1A57063  36.270  18.410   6.133
 4395POPC   D2A57064  36.084  18.267   6.566
 4395POPC   C3A57065  36.040  18.497   7.017
 4395POPC   C4A57066  35.978  18.530   7.521
 4395POPC   C1B57067  35.911  17.870   6.225
 4395POPC   C2B57068  36.093  17.749   6.631
 4395POPC   C3B57069  36.269  18.026   6.996
 4395POPC   C4B57070  36.026  18.066   7.379
 4396POPC   NC357071  40.282  31.323   5.617
 4396POPC   PO457072  39.960  30.769   5.334
 4396POPC   GL157073  40.100  30.752   5.819
 4396POPC   GL257074  40.326  30.982   5.980
 4396POPC   C1A57075  40.087  30.623   6.265
 4396POPC   D2A57076  40.029  30.714   6.720
 4396POPC   C3A57077  39.967  30.380   6.999
 4396POPC   C4A57078  39.742  30.374   7.355
 4396POPC   C1B57079  40.294  31.065   6.431
 4396POPC   C2B57080  40.326  31.085   6.888
 4396POPC   C3B57081  40.298  30.742   7.221
 4396POPC   C4B57082  40.056  30.691   7.609
 4397POPC   NC357083  17.905   0.964   5.132
 4397POPC   PO457084  18.368   1.345   5.442
 4397POPC   GL157085  18.436   1.022   5.736
 4397POPC   GL257086  18.588   1.277   5.959
 4397POPC   C1A57087  18.295   0.920   6.160
 4397POPC   D2A57088  18.186   1.257   6.465
 4397POPC   C3A57089  18.248   1.105   6.881
 4397POPC   C4A57090  18.002   1.233   7.259
 4397POPC   C1B57091  18.528   1.630   6.228
 4397POPC   C2B57092  18.233   1.793   6.531
 4397POPC   C3B57093  18.048   1.589   6.882
 4397POPC   C4B57094  18.413   1.492   7.176
 4398POPC   NC357095  26.769  30.058   5.237
 4398POPC   PO457096  27.386  29.671   5.332
 4398POPC   GL157097  26.956  29.738   5.611
 4398POPC   GL257098  26.814  30.091   5.745
 4398POPC   C1A57099  26.646  29.689   6.016
 4398POPC   D2A57100  26.729  29.810   6.469
 4398POPC   C3A57101  26.595  29.846   6.899
 4398POPC   C4A57102  26.750  29.893   7.329
 4398POPC   C1B57103  26.475  30.162   6.095
 4398POPC   C2B57104  26.364  30.271   6.539
 4398POPC   C3B57105  26.341  30.279   6.986
 4398POPC   C4B57106  26.660  30.398   7.286
 4399POPC   NC357107  31.266  38.273   5.299
 4399POPC   PO457108  31.601  38.759   5.423
 4399POPC   GL157109  31.510  38.670   5.823
 4399POPC   GL257110  31.391  38.327   5.819
 4399POPC   C1A57111  31.533  38.642   6.255
 4399POPC   D2A57112  31.379  38.347   6.543
 4399POPC   C3A57113  31.578  38.403   6.910
 4399POPC   C4A57114  31.580  38.809   7.015
 4399POPC   C1B57115  31.128  38.113   6.152
 4399POPC   C2B57116  31.065  37.964   6.598
 4399POPC   C3B57117  31.132  38.147   7.033
 4399POPC   C4B57118  30.853  38.143   7.380
 4400POPC   NC357119  11.426  25.339   5.459
 4400POPC   PO457120  10.772  25.109   5.494
 4400POPC   GL157121  11.004  25.358   5.816
 4400POPC   GL257122  11.354  25.219   5.949
 4400POPC   C1A57123  11.017  25.498   6.239
 4400POPC   D2A57124  10.997  25.285   6.620
 4400POPC   C3A57125  11.191  25.410   6.979
 4400POPC   C4A57126  11.092  25.127   7.285
 4400POPC   C1B57127  11.543  25.600   6.143
 4400POPC   C2B57128  11.666  25.775   6.544
 4400POPC   C3B57129  11.712  25.520   6.936
 4400POPC   C4B57130  11.519  25.425   7.374
 4401POPC   NC357131   3.716  18.506   5.464
 4401POPC   PO457132   3.227  18.109   5.383
 4401POPC   GL157133   3.379  18.283   5.760
 4401POPC   GL257134   3.688  18.062   5.731
 4401POPC   C1A57135   3.614  18.384   6.165
 4401POPC   D2A57136   3.457  18.412   6.596
 4401POPC   C3A57137   3.764  18.506   6.947
 4401POPC   C4A57138   3.556  18.465   7.284
 4401POPC   C1B57139   3.482  17.914   6.088
 4401POPC   C2B57140   3.546  17.897   6.495
 4401POPC   C3B57141   3.647  18.025   6.875
 4401POPC   C4B57142   3.791  18.027   7.265
 4402POPC   NC357143  43.354  20.749   5.593
 4402POPC   PO457144  43.952  20.644   5.171
 4402POPC   GL157145  43.863  20.640   5.647
 4402POPC   GL257146  43.730  20.325   5.745
 4402POPC   C1A57147  43.779  20.734   6.126
 4402POPC   D2A57148  43.974  20.600   6.539
 4402POPC   C3A57149  43.981  20.774   6.968
 4402POPC   C4A57150  44.146  21.150   7.196
 4402POPC   C1B57151  43.993  20.253   6.134
 4402POPC   C2B57152  43.983  20.098   6.589
 4402POPC   C3B57153  43.857  20.249   7.037
 4402POPC   C4B57154  43.881  20.521   7.420
 4403POPC   NC357155  28.630  10.416   4.948
 4403POPC   PO457156  28.390  10.853   5.348
 4403POPC   GL157157  28.340  10.731   5.791
 4403POPC   GL257158  28.598  10.925   5.942
 4403POPC   C1A57159  28.277  10.505   6.216
 4403POPC   D2A57160  28.236  10.303   6.638
 4403POPC   C3A57161  28.111  10.519   7.028
 4403POPC   C4A57162  28.394  10.752   7.314
 4403POPC   C1B57163  28.275  11.020   6.303
 4403POPC   C2B57164  28.258  11.023   6.791
 4403POPC   C3B57165  27.989  11.012   7.176
 4403POPC   C4B57166  27.992  10.866   7.631
 4404POPC   NC357167  37.220  42.855   5.434
 4404POPC   PO457168  36.854  43.367   5.098
 4404POPC   GL157169  36.918  43.302   5.588
 4404POPC   GL257170  36.713  43.053   5.750
 4404POPC   C1A57171  37.111  43.342   6.022
 4404POPC   D2A57172  37.047  43.300   6.497
 4404POPC   C3A57173  37.214  43.351   6.932
 4404POPC   C4A57174  36.948  43.440   7.335
 4404POPC   C1B57175  36.938  42.867   6.112
 4404POPC   C2B57176  36.882  42.812   6.562
 4404POPC   C3B57177  36.768  43.089   6.902
 4404POPC   C4B57178  36.922  42.946   7.267
 4405POPC   NC357179   7.877  39.482   5.427
 4405POPC   PO457180   8.298  39.994   5.229
 4405POPC   GL157181   8.344  39.936   5.687
 4405POPC   GL257182   8.204  39.601   5.816
 4405POPC   C1A57183   8.279  40.078   6.143
 4405POPC   D2A57184   8.263  40.384   6.517
 4405POPC   C3A57185   8.400  40.258   6.903
 4405POPC   C4A57186   8.247  40.101   7.273
 4405POPC   C1B57187   8.090  39.601   6.272
 4405POPC   C2B57188   8.118  39.730   6.735
 4405POPC   C3B57189   8.123  39.598   7.187
 4405POPC   C4B57190   8.395  39.659   7.547
 4406POPC   NC357191  17.887   1.026   5.630
 4406POPC   PO457192  17.714   1.552   5.317
 4406POPC   GL157193  17.465   1.406   5.694
 4406POPC   GL257194  17.440   1.070   5.827
 4406POPC   C1A57195  17.426   1.421   6.168
 4406POPC   D2A57196  17.685   1.415   6.524
 4406POPC   C3A57197  17.475   1.469   6.903
 4406POPC   C4A57198  17.626   1.566   7.291
 4406POPC   C1B57199  17.660   0.914   6.219
 4406POPC   C2B57200  17.961   0.811   6.547
 4406POPC   C3B57201  17.748   1.026   6.857
 4406POPC   C4B57202  17.530   1.056   7.214
 4407POPC   NC357203   2.570   3.631   5.244
 4407POPC   PO457204   2.939   3.131   5.382
 4407POPC   GL157205   2.644   3.347   5.666
 4407POPC   GL257206   2.856   3.659   5.703
 4407POPC   C1A57207   2.529   3.534   6.076
 4407POPC   D2A57208   2.507   3.433   6.507
 4407POPC   C3A57209   2.744   3.562   6.879
 4407POPC   C4A57210   2.786   3.554   7.309
 4407POPC   C1B57211   2.916   3.874   6.138
 4407POPC   C2B57212   2.968   3.957   6.610
 4407POPC   C3B57213   3.166   3.824   7.048
 4407POPC   C4B57214   3.240   3.627   7.507
 4408POPC   NC357215  41.434   1.489   5.406
 4408POPC   PO457216  42.062   1.302   5.181
 4408POPC   GL157217  41.940   1.255   5.650
 4408POPC   GL257218  41.808   1.542   5.828
 4408POPC   C1A57219  41.855   1.157   6.154
 4408POPC   D2A57220  41.611   1.042   6.582
 4408POPC   C3A57221  41.480   1.203   7.033
 4408POPC   C4A57222  41.209   1.095   7.425
 4408POPC   C1B57223  41.408   1.428   6.114
 4408POPC   C2B57224  41.235   1.413   6.562
 4408POPC   C3B57225  41.242   1.664   6.944
 4408POPC   C4B57226  41.438   1.604   7.387
 4409POPC   NC357227   9.387  20.709   5.376
 4409POPC   PO457228   8.721  20.517   5.347
 4409POPC   GL157229   8.971  20.434   5.704
 4409POPC   GL257230   9.071  20.742   5.798
 4409POPC   C1A57231   9.095  20.374   6.148
 4409POPC   D2A57232   8.959  20.252   6.546
 4409POPC   C3A57233   9.031  20.464   6.922
 4409POPC   C4A57234   9.266  20.477   7.313
 4409POPC   C1B57235   8.901  20.901   6.183
 4409POPC   C2B57236   8.970  20.931   6.600
 4409POPC   C3B57237   8.770  20.882   6.956
 4409POPC   C4B57238   8.916  20.844   7.284
 4410POPC   NC357239  14.135  20.046   5.513
 4410POPC   PO457240  14.329  19.578   5.171
 4410POPC   GL157241  14.280  19.597   5.737
 4410POPC   GL257242  14.021  19.724   5.942
 4410POPC   C1A57243  14.482  19.662   6.202
 4410POPC   D2A57244  14.520  19.956   6.608
 4410POPC   C3A57245  14.622  19.829   7.082
 4410POPC   C4A57246  14.766  19.954   7.515
 4410POPC   C1B57247  14.217  20.079   6.181
 4410POPC   C2B57248  14.123  20.255   6.561
 4410POPC   C3B57249  14.186  20.107   6.967
 4410POPC   C4B57250  14.120  19.701   7.173
 4411POPC   NC357251  42.709  33.652   5.505
 4411POPC   PO457252  42.232  34.010   5.262
 4411POPC   GL157253  42.257  33.924   5.712
 4411POPC   GL257254  42.283  33.595   5.790
 4411POPC   C1A57255  42.060  33.892   6.155
 4411POPC   D2A57256  42.023  33.729   6.578
 4411POPC   C3A57257  42.237  33.926   6.929
 4411POPC   C4A57258  42.279  33.940   7.378
 4411POPC   C1B57259  42.468  33.563   6.219
 4411POPC   C2B57260  42.618  33.697   6.649
 4411POPC   C3B57261  42.708  33.746   7.099
 4411POPC   C4B57262  42.581  33.438   7.389
 4412POPC   NC357263  36.917   7.606   5.351
 4412POPC   PO457264  36.420   7.075   5.321
 4412POPC   GL157265  36.681   7.095   5.752
 4412POPC   GL257266  36.891   7.380   5.811
 4412POPC   C1A57267  36.526   7.158   6.204
 4412POPC   D2A57268  36.350   7.298   6.610
 4412POPC   C3A57269  36.623   7.119   6.918
 4412POPC   C4A57270  37.041   7.262   7.069
 4412POPC   C1B57271  36.748   7.601   6.194
 4412POPC   C2B57272  36.835   7.494   6.620
 4412POPC   C3B57273  36.656   7.630   7.011
 4412POPC   C4B57274  36.744   7.644   7.457
 4413POPC   NC357275  10.094  10.701   5.437
 4413POPC   PO457276   9.450  10.421   5.406
 4413POPC   GL157277   9.675  10.382   5.801
 4413POPC   GL257278   9.934  10.144   5.763
 4413POPC   C1A57279   9.702  10.265   6.251
 4413POPC   D2A57280   9.616  10.256   6.696
 4413POPC   C3A57281   9.689  10.637   6.944
 4413POPC   C4A57282   9.621  10.542   7.365
 4413POPC   C1B57283  10.198  10.182   6.137
 4413POPC   C2B57284  10.146  10.367   6.545
 4413POPC   C3B57285  10.076  10.315   6.960
 4413POPC   C4B57286  10.145  10.642   7.224
 4414POPC   NC357287  20.213  39.329   5.479
 4414POPC   PO457288  20.827  39.024   5.336
 4414POPC   GL157289  20.775  39.141   5.760
 4414POPC   GL257290  20.422  39.064   5.860
 4414POPC   C1A57291  20.774  39.143   6.213
 4414POPC   D2A57292  20.652  38.965   6.574
 4414POPC   C3A57293  20.783  39.154   6.946
 4414POPC   C4A57294  20.794  39.171   7.366
 4414POPC   C1B57295  20.274  39.236   6.282
 4414POPC   C2B57296  20.431  39.427   6.685
 4414POPC   C3B57297  20.289  39.311   7.112
 4414POPC   C4B57298  20.006  39.112   7.418
 4415POPC   NC357299  33.248   2.868   5.330
 4415POPC   PO457300  33.939   2.698   5.234
 4415POPC   GL157301  33.904   2.854   5.666
 4415POPC   GL257302  33.566   2.945   5.737
 4415POPC   C1A57303  33.992   2.799   6.136
 4415POPC   D2A57304  33.795   2.769   6.556
 4415POPC   C3A57305  34.007   2.817   6.957
 4415POPC   C4A57306  33.847   2.604   7.311
 4415POPC   C1B57307  33.451   3.150   6.108
 4415POPC   C2B57308  33.330   3.069   6.528
 4415POPC   C3B57309  33.532   3.060   6.920
 4415POPC   C4B57310  33.455   2.996   7.352
 4416POPC   NC357311  20.110   3.545   5.369
 4416POPC   PO457312  19.443   3.578   5.393
 4416POPC   GL157313  19.716   3.380   5.717
 4416POPC   GL257314  19.889   3.682   5.835
 4416POPC   C1A57315  19.849   3.269   6.174
 4416POPC   D2A57316  19.558   3.240   6.565
 4416POPC   C3A57317  19.528   3.425   6.960
 4416POPC   C4A57318  19.768   3.332   7.363
 4416POPC   C1B57319  20.023   3.743   6.274
 4416POPC   C2B57320  19.994   3.515   6.670
 4416POPC   C3B57321  19.947   3.710   7.061
 4416POPC   C4B57322  20.088   3.711   7.477
 4417POPC   NC357323  12.088  29.657   5.499
 4417POPC   PO457324  12.059  30.355   5.495
 4417POPC   GL157325  11.900  30.053   5.766
 4417POPC   GL257326  11.642  29.785   5.784
 4417POPC   C1A57327  12.046  29.817   6.126
 4417POPC   D2A57328  12.300  29.691   6.463
 4417POPC   C3A57329  12.111  29.789   6.837
 4417POPC   C4A57330  12.078  29.474   7.150
 4417POPC   C1B57331  11.542  30.115   6.123
 4417POPC   C2B57332  11.618  30.306   6.539
 4417POPC   C3B57333  11.509  30.265   6.980
 4417POPC   C4B57334  11.804  30.063   7.267
 4418POPC   NC357335  31.472  10.649   5.678
 4418POPC   PO457336  31.062  11.135   5.283
 4418POPC   GL157337  31.149  11.234   5.707
 4418POPC   GL257338  31.502  11.259   5.706
 4418POPC   C1A57339  31.223  11.410   6.121
 4418POPC   D2A57340  31.179  11.178   6.502
 4418POPC   C3A57341  31.304  11.397   6.844
 4418POPC   C4A57342  31.372  11.266   7.233
 4418POPC   C1B57343  31.648  11.130   6.119
 4418POPC   C2B57344  31.721  11.244   6.551
 4418POPC   C3B57345  31.816  11.265   6.980
 4418POPC   C4B57346  32.106  11.462   7.219
 4419POPC   NC357347  22.555  25.406   5.432
 4419POPC   PO457348  23.083  25.063   5.207
 4419POPC   GL157349  23.038  25.138   5.696
 4419POPC   GL257350  22.745  25.214   5.859
 4419POPC   C1A57351  23.134  25.111   6.186
 4419POPC   D2A57352  23.171  25.384   6.574
 4419POPC   C3A57353  23.019  25.304   7.000
 4419POPC   C4A57354  23.249  25.016   7.261
 4419POPC   C1B57355  22.836  25.538   6.175
 4419POPC   C2B57356  22.854  25.800   6.546
 4419POPC   C3B57357  22.673  25.746   6.945
 4419POPC   C4B57358  22.744  25.613   7.346
 4420POPC   NC357359  31.201  40.745   4.988
 4420POPC   PO457360  31.712  40.901   5.448
 4420POPC   GL157361  31.655  40.700   5.834
 4420POPC   GL257362  31.305  40.553   5.924
 4420POPC   C1A57363  31.509  40.898   6.226
 4420POPC   D2A57364  31.309  40.734   6.561
 4420POPC   C3A57365  31.414  41.003   6.906
 4420POPC   C4A57366  31.626  40.925   7.270
 4420POPC   C1B57367  31.578  40.389   6.223
 4420POPC   C2B57368  31.774  40.500   6.555
 4420POPC   C3B57369  31.589  40.514   6.939
 4420POPC   C4B57370  31.732  40.411   7.309
 4421POPC   NC357371  16.723   1.902   5.005
 4421POPC   PO457372  16.957   2.207   5.570
 4421POPC   GL157373  16.686   2.082   5.897
 4421POPC   GL257374  16.558   1.768   5.817
 4421POPC   C1A57375  16.615   2.115   6.326
 4421POPC   D2A57376  16.564   2.387   6.646
 4421POPC   C3A57377  16.848   2.249   6.916
 4421POPC   C4A57378  16.808   2.130   7.293
 4421POPC   C1B57379  16.460   1.626   6.247
 4421POPC   C2B57380  16.612   1.733   6.693
 4421POPC   C3B57381  16.642   1.653   7.181
 4421POPC   C4B57382  16.503   1.474   7.599
 4422POPC   NC357383   8.675  14.788   5.686
 4422POPC   PO457384   9.016  14.295   5.275
 4422POPC   GL157385   9.077  14.451   5.678
 4422POPC   GL257386   8.777  14.299   5.822
 4422POPC   C1A57387   9.303  14.285   6.030
 4422POPC   D2A57388   9.107  14.074   6.376
 4422POPC   C3A57389   9.175  14.170   6.799
 4422POPC   C4A57390   9.148  14.094   7.235
 4422POPC   C1B57391   8.901  14.516   6.229
 4422POPC   C2B57392   9.002  14.629   6.648
 4422POPC   C3B57393   8.878  14.521   7.032
 4422POPC   C4B57394   8.702  14.800   7.302
 4423POPC   NC357395   6.141  20.292   5.751
 4423POPC   PO457396   6.071  20.913   5.451
 4423POPC   GL157397   6.094  20.792   5.864
 4423POPC   GL257398   5.790  20.634   5.938
 4423POPC   C1A57399   6.184  20.683   6.287
 4423POPC   D2A57400   5.982  20.525   6.639
 4423POPC   C3A57401   5.943  20.650   7.064
 4423POPC   C4A57402   5.989  20.295   7.354
 4423POPC   C1B57403   5.596  20.352   6.220
 4423POPC   C2B57404   5.642  20.142   6.562
 4423POPC   C3B57405   5.566  20.354   6.904
 4423POPC   C4B57406   5.488  20.454   7.276
 4424POPC   NC357407  42.411  17.154   5.545
 4424POPC   PO457408  42.338  17.839   5.296
 4424POPC   GL157409  42.197  17.672   5.707
 4424POPC   GL257410  42.514  17.604   5.847
 4424POPC   C1A57411  42.129  17.544   6.178
 4424POPC   D2A57412  42.361  17.549   6.604
 4424POPC   C3A57413  42.333  17.633   7.062
 4424POPC   C4A57414  42.172  17.541   7.515
 4424POPC   C1B57415  42.692  17.397   6.220
 4424POPC   C2B57416  42.707  17.142   6.602
 4424POPC   C3B57417  42.494  17.129   6.986
 4424POPC   C4B57418  42.606  17.299   7.361
 4425POPC   NC357419  26.578  26.271   5.653
 4425POPC   PO457420  26.965  25.832   5.237
 4425POPC   GL157421  26.823  25.811   5.646
 4425POPC   GL257422  27.032  26.084   5.793
 4425POPC   C1A57423  26.759  25.775   6.105
 4425POPC   D2A57424  26.905  25.634   6.506
 4425POPC   C3A57425  26.793  25.910   6.863
 4425POPC   C4A57426  26.986  25.839   7.272
 4425POPC   C1B57427  26.902  26.273   6.215
 4425POPC   C2B57428  26.851  26.394   6.656
 4425POPC   C3B57429  27.008  26.339   7.089
 4425POPC   C4B57430  27.130  26.285   7.513
 4426POPC   NC357431  42.485   5.714   5.201
 4426POPC   PO457432  42.051   6.237   5.376
 4426POPC   GL157433  42.127   6.003   5.768
 4426POPC   GL257434  42.438   5.793   5.746
 4426POPC   C1A57435  42.296   6.111   6.181
 4426POPC   D2A57436  42.460   6.007   6.580
 4426POPC   C3A57437  42.209   6.018   6.937
 4426POPC   C4A57438  42.301   6.032   7.349
 4426POPC   C1B57439  42.633   5.749   6.165
 4426POPC   C2B57440  42.633   5.518   6.542
 4426POPC   C3B57441  42.570   5.635   6.944
 4426POPC   C4B57442  42.658   5.554   7.355
 4427POPC   NC357443  44.519  22.925   5.465
 4427POPC   PO457444   0.159  23.119   5.599
 4427POPC   GL157445   0.001  22.858   5.888
 4427POPC   GL257446  44.675  22.988   5.949
 4427POPC   C1A57447   0.090  22.955   6.298
 4427POPC   D2A57448  44.834  23.116   6.602
 4427POPC   C3A57449  44.755  22.791   6.912
 4427POPC   C4A57450  44.799  22.889   7.339
 4427POPC   C1B57451  44.374  23.037   6.274
 4427POPC   C2B57452  44.303  22.991   6.715
 4427POPC   C3B57453  44.218  22.868   7.156
 4427POPC   C4B57454  44.398  22.607   7.479
 4428POPC   NC357455  32.412  36.151   5.510
 4428POPC   PO457456  32.027  35.725   5.276
 4428POPC   GL157457  32.065  35.829   5.767
 4428POPC   GL257458  32.240  36.100   5.968
 4428POPC   C1A57459  31.899  35.824   6.192
 4428POPC   D2A57460  32.098  36.034   6.557
 4428POPC   C3A57461  32.088  35.860   6.986
 4428POPC   C4A57462  32.309  36.103   7.264
 4428POPC   C1B57463  32.161  36.426   6.241
 4428POPC   C2B57464  32.352  36.481   6.607
 4428POPC   C3B57465  32.212  36.548   7.014
 4428POPC   C4B57466  32.443  36.583   7.389
 4429POPC   NC357467   2.931  37.993   5.356
 4429POPC   PO457468   2.584  37.438   5.468
 4429POPC   GL157469   2.761  37.646   5.811
 4429POPC   GL257470   2.775  38.019   5.834
 4429POPC   C1A57471   2.676  37.727   6.236
 4429POPC   D2A57472   2.776  37.581   6.607
 4429POPC   C3A57473   2.688  37.913   6.871
 4429POPC   C4A57474   2.660  37.784   7.297
 4429POPC   C1B57475   3.101  38.027   6.142
 4429POPC   C2B57476   3.180  37.887   6.551
 4429POPC   C3B57477   3.167  38.017   6.985
 4429POPC   C4B57478   3.058  38.123   7.406
 4430POPC   NC357479  38.975  41.957   5.253
 4430POPC   PO457480  39.184  42.611   5.488
 4430POPC   GL157481  39.179  42.187   5.691
 4430POPC   GL257482  39.543  42.081   5.676
 4430POPC   C1A57483  39.049  42.195   6.138
 4430POPC   D2A57484  39.190  42.572   6.414
 4430POPC   C3A57485  39.125  42.428   6.834
 4430POPC   C4A57486  38.992  42.653   7.210
 4430POPC   C1B57487  39.553  42.301   6.080
 4430POPC   C2B57488  39.437  42.133   6.487
 4430POPC   C3B57489  39.414  42.003   6.891
 4430POPC   C4B57490  39.274  42.201   7.269
 4431POPC   NC357491  43.915  29.492   5.371
 4431POPC   PO457492  44.254  28.864   5.459
 4431POPC   GL157493  44.022  29.165   5.764
 4431POPC   GL257494  44.241  29.459   5.745
 4431POPC   C1A57495  43.723  29.202   6.149
 4431POPC   D2A57496  43.492  29.295   6.562
 4431POPC   C3A57497  43.684  29.187   6.959
 4431POPC   C4A57498  44.064  29.029   7.176
 4431POPC   C1B57499  44.168  29.508   6.166
 4431POPC   C2B57500  43.997  29.373   6.557
 4431POPC   C3B57501  44.092  29.507   6.969
 4431POPC   C4B57502  44.093  29.855   7.245
 4432POPC   NC357503  13.710  20.944   5.216
 4432POPC   PO457504  13.940  20.451   5.495
 4432POPC   GL157505  13.668  20.628   5.763
 4432POPC   GL257506  13.771  20.929   5.705
 4432POPC   C1A57507  13.487  20.589   6.166
 4432POPC   D2A57508  13.661  20.457   6.570
 4432POPC   C3A57509  13.545  20.389   6.990
 4432POPC   C4A57510  13.827  20.244   7.299
 4432POPC   C1B57511  13.807  21.015   6.119
 4432POPC   C2B57512  13.602  20.960   6.513
 4432POPC   C3B57513  13.755  21.028   6.904
 4432POPC   C4B57514  13.725  20.778   7.272
 4433POPC   NC357515  17.175   1.589   5.210
 4433POPC   PO457516  16.403   1.581   5.321
 4433POPC   GL157517  16.584   1.273   5.670
 4433POPC   GL257518  16.961   1.236   5.764
 4433POPC   C1A57519  16.632   1.136   6.118
 4433POPC   D2A57520  16.814   1.281   6.506
 4433POPC   C3A57521  16.546   1.252   6.861
 4433POPC   C4A57522  16.646   1.129   7.261
 4433POPC   C1B57523  17.117   1.002   6.180
 4433POPC   C2B57524  17.294   1.074   6.584
 4433POPC   C3B57525  17.074   1.108   6.961
 4433POPC   C4B57526  17.085   0.924   7.406
 4434POPC   NC357527  43.508  10.642   5.472
 4434POPC   PO457528  44.077  10.237   5.579
 4434POPC   GL157529  43.811  10.343   5.914
 4434POPC   GL257530  43.558  10.592   5.971
 4434POPC   C1A57531  43.926  10.459   6.316
 4434POPC   D2A57532  44.118  10.496   6.705
 4434POPC   C3A57533  43.808  10.381   7.013
 4434POPC   C4A57534  44.022  10.414   7.388
 4434POPC   C1B57535  43.917  10.890   6.057
 4434POPC   C2B57536  44.009  11.038   6.489
 4434POPC   C3B57537  43.787  10.904   6.875
 4434POPC   C4B57538  43.676  10.794   7.295
 4435POPC   NC357539   1.550   1.414   5.408
 4435POPC   PO457540   0.939   1.053   5.324
 4435POPC   GL157541   1.091   0.969   5.753
 4435POPC   GL257542   1.424   1.141   5.821
 4435POPC   C1A57543   1.066   1.067   6.188
 4435POPC   D2A57544   1.295   1.221   6.499
 4435POPC   C3A57545   1.017   1.225   6.809
 4435POPC   C4A57546   1.109   1.327   7.198
 4435POPC   C1B57547   1.622   1.418   6.161
 4435POPC   C2B57548   1.471   1.708   6.480
 4435POPC   C3B57549   1.451   1.557   6.886
 4435POPC   C4B57550   1.735   1.530   7.219
 4436POPC   NC357551   4.038  42.689   5.454
 4436POPC   PO457552   4.427  42.258   5.113
 4436POPC   GL157553   4.462  42.444   5.576
 4436POPC   GL257554   4.674  42.248   5.755
 4436POPC   C1A57555   4.348  42.513   6.065
 4436POPC   D2A57556   4.116  42.573   6.468
 4436POPC   C3A57557   4.202  42.418   6.864
 4436POPC   C4A57558   4.112  42.121   7.148
 4436POPC   C1B57559   4.782  42.275   6.193
 4436POPC   C2B57560   4.646  42.408   6.605
 4436POPC   C3B57561   4.652  42.214   7.048
 4436POPC   C4B57562   4.552  42.221   7.498
 4437POPC   NC357563  37.804  34.186   5.254
 4437POPC   PO457564  37.505  34.794   5.473
 4437POPC   GL157565  37.701  34.569   5.862
 4437POPC   GL257566  37.683  34.212   5.835
 4437POPC   C1A57567  37.804  34.441   6.318
 4437POPC   D2A57568  37.659  34.478   6.744
 4437POPC   C3A57569  37.806  34.715   7.105
 4437POPC   C4A57570  37.506  34.659   7.463
 4437POPC   C1B57571  38.098  34.092   6.064
 4437POPC   C2B57572  38.210  34.126   6.514
 4437POPC   C3B57573  38.067  34.260   6.922
 4437POPC   C4B57574  37.818  34.236   7.295
 4438POPC   NC357575  15.356  43.056   5.328
 4438POPC   PO457576  14.648  43.120   5.283
 4438POPC   GL157577  14.986  43.131   5.682
 4438POPC   GL257578  15.312  42.964   5.814
 4438POPC   C1A57579  14.903  42.947   6.115
 4438POPC   D2A57580  14.859  43.121   6.529
 4438POPC   C3A57581  14.916  42.934   6.913
 4438POPC   C4A57582  15.113  43.159   7.206
 4438POPC   C1B57583  15.389  42.999   6.245
 4438POPC   C2B57584  15.246  42.759   6.557
 4438POPC   C3B57585  15.452  42.885   6.901
 4438POPC   C4B57586  15.644  42.956   7.272
 4439POPC   NC357587  20.344   2.187   5.449
 4439POPC   PO457588  20.557   1.512   5.553
 4439POPC   GL157589  20.627   1.801   5.868
 4439POPC   GL257590  20.382   2.097   5.930
 4439POPC   C1A57591  20.657   1.809   6.297
 4439POPC   D2A57592  20.324   2.004   6.477
 4439POPC   C3A57593  20.423   2.166   6.871
 4439POPC   C4A57594  20.550   2.006   7.241
 4439POPC   C1B57595  20.717   2.277   6.101
 4439POPC   C2B57596  20.784   2.274   6.520
 4439POPC   C3B57597  20.860   2.454   6.918
 4439POPC   C4B57598  20.676   2.509   7.308
 4440POPC   NC357599  31.502  26.894   5.255
 4440POPC   PO457600  31.127  26.548   5.563
 4440POPC   GL157601  31.345  26.587   5.913
 4440POPC   GL257602  31.540  26.902   5.860
 4440POPC   C1A57603  31.541  26.376   6.256
 4440POPC   D2A57604  31.743  26.620   6.556
 4440POPC   C3A57605  31.466  26.726   6.875
 4440POPC   C4A57606  31.588  26.763   7.280
 4440POPC   C1B57607  31.398  26.922   6.300
 4440POPC   C2B57608  31.101  27.005   6.641
 4440POPC   C3B57609  31.043  27.224   7.034
 4440POPC   C4B57610  31.238  27.123   7.463
 4441POPC   NC357611  27.761  28.574   5.480
 4441POPC   PO457612  28.058  27.840   5.450
 4441POPC   GL157613  27.896  28.175   5.821
 4441POPC   GL257614  27.535  28.302   5.883
 4441POPC   C1A57615  27.868  28.440   6.250
 4441POPC   D2A57616  27.601  28.519   6.640
 4441POPC   C3A57617  27.753  28.489   7.094
 4441POPC   C4A57618  27.568  28.286   7.482
 4441POPC   C1B57619  27.422  28.738   6.084
 4441POPC   C2B57620  27.413  28.991   6.496
 4441POPC   C3B57621  27.345  28.859   6.935
 4441POPC   C4B57622  27.381  28.764   7.374
 4442POPC   NC357623  22.960  17.678   5.107
 4442POPC   PO457624  22.716  17.351   5.649
 4442POPC   GL157625  23.000  17.591   5.885
 4442POPC   GL257626  23.018  17.927   5.769
 4442POPC   C1A57627  23.123  17.503   6.307
 4442POPC   D2A57628  22.885  17.585   6.671
 4442POPC   C3A57629  23.130  17.639   7.024
 4442POPC   C4A57630  23.153  17.363   7.370
 4442POPC   C1B57631  22.838  17.930   6.211
 4442POPC   C2B57632  22.438  17.846   6.460
 4442POPC   C3B57633  22.458  17.754   6.899
 4442POPC   C4B57634  22.699  17.707   7.280
 4443POPC   NC357635  25.121  23.946   5.486
 4443POPC   PO457636  25.690  24.094   5.793
 4443POPC   GL157637  25.376  23.799   5.944
 4443POPC   GL257638  25.277  23.500   5.753
 4443POPC   C1A57639  25.302  23.796   6.374
 4443POPC   D2A57640  25.571  23.944   6.722
 4443POPC   C3A57641  25.371  23.783   7.070
 4443POPC   C4A57642  24.938  23.750   7.163
 4443POPC   C1B57643  24.999  23.430   6.128
 4443POPC   C2B57644  24.962  23.452   6.576
 4443POPC   C3B57645  25.064  23.271   6.959
 4443POPC   C4B57646  24.881  23.198   7.333
 4444POPC   NC357647  32.670  21.436   5.442
 4444POPC   PO457648  32.009  21.088   5.221
 4444POPC   GL157649  32.104  21.256   5.656
 4444POPC   GL257650  32.333  21.008   5.777
 4444POPC   C1A57651  32.249  21.448   6.073
 4444POPC   D2A57652  32.421  21.432   6.501
 4444POPC   C3A57653  32.210  21.440   6.925
 4444POPC   C4A57654  32.417  21.464   7.332
 4444POPC   C1B57655  32.646  21.115   6.107
 4444POPC   C2B57656  32.831  21.106   6.520
 4444POPC   C3B57657  32.668  21.221   6.922
 4444POPC   C4B57658  32.508  20.975   7.283
 4445POPC   NC357659   6.886  11.596   5.450
 4445POPC   PO457660   6.414  11.121   5.468
 4445POPC   GL157661   6.587  11.017   5.867
 4445POPC   GL257662   6.876  11.179   5.830
 4445POPC   C1A57663   6.713  11.056   6.314
 4445POPC   D2A57664   6.428  11.104   6.654
 4445POPC   C3A57665   6.565  11.352   6.985
 4445POPC   C4A57666   6.310  11.377   7.361
 4445POPC   C1B57667   6.946  11.533   6.156
 4445POPC   C2B57668   7.003  11.778   6.575
 4445POPC   C3B57669   7.032  11.606   6.996
 4445POPC   C4B57670   7.055  11.141   7.075
 4446POPC   NC357671  20.307  44.208   5.433
 4446POPC   PO457672  20.603  43.566   5.315
 4446POPC   GL157673  20.617  43.835   5.667
 4446POPC   GL257674  20.315  43.783   5.800
 4446POPC   C1A57675  20.691  44.046   6.073
 4446POPC   D2A57676  20.751  43.863   6.480
 4446POPC   C3A57677  20.689  44.068   6.891
 4446POPC   C4A57678  20.561  43.799   7.185
 4446POPC   C1B57679  20.383  43.529   6.193
 4446POPC   C2B57680  20.431  43.456   6.615
 4446POPC   C3B57681  20.188  43.540   6.969
 4446POPC   C4B57682  20.326  43.379   7.312
 4447POPC   NC357683  10.120  39.737   5.430
 4447POPC   PO457684  10.750  39.867   5.174
 4447POPC   GL157685  10.633  39.902   5.629
 4447POPC   GL257686  10.882  39.956   5.893
 4447POPC   C1A57687  10.356  40.049   5.998
 4447POPC   D2A57688  10.245  40.271   6.409
 4447POPC   C3A57689  10.363  40.052   6.807
 4447POPC   C4A57690  10.252  39.725   7.131
 4447POPC   C1B57691  10.756  40.044   6.329
 4447POPC   C2B57692  10.917  40.042   6.751
 4447POPC   C3B57693  10.730  39.902   7.155
 4447POPC   C4B57694  10.711  40.139   7.563
 4448POPC   NC357695  36.393  17.018   5.431
 4448POPC   PO457696  35.764  16.878   5.644
 4448POPC   GL157697  36.156  16.893   5.872
 4448POPC   GL257698  36.401  16.614   5.728
 4448POPC   C1A57699  36.076  16.823   6.309
 4448POPC   D2A57700  35.852  16.648   6.647
 4448POPC   C3A57701  36.003  16.841   7.020
 4448POPC   C4A57702  36.193  17.189   7.216
 4448POPC   C1B57703  36.470  16.576   6.130
 4448POPC   C2B57704  36.306  16.338   6.454
 4448POPC   C3B57705  36.208  16.365   6.884
 4448POPC   C4B57706  36.461  16.634   7.165
 4449POPC   NC357707   9.214  31.552   5.461
 4449POPC   PO457708   8.578  31.252   5.559
 4449POPC   GL157709   8.686  31.586   5.850
 4449POPC   GL257710   9.059  31.661   5.919
 4449POPC   C1A57711   8.710  31.595   6.296
 4449POPC   D2A57712   8.948  31.545   6.630
 4449POPC   C3A57713   8.703  31.501   6.997
 4449POPC   C4A57714   8.902  31.229   7.259
 4449POPC   C1B57715   9.156  31.878   6.277
 4449POPC   C2B57716   9.407  31.791   6.658
 4449POPC   C3B57717   9.258  31.567   7.037
 4449POPC   C4B57718   9.053  31.778   7.361
 4450POPC   NC357719  19.603  42.769   5.337
 4450POPC   PO457720  19.855  42.177   5.589
 4450POPC   GL157721  19.644  42.293   5.913
 4450POPC   GL257722  19.712  41.962   6.013
 4450POPC   C1A57723  19.720  42.597   6.217
 4450POPC   D2A57724  19.747  42.746   6.619
 4450POPC   C3A57725  19.705  42.459   6.967
 4450POPC   C4A57726  19.730  42.607   7.385
 4450POPC   C1B57727  19.759  42.073   6.411
 4450POPC   C2B57728  19.672  41.879   6.786
 4450POPC   C3B57729  20.012  42.005   6.949
 4450POPC   C4B57730  19.987  42.162   7.311
 4451POPC   NC357731   8.779  38.766   5.464
 4451POPC   PO457732   9.075  39.398   5.218
 4451POPC   GL157733   9.031  39.200   5.591
 4451POPC   GL257734   9.224  39.449   5.711
 4451POPC   C1A57735   8.883  39.235   6.041
 4451POPC   D2A57736   8.895  39.092   6.470
 4451POPC   C3A57737   8.868  39.269   6.862
 4451POPC   C4A57738   9.047  39.095   7.208
 4451POPC   C1B57739   9.221  39.634   6.084
 4451POPC   C2B57740   9.045  39.595   6.474
 4451POPC   C3B57741   9.339  39.442   6.778
 4451POPC   C4B57742   9.345  39.555   7.188
 4452POPC   NC357743   1.682   6.377   5.672
 4452POPC   PO457744   1.807   5.661   5.341
 4452POPC   GL157745   2.044   5.972   5.633
 4452POPC   GL257746   1.798   5.901   5.841
 4452POPC   C1A57747   2.238   6.063   6.086
 4452POPC   D2A57748   2.364   5.767   6.394
 4452POPC   C3A57749   2.295   5.758   6.832
 4452POPC   C4A57750   2.334   6.035   7.152
 4452POPC   C1B57751   1.769   6.041   6.258
 4452POPC   C2B57752   2.019   6.117   6.609
 4452POPC   C3B57753   1.847   6.010   7.031
 4452POPC   C4B57754   1.987   5.812   7.447
 4453POPC   NC357755  34.019  30.342   5.586
 4453POPC   PO457756  33.693  30.938   5.358
 4453POPC   GL157757  33.664  30.690   5.726
 4453POPC   GL257758  33.959  30.821   5.843
 4453POPC   C1A57759  33.599  30.572   6.170
 4453POPC   D2A57760  33.878  30.675   6.513
 4453POPC   C3A57761  33.814  30.584   6.947
 4453POPC   C4A57762  33.847  30.671   7.388
 4453POPC   C1B57763  34.178  30.962   6.227
 4453POPC   C2B57764  34.248  30.993   6.698
 4453POPC   C3B57765  34.226  30.940   7.156
 4453POPC   C4B57766  34.176  31.015   7.631
 4454POPC   NC357767  20.907   6.977   5.380
 4454POPC   PO457768  20.575   7.629   5.288
 4454POPC   GL157769  20.651   7.358   5.629
 4454POPC   GL257770  20.336   7.263   5.699
 4454POPC   C1A57771  20.701   7.499   6.063
 4454POPC   D2A57772  20.840   7.527   6.492
 4454POPC   C3A57773  20.961   7.174   6.753
 4454POPC   C4A57774  20.892   7.155   7.222
 4454POPC   C1B57775  20.377   7.100   6.112
 4454POPC   C2B57776  20.465   7.172   6.536
 4454POPC   C3B57777  20.522   7.372   6.919
 4454POPC   C4B57778  20.407   7.199   7.329
 4455POPC   NC357779  36.158  34.281   5.493
 4455POPC   PO457780  36.134  34.922   5.335
 4455POPC   GL157781  36.135  34.907   5.798
 4455POPC   GL257782  36.324  34.613   5.877
 4455POPC   C1A57783  36.001  34.860   6.241
 4455POPC   D2A57784  35.915  34.532   6.564
 4455POPC   C3A57785  36.245  34.580   6.873
 4455POPC   C4A57786  36.096  34.737   7.243
 4455POPC   C1B57787  36.388  34.500   6.312
 4455POPC   C2B57788  36.281  34.142   6.572
 4455POPC   C3B57789  36.075  34.100   6.956
 4455POPC   C4B57790  35.931  34.266   7.360
 4456POPC   NC357791  39.940  24.274   5.549
 4456POPC   PO457792  40.362  24.766   5.340
 4456POPC   GL157793  40.271  24.656   5.785
 4456POPC   GL257794  40.366  24.332   5.915
 4456POPC   C1A57795  39.954  24.561   6.136
 4456POPC   D2A57796  39.693  24.635   6.480
 4456POPC   C3A57797  39.891  24.696   6.895
 4456POPC   C4A57798  39.944  24.383   7.200
 4456POPC   C1B57799  40.318  24.277   6.367
 4456POPC   C2B57800  40.340  24.484   6.767
 4456POPC   C3B57801  40.391  24.632   7.189
 4456POPC   C4B57802  40.355  24.372   7.574
 4457POPC   NC357803  35.074  38.974   5.512
 4457POPC   PO457804  35.559  39.277   5.318
 4457POPC   GL157805  35.453  39.306   5.774
 4457POPC   GL257806  35.139  39.151   5.975
 4457POPC   C1A57807  35.416  39.551   6.166
 4457POPC   D2A57808  35.101  39.382   6.451
 4457POPC   C3A57809  35.107  39.235   6.897
 4457POPC   C4A57810  35.429  39.302   7.202
 4457POPC   C1B57811  35.501  39.046   6.237
 4457POPC   C2B57812  35.579  39.105   6.673
 4457POPC   C3B57813  35.719  38.904   7.047
 4457POPC   C4B57814  35.511  38.755   7.360
 4458POPC   NC357815  22.221  15.638   5.486
 4458POPC   PO457816  22.286  14.954   5.465
 4458POPC   GL157817  22.322  14.970   5.884
 4458POPC   GL257818  22.172  15.286   5.858
 4458POPC   C1A57819  22.132  15.046   6.303
 4458POPC   D2A57820  22.137  15.235   6.700
 4458POPC   C3A57821  22.115  14.975   7.064
 4458POPC   C4A57822  22.387  14.722   7.273
 4458POPC   C1B57823  22.374  15.554   6.156
 4458POPC   C2B57824  22.513  15.682   6.554
 4458POPC   C3B57825  22.428  15.573   6.950
 4458POPC   C4B57826  22.060  15.455   7.182
 4459POPC   NC357827  44.374  15.404   5.427
 4459POPC   PO457828  44.757  14.918   5.354
 4459POPC   GL157829  44.922  15.156   5.743
 4459POPC   GL257830  44.622  15.293   5.864
 4459POPC   C1A57831  44.986  15.146   6.214
 4459POPC   D2A57832  44.711  15.254   6.592
 4459POPC   C3A57833  44.787  15.106   7.011
 4459POPC   C4A57834  44.824  14.800   7.314
 4459POPC   C1B57835  44.347  15.359   6.203
 4459POPC   C2B57836  44.270  15.524   6.625
 4459POPC   C3B57837  44.311  15.262   6.985
 4459POPC   C4B57838  44.463  15.242   7.431
 4460POPC   NC357839  14.709  34.548   5.515
 4460POPC   PO457840  14.029  34.450   5.572
 4460POPC   GL157841  14.241  34.694   5.875
 4460POPC   GL257842  14.604  34.787   5.959
 4460POPC   C1A57843  14.076  34.636   6.280
 4460POPC   D2A57844  14.039  34.445   6.671
 4460POPC   C3A57845  14.191  34.777   6.936
 4460POPC   C4A57846  14.558  34.871   7.211
 4460POPC   C1B57847  14.536  34.398   6.161
 4460POPC   C2B57848  14.657  34.252   6.518
 4460POPC   C3B57849  14.619  34.507   6.838
 4460POPC   C4B57850  14.437  34.389   7.193
 4461POPC   NC357851   7.276  13.897   5.104
 4461POPC   PO457852   7.664  13.370   5.346
 4461POPC   GL157853   7.470  13.448   5.744
 4461POPC   GL257854   7.512  13.796   5.833
 4461POPC   C1A57855   7.431  13.434   6.218
 4461POPC   D2A57856   7.370  13.741   6.561
 4461POPC   C3A57857   7.137  13.531   6.913
 4461POPC   C4A57858   7.163  13.184   7.220
 4461POPC   C1B57859   7.860  13.653   6.059
 4461POPC   C2B57860   7.872  13.606   6.509
 4461POPC   C3B57861   7.654  13.455   6.890
 4461POPC   C4B57862   7.477  13.611   7.296
 4462POPC   NC357863  38.686  35.510   5.373
 4462POPC   PO457864  38.222  34.992   5.325
 4462POPC   GL157865  38.505  35.128   5.691
 4462POPC   GL257866  38.401  35.461   5.790
 4462POPC   C1A57867  38.463  35.080   6.170
 4462POPC   D2A57868  38.280  35.195   6.584
 4462POPC   C3A57869  38.518  35.231   6.969
 4462POPC   C4A57870  38.786  34.994   7.260
 4462POPC   C1B57871  38.579  35.600   6.166
 4462POPC   C2B57872  38.656  35.822   6.554
 4462POPC   C3B57873  38.850  35.749   6.926
 4462POPC   C4B57874  38.831  35.518   7.277
 4463POPC   NC357875   0.010  44.517   5.448
 4463POPC   PO457876  44.361  44.862   5.484
 4463POPC   GL157877  44.575  44.580   5.739
 4463POPC   GL257878  44.297  44.524   5.918
 4463POPC   C1A57879  44.759  44.372   6.122
 4463POPC   D2A57880  44.812  44.219   6.568
 4463POPC   C3A57881  44.983  44.559   6.834
 4463POPC   C4A57882  44.911  44.716   7.261
 4463POPC   C1B57883  44.433  44.901   6.146
 4463POPC   C2B57884  44.620  44.895   6.541
 4463POPC   C3B57885  44.524  44.804   6.939
 4463POPC   C4B57886  44.464   0.046   7.269
 4464POPC   NC357887  17.947   5.720   5.517
 4464POPC   PO457888  18.431   6.140   5.412
 4464POPC   GL157889  18.250   6.057   5.795
 4464POPC   GL257890  18.410   5.740   5.766
 4464POPC   C1A57891  18.153   5.859   6.200
 4464POPC   D2A57892  18.411   5.841   6.565
 4464POPC   C3A57893  18.237   5.711   6.969
 4464POPC   C4A57894  17.881   5.881   7.166
 4464POPC   C1B57895  18.691   5.918   6.104
 4464POPC   C2B57896  18.810   6.204   6.451
 4464POPC   C3B57897  18.698   6.126   6.871
 4464POPC   C4B57898  18.535   6.007   7.271
 4465POPC   NC357899   5.471  33.216   5.432
 4465POPC   PO457900   4.902  32.889   5.326
 4465POPC   GL157901   4.937  33.051   5.797
 4465POPC   GL257902   5.140  33.354   5.803
 4465POPC   C1A57903   5.009  33.059   6.294
 4465POPC   D2A57904   4.837  33.083   6.740
 4465POPC   C3A57905   5.006  33.021   7.148
 4465POPC   C4A57906   5.430  32.871   7.197
 4465POPC   C1B57907   5.174  33.545   6.193
 4465POPC   C2B57908   4.848  33.536   6.488
 4465POPC   C3B57909   4.948  33.578   6.908
 4465POPC   C4B57910   5.155  33.576   7.273
 4466POPC   NC357911  11.019   8.974   5.466
 4466POPC   PO457912  11.576   9.260   5.389
 4466POPC   GL157913  11.494   9.053   5.776
 4466POPC   GL257914  11.157   9.122   5.924
 4466POPC   C1A57915  11.465   8.798   6.142
 4466POPC   D2A57916  11.333   9.046   6.501
 4466POPC   C3A57917  11.497   8.940   6.908
 4466POPC   C4A57918  11.443   9.071   7.320
 4466POPC   C1B57919  10.915   8.813   6.168
 4466POPC   C2B57920  10.830   8.911   6.601
 4466POPC   C3B57921  11.012   9.163   6.923
 4466POPC   C4B57922  11.005   8.865   7.241
 4467POPC   NC357923  11.698  12.127   5.439
 4467POPC   PO457924  11.112  11.660   5.589
 4467POPC   GL157925  11.236  11.830   5.921
 4467POPC   GL257926  11.402  12.108   5.842
 4467POPC   C1A57927  11.110  11.981   6.284
 4467POPC   D2A57928  11.347  11.940   6.621
 4467POPC   C3A57929  11.079  12.018   6.964
 4467POPC   C4A57930  11.262  12.033   7.348
 4467POPC   C1B57931  11.441  12.359   6.212
 4467POPC   C2B57932  11.603  12.387   6.588
 4467POPC   C3B57933  11.479  12.332   6.962
 4467POPC   C4B57934  11.525  12.475   7.318
 4468POPC   NC357935   9.399   5.320   5.384
 4468POPC   PO457936   9.918   4.864   5.301
 4468POPC   GL157937   9.782   5.077   5.661
 4468POPC   GL257938  10.135   5.070   5.787
 4468POPC   C1A57939   9.576   5.111   6.076
 4468POPC   D2A57940   9.631   4.926   6.500
 4468POPC   C3A57941   9.684   5.114   6.915
 4468POPC   C4A57942   9.366   5.177   7.216
 4468POPC   C1B57943  10.058   5.036   6.189
 4468POPC   C2B57944  10.121   5.056   6.592
 4468POPC   C3B57945  10.121   5.384   6.919
 4468POPC   C4B57946  10.097   5.165   7.300
 4469POPC   NC357947   6.792  31.074   5.341
 4469POPC   PO457948   6.892  30.358   5.379
 4469POPC   GL157949   6.753  30.678   5.685
 4469POPC   GL257950   6.481  30.581   5.894
 4469POPC   C1A57951   6.807  30.926   6.084
 4469POPC   D2A57952   6.925  30.822   6.517
 4469POPC   C3A57953   6.582  30.743   6.801
 4469POPC   C4A57954   6.509  30.925   7.202
 4469POPC   C1B57955   6.653  30.412   6.285
 4469POPC   C2B57956   6.869  30.323   6.677
 4469POPC   C3B57957   6.741  30.343   7.104
 4469POPC   C4B57958   6.365  30.442   7.332
 4470POPC   NC357959   7.012  17.670   5.480
 4470POPC   PO457960   6.456  17.973   5.345
 4470POPC   GL157961   6.470  17.564   5.667
 4470POPC   GL257962   6.772  17.568   5.899
 4470POPC   C1A57963   6.433  17.259   6.080
 4470POPC   D2A57964   6.646  17.296   6.448
 4470POPC   C3A57965   6.518  17.215   6.881
 4470POPC   C4A57966   6.736  17.316   7.281
 4470POPC   C1B57967   6.454  17.772   6.147
 4470POPC   C2B57968   6.375  17.733   6.573
 4470POPC   C3B57969   6.605  17.708   6.937
 4470POPC   C4B57970   6.628  17.796   7.352
 4471POPC   NC357971  41.377  22.403   5.308
 4471POPC   PO457972  41.755  21.900   5.385
 4471POPC   GL157973  41.430  21.982   5.729
 4471POPC   GL257974  41.315  22.339   5.797
 4471POPC   C1A57975  41.432  21.888   6.172
 4471POPC   D2A57976  41.733  22.038   6.486
 4471POPC   C3A57977  41.514  22.051   6.878
 4471POPC   C4A57978  41.564  22.080   7.318
 4471POPC   C1B57979  41.552  22.454   6.177
 4471POPC   C2B57980  41.684  22.541   6.616
 4471POPC   C3B57981  41.641  22.516   7.062
 4471POPC   C4B57982  41.274  22.495   7.375
 4472POPC   NC357983   2.140  20.875   5.444
 4472POPC   PO457984   1.787  21.389   5.192
 4472POPC   GL157985   1.873  21.276   5.636
 4472POPC   GL257986   2.038  21.521   5.825
 4472POPC   C1A57987   1.884  21.108   6.087
 4472POPC   D2A57988   2.206  21.179   6.418
 4472POPC   C3A57989   2.025  21.263   6.812
 4472POPC   C4A57990   2.021  21.023   7.153
 4472POPC   C1B57991   2.011  21.681   6.251
 4472POPC   C2B57992   2.085  21.771   6.684
 4472POPC   C3B57993   2.203  21.673   7.069
 4472POPC   C4B57994   2.021  21.913   7.360
 4473POPC   NC357995  13.982  13.376   4.933
 4473POPC   PO457996  13.476  13.566   5.394
 4473POPC   GL157997  13.644  13.578   5.780
 4473POPC   GL257998  13.763  13.248   5.730
 4473POPC   C1A57999  13.485  13.683   6.203
 4473POPC   D2A58000  13.560  13.931   6.575
 4473POPC   C3A58001  13.516  13.678   6.962
 4473POPC   C4A58002  13.658  13.494   7.369
 4473POPC   C1B58003  13.870  13.330   6.158
 4473POPC   C2B58004  13.741  13.126   6.515
 4473POPC   C3B58005  13.699  13.189   6.955
 4473POPC   C4B58006  13.421  13.049   7.290
 4474POPC   NC358007  27.848  11.874   5.625
 4474POPC   PO458008  27.489  12.287   5.170
 4474POPC   GL158009  27.445  12.229   5.666
 4474POPC   GL258010  27.678  12.431   5.909
 4474POPC   C1A58011  27.467  12.005   6.119
 4474POPC   D2A58012  27.554  12.157   6.555
 4474POPC   C3A58013  27.516  11.905   6.937
 4474POPC   C4A58014  27.543  12.138   7.320
 4474POPC   C1B58015  27.947  12.170   6.222
 4474POPC   C2B58016  28.015  11.958   6.634
 4474POPC   C3B58017  28.019  12.068   7.086
 4474POPC   C4B58018  27.998  11.944   7.514
 4475POPC   NC358019   3.034   1.354   5.472
 4475POPC   PO458020   2.637   0.832   5.451
 4475POPC   GL158021   2.673   1.196   5.795
 4475POPC   GL258022   2.959   1.070   5.898
 4475POPC   C1A58023   2.800   1.314   6.286
 4475POPC   D2A58024   2.726   1.369   6.682
 4475POPC   C3A58025   2.347   1.385   6.897
 4475POPC   C4A58026   2.563   1.416   7.304
 4475POPC   C1B58027   2.572   0.891   6.166
 4475POPC   C2B58028   2.456   0.871   6.609
 4475POPC   C3B58029   2.652   0.988   7.006
 4475POPC   C4B58030   2.842   0.983   7.398
 4476POPC   NC358031   4.697  41.075   5.501
 4476POPC   PO458032   5.362  41.064   5.322
 4476POPC   GL158033   5.249  40.884   5.713
 4476POPC   GL258034   5.001  41.060   5.877
 4476POPC   C1A58035   5.212  40.669   6.133
 4476POPC   D2A58036   5.434  40.389   6.400
 4476POPC   C3A58037   5.258  40.431   6.794
 4476POPC   C4A58038   5.388  40.622   7.145
 4476POPC   C1B58039   4.872  41.060   6.274
 4476POPC   C2B58040   5.065  40.907   6.619
 4476POPC   C3B58041   4.960  40.903   7.043
 4476POPC   C4B58042   4.887  41.157   7.414
 4477POPC   NC358043  39.036   8.041   5.586
 4477POPC   PO458044  39.326   7.468   5.395
 4477POPC   GL158045  39.271   7.556   5.826
 4477POPC   GL258046  39.608   7.521   5.910
 4477POPC   C1A58047  39.039   7.648   6.221
 4477POPC   D2A58048  38.792   7.477   6.579
 4477POPC   C3A58049  38.965   7.541   6.982
 4477POPC   C4A58050  39.225   7.195   7.157
 4477POPC   C1B58051  39.504   7.343   6.301
 4477POPC   C2B58052  39.366   7.557   6.662
 4477POPC   C3B58053  39.487   7.619   7.071
 4477POPC   C4B58054  39.897   7.569   7.262
 4478POPC   NC358055  29.031  31.928   5.398
 4478POPC   PO458056  28.899  32.571   5.392
 4478POPC   GL158057  29.229  32.395   5.707
 4478POPC   GL258058  29.216  32.046   5.876
 4478POPC   C1A58059  29.371  32.480   6.152
 4478POPC   D2A58060  29.148  32.375   6.552
 4478POPC   C3A58061  29.248  32.348   7.011
 4478POPC   C4A58062  28.837  32.433   7.210
 4478POPC   C1B58063  29.394  31.988   6.296
 4478POPC   C2B58064  29.295  31.912   6.726
 4478POPC   C3B58065  28.941  31.941   7.015
 4478POPC   C4B58066  29.046  32.032   7.432
 4479POPC   NC358067  32.596  30.921   5.426
 4479POPC   PO458068  31.936  30.620   5.281
 4479POPC   GL158069  32.109  30.859   5.624
 4479POPC   GL258070  32.367  30.614   5.771
 4479POPC   C1A58071  32.111  30.946   6.083
 4479POPC   D2A58072  32.343  30.802   6.474
 4479POPC   C3A58073  32.196  30.945   6.892
 4479POPC   C4A58074  32.035  30.733   7.278
 4479POPC   C1B58075  32.526  30.377   6.158
 4479POPC   C2B58076  32.581  30.199   6.601
 4479POPC   C3B58077  32.395  30.456   6.917
 4479POPC   C4B58078  32.533  30.476   7.325
 4480POPC   NC358079  43.487   7.474   5.137
 4480POPC   PO458080  44.027   7.179   5.331
 4480POPC   GL158081  44.014   7.230   5.768
 4480POPC   GL258082  43.673   7.298   5.765
 4480POPC   C1A58083  44.031   7.412   6.197
 4480POPC   D2A58084  43.883   7.592   6.579
 4480POPC   C3A58085  44.066   7.373   6.920
 4480POPC   C4A58086  44.087   7.612   7.279
 4480POPC   C1B58087  43.600   7.087   6.152
 4480POPC   C2B58088  43.756   7.114   6.559
 4480POPC   C3B58089  43.630   7.019   6.957
 4480POPC   C4B58090  43.700   6.834   7.351
 4481POPC   NC358091  39.561  39.209   5.489
 4481POPC   PO458092  38.915  39.000   5.475
 4481POPC   GL158093  39.225  39.005   5.824
 4481POPC   GL258094  39.507  38.776   5.854
 4481POPC   C1A58095  39.400  39.280   6.158
 4481POPC   D2A58096  39.172  39.489   6.503
 4481POPC   C3A58097  39.344  39.427   6.923
 4481POPC   C4A58098  39.193  39.675   7.238
 4481POPC   C1B58099  39.264  38.780   6.288
 4481POPC   C2B58100  39.120  39.004   6.687
 4481POPC   C3B58101  39.174  38.881   7.145
 4481POPC   C4B58102  39.444  38.998   7.485
 4482POPC   NC358103  13.830  35.904   4.881
 4482POPC   PO458104  13.704  36.304   5.414
 4482POPC   GL158105  13.636  36.398   5.824
 4482POPC   GL258106  13.316  36.291   5.880
 4482POPC   C1A58107  13.731  36.142   6.202
 4482POPC   D2A58108  13.969  35.898   6.522
 4482POPC   C3A58109  13.860  36.025   6.912
 4482POPC   C4A58110  13.704  35.896   7.254
 4482POPC   C1B58111  13.249  35.968   6.211
 4482POPC   C2B58112  13.425  36.005   6.629
 4482POPC   C3B58113  13.350  36.181   7.034
 4482POPC   C4B58114  13.195  35.893   7.351
 4483POPC   NC358115  42.717  12.660   5.505
 4483POPC   PO458116  43.269  13.143   5.668
 4483POPC   GL158117  43.275  12.707   5.802
 4483POPC   GL258118  42.943  12.674   5.952
 4483POPC   C1A58119  43.336  12.492   6.204
 4483POPC   D2A58120  43.145  12.578   6.627
 4483POPC   C3A58121  43.229  12.886   6.974
 4483POPC   C4A58122  43.343  12.892   7.434
 4483POPC   C1B58123  42.684  12.956   6.178
 4483POPC   C2B58124  42.694  13.050   6.600
 4483POPC   C3B58125  42.568  13.078   7.004
 4483POPC   C4B58126  42.849  12.956   7.323
 4484POPC   NC358127   3.979   7.530   5.387
 4484POPC   PO458128   4.660   7.451   5.556
 4484POPC   GL158129   4.281   7.331   5.802
 4484POPC   GL258130   4.142   7.658   5.843
 4484POPC   C1A58131   4.197   7.322   6.272
 4484POPC   D2A58132   4.142   7.158   6.728
 4484POPC   C3A58133   4.455   7.327   7.059
 4484POPC   C4A58134   4.459   7.252   7.515
 4484POPC   C1B58135   3.869   7.720   6.174
 4484POPC   C2B58136   3.872   7.588   6.579
 4484POPC   C3B58137   4.082   7.634   6.928
 4484POPC   C4B58138   4.241   7.768   7.323
 4485POPC   NC358139  30.694  26.435   5.626
 4485POPC   PO458140  30.324  27.054   5.529
 4485POPC   GL158141  30.577  26.946   5.879
 4485POPC   GL258142  30.974  26.989   5.848
 4485POPC   C1A58143  30.440  26.684   6.210
 4485POPC   D2A58144  30.614  26.576   6.574
 4485POPC   C3A58145  30.622  26.891   6.862
 4485POPC   C4A58146  30.673  26.967   7.268
 4485POPC   C1B58147  30.943  26.723   6.200
 4485POPC   C2B58148  31.126  26.505   6.521
 4485POPC   C3B58149  30.967  26.503   6.923
 4485POPC   C4B58150  31.087  26.660   7.277
 4486POPC   NC358151  10.431  16.856   5.444
 4486POPC   PO458152  10.138  16.294   5.558
 4486POPC   GL158153  10.353  16.442   5.899
 4486POPC   GL258154  10.670  16.589   5.858
 4486POPC   C1A58155  10.499  16.463   6.316
 4486POPC   D2A58156  10.858  16.634   6.490
 4486POPC   C3A58157  10.799  16.654   6.924
 4486POPC   C4A58158  10.558  16.523   7.277
 4486POPC   C1B58159  10.530  16.933   6.127
 4486POPC   C2B58160  10.388  16.934   6.562
 4486POPC   C3B58161  10.349  17.006   7.002
 4486POPC   C4B58162  10.691  17.026   7.298
 4487POPC   NC358163  17.785  31.634   5.363
 4487POPC   PO458164  17.162  31.407   5.370
 4487POPC   GL158165  17.463  31.477   5.738
 4487POPC   GL258166  17.768  31.222   5.699
 4487POPC   C1A58167  17.555  31.783   6.110
 4487POPC   D2A58168  17.679  32.017   6.506
 4487POPC   C3A58169  17.680  31.792   6.914
 4487POPC   C4A58170  17.551  31.561   7.300
 4487POPC   C1B58171  17.649  31.192   6.133
 4487POPC   C2B58172  17.450  31.166   6.537
 4487POPC   C3B58173  17.671  31.261   6.921
 4487POPC   C4B58174  17.796  31.141   7.374
 4488POPC   NC358175  12.998  41.828   5.562
 4488POPC   PO458176  12.874  42.489   5.372
 4488POPC   GL158177  12.927  42.519   5.829
 4488POPC   GL258178  13.129  42.217   5.866
 4488POPC   C1A58179  12.890  42.676   6.264
 4488POPC   D2A58180  13.049  42.748   6.696
 4488POPC   C3A58181  12.749  42.748   7.050
 4488POPC   C4A58182  12.747  42.599   7.482
 4488POPC   C1B58183  13.100  42.208   6.316
 4488POPC   C2B58184  12.795  42.294   6.640
 4488POPC   C3B58185  12.794  42.231   7.076
 4488POPC   C4B58186  13.103  42.232   7.354
 4489POPC   NC358187  34.857   5.636   5.494
 4489POPC   PO458188  34.462   6.163   5.376
 4489POPC   GL158189  34.454   5.870   5.746
 4489POPC   GL258190  34.778   5.964   5.866
 4489POPC   C1A58191  34.472   5.714   6.213
 4489POPC   D2A58192  34.472   5.525   6.656
 4489POPC   C3A58193  34.386   5.788   7.045
 4489POPC   C4A58194  34.029   5.758   7.338
 4489POPC   C1B58195  34.816   6.078   6.252
 4489POPC   C2B58196  34.613   6.021   6.637
 4489POPC   C3B58197  34.813   6.133   7.024
 4489POPC   C4B58198  34.762   5.955   7.438
 4490POPC   NC358199  25.608  32.268   5.221
 4490POPC   PO458200  26.220  32.578   5.300
 4490POPC   GL158201  25.946  32.281   5.606
 4490POPC   GL258202  26.065  31.938   5.725
 4490POPC   C1A58203  25.679  32.142   5.989
 4490POPC   D2A58204  25.744  32.262   6.443
 4490POPC   C3A58205  25.723  32.024   6.854
 4490POPC   C4A58206  25.737  32.267   7.230
 4490POPC   C1B58207  26.162  32.079   6.196
 4490POPC   C2B58208  26.196  32.132   6.690
 4490POPC   C3B58209  26.208  32.070   7.176
 4490POPC   C4B58210  26.449  31.944   7.628
 4491POPC   NC358211  37.683  20.743   5.327
 4491POPC   PO458212  38.029  20.149   5.636
 4491POPC   GL158213  37.870  20.481   5.886
 4491POPC   GL258214  37.807  20.824   5.802
 4491POPC   C1A58215  37.655  20.583   6.283
 4491POPC   D2A58216  37.394  20.737   6.630
 4491POPC   C3A58217  37.540  20.453   6.981
 4491POPC   C4A58218  37.903  20.539   7.243
 4491POPC   C1B58219  37.980  20.957   6.173
 4491POPC   C2B58220  38.078  20.880   6.607
 4491POPC   C3B58221  37.769  20.916   6.924
 4491POPC   C4B58222  37.750  21.108   7.296
 4492POPC   NC358223   4.098  37.439   5.508
 4492POPC   PO458224   4.342  38.076   5.376
 4492POPC   GL158225   4.382  37.797   5.737
 4492POPC   GL258226   4.052  37.695   5.931
 4492POPC   C1A58227   4.496  37.774   6.163
 4492POPC   D2A58228   4.299  37.761   6.538
 4492POPC   C3A58229   4.559  37.641   6.857
 4492POPC   C4A58230   4.736  37.926   7.127
 4492POPC   C1B58231   4.194  37.344   6.200
 4492POPC   C2B58232   4.227  37.255   6.623
 4492POPC   C3B58233   4.062  37.541   6.945
 4492POPC   C4B58234   4.327  37.622   7.313
 4493POPC   NC358235   9.280  36.482   5.409
 4493POPC   PO458236   8.743  36.038   5.387
 4493POPC   GL158237   8.778  36.187   5.765
 4493POPC   GL258238   8.712  35.861   5.863
 4493POPC   C1A58239   8.744  36.275   6.202
 4493POPC   D2A58240   9.022  36.324   6.543
 4493POPC   C3A58241   8.869  36.237   6.930
 4493POPC   C4A58242   9.086  36.341   7.321
 4493POPC   C1B58243   9.079  35.871   6.126
 4493POPC   C2B58244   9.099  35.784   6.558
 4493POPC   C3B58245   9.187  35.835   6.981
 4493POPC   C4B58246   8.870  35.875   7.290
 4494POPC   NC358247  29.930  10.001   5.397
 4494POPC   PO458248  30.253  10.510   5.545
 4494POPC   GL158249  29.979  10.262   5.838
 4494POPC   GL258250  30.284  10.206   6.007
 4494POPC   C1A58251  29.669  10.312   6.214
 4494POPC   D2A58252  29.783  10.393   6.647
 4494POPC   C3A58253  29.590  10.618   7.004
 4494POPC   C4A58254  29.566  10.482   7.444
 4494POPC   C1B58255  30.112  10.563   6.230
 4494POPC   C2B58256  30.072  10.820   6.565
 4494POPC   C3B58257  30.080  10.693   6.975
 4494POPC   C4B58258  29.910  10.839   7.349
 4495POPC   NC358259   8.832   7.729   5.446
 4495POPC   PO458260   9.269   7.218   5.384
 4495POPC   GL158261   9.213   7.509   5.715
 4495POPC   GL258262   8.895   7.304   5.790
 4495POPC   C1A58263   9.235   7.690   6.145
 4495POPC   D2A58264   8.995   7.532   6.508
 4495POPC   C3A58265   9.063   7.645   6.951
 4495POPC   C4A58266   8.790   7.662   7.319
 4495POPC   C1B58267   8.720   7.165   6.198
 4495POPC   C2B58268   8.918   7.034   6.595
 4495POPC   C3B58269   8.885   7.170   7.002
 4495POPC   C4B58270   9.020   7.221   7.392
 4496POPC   NC358271  10.730  13.804   5.497
 4496POPC   PO458272  10.372  13.407   5.693
 4496POPC   GL158273  10.434  13.784   5.943
 4496POPC   GL258274  10.778  13.769   6.016
 4496POPC   C1A58275  10.410  13.827   6.410
 4496POPC   D2A58276  10.442  13.429   6.696
 4496POPC   C3A58277  10.406  13.452   7.152
 4496POPC   C4A58278  10.346  13.706   7.516
 4496POPC   C1B58279  10.895  14.034   6.371
 4496POPC   C2B58280  10.823  13.765   6.698
 4496POPC   C3B58281  10.863  13.707   7.082
 4496POPC   C4B58282  10.802  14.065   7.292
 4497POPC   NC358283  44.044  31.781   5.497
 4497POPC   PO458284  43.598  31.237   5.528
 4497POPC   GL158285  43.934  31.360   5.844
 4497POPC   GL258286  44.288  31.231   5.867
 4497POPC   C1A58287  43.894  31.545   6.265
 4497POPC   D2A58288  43.796  31.838   6.633
 4497POPC   C3A58289  43.736  31.611   7.042
 4497POPC   C4A58290  43.679  31.627   7.512
 4497POPC   C1B58291  44.175  31.114   6.303
 4497POPC   C2B58292  43.988  31.183   6.729
 4497POPC   C3B58293  44.037  31.229   7.202
 4497POPC   C4B58294  44.201  31.189   7.663
 4498POPC   NC358295   8.783  13.865   5.318
 4498POPC   PO458296   9.361  13.434   5.272
 4498POPC   GL158297   9.105  13.495   5.699
 4498POPC   GL258298   8.753  13.627   5.777
 4498POPC   C1A58299   9.049  13.572   6.179
 4498POPC   D2A58300   8.832  13.661   6.576
 4498POPC   C3A58301   9.073  13.651   6.953
 4498POPC   C4A58302   9.184  13.444   7.316
 4498POPC   C1B58303   8.670  13.931   6.147
 4498POPC   C2B58304   8.620  14.128   6.566
 4498POPC   C3B58305   8.651  13.947   6.998
 4498POPC   C4B58306   8.626  13.485   7.170
 4499POPC   NC358307  12.179  17.044   5.458
 4499POPC   PO458308  11.661  16.609   5.435
 4499POPC   GL158309  11.927  16.774   5.801
 4499POPC   GL258310  12.218  16.545   5.788
 4499POPC   C1A58311  12.153  16.819   6.233
 4499POPC   D2A58312  12.028  16.908   6.702
 4499POPC   C3A58313  12.170  16.781   7.150
 4499POPC   C4A58314  12.481  16.931   7.495
 4499POPC   C1B58315  11.885  16.391   6.123
 4499POPC   C2B58316  12.019  16.420   6.528
 4499POPC   C3B58317  11.833  16.467   6.928
 4499POPC   C4B58318  11.748  16.536   7.377
 4500POPC   NC358319  24.368   1.396   5.502
 4500POPC   PO458320  24.985   1.310   5.525
 4500POPC   GL158321  24.710   1.423   5.906
 4500POPC   GL258322  24.359   1.582   5.972
 4500POPC   C1A58323  24.630   1.286   6.352
 4500POPC   D2A58324  24.346   1.338   6.701
 4500POPC   C3A58325  24.465   1.312   7.122
 4500POPC   C4A58326  24.485   1.338   7.571
 4500POPC   C1B58327  24.163   1.185   6.159
 4500POPC   C2B58328  24.286   0.880   6.486
 4500POPC   C3B58329  24.278   0.865   6.944
 4500POPC   C4B58330  24.525   0.841   7.350
 4501POPC   NC358331  10.837  10.589   5.318
 4501POPC   PO458332  10.322  10.223   5.440
 4501POPC   GL158333  10.449  10.561   5.773
 4501POPC   GL258334  10.775  10.788   5.786
 4501POPC   C1A58335  10.333  10.694   6.191
 4501POPC   D2A58336  10.566  10.743   6.580
 4501POPC   C3A58337  10.597  10.367   6.855
 4501POPC   C4A58338  10.472  10.141   7.248
 4501POPC   C1B58339  10.829  10.576   6.155
 4501POPC   C2B58340  11.058  10.588   6.520
 4501POPC   C3B58341  10.969  10.724   6.916
 4501POPC   C4B58342  10.768  10.593   7.303
 4502POPC   NC358343  39.777  29.566   5.573
 4502POPC   PO458344  39.987  30.173   5.702
 4502POPC   GL158345  40.022  29.828   5.941
 4502POPC   GL258346  40.265  29.665   5.731
 4502POPC   C1A58347  39.901  29.596   6.310
 4502POPC   D2A58348  39.973  29.532   6.755
 4502POPC   C3A58349  39.980  29.855   7.078
 4502POPC   C4A58350  39.731  29.871   7.430
 4502POPC   C1B58351  40.459  29.670   6.110
 4502POPC   C2B58352  40.331  29.829   6.461
 4502POPC   C3B58353  40.434  29.779   6.848
 4502POPC   C4B58354  40.505  29.834   7.253
 4503POPC   NC358355  35.734  42.951   5.537
 4503POPC   PO458356  35.264  43.349   5.505
 4503POPC   GL158357  35.297  43.088   5.841
 4503POPC   GL258358  35.332  42.736   5.770
 4503POPC   C1A58359  35.326  43.240   6.264
 4503POPC   D2A58360  35.269  43.551   6.584
 4503POPC   C3A58361  35.248  43.360   6.992
 4503POPC   C4A58362  35.440  43.051   7.257
 4503POPC   C1B58363  35.143  42.689   6.144
 4503POPC   C2B58364  35.059  42.888   6.544
 4503POPC   C3B58365  35.141  42.725   6.958
 4503POPC   C4B58366  35.027  42.747   7.384
 4504POPC   NC358367   0.961  40.027   5.423
 4504POPC   PO458368   1.586  39.813   5.706
 4504POPC   GL158369   1.194  39.930   5.872
 4504POPC   GL258370   1.099  40.291   5.884
 4504POPC   C1A58371   1.151  39.926   6.299
 4504POPC   D2A58372   1.000  40.136   6.641
 4504POPC   C3A58373   1.169  39.947   6.981
 4504POPC   C4A58374   1.043  39.749   7.309
 4504POPC   C1B58375   1.483  40.303   6.168
 4504POPC   C2B58376   1.547  40.218   6.613
 4504POPC   C3B58377   1.525  40.314   7.058
 4504POPC   C4B58378   1.353  40.522   7.434
 4505POPC   NC358379  36.935  39.498   5.679
 4505POPC   PO458380  37.112  38.963   5.182
 4505POPC   GL158381  36.985  38.930   5.668
 4505POPC   GL258382  36.746  39.118   5.951
 4505POPC   C1A58383  37.191  38.983   6.068
 4505POPC   D2A58384  37.267  39.079   6.511
 4505POPC   C3A58385  36.996  39.035   6.858
 4505POPC   C4A58386  37.191  39.014   7.253
 4505POPC   C1B58387  36.968  39.423   6.286
 4505POPC   C2B58388  37.124  39.544   6.683
 4505POPC   C3B58389  37.023  39.496   7.090
 4505POPC   C4B58390  36.749  39.562   7.370
 4506POPC   NC358391   2.234   1.946   5.500
 4506POPC   PO458392   1.684   1.775   5.105
 4506POPC   GL158393   1.766   2.104   5.590
 4506POPC   GL258394   1.964   1.985   5.935
 4506POPC   C1A58395   1.642   2.353   5.976
 4506POPC   D2A58396   1.610   2.214   6.419
 4506POPC   C3A58397   1.873   2.277   6.777
 4506POPC   C4A58398   1.820   2.132   7.208
 4506POPC   C1B58399   1.963   1.773   6.344
 4506POPC   C2B58400   1.954   1.774   6.815
 4506POPC   C3B58401   2.193   1.769   7.215
 4506POPC   C4B58402   2.239   1.596   7.644
 4507POPC   NC358403  19.779  10.388   5.318
 4507POPC   PO458404  20.304  10.739   5.484
 4507POPC   GL158405  20.040  10.455   5.830
 4507POPC   GL258406  19.654  10.412   5.837
 4507POPC   C1A58407  19.912  10.257   6.246
 4507POPC   D2A58408  19.855  10.156   6.704
 4507POPC   C3A58409  20.112  10.431   6.969
 4507POPC   C4A58410  20.143  10.875   7.118
 4507POPC   C1B58411  19.310  10.603   6.133
 4507POPC   C2B58412  19.182  10.666   6.568
 4507POPC   C3B58413  19.392  10.353   6.813
 4507POPC   C4B58414  19.652  10.375   7.174
 4508POPC   NC358415  28.648   8.010   5.152
 4508POPC   PO458416  28.457   8.329   5.777
 4508POPC   GL158417  28.421   8.021   6.008
 4508POPC   GL258418  28.312   7.817   5.720
 4508POPC   C1A58419  28.510   8.187   6.426
 4508POPC   D2A58420  28.268   8.192   6.792
 4508POPC   C3A58421  28.522   8.099   7.114
 4508POPC   C4A58422  28.775   8.238   7.438
 4508POPC   C1B58423  27.989   7.711   6.001
 4508POPC   C2B58424  28.127   7.827   6.414
 4508POPC   C3B58425  27.953   7.778   6.821
 4508POPC   C4B58426  28.070   7.916   7.221
 4509POPC   NC358427  26.512  14.711   5.367
 4509POPC   PO458428  26.035  14.112   5.338
 4509POPC   GL158429  26.069  14.324   5.719
 4509POPC   GL258430  26.370  14.394   5.727
 4509POPC   C1A58431  26.083  14.520   6.132
 4509POPC   D2A58432  26.047  14.775   6.502
 4509POPC   C3A58433  26.151  14.529   6.824
 4509POPC   C4A58434  26.052  14.617   7.225
 4509POPC   C1B58435  26.394  14.100   6.063
 4509POPC   C2B58436  26.404  14.120   6.505
 4509POPC   C3B58437  26.576  14.069   6.901
 4509POPC   C4B58438  26.317  14.177   7.194
 4510POPC   NC358439  10.513  25.503   5.562
 4510POPC   PO458440  10.018  24.982   5.490
 4510POPC   GL158441  10.288  25.134   5.815
 4510POPC   GL258442  10.172  25.484   5.945
 4510POPC   C1A58443  10.579  25.084   6.181
 4510POPC   D2A58444  10.495  25.222   6.621
 4510POPC   C3A58445  10.557  25.083   7.057
 4510POPC   C4A58446  10.186  25.038   7.357
 4510POPC   C1B58447  10.502  25.587   6.217
 4510POPC   C2B58448  10.661  25.709   6.594
 4510POPC   C3B58449  10.505  25.620   6.977
 4510POPC   C4B58450  10.758  25.514   7.266
 4511POPC   NC358451   3.559  36.111   5.326
 4511POPC   PO458452   3.970  35.770   5.634
 4511POPC   GL158453   3.672  36.109   5.862
 4511POPC   GL258454   3.312  36.179   5.804
 4511POPC   C1A58455   3.530  36.403   6.239
 4511POPC   D2A58456   3.445  36.339   6.712
 4511POPC   C3A58457   3.734  36.088   6.979
 4511POPC   C4A58458   3.662  36.024   7.472
 4511POPC   C1B58459   3.350  35.925   6.227
 4511POPC   C2B58460   3.349  35.815   6.673
 4511POPC   C3B58461   3.301  35.882   7.122
 4511POPC   C4B58462   3.331  36.330   7.231
 4512POPC   NC358463  43.351  19.799   5.497
 4512POPC   PO458464  42.674  19.942   5.617
 4512POPC   GL158465  43.016  19.923   5.861
 4512POPC   GL258466  43.063  19.570   5.861
 4512POPC   C1A58467  43.138  19.952   6.290
 4512POPC   D2A58468  42.874  19.876   6.656
 4512POPC   C3A58469  43.070  19.887   7.038
 4512POPC   C4A58470  43.299  20.253   7.146
 4512POPC   C1B58471  42.965  19.470   6.272
 4512POPC   C2B58472  43.230  19.545   6.617
 4512POPC   C3B58473  43.299  19.394   7.005
 4512POPC   C4B58474  43.232  19.543   7.424
 4513POPC   NC358475  43.748  26.265   5.429
 4513POPC   PO458476  43.606  25.613   5.393
 4513POPC   GL158477  43.668  25.857   5.760
 4513POPC   GL258478  43.396  26.068   5.781
 4513POPC   C1A58479  43.852  26.171   6.076
 4513POPC   D2A58480  44.147  26.109   6.404
 4513POPC   C3A58481  44.051  26.029   6.834
 4513POPC   C4A58482  44.126  26.168   7.241
 4513POPC   C1B58483  43.442  25.931   6.222
 4513POPC   C2B58484  43.602  26.128   6.613
 4513POPC   C3B58485  43.556  26.073   7.074
 4513POPC   C4B58486  43.500  25.799   7.422
 4514POPC   NC358487  31.287   1.940   5.398
 4514POPC   PO458488  30.638   1.681   5.395
 4514POPC   GL158489  30.600   1.955   5.748
 4514POPC   GL258490  30.883   2.150   5.685
 4514POPC   C1A58491  30.690   1.840   6.181
 4514POPC   D2A58492  30.656   1.952   6.621
 4514POPC   C3A58493  30.747   1.716   6.969
 4514POPC   C4A58494  30.696   2.010   7.217
 4514POPC   C1B58495  31.051   2.221   6.079
 4514POPC   C2B58496  31.158   1.943   6.394
 4514POPC   C3B58497  31.148   1.977   6.803
 4514POPC   C4B58498  31.183   1.915   7.236
 4515POPC   NC358499  30.275  23.529   5.500
 4515POPC   PO458500  29.680  23.779   5.492
 4515POPC   GL158501  29.748  23.864   5.917
 4515POPC   GL258502  30.107  23.729   5.955
 4515POPC   C1A58503  29.952  24.097   6.272
 4515POPC   D2A58504  30.004  23.726   6.502
 4515POPC   C3A58505  29.813  23.625   6.874
 4515POPC   C4A58506  29.973  23.851   7.235
 4515POPC   C1B58507  30.167  23.348   6.218
 4515POPC   C2B58508  30.291  23.338   6.679
 4515POPC   C3B58509  30.171  23.384   7.132
 4515POPC   C4B58510  30.070  23.289   7.582
 4516POPC   NC358511   8.506  22.099   5.321
 4516POPC   PO458512   8.044  22.529   5.498
 4516POPC   GL158513   8.223  22.176   5.796
 4516POPC   GL258514   8.605  22.119   5.812
 4516POPC   C1A58515   8.100  22.100   6.268
 4516POPC   D2A58516   8.182  21.974   6.723
 4516POPC   C3A58517   8.400  22.240   7.085
 4516POPC   C4A58518   8.443  22.363   7.557
 4516POPC   C1B58519   8.531  21.885   6.158
 4516POPC   C2B58520   8.653  21.793   6.577
 4516POPC   C3B58521   8.534  21.754   7.017
 4516POPC   C4B58522   8.629  21.898   7.414
 4517POPC   NC358523  36.677  13.439   5.236
 4517POPC   PO458524  37.277  13.873   5.441
 4517POPC   GL158525  37.055  13.805   5.820
 4517POPC   GL258526  36.772  13.588   5.735
 4517POPC   C1A58527  37.189  13.728   6.248
 4517POPC   D2A58528  37.243  13.391   6.518
 4517POPC   C3A58529  36.937  13.452   6.836
 4517POPC   C4A58530  36.901  13.324   7.246
 4517POPC   C1B58531  36.629  13.810   6.111
 4517POPC   C2B58532  36.828  14.051   6.432
 4517POPC   C3B58533  36.750  14.086   6.852
 4517POPC   C4B58534  36.753  13.830   7.202
 4518POPC   NC358535   9.826  42.879   5.500
 4518POPC   PO458536   9.398  43.456   5.333
 4518POPC   GL158537   9.647  43.334   5.681
 4518POPC   GL258538   9.422  43.052   5.807
 4518POPC   C1A58539   9.804  43.230   6.106
 4518POPC   D2A58540   9.597  43.184   6.514
 4518POPC   C3A58541   9.878  43.303   6.854
 4518POPC   C4A58542   9.965  43.087   7.255
 4518POPC   C1B58543   9.455  42.745   6.152
 4518POPC   C2B58544   9.573  42.666   6.595
 4518POPC   C3B58545   9.557  42.874   6.971
 4518POPC   C4B58546   9.297  42.872   7.340
 4519POPC   NC358547  15.323  12.494   5.391
 4519POPC   PO458548  14.932  13.163   5.398
 4519POPC   GL158549  15.085  12.885   5.731
 4519POPC   GL258550  15.429  12.888   5.702
 4519POPC   C1A58551  15.219  12.960   6.163
 4519POPC   D2A58552  15.234  13.127   6.564
 4519POPC   C3A58553  15.087  12.848   6.866
 4519POPC   C4A58554  15.270  12.817   7.259
 4519POPC   C1B58555  15.422  12.513   6.020
 4519POPC   C2B58556  15.386  12.561   6.479
 4519POPC   C3B58557  15.353  12.403   6.909
 4519POPC   C4B58558  15.605  12.440   7.266
 4520POPC   NC358559   2.914  31.823   5.461
 4520POPC   PO458560   2.481  32.301   5.479
 4520POPC   GL158561   2.680  32.111   5.826
 4520POPC   GL258562   3.063  32.172   5.807
 4520POPC   C1A58563   2.743  32.198   6.263
 4520POPC   D2A58564   2.964  32.203   6.667
 4520POPC   C3A58565   2.693  32.251   7.037
 4520POPC   C4A58566   2.522  32.000   7.367
 4520POPC   C1B58567   3.247  32.060   6.203
 4520POPC   C2B58568   3.205  31.748   6.561
 4520POPC   C3B58569   3.285  31.918   6.974
 4520POPC   C4B58570   3.189  32.350   7.129
 4521POPC   NC358571  41.310  11.356   5.554
 4521POPC   PO458572  41.776  10.966   5.310
 4521POPC   GL158573  41.785  11.101   5.773
 4521POPC   GL258574  41.697  11.468   5.877
 4521POPC   C1A58575  41.574  11.084   6.194
 4521POPC   D2A58576  41.579  11.350   6.585
 4521POPC   C3A58577  41.489  11.138   6.956
 4521POPC   C4A58578  41.590  10.942   7.333
 4521POPC   C1B58579  41.298  11.509   6.173
 4521POPC   C2B58580  41.172  11.668   6.595
 4521POPC   C3B58581  41.321  11.632   7.053
 4521POPC   C4B58582  41.295  11.751   7.536
 4522POPC   NC358583  37.897  16.669   5.299
 4522POPC   PO458584  38.649  16.596   5.439
 4522POPC   GL158585  38.566  16.639   5.884
 4522POPC   GL258586  38.885  16.756   5.996
 4522POPC   C1A58587  38.504  16.803   6.331
 4522POPC   D2A58588  38.563  16.780   6.776
 4522POPC   C3A58589  38.291  17.071   7.025
 4522POPC   C4A58590  38.137  16.971   7.455
 4522POPC   C1B58591  38.804  16.389   6.260
 4522POPC   C2B58592  38.757  16.303   6.675
 4522POPC   C3B58593  38.672  16.373   7.076
 4522POPC   C4B58594  38.599  16.749   7.315
 4523POPC   NC358595  12.571  23.049   5.298
 4523POPC   PO458596  13.203  23.149   5.370
 4523POPC   GL158597  12.928  23.015   5.718
 4523POPC   GL258598  12.725  22.700   5.671
 4523POPC   C1A58599  12.924  23.004   6.186
 4523POPC   D2A58600  12.824  23.098   6.669
 4523POPC   C3A58601  12.998  22.841   7.008
 4523POPC   C4A58602  13.063  22.717   7.450
 4523POPC   C1B58603  12.472  22.683   6.062
 4523POPC   C2B58604  12.607  22.700   6.469
 4523POPC   C3B58605  12.494  22.692   6.877
 4523POPC   C4B58606  12.625  22.558   7.281
 4524POPC   NC358607  12.630   1.311   5.541
 4524POPC   PO458608  13.135   0.988   5.568
 4524POPC   GL158609  12.932   1.086   5.916
 4524POPC   GL258610  13.020   1.439   5.887
 4524POPC   C1A58611  12.880   1.008   6.337
 4524POPC   D2A58612  12.923   1.259   6.663
 4524POPC   C3A58613  13.013   1.101   7.064
 4524POPC   C4A58614  12.819   1.153   7.465
 4524POPC   C1B58615  12.785   1.572   6.240
 4524POPC   C2B58616  12.703   1.711   6.654
 4524POPC   C3B58617  13.029   1.623   7.009
 4524POPC   C4B58618  13.342   1.430   7.283
 4525POPC   NC358619   7.572  29.229   5.198
 4525POPC   PO458620   7.012  29.434   5.558
 4525POPC   GL158621   7.386  29.282   5.742
 4525POPC   GL258622   7.701  29.491   5.735
 4525POPC   C1A58623   7.302  29.258   6.184
 4525POPC   D2A58624   7.155  29.349   6.586
 4525POPC   C3A58625   7.372  29.179   6.942
 4525POPC   C4A58626   7.444  28.766   7.130
 4525POPC   C1B58627   7.791  29.238   6.102
 4525POPC   C2B58628   7.651  29.040   6.504
 4525POPC   C3B58629   7.859  28.967   6.898
 4525POPC   C4B58630   7.772  29.124   7.292
 4526POPC   NC358631   1.649  11.424   5.515
 4526POPC   PO458632   2.054  11.073   5.076
 4526POPC   GL158633   1.871  10.945   5.610
 4526POPC   GL258634   2.170  10.825   5.851
 4526POPC   C1A58635   1.822  11.017   6.138
 4526POPC   D2A58636   2.070  11.151   6.554
 4526POPC   C3A58637   1.866  11.190   7.012
 4526POPC   C4A58638   1.642  11.542   7.251
 4526POPC   C1B58639   2.326  10.736   6.236
 4526POPC   C2B58640   2.487  10.816   6.633
 4526POPC   C3B58641   2.348  11.012   7.017
 4526POPC   C4B58642   2.184  10.919   7.427
 4527POPC   NC358643   8.408  44.297   5.675
 4527POPC   PO458644   7.903  44.655   5.320
 4527POPC   GL158645   7.980  44.607   5.743
 4527POPC   GL258646   8.290  44.787   5.801
 4527POPC   C1A58647   8.010  44.656   6.200
 4527POPC   D2A58648   8.070  44.886   6.568
 4527POPC   C3A58649   8.108  44.598   6.908
 4527POPC   C4A58650   7.977  44.758   7.290
 4527POPC   C1B58651   8.558  44.659   6.165
 4527POPC   C2B58652   8.537  44.678   6.592
 4527POPC   C3B58653   8.639  44.668   7.013
 4527POPC   C4B58654   8.450  44.724   7.439
 4528POPC   NC358655  38.546   1.684   5.437
 4528POPC   PO458656  38.328   2.429   5.407
 4528POPC   GL158657  38.415   2.105   5.746
 4528POPC   GL258658  38.215   1.788   5.804
 4528POPC   C1A58659  38.591   1.971   6.151
 4528POPC   D2A58660  38.441   1.898   6.593
 4528POPC   C3A58661  38.718   1.949   6.996
 4528POPC   C4A58662  38.844   2.297   7.259
 4528POPC   C1B58663  38.048   1.898   6.190
 4528POPC   C2B58664  37.895   1.861   6.596
 4528POPC   C3B58665  38.102   1.777   6.949
 4528POPC   C4B58666  38.259   2.152   7.106
 4529POPC   NC358667  19.259  31.022   5.262
 4529POPC   PO458668  19.266  30.332   5.236
 4529POPC   GL158669  19.210  30.621   5.622
 4529POPC   GL258670  19.464  30.840   5.783
 4529POPC   C1A58671  19.047  30.662   6.061
 4529POPC   D2A58672  19.054  30.856   6.484
 4529POPC   C3A58673  18.892  30.682   6.847
 4529POPC   C4A58674  18.869  30.938   7.185
 4529POPC   C1B58675  19.555  30.498   6.080
 4529POPC   C2B58676  19.706  30.408   6.510
 4529POPC   C3B58677  19.432  30.526   6.849
 4529POPC   C4B58678  19.265  30.593   7.214
 4530POPC   NC358679  37.000  10.610   5.258
 4530POPC   PO458680  37.459  10.849   5.718
 4530POPC   GL158681  37.144  10.492   5.822
 4530POPC   GL258682  36.799  10.341   5.795
 4530POPC   C1A58683  37.105  10.227   6.213
 4530POPC   D2A58684  37.313  10.352   6.608
 4530POPC   C3A58685  37.199  10.493   6.998
 4530POPC   C4A58686  37.363  10.270   7.321
 4530POPC   C1B58687  36.680  10.523   6.226
 4530POPC   C2B58688  36.783  10.625   6.697
 4530POPC   C3B58689  36.696  10.517   7.150
 4530POPC   C4B58690  36.619  10.534   7.637
 4531POPC   NC358691  43.448   3.762   5.571
 4531POPC   PO458692  43.938   3.347   5.390
 4531POPC   GL158693  44.061   3.510   5.765
 4531POPC   GL258694  44.305   3.304   5.824
 4531POPC   C1A58695  43.891   3.657   6.142
 4531POPC   D2A58696  43.689   3.425   6.493
 4531POPC   C3A58697  43.681   3.689   6.841
 4531POPC   C4A58698  43.768   3.661   7.253
 4531POPC   C1B58699  44.412   3.473   6.224
 4531POPC   C2B58700  44.187   3.605   6.561
 4531POPC   C3B58701  44.188   3.615   6.966
 4531POPC   C4B58702  44.155   3.365   7.328
 4532POPC   NC358703  33.425  33.164   5.376
 4532POPC   PO458704  32.815  32.862   5.415
 4532POPC   GL158705  32.771  32.916   5.835
 4532POPC   GL258706  32.989  33.216   5.797
 4532POPC   C1A58707  33.024  32.901   6.223
 4532POPC   D2A58708  33.386  32.803   6.470
 4532POPC   C3A58709  33.302  32.714   6.867
 4532POPC   C4A58710  33.053  32.888   7.182
 4532POPC   C1B58711  33.108  33.420   6.178
 4532POPC   C2B58712  33.051  33.292   6.612
 4532POPC   C3B58713  32.822  33.288   6.993
 4532POPC   C4B58714  32.812  33.384   7.459
 4533POPC   NC358715   5.755  28.882   5.279
 4533POPC   PO458716   6.323  28.781   5.610
 4533POPC   GL158717   5.931  28.927   5.786
 4533POPC   GL258718   5.736  29.232   5.667
 4533POPC   C1A58719   5.945  29.190   6.146
 4533POPC   D2A58720   6.223  29.205   6.491
 4533POPC   C3A58721   5.983  29.200   6.870
 4533POPC   C4A58722   6.030  28.893   7.205
 4533POPC   C1B58723   5.458  29.364   6.027
 4533POPC   C2B58724   5.470  29.220   6.451
 4533POPC   C3B58725   5.425  29.386   6.855
 4533POPC   C4B58726   5.577  29.290   7.227
 4534POPC   NC358727   1.656  25.972   5.477
 4534POPC   PO458728   1.017  25.737   5.299
 4534POPC   GL158729   1.169  25.846   5.694
 4534POPC   GL258730   1.249  26.190   5.774
 4534POPC   C1A58731   1.043  25.864   6.125
 4534POPC   D2A58732   1.374  25.849   6.405
 4534POPC   C3A58733   1.425  26.123   6.764
 4534POPC   C4A58734   1.451  25.953   7.188
 4534POPC   C1B58735   1.249  26.323   6.221
 4534POPC   C2B58736   1.023  26.378   6.600
 4534POPC   C3B58737   0.972  26.170   7.010
 4534POPC   C4B58738   1.110  26.285   7.413
 4535POPC   NC358739  20.585   4.414   5.258
 4535POPC   PO458740  21.129   4.110   5.482
 4535POPC   GL158741  20.814   4.466   5.718
 4535POPC   GL258742  20.418   4.424   5.787
 4535POPC   C1A58743  20.713   4.617   6.159
 4535POPC   D2A58744  20.768   4.373   6.517
 4535POPC   C3A58745  20.526   4.428   6.845
 4535POPC   C4A58746  20.726   4.184   7.154
 4535POPC   C1B58747  20.372   4.181   6.246
 4535POPC   C2B58748  20.276   3.992   6.694
 4535POPC   C3B58749  20.199   4.146   7.146
 4535POPC   C4B58750  20.392   4.138   7.560
 4536POPC   NC358751  21.708  23.129   5.501
 4536POPC   PO458752  21.249  22.765   5.405
 4536POPC   GL158753  21.421  22.761   5.833
 4536POPC   GL258754  21.755  22.693   5.935
 4536POPC   C1A58755  21.388  22.734   6.315
 4536POPC   D2A58756  21.558  22.859   6.727
 4536POPC   C3A58757  21.249  22.950   7.045
 4536POPC   C4A58758  20.877  22.689   7.215
 4536POPC   C1B58759  21.815  23.017   6.293
 4536POPC   C2B58760  21.901  23.283   6.665
 4536POPC   C3B58761  21.813  23.129   7.086
 4536POPC   C4B58762  21.508  23.228   7.443
 4537POPC   NC358763  33.594  44.336   5.387
 4537POPC   PO458764  34.096  44.794   5.194
 4537POPC   GL158765  34.109  44.740   5.686
 4537POPC   GL258766  33.750  44.653   5.780
 4537POPC   C1A58767  34.053  44.788   6.159
 4537POPC   D2A58768  33.725  44.659   6.464
 4537POPC   C3A58769  33.876  44.612   6.893
 4537POPC   C4A58770  33.882  44.918   7.219
 4537POPC   C1B58771  33.426  44.409   6.061
 4537POPC   C2B58772  33.276  44.370   6.515
 4537POPC   C3B58773  33.469  44.305   6.943
 4537POPC   C4B58774  33.652  44.485   7.360
 4538POPC   NC358775   2.861  36.403   5.372
 4538POPC   PO458776   3.060  35.788   5.253
 4538POPC   GL158777   2.866  35.956   5.655
 4538POPC   GL258778   2.542  36.113   5.743
 4538POPC   C1A58779   2.888  36.095   6.098
 4538POPC   D2A58780   2.871  35.885   6.475
 4538POPC   C3A58781   2.926  36.099   6.876
 4538POPC   C4A58782   2.817  35.882   7.258
 4538POPC   C1B58783   2.425  36.293   6.166
 4538POPC   C2B58784   2.504  36.224   6.586
 4538POPC   C3B58785   2.443  35.944   6.913
 4538POPC   C4B58786   2.463  36.231   7.254
 4539POPC   NC358787  38.762  25.887   5.451
 4539POPC   PO458788  38.139  26.086   5.445
 4539POPC   GL158789  38.440  26.099   5.781
 4539POPC   GL258790  38.777  26.302   5.747
 4539POPC   C1A58791  38.317  25.978   6.195
 4539POPC   D2A58792  38.162  25.868   6.586
 4539POPC   C3A58793  38.323  26.129   6.920
 4539POPC   C4A58794  38.072  26.227   7.265
 4539POPC   C1B58795  38.822  26.074   6.136
 4539POPC   C2B58796  38.697  25.993   6.562
 4539POPC   C3B58797  38.849  26.134   6.949
 4539POPC   C4B58798  38.677  26.071   7.331
 4540POPC   NC358799   7.863  19.010   5.681
 4540POPC   PO458800   7.219  19.251   5.446
 4540POPC   GL158801   7.384  19.095   5.820
 4540POPC   GL258802   7.313  18.768   5.819
 4540POPC   C1A58803   7.576  19.228   6.230
 4540POPC   D2A58804   7.767  19.362   6.617
 4540POPC   C3A58805   7.514  19.284   6.962
 4540POPC   C4A58806   7.588  19.484   7.348
 4540POPC   C1B58807   7.285  18.803   6.260
 4540POPC   C2B58808   7.595  18.864   6.612
 4540POPC   C3B58809   7.712  18.767   7.041
 4540POPC   C4B58810   7.413  18.670   7.359
 4541POPC   NC358811  16.158  21.101   5.448
 4541POPC   PO458812  15.512  21.300   5.384
 4541POPC   GL158813  15.780  21.310   5.773
 4541POPC   GL258814  16.019  21.573   5.873
 4541POPC   C1A58815  15.678  21.193   6.227
 4541POPC   D2A58816  15.579  20.986   6.662
 4541POPC   C3A58817  15.625  21.252   7.038
 4541POPC   C4A58818  15.886  21.240   7.421
 4541POPC   C1B58819  16.072  21.514   6.338
 4541POPC   C2B58820  15.982  21.537   6.800
 4541POPC   C3B58821  16.216  21.562   7.191
 4541POPC   C4B58822  16.335  21.608   7.594
 4542POPC   NC358823   5.643  34.661   5.289
 4542POPC   PO458824   6.079  34.167   5.391
 4542POPC   GL158825   5.774  34.295   5.734
 4542POPC   GL258826   5.735  34.667   5.815
 4542POPC   C1A58827   5.806  34.289   6.190
 4542POPC   D2A58828   5.857  34.553   6.572
 4542POPC   C3A58829   6.104  34.344   6.902
 4542POPC   C4A58830   5.814  34.153   7.189
 4542POPC   C1B58831   5.827  34.953   6.214
 4542POPC   C2B58832   5.934  35.066   6.664
 4542POPC   C3B58833   6.154  34.861   7.019
 4542POPC   C4B58834   6.241  34.934   7.470
 4543POPC   NC358835   7.256   0.557   5.047
 4543POPC   PO458836   7.647   0.229   5.528
 4543POPC   GL158837   7.370   0.250   5.837
 4543POPC   GL258838   7.279   0.571   5.694
 4543POPC   C1A58839   7.448   0.271   6.280
 4543POPC   D2A58840   7.629   0.154   6.643
 4543POPC   C3A58841   7.427   0.303   6.992
 4543POPC   C4A58842   7.399   0.530   7.330
 4543POPC   C1B58843   7.584   0.689   6.036
 4543POPC   C2B58844   7.676   0.682   6.517
 4543POPC   C3B58845   7.636   0.799   6.958
 4543POPC   C4B58846   7.615   0.979   7.385
 4544POPC   NC358847  29.054  22.503   5.380
 4544POPC   PO458848  29.242  21.876   5.327
 4544POPC   GL158849  29.364  22.182   5.670
 4544POPC   GL258850  29.027  22.225   5.815
 4544POPC   C1A58851  29.418  22.208   6.146
 4544POPC   D2A58852  29.259  22.320   6.582
 4544POPC   C3A58853  29.171  22.007   6.911
 4544POPC   C4A58854  29.414  22.033   7.295
 4544POPC   C1B58855  28.916  22.419   6.213
 4544POPC   C2B58856  28.705  22.357   6.592
 4544POPC   C3B58857  28.854  22.403   7.005
 4544POPC   C4B58858  28.631  22.461   7.374
 4545POPC   NC358859   4.270  24.447   5.287
 4545POPC   PO458860   4.023  23.846   5.271
 4545POPC   GL158861   3.984  23.655   5.728
 4545POPC   GL258862   3.743  23.892   5.843
 4545POPC   C1A58863   4.263  23.697   6.153
 4545POPC   D2A58864   4.536  23.606   6.569
 4545POPC   C3A58865   4.403  23.629   7.053
 4545POPC   C4A58866   4.139  23.933   7.348
 4545POPC   C1B58867   3.762  23.658   6.227
 4545POPC   C2B58868   4.022  23.581   6.608
 4545POPC   C3B58869   3.889  23.623   7.020
 4545POPC   C4B58870   3.580  23.841   7.219
 4546POPC   NC358871   1.898   8.334   5.324
 4546POPC   PO458872   1.784   7.777   5.703
 4546POPC   GL158873   2.087   8.104   5.851
 4546POPC   GL258874   2.064   8.495   5.785
 4546POPC   C1A58875   2.090   8.042   6.291
 4546POPC   D2A58876   1.988   7.776   6.590
 4546POPC   C3A58877   2.196   7.851   6.954
 4546POPC   C4A58878   2.174   8.146   7.301
 4546POPC   C1B58879   1.855   8.478   6.202
 4546POPC   C2B58880   1.987   8.386   6.661
 4546POPC   C3B58881   1.784   8.423   7.071
 4546POPC   C4B58882   1.942   8.573   7.490
 4547POPC   NC358883  24.874  29.896   5.241
 4547POPC   PO458884  25.581  29.717   5.226
 4547POPC   GL158885  25.319  29.782   5.598
 4547POPC   GL258886  25.472  30.085   5.739
 4547POPC   C1A58887  25.064  29.738   5.999
 4547POPC   D2A58888  24.936  29.853   6.442
 4547POPC   C3A58889  25.166  29.754   6.866
 4547POPC   C4A58890  25.087  29.698   7.324
 4547POPC   C1B58891  25.395  30.087   6.197
 4547POPC   C2B58892  25.287  30.220   6.626
 4547POPC   C3B58893  25.380  30.264   7.068
 4547POPC   C4B58894  25.555  29.901   7.255
 4548POPC   NC358895  24.180  19.189   5.420
 4548POPC   PO458896  23.650  18.744   5.452
 4548POPC   GL158897  23.552  19.050   5.812
 4548POPC   GL258898  23.358  19.380   5.754
 4548POPC   C1A58899  23.662  19.016   6.250
 4548POPC   D2A58900  23.838  18.810   6.594
 4548POPC   C3A58901  23.680  18.913   6.988
 4548POPC   C4A58902  23.936  19.220   7.210
 4548POPC   C1B58903  23.462  19.475   6.218
 4548POPC   C2B58904  23.553  19.302   6.687
 4548POPC   C3B58905  23.439  19.360   7.165
 4548POPC   C4B58906  23.325  19.200   7.607
 4549POPC   NC358907  13.065  13.788   5.455
 4549POPC   PO458908  12.504  13.378   5.429
 4549POPC   GL158909  12.811  13.491   5.776
 4549POPC   GL258910  13.161  13.354   5.756
 4549POPC   C1A58911  12.981  13.537   6.196
 4549POPC   D2A58912  13.067  13.767   6.565
 4549POPC   C3A58913  12.705  13.776   6.832
 4549POPC   C4A58914  12.676  13.745   7.278
 4549POPC   C1B58915  13.356  13.167   6.133
 4549POPC   C2B58916  13.257  13.282   6.576
 4549POPC   C3B58917  13.066  13.402   6.976
 4549POPC   C4B58918  13.146  13.507   7.415
 4550POPC   NC358919  10.541   3.606   5.225
 4550POPC   PO458920  10.205   3.049   5.465
 4550POPC   GL158921  10.296   3.470   5.703
 4550POPC   GL258922  10.586   3.763   5.697
 4550POPC   C1A58923  10.415   3.555   6.115
 4550POPC   D2A58924  10.592   3.686   6.452
 4550POPC   C3A58925  10.443   3.484   6.809
 4550POPC   C4A58926  10.723   3.419   7.124
 4550POPC   C1B58927  10.745   4.003   6.057
 4550POPC   C2B58928  10.701   4.192   6.484
 4550POPC   C3B58929  10.675   3.955   6.870
 4550POPC   C4B58930  10.370   3.833   7.165
 4551POPC   NC358931  35.653  16.408   5.487
 4551POPC   PO458932  35.738  16.922   5.033
 4551POPC   GL158933  35.280  16.705   5.555
 4551POPC   GL258934  35.207  16.978   5.786
 4551POPC   C1A58935  35.256  16.547   6.054
 4551POPC   D2A58936  35.225  16.344   6.494
 4551POPC   C3A58937  35.408  16.533   6.881
 4551POPC   C4A58938  35.260  16.480   7.274
 4551POPC   C1B58939  35.365  17.027   6.209
 4551POPC   C2B58940  35.211  16.923   6.613
 4551POPC   C3B58941  35.395  17.054   6.997
 4551POPC   C4B58942  35.298  17.102   7.398
 4552POPC   NC358943  24.626   5.596   5.474
 4552POPC   PO458944  24.349   4.929   5.494
 4552POPC   GL158945  24.568   5.180   5.785
 4552POPC   GL258946  24.335   5.305   6.006
 4552POPC   C1A58947  24.808   5.130   6.173
 4552POPC   D2A58948  24.765   4.775   6.467
 4552POPC   C3A58949  24.761   4.908   6.898
 4552POPC   C4A58950  24.343   4.896   7.043
 4552POPC   C1B58951  24.310   5.035   6.329
 4552POPC   C2B58952  24.536   5.253   6.609
 4552POPC   C3B58953  24.576   5.400   6.988
 4552POPC   C4B58954  24.358   5.337   7.320
 4553POPC   NC358955  24.961  21.522   5.181
 4553POPC   PO458956  24.299  21.374   5.338
 4553POPC   GL158957  24.575  21.531   5.698
 4553POPC   GL258958  24.379  21.268   5.840
 4553POPC   C1A58959  24.836  21.378   6.116
 4553POPC   D2A58960  24.768  21.647   6.486
 4553POPC   C3A58961  24.719  21.533   6.921
 4553POPC   C4A58962  24.839  21.353   7.300
 4553POPC   C1B58963  24.375  21.534   6.170
 4553POPC   C2B58964  24.267  21.623   6.540
 4553POPC   C3B58965  24.153  21.548   6.901
 4553POPC   C4B58966  24.335  21.269   7.172
 4554POPC   NC358967  40.768   6.204   5.305
 4554POPC   PO458968  41.216   5.762   5.434
 4554POPC   GL158969  40.963   5.577   5.752
 4554POPC   GL258970  40.650   5.750   5.780
 4554POPC   C1A58971  40.976   5.732   6.192
 4554POPC   D2A58972  40.949   6.032   6.526
 4554POPC   C3A58973  41.002   5.860   6.924
 4554POPC   C4A58974  40.899   5.981   7.330
 4554POPC   C1B58975  40.470   5.658   6.198
 4554POPC   C2B58976  40.613   5.639   6.643
 4554POPC   C3B58977  40.505   5.760   7.077
 4554POPC   C4B58978  40.428   5.966   7.495
 4555POPC   NC358979   7.338   9.944   5.347
 4555POPC   PO458980   7.891  10.078   5.444
 4555POPC   GL158981   7.665   9.903   5.806
 4555POPC   GL258982   7.638   9.517   5.798
 4555POPC   C1A58983   7.544   9.834   6.250
 4555POPC   D2A58984   7.712   9.549   6.549
 4555POPC   C3A58985   7.660   9.641   6.979
 4555POPC   C4A58986   7.715  10.061   7.174
 4555POPC   C1B58987   7.336   9.391   6.132
 4555POPC   C2B58988   7.195   9.583   6.539
 4555POPC   C3B58989   7.279   9.934   6.804
 4555POPC   C4B58990   7.251   9.826   7.236
 4556POPC   NC358991  24.880  23.129   5.550
 4556POPC   PO458992  24.248  22.871   5.435
 4556POPC   GL158993  24.496  22.896   5.793
 4556POPC   GL258994  24.447  23.270   5.842
 4556POPC   C1A58995  24.692  23.014   6.190
 4556POPC   D2A58996  24.511  23.208   6.521
 4556POPC   C3A58997  24.600  23.047   6.900
 4556POPC   C4A58998  24.395  22.886   7.235
 4556POPC   C1B58999  24.138  23.353   6.208
 4556POPC   C2B59000  23.948  23.293   6.632
 4556POPC   C3B59001  23.980  23.133   7.064
 4556POPC   C4B59002  24.053  23.118   7.534
 4557POPC   NC359003  41.949  32.906   5.382
 4557POPC   PO459004  42.490  33.250   5.423
 4557POPC   GL159005  42.257  33.074   5.779
 4557POPC   GL259006  41.934  33.243   5.749
 4557POPC   C1A59007  42.295  32.896   6.210
 4557POPC   D2A59008  42.115  32.716   6.614
 4557POPC   C3A59009  42.326  32.916   6.933
 4557POPC   C4A59010  42.469  32.940   7.328
 4557POPC   C1B59011  41.987  33.350   6.180
 4557POPC   C2B59012  42.190  33.261   6.571
 4557POPC   C3B59013  42.272  33.417   6.976
 4557POPC   C4B59014  42.083  33.279   7.363
 4558POPC   NC359015  19.647  13.364   5.226
 4558POPC   PO459016  20.178  13.857   5.272
 4558POPC   GL159017  19.810  13.730   5.599
 4558POPC   GL259018  19.657  13.400   5.731
 4558POPC   C1A59019  19.680  13.783   6.068
 4558POPC   D2A59020  19.943  13.657   6.405
 4558POPC   C3A59021  19.906  13.615   6.875
 4558POPC   C4A59022  20.148  13.840   7.209
 4558POPC   C1B59023  19.784  13.251   6.146
 4558POPC   C2B59024  19.669  13.224   6.571
 4558POPC   C3B59025  19.619  13.217   6.999
 4558POPC   C4B59026  19.520  13.315   7.401
 4559POPC   NC359027  24.628   3.053   5.211
 4559POPC   PO459028  24.221   2.592   5.500
 4559POPC   GL159029  24.325   2.901   5.795
 4559POPC   GL259030  24.695   2.971   5.756
 4559POPC   C1A59031  24.210   2.973   6.248
 4559POPC   D2A59032  24.444   3.011   6.664
 4559POPC   C3A59033  24.214   2.974   7.077
 4559POPC   C4A59034  24.011   2.613   7.305
 4559POPC   C1B59035  24.661   2.771   6.166
 4559POPC   C2B59036  24.355   2.549   6.480
 4559POPC   C3B59037  24.401   2.541   6.926
 4559POPC   C4B59038  24.548   2.613   7.390
 4560POPC   NC359039  16.400  42.851   5.510
 4560POPC   PO459040  16.422  43.557   5.519
 4560POPC   GL159041  16.679  43.310   5.829
 4560POPC   GL259042  16.777  42.975   5.817
 4560POPC   C1A59043  16.905  43.225   6.247
 4560POPC   D2A59044  17.138  43.220   6.630
 4560POPC   C3A59045  16.945  43.194   7.052
 4560POPC   C4A59046  16.698  43.140   7.441
 4560POPC   C1B59047  16.481  42.922   6.153
 4560POPC   C2B59048  16.500  43.047   6.562
 4560POPC   C3B59049  16.576  42.850   6.950
 4560POPC   C4B59050  16.596  42.649   7.353
 4561POPC   NC359051  24.606  37.074   5.357
 4561POPC   PO459052  24.146  36.592   5.195
 4561POPC   GL159053  24.253  36.794   5.623
 4561POPC   GL259054  24.573  36.659   5.767
 4561POPC   C1A59055  24.262  36.930   6.079
 4561POPC   D2A59056  24.519  36.934   6.495
 4561POPC   C3A59057  24.343  36.965   6.911
 4561POPC   C4A59058  24.340  36.790   7.340
 4561POPC   C1B59059  24.855  36.837   6.084
 4561POPC   C2B59060  25.058  37.040   6.441
 4561POPC   C3B59061  24.935  37.014   6.868
 4561POPC   C4B59062  24.733  37.120   7.239
 4562POPC   NC359063  19.885  36.857   5.356
 4562POPC   PO459064  19.311  36.524   5.394
 4562POPC   GL159065  19.708  36.523   5.746
 4562POPC   GL259066  20.071  36.663   5.817
 4562POPC   C1A59067  19.744  36.633   6.229
 4562POPC   D2A59068  19.625  36.894   6.630
 4562POPC   C3A59069  19.785  36.980   7.076
 4562POPC   C4A59070  20.023  37.240   7.391
 4562POPC   C1B59071  20.246  36.579   6.261
 4562POPC   C2B59072  20.127  36.682   6.731
 4562POPC   C3B59073  20.122  36.625   7.205
 4562POPC   C4B59074  20.044  36.656   7.662
 4563POPC   NC359075  40.497  17.802   5.424
 4563POPC   PO459076  40.132  17.261   5.590
 4563POPC   GL159077  40.148  17.512   5.898
 4563POPC   GL259078  39.840  17.685   5.845
 4563POPC   C1A59079  40.106  17.358   6.295
 4563POPC   D2A59080  39.870  17.269   6.647
 4563POPC   C3A59081  40.068  17.127   7.015
 4563POPC   C4A59082  39.799  17.199   7.360
 4563POPC   C1B59083  39.855  17.830   6.280
 4563POPC   C2B59084  39.581  17.705   6.659
 4563POPC   C3B59085  39.787  17.646   7.063
 4563POPC   C4B59086  40.126  17.950   7.147
 4564POPC   NC359087  11.606  12.783   5.160
 4564POPC   PO459088  11.975  13.160   5.585
 4564POPC   GL159089  11.899  12.822   5.819
 4564POPC   GL259090  12.251  12.815   5.938
 4564POPC   C1A59091  11.918  12.588   6.228
 4564POPC   D2A59092  11.888  12.793   6.624
 4564POPC   C3A59093  11.946  12.561   6.999
 4564POPC   C4A59094  12.256  12.645   7.295
 4564POPC   C1B59095  12.044  13.102   6.246
 4564POPC   C2B59096  12.154  13.222   6.666
 4564POPC   C3B59097  12.096  13.080   7.100
 4564POPC   C4B59098  12.264  13.095   7.555
 4565POPC   NC359099  39.680  33.659   5.483
 4565POPC   PO459100  39.038  33.450   5.471
 4565POPC   GL159101  39.276  33.554   5.816
 4565POPC   GL259102  39.294  33.911   5.784
 4565POPC   C1A59103  39.396  33.553   6.241
 4565POPC   D2A59104  39.288  33.762   6.622
 4565POPC   C3A59105  39.246  33.523   6.984
 4565POPC   C4A59106  39.260  33.650   7.394
 4565POPC   C1B59107  39.352  34.081   6.212
 4565POPC   C2B59108  39.152  34.268   6.577
 4565POPC   C3B59109  39.091  34.099   7.008
 4565POPC   C4B59110  39.155  34.130   7.515
 4566POPC   NC359111  41.183  18.366   5.385
 4566POPC   PO459112  41.820  18.575   5.461
 4566POPC   GL159113  41.588  18.298   5.732
 4566POPC   GL259114  41.309  18.460   5.893
 4566POPC   C1A59115  41.623  18.122   6.147
 4566POPC   D2A59116  41.381  17.971   6.526
 4566POPC   C3A59117  41.550  18.241   6.826
 4566POPC   C4A59118  41.572  18.271   7.252
 4566POPC   C1B59119  41.237  18.418   6.342
 4566POPC   C2B59120  41.299  18.706   6.656
 4566POPC   C3B59121  41.353  18.686   7.076
 4566POPC   C4B59122  41.290  18.590   7.541
 4567POPC   NC359123  40.880  25.140   5.177
 4567POPC   PO459124  40.837  25.550   5.741
 4567POPC   GL159125  40.688  25.268   5.995
 4567POPC   GL259126  41.029  25.095   5.953
 4567POPC   C1A59127  40.442  25.265   6.367
 4567POPC   D2A59128  40.202  25.522   6.643
 4567POPC   C3A59129  40.401  25.523   7.029
 4567POPC   C4A59130  40.695  25.716   7.234
 4567POPC   C1B59131  40.990  25.299   6.391
 4567POPC   C2B59132  40.782  25.326   6.784
 4567POPC   C3B59133  40.712  25.112   7.188
 4567POPC   C4B59134  40.949  25.089   7.584
 4568POPC   NC359135   3.678  21.852   5.222
 4568POPC   PO459136   3.339  22.408   5.460
 4568POPC   GL159137   3.435  22.241   5.848
 4568POPC   GL259138   3.737  22.397   5.979
 4568POPC   C1A59139   3.311  21.988   6.246
 4568POPC   D2A59140   3.496  21.822   6.662
 4568POPC   C3A59141   3.744  22.128   6.898
 4568POPC   C4A59142   3.686  22.376   7.294
 4568POPC   C1B59143   3.761  22.157   6.350
 4568POPC   C2B59144   3.950  21.746   6.433
 4568POPC   C3B59145   4.040  21.698   6.850
 4568POPC   C4B59146   3.751  21.696   7.170
 4569POPC   NC359147  33.787  32.049   5.356
 4569POPC   PO459148  33.580  32.698   5.377
 4569POPC   GL159149  33.583  32.419   5.711
 4569POPC   GL259150  33.924  32.337   5.760
 4569POPC   C1A59151  33.694  32.546   6.148
 4569POPC   D2A59152  33.655  32.361   6.548
 4569POPC   C3A59153  33.809  32.579   6.881
 4569POPC   C4A59154  33.575  32.377   7.193
 4569POPC   C1B59155  33.786  32.042   6.101
 4569POPC   C2B59156  33.983  31.943   6.501
 4569POPC   C3B59157  33.938  32.035   6.946
 4569POPC   C4B59158  34.205  31.849   7.264
 4570POPC   NC359159  33.338  23.462   5.401
 4570POPC   PO459160  32.806  23.916   5.455
 4570POPC   GL159161  33.020  23.675   5.734
 4570POPC   GL259162  33.295  23.895   5.689
 4570POPC   C1A59163  32.892  23.525   6.142
 4570POPC   D2A59164  32.617  23.726   6.447
 4570POPC   C3A59165  32.759  23.724   6.871
 4570POPC   C4A59166  32.831  23.391   7.167
 4570POPC   C1B59167  33.376  23.703   6.118
 4570POPC   C2B59168  33.181  23.744   6.559
 4570POPC   C3B59169  33.237  23.690   7.022
 4570POPC   C4B59170  33.428  23.896   7.347
 4571POPC   NC359171   2.274  31.057   5.527
 4571POPC   PO459172   1.806  31.570   5.376
 4571POPC   GL159173   1.925  31.496   5.805
 4571POPC   GL259174   2.253  31.442   5.890
 4571POPC   C1A59175   1.901  31.632   6.249
 4571POPC   D2A59176   2.160  31.561   6.551
 4571POPC   C3A59177   2.026  31.396   6.917
 4571POPC   C4A59178   1.945  31.356   7.383
 4571POPC   C1B59179   2.397  31.794   6.126
 4571POPC   C2B59180   2.258  32.052   6.465
 4571POPC   C3B59181   2.309  31.908   6.902
 4571POPC   C4B59182   2.387  31.568   7.190
 4572POPC   NC359183  36.509  30.181   5.424
 4572POPC   PO459184  35.877  29.854   5.397
 4572POPC   GL159185  36.124  30.005   5.720
 4572POPC   GL259186  35.860  29.983   5.894
 4572POPC   C1A59187  36.319  29.842   6.120
 4572POPC   D2A59188  36.209  29.710   6.558
 4572POPC   C3A59189  36.320  29.844   6.976
 4572POPC   C4A59190  36.263  30.124   7.335
 4572POPC   C1B59191  35.809  29.765   6.242
 4572POPC   C2B59192  35.776  30.000   6.610
 4572POPC   C3B59193  35.824  30.002   7.038
 4572POPC   C4B59194  35.715  29.994   7.469
 4573POPC   NC359195  39.165  24.763   5.369
 4573POPC   PO459196  39.529  24.214   5.369
 4573POPC   GL159197  39.308  24.361   5.698
 4573POPC   GL259198  38.973  24.318   5.767
 4573POPC   C1A59199  39.421  24.369   6.117
 4573POPC   D2A59200  39.390  24.162   6.500
 4573POPC   C3A59201  39.462  24.411   6.877
 4573POPC   C4A59202  39.441  24.449   7.301
 4573POPC   C1B59203  38.927  24.229   6.238
 4573POPC   C2B59204  38.983  24.402   6.675
 4573POPC   C3B59205  38.981  24.542   7.094
 4573POPC   C4B59206  38.982  24.419   7.524
 4574POPC   NC359207  19.216   3.206   5.533
 4574POPC   PO459208  18.931   3.781   5.308
 4574POPC   GL159209  19.046   3.653   5.743
 4574POPC   GL259210  19.373   3.823   5.827
 4574POPC   C1A59211  18.976   3.410   6.144
 4574POPC   D2A59212  18.762   3.399   6.547
 4574POPC   C3A59213  18.951   3.404   6.907
 4574POPC   C4A59214  18.723   3.672   7.165
 4574POPC   C1B59215  19.455   3.583   6.178
 4574POPC   C2B59216  19.226   3.645   6.552
 4574POPC   C3B59217  19.200   3.866   6.948
 4574POPC   C4B59218  19.427   3.760   7.322
 4575POPC   NC359219  30.822   8.368   5.353
 4575POPC   PO459220  30.874   7.680   5.509
 4575POPC   GL159221  30.775   8.041   5.778
 4575POPC   GL259222  30.792   8.436   5.854
 4575POPC   C1A59223  30.636   8.091   6.205
 4575POPC   D2A59224  30.825   8.043   6.583
 4575POPC   C3A59225  30.722   7.886   6.958
 4575POPC   C4A59226  31.023   8.146   7.156
 4575POPC   C1B59227  30.558   8.606   6.199
 4575POPC   C2B59228  30.465   8.450   6.596
 4575POPC   C3B59229  30.625   8.406   6.971
 4575POPC   C4B59230  30.542   8.190   7.336
 4576POPC   NC359231  31.280  43.029   5.479
 4576POPC   PO459232  31.816  43.512   5.432
 4576POPC   GL159233  31.701  43.197   5.749
 4576POPC   GL259234  31.847  42.845   5.719
 4576POPC   C1A59235  31.422  43.183   6.146
 4576POPC   D2A59236  31.297  43.405   6.553
 4576POPC   C3A59237  31.434  43.195   6.923
 4576POPC   C4A59238  31.170  43.044   7.209
 4576POPC   C1B59239  31.894  42.988   6.162
 4576POPC   C2B59240  31.674  42.923   6.550
 4576POPC   C3B59241  31.784  42.824   6.961
 4576POPC   C4B59242  31.651  42.937   7.372
 4577POPC   NC359243  18.844   4.206   5.165
 4577POPC   PO459244  19.424   4.576   5.333
 4577POPC   GL159245  19.228   4.646   5.748
 4577POPC   GL259246  18.852   4.549   5.721
 4577POPC   C1A59247  19.173   4.510   6.208
 4577POPC   D2A59248  19.365   4.324   6.608
 4577POPC   C3A59249  19.189   4.395   7.036
 4577POPC   C4A59250  19.120   4.170   7.444
 4577POPC   C1B59251  18.743   4.245   6.099
 4577POPC   C2B59252  18.901   4.054   6.530
 4577POPC   C3B59253  18.745   4.150   6.982
 4577POPC   C4B59254  18.740   4.485   7.312
 4578POPC   NC359255  27.044  17.960   5.381
 4578POPC   PO459256  26.436  17.758   5.493
 4578POPC   GL159257  26.664  17.478   5.758
 4578POPC   GL259258  27.003  17.565   5.752
 4578POPC   C1A59259  26.683  17.293   6.158
 4578POPC   D2A59260  26.696  17.495   6.554
 4578POPC   C3A59261  26.541  17.533   6.926
 4578POPC   C4A59262  26.527  17.290   7.274
 4578POPC   C1B59263  27.004  17.702   6.212
 4578POPC   C2B59264  27.106  17.760   6.710
 4578POPC   C3B59265  26.976  17.689   7.174
 4578POPC   C4B59266  27.141  17.789   7.619
 4579POPC   NC359267  29.029  14.051   5.323
 4579POPC   PO459268  29.450  13.542   5.137
 4579POPC   GL159269  29.316  13.524   5.616
 4579POPC   GL259270  29.432  13.255   5.814
 4579POPC   C1A59271  29.161  13.621   6.084
 4579POPC   D2A59272  28.993  13.428   6.489
 4579POPC   C3A59273  29.101  13.552   6.940
 4579POPC   C4A59274  28.914  13.682   7.342
 4579POPC   C1B59275  29.401  13.198   6.274
 4579POPC   C2B59276  29.565  13.423   6.648
 4579POPC   C3B59277  29.611  13.309   7.073
 4579POPC   C4B59278  29.447  13.509   7.431
 4580POPC   NC359279  41.156  39.807   5.551
 4580POPC   PO459280  40.525  39.899   5.349
 4580POPC   GL159281  40.742  40.103   5.735
 4580POPC   GL259282  40.926  40.413   5.622
 4580POPC   C1A59283  40.550  40.152   6.195
 4580POPC   D2A59284  40.402  40.066   6.640
 4580POPC   C3A59285  40.679  39.902   7.010
 4580POPC   C4A59286  40.833  39.581   7.363
 4580POPC   C1B59287  40.917  40.491   6.074
 4580POPC   C2B59288  41.044  40.236   6.426
 4580POPC   C3B59289  41.155  40.310   6.842
 4580POPC   C4B59290  40.941  40.391   7.179
 4581POPC   NC359291  26.582  21.278   5.476
 4581POPC   PO459292  27.114  20.963   5.636
 4581POPC   GL159293  26.874  21.177   5.899
 4581POPC   GL259294  26.865  21.499   5.827
 4581POPC   C1A59295  26.858  21.283   6.337
 4581POPC   D2A59296  26.494  21.162   6.574
 4581POPC   C3A59297  26.522  21.349   6.957
 4581POPC   C4A59298  26.838  21.338   7.225
 4581POPC   C1B59299  26.511  21.565   6.108
 4581POPC   C2B59300  26.536  21.678   6.543
 4581POPC   C3B59301  26.791  21.788   6.919
 4581POPC   C4B59302  26.575  21.799   7.302
 4582POPC   NC359303  44.274  30.169   5.531
 4582POPC   PO459304  44.838  30.453   5.524
 4582POPC   GL159305  44.882  30.685   5.857
 4582POPC   GL259306  44.512  30.745   5.856
 4582POPC   C1A59307  44.852  30.611   6.292
 4582POPC   D2A59308  44.829  30.724   6.701
 4582POPC   C3A59309  44.613  30.470   6.964
 4582POPC   C4A59310  44.678  30.463   7.396
 4582POPC   C1B59311  44.253  30.573   6.158
 4582POPC   C2B59312  44.345  30.689   6.566
 4582POPC   C3B59313  44.389  30.935   6.934
 4582POPC   C4B59314  44.334  30.833   7.304
 4583POPC   NC359315  18.728  32.799   5.675
 4583POPC   PO459316  19.086  33.363   5.405
 4583POPC   GL159317  19.300  33.079   5.657
 4583POPC   GL259318  19.026  33.128   5.916
 4583POPC   C1A59319  19.442  32.889   6.049
 4583POPC   D2A59320  19.220  33.061   6.407
 4583POPC   C3A59321  19.382  33.031   6.805
 4583POPC   C4A59322  19.242  32.812   7.145
 4583POPC   C1B59323  18.802  33.381   6.242
 4583POPC   C2B59324  18.897  33.507   6.607
 4583POPC   C3B59325  19.022  33.353   6.965
 4583POPC   C4B59326  18.836  33.131   7.211
 4584POPC   NC359327   2.279   1.145   5.483
 4584POPC   PO459328   1.916   1.626   5.591
 4584POPC   GL159329   2.170   1.444   5.892
 4584POPC   GL259330   1.968   1.161   5.903
 4584POPC   C1A59331   2.225   1.315   6.339
 4584POPC   D2A59332   1.859   1.306   6.626
 4584POPC   C3A59333   1.957   1.053   6.983
 4584POPC   C4A59334   2.107   1.206   7.332
 4584POPC   C1B59335   1.676   0.901   6.176
 4584POPC   C2B59336   1.648   0.845   6.602
 4584POPC   C3B59337   1.456   1.015   6.956
 4584POPC   C4B59338   1.538   1.099   7.375
 4585POPC   NC359339  29.315  14.765   5.399
 4585POPC   PO459340  28.783  14.425   5.489
 4585POPC   GL159341  29.164  14.416   5.813
 4585POPC   GL259342  29.389  14.737   5.893
 4585POPC   C1A59343  29.336  14.136   6.191
 4585POPC   D2A59344  29.267  13.877   6.586
 4585POPC   C3A59345  29.112  14.083   7.014
 4585POPC   C4A59346  29.097  14.512   7.163
 4585POPC   C1B59347  29.583  14.582   6.266
 4585POPC   C2B59348  29.431  14.437   6.685
 4585POPC   C3B59349  29.520  14.761   7.002
 4585POPC   C4B59350  29.546  14.836   7.456
 4586POPC   NC359351  12.950  34.147   5.354
 4586POPC   PO459352  12.423  33.653   5.277
 4586POPC   GL159353  12.619  33.872   5.683
 4586POPC   GL259354  12.957  34.000   5.832
 4586POPC   C1A59355  12.617  33.793   6.136
 4586POPC   D2A59356  12.900  33.566   6.408
 4586POPC   C3A59357  12.758  33.504   6.787
 4586POPC   C4A59358  13.032  33.469   7.143
 4586POPC   C1B59359  13.057  34.034   6.263
 4586POPC   C2B59360  12.852  34.004   6.651
 4586POPC   C3B59361  12.873  33.975   7.087
 4586POPC   C4B59362  12.575  34.257   7.245
 4587POPC   NC359363  24.163  19.992   5.364
 4587POPC   PO459364  23.619  19.730   5.289
 4587POPC   GL159365  23.785  19.790   5.701
 4587POPC   GL259366  23.481  19.910   5.795
 4587POPC   C1A59367  23.902  19.725   6.150
 4587POPC   D2A59368  23.675  19.783   6.564
 4587POPC   C3A59369  23.822  19.674   6.961
 4587POPC   C4A59370  23.769  19.919   7.323
 4587POPC   C1B59371  23.469  20.053   6.187
 4587POPC   C2B59372  23.317  20.166   6.603
 4587POPC   C3B59373  23.372  19.944   6.989
 4587POPC   C4B59374  23.285  20.140   7.378
 4588POPC   NC359375  42.311  42.023   5.515
 4588POPC   PO459376  42.523  41.341   5.395
 4588POPC   GL159377  42.451  41.612   5.788
 4588POPC   GL259378  42.082  41.644   5.857
 4588POPC   C1A59379  42.419  41.723   6.257
 4588POPC   D2A59380  42.408  41.903   6.659
 4588POPC   C3A59381  42.348  41.646   6.986
 4588POPC   C4A59382  42.497  41.617   7.375
 4588POPC   C1B59383  42.067  41.356   6.236
 4588POPC   C2B59384  42.009  41.441   6.659
 4588POPC   C3B59385  42.091  41.219   7.041
 4588POPC   C4B59386  42.186  41.259   7.497
 4589POPC   NC359387  11.952   9.466   5.203
 4589POPC   PO459388  12.247  10.115   5.334
 4589POPC   GL159389  11.968   9.893   5.656
 4589POPC   GL259390  11.917   9.568   5.688
 4589POPC   C1A59391  12.109   9.789   6.105
 4589POPC   D2A59392  12.253   9.748   6.519
 4589POPC   C3A59393  12.117  10.080   6.812
 4589POPC   C4A59394  12.035   9.977   7.239
 4589POPC   C1B59395  11.730   9.435   6.065
 4589POPC   C2B59396  11.759   9.368   6.517
 4589POPC   C3B59397  11.951   9.551   6.899
 4589POPC   C4B59398  11.879   9.299   7.227
 4590POPC   NC359399  25.592  16.984   5.438
 4590POPC   PO459400  25.482  16.341   5.247
 4590POPC   GL159401  25.488  16.443   5.748
 4590POPC   GL259402  25.399  16.801   5.885
 4590POPC   C1A59403  25.466  16.363   6.238
 4590POPC   D2A59404  25.596  16.595   6.647
 4590POPC   C3A59405  25.369  16.606   7.022
 4590POPC   C4A59406  25.109  16.344   7.258
 4590POPC   C1B59407  25.174  17.009   6.228
 4590POPC   C2B59408  25.191  16.933   6.658
 4590POPC   C3B59409  25.042  17.047   7.059
 4590POPC   C4B59410  24.852  17.182   7.428
 4591POPC   NC359411   5.479  38.074   5.395
 4591POPC   PO459412   5.788  38.773   5.354
 4591POPC   GL159413   5.913  38.673   5.756
 4591POPC   GL259414   5.759  38.341   5.783
 4591POPC   C1A59415   5.882  38.684   6.201
 4591POPC   D2A59416   6.109  38.461   6.518
 4591POPC   C3A59417   6.069  38.679   6.908
 4591POPC   C4A59418   5.778  38.672   7.233
 4591POPC   C1B59419   5.721  38.189   6.220
 4591POPC   C2B59420   5.658  38.294   6.679
 4591POPC   C3B59421   5.874  38.212   7.073
 4591POPC   C4B59422   5.736  38.263   7.533
 4592POPC   NC359423  41.976  41.333   5.399
 4592POPC   PO459424  42.157  40.674   5.484
 4592POPC   GL159425  42.124  40.853   5.890
 4592POPC   GL259426  42.252  41.148   5.818
 4592POPC   C1A59427  42.286  40.885   6.333
 4592POPC   D2A59428  42.386  40.834   6.791
 4592POPC   C3A59429  42.053  40.736   7.100
 4592POPC   C4A59430  41.930  40.439   7.340
 4592POPC   C1B59431  42.575  41.253   6.143
 4592POPC   C2B59432  42.550  41.316   6.627
 4592POPC   C3B59433  42.589  41.186   7.095
 4592POPC   C4B59434  42.479  40.829   7.376
 4593POPC   NC359435  31.837  15.188   5.479
 4593POPC   PO459436  31.224  14.960   5.368
 4593POPC   GL159437  31.416  15.056   5.785
 4593POPC   GL259438  31.729  14.879   5.883
 4593POPC   C1A59439  31.257  15.292   6.148
 4593POPC   D2A59440  31.413  15.341   6.573
 4593POPC   C3A59441  31.300  15.053   6.885
 4593POPC   C4A59442  31.225  15.281   7.231
 4593POPC   C1B59443  31.746  15.222   6.205
 4593POPC   C2B59444  31.910  15.306   6.648
 4593POPC   C3B59445  31.733  15.272   7.066
 4593POPC   C4B59446  31.588  14.883   7.289
 4594POPC   NC359447   5.302   8.653   5.221
 4594POPC   PO459448   5.052   8.052   5.378
 4594POPC   GL159449   5.184   8.106   5.806
 4594POPC   GL259450   4.836   8.002   5.881
 4594POPC   C1A59451   5.316   8.269   6.218
 4594POPC   D2A59452   5.205   8.466   6.632
 4594POPC   C3A59453   5.353   8.229   7.017
 4594POPC   C4A59454   5.392   7.979   7.396
 4594POPC   C1B59455   4.818   8.214   6.242
 4594POPC   C2B59456   4.635   8.253   6.620
 4594POPC   C3B59457   4.861   8.306   6.998
 4594POPC   C4B59458   4.914   8.142   7.440
 4595POPC   NC359459  43.762  14.070   5.239
 4595POPC   PO459460  43.773  13.390   5.315
 4595POPC   GL159461  43.865  13.462   5.768
 4595POPC   GL259462  43.691  13.764   5.944
 4595POPC   C1A59463  43.865  13.348   6.208
 4595POPC   D2A59464  43.867  13.223   6.635
 4595POPC   C3A59465  43.982  13.508   6.978
 4595POPC   C4A59466  43.985  13.464   7.411
 4595POPC   C1B59467  43.492  14.107   6.184
 4595POPC   C2B59468  43.560  14.276   6.600
 4595POPC   C3B59469  43.409  14.055   6.958
 4595POPC   C4B59470  43.725  13.898   7.225
 4596POPC   NC359471  17.093  34.884   5.169
 4596POPC   PO459472  16.509  34.479   5.230
 4596POPC   GL159473  16.575  34.514   5.727
 4596POPC   GL259474  16.526  34.867   5.841
 4596POPC   C1A59475  16.753  34.463   6.185
 4596POPC   D2A59476  16.908  34.249   6.589
 4596POPC   C3A59477  16.797  34.375   7.001
 4596POPC   C4A59478  17.007  34.580   7.368
 4596POPC   C1B59479  16.758  34.966   6.240
 4596POPC   C2B59480  16.865  34.759   6.640
 4596POPC   C3B59481  16.628  34.849   7.042
 4596POPC   C4B59482  16.685  34.970   7.481
 4597POPC   NC359483  21.506  16.980   5.247
 4597POPC   PO459484  21.445  16.363   5.312
 4597POPC   GL159485  21.668  16.610   5.688
 4597POPC   GL259486  21.509  16.947   5.779
 4597POPC   C1A59487  21.770  16.728   6.159
 4597POPC   D2A59488  21.442  16.757   6.504
 4597POPC   C3A59489  21.415  16.530   6.909
 4597POPC   C4A59490  21.216  16.528   7.317
 4597POPC   C1B59491  21.202  17.080   6.137
 4597POPC   C2B59492  21.144  17.192   6.604
 4597POPC   C3B59493  21.246  17.011   7.024
 4597POPC   C4B59494  21.240  17.009   7.507
 4598POPC   NC359495  35.292  19.541   5.374
 4598POPC   PO459496  35.128  20.196   5.559
 4598POPC   GL159497  35.418  19.981   5.840
 4598POPC   GL259498  35.493  19.638   5.832
 4598POPC   C1A59499  35.392  19.892   6.259
 4598POPC   D2A59500  35.115  20.003   6.555
 4598POPC   C3A59501  35.241  19.847   6.908
 4598POPC   C4A59502  35.507  20.060   7.165
 4598POPC   C1B59503  35.748  19.493   6.209
 4598POPC   C2B59504  35.621  19.355   6.649
 4598POPC   C3B59505  35.585  19.518   7.066
 4598POPC   C4B59506  35.844  19.729   7.379
 4599POPC   NC359507  43.335   6.233   5.107
 4599POPC   PO459508  42.893   5.793   5.395
 4599POPC   GL159509  42.966   5.784   5.796
 4599POPC   GL259510  42.846   6.114   5.860
 4599POPC   C1A59511  43.134   5.720   6.212
 4599POPC   D2A59512  42.974   5.875   6.611
 4599POPC   C3A59513  43.075   5.639   6.981
 4599POPC   C4A59514  43.391   5.637   7.251
 4599POPC   C1B59515  42.808   6.257   6.261
 4599POPC   C2B59516  43.042   6.388   6.614
 4599POPC   C3B59517  43.164   6.173   6.993
 4599POPC   C4B59518  42.854   6.020   7.277
 4600POPC   NC359519  15.358   0.887   5.305
 4600POPC   PO459520  15.549   0.230   5.202
 4600POPC   GL159521  15.406   0.469   5.619
 4600POPC   GL259522  15.019   0.511   5.705
 4600POPC   C1A59523  15.367   0.457   6.104
 4600POPC   D2A59524  15.415   0.330   6.564
 4600POPC   C3A59525  15.226   0.498   6.956
 4600POPC   C4A59526  15.049   0.489   7.385
 4600POPC   C1B59527  14.843   0.441   6.164
 4600POPC   C2B59528  14.886   0.239   6.605
 4600POPC   C3B59529  14.933   0.107   7.067
 4600POPC   C4B59530  14.860   0.035   7.567
 4601POPC   NC359531  32.622   2.987   5.367
 4601POPC   PO459532  33.048   2.515   5.586
 4601POPC   GL159533  33.049   2.757   5.952
 4601POPC   GL259534  32.749   2.869   5.857
 4601POPC   C1A59535  32.825   2.799   6.371
 4601POPC   D2A59536  32.841   3.110   6.688
 4601POPC   C3A59537  33.052   2.884   7.028
 4601POPC   C4A59538  33.398   2.540   7.063
 4601POPC   C1B59539  32.528   2.489   6.076
 4601POPC   C2B59540  32.542   2.301   6.505
 4601POPC   C3B59541  32.779   2.295   6.893
 4601POPC   C4B59542  32.951   2.434   7.292
 4602POPC   NC359543  16.228  42.459   5.106
 4602POPC   PO459544  16.855  42.662   5.413
 4602POPC   GL159545  16.689  42.468   5.791
 4602POPC   GL259546  16.376  42.347   5.651
 4602POPC   C1A59547  16.721  42.497   6.274
 4602POPC   D2A59548  16.962  42.733   6.602
 4602POPC   C3A59549  16.975  42.523   7.018
 4602POPC   C4A59550  16.846  42.066   7.134
 4602POPC   C1B59551  16.245  42.342   6.119
 4602POPC   C2B59552  16.282  42.543   6.549
 4602POPC   C3B59553  16.464  42.356   6.936
 4602POPC   C4B59554  16.386  42.148   7.337
 4603POPC   NC359555  41.364   0.558   5.422
 4603POPC   PO459556  42.037   0.539   5.457
 4603POPC   GL159557  41.748   0.311   5.753
 4603POPC   GL259558  41.434   0.086   5.701
 4603POPC   C1A59559  41.804   0.254   6.204
 4603POPC   D2A59560  41.900   0.012   6.576
 4603POPC   C3A59561  41.738   0.155   6.943
 4603POPC   C4A59562  41.671   0.613   7.016
 4603POPC   C1B59563  41.317   0.086   6.151
 4603POPC   C2B59564  41.410   0.270   6.564
 4603POPC   C3B59565  41.253   0.281   6.999
 4603POPC   C4B59566  41.271   0.605   7.337
 4604POPC   NC359567   4.409  20.179   5.419
 4604POPC   PO459568   3.856  19.728   5.319
 4604POPC   GL159569   4.157  19.727   5.721
 4604POPC   GL259570   4.310  20.036   5.886
 4604POPC   C1A59571   4.085  19.717   6.186
 4604POPC   D2A59572   4.216  20.063   6.502
 4604POPC   C3A59573   4.162  19.980   6.955
 4604POPC   C4A59574   4.016  20.210   7.326
 4604POPC   C1B59575   4.605  19.884   6.218
 4604POPC   C2B59576   4.766  20.086   6.580
 4604POPC   C3B59577   4.676  19.863   6.948
 4604POPC   C4B59578   4.509  19.696   7.346
 4605POPC   NC359579   6.993  32.787   5.507
 4605POPC   PO459580   7.587  33.178   5.352
 4605POPC   GL159581   7.559  33.161   5.792
 4605POPC   GL259582   7.197  33.170   5.767
 4605POPC   C1A59583   7.651  32.955   6.205
 4605POPC   D2A59584   7.843  32.705   6.582
 4605POPC   C3A59585   7.744  32.954   6.951
 4605POPC   C4A59586   7.337  33.042   7.035
 4605POPC   C1B59587   7.228  33.401   6.151
 4605POPC   C2B59588   7.162  33.279   6.572
 4605POPC   C3B59589   7.034  33.466   6.963
 4605POPC   C4B59590   7.179  33.371   7.369
 4606POPC   NC359591  25.860  27.046   5.593
 4606POPC   PO459592  26.215  26.469   5.416
 4606POPC   GL159593  26.315  26.709   5.798
 4606POPC   GL259594  26.309  27.020   5.909
 4606POPC   C1A59595  26.042  26.694   6.197
 4606POPC   D2A59596  25.806  26.572   6.578
 4606POPC   C3A59597  25.991  26.622   7.006
 4606POPC   C4A59598  26.224  26.923   7.254
 4606POPC   C1B59599  26.077  27.197   6.233
 4606POPC   C2B59600  25.996  27.038   6.607
 4606POPC   C3B59601  25.735  27.068   6.914
 4606POPC   C4B59602  25.658  26.909   7.273
 4607POPC   NC359603  21.571  41.399   5.278
 4607POPC   PO459604  21.027  41.695   5.457
 4607POPC   GL159605  21.315  41.932   5.746
 4607POPC   GL259606  21.655  41.857   5.656
 4607POPC   C1A59607  21.362  41.901   6.223
 4607POPC   D2A59608  21.236  41.571   6.518
 4607POPC   C3A59609  21.272  41.662   6.938
 4607POPC   C4A59610  21.187  41.409   7.275
 4607POPC   C1B59611  21.589  41.507   5.972
 4607POPC   C2B59612  21.732  41.463   6.415
 4607POPC   C3B59613  21.696  41.378   6.877
 4607POPC   C4B59614  21.758  41.813   7.030
 4608POPC   NC359615  15.777  21.748   5.423
 4608POPC   PO459616  16.202  22.330   5.410
 4608POPC   GL159617  16.045  22.087   5.790
 4608POPC   GL259618  15.699  22.068   5.825
 4608POPC   C1A59619  15.986  22.000   6.256
 4608POPC   D2A59620  16.244  21.940   6.641
 4608POPC   C3A59621  16.091  22.046   7.062
 4608POPC   C4A59622  15.821  21.823   7.377
 4608POPC   C1B59623  15.639  22.355   6.198
 4608POPC   C2B59624  15.795  22.278   6.645
 4608POPC   C3B59625  15.595  22.142   7.040
 4608POPC   C4B59626  15.696  22.335   7.427
 4609POPC   NC359627  19.023  20.991   5.378
 4609POPC   PO459628  18.845  20.389   5.376
 4609POPC   GL159629  19.167  20.548   5.746
 4609POPC   GL259630  19.057  20.885   5.867
 4609POPC   C1A59631  19.234  20.632   6.251
 4609POPC   D2A59632  18.929  20.777   6.584
 4609POPC   C3A59633  18.909  20.577   6.991
 4609POPC   C4A59634  19.189  20.427   7.313
 4609POPC   C1B59635  18.701  21.092   6.115
 4609POPC   C2B59636  18.476  21.068   6.531
 4609POPC   C3B59637  18.630  21.015   6.967
 4609POPC   C4B59638  18.725  20.841   7.412
 4610POPC   NC359639   5.914  44.232   5.330
 4610POPC   PO459640   5.583  43.608   5.348
 4610POPC   GL159641   5.683  43.921   5.710
 4610POPC   GL259642   6.015  44.071   5.806
 4610POPC   C1A59643   5.560  43.933   6.183
 4610POPC   D2A59644   5.397  43.951   6.629
 4610POPC   C3A59645   5.724  43.797   6.929
 4610POPC   C4A59646   5.673  43.961   7.345
 4610POPC   C1B59647   6.151  43.994   6.249
 4610POPC   C2B59648   6.211  44.136   6.690
 4610POPC   C3B59649   6.132  44.078   7.142
 4610POPC   C4B59650   6.101  44.144   7.599
 4611POPC   NC359651  34.879  10.850   4.983
 4611POPC   PO459652  34.405  10.709   5.511
 4611POPC   GL159653  34.578  10.722   5.904
 4611POPC   GL259654  34.542  10.419   6.014
 4611POPC   C1A59655  34.922  10.702   6.200
 4611POPC   D2A59656  34.827  10.447   6.541
 4611POPC   C3A59657  34.817  10.725   6.885
 4611POPC   C4A59658  34.542  10.777   7.220
 4611POPC   C1B59659  34.356  10.703   6.351
 4611POPC   C2B59660  34.280  10.652   6.786
 4611POPC   C3B59661  34.387  10.298   7.032
 4611POPC   C4B59662  34.428  10.060   7.421
 4612POPC   NC359663  37.977  23.613   5.488
 4612POPC   PO459664  37.340  23.537   5.472
 4612POPC   GL159665  37.581  23.555   5.829
 4612POPC   GL259666  37.598  23.881   5.801
 4612POPC   C1A59667  37.593  23.495   6.273
 4612POPC   D2A59668  37.251  23.583   6.570
 4612POPC   C3A59669  37.439  23.520   6.965
 4612POPC   C4A59670  37.889  23.502   7.104
 4612POPC   C1B59671  37.849  23.986   6.122
 4612POPC   C2B59672  37.635  23.952   6.489
 4612POPC   C3B59673  37.716  23.954   6.891
 4612POPC   C4B59674  37.568  24.266   7.175
 4613POPC   NC359675  43.647  18.304   5.371
 4613POPC   PO459676  44.300  18.096   5.480
 4613POPC   GL159677  44.152  18.408   5.813
 4613POPC   GL259678  43.782  18.341   5.848
 4613POPC   C1A59679  44.004  18.572   6.214
 4613POPC   D2A59680  43.778  18.292   6.508
 4613POPC   C3A59681  43.974  18.247   6.895
 4613POPC   C4A59682  43.682  18.431   7.142
 4613POPC   C1B59683  43.988  18.051   6.126
 4613POPC   C2B59684  44.252  18.051   6.465
 4613POPC   C3B59685  44.233  17.787   6.808
 4613POPC   C4B59686  43.967  17.794   7.163
 4614POPC   NC359687  43.923   8.336   5.400
 4614POPC   PO459688  43.468   7.919   5.256
 4614POPC   GL159689  43.688   7.984   5.720
 4614POPC   GL259690  43.822   8.327   5.896
 4614POPC   C1A59691  43.838   7.899   6.161
 4614POPC   D2A59692  43.957   8.101   6.556
 4614POPC   C3A59693  43.754   7.997   6.970
 4614POPC   C4A59694  43.883   8.100   7.404
 4614POPC   C1B59695  43.924   8.567   6.289
 4614POPC   C2B59696  44.104   8.568   6.708
 4614POPC   C3B59697  44.002   8.510   7.128
 4614POPC   C4B59698  44.009   8.556   7.594
 4615POPC   NC359699  33.924   0.150   5.443
 4615POPC   PO459700  33.559   0.722   5.686
 4615POPC   GL159701  33.723   0.325   5.896
 4615POPC   GL259702  34.054   0.257   5.953
 4615POPC   C1A59703  33.750   0.193   6.343
 4615POPC   D2A59704  33.915   0.103   6.713
 4615POPC   C3A59705  33.603   0.267   6.948
 4615POPC   C4A59706  33.571   0.299   7.378
 4615POPC   C1B59707  33.980   0.643   6.227
 4615POPC   C2B59708  33.814   0.741   6.651
 4615POPC   C3B59709  33.880   0.663   7.100
 4615POPC   C4B59710  33.938   0.939   7.428
 4616POPC   NC359711  26.551   7.729   5.348
 4616POPC   PO459712  26.749   7.150   5.247
 4616POPC   GL159713  26.865   7.158   5.667
 4616POPC   GL259714  26.562   7.241   5.828
 4616POPC   C1A59715  27.127   7.351   6.003
 4616POPC   D2A59716  27.062   7.536   6.407
 4616POPC   C3A59717  27.136   7.337   6.813
 4616POPC   C4A59718  26.952   7.416   7.233
 4616POPC   C1B59719  26.620   7.604   6.096
 4616POPC   C2B59720  26.591   7.774   6.509
 4616POPC   C3B59721  26.469   7.624   6.889
 4616POPC   C4B59722  26.594   7.763   7.274
 4617POPC   NC359723   2.910  37.052   5.491
 4617POPC   PO459724   2.403  36.490   5.427
 4617POPC   GL159725   2.509  36.677   5.802
 4617POPC   GL259726   2.481  37.038   5.775
 4617POPC   C1A59727   2.778  36.687   6.174
 4617POPC   D2A59728   2.990  36.434   6.481
 4617POPC   C3A59729   2.968  36.620   6.892
 4617POPC   C4A59730   2.629  36.718   7.179
 4617POPC   C1B59731   2.726  37.207   6.143
 4617POPC   C2B59732   2.909  37.085   6.528
 4617POPC   C3B59733   2.794  37.138   6.944
 4617POPC   C4B59734   2.759  37.288   7.357
 4618POPC   NC359735  35.406   2.991   5.298
 4618POPC   PO459736  35.796   2.362   5.311
 4618POPC   GL159737  35.454   2.419   5.645
 4618POPC   GL259738  35.385   2.727   5.738
 4618POPC   C1A59739  35.522   2.420   6.120
 4618POPC   D2A59740  35.475   2.663   6.518
 4618POPC   C3A59741  35.438   2.524   6.937
 4618POPC   C4A59742  35.433   2.844   7.290
 4618POPC   C1B59743  35.194   2.842   6.128
 4618POPC   C2B59744  34.962   2.705   6.519
 4618POPC   C3B59745  35.015   2.861   6.955
 4618POPC   C4B59746  34.942   2.679   7.363
 4619POPC   NC359747   9.117  10.729   5.292
 4619POPC   PO459748   8.622  10.297   5.228
 4619POPC   GL159749   8.786  10.209   5.718
 4619POPC   GL259750   9.141  10.262   5.792
 4619POPC   C1A59751   8.769  10.385   6.185
 4619POPC   D2A59752   8.899  10.365   6.597
 4619POPC   C3A59753   8.639  10.570   6.884
 4619POPC   C4A59754   8.725  10.430   7.300
 4619POPC   C1B59755   9.265  10.532   6.160
 4619POPC   C2B59756   9.302  10.668   6.608
 4619POPC   C3B59757   9.182  10.547   7.068
 4619POPC   C4B59758   9.178  10.729   7.540
 4620POPC   NC359759   4.921  19.375   5.496
 4620POPC   PO459760   4.951  18.648   5.423
 4620POPC   GL159761   4.974  18.698   5.843
 4620POPC   GL259762   4.746  18.954   5.869
 4620POPC   C1A59763   5.092  18.956   6.240
 4620POPC   D2A59764   5.211  18.837   6.656
 4620POPC   C3A59765   5.142  19.091   7.026
 4620POPC   C4A59766   5.303  19.241   7.405
 4620POPC   C1B59767   4.713  19.346   6.151
 4620POPC   C2B59768   4.827  19.513   6.580
 4620POPC   C3B59769   4.691  19.349   6.993
 4620POPC   C4B59770   4.665  18.950   7.199
 4621POPC   NC359771   5.283  43.963   5.316
 4621POPC   PO459772   4.630  43.882   5.477
 4621POPC   GL159773   4.962  43.897   5.789
 4621POPC   GL259774   5.229  44.126   5.806
 4621POPC   C1A59775   5.053  43.779   6.218
 4621POPC   D2A59776   4.870  43.945   6.566
 4621POPC   C3A59777   4.908  43.802   6.944
 4621POPC   C4A59778   5.282  43.682   7.148
 4621POPC   C1B59779   4.985  44.293   6.154
 4621POPC   C2B59780   5.089  44.407   6.533
 4621POPC   C3B59781   4.940  44.340   6.917
 4621POPC   C4B59782   5.272  44.210   7.172
 4622POPC   NC359783  19.098  23.477   5.137
 4622POPC   PO459784  18.949  24.012   5.562
 4622POPC   GL159785  19.192  23.749   5.791
 4622POPC   GL259786  19.175  23.447   5.648
 4622POPC   C1A59787  19.315  23.803   6.217
 4622POPC   D2A59788  19.190  24.022   6.589
 4622POPC   C3A59789  19.261  23.809   6.977
 4622POPC   C4A59790  18.991  23.568   7.239
 4622POPC   C1B59791  19.055  23.362   6.104
 4622POPC   C2B59792  19.147  23.464   6.569
 4622POPC   C3B59793  19.307  23.280   6.970
 4622POPC   C4B59794  19.443  23.294   7.425
 4623POPC   NC359795  41.111  12.471   5.458
 4623POPC   PO459796  41.421  11.786   5.385
 4623POPC   GL159797  41.318  11.952   5.788
 4623POPC   GL259798  41.424  12.322   5.852
 4623POPC   C1A59799  41.463  11.985   6.209
 4623POPC   D2A59800  41.458  12.297   6.486
 4623POPC   C3A59801  41.425  12.066   6.815
 4623POPC   C4A59802  41.479  12.098   7.222
 4623POPC   C1B59803  41.812  12.373   6.129
 4623POPC   C2B59804  42.016  12.341   6.539
 4623POPC   C3B59805  41.821  12.365   6.966
 4623POPC   C4B59806  41.869  12.435   7.438
 4624POPC   NC359807  29.696  34.693   5.387
 4624POPC   PO459808  30.226  34.403   5.647
 4624POPC   GL159809  29.884  34.527   5.847
 4624POPC   GL259810  29.719  34.221   5.894
 4624POPC   C1A59811  29.807  34.689   6.247
 4624POPC   D2A59812  29.711  34.435   6.611
 4624POPC   C3A59813  29.822  34.638   6.992
 4624POPC   C4A59814  30.057  34.893   7.218
 4624POPC   C1B59815  30.014  34.161   6.229
 4624POPC   C2B59816  30.227  34.190   6.608
 4624POPC   C3B59817  29.999  34.173   6.987
 4624POPC   C4B59818  29.546  34.211   7.117
 4625POPC   NC359819  15.628   4.624   5.341
 4625POPC   PO459820  15.921   4.157   5.379
 4625POPC   GL159821  15.936   4.072   5.801
 4625POPC   GL259822  15.726   3.774   5.733
 4625POPC   C1A59823  15.913   4.290   6.238
 4625POPC   D2A59824  16.009   4.437   6.685
 4625POPC   C3A59825  15.998   4.325   7.149
 4625POPC   C4A59826  15.866   4.498   7.574
 4625POPC   C1B59827  15.709   3.810   6.184
 4625POPC   C2B59828  15.681   4.013   6.603
 4625POPC   C3B59829  15.759   3.899   7.024
 4625POPC   C4B59830  15.625   4.060   7.415
 4626POPC   NC359831  16.511   2.292   5.467
 4626POPC   PO459832  16.867   2.912   5.439
 4626POPC   GL159833  16.775   2.659   5.775
 4626POPC   GL259834  16.433   2.684   5.795
 4626POPC   C1A59835  16.757   2.621   6.230
 4626POPC   D2A59836  16.955   2.712   6.648
 4626POPC   C3A59837  16.712   2.723   7.025
 4626POPC   C4A59838  16.900   2.646   7.441
 4626POPC   C1B59839  16.376   2.997   6.138
 4626POPC   C2B59840  16.573   3.032   6.531
 4626POPC   C3B59841  16.404   3.130   6.949
 4626POPC   C4B59842  16.284   2.937   7.321
 4627POPC   NC359843  32.032  13.476   5.142
 4627POPC   PO459844  32.494  13.933   5.254
 4627POPC   GL159845  32.324  13.705   5.670
 4627POPC   GL259846  32.000  13.531   5.737
 4627POPC   C1A59847  32.197  13.792   6.156
 4627POPC   D2A59848  32.281  13.992   6.587
 4627POPC   C3A59849  32.308  13.814   6.994
 4627POPC   C4A59850  31.958  13.828   7.240
 4627POPC   C1B59851  32.225  13.291   6.096
 4627POPC   C2B59852  32.295  13.439   6.548
 4627POPC   C3B59853  32.014  13.397   6.915
 4627POPC   C4B59854  32.123  13.356   7.328
 4628POPC   NC359855  25.050  38.593   5.495
 4628POPC   PO459856  25.582  38.176   5.431
 4628POPC   GL159857  25.531  38.483   5.760
 4628POPC   GL259858  25.477  38.851   5.682
 4628POPC   C1A59859  25.276  38.430   6.144
 4628POPC   D2A59860  25.142  38.184   6.493
 4628POPC   C3A59861  25.326  38.332   6.876
 4628POPC   C4A59862  25.106  38.393   7.287
 4628POPC   C1B59863  25.551  38.858   6.160
 4628POPC   C2B59864  25.386  38.764   6.592
 4628POPC   C3B59865  25.250  38.821   7.042
 4628POPC   C4B59866  25.389  38.752   7.486
 4629POPC   NC359867  31.763   9.834   5.464
 4629POPC   PO459868  31.038   9.574   5.392
 4629POPC   GL159869  31.108   9.433   5.809
 4629POPC   GL259870  31.466   9.477   5.754
 4629POPC   C1A59871  31.163   9.469   6.256
 4629POPC   D2A59872  31.010   9.726   6.591
 4629POPC   C3A59873  31.316   9.867   6.905
 4629POPC   C4A59874  31.267   9.761   7.316
 4629POPC   C1B59875  31.661   9.478   6.152
 4629POPC   C2B59876  31.593   9.454   6.598
 4629POPC   C3B59877  31.815   9.636   6.928
 4629POPC   C4B59878  31.789   9.750   7.340
 4630POPC   NC359879  12.455  39.818   5.502
 4630POPC   PO459880  12.028  40.296   5.284
 4630POPC   GL159881  12.127  40.215   5.698
 4630POPC   GL259882  12.053  39.859   5.827
 4630POPC   C1A59883  12.067  40.294   6.128
 4630POPC   D2A59884  11.982  40.245   6.559
 4630POPC   C3A59885  12.375  40.281   6.784
 4630POPC   C4A59886  12.449  40.183   7.216
 4630POPC   C1B59887  11.850  39.826   6.236
 4630POPC   C2B59888  11.940  39.740   6.671
 4630POPC   C3B59889  12.000  39.984   7.033
 4630POPC   C4B59890  11.882  40.365   7.225
 4631POPC   NC359891  24.782  14.723   5.723
 4631POPC   PO459892  24.506  14.140   5.498
 4631POPC   GL159893  24.547  14.305   5.917
 4631POPC   GL259894  24.882  14.250   5.895
 4631POPC   C1A59895  24.579  14.546   6.330
 4631POPC   D2A59896  24.368  14.623   6.713
 4631POPC   C3A59897  24.534  14.494   7.124
 4631POPC   C4A59898  24.580  14.391   7.553
 4631POPC   C1B59899  24.851  14.102   6.307
 4631POPC   C2B59900  24.666  14.166   6.710
 4631POPC   C3B59901  24.824  14.037   7.111
 4631POPC   C4B59902  24.652  13.849   7.482
 4632POPC   NC359903  22.828  26.305   5.479
 4632POPC   PO459904  23.443  26.524   5.509
 4632POPC   GL159905  23.144  26.550   5.856
 4632POPC   GL259906  22.835  26.765   5.777
 4632POPC   C1A59907  23.243  26.635   6.306
 4632POPC   D2A59908  23.055  26.994   6.547
 4632POPC   C3A59909  22.879  27.010   6.955
 4632POPC   C4A59910  23.049  26.638   7.090
 4632POPC   C1B59911  22.746  26.703   6.224
 4632POPC   C2B59912  22.678  26.601   6.680
 4632POPC   C3B59913  22.548  26.642   7.117
 4632POPC   C4B59914  22.636  27.009   7.425
 4633POPC   NC359915  21.816  43.747   5.381
 4633POPC   PO459916  22.315  44.152   5.258
 4633POPC   GL159917  22.117  44.084   5.679
 4633POPC   GL259918  22.390  44.212   5.844
 4633POPC   C1A59919  22.136  43.900   6.142
 4633POPC   D2A59920  22.164  43.686   6.553
 4633POPC   C3A59921  22.078  43.906   6.926
 4633POPC   C4A59922  22.046  43.959   7.346
 4633POPC   C1B59923  22.402  44.334   6.256
 4633POPC   C2B59924  22.444  44.125   6.631
 4633POPC   C3B59925  22.395  44.318   7.009
 4633POPC   C4B59926  22.516  44.225   7.391
 4634POPC   NC359927   8.524  30.856   5.263
 4634POPC   PO459928   7.863  30.572   5.398
 4634POPC   GL159929   8.061  30.749   5.717
 4634POPC   GL259930   8.107  30.427   5.910
 4634POPC   C1A59931   8.100  30.878   6.133
 4634POPC   D2A59932   8.153  30.987   6.515
 4634POPC   C3A59933   8.163  30.700   6.819
 4634POPC   C4A59934   8.143  30.784   7.199
 4634POPC   C1B59935   8.294  30.375   6.346
 4634POPC   C2B59936   8.584  30.441   6.721
 4634POPC   C3B59937   8.531  30.418   7.186
 4634POPC   C4B59938   8.343  30.173   7.540
 4635POPC   NC359939  30.425   0.457   5.445
 4635POPC   PO459940  31.077   0.769   5.372
 4635POPC   GL159941  30.797   0.659   5.746
 4635POPC   GL259942  30.749   0.295   5.806
 4635POPC   C1A59943  30.629   0.617   6.202
 4635POPC   D2A59944  30.900   0.472   6.573
 4635POPC   C3A59945  30.857   0.613   7.020
 4635POPC   C4A59946  30.474   0.744   7.201
 4635POPC   C1B59947  30.777   0.111   6.199
 4635POPC   C2B59948  30.654   0.005   6.602
 4635POPC   C3B59949  30.496   0.225   6.979
 4635POPC   C4B59950  30.508   0.027   7.367
 4636POPC   NC359951  29.457   0.639   5.602
 4636POPC   PO459952  29.897   0.259   5.168
 4636POPC   GL159953  29.919   0.376   5.637
 4636POPC   GL259954  29.909   0.092   5.864
 4636POPC   C1A59955  30.079   0.561   6.055
 4636POPC   D2A59956  30.175   0.880   6.400
 4636POPC   C3A59957  30.028   0.849   6.855
 4636POPC   C4A59958  29.858   0.499   7.119
 4636POPC   C1B59959  29.853   0.181   6.312
 4636POPC   C2B59960  29.691   0.238   6.722
 4636POPC   C3B59961  29.549   0.059   7.091
 4636POPC   C4B59962  29.679   0.126   7.468
 4637POPC   NC359963  43.814  41.830   5.251
 4637POPC   PO459964  44.034  41.224   5.350
 4637POPC   GL159965  43.828  41.476   5.660
 4637POPC   GL259966  44.159  41.557   5.722
 4637POPC   C1A59967  43.867  41.684   6.092
 4637POPC   D2A59968  44.071  41.563   6.469
 4637POPC   C3A59969  43.864  41.376   6.806
 4637POPC   C4A59970  43.677  41.500   7.201
 4637POPC   C1B59971  44.260  41.304   6.054
 4637POPC   C2B59972  44.448  41.221   6.446
 4637POPC   C3B59973  44.382  41.338   6.885
 4637POPC   C4B59974  44.188  41.477   7.278
 4638POPC   NC359975  15.284  13.454   5.289
 4638POPC   PO459976  15.034  14.040   5.434
 4638POPC   GL159977  15.132  13.710   5.756
 4638POPC   GL259978  15.302  13.378   5.822
 4638POPC   C1A59979  15.229  13.793   6.194
 4638POPC   D2A59980  15.280  13.633   6.592
 4638POPC   C3A59981  15.085  13.755   6.958
 4638POPC   C4A59982  15.315  13.761   7.326
 4638POPC   C1B59983  14.921  13.384   6.121
 4638POPC   C2B59984  14.789  13.457   6.563
 4638POPC   C3B59985  14.864  13.294   6.995
 4638POPC   C4B59986  14.990  13.389   7.423
 4639POPC   NC359987  15.720  30.616   5.387
 4639POPC   PO459988  16.391  30.548   5.704
 4639POPC   GL159989  16.012  30.715   5.867
 4639POPC   GL259990  15.722  30.504   5.899
 4639POPC   C1A59991  15.972  30.847   6.315
 4639POPC   D2A59992  15.990  30.625   6.718
 4639POPC   C3A59993  16.060  30.900   7.061
 4639POPC   C4A59994  15.975  31.174   7.436
 4639POPC   C1B59995  16.032  30.350   6.232
 4639POPC   C2B59996  16.135  30.136   6.615
 4639POPC   C3B59997  16.124  30.238   7.049
 4639POPC   C4B59998  16.330  30.491   7.350
 4640POPC   NC359999  36.889  12.744   5.282
 4640POPC   PO460000  37.103  13.357   5.370
 4640POPC   GL160001  36.942  13.093   5.713
 4640POPC   GL260002  37.095  13.283   6.003
 4640POPC   C1A60003  36.840  12.871   6.129
 4640POPC   D2A60004  37.009  12.932   6.558
 4640POPC   C3A60005  36.838  12.749   6.916
 4640POPC   C4A60006  36.928  12.824   7.313
 4640POPC   C1B60007  36.746  13.340   6.336
 4640POPC   C2B60008  36.531  13.103   6.703
 4640POPC   C3B60009  36.497  13.051   7.178
 4640POPC   C4B60010  36.631  13.098   7.671
 4641POPC   NC360011   7.653  35.911   5.399
 4641POPC   PO460012   7.199  36.377   5.474
 4641POPC   GL160013   7.383  36.178   5.805
 4641POPC   GL260014   7.131  35.920   5.787
 4641POPC   C1A60015   7.413  36.158   6.268
 4641POPC   D2A60016   7.493  36.345   6.709
 4641POPC   C3A60017   7.425  36.238   7.157
 4641POPC   C4A60018   7.676  36.421   7.522
 4641POPC   C1B60019   7.118  35.718   6.185
 4641POPC   C2B60020   7.278  35.816   6.605
 4641POPC   C3B60021   7.029  36.021   6.902
 4641POPC   C4B60022   7.069  35.881   7.309
 4642POPC   NC360023   6.712  29.071   5.499
 4642POPC   PO460024   6.084  29.191   5.236
 4642POPC   GL160025   6.252  29.332   5.707
 4642POPC   GL260026   6.467  29.125   5.964
 4642POPC   C1A60027   6.343  29.572   6.136
 4642POPC   D2A60028   6.665  29.474   6.465
 4642POPC   C3A60029   6.752  29.345   6.902
 4642POPC   C4A60030   6.421  29.214   7.151
 4642POPC   C1B60031   6.845  29.032   6.283
 4642POPC   C2B60032   7.022  28.864   6.703
 4642POPC   C3B60033   6.946  28.942   7.156
 4642POPC   C4B60034   6.876  28.850   7.647
 4643POPC   NC360035  44.656  30.890   5.400
 4643POPC   PO460036  44.467  31.587   5.484
 4643POPC   GL160037  44.725  31.506   5.840
 4643POPC   GL260038  44.853  31.187   5.782
 4643POPC   C1A60039  44.505  31.580   6.241
 4643POPC   D2A60040  44.258  31.613   6.612
 4643POPC   C3A60041  44.442  31.559   6.985
 4643POPC   C4A60042  44.549  31.291   7.327
 4643POPC   C1B60043  44.683  31.091   6.181
 4643POPC   C2B60044  44.590  31.207   6.575
 4643POPC   C3B60045  44.824  31.204   6.907
 4643POPC   C4B60046  44.850  30.895   7.192
 4644POPC   NC360047   9.661   7.488   5.339
 4644POPC   PO460048  10.177   7.420   5.750
 4644POPC   GL160049   9.778   7.562   5.849
 4644POPC   GL260050   9.645   7.245   5.791
 4644POPC   C1A60051   9.707   7.518   6.273
 4644POPC   D2A60052  10.011   7.466   6.609
 4644POPC   C3A60053   9.841   7.567   7.005
 4644POPC   C4A60054   9.461   7.451   7.198
 4644POPC   C1B60055   9.332   7.186   6.118
 4644POPC   C2B60056   9.403   7.219   6.559
 4644POPC   C3B60057   9.704   7.104   6.843
 4644POPC   C4B60058   9.549   6.946   7.193
 4645POPC   NC360059  19.384   5.038   5.288
 4645POPC   PO460060  18.761   5.325   5.337
 4645POPC   GL160061  18.976   5.073   5.621
 4645POPC   GL260062  19.275   5.226   5.755
 4645POPC   C1A60063  18.856   4.949   6.035
 4645POPC   D2A60064  18.841   4.841   6.451
 4645POPC   C3A60065  18.939   5.123   6.788
 4645POPC   C4A60066  18.895   5.014   7.209
 4645POPC   C1B60067  19.354   5.001   6.131
 4645POPC   C2B60068  19.383   4.844   6.559
 4645POPC   C3B60069  19.339   4.896   7.009
 4645POPC   C4B60070  19.345   5.188   7.377
 4646POPC   NC360071  14.111  21.254   5.452
 4646POPC   PO460072  14.627  21.729   5.382
 4646POPC   GL160073  14.702  21.486   5.766
 4646POPC   GL260074  14.892  21.764   5.867
 4646POPC   C1A60075  14.674  21.251   6.184
 4646POPC   D2A60076  14.585  20.968   6.566
 4646POPC   C3A60077  14.528  21.101   6.978
 4646POPC   C4A60078  14.168  21.302   7.087
 4646POPC   C1B60079  14.599  21.745   6.214
 4646POPC   C2B60080  14.528  21.554   6.604
 4646POPC   C3B60081  14.494  21.691   7.005
 4646POPC   C4B60082  14.560  21.450   7.393
 4647POPC   NC360083  21.563  31.076   5.650
 4647POPC   PO460084  21.187  30.584   5.333
 4647POPC   GL160085  21.279  30.447   5.773
 4647POPC   GL260086  21.194  30.788   5.865
 4647POPC   C1A60087  21.478  30.536   6.218
 4647POPC   D2A60088  21.711  30.560   6.641
 4647POPC   C3A60089  21.446  30.534   7.038
 4647POPC   C4A60090  21.175  30.805   7.244
 4647POPC   C1B60091  21.328  31.020   6.249
 4647POPC   C2B60092  21.359  30.951   6.682
 4647POPC   C3B60093  21.679  30.992   6.975
 4647POPC   C4B60094  21.647  31.062   7.407
 4648POPC   NC360095  14.657  13.772   5.556
 4648POPC   PO460096  14.159  13.402   5.369
 4648POPC   GL160097  14.197  13.542   5.793
 4648POPC   GL260098  14.221  13.898   5.829
 4648POPC   C1A60099  14.426  13.585   6.192
 4648POPC   D2A60100  14.395  13.868   6.544
 4648POPC   C3A60101  14.553  13.730   6.928
 4648POPC   C4A60102  14.525  13.529   7.315
 4648POPC   C1B60103  13.980  13.841   6.227
 4648POPC   C2B60104  13.958  13.588   6.633
 4648POPC   C3B60105  14.063  13.590   7.092
 4648POPC   C4B60106  14.114  13.473   7.600
 4649POPC   NC360107  28.084  31.703   5.630
 4649POPC   PO460108  28.369  31.119   5.755
 4649POPC   GL160109  28.348  31.451   5.989
 4649POPC   GL260110  28.305  31.328   6.318
 4649POPC   C1A60111  28.643  31.714   6.202
 4649POPC   D2A60112  28.608  31.849   6.629
 4649POPC   C3A60113  28.575  31.506   6.928
 4649POPC   C4A60114  28.330  31.109   6.967
 4649POPC   C1B60115  28.140  31.793   6.294
 4649POPC   C2B60116  28.141  32.059   6.616
 4649POPC   C3B60117  28.038  31.878   6.978
 4649POPC   C4B60118  28.241  31.658   7.290
 4650POPC   NC360119  32.405  14.370   5.390
 4650POPC   PO460120  31.784  14.411   5.650
 4650POPC   GL160121  32.175  14.537   5.820
 4650POPC   GL260122  32.303  14.189   5.860
 4650POPC   C1A60123  32.272  14.518   6.250
 4650POPC   D2A60124  31.965  14.402   6.557
 4650POPC   C3A60125  32.118  14.347   6.972
 4650POPC   C4A60126  31.976  14.527   7.376
 4650POPC   C1B60127  32.597  14.144   6.229
 4650POPC   C2B60128  32.615  14.373   6.676
 4650POPC   C3B60129  32.692  14.179   7.095
 4650POPC   C4B60130  32.357  14.184   7.405
 4651POPC   NC360131  29.750  36.359   5.371
 4651POPC   PO460132  29.614  35.686   5.549
 4651POPC   GL160133  29.839  35.809   5.847
 4651POPC   GL260134  29.938  36.120   5.785
 4651POPC   C1A60135  30.031  35.773   6.233
 4651POPC   D2A60136  30.315  35.930   6.538
 4651POPC   C3A60137  30.066  35.858   6.910
 4651POPC   C4A60138  29.897  35.804   7.308
 4651POPC   C1B60139  30.059  36.285   6.180
 4651POPC   C2B60140  29.854  36.200   6.563
 4651POPC   C3B60141  29.852  36.357   6.976
 4651POPC   C4B60142  29.651  36.253   7.351
 4652POPC   NC360143   9.148  28.705   5.463
 4652POPC   PO460144   8.797  28.203   5.434
 4652POPC   GL160145   8.765  28.529   5.785
 4652POPC   GL260146   9.072  28.390   5.875
 4652POPC   C1A60147   8.934  28.776   6.186
 4652POPC   D2A60148   8.933  28.940   6.626
 4652POPC   C3A60149   8.740  28.684   6.949
 4652POPC   C4A60150   8.967  28.729   7.317
 4652POPC   C1B60151   8.840  28.287   6.261
 4652POPC   C2B60152   9.073  28.454   6.603
 4652POPC   C3B60153   9.112  28.334   7.024
 4652POPC   C4B60154   8.823  28.251   7.323
 4653POPC   NC360155  35.206  18.863   4.759
 4653POPC   PO460156  35.443  19.091   5.360
 4653POPC   GL160157  35.513  18.876   5.741
 4653POPC   GL260158  35.573  19.141   5.900
 4653POPC   C1A60159  35.376  18.770   6.191
 4653POPC   D2A60160  35.174  18.845   6.623
 4653POPC   C3A60161  35.306  19.063   7.024
 4653POPC   C4A60162  35.240  18.963   7.486
 4653POPC   C1B60163  35.276  19.276   6.231
 4653POPC   C2B60164  35.112  19.387   6.640
 4653POPC   C3B60165  34.891  19.464   7.021
 4653POPC   C4B60166  35.127  19.465   7.347
 4654POPC   NC360167  39.753  10.364   5.197
 4654POPC   PO460168  40.194  10.725   5.553
 4654POPC   GL160169  40.041  10.672   5.948
 4654POPC   GL260170  40.019  10.310   5.919
 4654POPC   C1A60171  39.800  10.556   6.349
 4654POPC   D2A60172  39.714  10.348   6.775
 4654POPC   C3A60173  39.900  10.468   7.175
 4654POPC   C4A60174  39.889  10.632   7.580
 4654POPC   C1B60175  40.305  10.419   6.292
 4654POPC   C2B60176  40.223  10.490   6.745
 4654POPC   C3B60177  40.324  10.202   7.091
 4654POPC   C4B60178  40.270  10.265   7.555
 4655POPC   NC360179  12.284  34.892   5.390
 4655POPC   PO460180  11.817  34.362   5.420
 4655POPC   GL160181  12.034  34.469   5.826
 4655POPC   GL260182  12.357  34.619   5.832
 4655POPC   C1A60183  12.109  34.544   6.286
 4655POPC   D2A60184  11.917  34.282   6.627
 4655POPC   C3A60185  12.097  34.347   7.023
 4655POPC   C4A60186  12.021  34.708   7.265
 4655POPC   C1B60187  12.555  34.308   6.109
 4655POPC   C2B60188  12.456  34.298   6.558
 4655POPC   C3B60189  12.365  34.684   6.761
 4655POPC   C4B60190  12.526  34.751   7.165
 4656POPC   NC360191  38.765  40.190   5.031
 4656POPC   PO460192  39.272  40.498   5.383
 4656POPC   GL160193  39.260  40.308   5.829
 4656POPC   GL260194  39.567  40.098   5.882
 4656POPC   C1A60195  39.021  40.180   6.240
 4656POPC   D2A60196  38.858  39.937   6.628
 4656POPC   C3A60197  39.058  40.130   6.998
 4656POPC   C4A60198  39.307  40.314   7.324
 4656POPC   C1B60199  39.447  39.859   6.250
 4656POPC   C2B60200  39.406  39.913   6.694
 4656POPC   C3B60201  39.613  39.882   7.077
 4656POPC   C4B60202  39.546  39.922   7.544
 4657POPC   NC360203   6.366  41.704   5.312
 4657POPC   PO460204   7.038  41.463   5.318
 4657POPC   GL160205   6.909  41.488   5.810
 4657POPC   GL260206   6.603  41.613   5.952
 4657POPC   C1A60207   6.864  41.202   6.192
 4657POPC   D2A60208   6.607  41.120   6.580
 4657POPC   C3A60209   6.723  41.278   7.009
 4657POPC   C4A60210   6.656  41.249   7.472
 4657POPC   C1B60211   6.705  41.607   6.423
 4657POPC   C2B60212   6.853  41.716   6.795
 4657POPC   C3B60213   6.544  41.799   7.123
 4657POPC   C4B60214   6.512  41.726   7.552
 4658POPC   NC360215  35.954  10.681   5.567
 4658POPC   PO460216  36.554  10.598   5.425
 4658POPC   GL160217  36.268  10.429   5.850
 4658POPC   GL260218  35.838  10.380   5.930
 4658POPC   C1A60219  36.221  10.271   6.232
 4658POPC   D2A60220  36.301  10.477   6.599
 4658POPC   C3A60221  36.125  10.389   6.959
 4658POPC   C4A60222  36.268  10.332   7.361
 4658POPC   C1B60223  35.910  10.728   6.221
 4658POPC   C2B60224  35.851  10.794   6.635
 4658POPC   C3B60225  35.964  10.874   7.038
 4658POPC   C4B60226  35.831  10.576   7.336
 4659POPC   NC360227  29.677  21.661   5.375
 4659POPC   PO460228  30.174  21.158   5.379
 4659POPC   GL160229  29.949  21.168   5.766
 4659POPC   GL260230  29.867  21.504   5.812
 4659POPC   C1A60231  29.995  21.209   6.219
 4659POPC   D2A60232  29.814  21.443   6.545
 4659POPC   C3A60233  29.958  21.321   6.924
 4659POPC   C4A60234  30.180  21.539   7.215
 4659POPC   C1B60235  29.741  21.766   6.138
 4659POPC   C2B60236  29.426  21.773   6.475
 4659POPC   C3B60237  29.611  21.753   6.894
 4659POPC   C4B60238  29.656  21.567   7.279
 4660POPC   NC360239  37.015  31.834   5.256
 4660POPC   PO460240  36.559  31.379   5.472
 4660POPC   GL160241  36.766  31.631   5.792
 4660POPC   GL260242  37.082  31.586   5.695
 4660POPC   C1A60243  36.744  31.725   6.223
 4660POPC   D2A60244  36.617  31.569   6.619
 4660POPC   C3A60245  36.803  31.669   7.002
 4660POPC   C4A60246  36.781  31.268   7.218
 4660POPC   C1B60247  37.235  31.510   6.092
 4660POPC   C2B60248  37.154  31.574   6.523
 4660POPC   C3B60249  37.149  31.297   6.857
 4660POPC   C4B60250  37.254  31.445   7.261
 4661POPC   NC360251  32.656  37.744   5.575
 4661POPC   PO460252  33.221  37.408   5.445
 4661POPC   GL160253  33.034  37.511   5.816
 4661POPC   GL260254  32.756  37.287   5.806
 4661POPC   C1A60255  32.884  37.601   6.228
 4661POPC   D2A60256  33.051  37.477   6.614
 4661POPC   C3A60257  33.194  37.850   6.801
 4661POPC   C4A60258  33.198  37.827   7.229
 4661POPC   C1B60259  32.479  37.279   6.168
 4661POPC   C2B60260  32.419  37.536   6.537
 4661POPC   C3B60261  32.678  37.779   6.800
 4661POPC   C4B60262  32.684  37.781   7.212
 4662POPC   NC360263  22.636   1.716   5.451
 4662POPC   PO460264  22.683   2.293   5.128
 4662POPC   GL160265  22.909   2.196   5.596
 4662POPC   GL260266  22.753   2.365   5.868
 4662POPC   C1A60267  23.049   1.904   5.942
 4662POPC   D2A60268  23.113   1.809   6.396
 4662POPC   C3A60269  22.967   1.764   6.837
 4662POPC   C4A60270  23.099   1.897   7.234
 4662POPC   C1B60271  22.849   2.248   6.260
 4662POPC   C2B60272  22.654   2.153   6.633
 4662POPC   C3B60273  22.782   2.268   7.033
 4662POPC   C4B60274  22.656   2.141   7.425
 4663POPC   NC360275   2.961   6.238   5.491
 4663POPC   PO460276   2.755   5.601   5.394
 4663POPC   GL160277   2.614   5.877   5.745
 4663POPC   GL260278   2.383   5.649   5.875
 4663POPC   C1A60279   2.759   6.031   6.193
 4663POPC   D2A60280   2.615   6.143   6.641
 4663POPC   C3A60281   2.779   5.889   6.979
 4663POPC   C4A60282   2.834   5.990   7.388
 4663POPC   C1B60283   2.725   5.509   6.127
 4663POPC   C2B60284   2.804   5.555   6.574
 4663POPC   C3B60285   3.040   5.448   6.943
 4663POPC   C4B60286   2.926   5.449   7.355
 4664POPC   NC360287  20.809  20.367   5.406
 4664POPC   PO460288  20.300  20.670   5.089
 4664POPC   GL160289  20.609  20.975   5.495
 4664POPC   GL260290  20.831  20.821   5.763
 4664POPC   C1A60291  20.458  21.085   6.001
 4664POPC   D2A60292  20.607  20.956   6.424
 4664POPC   C3A60293  20.442  20.923   6.846
 4664POPC   C4A60294  20.601  20.710   7.243
 4664POPC   C1B60295  20.860  20.585   6.204
 4664POPC   C2B60296  20.731  20.481   6.681
 4664POPC   C3B60297  20.584  20.233   7.088
 4664POPC   C4B60298  20.672  20.274   7.583
 4665POPC   NC360299  18.911  11.918   5.017
 4665POPC   PO460300  19.264  12.290   5.505
 4665POPC   GL160301  19.054  12.052   5.746
 4665POPC   GL260302  18.847  11.893   5.553
 4665POPC   C1A60303  19.132  12.073   6.162
 4665POPC   D2A60304  19.315  11.883   6.486
 4665POPC   C3A60305  19.091  11.863   6.861
 4665POPC   C4A60306  19.314  11.932   7.232
 4665POPC   C1B60307  18.791  11.712   6.019
 4665POPC   C2B60308  18.762  11.845   6.437
 4665POPC   C3B60309  18.574  11.956   6.811
 4665POPC   C4B60310  18.735  11.904   7.240
 4666POPC   NC360311   1.429   4.488   5.433
 4666POPC   PO460312   1.208   3.925   5.300
 4666POPC   GL160313   1.177   4.075   5.742
 4666POPC   GL260314   1.125   4.449   5.873
 4666POPC   C1A60315   1.158   4.056   6.195
 4666POPC   D2A60316   1.151   4.392   6.485
 4666POPC   C3A60317   1.252   4.260   6.876
 4666POPC   C4A60318   1.109   4.409   7.231
 4666POPC   C1B60319   1.530   4.444   6.155
 4666POPC   C2B60320   1.655   4.563   6.626
 4666POPC   C3B60321   1.648   4.498   7.108
 4666POPC   C4B60322   1.496   4.618   7.521
 4667POPC   NC360323   0.843  42.503   5.477
 4667POPC   PO460324   1.246  42.016   5.346
 4667POPC   GL160325   1.142  42.171   5.774
 4667POPC   GL260326   1.242  42.512   5.833
 4667POPC   C1A60327   0.914  42.308   6.153
 4667POPC   D2A60328   0.870  42.373   6.563
 4667POPC   C3A60329   1.083  42.078   6.842
 4667POPC   C4A60330   1.093  42.102   7.289
 4667POPC   C1B60331   1.247  42.682   6.284
 4667POPC   C2B60332   1.091  42.817   6.690
 4667POPC   C3B60333   0.966  42.547   7.036
 4667POPC   C4B60334   1.358  42.518   7.171
 4668POPC   NC360335   3.246  28.888   5.505
 4668POPC   PO460336   3.856  29.098   5.376
 4668POPC   GL160337   3.674  29.017   5.804
 4668POPC   GL260338   3.426  29.298   5.788
 4668POPC   C1A60339   3.491  28.908   6.233
 4668POPC   D2A60340   3.397  29.101   6.657
 4668POPC   C3A60341   3.501  28.897   7.073
 4668POPC   C4A60342   3.493  28.879   7.562
 4668POPC   C1B60343   3.552  29.415   6.212
 4668POPC   C2B60344   3.753  29.531   6.603
 4668POPC   C3B60345   3.641  29.381   7.035
 4668POPC   C4B60346   3.756  29.331   7.485
 4669POPC   NC360347  21.686  27.923   5.314
 4669POPC   PO460348  22.226  27.513   5.369
 4669POPC   GL160349  22.316  27.579   5.814
 4669POPC   GL260350  21.981  27.709   5.823
 4669POPC   C1A60351  22.516  27.482   6.257
 4669POPC   D2A60352  22.408  27.613   6.705
 4669POPC   C3A60353  22.601  27.445   7.110
 4669POPC   C4A60354  22.544  27.502   7.575
 4669POPC   C1B60355  22.061  27.736   6.279
 4669POPC   C2B60356  21.907  27.587   6.686
 4669POPC   C3B60357  22.082  27.505   7.085
 4669POPC   C4B60358  21.922  27.637   7.458
 4670POPC   NC360359  11.063  20.115   5.386
 4670POPC   PO460360  11.676  19.725   5.471
 4670POPC   GL160361  11.441  19.881   5.823
 4670POPC   GL260362  11.075  19.864   5.823
 4670POPC   C1A60363  11.325  19.774   6.270
 4670POPC   D2A60364  11.301  19.685   6.707
 4670POPC   C3A60365  11.190  19.995   7.048
 4670POPC   C4A60366  11.366  19.743   7.362
 4670POPC   C1B60367  10.925  20.084   6.188
 4670POPC   C2B60368  10.821  19.919   6.638
 4670POPC   C3B60369  10.863  19.620   6.997
 4670POPC   C4B60370  10.873  19.697   7.443
 4671POPC   NC360371  23.926   6.037   5.536
 4671POPC   PO460372  23.489   5.432   5.577
 4671POPC   GL160373  23.724   5.680   5.877
 4671POPC   GL260374  23.416   5.679   6.071
 4671POPC   C1A60375  23.822   5.863   6.302
 4671POPC   D2A60376  23.493   5.810   6.631
 4671POPC   C3A60377  23.594   5.748   7.074
 4671POPC   C4A60378  23.827   6.158   7.147
 4671POPC   C1B60379  23.412   6.146   6.228
 4671POPC   C2B60380  23.229   6.277   6.611
 4671POPC   C3B60381  23.332   6.163   7.012
 4671POPC   C4B60382  23.459   6.197   7.483
 4672POPC   NC360383  11.157   9.426   5.255
 4672POPC   PO460384  11.649   9.879   5.242
 4672POPC   GL160385  11.434   9.704   5.617
 4672POPC   GL260386  11.447  10.025   5.729
 4672POPC   C1A60387  11.255   9.610   6.054
 4672POPC   D2A60388  11.275   9.608   6.510
 4672POPC   C3A60389  11.429   9.457   6.906
 4672POPC   C4A60390  11.173   9.687   7.185
 4672POPC   C1B60391  11.633   9.954   6.110
 4672POPC   C2B60392  11.748   9.865   6.518
 4672POPC   C3B60393  11.607   9.939   6.928
 4672POPC   C4B60394  11.637   9.725   7.316
 4673POPC   NC360395  32.395   5.480   5.539
 4673POPC   PO460396  32.042   6.091   5.346
 4673POPC   GL160397  32.229   6.119   5.753
 4673POPC   GL260398  32.548   5.944   5.746
 4673POPC   C1A60399  32.123   6.068   6.195
 4673POPC   D2A60400  31.838   6.010   6.543
 4673POPC   C3A60401  31.992   5.933   6.961
 4673POPC   C4A60402  31.720   5.644   7.191
 4673POPC   C1B60403  32.575   5.830   6.162
 4673POPC   C2B60404  32.357   5.740   6.544
 4673POPC   C3B60405  32.554   5.808   6.911
 4673POPC   C4B60406  32.591   5.995   7.278
 4674POPC   NC360407  27.771   6.512   5.163
 4674POPC   PO460408  27.177   6.706   5.425
 4674POPC   GL160409  27.545   6.703   5.716
 4674POPC   GL260410  27.727   6.377   5.727
 4674POPC   C1A60411  27.539   6.843   6.158
 4674POPC   D2A60412  27.455   6.724   6.576
 4674POPC   C3A60413  27.669   6.812   6.966
 4674POPC   C4A60414  27.462   7.088   7.262
 4674POPC   C1B60415  27.581   6.333   6.191
 4674POPC   C2B60416  27.462   6.227   6.648
 4674POPC   C3B60417  27.618   6.310   7.102
 4674POPC   C4B60418  27.508   6.247   7.567
 4675POPC   NC360419  40.060   8.500   5.234
 4675POPC   PO460420  39.848   9.128   5.462
 4675POPC   GL160421  40.026   8.873   5.759
 4675POPC   GL260422  40.342   9.004   5.641
 4675POPC   C1A60423  39.969   8.815   6.225
 4675POPC   D2A60424  39.766   9.010   6.594
 4675POPC   C3A60425  39.913   8.947   7.030
 4675POPC   C4A60426  40.022   8.842   7.523
 4675POPC   C1B60427  40.359   9.120   6.059
 4675POPC   C2B60428  40.252   9.209   6.454
 4675POPC   C3B60429  40.412   9.162   6.843
 4675POPC   C4B60430  40.316   9.145   7.228
 4676POPC   NC360431  42.415  42.549   5.103
 4676POPC   PO460432  42.763  42.220   5.534
 4676POPC   GL160433  42.537  42.526   5.770
 4676POPC   GL260434  42.192  42.502   5.906
 4676POPC   C1A60435  42.576  42.690   6.195
 4676POPC   D2A60436  42.432  42.379   6.488
 4676POPC   C3A60437  42.513  42.400   6.921
 4676POPC   C4A60438  42.620  42.046   7.151
 4676POPC   C1B60439  42.107  42.116   6.163
 4676POPC   C2B60440  41.896  41.974   6.569
 4676POPC   C3B60441  42.050  42.067   6.990
 4676POPC   C4B60442  42.211  42.284   7.346
 4677POPC   NC360443  26.270  18.213   5.368
 4677POPC   PO460444  25.795  17.838   5.293
 4677POPC   GL160445  25.922  18.021   5.718
 4677POPC   GL260446  25.823  18.370   5.763
 4677POPC   C1A60447  26.091  18.126   6.150
 4677POPC   D2A60448  26.263  18.388   6.499
 4677POPC   C3A60449  26.050  18.401   6.921
 4677POPC   C4A60450  26.075  18.233   7.342
 4677POPC   C1B60451  25.585  18.217   6.156
 4677POPC   C2B60452  25.790  18.139   6.571
 4677POPC   C3B60453  25.815  17.954   6.997
 4677POPC   C4B60454  25.634  18.011   7.406
 4678POPC   NC360455  44.348  40.423   5.577
 4678POPC   PO460456  44.612  39.782   5.351
 4678POPC   GL160457  44.760  40.076   5.697
 4678POPC   GL260458   0.112  40.207   5.786
 4678POPC   C1A60459  44.796  39.918   6.114
 4678POPC   D2A60460  44.938  39.920   6.545
 4678POPC   C3A60461  44.722  40.010   6.917
 4678POPC   C4A60462  44.439  39.945   7.246
 4678POPC   C1B60463   0.112  40.310   6.249
 4678POPC   C2B60464  44.922  40.421   6.660
 4678POPC   C3B60465  44.963  40.466   7.117
 4678POPC   C4B60466  44.938  40.124   7.381
 4679POPC   NC360467  31.853  41.367   5.422
 4679POPC   PO460468  31.201  41.608   5.324
 4679POPC   GL160469  31.471  41.553   5.714
 4679POPC   GL260470  31.571  41.221   5.830
 4679POPC   C1A60471  31.449  41.592   6.170
 4679POPC   D2A60472  31.326  41.309   6.498
 4679POPC   C3A60473  31.327  41.521   6.899
 4679POPC   C4A60474  31.367  41.389   7.304
 4679POPC   C1B60475  31.858  41.310   6.191
 4679POPC   C2B60476  31.806  41.511   6.610
 4679POPC   C3B60477  31.801  41.359   7.053
 4679POPC   C4B60478  31.851  41.318   7.515
 4680POPC   NC360479   9.447  37.259   5.356
 4680POPC   PO460480   8.882  36.781   5.407
 4680POPC   GL160481   8.937  37.047   5.797
 4680POPC   GL260482   9.252  37.277   5.840
 4680POPC   C1A60483   9.012  36.825   6.197
 4680POPC   D2A60484   9.329  36.770   6.532
 4680POPC   C3A60485   9.186  36.711   6.967
 4680POPC   C4A60486   8.752  36.683   7.152
 4680POPC   C1B60487   9.206  37.286   6.304
 4680POPC   C2B60488   8.881  37.177   6.557
 4680POPC   C3B60489   8.862  37.128   6.948
 4680POPC   C4B60490   9.021  37.290   7.258
 4681POPC   NC360491  25.427  17.789   5.034
 4681POPC   PO460492  25.356  18.292   5.524
 4681POPC   GL160493  25.057  18.324   5.841
 4681POPC   GL260494  25.007  18.704   5.882
 4681POPC   C1A60495  25.014  18.064   6.225
 4681POPC   D2A60496  25.326  17.933   6.550
 4681POPC   C3A60497  25.371  18.173   6.897
 4681POPC   C4A60498  25.164  18.143   7.261
 4681POPC   C1B60499  25.166  18.562   6.272
 4681POPC   C2B60500  25.009  18.517   6.686
 4681POPC   C3B60501  25.232  18.639   7.051
 4681POPC   C4B60502  25.554  18.491   7.289
 4682POPC   NC360503   2.228  21.555   5.354
 4682POPC   PO460504   1.612  21.794   5.534
 4682POPC   GL160505   1.866  22.021   5.819
 4682POPC   GL260506   2.207  21.995   5.734
 4682POPC   C1A60507   1.795  22.261   6.178
 4682POPC   D2A60508   1.946  22.251   6.602
 4682POPC   C3A60509   1.690  22.032   6.910
 4682POPC   C4A60510   1.660  22.250   7.267
 4682POPC   C1B60511   2.296  22.111   6.191
 4682POPC   C2B60512   2.477  22.179   6.611
 4682POPC   C3B60513   2.353  22.171   7.034
 4682POPC   C4B60514   2.126  22.455   7.273
 4683POPC   NC360515  10.721  44.347   5.543
 4683POPC   PO460516  10.600  44.974   5.441
 4683POPC   GL160517  10.444  44.957   5.829
 4683POPC   GL260518  10.542  44.662   5.944
 4683POPC   C1A60519  10.575   0.122   6.232
 4683POPC   D2A60520  10.406   0.285   6.606
 4683POPC   C3A60521  10.486  44.929   6.843
 4683POPC   C4A60522  10.446  44.778   7.242
 4683POPC   C1B60523  10.509  44.583   6.372
 4683POPC   C2B60524  10.537  44.297   6.735
 4683POPC   C3B60525  10.520  44.281   7.198
 4683POPC   C4B60526  10.477  44.248   7.649
 4684POPC   NC360527  40.556  18.632   5.380
 4684POPC   PO460528  40.945  17.991   5.521
 4684POPC   GL160529  40.828  18.395   5.742
 4684POPC   GL260530  40.514  18.416   5.845
 4684POPC   C1A60531  40.872  18.669   6.126
 4684POPC   D2A60532  40.792  18.581   6.609
 4684POPC   C3A60533  41.043  18.302   6.868
 4684POPC   C4A60534  41.061  18.139   7.296
 4684POPC   C1B60535  40.748  18.174   6.192
 4684POPC   C2B60536  40.590  18.117   6.606
 4684POPC   C3B60537  40.603  18.086   7.017
 4684POPC   C4B60538  40.594  18.333   7.383
 4685POPC   NC360539  16.082   0.745   5.648
 4685POPC   PO460540  16.228   0.196   5.210
 4685POPC   GL160541  16.224   0.199   5.674
 4685POPC   GL260542  15.883   0.271   5.789
 4685POPC   C1A60543  16.381   0.226   6.111
 4685POPC   D2A60544  16.529   0.403   6.532
 4685POPC   C3A60545  16.348   0.376   6.951
 4685POPC   C4A60546  16.034   0.300   7.262
 4685POPC   C1B60547  15.867   0.278   6.254
 4685POPC   C2B60548  15.916   0.448   6.682
 4685POPC   C3B60549  15.718   0.650   7.028
 4685POPC   C4B60550  15.556   0.515   7.413
 4686POPC   NC360551  12.485  20.049   5.516
 4686POPC   PO460552  13.061  20.323   5.304
 4686POPC   GL160553  12.985  19.925   5.611
 4686POPC   GL260554  13.277  19.696   5.727
 4686POPC   C1A60555  12.848  19.757   6.040
 4686POPC   D2A60556  12.802  19.932   6.470
 4686POPC   C3A60557  12.713  19.785   6.887
 4686POPC   C4A60558  12.890  19.815   7.319
 4686POPC   C1B60559  13.360  19.778   6.144
 4686POPC   C2B60560  13.306  19.794   6.581
 4686POPC   C3B60561  13.185  19.574   6.957
 4686POPC   C4B60562  13.153  19.383   7.377
 4687POPC   NC360563  44.904   5.320   5.370
 4687POPC   PO460564  44.243   5.003   5.405
 4687POPC   GL160565  44.624   4.967   5.701
 4687POPC   GL260566  44.819   4.659   5.771
 4687POPC   C1A60567  44.837   5.113   6.092
 4687POPC   D2A60568  44.692   5.384   6.428
 4687POPC   C3A60569  44.838   5.232   6.831
 4687POPC   C4A60570  44.653   5.226   7.252
 4687POPC   C1B60571  44.581   4.662   6.146
 4687POPC   C2B60572  44.563   4.890   6.501
 4687POPC   C3B60573  44.509   4.845   6.923
 4687POPC   C4B60574  44.649   4.717   7.306
 4688POPC   NC360575  21.008   1.472   5.478
 4688POPC   PO460576  21.480   1.940   5.341
 4688POPC   GL160577  21.500   1.803   5.767
 4688POPC   GL260578  21.148   1.822   5.824
 4688POPC   C1A60579  21.502   1.695   6.213
 4688POPC   D2A60580  21.665   1.762   6.638
 4688POPC   C3A60581  21.397   1.685   6.936
 4688POPC   C4A60582  21.437   1.835   7.327
 4688POPC   C1B60583  21.187   2.100   6.162
 4688POPC   C2B60584  21.227   2.021   6.576
 4688POPC   C3B60585  20.955   1.944   6.916
 4688POPC   C4B60586  21.031   2.140   7.307
 4689POPC   NC360587  30.439  38.554   5.511
 4689POPC   PO460588  30.938  38.002   5.472
 4689POPC   GL160589  30.841  38.310   5.739
 4689POPC   GL260590  31.000  38.627   5.616
 4689POPC   C1A60591  30.634  38.271   6.141
 4689POPC   D2A60592  30.819  38.403   6.517
 4689POPC   C3A60593  30.546  38.547   6.812
 4689POPC   C4A60594  30.493  38.471   7.215
 4689POPC   C1B60595  31.033  38.639   6.082
 4689POPC   C2B60596  31.104  38.858   6.479
 4689POPC   C3B60597  31.109  38.661   6.874
 4689POPC   C4B60598  30.983  38.618   7.275
 4690POPC   NC360599  38.743  42.610   5.646
 4690POPC   PO460600  38.433  42.153   5.275
 4690POPC   GL160601  38.345  42.289   5.723
 4690POPC   GL260602  38.017  42.335   5.815
 4690POPC   C1A60603  38.407  42.373   6.166
 4690POPC   D2A60604  38.708  42.402   6.505
 4690POPC   C3A60605  38.617  42.444   6.935
 4690POPC   C4A60606  38.783  42.189   7.278
 4690POPC   C1B60607  38.027  42.017   6.186
 4690POPC   C2B60608  38.198  42.160   6.582
 4690POPC   C3B60609  38.118  42.374   6.937
 4690POPC   C4B60610  38.297  42.332   7.340
 4691POPC   NC360611  39.593  28.903   5.215
 4691POPC   PO460612  40.119  29.292   5.405
 4691POPC   GL160613  40.090  29.008   5.784
 4691POPC   GL260614  40.013  29.284   5.940
 4691POPC   C1A60615  39.874  28.906   6.241
 4691POPC   D2A60616  39.772  28.635   6.636
 4691POPC   C3A60617  39.853  28.794   7.068
 4691POPC   C4A60618  39.664  28.957   7.433
 4691POPC   C1B60619  40.328  29.184   6.225
 4691POPC   C2B60620  40.417  29.321   6.600
 4691POPC   C3B60621  40.242  29.135   6.948
 4691POPC   C4B60622  39.966  29.349   7.244
 4692POPC   NC360623   8.141  34.988   5.152
 4692POPC   PO460624   7.934  35.545   5.429
 4692POPC   GL160625   8.129  35.402   5.804
 4692POPC   GL260626   7.876  35.319   5.976
 4692POPC   C1A60627   8.327  35.213   6.187
 4692POPC   D2A60628   8.269  35.402   6.585
 4692POPC   C3A60629   8.426  35.172   6.928
 4692POPC   C4A60630   8.403  35.364   7.321
 4692POPC   C1B60631   7.871  35.004   6.256
 4692POPC   C2B60632   8.042  34.929   6.641
 4692POPC   C3B60633   7.939  35.104   7.035
 4692POPC   C4B60634   7.998  35.561   7.057
 4693POPC   NC360635  42.180  18.293   5.360
 4693POPC   PO460636  42.786  18.385   5.636
 4693POPC   GL160637  42.459  18.121   5.803
 4693POPC   GL260638  42.096  18.211   5.862
 4693POPC   C1A60639  42.419  17.954   6.238
 4693POPC   D2A60640  42.329  18.082   6.700
 4693POPC   C3A60641  42.653  18.147   6.986
 4693POPC   C4A60642  42.935  17.962   7.280
 4693POPC   C1B60643  42.121  18.361   6.293
 4693POPC   C2B60644  41.990  18.494   6.715
 4693POPC   C3B60645  42.082  18.325   7.119
 4693POPC   C4B60646  42.381  18.489   7.400
 4694POPC   NC360647  26.470  34.547   5.439
 4694POPC   PO460648  26.825  35.099   5.351
 4694POPC   GL160649  26.687  34.885   5.772
 4694POPC   GL260650  26.885  34.608   5.854
 4694POPC   C1A60651  26.654  34.783   6.273
 4694POPC   D2A60652  26.883  34.531   6.608
 4694POPC   C3A60653  26.734  34.508   7.005
 4694POPC   C4A60654  26.785  34.786   7.356
 4694POPC   C1B60655  27.134  34.875   6.127
 4694POPC   C2B60656  27.251  34.877   6.578
 4694POPC   C3B60657  27.196  34.742   7.053
 4694POPC   C4B60658  27.257  34.732   7.544
 4695POPC   NC360659  23.972  34.714   5.308
 4695POPC   PO460660  23.508  34.224   5.476
 4695POPC   GL160661  23.793  34.279   5.809
 4695POPC   GL260662  24.102  34.491   5.780
 4695POPC   C1A60663  23.844  34.453   6.219
 4695POPC   D2A60664  23.935  34.407   6.628
 4695POPC   C3A60665  23.719  34.622   6.936
 4695POPC   C4A60666  23.742  34.888   7.268
 4695POPC   C1B60667  24.135  34.860   6.112
 4695POPC   C2B60668  24.042  34.927   6.582
 4695POPC   C3B60669  24.205  35.056   7.021
 4695POPC   C4B60670  24.186  34.994   7.470
 4696POPC   NC360671   1.240  26.841   5.277
 4696POPC   PO460672   1.320  27.260   5.752
 4696POPC   GL160673   1.244  26.926   6.007
 4696POPC   GL260674   1.058  26.656   5.896
 4696POPC   C1A60675   1.297  26.808   6.399
 4696POPC   D2A60676   1.402  26.681   6.767
 4696POPC   C3A60677   1.427  27.017   7.067
 4696POPC   C4A60678   1.421  27.052   7.525
 4696POPC   C1B60679   0.806  26.783   6.287
 4696POPC   C2B60680   0.891  26.856   6.746
 4696POPC   C3B60681   1.024  26.688   7.130
 4696POPC   C4B60682   1.018  26.751   7.576
 4697POPC   NC360683  35.663  28.576   5.430
 4697POPC   PO460684  34.998  28.311   5.359
 4697POPC   GL160685  35.309  28.357   5.732
 4697POPC   GL260686  35.236  28.723   5.750
 4697POPC   C1A60687  35.528  28.349   6.188
 4697POPC   D2A60688  35.608  28.252   6.679
 4697POPC   C3A60689  35.583  28.548   7.068
 4697POPC   C4A60690  35.521  28.721   7.510
 4697POPC   C1B60691  35.035  28.523   6.126
 4697POPC   C2B60692  35.112  28.397   6.537
 4697POPC   C3B60693  35.035  28.577   6.925
 4697POPC   C4B60694  35.135  28.464   7.343
 4698POPC   NC360695  18.538  31.118   5.310
 4698POPC   PO460696  18.947  31.709   5.253
 4698POPC   GL160697  19.086  31.615   5.741
 4698POPC   GL260698  19.381  31.364   5.721
 4698POPC   C1A60699  19.016  31.635   6.228
 4698POPC   D2A60700  18.767  31.424   6.583
 4698POPC   C3A60701  18.946  31.398   6.994
 4698POPC   C4A60702  18.923  31.381   7.470
 4698POPC   C1B60703  19.250  31.181   6.136
 4698POPC   C2B60704  19.294  31.305   6.593
 4698POPC   C3B60705  19.321  31.042   6.980
 4698POPC   C4B60706  19.267  31.020   7.482
 4699POPC   NC360707   8.028  21.402   5.290
 4699POPC   PO460708   7.450  21.732   5.389
 4699POPC   GL160709   7.416  21.395   5.741
 4699POPC   GL260710   7.081  21.226   5.804
 4699POPC   C1A60711   7.539  21.446   6.203
 4699POPC   D2A60712   7.384  21.608   6.628
 4699POPC   C3A60713   7.444  21.550   7.098
 4699POPC   C4A60714   7.243  21.550   7.529
 4699POPC   C1B60715   7.279  21.009   6.146
 4699POPC   C2B60716   7.439  21.069   6.537
 4699POPC   C3B60717   7.238  21.156   6.876
 4699POPC   C4B60718   7.251  20.976   7.250
 4700POPC   NC360719  29.832  22.649   5.386
 4700POPC   PO460720  30.037  22.036   5.292
 4700POPC   GL160721  29.940  22.118   5.729
 4700POPC   GL260722  30.066  22.459   5.803
 4700POPC   C1A60723  30.107  22.114   6.169
 4700POPC   D2A60724  29.802  22.129   6.499
 4700POPC   C3A60725  29.975  22.155   6.861
 4700POPC   C4A60726  29.924  22.004   7.257
 4700POPC   C1B60727  29.807  22.558   6.195
 4700POPC   C2B60728  29.694  22.623   6.669
 4700POPC   C3B60729  29.826  22.564   7.122
 4700POPC   C4B60730  30.243  22.396   7.263
 4701POPC   NC360731   3.122  42.933   5.475
 4701POPC   PO460732   2.597  42.636   5.206
 4701POPC   GL160733   2.602  42.841   5.681
 4701POPC   GL260734   2.892  42.835   5.923
 4701POPC   C1A60735   2.544  43.189   6.047
 4701POPC   D2A60736   2.638  43.376   6.488
 4701POPC   C3A60737   2.486  43.198   6.911
 4701POPC   C4A60738   2.538  43.220   7.394
 4701POPC   C1B60739   2.892  42.651   6.328
 4701POPC   C2B60740   2.904  42.734   6.778
 4701POPC   C3B60741   2.899  42.966   7.137
 4701POPC   C4B60742   3.199  43.202   7.348
 4702POPC   NC360743  21.323   8.435   5.229
 4702POPC   PO460744  21.565   7.859   5.348
 4702POPC   GL160745  21.290   8.093   5.686
 4702POPC   GL260746  21.285   8.449   5.766
 4702POPC   C1A60747  20.992   8.005   6.057
 4702POPC   D2A60748  21.148   7.927   6.489
 4702POPC   C3A60749  21.171   8.202   6.829
 4702POPC   C4A60750  21.269   8.021   7.215
 4702POPC   C1B60751  21.457   8.210   6.148
 4702POPC   C2B60752  21.648   7.858   6.374
 4702POPC   C3B60753  21.662   7.864   6.837
 4702POPC   C4B60754  21.684   8.254   7.074
 4703POPC   NC360755  32.134  38.015   5.255
 4703POPC   PO460756  32.376  37.383   5.453
 4703POPC   GL160757  32.252  37.564   5.819
 4703POPC   GL260758  32.144  37.906   5.797
 4703POPC   C1A60759  32.039  37.590   6.195
 4703POPC   D2A60760  31.914  37.798   6.562
 4703POPC   C3A60761  32.024  37.565   6.924
 4703POPC   C4A60762  32.182  37.575   7.336
 4703POPC   C1B60763  32.451  37.911   6.176
 4703POPC   C2B60764  32.340  38.083   6.582
 4703POPC   C3B60765  32.244  38.014   7.012
 4703POPC   C4B60766  32.465  38.257   7.283
 4704POPC   NC360767  44.247  23.873   5.632
 4704POPC   PO460768  43.615  23.935   5.380
 4704POPC   GL160769  43.783  23.767   5.774
 4704POPC   GL260770  43.927  23.430   5.693
 4704POPC   C1A60771  43.819  23.879   6.216
 4704POPC   D2A60772  43.588  23.817   6.603
 4704POPC   C3A60773  43.847  23.819   6.967
 4704POPC   C4A60774  43.832  23.668   7.385
 4704POPC   C1B60775  44.095  23.444   6.121
 4704POPC   C2B60776  43.954  23.369   6.554
 4704POPC   C3B60777  44.107  23.381   6.987
 4704POPC   C4B60778  44.253  23.383   7.418
 4705POPC   NC360779   4.196  27.937   5.447
 4705POPC   PO460780   4.463  27.290   5.419
 4705POPC   GL160781   4.335  27.537   5.758
 4705POPC   GL260782   4.598  27.779   5.743
 4705POPC   C1A60783   4.190  27.783   6.152
 4705POPC   D2A60784   3.994  27.737   6.586
 4705POPC   C3A60785   4.143  27.377   6.856
 4705POPC   C4A60786   4.125  27.360   7.291
 4705POPC   C1B60787   4.667  27.577   6.146
 4705POPC   C2B60788   4.505  27.607   6.557
 4705POPC   C3B60789   4.389  27.814   6.934
 4705POPC   C4B60790   4.289  27.860   7.354
 4706POPC   NC360791  27.331  34.041   5.479
 4706POPC   PO460792  27.948  33.681   5.499
 4706POPC   GL160793  27.858  33.755   5.884
 4706POPC   GL260794  27.837  34.104   5.915
 4706POPC   C1A60795  27.723  33.579   6.256
 4706POPC   D2A60796  27.396  33.684   6.545
 4706POPC   C3A60797  27.601  33.851   6.909
 4706POPC   C4A60798  27.654  33.596   7.274
 4706POPC   C1B60799  27.429  33.990   6.112
 4706POPC   C2B60800  27.184  34.150   6.460
 4706POPC   C3B60801  27.149  34.108   6.903
 4706POPC   C4B60802  27.224  33.857   7.275
 4707POPC   NC360803  43.951  16.485   5.343
 4707POPC   PO460804  44.133  15.803   5.402
 4707POPC   GL160805  43.932  15.955   5.795
 4707POPC   GL260806  44.074  16.256   5.778
 4707POPC   C1A60807  43.704  16.093   6.205
 4707POPC   D2A60808  43.761  16.281   6.636
 4707POPC   C3A60809  43.637  16.046   7.032
 4707POPC   C4A60810  43.642  15.747   7.426
 4707POPC   C1B60811  44.175  16.313   6.190
 4707POPC   C2B60812  44.181  16.006   6.502
 4707POPC   C3B60813  44.172  16.063   6.960
 4707POPC   C4B60814  43.989  16.111   7.414
 4708POPC   NC360815  15.551  42.329   5.431
 4708POPC   PO460816  16.138  42.033   5.253
 4708POPC   GL160817  15.930  42.088   5.679
 4708POPC   GL260818  15.894  42.473   5.785
 4708POPC   C1A60819  15.744  42.088   6.103
 4708POPC   D2A60820  15.741  42.015   6.539
 4708POPC   C3A60821  15.998  42.198   6.823
 4708POPC   C4A60822  15.882  42.221   7.229
 4708POPC   C1B60823  15.978  42.788   6.160
 4708POPC   C2B60824  15.941  42.940   6.617
 4708POPC   C3B60825  15.986  42.680   7.007
 4708POPC   C4B60826  16.114  42.585   7.472
 4709POPC   NC360827  10.259  37.219   5.503
 4709POPC   PO460828   9.669  36.810   5.375
 4709POPC   GL160829   9.821  36.985   5.724
 4709POPC   GL260830   9.810  37.326   5.747
 4709POPC   C1A60831   9.618  36.972   6.118
 4709POPC   D2A60832   9.843  36.757   6.462
 4709POPC   C3A60833   9.728  36.792   6.887
 4709POPC   C4A60834   9.958  36.919   7.256
 4709POPC   C1B60835   9.997  37.334   6.155
 4709POPC   C2B60836   9.707  37.275   6.516
 4709POPC   C3B60837   9.385  37.191   6.816
 4709POPC   C4B60838   9.475  37.090   7.240
 4710POPC   NC360839  43.887   0.379   5.414
 4710POPC   PO460840  44.346   0.861   5.590
 4710POPC   GL160841  44.199   0.485   5.836
 4710POPC   GL260842  44.036   0.111   5.844
 4710POPC   C1A60843  43.909   0.478   6.178
 4710POPC   D2A60844  43.702   0.351   6.568
 4710POPC   C3A60845  43.938   0.416   6.909
 4710POPC   C4A60846  43.727   0.724   7.109
 4710POPC   C1B60847  43.670   0.025   6.181
 4710POPC   C2B60848  43.590  44.860   6.667
 4710POPC   C3B60849  43.573   0.103   7.110
 4710POPC   C4B60850  43.557   0.007   7.580
 4711POPC   NC360851  33.232  28.979   5.455
 4711POPC   PO460852  32.921  29.491   5.440
 4711POPC   GL160853  32.933  29.224   5.811
 4711POPC   GL260854  32.936  28.850   5.847
 4711POPC   C1A60855  33.313  29.243   6.059
 4711POPC   D2A60856  33.379  29.404   6.456
 4711POPC   C3A60857  33.098  29.212   6.777
 4711POPC   C4A60858  33.198  29.098   7.202
 4711POPC   C1B60859  32.987  28.939   6.299
 4711POPC   C2B60860  32.804  28.754   6.658
 4711POPC   C3B60861  32.638  28.792   7.055
 4711POPC   C4B60862  32.688  29.214   7.169
 4712POPC   NC360863   9.264  34.946   5.611
 4712POPC   PO460864   9.627  34.673   5.110
 4712POPC   GL160865   9.667  34.611   5.579
 4712POPC   GL260866   9.990  34.501   5.718
 4712POPC   C1A60867   9.635  34.565   6.061
 4712POPC   D2A60868   9.413  34.567   6.480
 4712POPC   C3A60869   9.473  34.582   6.931
 4712POPC   C4A60870   9.512  34.677   7.362
 4712POPC   C1B60871  10.129  34.657   6.135
 4712POPC   C2B60872   9.925  34.538   6.512
 4712POPC   C3B60873  10.032  34.607   6.919
 4712POPC   C4B60874   9.973  34.443   7.295
 4713POPC   NC360875  16.986  40.960   5.315
 4713POPC   PO460876  16.643  41.362   5.463
 4713POPC   GL160877  16.732  41.003   5.795
 4713POPC   GL260878  16.546  40.665   5.817
 4713POPC   C1A60879  16.816  40.853   6.251
 4713POPC   D2A60880  16.865  40.523   6.596
 4713POPC   C3A60881  16.767  40.668   7.040
 4713POPC   C4A60882  16.795  41.090   7.254
 4713POPC   C1B60883  16.393  40.578   6.258
 4713POPC   C2B60884  16.451  40.842   6.654
 4713POPC   C3B60885  16.331  40.953   7.098
 4713POPC   C4B60886  16.470  40.726   7.482
 4714POPC   NC360887  22.855  35.714   5.682
 4714POPC   PO460888  22.712  36.297   5.504
 4714POPC   GL160889  22.947  36.243   5.850
 4714POPC   GL260890  23.279  36.063   5.748
 4714POPC   C1A60891  22.826  36.128   6.282
 4714POPC   D2A60892  23.048  36.058   6.668
 4714POPC   C3A60893  22.774  36.040   7.024
 4714POPC   C4A60894  22.595  36.336   7.315
 4714POPC   C1B60895  23.320  36.196   6.197
 4714POPC   C2B60896  23.277  36.521   6.516
 4714POPC   C3B60897  23.222  36.542   6.960
 4714POPC   C4B60898  23.260  36.108   7.143
 4715POPC   NC360899  21.201  31.912   5.544
 4715POPC   PO460900  21.686  32.325   5.397
 4715POPC   GL160901  21.448  32.307   5.791
 4715POPC   GL260902  21.161  32.552   5.785
 4715POPC   C1A60903  21.490  32.323   6.247
 4715POPC   D2A60904  21.645  32.473   6.660
 4715POPC   C3A60905  21.426  32.375   7.048
 4715POPC   C4A60906  21.470  31.975   7.303
 4715POPC   C1B60907  20.999  32.465   6.222
 4715POPC   C2B60908  20.811  32.346   6.614
 4715POPC   C3B60909  20.864  32.491   7.029
 4715POPC   C4B60910  21.077  32.408   7.410
 4716POPC   NC360911  13.120  16.333   5.402
 4716POPC   PO460912  12.974  15.694   5.457
 4716POPC   GL160913  12.741  15.794   5.805
 4716POPC   GL260914  12.765  16.111   5.746
 4716POPC   C1A60915  12.773  15.744   6.243
 4716POPC   D2A60916  12.959  15.872   6.636
 4716POPC   C3A60917  12.838  15.691   7.008
 4716POPC   C4A60918  12.553  15.951   7.197
 4716POPC   C1B60919  12.961  16.222   6.104
 4716POPC   C2B60920  13.071  16.355   6.486
 4716POPC   C3B60921  12.901  16.324   6.893
 4716POPC   C4B60922  13.035  16.108   7.228
 4717POPC   NC360923  36.908  27.728   5.385
 4717POPC   PO460924  36.952  28.435   5.319
 4717POPC   GL160925  36.898  28.448   5.774
 4717POPC   GL260926  36.576  28.318   5.873
 4717POPC   C1A60927  36.951  28.382   6.232
 4717POPC   D2A60928  36.725  28.459   6.626
 4717POPC   C3A60929  36.952  28.498   7.009
 4717POPC   C4A60930  37.113  28.439   7.428
 4717POPC   C1B60931  36.525  28.072   6.234
 4717POPC   C2B60932  36.754  27.969   6.575
 4717POPC   C3B60933  36.621  28.065   6.957
 4717POPC   C4B60934  36.751  28.108   7.364
 4718POPC   NC360935  28.819  18.443   5.345
 4718POPC   PO460936  28.127  18.279   5.486
 4718POPC   GL160937  28.447  18.445   5.736
 4718POPC   GL260938  28.532  18.099   5.785
 4718POPC   C1A60939  28.453  18.437   6.185
 4718POPC   D2A60940  28.522  18.289   6.603
 4718POPC   C3A60941  28.275  18.372   6.969
 4718POPC   C4A60942  28.052  18.688   7.184
 4718POPC   C1B60943  28.496  17.917   6.184
 4718POPC   C2B60944  28.617  17.782   6.571
 4718POPC   C3B60945  28.648  17.957   6.971
 4718POPC   C4B60946  28.329  17.982   7.298
 4719POPC   NC360947  20.273  12.645   5.364
 4719POPC   PO460948  20.839  13.126   5.441
 4719POPC   GL160949  20.691  13.011   5.830
 4719POPC   GL260950  20.353  13.021   5.719
 4719POPC   C1A60951  20.749  12.979   6.286
 4719POPC   D2A60952  20.677  13.111   6.727
 4719POPC   C3A60953  20.843  12.822   7.037
 4719POPC   C4A60954  20.748  12.808   7.502
 4719POPC   C1B60955  20.320  13.245   6.114
 4719POPC   C2B60956  20.202  13.258   6.540
 4719POPC   C3B60957  20.107  13.076   6.902
 4719POPC   C4B60958  20.407  13.013   7.168
 4720POPC   NC360959  34.438  34.269   5.536
 4720POPC   PO460960  34.780  33.705   5.460
 4720POPC   GL160961  34.611  33.842   5.849
 4720POPC   GL260962  34.439  33.555   5.916
 4720POPC   C1A60963  34.718  33.696   6.303
 4720POPC   D2A60964  34.829  33.791   6.717
 4720POPC   C3A60965  34.548  33.721   7.029
 4720POPC   C4A60966  34.557  34.134   7.088
 4720POPC   C1B60967  34.240  33.891   6.207
 4720POPC   C2B60968  34.245  33.934   6.670
 4720POPC   C3B60969  34.073  33.896   7.096
 4720POPC   C4B60970  34.197  33.593   7.411
 4721POPC   NC360971   0.868  41.796   5.474
 4721POPC   PO460972   1.454  41.436   5.524
 4721POPC   GL160973   1.226  41.662   5.799
 4721POPC   GL260974   0.881  41.503   5.892
 4721POPC   C1A60975   1.147  41.823   6.195
 4721POPC   D2A60976   1.006  41.627   6.564
 4721POPC   C3A60977   1.386  41.657   6.812
 4721POPC   C4A60978   1.388  41.695   7.240
 4721POPC   C1B60979   1.207  41.295   6.164
 4721POPC   C2B60980   1.303  41.168   6.588
 4721POPC   C3B60981   1.079  41.272   6.946
 4721POPC   C4B60982   1.147  41.277   7.372
 4722POPC   NC360983  14.844  16.059   5.429
 4722POPC   PO460984  15.405  16.392   5.504
 4722POPC   GL160985  15.177  16.064   5.849
 4722POPC   GL260986  14.793  16.019   5.937
 4722POPC   C1A60987  15.268  15.888   6.306
 4722POPC   D2A60988  15.408  15.942   6.764
 4722POPC   C3A60989  15.143  15.970   7.159
 4722POPC   C4A60990  14.996  15.927   7.601
 4722POPC   C1B60991  14.814  15.678   6.246
 4722POPC   C2B60992  14.932  15.706   6.712
 4722POPC   C3B60993  14.711  15.704   7.133
 4722POPC   C4B60994  14.518  15.998   7.442
 4723POPC   NC360995  10.320   1.919   5.407
 4723POPC   PO460996  10.973   2.083   5.538
 4723POPC   GL160997  10.659   2.047   5.889
 4723POPC   GL260998  10.267   2.096   5.871
 4723POPC   C1A60999  10.516   2.113   6.319
 4723POPC   D2A61000  10.689   1.853   6.635
 4723POPC   C3A61001  10.597   2.078   6.990
 4723POPC   C4A61002  10.725   1.770   7.273
 4723POPC   C1B61003  10.126   1.810   6.203
 4723POPC   C2B61004  10.187   1.874   6.655
 4723POPC   C3B61005  10.216   1.760   7.104
 4723POPC   C4B61006  10.341   2.068   7.458
 4724POPC   NC361007  18.809  44.384   5.461
 4724POPC   PO461008  19.329  44.783   5.241
 4724POPC   GL161009  19.266  44.644   5.676
 4724POPC   GL261010  19.431  44.923   5.823
 4724POPC   C1A61011  18.964  44.618   6.056
 4724POPC   D2A61012  18.791  44.610   6.491
 4724POPC   C3A61013  19.056  44.503   6.856
 4724POPC   C4A61014  18.995  44.596   7.285
 4724POPC   C1B61015  19.426  44.745   6.222
 4724POPC   C2B61016  19.250  44.900   6.607
 4724POPC   C3B61017  19.346  44.894   7.062
 4724POPC   C4B61018  19.258  44.924   7.551
 4725POPC   NC361019  18.167  44.397   5.222
 4725POPC   PO461020  18.648  44.860   5.325
 4725POPC   GL161021  18.503  44.728   5.739
 4725POPC   GL261022  18.354  44.382   5.711
 4725POPC   C1A61023  18.523  44.911   6.153
 4725POPC   D2A61024  18.299  44.956   6.549
 4725POPC   C3A61025  18.322  44.638   6.856
 4725POPC   C4A61026  18.507  44.680   7.276
 4725POPC   C1B61027  18.201  44.229   6.088
 4725POPC   C2B61028  18.103  44.312   6.499
 4725POPC   C3B61029  17.919  44.287   6.879
 4725POPC   C4B61030  18.187  44.269   7.230
 4726POPC   NC361031  21.825  24.003   5.539
 4726POPC   PO461032  21.131  23.823   5.443
 4726POPC   GL161033  21.414  23.583   5.730
 4726POPC   GL261034  21.233  23.248   5.671
 4726POPC   C1A61035  21.572  23.701   6.179
 4726POPC   D2A61036  21.360  23.845   6.596
 4726POPC   C3A61037  21.487  23.961   7.014
 4726POPC   C4A61038  21.245  23.932   7.384
 4726POPC   C1B61039  21.347  23.212   6.101
 4726POPC   C2B61040  21.432  23.334   6.509
 4726POPC   C3B61041  21.436  23.442   6.934
 4726POPC   C4B61042  21.089  23.414   7.195
 4727POPC   NC361043  31.690  26.343   5.621
 4727POPC   PO461044  31.346  25.962   5.212
 4727POPC   GL161045  31.394  25.932   5.730
 4727POPC   GL261046  31.237  25.658   5.803
 4727POPC   C1A61047  31.608  25.813   6.227
 4727POPC   D2A61048  31.824  25.874   6.680
 4727POPC   C3A61049  31.722  26.259   6.971
 4727POPC   C4A61050  31.588  26.285   7.440
 4727POPC   C1B61051  31.130  25.932   6.207
 4727POPC   C2B61052  31.343  26.045   6.638
 4727POPC   C3B61053  31.239  26.119   7.088
 4727POPC   C4B61054  30.910  25.902   7.271
 4728POPC   NC361055  41.155  33.515   5.382
 4728POPC   PO461056  41.797  33.731   5.595
 4728POPC   GL161057  41.638  33.631   5.917
 4728POPC   GL261058  41.303  33.677   5.837
 4728POPC   C1A61059  41.569  33.755   6.318
 4728POPC   D2A61060  41.550  33.869   6.752
 4728POPC   C3A61061  41.799  33.625   7.039
 4728POPC   C4A61062  41.813  33.714   7.477
 4728POPC   C1B61063  41.065  33.551   6.172
 4728POPC   C2B61064  41.048  33.737   6.561
 4728POPC   C3B61065  41.061  33.882   6.953
 4728POPC   C4B61066  41.321  33.688   7.205
 4729POPC   NC361067  24.069   4.557   5.443
 4729POPC   PO461068  23.714   4.017   5.297
 4729POPC   GL161069  23.648   4.151   5.747
 4729POPC   GL261070  23.792   4.452   5.855
 4729POPC   C1A61071  23.701   4.063   6.216
 4729POPC   D2A61072  23.428   3.972   6.589
 4729POPC   C3A61073  23.630   4.106   6.974
 4729POPC   C4A61074  23.747   4.226   7.400
 4729POPC   C1B61075  23.715   4.603   6.242
 4729POPC   C2B61076  23.588   4.495   6.636
 4729POPC   C3B61077  23.686   4.660   7.036
 4729POPC   C4B61078  23.604   4.736   7.444
 4730POPC   NC361079   6.178  11.533   5.457
 4730POPC   PO461080   5.605  11.088   5.438
 4730POPC   GL161081   5.773  11.301   5.760
 4730POPC   GL261082   6.094  11.187   5.849
 4730POPC   C1A61083   5.722  11.239   6.192
 4730POPC   D2A61084   5.955  11.346   6.528
 4730POPC   C3A61085   5.722  11.323   6.880
 4730POPC   C4A61086   5.822  11.511   7.269
 4730POPC   C1B61087   6.159  10.957   6.232
 4730POPC   C2B61088   5.966  10.855   6.657
 4730POPC   C3B61089   6.032  11.000   7.107
 4730POPC   C4B61090   6.014  11.010   7.558
 4731POPC   NC361091  20.163  16.083   5.400
 4731POPC   PO461092  20.769  16.109   5.623
 4731POPC   GL161093  20.717  15.787   5.878
 4731POPC   GL261094  20.352  15.902   5.878
 4731POPC   C1A61095  20.889  15.773   6.315
 4731POPC   D2A61096  21.091  15.954   6.700
 4731POPC   C3A61097  20.841  16.115   7.063
 4731POPC   C4A61098  20.604  16.183   7.439
 4731POPC   C1B61099  20.396  15.630   6.274
 4731POPC   C2B61100  20.600  15.625   6.714
 4731POPC   C3B61101  20.479  15.723   7.157
 4731POPC   C4B61102  20.375  15.717   7.620
 4732POPC   NC361103  20.543  13.575   5.394
 4732POPC   PO461104  20.495  14.169   5.679
 4732POPC   GL161105  20.540  13.808   5.862
 4732POPC   GL261106  20.882  13.779   5.744
 4732POPC   C1A61107  20.439  13.712   6.293
 4732POPC   D2A61108  20.341  13.803   6.706
 4732POPC   C3A61109  20.455  13.498   6.997
 4732POPC   C4A61110  20.654  13.745   7.309
 4732POPC   C1B61111  20.827  13.460   6.082
 4732POPC   C2B61112  20.879  13.533   6.518
 4732POPC   C3B61113  20.983  13.540   6.953
 4732POPC   C4B61114  21.023  13.220   7.256
 4733POPC   NC361115  40.842   2.293   5.468
 4733POPC   PO461116  40.725   1.595   5.336
 4733POPC   GL161117  40.934   1.803   5.648
 4733POPC   GL261118  40.638   1.917   5.746
 4733POPC   C1A61119  41.149   1.988   6.002
 4733POPC   D2A61120  41.097   1.886   6.443
 4733POPC   C3A61121  41.063   2.154   6.798
 4733POPC   C4A61122  40.889   1.982   7.204
 4733POPC   C1B61123  40.669   1.907   6.150
 4733POPC   C2B61124  40.651   2.199   6.455
 4733POPC   C3B61125  40.552   2.141   6.860
 4733POPC   C4B61126  40.600   2.409   7.201
 4734POPC   NC361127   1.604  40.986   5.419
 4734POPC   PO461128   1.148  40.482   5.401
 4734POPC   GL161129   1.232  40.783   5.758
 4734POPC   GL261130   0.945  41.014   5.715
 4734POPC   C1A61131   1.366  40.800   6.220
 4734POPC   D2A61132   1.211  40.632   6.632
 4734POPC   C3A61133   1.332  40.841   7.031
 4734POPC   C4A61134   1.577  41.222   7.061
 4734POPC   C1B61135   0.857  40.911   6.150
 4734POPC   C2B61136   0.813  41.038   6.568
 4734POPC   C3B61137   0.834  40.828   6.964
 4734POPC   C4B61138   0.999  40.438   7.064
 4735POPC   NC361139  15.426  34.129   5.778
 4735POPC   PO461140  15.844  33.755   5.413
 4735POPC   GL161141  15.990  33.812   5.846
 4735POPC   GL261142  16.245  34.095   5.768
 4735POPC   C1A61143  16.097  33.739   6.302
 4735POPC   D2A61144  15.934  33.407   6.563
 4735POPC   C3A61145  15.837  33.496   6.974
 4735POPC   C4A61146  16.083  33.708   7.274
 4735POPC   C1B61147  16.023  34.213   6.130
 4735POPC   C2B61148  15.999  34.215   6.538
 4735POPC   C3B61149  15.981  34.044   6.924
 4735POPC   C4B61150  15.958  34.216   7.350
 4736POPC   NC361151  18.360  11.283   5.342
 4736POPC   PO461152  17.791  11.144   5.110
 4736POPC   GL161153  17.955  11.093   5.593
 4736POPC   GL261154  18.126  11.364   5.784
 4736POPC   C1A61155  17.937  10.997   6.085
 4736POPC   D2A61156  18.133  11.138   6.488
 4736POPC   C3A61157  18.327  11.132   6.916
 4736POPC   C4A61158  18.147  11.201   7.342
 4736POPC   C1B61159  18.452  11.249   6.087
 4736POPC   C2B61160  18.583  11.379   6.509
 4736POPC   C3B61161  18.763  11.449   6.919
 4736POPC   C4B61162  18.604  11.406   7.322
 4737POPC   NC361163  12.447   9.734   5.537
 4737POPC   PO461164  13.069   9.512   5.336
 4737POPC   GL161165  12.944   9.771   5.723
 4737POPC   GL261166  12.654   9.686   6.003
 4737POPC   C1A61167  13.110   9.830   6.143
 4737POPC   D2A61168  13.306   9.750   6.503
 4737POPC   C3A61169  13.027   9.763   6.837
 4737POPC   C4A61170  12.883   9.973   7.200
 4737POPC   C1B61171  12.665  10.013   6.361
 4737POPC   C2B61172  12.630  10.090   6.766
 4737POPC   C3B61173  12.472   9.736   6.994
 4737POPC   C4B61174  12.367   9.578   7.372
 4738POPC   NC361175  33.962  43.147   5.203
 4738POPC   PO461176  34.197  43.345   5.742
 4738POPC   GL161177  33.786  43.314   5.957
 4738POPC   GL261178  33.758  43.042   5.819
 4738POPC   C1A61179  33.599  43.329   6.362
 4738POPC   D2A61180  33.763  43.103   6.728
 4738POPC   C3A61181  33.688  43.348   7.099
 4738POPC   C4A61182  33.390  43.521   7.397
 4738POPC   C1B61183  33.724  42.843   6.222
 4738POPC   C2B61184  33.560  42.594   6.537
 4738POPC   C3B61185  33.509  42.703   6.951
 4738POPC   C4B61186  33.827  42.868   7.204
 4739POPC   NC361187  11.563  28.821   5.657
 4739POPC   PO461188  11.030  29.124   5.418
 4739POPC   GL161189  11.142  29.145   5.838
 4739POPC   GL261190  10.921  29.401   5.942
 4739POPC   C1A61191  11.303  29.089   6.250
 4739POPC   D2A61192  11.492  28.797   6.566
 4739POPC   C3A61193  11.353  28.940   6.965
 4739POPC   C4A61194  11.428  29.318   7.180
 4739POPC   C1B61195  10.901  29.428   6.407
 4739POPC   C2B61196  11.041  29.363   6.833
 4739POPC   C3B61197  10.934  29.431   7.262
 4739POPC   C4B61198  10.865  29.234   7.671
 4740POPC   NC361199  32.375   7.966   5.379
 4740POPC   PO461200  31.766   7.854   5.581
 4740POPC   GL161201  32.090   8.102   5.832
 4740POPC   GL261202  32.484   8.190   5.844
 4740POPC   C1A61203  32.171   8.251   6.244
 4740POPC   D2A61204  32.515   8.187   6.505
 4740POPC   C3A61205  32.343   8.122   6.853
 4740POPC   C4A61206  32.017   8.368   7.039
 4740POPC   C1B61207  32.627   8.542   6.162
 4740POPC   C2B61208  32.804   8.606   6.606
 4740POPC   C3B61209  32.625   8.537   7.013
 4740POPC   C4B61210  32.658   8.160   7.233
 4741POPC   NC361211  26.627  16.453   5.639
 4741POPC   PO461212  26.927  16.856   5.199
 4741POPC   GL161213  26.923  16.978   5.662
 4741POPC   GL261214  26.567  16.966   5.762
 4741POPC   C1A61215  27.047  16.761   6.080
 4741POPC   D2A61216  27.283  16.771   6.493
 4741POPC   C3A61217  27.111  16.468   6.807
 4741POPC   C4A61218  26.884  16.466   7.185
 4741POPC   C1B61219  26.560  16.808   6.223
 4741POPC   C2B61220  26.796  16.964   6.557
 4741POPC   C3B61221  26.799  16.966   6.976
 4741POPC   C4B61222  26.474  16.781   7.175
 4742POPC   NC361223  37.477  29.391   5.445
 4742POPC   PO461224  37.871  28.841   5.395
 4742POPC   GL161225  37.908  29.108   5.767
 4742POPC   GL261226  37.937  29.486   5.721
 4742POPC   C1A61227  37.761  29.024   6.202
 4742POPC   D2A61228  37.969  29.033   6.603
 4742POPC   C3A61229  37.868  29.253   6.986
 4742POPC   C4A61230  37.673  29.022   7.292
 4742POPC   C1B61231  37.634  29.511   6.087
 4742POPC   C2B61232  37.507  29.362   6.496
 4742POPC   C3B61233  37.452  29.064   6.810
 4742POPC   C4B61234  37.308  29.374   7.138
 4743POPC   NC361235  36.543  38.495   5.636
 4743POPC   PO461236  36.159  38.843   5.254
 4743POPC   GL161237  35.996  38.779   5.713
 4743POPC   GL261238  36.060  38.451   5.845
 4743POPC   C1A61239  35.947  38.776   6.195
 4743POPC   D2A61240  35.871  38.648   6.613
 4743POPC   C3A61241  36.165  38.679   6.970
 4743POPC   C4A61242  36.018  38.610   7.394
 4743POPC   C1B61243  36.285  38.333   6.234
 4743POPC   C2B61244  36.185  38.217   6.678
 4743POPC   C3B61245  36.425  38.226   7.061
 4743POPC   C4B61246  36.479  38.057   7.457
 4744POPC   NC361247  12.152  11.812   5.237
 4744POPC   PO461248  11.970  12.516   5.333
 4744POPC   GL161249  11.992  12.325   5.781
 4744POPC   GL261250  12.156  12.007   5.750
 4744POPC   C1A61251  11.848  12.075   6.152
 4744POPC   D2A61252  12.061  12.160   6.529
 4744POPC   C3A61253  11.887  12.021   6.901
 4744POPC   C4A61254  12.197  12.136   7.200
 4744POPC   C1B61255  12.294  11.828   6.170
 4744POPC   C2B61256  12.061  11.645   6.503
 4744POPC   C3B61257  12.290  11.681   6.857
 4744POPC   C4B61258  12.251  11.627   7.247
 4745POPC   NC361259  10.406   0.400   5.467
 4745POPC   PO461260  10.755   0.962   5.435
 4745POPC   GL161261  10.648   0.719   5.807
 4745POPC   GL261262  10.770   0.355   5.818
 4745POPC   C1A61263  10.582   0.654   6.242
 4745POPC   D2A61264  10.784   0.758   6.611
 4745POPC   C3A61265  10.481   0.702   6.907
 4745POPC   C4A61266  10.345   0.349   7.152
 4745POPC   C1B61267  11.015   0.412   6.198
 4745POPC   C2B61268  10.935   0.253   6.605
 4745POPC   C3B61269  10.841   0.298   7.043
 4745POPC   C4B61270  10.724   0.640   7.338
 4746POPC   NC361271   0.887  27.124   5.689
 4746POPC   PO461272   1.181  27.636   5.306
 4746POPC   GL161273   1.250  27.777   5.784
 4746POPC   GL261274   0.970  27.605   5.917
 4746POPC   C1A61275   1.319  27.672   6.284
 4746POPC   D2A61276   1.356  27.384   6.689
 4746POPC   C3A61277   1.561  27.583   7.082
 4746POPC   C4A61278   1.650  28.044   7.128
 4746POPC   C1B61279   0.811  27.683   6.323
 4746POPC   C2B61280   1.006  27.873   6.701
 4746POPC   C3B61281   1.052  27.582   7.052
 4746POPC   C4B61282   0.966  27.185   7.255
 4747POPC   NC361283   8.661  32.383   5.393
 4747POPC   PO461284   9.172  32.742   5.372
 4747POPC   GL161285   9.080  32.408   5.738
 4747POPC   GL261286   8.804  32.112   5.794
 4747POPC   C1A61287   9.003  32.386   6.204
 4747POPC   D2A61288   9.237  32.267   6.592
 4747POPC   C3A61289   9.093  32.476   6.943
 4747POPC   C4A61290   9.019  32.282   7.283
 4747POPC   C1B61291   8.497  32.003   6.138
 4747POPC   C2B61292   8.732  32.060   6.525
 4747POPC   C3B61293   8.920  31.976   6.896
 4747POPC   C4B61294   8.610  31.992   7.216
 4748POPC   NC361295  40.937   9.778   5.045
 4748POPC   PO461296  40.854   9.968   5.619
 4748POPC   GL161297  40.615   9.803   5.883
 4748POPC   GL261298  40.577   9.472   5.770
 4748POPC   C1A61299  40.616   9.998   6.270
 4748POPC   D2A61300  40.590  10.160   6.642
 4748POPC   C3A61301  40.874   9.966   6.883
 4748POPC   C4A61302  40.945   9.826   7.253
 4748POPC   C1B61303  40.670   9.476   6.259
 4748POPC   C2B61304  40.481   9.646   6.643
 4748POPC   C3B61305  40.476   9.675   7.076
 4748POPC   C4B61306  40.657   9.446   7.409
 4749POPC   NC361307   0.828   3.689   5.397
 4749POPC   PO461308   1.438   3.372   5.554
 4749POPC   GL161309   1.261   3.537   5.897
 4749POPC   GL261310   0.899   3.633   5.908
 4749POPC   C1A61311   1.348   3.508   6.317
 4749POPC   D2A61312   1.286   3.782   6.657
 4749POPC   C3A61313   1.228   3.659   7.073
 4749POPC   C4A61314   1.184   3.216   7.254
 4749POPC   C1B61315   0.856   3.687   6.362
 4749POPC   C2B61316   0.842   4.019   6.699
 4749POPC   C3B61317   0.807   3.947   7.156
 4749POPC   C4B61318   1.021   3.735   7.532
 4750POPC   NC361319  40.086  42.795   5.405
 4750POPC   PO461320  40.131  42.189   5.358
 4750POPC   GL161321  39.982  42.369   5.735
 4750POPC   GL261322  40.310  42.315   5.836
 4750POPC   C1A61323  39.999  42.578   6.164
 4750POPC   D2A61324  40.058  42.451   6.606
 4750POPC   C3A61325  39.674  42.438   6.851
 4750POPC   C4A61326  39.727  42.419   7.285
 4750POPC   C1B61327  40.248  42.122   6.242
 4750POPC   C2B61328  40.430  42.057   6.674
 4750POPC   C3B61329  40.441  41.916   7.127
 4750POPC   C4B61330  40.144  41.972   7.525
 4751POPC   NC361331  29.276   6.281   5.407
 4751POPC   PO461332  28.647   5.978   5.427
 4751POPC   GL161333  28.920   6.049   5.819
 4751POPC   GL261334  29.116   5.754   5.925
 4751POPC   C1A61335  28.943   6.029   6.308
 4751POPC   D2A61336  29.161   5.694   6.554
 4751POPC   C3A61337  28.994   5.619   6.942
 4751POPC   C4A61338  28.845   5.961   7.166
 4751POPC   C1B61339  29.424   5.941   6.195
 4751POPC   C2B61340  29.566   6.011   6.586
 4751POPC   C3B61341  29.373   6.054   7.007
 4751POPC   C4B61342  29.581   6.162   7.405
 4752POPC   NC361343  20.905  33.375   5.380
 4752POPC   PO461344  20.351  33.029   5.448
 4752POPC   GL161345  20.466  32.949   5.870
 4752POPC   GL261346  20.853  32.978   5.890
 4752POPC   C1A61347  20.292  33.075   6.269
 4752POPC   D2A61348  20.440  33.294   6.634
 4752POPC   C3A61349  20.811  33.129   6.840
 4752POPC   C4A61350  20.856  33.320   7.216
 4752POPC   C1B61351  20.791  32.925   6.347
 4752POPC   C2B61352  20.495  32.760   6.660
 4752POPC   C3B61353  20.474  32.835   7.103
 4752POPC   C4B61354  20.824  32.853   7.410
 4753POPC   NC361355  21.434  15.044   5.322
 4753POPC   PO461356  21.002  15.475   5.437
 4753POPC   GL161357  21.283  15.351   5.783
 4753POPC   GL261358  21.646  15.421   5.665
 4753POPC   C1A61359  21.233  15.087   6.188
 4753POPC   D2A61360  21.304  14.875   6.594
 4753POPC   C3A61361  21.148  14.927   6.985
 4753POPC   C4A61362  21.196  15.238   7.295
 4753POPC   C1B61363  21.714  15.249   6.068
 4753POPC   C2B61364  21.662  15.221   6.511
 4753POPC   C3B61365  21.626  15.192   6.954
 4753POPC   C4B61366  21.562  15.598   7.119
 4754POPC   NC361367   8.667  17.011   5.659
 4754POPC   PO461368   8.110  16.836   5.382
 4754POPC   GL161369   7.946  16.683   5.770
 4754POPC   GL261370   8.250  16.483   5.812
 4754POPC   C1A61371   8.006  16.665   6.224
 4754POPC   D2A61372   8.366  16.713   6.511
 4754POPC   C3A61373   8.215  16.810   6.910
 4754POPC   C4A61374   7.880  16.745   7.194
 4754POPC   C1B61375   8.381  16.276   6.184
 4754POPC   C2B61376   8.269  16.210   6.616
 4754POPC   C3B61377   8.518  16.327   6.955
 4754POPC   C4B61378   8.412  16.574   7.306
 4755POPC   NC361379  22.382  19.478   5.426
 4755POPC   PO461380  22.074  18.866   5.267
 4755POPC   GL161381  21.983  19.021   5.724
 4755POPC   GL261382  22.311  19.107   5.813
 4755POPC   C1A61383  21.886  19.074   6.210
 4755POPC   D2A61384  21.779  18.908   6.664
 4755POPC   C3A61385  21.917  19.124   7.092
 4755POPC   C4A61386  21.706  19.156   7.517
 4755POPC   C1B61387  22.359  19.250   6.228
 4755POPC   C2B61388  22.166  19.245   6.647
 4755POPC   C3B61389  22.233  19.498   7.013
 4755POPC   C4B61390  22.574  19.628   7.234
 4756POPC   NC361391  36.405  10.154   5.462
 4756POPC   PO461392  36.968   9.779   5.402
 4756POPC   GL161393  36.900   9.613   5.825
 4756POPC   GL261394  36.550   9.609   5.810
 4756POPC   C1A61395  37.019   9.428   6.254
 4756POPC   D2A61396  36.955   9.394   6.724
 4756POPC   C3A61397  37.233   9.620   7.025
 4756POPC   C4A61398  37.175   9.825   7.447
 4756POPC   C1B61399  36.636   9.969   6.130
 4756POPC   C2B61400  36.736  10.115   6.572
 4756POPC   C3B61401  36.939  10.056   6.991
 4756POPC   C4B61402  36.730  10.076   7.404
 4757POPC   NC361403  32.657  33.380   5.434
 4757POPC   PO461404  31.993  33.021   5.480
 4757POPC   GL161405  32.242  33.039   5.864
 4757POPC   GL261406  32.450  33.319   5.879
 4757POPC   C1A61407  32.105  32.910   6.262
 4757POPC   D2A61408  31.895  33.058   6.655
 4757POPC   C3A61409  32.029  32.821   7.048
 4757POPC   C4A61410  32.005  32.956   7.468
 4757POPC   C1B61411  32.619  33.212   6.245
 4757POPC   C2B61412  32.463  33.048   6.606
 4757POPC   C3B61413  32.317  33.218   6.954
 4757POPC   C4B61414  32.480  33.035   7.285
 4758POPC   NC361415  13.433  28.638   5.358
 4758POPC   PO461416  14.099  28.362   5.385
 4758POPC   GL161417  13.759  28.418   5.759
 4758POPC   GL261418  13.392  28.517   5.860
 4758POPC   C1A61419  13.750  28.585   6.208
 4758POPC   D2A61420  13.697  28.333   6.582
 4758POPC   C3A61421  13.466  28.440   6.939
 4758POPC   C4A61422  13.774  28.403   7.196
 4758POPC   C1B61423  13.505  28.131   6.134
 4758POPC   C2B61424  13.321  27.984   6.553
 4758POPC   C3B61425  13.108  28.064   6.940
 4758POPC   C4B61426  13.315  28.063   7.348
 4759POPC   NC361427   1.396  21.363   5.460
 4759POPC   PO461428   0.716  21.353   5.481
 4759POPC   GL161429   0.892  21.383   5.898
 4759POPC   GL261430   0.832  21.082   6.088
 4759POPC   C1A61431   0.921  21.498   6.356
 4759POPC   D2A61432   1.116  21.276   6.724
 4759POPC   C3A61433   1.172  21.563   7.078
 4759POPC   C4A61434   0.793  21.736   7.197
 4759POPC   C1B61435   1.284  21.099   6.224
 4759POPC   C2B61436   1.581  21.063   6.587
 4759POPC   C3B61437   1.524  21.166   7.043
 4759POPC   C4B61438   1.733  21.486   7.285
 4760POPC   NC361439  12.749  20.678   5.286
 4760POPC   PO461440  13.287  21.027   5.409
 4760POPC   GL161441  13.138  20.668   5.724
 4760POPC   GL261442  12.821  20.417   5.774
 4760POPC   C1A61443  12.996  20.755   6.171
 4760POPC   D2A61444  13.011  21.074   6.535
 4760POPC   C3A61445  12.869  20.883   6.948
 4760POPC   C4A61446  13.078  20.564   7.213
 4760POPC   C1B61447  12.635  20.361   6.243
 4760POPC   C2B61448  12.671  20.340   6.759
 4760POPC   C3B61449  12.610  20.302   7.246
 4760POPC   C4B61450  12.588  20.483   7.710
 4761POPC   NC361451   0.723  40.664   5.340
 4761POPC   PO461452   0.272  40.952   5.113
 4761POPC   GL161453   0.274  40.741   5.600
 4761POPC   GL261454   0.583  40.621   5.801
 4761POPC   C1A61455   0.208  40.785   6.078
 4761POPC   D2A61456   0.327  40.875   6.480
 4761POPC   C3A61457   0.030  40.889   6.809
 4761POPC   C4A61458   0.116  40.979   7.229
 4761POPC   C1B61459   0.611  40.467   6.181
 4761POPC   C2B61460   0.690  40.530   6.578
 4761POPC   C3B61461   0.418  40.554   6.912
 4761POPC   C4B61462   0.547  40.555   7.325
 4762POPC   NC361463  20.808  22.584   5.319
 4762POPC   PO461464  20.436  23.181   5.347
 4762POPC   GL161465  20.738  23.119   5.704
 4762POPC   GL261466  20.897  22.781   5.797
 4762POPC   C1A61467  20.835  23.178   6.141
 4762POPC   D2A61468  21.021  23.038   6.524
 4762POPC   C3A61469  20.790  23.099   6.878
 4762POPC   C4A61470  20.664  23.150   7.269
 4762POPC   C1B61471  20.493  22.807   6.040
 4762POPC   C2B61472  20.447  22.863   6.483
 4762POPC   C3B61473  20.463  22.718   6.898
 4762POPC   C4B61474  20.355  22.732   7.326
 4763POPC   NC361475  26.208  36.939   5.428
 4763POPC   PO461476  25.673  37.364   5.406
 4763POPC   GL161477  25.856  37.117   5.768
 4763POPC   GL261478  25.844  36.746   5.775
 4763POPC   C1A61479  26.226  37.109   6.074
 4763POPC   D2A61480  26.401  36.953   6.477
 4763POPC   C3A61481  26.085  37.035   6.783
 4763POPC   C4A61482  25.927  37.126   7.177
 4763POPC   C1B61483  26.015  36.646   6.186
 4763POPC   C2B61484  26.071  36.556   6.600
 4763POPC   C3B61485  25.855  36.606   6.998
 4763POPC   C4B61486  25.676  36.695   7.405
 4764POPC   NC361487  32.299  25.083   5.231
 4764POPC   PO461488  32.109  25.678   5.110
 4764POPC   GL161489  32.113  25.454   5.575
 4764POPC   GL261490  31.788  25.450   5.802
 4764POPC   C1A61491  32.227  25.326   6.054
 4764POPC   D2A61492  32.142  25.349   6.556
 4764POPC   C3A61493  32.355  25.160   6.929
 4764POPC   C4A61494  32.740  25.233   7.162
 4764POPC   C1B61495  31.729  25.311   6.245
 4764POPC   C2B61496  31.644  25.381   6.702
 4764POPC   C3B61497  31.844  25.351   7.114
 4764POPC   C4B61498  32.089  25.522   7.482
 4765POPC   NC361499   2.870  26.447   5.127
 4765POPC   PO461500   2.917  25.852   5.402
 4765POPC   GL161501   2.741  26.229   5.625
 4765POPC   GL261502   2.665  25.965   5.833
 4765POPC   C1A61503   2.580  26.415   6.059
 4765POPC   D2A61504   2.652  26.261   6.512
 4765POPC   C3A61505   2.838  26.386   6.929
 4765POPC   C4A61506   2.803  26.245   7.358
 4765POPC   C1B61507   2.867  25.724   6.147
 4765POPC   C2B61508   2.997  25.886   6.557
 4765POPC   C3B61509   2.917  25.859   6.992
 4765POPC   C4B61510   3.162  25.878   7.361
 4766POPC   NC361511  32.716   8.568   5.514
 4766POPC   PO461512  33.222   8.180   5.357
 4766POPC   GL161513  33.178   8.385   5.762
 4766POPC   GL261514  33.202   8.052   5.897
 4766POPC   C1A61515  33.143   8.425   6.251
 4766POPC   D2A61516  33.072   8.139   6.637
 4766POPC   C3A61517  33.091   8.333   7.070
 4766POPC   C4A61518  33.238   8.273   7.499
 4766POPC   C1B61519  32.847   7.986   6.175
 4766POPC   C2B61520  32.692   7.730   6.539
 4766POPC   C3B61521  32.780   7.755   6.953
 4766POPC   C4B61522  33.102   7.857   7.249
 4767POPC   NC361523  20.149  17.016   5.347
 4767POPC   PO461524  20.546  17.603   5.303
 4767POPC   GL161525  20.722  17.490   5.698
 4767POPC   GL261526  20.766  17.804   5.848
 4767POPC   C1A61527  20.774  17.383   6.150
 4767POPC   D2A61528  20.633  17.500   6.569
 4767POPC   C3A61529  20.719  17.302   6.952
 4767POPC   C4A61530  20.667  17.411   7.396
 4767POPC   C1B61531  20.798  17.897   6.284
 4767POPC   C2B61532  20.671  17.996   6.710
 4767POPC   C3B61533  20.767  17.808   7.083
 4767POPC   C4B61534  21.023  17.947   7.414
 4768POPC   NC361535  15.467  32.350   5.411
 4768POPC   PO461536  15.076  31.879   5.211
 4768POPC   GL161537  15.092  31.957   5.703
 4768POPC   GL261538  15.431  32.055   5.823
 4768POPC   C1A61539  15.024  32.130   6.167
 4768POPC   D2A61540  14.855  32.140   6.628
 4768POPC   C3A61541  15.183  32.200   6.971
 4768POPC   C4A61542  15.161  32.217   7.439
 4768POPC   C1B61543  15.500  32.367   6.154
 4768POPC   C2B61544  15.331  32.478   6.549
 4768POPC   C3B61545  15.515  32.619   6.914
 4768POPC   C4B61546  15.540  32.537   7.289
 4769POPC   NC361547  12.307  30.696   5.304
 4769POPC   PO461548  11.871  31.172   5.361
 4769POPC   GL161549  12.007  30.902   5.739
 4769POPC   GL261550  11.772  30.684   5.952
 4769POPC   C1A61551  12.242  30.796   6.144
 4769POPC   D2A61552  12.010  30.729   6.556
 4769POPC   C3A61553  12.232  30.829   6.969
 4769POPC   C4A61554  12.236  31.067   7.355
 4769POPC   C1B61555  12.004  30.347   6.159
 4769POPC   C2B61556  12.155  30.187   6.511
 4769POPC   C3B61557  12.036  30.321   6.894
 4769POPC   C4B61558  12.206  30.406   7.274
 4770POPC   NC361559  28.972  38.683   5.470
 4770POPC   PO461560  29.541  38.320   5.496
 4770POPC   GL161561  29.491  38.388   5.899
 4770POPC   GL261562  29.397  38.727   5.970
 4770POPC   C1A61563  29.239  38.273   6.228
 4770POPC   D2A61564  29.248  38.497   6.629
 4770POPC   C3A61565  29.041  38.397   6.980
 4770POPC   C4A61566  29.342  38.359   7.294
 4770POPC   C1B61567  29.054  38.755   6.238
 4770POPC   C2B61568  28.789  38.730   6.600
 4770POPC   C3B61569  28.818  38.875   7.034
 4770POPC   C4B61570  28.951  38.709   7.445
 4771POPC   NC361571  13.777  26.919   5.098
 4771POPC   PO461572  13.280  26.693   5.470
 4771POPC   GL161573  13.498  26.747   5.825
 4771POPC   GL261574  13.448  27.033   5.871
 4771POPC   C1A61575  13.606  26.576   6.221
 4771POPC   D2A61576  13.737  26.347   6.596
 4771POPC   C3A61577  13.894  26.533   6.985
 4771POPC   C4A61578  13.848  26.718   7.397
 4771POPC   C1B61579  13.580  27.094   6.275
 4771POPC   C2B61580  13.561  26.847   6.660
 4771POPC   C3B61581  13.480  26.871   7.086
 4771POPC   C4B61582  13.495  27.130   7.456
 4772POPC   NC361583   3.747  32.041   5.354
 4772POPC   PO461584   3.332  32.529   5.520
 4772POPC   GL161585   3.625  32.303   5.797
 4772POPC   GL261586   3.610  31.937   5.843
 4772POPC   C1A61587   3.758  32.264   6.227
 4772POPC   D2A61588   3.544  32.179   6.612
 4772POPC   C3A61589   3.694  32.385   6.954
 4772POPC   C4A61590   3.612  32.513   7.341
 4772POPC   C1B61591   3.648  31.752   6.274
 4772POPC   C2B61592   3.676  31.694   6.723
 4772POPC   C3B61593   3.796  31.911   7.047
 4772POPC   C4B61594   3.580  31.999   7.401
 4773POPC   NC361595  26.699  27.508   5.599
 4773POPC   PO461596  26.438  28.142   5.383
 4773POPC   GL161597  26.652  27.984   5.776
 4773POPC   GL261598  27.002  27.848   5.879
 4773POPC   C1A61599  26.576  27.781   6.182
 4773POPC   D2A61600  26.777  27.756   6.573
 4773POPC   C3A61601  26.598  27.568   6.925
 4773POPC   C4A61602  26.719  27.570   7.313
 4773POPC   C1B61603  27.062  27.511   6.231
 4773POPC   C2B61604  26.988  27.293   6.648
 4773POPC   C3B61605  27.114  27.346   7.076
 4773POPC   C4B61606  27.123  27.310   7.524
 4774POPC   NC361607  18.953  12.565   5.718
 4774POPC   PO461608  18.935  13.020   5.201
 4774POPC   GL161609  18.959  13.092   5.630
 4774POPC   GL261610  19.295  13.031   5.783
 4774POPC   C1A61611  18.875  13.129   6.079
 4774POPC   D2A61612  18.832  12.915   6.480
 4774POPC   C3A61613  19.209  13.011   6.755
 4774POPC   C4A61614  19.269  12.894   7.196
 4774POPC   C1B61615  19.306  12.911   6.248
 4774POPC   C2B61616  19.382  12.555   6.567
 4774POPC   C3B61617  19.294  12.397   7.006
 4774POPC   C4B61618  19.343  12.469   7.473
 4775POPC   NC361619  31.446  43.948   5.343
 4775POPC   PO461620  31.229  44.308   5.786
 4775POPC   GL161621  31.584  44.155   6.070
 4775POPC   GL261622  31.874  44.079   5.854
 4775POPC   C1A61623  31.579  43.930   6.489
 4775POPC   D2A61624  31.184  43.907   6.724
 4775POPC   C3A61625  31.227  43.640   7.059
 4775POPC   C4A61626  31.063  43.507   7.432
 4775POPC   C1B61627  31.804  43.666   6.094
 4775POPC   C2B61628  31.798  43.412   6.468
 4775POPC   C3B61629  31.770  43.575   6.879
 4775POPC   C4B61630  31.673  43.950   7.098
 4776POPC   NC361631  22.006  38.087   5.452
 4776POPC   PO461632  22.390  38.741   5.444
 4776POPC   GL161633  22.121  38.522   5.731
 4776POPC   GL261634  22.112  38.770   5.946
 4776POPC   C1A61635  22.114  38.292   6.137
 4776POPC   D2A61636  22.193  38.097   6.541
 4776POPC   C3A61637  21.924  38.235   6.893
 4776POPC   C4A61638  21.972  38.455   7.284
 4776POPC   C1B61639  22.142  38.790   6.398
 4776POPC   C2B61640  22.119  38.719   6.816
 4776POPC   C3B61641  22.451  38.779   7.090
 4776POPC   C4B61642  22.137  38.924   7.317
 4777POPC   NC361643  13.052  10.352   5.436
 4777POPC   PO461644  12.569  10.134   5.766
 4777POPC   GL161645  12.868  10.423   5.918
 4777POPC   GL261646  13.190  10.274   5.963
 4777POPC   C1A61647  12.792  10.637   6.276
 4777POPC   D2A61648  12.961  10.750   6.676
 4777POPC   C3A61649  12.766  10.534   7.003
 4777POPC   C4A61650  12.550  10.687   7.427
 4777POPC   C1B61651  13.104  10.248   6.447
 4777POPC   C2B61652  13.214  10.293   6.892
 4777POPC   C3B61653  13.099  10.393   7.348
 4777POPC   C4B61654  12.757  10.285   7.622
 4778POPC   NC361655  26.245  17.347   5.404
 4778POPC   PO461656  25.511  17.420   5.313
 4778POPC   GL161657  25.834  17.511   5.685
 4778POPC   GL261658  26.160  17.558   5.858
 4778POPC   C1A61659  25.777  17.710   6.133
 4778POPC   D2A61660  25.759  17.627   6.580
 4778POPC   C3A61661  26.015  17.505   6.926
 4778POPC   C4A61662  25.818  17.538   7.347
 4778POPC   C1B61663  26.421  17.740   6.180
 4778POPC   C2B61664  26.237  17.849   6.579
 4778POPC   C3B61665  26.366  18.011   6.964
 4778POPC   C4B61666  26.288  17.763   7.319
 4779POPC   NC361667  43.602  34.016   5.259
 4779POPC   PO461668  43.167  33.573   5.472
 4779POPC   GL161669  43.104  33.666   5.900
 4779POPC   GL261670  43.348  33.959   5.853
 4779POPC   C1A61671  43.040  33.534   6.355
 4779POPC   D2A61672  43.366  33.454   6.701
 4779POPC   C3A61673  43.185  33.532   7.128
 4779POPC   C4A61674  43.115  33.845   7.469
 4779POPC   C1B61675  43.165  34.029   6.281
 4779POPC   C2B61676  43.112  33.899   6.722
 4779POPC   C3B61677  43.093  34.138   7.075
 4779POPC   C4B61678  42.753  34.213   7.384
 4780POPC   NC361679  30.164   1.341   5.517
 4780POPC   PO461680  29.557   1.112   5.562
 4780POPC   GL161681  29.645   1.010   5.937
 4780POPC   GL261682  29.988   1.045   5.916
 4780POPC   C1A61683  29.682   1.024   6.377
 4780POPC   D2A61684  29.839   1.364   6.644
 4780POPC   C3A61685  29.566   1.359   6.993
 4780POPC   C4A61686  29.606   0.985   7.220
 4780POPC   C1B61687  30.152   1.347   6.179
 4780POPC   C2B61688  30.372   1.555   6.472
 4780POPC   C3B61689  30.266   1.614   6.859
 4780POPC   C4B61690  30.054   1.299   7.136
 4781POPC   NC361691  20.148  14.321   5.414
 4781POPC   PO461692  19.618  14.633   5.561
 4781POPC   GL161693  19.887  14.496   5.867
 4781POPC   GL261694  19.931  14.849   5.952
 4781POPC   C1A61695  19.961  14.219   6.241
 4781POPC   D2A61696  19.825  14.073   6.644
 4781POPC   C3A61697  19.739  14.093   7.057
 4781POPC   C4A61698  19.828  14.284   7.466
 4781POPC   C1B61699  19.712  14.674   6.311
 4781POPC   C2B61700  19.859  14.566   6.720
 4781POPC   C3B61701  19.851  14.711   7.130
 4781POPC   C4B61702  19.601  15.043   7.232
 4782POPC   NC361703  10.035  34.877   5.306
 4782POPC   PO461704   9.509  35.340   5.497
 4782POPC   GL161705   9.761  35.292   5.823
 4782POPC   GL261706   9.939  35.005   5.802
 4782POPC   C1A61707   9.828  35.530   6.190
 4782POPC   D2A61708   9.702  35.643   6.604
 4782POPC   C3A61709  10.076  35.723   6.841
 4782POPC   C4A61710  10.027  35.453   7.190
 4782POPC   C1B61711   9.718  35.021   6.238
 4782POPC   C2B61712   9.623  35.001   6.666
 4782POPC   C3B61713   9.774  35.019   7.073
 4782POPC   C4B61714   9.723  35.117   7.492
 4783POPC   NC361715  26.191   6.179   5.406
 4783POPC   PO461716  25.818   5.620   5.415
 4783POPC   GL161717  26.069   5.799   5.734
 4783POPC   GL261718  26.108   5.526   5.929
 4783POPC   C1A61719  26.027   6.075   6.087
 4783POPC   D2A61720  25.770   6.161   6.473
 4783POPC   C3A61721  25.813   5.918   6.845
 4783POPC   C4A61722  26.011   5.859   7.242
 4783POPC   C1B61723  26.231   5.649   6.358
 4783POPC   C2B61724  26.224   5.625   6.812
 4783POPC   C3B61725  25.951   5.375   7.085
 4783POPC   C4B61726  25.766   5.430   7.456
 4784POPC   NC361727   7.436  41.726   5.412
 4784POPC   PO461728   7.354  41.182   5.757
 4784POPC   GL161729   7.402  41.581   5.911
 4784POPC   GL261730   7.730  41.716   5.860
 4784POPC   C1A61731   7.201  41.620   6.310
 4784POPC   D2A61732   7.122  41.297   6.637
 4784POPC   C3A61733   7.214  41.458   7.041
 4784POPC   C4A61734   6.970  41.632   7.341
 4784POPC   C1B61735   7.732  41.606   6.296
 4784POPC   C2B61736   7.527  41.759   6.689
 4784POPC   C3B61737   7.662  41.662   7.086
 4784POPC   C4B61738   7.606  41.828   7.511
 4785POPC   NC361739  15.857  12.063   5.233
 4785POPC   PO461740  16.311  11.564   5.348
 4785POPC   GL161741  16.062  11.885   5.685
 4785POPC   GL261742  15.806  12.205   5.717
 4785POPC   C1A61743  15.845  11.903   6.130
 4785POPC   D2A61744  15.718  12.161   6.514
 4785POPC   C3A61745  15.876  12.107   6.943
 4785POPC   C4A61746  15.836  12.016   7.380
 4785POPC   C1B61747  15.958  12.417   6.101
 4785POPC   C2B61748  16.160  12.491   6.504
 4785POPC   C3B61749  16.056  12.608   6.923
 4785POPC   C4B61750  16.117  12.440   7.316
 4786POPC   NC361751   6.397  31.990   5.412
 4786POPC   PO461752   6.515  32.672   5.472
 4786POPC   GL161753   6.512  32.457   5.821
 4786POPC   GL261754   6.238  32.231   5.831
 4786POPC   C1A61755   6.713  32.402   6.214
 4786POPC   D2A61756   6.740  32.177   6.606
 4786POPC   C3A61757   6.878  32.482   6.911
 4786POPC   C4A61758   7.065  32.364   7.277
 4786POPC   C1B61759   6.207  32.511   6.223
 4786POPC   C2B61760   6.378  32.534   6.661
 4786POPC   C3B61761   6.436  32.290   7.053
 4786POPC   C4B61762   6.574  32.521   7.417
 4787POPC   NC361763  18.007  33.255   5.418
 4787POPC   PO461764  17.311  32.941   5.352
 4787POPC   GL161765  17.668  32.957   5.671
 4787POPC   GL261766  17.693  33.291   5.850
 4787POPC   C1A61767  17.792  32.863   6.107
 4787POPC   D2A61768  17.663  33.106   6.485
 4787POPC   C3A61769  17.557  32.853   6.869
 4787POPC   C4A61770  17.445  32.742   7.299
 4787POPC   C1B61771  17.782  33.629   6.136
 4787POPC   C2B61772  17.766  33.617   6.569
 4787POPC   C3B61773  17.784  33.343   6.926
 4787POPC   C4B61774  17.877  33.029   7.246
 4788POPC   NC361775  36.096  44.734   5.427
 4788POPC   PO461776  35.741  44.137   5.427
 4788POPC   GL161777  35.990  44.329   5.775
 4788POPC   GL261778  35.970  44.695   5.913
 4788POPC   C1A61779  36.001  44.287   6.212
 4788POPC   D2A61780  35.960  44.590   6.527
 4788POPC   C3A61781  35.917  44.434   6.923
 4788POPC   C4A61782  35.897  44.671   7.306
 4788POPC   C1B61783  36.358  44.650   6.142
 4788POPC   C2B61784  36.464  44.544   6.566
 4788POPC   C3B61785  36.344  44.712   6.979
 4788POPC   C4B61786  36.400  44.540   7.392
 4789POPC   NC361787   8.554  12.287   5.502
 4789POPC   PO461788   8.102  11.746   5.348
 4789POPC   GL161789   8.061  11.979   5.716
 4789POPC   GL261790   8.374  11.958   5.849
 4789POPC   C1A61791   7.850  11.914   6.114
 4789POPC   D2A61792   8.003  12.139   6.467
 4789POPC   C3A61793   7.929  12.032   6.877
 4789POPC   C4A61794   8.132  12.242   7.222
 4789POPC   C1B61795   8.303  11.779   6.267
 4789POPC   C2B61796   8.433  11.879   6.671
 4789POPC   C3B61797   8.398  11.815   7.091
 4789POPC   C4B61798   8.555  12.010   7.433
 4790POPC   NC361799   7.682  11.682   5.527
 4790POPC   PO461800   7.165  11.231   5.379
 4790POPC   GL161801   7.303  11.428   5.733
 4790POPC   GL261802   7.552  11.194   5.724
 4790POPC   C1A61803   7.465  11.526   6.146
 4790POPC   D2A61804   7.356  11.410   6.570
 4790POPC   C3A61805   7.571  11.557   6.949
 4790POPC   C4A61806   7.381  11.607   7.374
 4790POPC   C1B61807   7.277  11.046   6.083
 4790POPC   C2B61808   7.372  10.904   6.474
 4790POPC   C3B61809   7.606  11.038   6.821
 4790POPC   C4B61810   7.534  11.126   7.237
 4791POPC   NC361811  29.925  27.778   5.476
 4791POPC   PO461812  29.670  27.239   5.170
 4791POPC   GL161813  29.814  27.231   5.683
 4791POPC   GL261814  30.058  27.454   5.845
 4791POPC   C1A61815  29.664  27.359   6.157
 4791POPC   D2A61816  29.603  27.553   6.607
 4791POPC   C3A61817  29.980  27.533   6.902
 4791POPC   C4A61818  29.984  27.448   7.348
 4791POPC   C1B61819  30.017  27.732   6.235
 4791POPC   C2B61820  29.924  27.979   6.622
 4791POPC   C3B61821  30.031  28.037   7.056
 4791POPC   C4B61822  29.918  27.939   7.478
 4792POPC   NC361823  22.911  24.635   5.380
 4792POPC   PO461824  23.217  24.078   5.099
 4792POPC   GL161825  23.061  24.181   5.614
 4792POPC   GL261826  22.698  24.354   5.750
 4792POPC   C1A61827  22.993  24.197   6.118
 4792POPC   D2A61828  22.763  24.353   6.495
 4792POPC   C3A61829  22.971  24.412   6.892
 4792POPC   C4A61830  23.000  24.516   7.342
 4792POPC   C1B61831  22.765  24.706   6.095
 4792POPC   C2B61832  22.795  24.856   6.550
 4792POPC   C3B61833  22.759  24.864   7.031
 4792POPC   C4B61834  22.748  25.107   7.441
 4793POPC   NC361835  15.728  28.964   5.405
 4793POPC   PO461836  16.258  29.340   5.355
 4793POPC   GL161837  16.086  29.114   5.749
 4793POPC   GL261838  15.762  29.211   5.867
 4793POPC   C1A61839  16.062  28.965   6.209
 4793POPC   D2A61840  16.095  29.187   6.591
 4793POPC   C3A61841  16.041  28.971   6.981
 4793POPC   C4A61842  15.979  29.313   7.280
 4793POPC   C1B61843  15.556  28.958   6.160
 4793POPC   C2B61844  15.643  28.895   6.570
 4793POPC   C3B61845  15.583  29.188   6.891
 4793POPC   C4B61846  15.598  28.982   7.276
 4794POPC   NC361847  23.125  23.031   5.200
 4794POPC   PO461848  22.912  22.411   5.241
 4794POPC   GL161849  22.863  22.802   5.592
 4794POPC   GL261850  23.121  23.100   5.703
 4794POPC   C1A61851  22.737  22.958   6.020
 4794POPC   D2A61852  22.697  23.042   6.452
 4794POPC   C3A61853  22.749  22.786   6.797
 4794POPC   C4A61854  22.745  22.844   7.238
 4794POPC   C1B61855  23.192  23.217   6.132
 4794POPC   C2B61856  23.201  22.987   6.530
 4794POPC   C3B61857  23.087  23.133   6.934
 4794POPC   C4B61858  23.178  23.175   7.352
 4795POPC   NC361859  11.665  44.082   5.505
 4795POPC   PO461860  12.221  43.791   5.202
 4795POPC   GL161861  12.216  43.878   5.683
 4795POPC   GL261862  12.115  44.200   5.814
 4795POPC   C1A61863  12.095  43.743   6.114
 4795POPC   D2A61864  11.906  43.730   6.542
 4795POPC   C3A61865  12.216  43.839   6.861
 4795POPC   C4A61866  12.336  44.171   7.177
 4795POPC   C1B61867  11.780  44.157   6.157
 4795POPC   C2B61868  11.617  44.190   6.591
 4795POPC   C3B61869  11.808  44.149   7.009
 4795POPC   C4B61870  11.715  44.257   7.433
 4796POPC   NC361871  21.201  25.147   5.352
 4796POPC   PO461872  21.755  25.415   5.399
 4796POPC   GL161873  21.555  25.206   5.768
 4796POPC   GL261874  21.645  24.880   5.876
 4796POPC   C1A61875  21.504  25.237   6.232
 4796POPC   D2A61876  21.238  25.224   6.601
 4796POPC   C3A61877  21.415  25.316   7.014
 4796POPC   C4A61878  21.271  25.238   7.457
 4796POPC   C1B61879  21.481  24.724   6.258
 4796POPC   C2B61880  21.194  24.720   6.588
 4796POPC   C3B61881  21.184  24.844   6.995
 4796POPC   C4B61882  21.531  24.873   7.222
 4797POPC   NC361883  42.505   6.251   5.512
 4797POPC   PO461884  42.135   6.776   5.623
 4797POPC   GL161885  42.183   6.511   5.881
 4797POPC   GL261886  42.512   6.516   5.930
 4797POPC   C1A61887  42.191   6.591   6.322
 4797POPC   D2A61888  42.527   6.518   6.606
 4797POPC   C3A61889  42.368   6.490   7.020
 4797POPC   C4A61890  41.989   6.720   7.118
 4797POPC   C1B61891  42.666   6.836   6.163
 4797POPC   C2B61892  42.893   6.896   6.534
 4797POPC   C3B61893  42.693   6.894   6.918
 4797POPC   C4B61894  42.425   6.946   7.257
 4798POPC   NC361895  11.104  24.409   5.541
 4798POPC   PO461896  11.704  24.756   5.416
 4798POPC   GL161897  11.588  24.629   5.815
 4798POPC   GL261898  11.585  24.250   5.747
 4798POPC   C1A61899  11.538  24.761   6.260
 4798POPC   D2A61900  11.179  24.630   6.505
 4798POPC   C3A61901  11.057  24.798   6.888
 4798POPC   C4A61902  11.187  24.593   7.257
 4798POPC   C1B61903  11.386  24.276   6.150
 4798POPC   C2B61904  11.494  24.229   6.573
 4798POPC   C3B61905  11.610  24.439   6.961
 4798POPC   C4B61906  11.668  24.234   7.367
 4799POPC   NC361907  36.011  39.307   5.347
 4799POPC   PO461908  36.680  39.236   5.406
 4799POPC   GL161909  36.326  39.174   5.699
 4799POPC   GL261910  36.316  39.515   5.751
 4799POPC   C1A61911  35.984  39.269   6.050
 4799POPC   D2A61912  36.072  39.196   6.518
 4799POPC   C3A61913  35.962  39.340   6.955
 4799POPC   C4A61914  36.117  39.102   7.363
 4799POPC   C1B61915  36.444  39.486   6.195
 4799POPC   C2B61916  36.595  39.355   6.614
 4799POPC   C3B61917  36.479  39.315   7.011
 4799POPC   C4B61918  36.266  39.568   7.296
 4800POPC   NC361919  36.171  37.582   5.464
 4800POPC   PO461920  36.211  38.255   5.424
 4800POPC   GL161921  36.339  37.958   5.794
 4800POPC   GL261922  36.049  37.925   5.889
 4800POPC   C1A61923  36.330  37.504   6.095
 4800POPC   D2A61924  36.252  37.222   6.486
 4800POPC   C3A61925  36.074  37.289   6.923
 4800POPC   C4A61926  35.835  37.471   7.291
 4800POPC   C1B61927  36.085  37.866   6.311
 4800POPC   C2B61928  35.895  37.622   6.557
 4800POPC   C3B61929  35.903  37.791   6.907
 4800POPC   C4B61930  36.016  37.985   7.265
 4801POPC   NC361931  11.532  35.529   5.430
 4801POPC   PO461932  11.097  35.071   5.249
 4801POPC   GL161933  11.070  35.199   5.708
 4801POPC   GL261934  11.116  35.562   5.752
 4801POPC   C1A61935  11.255  35.228   6.170
 4801POPC   D2A61936  11.212  35.034   6.604
 4801POPC   C3A61937  11.466  35.065   6.979
 4801POPC   C4A61938  11.586  35.418   7.230
 4801POPC   C1B61939  11.091  35.715   6.178
 4801POPC   C2B61940  10.955  35.494   6.553
 4801POPC   C3B61941  11.077  35.401   6.968
 4801POPC   C4B61942  10.988  35.565   7.356
 4802POPC   NC361943  12.542  36.476   5.346
 4802POPC   PO461944  13.192  36.078   5.424
 4802POPC   GL161945  12.893  36.004   5.777
 4802POPC   GL261946  12.669  36.235   5.811
 4802POPC   C1A61947  12.725  35.811   6.151
 4802POPC   D2A61948  12.821  35.988   6.537
 4802POPC   C3A61949  12.928  35.861   6.919
 4802POPC   C4A61950  12.699  35.721   7.277
 4802POPC   C1B61951  12.911  36.361   6.194
 4802POPC   C2B61952  13.090  36.414   6.602
 4802POPC   C3B61953  12.890  36.388   7.000
 4802POPC   C4B61954  12.898  36.723   7.229
 4803POPC   NC361955  30.504  37.788   5.585
 4803POPC   PO461956  30.895  37.203   5.468
 4803POPC   GL161957  30.855  37.478   5.811
 4803POPC   GL261958  30.539  37.354   5.942
 4803POPC   C1A61959  30.784  37.710   6.222
 4803POPC   D2A61960  30.519  37.911   6.544
 4803POPC   C3A61961  30.708  37.866   6.937
 4803POPC   C4A61962  31.099  37.611   7.006
 4803POPC   C1B61963  30.308  37.458   6.323
 4803POPC   C2B61964  30.348  37.467   6.785
 4803POPC   C3B61965  30.585  37.420   7.150
 4803POPC   C4B61966  30.472  37.446   7.649
 4804POPC   NC361967  25.831  13.695   5.333
 4804POPC   PO461968  26.013  13.120   5.505
 4804POPC   GL161969  26.175  13.473   5.801
 4804POPC   GL261970  26.136  13.810   5.728
 4804POPC   C1A61971  26.171  13.675   6.245
 4804POPC   D2A61972  25.963  13.657   6.652
 4804POPC   C3A61973  26.192  13.676   7.043
 4804POPC   C4A61974  26.517  13.718   7.309
 4804POPC   C1B61975  25.846  14.011   6.042
 4804POPC   C2B61976  25.878  14.144   6.462
 4804POPC   C3B61977  25.902  14.101   6.901
 4804POPC   C4B61978  25.837  14.154   7.339
 4805POPC   NC361979  11.111   1.978   5.113
 4805POPC   PO461980  11.523   1.574   5.626
 4805POPC   GL161981  11.338   1.876   5.908
 4805POPC   GL261982  11.059   1.680   6.044
 4805POPC   C1A61983  11.471   1.840   6.333
 4805POPC   D2A61984  11.280   1.773   6.721
 4805POPC   C3A61985  11.529   1.955   7.037
 4805POPC   C4A61986  11.514   2.177   7.439
 4805POPC   C1B61987  11.021   2.063   6.301
 4805POPC   C2B61988  11.043   2.220   6.728
 4805POPC   C3B61989  11.071   2.147   7.165
 4805POPC   C4B61990  10.917   2.281   7.565
 4806POPC   NC361991  31.836  28.684   5.377
 4806POPC   PO461992  32.542  28.735   5.326
 4806POPC   GL161993  32.366  28.445   5.676
 4806POPC   GL261994  32.210  28.097   5.676
 4806POPC   C1A61995  32.289  28.378   6.142
 4806POPC   D2A61996  32.174  28.557   6.564
 4806POPC   C3A61997  32.340  28.362   6.927
 4806POPC   C4A61998  32.724  28.274   7.129
 4806POPC   C1B61999  31.992  27.968   6.089
 4806POPC   C2B62000  31.832  28.168   6.484
 4806POPC   C3B62001  31.952  28.002   6.911
 4806POPC   C4B62002  32.143  28.085   7.332
 4807POPC   NC362003   0.294  30.502   5.516
 4807POPC   PO462004   0.998  30.501   5.628
 4807POPC   GL162005   0.631  30.535   5.921
 4807POPC   GL262006   0.424  30.840   5.877
 4807POPC   C1A62007   0.565  30.670   6.364
 4807POPC   D2A62008   0.853  30.887   6.657
 4807POPC   C3A62009   0.782  30.775   7.072
 4807POPC   C4A62010   0.646  30.369   7.149
 4807POPC   C1B62011   0.195  31.024   6.196
 4807POPC   C2B62012   0.247  30.993   6.629
 4807POPC   C3B62013   0.311  30.635   6.867
 4807POPC   C4B62014   0.198  30.548   7.292
 4808POPC   NC362015  19.037  19.996   5.280
 4808POPC   PO462016  19.646  19.959   5.389
 4808POPC   GL162017  19.287  19.999   5.732
 4808POPC   GL262018  19.045  19.707   5.721
 4808POPC   C1A62019  19.107  20.114   6.174
 4808POPC   D2A62020  19.186  20.271   6.624
 4808POPC   C3A62021  19.004  20.073   6.994
 4808POPC   C4A62022  18.653  19.937   7.276
 4808POPC   C1B62023  19.136  19.588   6.171
 4808POPC   C2B62024  19.111  19.688   6.638
 4808POPC   C3B62025  19.008  19.573   7.102
 4808POPC   C4B62026  18.797  19.501   7.530
 4809POPC   NC362027  38.228  22.078   5.181
 4809POPC   PO462028  38.823  22.105   5.149
 4809POPC   GL162029  38.582  22.169   5.582
 4809POPC   GL262030  38.443  22.497   5.708
 4809POPC   C1A62031  38.539  22.115   6.053
 4809POPC   D2A62032  38.683  21.894   6.434
 4809POPC   C3A62033  38.753  22.101   6.837
 4809POPC   C4A62034  38.622  22.004   7.248
 4809POPC   C1B62035  38.340  22.572   6.176
 4809POPC   C2B62036  38.280  22.305   6.561
 4809POPC   C3B62037  38.347  22.391   7.003
 4809POPC   C4B62038  38.216  22.337   7.432
 4810POPC   NC362039  29.308   1.438   5.335
 4810POPC   PO462040  29.199   0.795   5.243
 4810POPC   GL162041  29.094   1.028   5.707
 4810POPC   GL262042  29.233   1.397   5.834
 4810POPC   C1A62043  29.186   1.036   6.176
 4810POPC   D2A62044  29.235   1.189   6.638
 4810POPC   C3A62045  29.128   0.961   7.073
 4810POPC   C4A62046  29.228   0.876   7.561
 4810POPC   C1B62047  28.931   1.488   6.180
 4810POPC   C2B62048  28.918   1.655   6.625
 4810POPC   C3B62049  28.951   1.432   7.031
 4810POPC   C4B62050  28.822   1.202   7.429
 4811POPC   NC362051  40.352  28.495   5.410
 4811POPC   PO462052  39.659  28.468   5.380
 4811POPC   GL162053  39.806  28.176   5.737
 4811POPC   GL262054  40.128  28.298   5.824
 4811POPC   C1A62055  39.852  28.150   6.225
 4811POPC   D2A62056  40.153  28.296   6.558
 4811POPC   C3A62057  40.147  28.129   7.006
 4811POPC   C4A62058  40.056  28.393   7.386
 4811POPC   C1B62059  40.264  28.596   6.136
 4811POPC   C2B62060  40.278  28.797   6.558
 4811POPC   C3B62061  40.322  28.609   6.973
 4811POPC   C4B62062  40.391  28.790   7.370
 4812POPC   NC362063  28.345  22.560   5.499
 4812POPC   PO462064  28.266  22.005   5.505
 4812POPC   GL162065  28.537  22.018   5.842
 4812POPC   GL262066  28.520  22.357   5.922
 4812POPC   C1A62067  28.683  21.924   6.272
 4812POPC   D2A62068  28.431  21.939   6.667
 4812POPC   C3A62069  28.671  21.925   7.041
 4812POPC   C4A62070  28.451  21.977   7.406
 4812POPC   C1B62071  28.262  22.204   6.250
 4812POPC   C2B62072  28.161  22.389   6.630
 4812POPC   C3B62073  28.314  22.321   7.007
 4812POPC   C4B62074  28.117  22.375   7.388
 4813POPC   NC362075  13.028  21.360   5.636
 4813POPC   PO462076  13.684  21.402   5.324
 4813POPC   GL162077  13.525  21.367   5.749
 4813POPC   GL262078  13.361  21.659   5.863
 4813POPC   C1A62079  13.371  21.279   6.189
 4813POPC   D2A62080  13.549  21.467   6.556
 4813POPC   C3A62081  13.414  21.400   6.991
 4813POPC   C4A62082  13.692  21.302   7.335
 4813POPC   C1B62083  13.778  21.738   6.103
 4813POPC   C2B62084  14.015  21.746   6.527
 4813POPC   C3B62085  13.856  21.659   6.966
 4813POPC   C4B62086  13.828  21.842   7.389
 4814POPC   NC362087  41.148  17.548   5.518
 4814POPC   PO462088  40.560  17.365   5.249
 4814POPC   GL162089  40.632  17.375   5.740
 4814POPC   GL262090  40.688  17.724   5.900
 4814POPC   C1A62091  40.636  17.328   6.232
 4814POPC   D2A62092  40.734  17.641   6.612
 4814POPC   C3A62093  40.922  17.638   7.026
 4814POPC   C4A62094  40.817  17.285   7.275
 4814POPC   C1B62095  40.394  17.783   6.259
 4814POPC   C2B62096  40.210  17.702   6.674
 4814POPC   C3B62097  40.408  17.530   7.041
 4814POPC   C4B62098  40.583  17.760   7.395
 4815POPC   NC362099  21.635  20.106   5.205
 4815POPC   PO462100  22.232  20.564   5.197
 4815POPC   GL162101  22.189  20.652   5.698
 4815POPC   GL262102  21.901  20.823   5.899
 4815POPC   C1A62103  22.387  20.516   6.122
 4815POPC   D2A62104  22.398  20.690   6.563
 4815POPC   C3A62105  22.512  20.445   6.919
 4815POPC   C4A62106  22.466  20.552   7.321
 4815POPC   C1B62107  21.877  20.422   6.206
 4815POPC   C2B62108  22.076  20.283   6.636
 4815POPC   C3B62109  22.011  20.492   7.071
 4815POPC   C4B62110  21.773  20.889   7.169
 4816POPC   NC362111   9.754  23.462   5.418
 4816POPC   PO462112   9.876  22.733   5.427
 4816POPC   GL162113  10.027  22.747   5.845
 4816POPC   GL262114  10.139  23.112   5.823
 4816POPC   C1A62115   9.815  22.585   6.256
 4816POPC   D2A62116   9.718  22.782   6.696
 4816POPC   C3A62117   9.718  22.767   7.178
 4816POPC   C4A62118   9.650  22.977   7.592
 4816POPC   C1B62119   9.911  23.112   6.187
 4816POPC   C2B62120   9.947  23.272   6.583
 4816POPC   C3B62121   9.790  23.250   6.969
 4816POPC   C4B62122  10.011  23.186   7.308
 4817POPC   NC362123   0.567  31.493   5.285
 4817POPC   PO462124   0.190  30.943   5.427
 4817POPC   GL162125   0.342  31.332   5.717
 4817POPC   GL262126   0.658  31.576   5.758
 4817POPC   C1A62127   0.281  31.521   6.118
 4817POPC   D2A62128   0.018  31.450   6.476
 4817POPC   C3A62129   0.259  31.442   6.874
 4817POPC   C4A62130   0.370  31.049   7.148
 4817POPC   C1B62131   0.727  31.260   6.063
 4817POPC   C2B62132   0.609  31.318   6.485
 4817POPC   C3B62133   0.741  31.317   6.914
 4817POPC   C4B62134   0.606  31.624   7.231
 4818POPC   NC362135  43.376  29.830   5.470
 4818POPC   PO462136  42.856  30.171   5.451
 4818POPC   GL162137  42.948  29.987   5.828
 4818POPC   GL262138  43.060  29.640   5.813
 4818POPC   C1A62139  43.231  29.943   6.181
 4818POPC   D2A62140  43.268  30.109   6.561
 4818POPC   C3A62141  43.218  29.876   6.904
 4818POPC   C4A62142  43.311  30.017   7.293
 4818POPC   C1B62143  42.789  29.677   6.204
 4818POPC   C2B62144  42.783  29.920   6.572
 4818POPC   C3B62145  42.729  29.751   6.975
 4818POPC   C4B62146  42.830  29.898   7.368
 4819POPC   NC362147  29.502  28.994   5.565
 4819POPC   PO462148  28.877  29.240   5.698
 4819POPC   GL162149  29.168  29.203   5.988
 4819POPC   GL262150  28.994  29.508   6.132
 4819POPC   C1A62151  29.361  28.950   6.314
 4819POPC   D2A62152  29.558  28.903   6.727
 4819POPC   C3A62153  29.317  28.975   7.125
 4819POPC   C4A62154  29.405  29.268   7.453
 4819POPC   C1B62155  28.863  29.192   6.384
 4819POPC   C2B62156  29.033  29.024   6.704
 4819POPC   C3B62157  28.832  29.150   7.002
 4819POPC   C4B62158  28.978  29.481   7.157
 4820POPC   NC362159  11.840  11.283   5.408
 4820POPC   PO462160  12.449  11.647   5.545
 4820POPC   GL162161  12.158  11.471   5.854
 4820POPC   GL262162  12.013  11.165   5.857
 4820POPC   C1A62163  12.282  11.260   6.262
 4820POPC   D2A62164  12.545  11.042   6.544
 4820POPC   C3A62165  12.416  11.160   6.952
 4820POPC   C4A62166  12.319  11.145   7.383
 4820POPC   C1B62167  11.799  11.148   6.244
 4820POPC   C2B62168  11.990  11.057   6.657
 4820POPC   C3B62169  11.905  11.208   7.072
 4820POPC   C4B62170  11.502  11.221   7.257
 4821POPC   NC362171  30.993  32.084   5.251
 4821POPC   PO462172  30.388  32.258   5.514
 4821POPC   GL162173  30.803  32.232   5.736
 4821POPC   GL262174  30.980  32.564   5.801
 4821POPC   C1A62175  30.793  32.162   6.176
 4821POPC   D2A62176  30.555  32.297   6.523
 4821POPC   C3A62177  30.741  32.101   6.868
 4821POPC   C4A62178  30.817  32.118   7.298
 4821POPC   C1B62179  30.830  32.686   6.231
 4821POPC   C2B62180  30.965  32.565   6.653
 4821POPC   C3B62181  30.795  32.581   7.067
 4821POPC   C4B62182  30.771  32.608   7.518
 4822POPC   NC362183  19.441  41.965   5.546
 4822POPC   PO462184  19.703  41.346   5.289
 4822POPC   GL162185  19.766  41.518   5.725
 4822POPC   GL262186  19.415  41.562   5.858
 4822POPC   C1A62187  19.913  41.395   6.169
 4822POPC   D2A62188  20.023  41.583   6.529
 4822POPC   C3A62189  19.972  41.447   6.932
 4822POPC   C4A62190  19.824  41.662   7.283
 4822POPC   C1B62191  19.493  41.625   6.302
 4822POPC   C2B62192  19.558  41.366   6.643
 4822POPC   C3B62193  19.454  41.403   7.075
 4822POPC   C4B62194  19.366  41.661   7.479
 4823POPC   NC362195  20.137  41.034   5.354
 4823POPC   PO462196  19.932  40.402   5.529
 4823POPC   GL162197  20.127  40.700   5.778
 4823POPC   GL262198  19.938  41.024   5.821
 4823POPC   C1A62199  20.080  40.735   6.222
 4823POPC   D2A62200  19.956  41.013   6.570
 4823POPC   C3A62201  20.125  40.857   6.957
 4823POPC   C4A62202  19.997  40.609   7.307
 4823POPC   C1B62203  19.610  40.991   6.170
 4823POPC   C2B62204  19.480  40.834   6.593
 4823POPC   C3B62205  19.610  40.887   7.033
 4823POPC   C4B62206  19.858  41.121   7.310
 4824POPC   NC362207  11.413  13.075   5.583
 4824POPC   PO462208  11.339  12.418   5.372
 4824POPC   GL162209  11.406  12.625   5.795
 4824POPC   GL262210  11.088  12.830   5.898
 4824POPC   C1A62211  11.503  12.874   6.210
 4824POPC   D2A62212  11.317  12.858   6.619
 4824POPC   C3A62213  11.558  12.912   6.987
 4824POPC   C4A62214  11.318  12.958   7.311
 4824POPC   C1B62215  10.965  12.525   6.207
 4824POPC   C2B62216  11.090  12.399   6.618
 4824POPC   C3B62217  11.028  12.574   7.053
 4824POPC   C4B62218  11.038  12.446   7.503
 4825POPC   NC362219  44.510  41.188   5.373
 4825POPC   PO462220  44.856  41.759   5.251
 4825POPC   GL162221  44.685  41.617   5.649
 4825POPC   GL262222  44.495  41.926   5.719
 4825POPC   C1A62223  44.735  41.477   6.102
 4825POPC   D2A62224  44.988  41.283   6.457
 4825POPC   C3A62225  44.922  41.374   6.912
 4825POPC   C4A62226  44.709  41.399   7.313
 4825POPC   C1B62227  44.373  41.847   6.148
 4825POPC   C2B62228  44.567  41.713   6.550
 4825POPC   C3B62229  44.636  41.796   6.982
 4825POPC   C4B62230  44.437  41.904   7.382
 4826POPC   NC362231  41.048  42.990   5.416
 4826POPC   PO462232  40.374  43.155   5.443
 4826POPC   GL162233  40.695  43.142   5.785
 4826POPC   GL262234  41.055  43.285   5.845
 4826POPC   C1A62235  40.707  42.953   6.192
 4826POPC   D2A62236  40.702  43.091   6.592
 4826POPC   C3A62237  40.851  42.871   6.949
 4826POPC   C4A62238  40.760  42.988   7.356
 4826POPC   C1B62239  41.186  43.337   6.293
 4826POPC   C2B62240  41.195  43.188   6.715
 4826POPC   C3B62241  41.209  43.353   7.113
 4826POPC   C4B62242  40.947  43.498   7.474
 4827POPC   NC362243  12.813  30.093   5.284
 4827POPC   PO462244  12.540  29.488   5.364
 4827POPC   GL162245  12.732  29.768   5.694
 4827POPC   GL262246  12.462  30.040   5.663
 4827POPC   C1A62247  12.976  29.835   6.119
 4827POPC   D2A62248  13.192  29.929   6.518
 4827POPC   C3A62249  13.014  29.836   6.914
 4827POPC   C4A62250  12.805  29.864   7.329
 4827POPC   C1B62251  12.509  30.053   6.114
 4827POPC   C2B62252  12.674  30.040   6.540
 4827POPC   C3B62253  12.526  30.102   6.952
 4827POPC   C4B62254  12.305  29.895   7.287
 4828POPC   NC362255   7.933  20.347   5.096
 4828POPC   PO462256   8.063  20.945   5.354
 4828POPC   GL162257   8.203  20.779   5.766
 4828POPC   GL262258   8.552  20.710   5.848
 4828POPC   C1A62259   8.083  20.699   6.212
 4828POPC   D2A62260   8.061  20.445   6.589
 4828POPC   C3A62261   8.121  20.634   7.008
 4828POPC   C4A62262   8.174  20.588   7.452
 4828POPC   C1B62263   8.569  20.519   6.289
 4828POPC   C2B62264   8.541  20.453   6.750
 4828POPC   C3B62265   8.595  20.463   7.203
 4828POPC   C4B62266   8.678  20.640   7.655
 4829POPC   NC362267  31.875   7.304   5.462
 4829POPC   PO462268  32.485   7.505   5.352
 4829POPC   GL162269  32.298   7.628   5.752
 4829POPC   GL262270  31.976   7.546   5.914
 4829POPC   C1A62271  32.355   7.792   6.152
 4829POPC   D2A62272  32.118   7.616   6.447
 4829POPC   C3A62273  32.176   7.632   6.884
 4829POPC   C4A62274  32.042   7.471   7.270
 4829POPC   C1B62275  31.995   7.180   6.156
 4829POPC   C2B62276  32.028   6.979   6.535
 4829POPC   C3B62277  32.078   7.103   6.926
 4829POPC   C4B62278  31.879   7.014   7.334
 4830POPC   NC362279  36.085  13.200   5.480
 4830POPC   PO462280  36.379  13.799   5.322
 4830POPC   GL162281  36.270  13.645   5.694
 4830POPC   GL262282  36.215  13.942   5.853
 4830POPC   C1A62283  36.102  13.504   6.074
 4830POPC   D2A62284  36.237  13.467   6.488
 4830POPC   C3A62285  35.940  13.635   6.780
 4830POPC   C4A62286  35.879  13.618   7.242
 4830POPC   C1B62287  36.073  13.952   6.282
 4830POPC   C2B62288  36.339  13.965   6.591
 4830POPC   C3B62289  36.288  13.930   7.007
 4830POPC   C4B62290  36.419  13.516   6.986
 4831POPC   NC362291  28.560  15.464   5.346
 4831POPC   PO462292  28.168  14.972   5.383
 4831POPC   GL162293  28.269  15.204   5.742
 4831POPC   GL262294  28.153  14.915   5.933
 4831POPC   C1A62295  28.280  15.332   6.195
 4831POPC   D2A62296  28.469  15.196   6.608
 4831POPC   C3A62297  28.407  15.360   7.038
 4831POPC   C4A62298  28.613  15.299   7.447
 4831POPC   C1B62299  27.895  14.961   6.276
 4831POPC   C2B62300  27.907  14.841   6.670
 4831POPC   C3B62301  28.214  14.844   6.948
 4831POPC   C4B62302  28.101  14.768   7.358
 4832POPC   NC362303  42.665   3.360   5.411
 4832POPC   PO462304  42.187   3.744   5.181
 4832POPC   GL162305  42.266   3.630   5.599
 4832POPC   GL262306  42.524   3.842   5.628
 4832POPC   C1A62307  42.153   3.428   6.017
 4832POPC   D2A62308  42.360   3.340   6.423
 4832POPC   C3A62309  42.224   3.388   6.847
 4832POPC   C4A62310  42.337   3.393   7.283
 4832POPC   C1B62311  42.427   3.855   6.062
 4832POPC   C2B62312  42.492   3.934   6.498
 4832POPC   C3B62313  42.549   3.783   6.924
 4832POPC   C4B62314  42.444   3.905   7.341
 4833POPC   NC362315   0.193  14.832   5.457
 4833POPC   PO462316   0.682  15.290   5.424
 4833POPC   GL162317   0.439  15.249   5.813
 4833POPC   GL262318   0.383  14.907   5.934
 4833POPC   C1A62319   0.340  15.510   6.170
 4833POPC   D2A62320   0.149  15.551   6.578
 4833POPC   C3A62321   0.227  15.146   6.764
 4833POPC   C4A62322   0.287  15.022   7.180
 4833POPC   C1B62323   0.745  14.855   6.241
 4833POPC   C2B62324   0.880  14.883   6.707
 4833POPC   C3B62325   0.804  15.062   7.144
 4833POPC   C4B62326   0.666  14.942   7.567
 4834POPC   NC362327  39.767  32.167   5.407
 4834POPC   PO462328  40.391  32.537   5.374
 4834POPC   GL162329  40.123  32.416   5.745
 4834POPC   GL262330  40.023  32.058   5.855
 4834POPC   C1A62331  40.111  32.526   6.194
 4834POPC   D2A62332  40.008  32.459   6.639
 4834POPC   C3A62333  40.297  32.434   6.991
 4834POPC   C4A62334  40.183  32.385   7.431
 4834POPC   C1B62335  39.741  31.944   6.217
 4834POPC   C2B62336  39.828  31.839   6.664
 4834POPC   C3B62337  39.955  32.041   7.073
 4834POPC   C4B62338  39.826  31.974   7.516
 4835POPC   NC362339  19.536  22.371   5.454
 4835POPC   PO462340  18.877  22.126   5.351
 4835POPC   GL162341  19.141  22.121   5.694
 4835POPC   GL262342  19.083  22.451   5.715
 4835POPC   C1A62343  19.278  22.166   6.122
 4835POPC   D2A62344  19.397  22.045   6.534
 4835POPC   C3A62345  19.423  22.316   6.900
 4835POPC   C4A62346  19.211  22.032   7.203
 4835POPC   C1B62347  18.930  22.584   6.099
 4835POPC   C2B62348  19.068  22.450   6.503
 4835POPC   C3B62349  18.915  22.331   6.907
 4835POPC   C4B62350  18.919  22.535   7.310
 4836POPC   NC362351  18.575  24.093   5.305
 4836POPC   PO462352  18.162  24.553   5.263
 4836POPC   GL162353  17.999  24.307   5.649
 4836POPC   GL262354  18.259  24.090   5.804
 4836POPC   C1A62355  17.917  24.377   6.125
 4836POPC   D2A62356  17.998  24.645   6.525
 4836POPC   C3A62357  18.122  24.519   6.962
 4836POPC   C4A62358  18.218  24.167   7.214
 4836POPC   C1B62359  18.393  24.143   6.268
 4836POPC   C2B62360  18.498  24.209   6.736
 4836POPC   C3B62361  18.647  24.418   7.154
 4836POPC   C4B62362  18.443  24.564   7.528
 4837POPC   NC362363   1.540  37.748   5.260
 4837POPC   PO462364   0.989  37.677   5.488
 4837POPC   GL162365   1.382  37.673   5.743
 4837POPC   GL262366   1.415  38.036   5.856
 4837POPC   C1A62367   1.538  37.618   6.164
 4837POPC   D2A62368   1.460  37.880   6.554
 4837POPC   C3A62369   1.403  37.656   6.945
 4837POPC   C4A62370   1.617  37.375   7.236
 4837POPC   C1B62371   1.181  38.216   6.223
 4837POPC   C2B62372   1.101  38.276   6.688
 4837POPC   C3B62373   1.026  38.068   7.106
 4837POPC   C4B62374   0.941  38.069   7.551
 4838POPC   NC362375  30.060  33.997   5.532
 4838POPC   PO462376  29.547  33.503   5.467
 4838POPC   GL162377  29.633  33.720   5.798
 4838POPC   GL262378  29.984  33.629   5.876
 4838POPC   C1A62379  29.640  33.805   6.225
 4838POPC   D2A62380  29.934  33.725   6.534
 4838POPC   C3A62381  29.727  33.748   6.930
 4838POPC   C4A62382  29.654  33.448   7.220
 4838POPC   C1B62383  30.372  33.612   6.109
 4838POPC   C2B62384  30.474  33.713   6.539
 4838POPC   C3B62385  30.292  33.760   6.901
 4838POPC   C4B62386  30.156  33.530   7.185
 4839POPC   NC362387   3.923  39.113   5.434
 4839POPC   PO462388   3.729  39.744   5.554
 4839POPC   GL162389   3.819  39.404   5.865
 4839POPC   GL262390   3.508  39.196   5.839
 4839POPC   C1A62391   3.756  39.299   6.318
 4839POPC   D2A62392   3.444  39.240   6.667
 4839POPC   C3A62393   3.546  39.306   7.108
 4839POPC   C4A62394   3.434  39.587   7.412
 4839POPC   C1B62395   3.271  39.019   6.205
 4839POPC   C2B62396   3.163  38.786   6.594
 4839POPC   C3B62397   3.215  38.922   7.028
 4839POPC   C4B62398   3.335  38.954   7.481
 4840POPC   NC362399  21.387   0.257   5.158
 4840POPC   PO462400  21.037   0.635   5.565
 4840POPC   GL162401  21.303   0.474   5.914
 4840POPC   GL262402  21.671   0.542   5.883
 4840POPC   C1A62403  21.382   0.431   6.371
 4840POPC   D2A62404  21.371   0.179   6.768
 4840POPC   C3A62405  21.263   0.440   7.132
 4840POPC   C4A62406  21.337   0.462   7.593
 4840POPC   C1B62407  21.886   0.536   6.287
 4840POPC   C2B62408  21.743   0.561   6.744
 4840POPC   C3B62409  21.696   0.691   7.176
 4840POPC   C4B62410  21.572   0.909   7.551
 4841POPC   NC362411  31.211   0.299   5.256
 4841POPC   PO462412  31.785   0.475   5.514
 4841POPC   GL162413  31.550   0.477   5.855
 4841POPC   GL262414  31.246   0.358   5.776
 4841POPC   C1A62415  31.450   0.607   6.270
 4841POPC   D2A62416  31.799   0.513   6.550
 4841POPC   C3A62417  31.744   0.407   6.970
 4841POPC   C4A62418  31.383   0.325   7.205
 4841POPC   C1B62419  31.295   0.134   6.184
 4841POPC   C2B62420  31.341   0.198   6.642
 4841POPC   C3B62421  31.004   0.118   6.969
 4841POPC   C4B62422  31.003   0.014   7.425
 4842POPC   NC362423   2.571  29.948   4.964
 4842POPC   PO462424   3.061  30.004   5.379
 4842POPC   GL162425   2.963  29.943   5.797
 4842POPC   GL262426   3.041  30.285   5.861
 4842POPC   C1A62427   2.777  29.737   6.167
 4842POPC   D2A62428   2.579  29.912   6.558
 4842POPC   C3A62429   2.737  29.693   6.960
 4842POPC   C4A62430   2.872  29.772   7.376
 4842POPC   C1B62431   3.014  30.155   6.293
 4842POPC   C2B62432   3.081  29.886   6.628
 4842POPC   C3B62433   3.087  30.076   7.037
 4842POPC   C4B62434   3.185  30.122   7.555
 4843POPC   NC362435  17.782  34.896   5.402
 4843POPC   PO462436  17.338  34.495   5.123
 4843POPC   GL162437  17.352  34.677   5.618
 4843POPC   GL262438  17.644  34.665   5.893
 4843POPC   C1A62439  17.202  34.748   6.097
 4843POPC   D2A62440  17.423  34.537   6.455
 4843POPC   C3A62441  17.302  34.566   6.900
 4843POPC   C4A62442  17.262  34.189   7.133
 4843POPC   C1B62443  17.946  34.607   6.255
 4843POPC   C2B62444  17.872  34.675   6.707
 4843POPC   C3B62445  17.849  34.628   7.168
 4843POPC   C4B62446  17.959  34.510   7.652
 4844POPC   NC362447   5.367  35.399   5.428
 4844POPC   PO462448   4.833  35.600   5.424
 4844POPC   GL162449   4.954  35.229   5.718
 4844POPC   GL262450   5.116  35.459   5.890
 4844POPC   C1A62451   5.051  35.029   6.157
 4844POPC   D2A62452   5.022  35.294   6.556
 4844POPC   C3A62453   5.128  35.147   6.974
 4844POPC   C4A62454   4.920  35.043   7.360
 4844POPC   C1B62455   5.301  35.813   6.023
 4844POPC   C2B62456   5.258  35.929   6.454
 4844POPC   C3B62457   5.239  35.704   6.813
 4844POPC   C4B62458   5.164  35.612   7.219
 4845POPC   NC362459  37.838   1.361   5.145
 4845POPC   PO462460  37.574   0.792   5.355
 4845POPC   GL162461  37.600   0.961   5.757
 4845POPC   GL262462  37.883   1.183   5.732
 4845POPC   C1A62463  37.524   1.148   6.179
 4845POPC   D2A62464  37.328   1.057   6.571
 4845POPC   C3A62465  37.518   1.210   6.955
 4845POPC   C4A62466  37.698   0.958   7.236
 4845POPC   C1B62467  38.013   1.368   6.121
 4845POPC   C2B62468  37.876   1.351   6.551
 4845POPC   C3B62469  38.031   1.250   6.957
 4845POPC   C4B62470  37.912   1.433   7.295
 4846POPC   NC362471  34.768  16.357   5.403
 4846POPC   PO462472  34.420  15.850   5.134
 4846POPC   GL162473  34.524  15.933   5.608
 4846POPC   GL262474  34.856  15.888   5.717
 4846POPC   C1A62475  34.598  16.198   6.029
 4846POPC   D2A62476  34.425  16.158   6.464
 4846POPC   C3A62477  34.582  16.125   6.902
 4846POPC   C4A62478  34.290  16.147   7.269
 4846POPC   C1B62479  34.963  15.895   6.207
 4846POPC   C2B62480  35.017  15.875   6.682
 4846POPC   C3B62481  34.950  15.797   7.145
 4846POPC   C4B62482  34.774  15.802   7.617
 4847POPC   NC362483  32.281  10.361   5.278
 4847POPC   PO462484  31.641  10.324   5.371
 4847POPC   GL162485  31.973  10.323   5.705
 4847POPC   GL262486  32.217  10.640   5.716
 4847POPC   C1A62487  32.242  10.311   6.087
 4847POPC   D2A62488  32.224  10.482   6.484
 4847POPC   C3A62489  32.340  10.221   6.829
 4847POPC   C4A62490  32.214  10.433   7.189
 4847POPC   C1B62491  32.528  10.781   6.066
 4847POPC   C2B62492  32.723  10.742   6.487
 4847POPC   C3B62493  32.509  10.712   6.859
 4847POPC   C4B62494  32.632  10.734   7.258
 4848POPC   NC362495  38.812  14.795   5.407
 4848POPC   PO462496  39.386  14.411   5.520
 4848POPC   GL162497  39.177  14.424   5.877
 4848POPC   GL262498  39.150  14.066   5.947
 4848POPC   C1A62499  39.227  14.504   6.309
 4848POPC   D2A62500  39.536  14.313   6.587
 4848POPC   C3A62501  39.390  14.378   7.006
 4848POPC   C4A62502  39.181  14.456   7.392
 4848POPC   C1B62503  38.900  14.122   6.254
 4848POPC   C2B62504  38.980  14.243   6.691
 4848POPC   C3B62505  38.875  14.140   7.121
 4848POPC   C4B62506  38.792  14.203   7.601
 4849POPC   NC362507  14.682  37.391   5.510
 4849POPC   PO462508  14.328  36.847   5.443
 4849POPC   GL162509  14.184  36.893   5.863
 4849POPC   GL262510  14.157  36.528   5.867
 4849POPC   C1A62511  14.195  37.142   6.294
 4849POPC   D2A62512  14.466  37.046   6.709
 4849POPC   C3A62513  14.350  37.266   7.114
 4849POPC   C4A62514  14.044  37.145   7.435
 4849POPC   C1B62515  14.315  36.664   6.293
 4849POPC   C2B62516  14.014  36.826   6.673
 4849POPC   C3B62517  14.167  36.788   7.101
 4849POPC   C4B62518  14.624  36.821   7.213
 4850POPC   NC362519  32.626  16.556   5.666
 4850POPC   PO462520  33.121  16.668   5.173
 4850POPC   GL162521  33.121  16.855   5.564
 4850POPC   GL262522  33.145  16.519   5.673
 4850POPC   C1A62523  33.127  16.884   6.036
 4850POPC   D2A62524  32.901  16.607   6.335
 4850POPC   C3A62525  33.012  16.645   6.772
 4850POPC   C4A62526  32.918  16.675   7.204
 4850POPC   C1B62527  33.325  16.401   6.041
 4850POPC   C2B62528  33.406  16.430   6.457
 4850POPC   C3B62529  33.385  16.323   6.863
 4850POPC   C4B62530  33.426  16.571   7.237
 4851POPC   NC362531   7.871  13.852   5.439
 4851POPC   PO462532   8.492  13.445   5.323
 4851POPC   GL162533   8.248  13.596   5.697
 4851POPC   GL262534   8.315  13.944   5.790
 4851POPC   C1A62535   8.339  13.513   6.156
 4851POPC   D2A62536   8.173  13.193   6.472
 4851POPC   C3A62537   8.175  13.341   6.917
 4851POPC   C4A62538   7.939  13.385   7.305
 4851POPC   C1B62539   8.171  14.005   6.261
 4851POPC   C2B62540   8.062  14.035   6.717
 4851POPC   C3B62541   7.964  13.842   7.099
 4851POPC   C4B62542   7.846  13.882   7.549
 4852POPC   NC362543  24.461  31.573   5.387
 4852POPC   PO462544  24.978  31.182   5.444
 4852POPC   GL162545  24.621  31.262   5.771
 4852POPC   GL262546  24.260  31.411   5.817
 4852POPC   C1A62547  24.495  31.101   6.182
 4852POPC   D2A62548  24.534  31.266   6.607
 4852POPC   C3A62549  24.624  31.634   6.814
 4852POPC   C4A62550  24.686  31.646   7.264
 4852POPC   C1B62551  24.229  31.558   6.248
 4852POPC   C2B62552  24.044  31.502   6.658
 4852POPC   C3B62553  24.182  31.583   7.065
 4852POPC   C4B62554  24.195  31.649   7.499
 4853POPC   NC362555  41.039  13.386   5.061
 4853POPC   PO462556  41.675  13.465   5.370
 4853POPC   GL162557  41.597  13.624   5.822
 4853POPC   GL262558  41.819  13.899   5.867
 4853POPC   C1A62559  41.437  13.722   6.255
 4853POPC   D2A62560  41.654  13.889   6.632
 4853POPC   C3A62561  41.479  13.795   7.030
 4853POPC   C4A62562  41.245  13.453   7.213
 4853POPC   C1B62563  41.929  13.650   6.247
 4853POPC   C2B62564  41.751  13.278   6.467
 4853POPC   C3B62565  41.705  13.374   6.896
 4853POPC   C4B62566  41.975  13.712   7.025
 4854POPC   NC362567  29.253  30.439   5.631
 4854POPC   PO462568  29.033  31.057   5.475
 4854POPC   GL162569  29.151  30.938   5.848
 4854POPC   GL262570  29.473  30.892   5.820
 4854POPC   C1A62571  29.118  30.688   6.236
 4854POPC   D2A62572  28.846  30.626   6.587
 4854POPC   C3A62573  28.961  30.482   7.003
 4854POPC   C4A62574  29.081  30.695   7.369
 4854POPC   C1B62575  29.395  31.125   6.236
 4854POPC   C2B62576  29.221  31.019   6.634
 4854POPC   C3B62577  29.401  30.715   6.906
 4854POPC   C4B62578  29.587  30.763   7.295
 4855POPC   NC362579  37.406   1.471   5.605
 4855POPC   PO462580  36.805   1.063   5.461
 4855POPC   GL162581  37.013   1.184   5.810
 4855POPC   GL262582  36.891   1.519   5.711
 4855POPC   C1A62583  36.908   1.076   6.249
 4855POPC   D2A62584  36.683   1.065   6.659
 4855POPC   C3A62585  37.010   1.125   6.972
 4855POPC   C4A62586  37.197   1.032   7.367
 4855POPC   C1B62587  36.847   1.594   6.151
 4855POPC   C2B62588  36.908   1.519   6.592
 4855POPC   C3B62589  36.720   1.538   7.010
 4855POPC   C4B62590  36.708   1.244   7.366
 4856POPC   NC362591   0.560  24.652   5.510
 4856POPC   PO462592  44.923  24.724   5.454
 4856POPC   GL162593   0.155  24.593   5.842
 4856POPC   GL262594   0.114  24.267   5.933
 4856POPC   C1A62595   0.305  24.597   6.298
 4856POPC   D2A62596   0.730  24.533   6.496
 4856POPC   C3A62597   0.697  24.598   6.931
 4856POPC   C4A62598   0.310  24.709   7.077
 4856POPC   C1B62599   0.349  24.086   6.266
 4856POPC   C2B62600   0.411  23.874   6.640
 4856POPC   C3B62601   0.411  24.100   6.987
 4856POPC   C4B62602   0.174  24.277   7.308
 4857POPC   NC362603  27.490  30.123   5.267
 4857POPC   PO462604  28.047  29.997   5.279
 4857POPC   GL162605  27.714  29.939   5.687
 4857POPC   GL262606  27.346  30.024   5.751
 4857POPC   C1A62607  27.630  29.875   6.135
 4857POPC   D2A62608  27.696  30.051   6.525
 4857POPC   C3A62609  27.700  29.862   6.917
 4857POPC   C4A62610  27.603  29.644   7.298
 4857POPC   C1B62611  27.130  29.870   6.149
 4857POPC   C2B62612  27.210  29.914   6.629
 4857POPC   C3B62613  27.220  29.973   7.090
 4857POPC   C4B62614  27.150  30.189   7.488
 4858POPC   NC362615  32.245  15.651   5.473
 4858POPC   PO462616  32.208  16.397   5.476
 4858POPC   GL162617  32.235  16.129   5.810
 4858POPC   GL262618  31.978  15.911   5.877
 4858POPC   C1A62619  32.182  16.154   6.267
 4858POPC   D2A62620  32.328  16.273   6.672
 4858POPC   C3A62621  32.039  16.263   7.005
 4858POPC   C4A62622  32.232  16.094   7.371
 4858POPC   C1B62623  31.891  15.718   6.263
 4858POPC   C2B62624  32.078  15.793   6.656
 4858POPC   C3B62625  31.997  15.757   7.067
 4858POPC   C4B62626  31.969  15.625   7.460
 4859POPC   NC362627   0.137  12.542   5.449
 4859POPC   PO462628   0.484  13.045   5.157
 4859POPC   GL162629   0.455  12.935   5.625
 4859POPC   GL262630   0.339  13.206   5.864
 4859POPC   C1A62631   0.409  12.742   6.063
 4859POPC   D2A62632   0.412  12.670   6.520
 4859POPC   C3A62633   0.216  12.848   6.862
 4859POPC   C4A62634   0.098  12.822   7.310
 4859POPC   C1B62635   0.504  13.193   6.324
 4859POPC   C2B62636   0.802  13.328   6.663
 4859POPC   C3B62637   0.873  13.103   7.040
 4859POPC   C4B62638   0.576  12.871   7.238
 4860POPC   NC362639   8.294  18.861   5.143
 4860POPC   PO462640   8.049  19.401   5.517
 4860POPC   GL162641   8.299  19.236   5.846
 4860POPC   GL262642   8.080  19.430   6.064
 4860POPC   C1A62643   8.555  19.016   6.169
 4860POPC   D2A62644   8.553  18.732   6.533
 4860POPC   C3A62645   8.561  18.941   6.922
 4860POPC   C4A62646   8.488  19.195   7.276
 4860POPC   C1B62647   8.067  19.059   6.330
 4860POPC   C2B62648   8.091  18.992   6.756
 4860POPC   C3B62649   7.996  19.229   7.109
 4860POPC   C4B62650   8.053  19.433   7.499
 4861POPC   NC362651  17.814  24.303   5.136
 4861POPC   PO462652  17.243  24.258   5.482
 4861POPC   GL162653  17.478  24.344   5.830
 4861POPC   GL262654  17.619  24.652   5.742
 4861POPC   C1A62655  17.417  24.264   6.263
 4861POPC   D2A62656  17.100  24.332   6.572
 4861POPC   C3A62657  17.334  24.304   6.937
 4861POPC   C4A62658  17.712  24.230   7.164
 4861POPC   C1B62659  17.418  24.763   6.154
 4861POPC   C2B62660  17.484  24.675   6.598
 4861POPC   C3B62661  17.614  24.726   7.040
 4861POPC   C4B62662  17.557  25.008   7.392
 4862POPC   NC362663  29.730  35.366   5.253
 4862POPC   PO462664  30.149  34.825   5.254
 4862POPC   GL162665  30.099  34.983   5.722
 4862POPC   GL262666  29.855  35.263   5.751
 4862POPC   C1A62667  30.256  35.089   6.201
 4862POPC   D2A62668  30.221  35.418   6.573
 4862POPC   C3A62669  29.969  35.333   6.989
 4862POPC   C4A62670  30.062  35.347   7.456
 4862POPC   C1B62671  29.795  35.303   6.198
 4862POPC   C2B62672  29.713  35.500   6.583
 4862POPC   C3B62673  29.479  35.476   6.949
 4862POPC   C4B62674  29.561  35.437   7.387
 4863POPC   NC362675  13.100  18.669   5.430
 4863POPC   PO462676  12.639  18.138   5.440
 4863POPC   GL162677  12.751  18.342   5.796
 4863POPC   GL262678  13.089  18.287   5.766
 4863POPC   C1A62679  12.816  18.622   6.164
 4863POPC   D2A62680  13.091  18.697   6.550
 4863POPC   C3A62681  12.826  18.598   6.920
 4863POPC   C4A62682  12.452  18.341   7.000
 4863POPC   C1B62683  13.163  18.253   6.189
 4863POPC   C2B62684  12.970  18.197   6.585
 4863POPC   C3B62685  12.888  18.086   6.986
 4863POPC   C4B62686  12.897  18.321   7.361
 4864POPC   NC362687  29.310  28.018   5.462
 4864POPC   PO462688  28.835  28.493   5.491
 4864POPC   GL162689  29.135  28.378   5.786
 4864POPC   GL262690  29.006  28.088   5.894
 4864POPC   C1A62691  29.294  28.429   6.186
 4864POPC   D2A62692  29.132  28.542   6.588
 4864POPC   C3A62693  29.310  28.478   6.963
 4864POPC   C4A62694  29.201  28.459   7.378
 4864POPC   C1B62695  28.865  28.189   6.309
 4864POPC   C2B62696  28.760  28.188   6.740
 4864POPC   C3B62697  28.894  28.111   7.161
 4864POPC   C4B62698  28.589  28.070   7.480
 4865POPC   NC362699  25.554  34.756   5.184
 4865POPC   PO462700  25.070  35.003   5.582
 4865POPC   GL162701  25.273  34.648   5.783
 4865POPC   GL262702  25.056  34.379   5.849
 4865POPC   C1A62703  25.409  34.515   6.195
 4865POPC   D2A62704  25.302  34.807   6.513
 4865POPC   C3A62705  25.426  34.700   6.905
 4865POPC   C4A62706  25.226  34.655   7.277
 4865POPC   C1B62707  24.933  34.435   6.302
 4865POPC   C2B62708  25.199  34.310   6.666
 4865POPC   C3B62709  25.036  34.240   7.087
 4865POPC   C4B62710  24.628  34.261   7.207
 4866POPC   NC362711  12.485  38.171   5.076
 4866POPC   PO462712  12.874  38.366   5.578
 4866POPC   GL162713  12.796  38.231   5.976
 4866POPC   GL262714  12.506  38.415   6.066
 4866POPC   C1A62715  12.902  38.243   6.418
 4866POPC   D2A62716  12.875  38.605   6.671
 4866POPC   C3A62717  12.876  38.511   7.100
 4866POPC   C4A62718  12.917  38.436   7.559
 4866POPC   C1B62719  12.428  38.085   6.398
 4866POPC   C2B62720  12.550  38.223   6.831
 4866POPC   C3B62721  12.614  38.115   7.265
 4866POPC   C4B62722  12.664  38.039   7.744
 4867POPC   NC362723  43.801  40.835   5.355
 4867POPC   PO462724  44.521  40.718   5.273
 4867POPC   GL162725  44.296  40.893   5.712
 4867POPC   GL262726  43.958  40.981   5.814
 4867POPC   C1A62727  44.282  40.790   6.170
 4867POPC   D2A62728  43.985  40.860   6.505
 4867POPC   C3A62729  43.969  40.631   6.881
 4867POPC   C4A62730  43.679  40.583   7.252
 4867POPC   C1B62731  43.755  41.183   6.177
 4867POPC   C2B62732  43.487  41.071   6.551
 4867POPC   C3B62733  43.533  41.033   6.989
 4867POPC   C4B62734  43.935  41.041   7.200
 4868POPC   NC362735  44.062  20.213   5.016
 4868POPC   PO462736  43.769  19.674   5.328
 4868POPC   GL162737  43.855  19.817   5.773
 4868POPC   GL262738  43.547  19.868   5.960
 4868POPC   C1A62739  44.095  19.764   6.183
 4868POPC   D2A62740  44.096  19.545   6.574
 4868POPC   C3A62741  44.023  19.758   6.966
 4868POPC   C4A62742  44.008  19.740   7.404
 4868POPC   C1B62743  43.627  19.776   6.379
 4868POPC   C2B62744  43.510  19.949   6.763
 4868POPC   C3B62745  43.566  19.827   7.185
 4868POPC   C4B62746  43.661  20.085   7.550
 4869POPC   NC362747  33.751   9.577   5.622
 4869POPC   PO462748  33.216   9.706   5.223
 4869POPC   GL162749  33.237   9.758   5.682
 4869POPC   GL262750  33.268   9.387   5.654
 4869POPC   C1A62751  33.029   9.899   6.114
 4869POPC   D2A62752  32.792   9.943   6.540
 4869POPC   C3A62753  33.055   9.905   6.919
 4869POPC   C4A62754  32.917   9.734   7.315
 4869POPC   C1B62755  33.289   9.458   6.107
 4869POPC   C2B62756  33.039   9.489   6.485
 4869POPC   C3B62757  32.992   9.400   6.910
 4869POPC   C4B62758  33.209   9.323   7.302
 4870POPC   NC362759  16.211  35.817   5.339
 4870POPC   PO462760  15.756  36.224   5.424
 4870POPC   GL162761  15.890  35.941   5.786
 4870POPC   GL262762  16.215  35.802   5.853
 4870POPC   C1A62763  15.951  36.051   6.259
 4870POPC   D2A62764  15.844  36.185   6.687
 4870POPC   C3A62765  15.996  36.122   7.127
 4870POPC   C4A62766  15.950  36.446   7.455
 4870POPC   C1B62767  16.354  35.752   6.287
 4870POPC   C2B62768  16.288  35.888   6.721
 4870POPC   C3B62769  16.308  35.709   7.135
 4870POPC   C4B62770  16.127  35.776   7.545
 4871POPC   NC362771  31.152  36.657   5.530
 4871POPC   PO462772  31.557  37.173   5.415
 4871POPC   GL162773  31.565  36.919   5.751
 4871POPC   GL262774  31.238  37.074   5.855
 4871POPC   C1A62775  31.540  36.816   6.183
 4871POPC   D2A62776  31.349  37.024   6.534
 4871POPC   C3A62777  31.549  36.838   6.886
 4871POPC   C4A62778  31.802  36.748   7.243
 4871POPC   C1B62779  30.961  37.193   6.215
 4871POPC   C2B62780  30.870  37.305   6.648
 4871POPC   C3B62781  31.077  37.082   6.991
 4871POPC   C4B62782  31.332  36.931   7.336
 4872POPC   NC362783  31.312  22.476   5.344
 4872POPC   PO462784  31.629  21.950   5.556
 4872POPC   GL162785  31.494  22.250   5.860
 4872POPC   GL262786  31.114  22.391   5.807
 4872POPC   C1A62787  31.679  22.204   6.296
 4872POPC   D2A62788  31.794  22.118   6.727
 4872POPC   C3A62789  31.492  22.066   7.041
 4872POPC   C4A62790  31.627  22.004   7.454
 4872POPC   C1B62791  31.105  22.261   6.237
 4872POPC   C2B62792  31.312  22.376   6.630
 4872POPC   C3B62793  31.194  22.480   7.046
 4872POPC   C4B62794  31.266  22.354   7.473
 4873POPC   NC362795  32.836  41.195   5.368
 4873POPC   PO462796  33.184  40.655   5.350
 4873POPC   GL162797  33.173  40.758   5.808
 4873POPC   GL262798  32.877  40.941   5.843
 4873POPC   C1A62799  33.091  40.604   6.278
 4873POPC   D2A62800  33.130  40.415   6.730
 4873POPC   C3A62801  33.086  40.691   7.118
 4873POPC   C4A62802  32.801  40.631   7.478
 4873POPC   C1B62803  32.898  41.079   6.273
 4873POPC   C2B62804  32.842  40.874   6.686
 4873POPC   C3B62805  32.659  40.982   7.100
 4873POPC   C4B62806  32.670  41.157   7.518
 4874POPC   NC362807  42.222   9.201   5.512
 4874POPC   PO462808  42.047   8.559   5.532
 4874POPC   GL162809  42.222   8.804   5.876
 4874POPC   GL262810  41.965   9.051   5.920
 4874POPC   C1A62811  42.460   8.787   6.292
 4874POPC   D2A62812  42.678   8.673   6.698
 4874POPC   C3A62813  42.484   8.754   7.091
 4874POPC   C4A62814  42.663   8.559   7.441
 4874POPC   C1B62815  42.299   9.257   6.162
 4874POPC   C2B62816  42.168   9.226   6.571
 4874POPC   C3B62817  42.355   9.255   6.973
 4874POPC   C4B62818  42.121   9.143   7.318
 4875POPC   NC362819   6.003  19.319   5.564
 4875POPC   PO462820   5.368  19.522   5.573
 4875POPC   GL162821   5.632  19.329   5.931
 4875POPC   GL262822   6.013  19.305   6.073
 4875POPC   C1A62823   5.634  19.030   6.283
 4875POPC   D2A62824   5.897  19.135   6.623
 4875POPC   C3A62825   5.677  19.155   7.023
 4875POPC   C4A62826   5.787  19.374   7.412
 4875POPC   C1B62827   6.180  18.899   6.258
 4875POPC   C2B62828   6.215  18.687   6.662
 4875POPC   C3B62829   6.126  18.927   7.030
 4875POPC   C4B62830   5.949  18.845   7.445
 4876POPC   NC362831  10.553   2.759   5.396
 4876POPC   PO462832  10.011   2.321   5.403
 4876POPC   GL162833  10.229   2.602   5.765
 4876POPC   GL262834  10.595   2.549   5.867
 4876POPC   C1A62835  10.267   2.724   6.233
 4876POPC   D2A62836  10.278   3.047   6.578
 4876POPC   C3A62837  10.427   2.975   7.014
 4876POPC   C4A62838  10.573   3.036   7.449
 4876POPC   C1B62839  10.781   2.548   6.302
 4876POPC   C2B62840  10.649   2.557   6.753
 4876POPC   C3B62841  10.732   2.584   7.212
 4876POPC   C4B62842  10.474   2.545   7.621
 4877POPC   NC362843  22.277  36.458   5.492
 4877POPC   PO462844  22.396  35.758   5.644
 4877POPC   GL162845  22.427  36.110   5.902
 4877POPC   GL262846  22.121  36.281   5.932
 4877POPC   C1A62847  22.315  36.029   6.330
 4877POPC   D2A62848  22.346  36.207   6.736
 4877POPC   C3A62849  22.279  35.952   7.101
 4877POPC   C4A62850  21.980  35.925   7.398
 4877POPC   C1B62851  22.145  36.511   6.298
 4877POPC   C2B62852  22.041  36.649   6.701
 4877POPC   C3B62853  22.084  36.452   7.107
 4877POPC   C4B62854  22.150  36.384   7.537
 4878POPC   NC362855  19.253  11.089   5.458
 4878POPC   PO462856  18.736  11.521   5.207
 4878POPC   GL162857  18.823  11.368   5.645
 4878POPC   GL262858  19.159  11.530   5.716
 4878POPC   C1A62859  18.977  11.232   6.097
 4878POPC   D2A62860  19.092  11.421   6.509
 4878POPC   C3A62861  19.243  11.160   6.862
 4878POPC   C4A62862  19.027  11.125   7.288
 4878POPC   C1B62863  19.411  11.548   6.091
 4878POPC   C2B62864  19.596  11.400   6.467
 4878POPC   C3B62865  19.532  11.612   6.857
 4878POPC   C4B62866  19.459  11.426   7.251
 4879POPC   NC362867   3.911  27.253   5.395
 4879POPC   PO462868   3.334  26.743   5.302
 4879POPC   GL162869   3.367  26.797   5.756
 4879POPC   GL262870   3.555  27.103   5.860
 4879POPC   C1A62871   3.439  26.634   6.163
 4879POPC   D2A62872   3.520  26.816   6.568
 4879POPC   C3A62873   3.385  26.699   6.960
 4879POPC   C4A62874   3.682  26.534   7.216
 4879POPC   C1B62875   3.335  27.148   6.212
 4879POPC   C2B62876   3.128  27.120   6.553
 4879POPC   C3B62877   3.312  27.200   6.934
 4879POPC   C4B62878   3.659  27.082   7.190
 4880POPC   NC362879  32.414  35.512   5.126
 4880POPC   PO462880  31.910  35.124   5.134
 4880POPC   GL162881  31.961  35.338   5.604
 4880POPC   GL262882  32.340  35.427   5.629
 4880POPC   C1A62883  32.104  35.320   6.072
 4880POPC   D2A62884  32.190  35.531   6.481
 4880POPC   C3A62885  32.070  35.342   6.862
 4880POPC   C4A62886  32.122  35.386   7.314
 4880POPC   C1B62887  32.503  35.649   6.020
 4880POPC   C2B62888  32.689  35.595   6.427
 4880POPC   C3B62889  32.581  35.488   6.833
 4880POPC   C4B62890  32.529  35.666   7.206
 4881POPC   NC362891  32.815  44.046   5.360
 4881POPC   PO462892  33.466  43.851   5.430
 4881POPC   GL162893  33.205  44.055   5.740
 4881POPC   GL262894  33.007  43.752   5.759
 4881POPC   C1A62895  33.139  43.933   6.219
 4881POPC   D2A62896  33.142  43.581   6.570
 4881POPC   C3A62897  33.202  43.780   6.973
 4881POPC   C4A62898  32.979  44.168   6.965
 4881POPC   C1B62899  32.724  43.601   6.085
 4881POPC   C2B62900  32.631  43.482   6.502
 4881POPC   C3B62901  32.695  43.626   6.913
 4881POPC   C4B62902  32.773  43.825   7.287
 4882POPC   NC362903  38.948   4.744   5.528
 4882POPC   PO462904  38.420   5.136   5.467
 4882POPC   GL162905  38.328   5.043   5.843
 4882POPC   GL262906  38.712   5.039   5.920
 4882POPC   C1A62907  38.248   5.056   6.264
 4882POPC   D2A62908  38.524   5.007   6.575
 4882POPC   C3A62909  38.344   5.115   6.964
 4882POPC   C4A62910  38.526   5.361   7.300
 4882POPC   C1B62911  38.552   4.660   6.128
 4882POPC   C2B62912  38.502   4.481   6.542
 4882POPC   C3B62913  38.583   4.646   6.945
 4882POPC   C4B62914  38.420   4.651   7.355
 4883POPC   NC362915  24.238  39.052   5.461
 4883POPC   PO462916  24.666  38.453   5.273
 4883POPC   GL162917  24.611  38.393   5.705
 4883POPC   GL262918  24.620  38.754   5.798
 4883POPC   C1A62919  24.750  38.351   6.145
 4883POPC   D2A62920  24.884  38.644   6.474
 4883POPC   C3A62921  24.787  38.589   6.927
 4883POPC   C4A62922  24.758  38.802   7.342
 4883POPC   C1B62923  24.341  38.704   6.178
 4883POPC   C2B62924  24.347  38.580   6.638
 4883POPC   C3B62925  24.261  38.438   7.078
 4883POPC   C4B62926  24.349  38.488   7.517
 4884POPC   NC362927  32.412  12.552   5.173
 4884POPC   PO462928  32.259  13.171   5.417
 4884POPC   GL162929  32.243  12.813   5.728
 4884POPC   GL262930  32.423  12.485   5.704
 4884POPC   C1A62931  32.035  12.783   6.138
 4884POPC   D2A62932  32.012  13.024   6.508
 4884POPC   C3A62933  32.162  12.905   6.892
 4884POPC   C4A62934  32.133  12.855   7.324
 4884POPC   C1B62935  32.402  12.421   6.162
 4884POPC   C2B62936  32.464  12.608   6.596
 4884POPC   C3B62937  32.466  12.533   7.071
 4884POPC   C4B62938  32.559  12.604   7.543
 4885POPC   NC362939  25.562   3.395   5.319
 4885POPC   PO462940  25.930   2.800   5.524
 4885POPC   GL162941  25.856   3.022   5.857
 4885POPC   GL262942  26.146   3.187   5.944
 4885POPC   C1A62943  26.009   2.822   6.261
 4885POPC   D2A62944  26.231   2.706   6.668
 4885POPC   C3A62945  26.031   2.565   7.072
 4885POPC   C4A62946  25.968   2.776   7.473
 4885POPC   C1B62947  25.885   3.318   6.272
 4885POPC   C2B62948  25.810   3.228   6.669
 4885POPC   C3B62949  26.029   3.062   7.000
 4885POPC   C4B62950  26.214   3.229   7.368
 4886POPC   NC362951  38.660  43.396   5.219
 4886POPC   PO462952  38.352  42.918   5.509
 4886POPC   GL162953  38.277  43.066   5.915
 4886POPC   GL262954  38.622  43.206   5.865
 4886POPC   C1A62955  37.946  42.993   6.256
 4886POPC   D2A62956  37.894  42.757   6.652
 4886POPC   C3A62957  38.206  42.898   6.951
 4886POPC   C4A62958  38.468  42.814   7.287
 4886POPC   C1B62959  38.720  43.252   6.322
 4886POPC   C2B62960  38.777  42.981   6.694
 4886POPC   C3B62961  38.845  43.124   7.101
 4886POPC   C4B62962  38.949  43.475   7.286
 4887POPC   NC362963  28.186  26.639   5.710
 4887POPC   PO462964  28.751  26.953   5.441
 4887POPC   GL162965  28.627  26.777   5.866
 4887POPC   GL262966  28.386  27.045   5.973
 4887POPC   C1A62967  28.439  26.658   6.305
 4887POPC   D2A62968  28.339  26.891   6.666
 4887POPC   C3A62969  28.419  26.644   7.023
 4887POPC   C4A62970  28.523  26.875   7.379
 4887POPC   C1B62971  28.005  26.940   6.248
 4887POPC   C2B62972  27.837  26.780   6.660
 4887POPC   C3B62973  27.985  26.914   7.082
 4887POPC   C4B62974  28.035  26.861   7.526
 4888POPC   NC362975  11.681  36.506   5.578
 4888POPC   PO462976  12.195  36.119   5.356
 4888POPC   GL162977  11.959  36.124   5.730
 4888POPC   GL262978  12.180  36.337   5.867
 4888POPC   C1A62979  11.818  36.210   6.181
 4888POPC   D2A62980  11.994  36.202   6.594
 4888POPC   C3A62981  11.764  36.217   6.989
 4888POPC   C4A62982  11.992  36.156   7.336
 4888POPC   C1B62983  12.395  36.260   6.251
 4888POPC   C2B62984  12.489  36.348   6.674
 4888POPC   C3B62985  12.444  36.110   7.051
 4888POPC   C4B62986  12.516  36.139   7.506
 4889POPC   NC362987  44.603  19.576   5.429
 4889POPC   PO462988  44.388  20.178   5.331
 4889POPC   GL162989  44.366  19.893   5.737
 4889POPC   GL262990  44.279  19.491   5.812
 4889POPC   C1A62991  44.637  19.862   6.089
 4889POPC   D2A62992  44.482  20.060   6.445
 4889POPC   C3A62993  44.504  19.874   6.833
 4889POPC   C4A62994  44.705  19.976   7.239
 4889POPC   C1B62995  44.470  19.402   6.242
 4889POPC   C2B62996  44.818  19.490   6.546
 4889POPC   C3B62997  44.846  19.538   7.000
 4889POPC   C4B62998  44.426  19.538   7.218
 4890POPC   NC362999  23.029   7.307   5.346
 4890POPC   PO463000  22.457   6.934   5.590
 4890POPC   GL163001  22.706   7.293   5.787
 4890POPC   GL263002  23.086   7.301   5.891
 4890POPC   C1A63003  22.663   7.345   6.224
 4890POPC   D2A63004  22.608   7.090   6.600
 4890POPC   C3A63005  22.652   7.283   7.009
 4890POPC   C4A63006  22.933   7.427   7.308
 4890POPC   C1B63007  23.147   7.339   6.359
 4890POPC   C2B63008  23.068   7.512   6.784
 4890POPC   C3B63009  23.236   7.791   7.130
 4890POPC   C4B63010  23.228   7.705   7.611
 4891POPC   NC363011  41.953  14.572   5.254
 4891POPC   PO463012  42.659  14.713   5.409
 4891POPC   GL163013  42.487  14.519   5.764
 4891POPC   GL263014  42.124  14.457   5.815
 4891POPC   C1A63015  42.510  14.461   6.203
 4891POPC   D2A63016  42.202  14.516   6.536
 4891POPC   C3A63017  42.415  14.491   6.919
 4891POPC   C4A63018  42.692  14.364   7.247
 4891POPC   C1B63019  42.095  14.159   6.184
 4891POPC   C2B63020  42.158  13.997   6.615
 4891POPC   C3B63021  41.938  14.214   6.947
 4891POPC   C4B63022  42.082  14.427   7.303
 4892POPC   NC363023  20.353  35.973   5.372
 4892POPC   PO463024  20.914  36.435   5.362
 4892POPC   GL163025  20.652  36.238   5.718
 4892POPC   GL263026  20.659  35.844   5.767
 4892POPC   C1A63027  20.547  36.147   6.172
 4892POPC   D2A63028  20.751  36.049   6.569
 4892POPC   C3A63029  20.534  36.076   6.989
 4892POPC   C4A63030  20.426  35.915   7.397
 4892POPC   C1B63031  20.953  35.794   6.131
 4892POPC   C2B63032  21.062  35.651   6.575
 4892POPC   C3B63033  20.968  35.803   6.979
 4892POPC   C4B63034  20.891  35.683   7.400
 4893POPC   NC363035   0.036  19.105   5.288
 4893POPC   PO463036   0.630  18.854   5.287
 4893POPC   GL163037   0.567  18.995   5.691
 4893POPC   GL263038   0.240  19.054   5.757
 4893POPC   C1A63039   0.589  19.336   6.014
 4893POPC   D2A63040   0.300  19.419   6.353
 4893POPC   C3A63041   0.474  19.394   6.762
 4893POPC   C4A63042   0.707  19.298   7.155
 4893POPC   C1B63043   0.357  18.884   6.162
 4893POPC   C2B63044   0.473  18.688   6.526
 4893POPC   C3B63045   0.481  18.897   6.916
 4893POPC   C4B63046   0.179  19.171   7.116
 4894POPC   NC363047   4.950  28.510   5.261
 4894POPC   PO463048   5.041  27.922   5.519
 4894POPC   GL163049   5.085  28.238   5.870
 4894POPC   GL263050   5.048  28.587   5.775
 4894POPC   C1A63051   5.075  28.364   6.322
 4894POPC   D2A63052   4.966  28.476   6.751
 4894POPC   C3A63053   5.199  28.357   7.123
 4894POPC   C4A63054   5.412  27.954   7.180
 4894POPC   C1B63055   4.702  28.625   6.081
 4894POPC   C2B63056   4.548  28.683   6.508
 4894POPC   C3B63057   4.651  28.810   6.943
 4894POPC   C4B63058   4.771  28.587   7.313
 4895POPC   NC363059  42.172  22.867   5.328
 4895POPC   PO463060  42.717  23.084   5.540
 4895POPC   GL163061  42.370  23.069   5.794
 4895POPC   GL263062  42.488  22.729   5.834
 4895POPC   C1A63063  42.228  23.286   6.190
 4895POPC   D2A63064  42.406  23.329   6.616
 4895POPC   C3A63065  42.237  23.101   6.983
 4895POPC   C4A63066  42.426  23.014   7.405
 4895POPC   C1B63067  42.215  22.765   6.203
 4895POPC   C2B63068  42.192  22.552   6.614
 4895POPC   C3B63069  42.377  22.605   7.016
 4895POPC   C4B63070  42.094  22.654   7.317
 4896POPC   NC363071  31.788  24.567   5.422
 4896POPC   PO463072  32.398  24.627   5.249
 4896POPC   GL163073  32.357  24.467   5.690
 4896POPC   GL263074  32.028  24.529   5.869
 4896POPC   C1A63075  32.424  24.337   6.141
 4896POPC   D2A63076  32.135  24.442   6.475
 4896POPC   C3A63077  32.272  24.582   6.850
 4896POPC   C4A63078  32.141  24.414   7.227
 4896POPC   C1B63079  32.015  24.856   6.192
 4896POPC   C2B63080  31.882  24.896   6.633
 4896POPC   C3B63081  31.947  24.865   7.105
 4896POPC   C4B63082  32.007  25.006   7.544
 4897POPC   NC363083  11.234  37.273   5.287
 4897POPC   PO463084  11.298  36.575   5.322
 4897POPC   GL163085  11.294  36.822   5.748
 4897POPC   GL263086  11.261  37.224   5.794
 4897POPC   C1A63087  11.418  36.667   6.181
 4897POPC   D2A63088  11.190  36.628   6.573
 4897POPC   C3A63089  11.527  36.706   6.903
 4897POPC   C4A63090  11.379  36.815   7.319
 4897POPC   C1B63091  11.130  37.077   6.205
 4897POPC   C2B63092  11.421  37.068   6.545
 4897POPC   C3B63093  11.286  37.153   6.947
 4897POPC   C4B63094  11.344  37.324   7.318
 4898POPC   NC363095  36.811  19.538   5.452
 4898POPC   PO463096  36.635  20.087   5.219
 4898POPC   GL163097  36.745  20.010   5.709
 4898POPC   GL263098  36.781  19.672   5.935
 4898POPC   C1A63099  36.916  20.083   6.150
 4898POPC   D2A63100  36.803  19.848   6.521
 4898POPC   C3A63101  36.892  20.036   6.929
 4898POPC   C4A63102  37.244  20.059   7.162
 4898POPC   C1B63103  36.849  19.359   6.303
 4898POPC   C2B63104  37.062  19.272   6.665
 4898POPC   C3B63105  36.872  19.532   6.917
 4898POPC   C4B63106  36.848  19.691   7.315
 4899POPC   NC363107  39.758  14.688   5.570
 4899POPC   PO463108  40.188  14.155   5.468
 4899POPC   GL163109  39.979  14.304   5.843
 4899POPC   GL263110  39.644  14.264   5.984
 4899POPC   C1A63111  40.063  14.364   6.280
 4899POPC   D2A63112  40.163  14.133   6.636
 4899POPC   C3A63113  39.923  14.376   6.960
 4899POPC   C4A63114  40.140  14.708   7.198
 4899POPC   C1B63115  39.679  14.701   6.212
 4899POPC   C2B63116  39.802  14.794   6.634
 4899POPC   C3B63117  39.664  14.834   7.063
 4899POPC   C4B63118  39.692  14.564   7.424
 4900POPC   NC363119  34.317  10.255   5.558
 4900POPC   PO463120  33.649  10.467   5.395
 4900POPC   GL163121  33.767  10.399   5.802
 4900POPC   GL263122  34.063  10.594   5.899
 4900POPC   C1A63123  33.625  10.493   6.218
 4900POPC   D2A63124  33.823  10.725   6.527
 4900POPC   C3A63125  33.771  10.569   6.951
 4900POPC   C4A63126  33.643  10.814   7.281
 4900POPC   C1B63127  34.084  10.266   6.235
 4900POPC   C2B63128  33.836  10.155   6.611
 4900POPC   C3B63129  33.913  10.080   7.072
 4900POPC   C4B63130  33.940  10.012   7.504
 4901POPC   NC363131   5.362  43.184   5.249
 4901POPC   PO463132   4.672  43.055   5.390
 4901POPC   GL163133   4.949  43.059   5.749
 4901POPC   GL263134   4.920  42.698   5.729
 4901POPC   C1A63135   5.111  43.255   6.183
 4901POPC   D2A63136   5.186  43.453   6.635
 4901POPC   C3A63137   4.961  43.291   7.028
 4901POPC   C4A63138   5.021  43.414   7.494
 4901POPC   C1B63139   4.807  42.791   6.180
 4901POPC   C2B63140   4.993  42.952   6.580
 4901POPC   C3B63141   5.333  42.968   6.902
 4901POPC   C4B63142   5.212  42.960   7.357
 4902POPC   NC363143  10.330   9.730   5.389
 4902POPC   PO463144  10.852   9.390   5.597
 4902POPC   GL163145  10.636   9.658   5.915
 4902POPC   GL263146  10.270   9.722   5.890
 4902POPC   C1A63147  10.728  10.034   6.192
 4902POPC   D2A63148  10.987  10.071   6.572
 4902POPC   C3A63149  10.839   9.726   6.818
 4902POPC   C4A63150  10.582   9.651   7.191
 4902POPC   C1B63151  10.305   9.685   6.337
 4902POPC   C2B63152  10.063   9.870   6.663
 4902POPC   C3B63153  10.047   9.817   7.111
 4902POPC   C4B63154  10.147   9.577   7.468
 4903POPC   NC363155   5.726  39.845   5.130
 4903POPC   PO463156   5.999  40.452   5.203
 4903POPC   GL163157   5.926  40.288   5.656
 4903POPC   GL263158   5.772  39.926   5.689
 4903POPC   C1A63159   5.840  40.185   6.108
 4903POPC   D2A63160   5.816  39.998   6.501
 4903POPC   C3A63161   5.720  40.210   6.869
 4903POPC   C4A63162   5.947  40.083   7.223
 4903POPC   C1B63163   5.853  39.653   6.101
 4903POPC   C2B63164   5.638  39.517   6.499
 4903POPC   C3B63165   5.752  39.668   6.912
 4903POPC   C4B63166   5.792  39.633   7.349
 4904POPC   NC363167  39.013  34.573   5.496
 4904POPC   PO463168  39.628  34.257   5.491
 4904POPC   GL163169  39.359  34.435   5.844
 4904POPC   GL263170  39.015  34.342   5.944
 4904POPC   C1A63171  39.315  34.841   6.075
 4904POPC   D2A63172  39.304  34.983   6.522
 4904POPC   C3A63173  39.460  34.629   6.796
 4904POPC   C4A63174  39.400  34.449   7.202
 4904POPC   C1B63175  38.827  34.690   6.192
 4904POPC   C2B63176  38.786  34.867   6.601
 4904POPC   C3B63177  38.962  34.638   6.932
 4904POPC   C4B63178  38.836  34.457   7.296
 4905POPC   NC363179  20.527  24.424   5.040
 4905POPC   PO463180  20.917  24.795   5.339
 4905POPC   GL163181  20.702  24.765   5.768
 4905POPC   GL263182  20.632  24.409   5.851
 4905POPC   C1A63183  20.598  24.747   6.238
 4905POPC   D2A63184  20.585  24.421   6.580
 4905POPC   C3A63185  20.530  24.565   7.028
 4905POPC   C4A63186  20.784  24.794   7.309
 4905POPC   C1B63187  20.735  24.069   6.164
 4905POPC   C2B63188  20.644  23.897   6.568
 4905POPC   C3B63189  20.496  24.062   6.968
 4905POPC   C4B63190  20.383  24.189   7.406
 4906POPC   NC363191   5.406  32.219   5.483
 4906POPC   PO463192   5.978  31.829   5.512
 4906POPC   GL163193   5.760  31.985   5.847
 4906POPC   GL263194   5.737  32.352   5.846
 4906POPC   C1A63195   5.982  32.045   6.229
 4906POPC   D2A63196   5.996  32.227   6.608
 4906POPC   C3A63197   6.106  31.925   6.900
 4906POPC   C4A63198   5.884  32.010   7.223
 4906POPC   C1B63199   5.522  32.227   6.239
 4906POPC   C2B63200   5.536  32.466   6.616
 4906POPC   C3B63201   5.578  32.377   7.033
 4906POPC   C4B63202   5.364  32.053   7.209
 4907POPC   NC363203  20.059  31.361   5.394
 4907POPC   PO463204  19.757  31.956   5.392
 4907POPC   GL163205  19.837  31.620   5.763
 4907POPC   GL263206  20.143  31.410   5.888
 4907POPC   C1A63207  19.724  31.356   6.150
 4907POPC   D2A63208  19.940  31.251   6.546
 4907POPC   C3A63209  19.726  31.352   6.943
 4907POPC   C4A63210  19.377  31.505   7.232
 4907POPC   C1B63211  20.090  31.727   6.211
 4907POPC   C2B63212  19.989  31.846   6.619
 4907POPC   C3B63213  20.034  31.921   7.032
 4907POPC   C4B63214  19.845  31.680   7.316
 4908POPC   NC363215  21.262   1.075   5.072
 4908POPC   PO463216  21.697   1.346   5.553
 4908POPC   GL163217  21.419   1.000   5.741
 4908POPC   GL263218  21.109   1.101   5.854
 4908POPC   C1A63219  21.467   0.927   6.193
 4908POPC   D2A63220  21.458   1.276   6.504
 4908POPC   C3A63221  21.612   1.201   6.899
 4908POPC   C4A63222  21.446   1.310   7.284
 4908POPC   C1B63223  21.008   1.437   6.149
 4908POPC   C2B63224  21.010   1.544   6.573
 4908POPC   C3B63225  21.028   1.321   6.942
 4908POPC   C4B63226  20.989   1.571   7.293
 4909POPC   NC363227  29.296  15.557   5.492
 4909POPC   PO463228  28.805  15.081   5.426
 4909POPC   GL163229  29.076  15.174   5.756
 4909POPC   GL263230  28.919  15.503   5.821
 4909POPC   C1A63231  29.295  15.190   6.161
 4909POPC   D2A63232  29.286  14.907   6.541
 4909POPC   C3A63233  29.070  14.994   6.951
 4909POPC   C4A63234  29.333  15.232   7.225
 4909POPC   C1B63235  28.788  15.322   6.189
 4909POPC   C2B63236  28.992  15.333   6.582
 4909POPC   C3B63237  29.226  15.612   6.860
 4909POPC   C4B63238  29.256  15.718   7.295
 4910POPC   NC363239  21.154  37.894   5.433
 4910POPC   PO463240  21.738  37.516   5.567
 4910POPC   GL163241  21.382  37.616   5.817
 4910POPC   GL263242  21.442  37.960   5.855
 4910POPC   C1A63243  21.254  37.499   6.230
 4910POPC   D2A63244  21.440  37.554   6.635
 4910POPC   C3A63245  21.165  37.417   6.935
 4910POPC   C4A63246  21.024  37.560   7.327
 4910POPC   C1B63247  21.614  38.188   6.200
 4910POPC   C2B63248  21.529  38.065   6.614
 4910POPC   C3B63249  21.444  37.894   7.021
 4910POPC   C4B63250  21.702  38.034   7.339
 4911POPC   NC363251   3.763  21.872   5.770
 4911POPC   PO463252   3.417  21.436   5.317
 4911POPC   GL163253   3.496  21.425   5.759
 4911POPC   GL263254   3.701  21.149   5.834
 4911POPC   C1A63255   3.347  21.474   6.192
 4911POPC   D2A63256   3.285  21.264   6.579
 4911POPC   C3A63257   3.376  21.432   6.984
 4911POPC   C4A63258   3.319  21.673   7.429
 4911POPC   C1B63259   3.694  21.088   6.277
 4911POPC   C2B63260   3.907  21.261   6.615
 4911POPC   C3B63261   3.949  21.236   7.043
 4911POPC   C4B63262   3.648  21.153   7.311
 4912POPC   NC363263  19.875  30.383   5.289
 4912POPC   PO463264  19.702  31.066   5.383
 4912POPC   GL163265  19.972  30.945   5.723
 4912POPC   GL263266  20.049  30.585   5.720
 4912POPC   C1A63267  19.884  30.879   6.153
 4912POPC   D2A63268  19.580  30.894   6.483
 4912POPC   C3A63269  19.822  30.847   6.875
 4912POPC   C4A63270  19.726  30.956   7.289
 4912POPC   C1B63271  20.255  30.527   6.122
 4912POPC   C2B63272  20.202  30.722   6.540
 4912POPC   C3B63273  20.264  30.540   6.951
 4912POPC   C4B63274  19.929  30.492   7.273
 4913POPC   NC363275  33.220  14.448   5.578
 4913POPC   PO463276  33.864  14.290   5.374
 4913POPC   GL163277  33.969  14.403   5.770
 4913POPC   GL263278  34.183  14.693   5.769
 4913POPC   C1A63279  33.720  14.400   6.160
 4913POPC   D2A63280  33.517  14.273   6.548
 4913POPC   C3A63281  33.751  14.273   6.935
 4913POPC   C4A63282  33.649  14.387   7.348
 4913POPC   C1B63283  34.044  14.794   6.182
 4913POPC   C2B63284  34.013  14.555   6.578
 4913POPC   C3B63285  34.019  14.690   7.016
 4913POPC   C4B63286  34.098  14.563   7.444
 4914POPC   NC363287  15.072  21.522   5.416
 4914POPC   PO463288  14.955  20.900   5.625
 4914POPC   GL163289  15.203  21.260   5.836
 4914POPC   GL263290  15.385  21.618   5.801
 4914POPC   C1A63291  15.134  21.476   6.222
 4914POPC   D2A63292  15.267  21.401   6.626
 4914POPC   C3A63293  14.945  21.414   6.923
 4914POPC   C4A63294  15.017  21.269   7.328
 4914POPC   C1B63295  15.596  21.695   6.187
 4914POPC   C2B63296  15.538  21.830   6.632
 4914POPC   C3B63297  15.372  21.689   7.071
 4914POPC   C4B63298  15.456  21.483   7.489
 4915POPC   NC363299  28.262  36.877   5.357
 4915POPC   PO463300  28.357  37.544   5.338
 4915POPC   GL163301  28.372  37.163   5.768
 4915POPC   GL263302  28.292  36.785   5.855
 4915POPC   C1A63303  28.571  36.996   6.200
 4915POPC   D2A63304  28.564  36.811   6.653
 4915POPC   C3A63305  28.436  37.072   6.997
 4915POPC   C4A63306  28.020  37.035   7.143
 4915POPC   C1B63307  28.500  36.487   6.178
 4915POPC   C2B63308  28.346  36.234   6.525
 4915POPC   C3B63309  28.156  36.432   6.866
 4915POPC   C4B63310  28.377  36.620   7.190
 4916POPC   NC363311  13.919  13.812   5.383
 4916POPC   PO463312  13.712  14.516   5.367
 4916POPC   GL163313  13.492  14.385   5.751
 4916POPC   GL263314  13.380  14.031   5.804
 4916POPC   C1A63315  13.724  14.291   6.148
 4916POPC   D2A63316  13.951  14.319   6.553
 4916POPC   C3A63317  13.632  14.336   6.881
 4916POPC   C4A63318  13.621  14.107   7.245
 4916POPC   C1B63319  13.230  14.173   6.231
 4916POPC   C2B63320  13.144  14.285   6.674
 4916POPC   C3B63321  13.112  13.997   7.035
 4916POPC   C4B63322  13.163  13.999   7.461
 4917POPC   NC363323  27.553  33.448   5.556
 4917POPC   PO463324  27.168  32.824   5.500
 4917POPC   GL163325  27.412  33.032   5.787
 4917POPC   GL263326  27.738  32.971   5.691
 4917POPC   C1A63327  27.333  33.255   6.169
 4917POPC   D2A63328  27.240  33.158   6.578
 4917POPC   C3A63329  27.516  33.253   6.883
 4917POPC   C4A63330  27.484  33.093   7.284
 4917POPC   C1B63331  27.773  32.886   6.130
 4917POPC   C2B63332  27.945  32.961   6.537
 4917POPC   C3B63333  27.881  32.885   6.998
 4917POPC   C4B63334  27.972  33.198   7.335
 4918POPC   NC363335  31.159   7.589   5.141
 4918POPC   PO463336  30.637   7.223   5.388
 4918POPC   GL163337  30.651   7.139   5.841
 4918POPC   GL263338  30.676   7.516   5.937
 4918POPC   C1A63339  30.441   7.212   6.249
 4918POPC   D2A63340  30.655   7.520   6.495
 4918POPC   C3A63341  30.837   7.402   6.869
 4918POPC   C4A63342  30.681   7.355   7.264
 4918POPC   C1B63343  30.985   7.727   6.170
 4918POPC   C2B63344  31.166   7.658   6.540
 4918POPC   C3B63345  31.257   7.693   6.969
 4918POPC   C4B63346  31.053   7.684   7.343
 4919POPC   NC363347  42.828  15.783   5.414
 4919POPC   PO463348  42.815  16.424   5.560
 4919POPC   GL163349  42.987  16.049   5.809
 4919POPC   GL263350  43.299  15.885   5.757
 4919POPC   C1A63351  43.049  16.005   6.241
 4919POPC   D2A63352  43.319  15.953   6.598
 4919POPC   C3A63353  43.120  15.992   7.006
 4919POPC   C4A63354  43.287  16.144   7.411
 4919POPC   C1B63355  43.418  15.641   6.129
 4919POPC   C2B63356  43.360  15.413   6.517
 4919POPC   C3B63357  43.424  15.537   6.947
 4919POPC   C4B63358  43.195  15.556   7.307
 4920POPC   NC363359   2.091  32.632   5.575
 4920POPC   PO463360   1.729  33.219   5.366
 4920POPC   GL163361   1.796  33.034   5.774
 4920POPC   GL263362   1.546  32.755   5.759
 4920POPC   C1A63363   1.963  33.041   6.211
 4920POPC   D2A63364   2.321  32.975   6.508
 4920POPC   C3A63365   2.131  32.914   6.903
 4920POPC   C4A63366   1.757  33.100   7.069
 4920POPC   C1B63367   1.609  32.637   6.199
 4920POPC   C2B63368   1.698  32.719   6.638
 4920POPC   C3B63369   1.492  32.673   7.032
 4920POPC   C4B63370   1.694  32.702   7.457
 4921POPC   NC363371  37.190  15.214   5.449
 4921POPC   PO463372  36.513  15.179   5.307
 4921POPC   GL163373  36.587  15.176   5.782
 4921POPC   GL263374  36.716  14.818   5.808
 4921POPC   C1A63375  36.700  15.322   6.254
 4921POPC   D2A63376  36.966  15.262   6.648
 4921POPC   C3A63377  36.905  15.429   7.076
 4921POPC   C4A63378  37.161  15.198   7.342
 4921POPC   C1B63379  36.502  14.834   6.209
 4921POPC   C2B63380  36.558  14.943   6.645
 4921POPC   C3B63381  36.684  14.976   7.051
 4921POPC   C4B63382  36.663  14.795   7.428
 4922POPC   NC363383  39.681  40.308   5.414
 4922POPC   PO463384  39.742  39.634   5.523
 4922POPC   GL163385  40.018  39.993   5.647
 4922POPC   GL263386  40.288  39.897   5.831
 4922POPC   C1A63387  40.073  40.332   5.979
 4922POPC   D2A63388  40.120  40.468   6.413
 4922POPC   C3A63389  39.923  40.330   6.801
 4922POPC   C4A63390  39.820  40.286   7.272
 4922POPC   C1B63391  39.961  39.858   6.166
 4922POPC   C2B63392  39.922  39.839   6.637
 4922POPC   C3B63393  40.139  39.951   7.064
 4922POPC   C4B63394  40.337  39.692   7.358
 4923POPC   NC363395   5.909  42.348   5.230
 4923POPC   PO463396   5.914  41.674   5.223
 4923POPC   GL163397   5.821  41.665   5.643
 4923POPC   GL263398   6.112  41.525   5.824
 4923POPC   C1A63399   5.665  41.642   6.072
 4923POPC   D2A63400   5.726  41.438   6.462
 4923POPC   C3A63401   5.575  41.632   6.830
 4923POPC   C4A63402   5.675  41.514   7.229
 4923POPC   C1B63403   6.242  41.469   6.296
 4923POPC   C2B63404   6.317  41.512   6.751
 4923POPC   C3B63405   6.256  41.398   7.198
 4923POPC   C4B63406   6.170  41.341   7.634
 4924POPC   NC363407  36.816   9.305   5.382
 4924POPC   PO463408  37.225   8.813   5.372
 4924POPC   GL163409  36.999   8.851   5.799
 4924POPC   GL263410  36.753   9.113   5.837
 4924POPC   C1A63411  36.890   8.906   6.268
 4924POPC   D2A63412  37.007   8.834   6.678
 4924POPC   C3A63413  36.781   8.980   7.031
 4924POPC   C4A63414  36.672   8.658   7.359
 4924POPC   C1B63415  36.519   9.264   6.179
 4924POPC   C2B63416  36.506   9.148   6.604
 4924POPC   C3B63417  36.451   9.419   6.946
 4924POPC   C4B63418  36.744   9.609   7.188
 4925POPC   NC363419  13.078  25.394   5.474
 4925POPC   PO463420  12.570  25.039   5.424
 4925POPC   GL163421  12.728  25.032   5.850
 4925POPC   GL263422  13.086  24.983   5.819
 4925POPC   C1A63423  12.871  25.270   6.254
 4925POPC   D2A63424  12.720  25.458   6.677
 4925POPC   C3A63425  12.925  25.325   7.062
 4925POPC   C4A63426  12.748  25.116   7.463
 4925POPC   C1B63427  13.265  24.947   6.222
 4925POPC   C2B63428  13.064  24.986   6.655
 4925POPC   C3B63429  13.321  24.993   7.040
 4925POPC   C4B63430  13.223  24.977   7.470
 4926POPC   NC363431  31.580  23.427   5.494
 4926POPC   PO463432  31.698  22.746   5.380
 4926POPC   GL163433  31.456  22.780   5.762
 4926POPC   GL263434  31.304  23.098   5.844
 4926POPC   C1A63435  31.465  22.645   6.184
 4926POPC   D2A63436  31.716  22.726   6.564
 4926POPC   C3A63437  31.594  22.805   7.018
 4926POPC   C4A63438  31.758  22.491   7.307
 4926POPC   C1B63439  31.570  23.134   6.230
 4926POPC   C2B63440  31.519  23.211   6.659
 4926POPC   C3B63441  31.373  23.400   7.024
 4926POPC   C4B63442  31.466  23.263   7.431
 4927POPC   NC363443  28.035  23.118   5.433
 4927POPC   PO463444  28.725  22.818   5.496
 4927POPC   GL163445  28.502  22.880   5.884
 4927POPC   GL263446  28.137  22.837   5.875
 4927POPC   C1A63447  28.412  22.699   6.302
 4927POPC   D2A63448  28.340  22.908   6.692
 4927POPC   C3A63449  28.283  22.831   7.129
 4927POPC   C4A63450  28.463  23.205   7.347
 4927POPC   C1B63451  28.060  23.098   6.239
 4927POPC   C2B63452  28.018  23.310   6.652
 4927POPC   C3B63453  27.886  23.140   7.063
 4927POPC   C4B63454  28.007  23.233   7.537
 4928POPC   NC363455  26.252   5.385   5.451
 4928POPC   PO463456  25.844   4.803   5.400
 4928POPC   GL163457  25.890   5.073   5.764
 4928POPC   GL263458  26.241   5.004   5.790
 4928POPC   C1A63459  25.758   5.107   6.223
 4928POPC   D2A63460  25.750   4.776   6.576
 4928POPC   C3A63461  25.953   4.870   7.003
 4928POPC   C4A63462  25.907   4.940   7.475
 4928POPC   C1B63463  26.287   5.146   6.209
 4928POPC   C2B63464  26.138   5.172   6.619
 4928POPC   C3B63465  26.391   5.158   7.000
 4928POPC   C4B63466  26.409   5.528   7.292
 4929POPC   NC363467   5.949  36.562   5.501
 4929POPC   PO463468   6.209  37.119   5.393
 4929POPC   GL163469   5.987  36.998   5.776
 4929POPC   GL263470   5.702  36.764   5.895
 4929POPC   C1A63471   5.976  37.062   6.199
 4929POPC   D2A63472   6.128  36.968   6.572
 4929POPC   C3A63473   5.826  37.200   6.823
 4929POPC   C4A63474   5.805  37.317   7.212
 4929POPC   C1B63475   5.706  36.623   6.328
 4929POPC   C2B63476   5.725  36.711   6.739
 4929POPC   C3B63477   5.888  36.804   7.160
 4929POPC   C4B63478   5.742  36.607   7.532
 4930POPC   NC363479  39.637  27.779   5.403
 4930POPC   PO463480  39.279  27.109   5.353
 4930POPC   GL163481  39.150  27.215   5.803
 4930POPC   GL263482  39.061  27.585   5.845
 4930POPC   C1A63483  39.250  27.339   6.258
 4930POPC   D2A63484  39.148  27.612   6.633
 4930POPC   C3A63485  39.152  27.478   7.080
 4930POPC   C4A63486  39.143  27.488   7.565
 4930POPC   C1B63487  38.848  27.809   6.196
 4930POPC   C2B63488  38.860  28.044   6.598
 4930POPC   C3B63489  38.970  27.957   7.037
 4930POPC   C4B63490  39.368  27.888   7.279
 4931POPC   NC363491  18.758   2.501   5.294
 4931POPC   PO463492  18.922   1.819   5.383
 4931POPC   GL163493  19.171   2.021   5.719
 4931POPC   GL263494  19.444   2.269   5.629
 4931POPC   C1A63495  19.148   1.926   6.158
 4931POPC   D2A63496  18.868   1.892   6.513
 4931POPC   C3A63497  19.009   1.884   6.934
 4931POPC   C4A63498  18.924   1.559   7.239
 4931POPC   C1B63499  19.436   2.352   6.100
 4931POPC   C2B63500  19.222   2.299   6.510
 4931POPC   C3B63501  19.395   2.228   6.907
 4931POPC   C4B63502  19.319   2.095   7.318
 4932POPC   NC363503  32.283  30.324   5.121
 4932POPC   PO463504  32.347  29.714   5.382
 4932POPC   GL163505  32.005  29.873   5.674
 4932POPC   GL263506  31.828  29.618   5.856
 4932POPC   C1A63507  31.968  30.101   6.084
 4932POPC   D2A63508  32.092  30.297   6.489
 4932POPC   C3A63509  32.123  30.023   6.874
 4932POPC   C4A63510  32.104  30.220   7.282
 4932POPC   C1B63511  32.151  29.624   6.182
 4932POPC   C2B63512  32.214  29.528   6.646
 4932POPC   C3B63513  32.495  29.667   6.979
 4932POPC   C4B63514  32.362  29.817   7.397
 4933POPC   NC363515   9.125  21.751   5.290
 4933POPC   PO463516   9.055  21.065   5.401
 4933POPC   GL163517   8.841  21.221   5.760
 4933POPC   GL263518   9.159  21.236   5.913
 4933POPC   C1A63519   8.766  21.438   6.142
 4933POPC   D2A63520   9.013  21.429   6.479
 4933POPC   C3A63521   8.742  21.350   6.808
 4933POPC   C4A63522   8.783  21.384   7.274
 4933POPC   C1B63523   9.396  21.116   6.280
 4933POPC   C2B63524   9.465  21.293   6.680
 4933POPC   C3B63525   9.200  21.232   7.007
 4933POPC   C4B63526   9.272  21.133   7.420
 4934POPC   NC363527  29.694  19.863   5.515
 4934POPC   PO463528  30.220  19.975   5.075
 4934POPC   GL163529  30.109  20.213   5.617
 4934POPC   GL263530  30.283  20.071   5.920
 4934POPC   C1A63531  29.835  20.169   6.095
 4934POPC   D2A63532  29.699  19.787   6.373
 4934POPC   C3A63533  29.820  19.671   6.822
 4934POPC   C4A63534  29.979  19.938   7.178
 4934POPC   C1B63535  30.304  19.828   6.332
 4934POPC   C2B63536  30.315  19.788   6.809
 4934POPC   C3B63537  30.403  19.634   7.246
 4934POPC   C4B63538  30.462  19.798   7.710
 4935POPC   NC363539  27.661  41.345   5.318
 4935POPC   PO463540  27.715  41.913   5.474
 4935POPC   GL163541  27.808  41.574   5.776
 4935POPC   GL263542  27.545  41.355   5.839
 4935POPC   C1A63543  27.790  41.601   6.233
 4935POPC   D2A63544  27.842  41.513   6.672
 4935POPC   C3A63545  27.773  41.695   7.106
 4935POPC   C4A63546  27.420  41.825   7.395
 4935POPC   C1B63547  27.399  41.240   6.271
 4935POPC   C2B63548  27.210  41.236   6.689
 4935POPC   C3B63549  27.336  41.427   7.049
 4935POPC   C4B63550  27.432  41.309   7.442
 4936POPC   NC363551  27.872  12.003   5.121
 4936POPC   PO463552  27.811  11.433   5.499
 4936POPC   GL163553  27.645  11.467   5.912
 4936POPC   GL263554  27.748  11.131   6.040
 4936POPC   C1A63555  27.647  11.554   6.386
 4936POPC   D2A63556  27.780  11.233   6.700
 4936POPC   C3A63557  27.609  11.339   7.096
 4936POPC   C4A63558  27.582  11.640   7.418
 4936POPC   C1B63559  27.410  11.084   6.368
 4936POPC   C2B63560  27.249  11.100   6.803
 4936POPC   C3B63561  27.271  10.983   7.252
 4936POPC   C4B63562  27.564  11.146   7.576
 4937POPC   NC363563  14.524  24.676   5.187
 4937POPC   PO463564  14.104  24.223   5.449
 4937POPC   GL163565  14.243  24.609   5.640
 4937POPC   GL263566  14.615  24.706   5.687
 4937POPC   C1A63567  14.143  24.715   6.064
 4937POPC   D2A63568  14.125  24.480   6.452
 4937POPC   C3A63569  14.193  24.649   6.881
 4937POPC   C4A63570  14.374  24.369   7.199
 4937POPC   C1B63571  14.640  24.851   6.114
 4937POPC   C2B63572  14.897  24.764   6.476
 4937POPC   C3B63573  14.888  24.914   6.906
 4937POPC   C4B63574  14.545  24.868   7.215
 4938POPC   NC363575  26.196  25.415   5.549
 4938POPC   PO463576  25.792  24.903   5.308
 4938POPC   GL163577  25.877  25.018   5.775
 4938POPC   GL263578  26.172  25.121   5.946
 4938POPC   C1A63579  25.765  25.241   6.211
 4938POPC   D2A63580  25.913  25.402   6.630
 4938POPC   C3A63581  25.719  25.286   7.038
 4938POPC   C4A63582  25.839  25.045   7.431
 4938POPC   C1B63583  26.168  25.550   6.193
 4938POPC   C2B63584  26.382  25.654   6.570
 4938POPC   C3B63585  26.286  25.512   6.976
 4938POPC   C4B63586  26.501  25.715   7.287
 4939POPC   NC363587   2.231  31.864   5.462
 4939POPC   PO463588   1.732  32.269   5.586
 4939POPC   GL163589   2.117  32.232   5.859
 4939POPC   GL263590   1.998  31.973   5.909
 4939POPC   C1A63591   2.308  32.494   6.194
 4939POPC   D2A63592   2.496  32.491   6.612
 4939POPC   C3A63593   2.193  32.403   6.902
 4939POPC   C4A63594   1.832  32.315   7.162
 4939POPC   C1B63595   1.762  32.145   6.244
 4939POPC   C2B63596   1.804  32.178   6.665
 4939POPC   C3B63597   1.800  31.848   6.949
 4939POPC   C4B63598   2.005  31.874   7.343
 4940POPC   NC363599   5.558  20.749   5.487
 4940POPC   PO463600   4.907  20.351   5.438
 4940POPC   GL163601   4.927  20.536   5.822
 4940POPC   GL263602   5.277  20.468   5.840
 4940POPC   C1A63603   4.972  20.514   6.249
 4940POPC   D2A63604   5.194  20.394   6.557
 4940POPC   C3A63605   5.001  20.523   6.874
 4940POPC   C4A63606   4.991  20.604   7.281
 4940POPC   C1B63607   5.356  20.825   6.148
 4940POPC   C2B63608   5.527  20.782   6.574
 4940POPC   C3B63609   5.371  20.848   6.978
 4940POPC   C4B63610   5.371  20.942   7.414
 4941POPC   NC363611   3.474   7.002   5.492
 4941POPC   PO463612   3.504   7.605   5.258
 4941POPC   GL163613   3.363   7.489   5.657
 4941POPC   GL263614   3.694   7.376   5.798
 4941POPC   C1A63615   3.220   7.410   6.081
 4941POPC   D2A63616   3.377   7.661   6.424
 4941POPC   C3A63617   3.206   7.569   6.822
 4941POPC   C4A63618   3.266   7.727   7.223
 4941POPC   C1B63619   3.670   7.257   6.229
 4941POPC   C2B63620   3.550   7.185   6.651
 4941POPC   C3B63621   3.633   7.372   7.040
 4941POPC   C4B63622   3.989   7.294   7.289
 4942POPC   NC363623  24.313  24.122   5.374
 4942POPC   PO463624  24.793  23.609   5.513
 4942POPC   GL163625  24.480  23.788   5.787
 4942POPC   GL263626  24.116  23.675   5.783
 4942POPC   C1A63627  24.532  23.671   6.214
 4942POPC   D2A63628  24.303  23.677   6.582
 4942POPC   C3A63629  24.540  23.565   6.907
 4942POPC   C4A63630  24.411  23.398   7.257
 4942POPC   C1B63631  24.107  23.976   6.149
 4942POPC   C2B63632  24.165  24.164   6.588
 4942POPC   C3B63633  24.245  23.997   7.021
 4942POPC   C4B63634  24.082  24.035   7.455
 4943POPC   NC363635  13.117  31.019   5.319
 4943POPC   PO463636  12.665  30.488   5.109
 4943POPC   GL163637  12.784  30.544   5.575
 4943POPC   GL263638  12.945  30.264   5.773
 4943POPC   C1A63639  12.779  30.792   5.995
 4943POPC   D2A63640  12.860  31.030   6.408
 4943POPC   C3A63641  12.772  30.863   6.843
 4943POPC   C4A63642  12.850  31.050   7.242
 4943POPC   C1B63643  12.957  30.355   6.236
 4943POPC   C2B63644  13.024  30.400   6.701
 4943POPC   C3B63645  12.964  30.312   7.149
 4943POPC   C4B63646  12.949  30.249   7.610
 4944POPC   NC363647  20.585   0.566   5.484
 4944POPC   PO463648  20.927  44.942   5.305
 4944POPC   GL163649  20.706   0.119   5.704
 4944POPC   GL263650  20.310   0.165   5.691
 4944POPC   C1A63651  20.770   0.339   6.132
 4944POPC   D2A63652  20.595   0.570   6.524
 4944POPC   C3A63653  20.791   0.587   6.971
 4944POPC   C4A63654  20.858   0.455   7.442
 4944POPC   C1B63655  20.254   0.412   6.100
 4944POPC   C2B63656  20.078   0.434   6.521
 4944POPC   C3B63657  20.239   0.474   6.909
 4944POPC   C4B63658  20.314   0.157   7.194
 4945POPC   NC363659  28.640  12.160   5.469
 4945POPC   PO463660  27.929  12.313   5.483
 4945POPC   GL163661  28.226  12.151   5.793
 4945POPC   GL263662  28.474  12.326   5.913
 4945POPC   C1A63663  28.403  11.895   6.152
 4945POPC   D2A63664  28.667  11.745   6.486
 4945POPC   C3A63665  28.472  11.873   6.853
 4945POPC   C4A63666  28.429  11.782   7.272
 4945POPC   C1B63667  28.671  12.503   6.263
 4945POPC   C2B63668  28.524  12.663   6.629
 4945POPC   C3B63669  28.387  12.414   6.940
 4945POPC   C4B63670  28.675  12.217   7.154
 4946POPC   NC363671  28.539   1.898   5.187
 4946POPC   PO463672  28.018   1.902   5.551
 4946POPC   GL163673  28.485   1.910   5.712
 4946POPC   GL263674  28.608   2.229   5.600
 4946POPC   C1A63675  28.670   1.937   6.168
 4946POPC   D2A63676  28.420   1.773   6.535
 4946POPC   C3A63677  28.495   1.686   6.979
 4946POPC   C4A63678  28.506   1.624   7.437
 4946POPC   C1B63679  28.350   2.309   6.005
 4946POPC   C2B63680  28.415   2.282   6.478
 4946POPC   C3B63681  28.654   2.167   6.843
 4946POPC   C4B63682  28.457   2.123   7.248
 4947POPC   NC363683  34.957   1.613   5.325
 4947POPC   PO463684  34.399   1.193   5.418
 4947POPC   GL163685  34.595   1.312   5.787
 4947POPC   GL263686  34.963   1.259   5.709
 4947POPC   C1A63687  34.618   1.457   6.227
 4947POPC   D2A63688  34.476   1.355   6.648
 4947POPC   C3A63689  34.548   1.452   7.095
 4947POPC   C4A63690  34.453   1.284   7.534
 4947POPC   C1B63691  34.916   1.067   6.102
 4947POPC   C2B63692  34.789   0.957   6.498
 4947POPC   C3B63693  34.877   1.098   6.874
 4947POPC   C4B63694  34.756   0.994   7.238
 4948POPC   NC363695  12.352  42.540   5.385
 4948POPC   PO463696  12.033  41.950   5.428
 4948POPC   GL163697  12.211  42.202   5.757
 4948POPC   GL263698  12.588  42.157   5.686
 4948POPC   C1A63699  11.965  42.391   6.112
 4948POPC   D2A63700  11.742  42.259   6.509
 4948POPC   C3A63701  11.864  42.198   6.951
 4948POPC   C4A63702  11.938  42.535   7.248
 4948POPC   C1B63703  12.580  42.256   6.139
 4948POPC   C2B63704  12.323  42.419   6.489
 4948POPC   C3B63705  12.338  42.408   6.929
 4948POPC   C4B63706  12.326  42.022   7.174
 4949POPC   NC363707  44.323   4.559   5.538
 4949POPC   PO463708  44.742   4.037   5.439
 4949POPC   GL163709  44.908   4.138   5.822
 4949POPC   GL263710  44.542   4.220   5.885
 4949POPC   C1A63711  44.973   4.326   6.226
 4949POPC   D2A63712  44.773   4.452   6.615
 4949POPC   C3A63713  44.950   4.421   7.018
 4949POPC   C4A63714  44.806   4.264   7.440
 4949POPC   C1B63715  44.334   4.020   6.217
 4949POPC   C2B63716  44.484   4.009   6.634
 4949POPC   C3B63717  44.499   4.176   7.031
 4949POPC   C4B63718  44.239   3.994   7.304
 4950POPC   NC363719  38.226   4.695   5.424
 4950POPC   PO463720  38.034   4.052   5.423
 4950POPC   GL163721  38.344   4.069   5.829
 4950POPC   GL263722  38.706   3.950   5.838
 4950POPC   C1A63723  38.254   4.095   6.283
 4950POPC   D2A63724  37.979   4.254   6.608
 4950POPC   C3A63725  38.173   4.325   6.994
 4950POPC   C4A63726  38.380   4.123   7.314
 4950POPC   C1B63727  38.762   4.185   6.189
 4950POPC   C2B63728  38.854   4.074   6.587
 4950POPC   C3B63729  38.761   4.003   6.996
 4950POPC   C4B63730  38.828   4.342   7.272
 4951POPC   NC363731  18.101  23.260   5.115
 4951POPC   PO463732  17.990  23.903   5.300
 4951POPC   GL163733  18.245  23.603   5.648
 4951POPC   GL263734  18.648  23.617   5.781
 4951POPC   C1A63735  18.290  23.520   6.125
 4951POPC   D2A63736  18.286  23.712   6.545
 4951POPC   C3A63737  18.358  23.480   6.923
 4951POPC   C4A63738  18.306  23.584   7.354
 4951POPC   C1B63739  18.768  23.771   6.244
 4951POPC   C2B63740  18.768  23.762   6.729
 4951POPC   C3B63741  18.637  23.901   7.141
 4951POPC   C4B63742  18.613  23.873   7.628
 4952POPC   NC363743  20.516   5.396   5.440
 4952POPC   PO463744  21.051   5.766   5.281
 4952POPC   GL163745  20.853   5.704   5.748
 4952POPC   GL263746  20.659   6.026   5.934
 4952POPC   C1A63747  20.617   5.604   6.174
 4952POPC   D2A63748  20.474   5.939   6.438
 4952POPC   C3A63749  20.568   5.866   6.867
 4952POPC   C4A63750  20.555   5.556   7.182
 4952POPC   C1B63751  20.332   6.336   6.130
 4952POPC   C2B63752  20.088   6.372   6.533
 4952POPC   C3B63753  20.268   6.346   6.957
 4952POPC   C4B63754  20.485   6.138   7.297
 4953POPC   NC363755  27.240  13.378   5.295
 4953POPC   PO463756  26.569  13.586   5.419
 4953POPC   GL163757  26.632  13.723   5.826
 4953POPC   GL263758  26.953  13.784   5.909
 4953POPC   C1A63759  26.639  13.489   6.216
 4953POPC   D2A63760  26.579  13.595   6.677
 4953POPC   C3A63761  26.610  13.293   7.047
 4953POPC   C4A63762  26.827  13.288   7.470
 4953POPC   C1B63763  26.850  13.943   6.314
 4953POPC   C2B63764  27.016  13.895   6.719
 4953POPC   C3B63765  26.973  13.650   7.085
 4953POPC   C4B63766  27.128  13.690   7.518
 4954POPC   NC363767  17.389  12.369   5.414
 4954POPC   PO463768  17.820  11.787   5.507
 4954POPC   GL163769  17.428  11.863   5.696
 4954POPC   GL263770  17.533  12.178   5.874
 4954POPC   C1A63771  17.377  11.739   6.141
 4954POPC   D2A63772  17.710  11.928   6.431
 4954POPC   C3A63773  17.680  11.910   6.884
 4954POPC   C4A63774  17.315  11.775   7.135
 4954POPC   C1B63775  17.294  12.222   6.265
 4954POPC   C2B63776  17.163  12.392   6.668
 4954POPC   C3B63777  17.375  12.303   7.044
 4954POPC   C4B63778  17.634  12.447   7.331
 4955POPC   NC363779  34.264  41.610   5.333
 4955POPC   PO463780  34.751  41.186   5.292
 4955POPC   GL163781  34.717  41.387   5.762
 4955POPC   GL263782  34.360  41.510   5.833
 4955POPC   C1A63783  34.815  41.689   6.114
 4955POPC   D2A63784  34.829  41.896   6.529
 4955POPC   C3A63785  34.924  41.724   6.950
 4955POPC   C4A63786  34.578  41.596   7.207
 4955POPC   C1B63787  34.398  41.467   6.290
 4955POPC   C2B63788  34.753  41.392   6.562
 4955POPC   C3B63789  34.859  41.204   6.957
 4955POPC   C4B63790  34.985  41.339   7.359
 4956POPC   NC363791  13.298  42.319   5.262
 4956POPC   PO463792  13.876  42.497   5.416
 4956POPC   GL163793  13.597  42.388   5.723
 4956POPC   GL263794  13.381  42.643   5.644
 4956POPC   C1A63795  13.590  42.150   6.118
 4956POPC   D2A63796  13.775  41.946   6.478
 4956POPC   C3A63797  13.606  42.119   6.848
 4956POPC   C4A63798  13.601  42.312   7.216
 4956POPC   C1B63799  13.391  42.642   6.111
 4956POPC   C2B63800  13.525  42.514   6.520
 4956POPC   C3B63801  13.524  42.714   6.921
 4956POPC   C4B63802  13.244  42.710   7.252
 4957POPC   NC363803   2.272  41.207   5.302
 4957POPC   PO463804   1.934  40.568   5.457
 4957POPC   GL163805   1.998  40.627   5.889
 4957POPC   GL263806   1.781  40.920   5.922
 4957POPC   C1A63807   1.876  40.640   6.336
 4957POPC   D2A63808   1.708  40.840   6.695
 4957POPC   C3A63809   1.820  40.721   7.126
 4957POPC   C4A63810   2.197  40.683   7.292
 4957POPC   C1B63811   2.164  41.050   6.188
 4957POPC   C2B63812   2.306  41.004   6.626
 4957POPC   C3B63813   2.083  41.136   6.977
 4957POPC   C4B63814   2.078  41.141   7.414
 4958POPC   NC363815  26.359  20.014   5.492
 4958POPC   PO463816  26.062  19.446   5.428
 4958POPC   GL163817  26.249  19.620   5.802
 4958POPC   GL263818  26.011  19.895   5.853
 4958POPC   C1A63819  26.352  19.736   6.247
 4958POPC   D2A63820  26.157  19.787   6.670
 4958POPC   C3A63821  26.391  19.959   7.057
 4958POPC   C4A63822  26.351  20.101   7.553
 4958POPC   C1B63823  25.804  19.824   6.247
 4958POPC   C2B63824  25.600  19.841   6.639
 4958POPC   C3B63825  25.761  19.668   7.008
 4958POPC   C4B63826  26.071  19.693   7.325
 4959POPC   NC363827  19.718   0.015   5.384
 4959POPC   PO463828  20.125   0.557   5.395
 4959POPC   GL163829  19.916   0.601   5.770
 4959POPC   GL263830  19.809   0.279   5.834
 4959POPC   C1A63831  19.787   0.703   6.211
 4959POPC   D2A63832  19.543   0.561   6.594
 4959POPC   C3A63833  19.558   0.711   7.019
 4959POPC   C4A63834  19.925   0.741   7.277
 4959POPC   C1B63835  19.669   0.192   6.253
 4959POPC   C2B63836  19.747   0.051   6.691
 4959POPC   C3B63837  19.789   0.269   7.094
 4959POPC   C4B63838  19.696   0.228   7.548
 4960POPC   NC363839  25.670  21.393   5.428
 4960POPC   PO463840  25.097  21.639   5.599
 4960POPC   GL163841  25.332  21.367   5.843
 4960POPC   GL263842  25.562  21.611   5.943
 4960POPC   C1A63843  25.329  21.234   6.272
 4960POPC   D2A63844  25.120  21.331   6.664
 4960POPC   C3A63845  25.213  21.103   7.050
 4960POPC   C4A63846  25.389  21.179   7.419
 4960POPC   C1B63847  25.206  21.749   6.237
 4960POPC   C2B63848  25.181  21.859   6.689
 4960POPC   C3B63849  25.225  21.647   7.087
 4960POPC   C4B63850  24.921  21.855   7.299
 4961POPC   NC363851  38.131   8.406   5.367
 4961POPC   PO463852  38.649   7.906   5.371
 4961POPC   GL163853  38.553   8.071   5.788
 4961POPC   GL263854  38.210   7.975   5.852
 4961POPC   C1A63855  38.800   8.195   6.171
 4961POPC   D2A63856  38.821   8.487   6.519
 4961POPC   C3A63857  38.741   8.295   6.894
 4961POPC   C4A63858  38.524   8.376   7.248
 4961POPC   C1B63859  38.283   8.252   6.224
 4961POPC   C2B63860  38.263   8.309   6.687
 4961POPC   C3B63861  38.038   8.431   7.045
 4961POPC   C4B63862  37.774   8.378   7.378
 4962POPC   NC363863  19.524  44.278   5.328
 4962POPC   PO463864  20.062  44.676   5.380
 4962POPC   GL163865  19.924  44.763   5.789
 4962POPC   GL263866  19.753  44.450   5.764
 4962POPC   C1A63867  19.962  44.745   6.244
 4962POPC   D2A63868  20.048  44.397   6.530
 4962POPC   C3A63869  19.862  44.448   6.919
 4962POPC   C4A63870  19.840  44.788   7.197
 4962POPC   C1B63871  19.699  44.290   6.164
 4962POPC   C2B63872  19.494  44.354   6.549
 4962POPC   C3B63873  19.425  44.158   6.934
 4962POPC   C4B63874  19.477  44.437   7.252
 4963POPC   NC363875  22.489   5.014   5.337
 4963POPC   PO463876  21.940   5.479   5.322
 4963POPC   GL163877  22.111   5.392   5.749
 4963POPC   GL263878  22.172   5.030   5.781
 4963POPC   C1A63879  22.031   5.383   6.214
 4963POPC   D2A63880  22.184   5.210   6.619
 4963POPC   C3A63881  22.004   5.261   7.073
 4963POPC   C4A63882  22.154   5.338   7.533
 4963POPC   C1B63883  22.381   4.967   6.194
 4963POPC   C2B63884  22.479   4.731   6.572
 4963POPC   C3B63885  22.389   4.902   6.986
 4963POPC   C4B63886  22.225   4.846   7.398
 4964POPC   NC363887  23.801  31.165   5.457
 4964POPC   PO463888  24.045  31.817   5.507
 4964POPC   GL163889  23.748  31.574   5.830
 4964POPC   GL263890  23.605  31.204   5.903
 4964POPC   C1A63891  23.666  31.512   6.288
 4964POPC   D2A63892  23.647  31.151   6.552
 4964POPC   C3A63893  23.634  31.280   6.977
 4964POPC   C4A63894  23.644  31.695   7.124
 4964POPC   C1B63895  23.984  31.129   6.133
 4964POPC   C2B63896  24.130  30.974   6.541
 4964POPC   C3B63897  24.172  31.079   6.984
 4964POPC   C4B63898  23.958  31.218   7.365
 4965POPC   NC363899  22.040  31.586   5.367
 4965POPC   PO463900  22.616  31.203   5.385
 4965POPC   GL163901  22.398  31.486   5.748
 4965POPC   GL263902  22.026  31.407   5.862
 4965POPC   C1A63903  22.291  31.736   6.158
 4965POPC   D2A63904  22.368  31.879   6.601
 4965POPC   C3A63905  22.111  31.652   6.922
 4965POPC   C4A63906  21.923  31.677   7.363
 4965POPC   C1B63907  22.243  31.234   6.263
 4965POPC   C2B63908  22.258  31.203   6.743
 4965POPC   C3B63909  22.118  31.188   7.186
 4965POPC   C4B63910  22.134  30.921   7.550
 4966POPC   NC363911  30.198  12.529   5.479
 4966POPC   PO463912  29.771  12.962   5.400
 4966POPC   GL163913  29.840  12.841   5.805
 4966POPC   GL263914  30.182  12.900   5.916
 4966POPC   C1A63915  29.805  12.693   6.207
 4966POPC   D2A63916  29.623  12.824   6.567
 4966POPC   C3A63917  29.884  12.703   6.866
 4966POPC   C4A63918  29.856  12.885   7.241
 4966POPC   C1B63919  30.235  12.864   6.402
 4966POPC   C2B63920  30.416  12.790   6.795
 4966POPC   C3B63921  30.352  12.825   7.224
 4966POPC   C4B63922  30.268  13.004   7.674
 4967POPC   NC363923  38.973  23.143   5.206
 4967POPC   PO463924  38.436  23.454   5.584
 4967POPC   GL163925  38.669  23.677   5.883
 4967POPC   GL263926  38.599  24.009   5.898
 4967POPC   C1A63927  38.634  23.614   6.305
 4967POPC   D2A63928  38.238  23.710   6.584
 4967POPC   C3A63929  38.350  23.683   7.013
 4967POPC   C4A63930  38.516  23.791   7.416
 4967POPC   C1B63931  38.421  24.077   6.258
 4967POPC   C2B63932  38.659  23.999   6.632
 4967POPC   C3B63933  38.757  24.056   7.041
 4967POPC   C4B63934  38.525  24.283   7.330
 4968POPC   NC363935  26.278  20.798   5.343
 4968POPC   PO463936  25.893  20.223   5.437
 4968POPC   GL163937  26.073  20.516   5.743
 4968POPC   GL263938  25.757  20.698   5.836
 4968POPC   C1A63939  26.145  20.650   6.206
 4968POPC   D2A63940  26.091  20.818   6.657
 4968POPC   C3A63941  26.097  20.594   7.081
 4968POPC   C4A63942  25.997  20.632   7.541
 4968POPC   C1B63943  25.769  20.309   6.096
 4968POPC   C2B63944  25.960  20.245   6.502
 4968POPC   C3B63945  25.898  20.150   6.927
 4968POPC   C4B63946  25.896  20.164   7.356
 4969POPC   NC363947  28.943  25.592   5.428
 4969POPC   PO463948  29.130  24.938   5.346
 4969POPC   GL163949  29.059  25.128   5.740
 4969POPC   GL263950  28.752  25.279   5.794
 4969POPC   C1A63951  29.183  25.195   6.166
 4969POPC   D2A63952  29.162  25.038   6.590
 4969POPC   C3A63953  29.369  25.314   6.863
 4969POPC   C4A63954  29.322  25.222   7.253
 4969POPC   C1B63955  28.792  25.565   6.156
 4969POPC   C2B63956  29.005  25.539   6.565
 4969POPC   C3B63957  28.869  25.364   6.977
 4969POPC   C4B63958  28.897  24.943   7.163
 4970POPC   NC363959   5.461   6.860   5.387
 4970POPC   PO463960   4.917   6.560   5.488
 4970POPC   GL163961   5.227   6.669   5.836
 4970POPC   GL263962   5.536   6.917   5.884
 4970POPC   C1A63963   5.198   6.744   6.274
 4970POPC   D2A63964   5.033   6.937   6.647
 4970POPC   C3A63965   5.203   6.753   7.016
 4970POPC   C4A63966   5.274   6.803   7.453
 4970POPC   C1B63967   5.697   6.840   6.313
 4970POPC   C2B63968   5.568   6.971   6.725
 4970POPC   C3B63969   5.711   6.805   7.154
 4970POPC   C4B63970   5.776   6.752   7.604
 4971POPC   NC363971   7.991  16.299   5.411
 4971POPC   PO463972   8.516  15.922   5.364
 4971POPC   GL163973   8.241  15.959   5.776
 4971POPC   GL263974   8.010  15.716   5.791
 4971POPC   C1A63975   8.252  15.781   6.250
 4971POPC   D2A63976   8.287  15.500   6.647
 4971POPC   C3A63977   8.226  15.832   6.996
 4971POPC   C4A63978   8.061  16.259   7.138
 4971POPC   C1B63979   7.763  15.686   6.187
 4971POPC   C2B63980   7.845  15.734   6.637
 4971POPC   C3B63981   7.707  15.949   7.013
 4971POPC   C4B63982   7.727  16.015   7.481
 4972POPC   NC363983  29.134  33.920   5.320
 4972POPC   PO463984  29.141  33.293   5.127
 4972POPC   GL163985  29.057  33.461   5.631
 4972POPC   GL263986  29.103  33.827   5.801
 4972POPC   C1A63987  29.017  33.466   6.128
 4972POPC   D2A63988  29.092  33.340   6.539
 4972POPC   C3A63989  29.198  33.659   6.862
 4972POPC   C4A63990  29.211  33.829   7.246
 4972POPC   C1B63991  29.215  34.083   6.160
 4972POPC   C2B63992  29.354  34.066   6.589
 4972POPC   C3B63993  29.068  34.180   6.891
 4972POPC   C4B63994  29.045  34.359   7.245
 4973POPC   NC363995   4.702   6.994   5.431
 4973POPC   PO463996   3.954   7.021   5.487
 4973POPC   GL163997   4.178   6.717   5.798
 4973POPC   GL263998   4.451   6.513   5.707
 4973POPC   C1A63999   4.203   6.448   6.187
 4973POPC   D2A64000   4.377   6.508   6.592
 4973POPC   C3A64001   4.210   6.507   7.002
 4973POPC   C4A64002   4.276   6.872   7.232
 4973POPC   C1B64003   4.689   6.601   6.134
 4973POPC   C2B64004   4.878   6.455   6.561
 4973POPC   C3B64005   4.740   6.517   7.001
 4973POPC   C4B64006   4.879   6.481   7.442
 4974POPC   NC364007  41.826  43.618   5.387
 4974POPC   PO464008  41.483  44.226   5.412
 4974POPC   GL164009  41.739  44.020   5.722
 4974POPC   GL264010  41.491  43.762   5.767
 4974POPC   C1A64011  41.797  44.144   6.159
 4974POPC   D2A64012  41.524  44.260   6.537
 4974POPC   C3A64013  41.608  44.108   6.966
 4974POPC   C4A64014  41.841  44.119   7.373
 4974POPC   C1B64015  41.574  43.675   6.201
 4974POPC   C2B64016  41.616  43.452   6.618
 4974POPC   C3B64017  41.685  43.583   7.068
 4974POPC   C4B64018  41.427  43.780   7.391
 4975POPC   NC364019  37.315  16.711   5.510
 4975POPC   PO464020  37.861  16.267   5.518
 4975POPC   GL164021  37.698  16.504   5.850
 4975POPC   GL264022  37.666  16.883   5.835
 4975POPC   C1A64023  37.871  16.566   6.274
 4975POPC   D2A64024  38.053  16.801   6.633
 4975POPC   C3A64025  38.136  16.584   7.031
 4975POPC   C4A64026  37.897  16.517   7.415
 4975POPC   C1B64027  37.397  16.748   6.202
 4975POPC   C2B64028  37.371  16.677   6.655
 4975POPC   C3B64029  37.639  16.819   6.989
 4975POPC   C4B64030  37.573  16.877   7.412
 4976POPC   NC364031  36.454   5.296   5.458
 4976POPC   PO464032  36.028   4.823   5.256
 4976POPC   GL164033  36.021   4.966   5.751
 4976POPC   GL264034  36.116   5.327   5.807
 4976POPC   C1A64035  36.277   5.020   6.181
 4976POPC   D2A64036  36.432   4.824   6.579
 4976POPC   C3A64037  36.307   5.055   6.921
 4976POPC   C4A64038  36.405   5.391   7.127
 4976POPC   C1B64039  36.232   5.539   6.155
 4976POPC   C2B64040  36.069   5.398   6.530
 4976POPC   C3B64041  35.854   5.280   6.871
 4976POPC   C4B64042  35.874   5.227   7.278
 4977POPC   NC364043  33.397  21.186   5.419
 4977POPC   PO464044  33.057  21.735   5.208
 4977POPC   GL164045  33.126  21.564   5.668
 4977POPC   GL264046  33.166  21.781   5.939
 4977POPC   C1A64047  33.115  21.294   6.101
 4977POPC   D2A64048  33.375  21.066   6.402
 4977POPC   C3A64049  33.245  21.118   6.859
 4977POPC   C4A64050  33.019  21.105   7.266
 4977POPC   C1B64051  32.803  21.676   6.201
 4977POPC   C2B64052  32.872  21.621   6.639
 4977POPC   C3B64053  32.745  21.752   7.043
 4977POPC   C4B64054  32.978  21.665   7.440
 4978POPC   NC364055  41.794  13.013   5.350
 4978POPC   PO464056  42.441  13.095   5.455
 4978POPC   GL164057  42.128  12.923   5.764
 4978POPC   GL264058  42.120  12.556   5.758
 4978POPC   C1A64059  42.001  12.842   6.201
 4978POPC   D2A64060  42.233  12.828   6.571
 4978POPC   C3A64061  42.267  12.601   6.948
 4978POPC   C4A64062  42.252  12.799   7.336
 4978POPC   C1B64063  42.401  12.516   6.136
 4978POPC   C2B64064  42.620  12.494   6.551
 4978POPC   C3B64065  42.770  12.612   6.956
 4978POPC   C4B64066  42.646  12.496   7.356
 4979POPC   NC364067   7.895  27.742   5.435
 4979POPC   PO464068   8.454  27.483   5.164
 4979POPC   GL164069   8.390  27.780   5.570
 4979POPC   GL264070   8.235  27.550   5.801
 4979POPC   C1A64071   8.534  27.907   6.024
 4979POPC   D2A64072   8.595  27.763   6.485
 4979POPC   C3A64073   8.276  27.775   6.813
 4979POPC   C4A64074   8.175  27.713   7.254
 4979POPC   C1B64075   8.531  27.382   6.144
 4979POPC   C2B64076   8.503  27.271   6.601
 4979POPC   C3B64077   8.379  27.293   7.045
 4979POPC   C4B64078   8.094  27.255   7.445
 4980POPC   NC364079  22.774  31.667   5.408
 4980POPC   PO464080  23.382  31.413   5.467
 4980POPC   GL164081  22.997  31.370   5.765
 4980POPC   GL264082  23.133  31.222   6.053
 4980POPC   C1A64083  22.750  31.524   6.139
 4980POPC   D2A64084  22.884  31.678   6.572
 4980POPC   C3A64085  22.626  31.530   6.918
 4980POPC   C4A64086  22.439  31.566   7.310
 4980POPC   C1B64087  23.233  31.713   6.081
 4980POPC   C2B64088  23.381  31.985   6.437
 4980POPC   C3B64089  23.253  31.932   6.877
 4980POPC   C4B64090  23.119  31.538   7.094
 4981POPC   NC364091   3.849  22.647   5.549
 4981POPC   PO464092   3.635  23.268   5.358
 4981POPC   GL164093   3.653  23.054   5.794
 4981POPC   GL264094   3.423  22.777   5.817
 4981POPC   C1A64095   3.690  22.863   6.226
 4981POPC   D2A64096   3.452  22.835   6.586
 4981POPC   C3A64097   3.692  22.911   6.969
 4981POPC   C4A64098   3.558  22.876   7.388
 4981POPC   C1B64099   3.281  22.520   6.219
 4981POPC   C2B64100   3.354  22.339   6.635
 4981POPC   C3B64101   3.311  22.582   7.011
 4981POPC   C4B64102   3.165  22.549   7.426
 4982POPC   NC364103  17.390  44.455   5.650
 4982POPC   PO464104  17.189   0.059   5.451
 4982POPC   GL164105  17.423  44.956   5.836
 4982POPC   GL264106  17.769  44.810   5.756
 4982POPC   C1A64107  17.379  44.734   6.251
 4982POPC   D2A64108  17.419  44.464   6.620
 4982POPC   C3A64109  17.291  44.714   6.948
 4982POPC   C4A64110  17.480  44.746   7.333
 4982POPC   C1B64111  18.015  44.730   6.120
 4982POPC   C2B64112  17.837  44.742   6.518
 4982POPC   C3B64113  17.820  44.820   6.923
 4982POPC   C4B64114  17.997  44.720   7.280
 4983POPC   NC364115   0.249   6.078   5.195
 4983POPC   PO464116   0.817   5.704   5.347
 4983POPC   GL164117   0.520   5.887   5.741
 4983POPC   GL264118   0.155   5.956   5.719
 4983POPC   C1A64119   0.369   5.981   6.213
 4983POPC   D2A64120   0.450   5.777   6.626
 4983POPC   C3A64121   0.464   5.947   7.054
 4983POPC   C4A64122   0.585   5.580   7.281
 4983POPC   C1B64123  44.965   5.700   6.097
 4983POPC   C2B64124  44.939   5.807   6.575
 4983POPC   C3B64125   0.016   5.683   7.019
 4983POPC   C4B64126  44.956   5.561   7.465
 4984POPC   NC364127   6.947  35.208   5.317
 4984POPC   PO464128   6.526  35.641   5.412
 4984POPC   GL164129   6.778  35.518   5.789
 4984POPC   GL264130   6.443  35.420   5.891
 4984POPC   C1A64131   6.805  35.247   6.235
 4984POPC   D2A64132   6.503  35.226   6.654
 4984POPC   C3A64133   6.557  35.196   7.150
 4984POPC   C4A64134   6.667  35.177   7.611
 4984POPC   C1B64135   6.565  35.677   6.234
 4984POPC   C2B64136   6.772  35.672   6.608
 4984POPC   C3B64137   6.625  35.684   7.015
 4984POPC   C4B64138   6.638  35.660   7.452
 4985POPC   NC364139  34.757  40.751   5.470
 4985POPC   PO464140  34.004  40.737   5.434
 4985POPC   GL164141  34.252  40.710   5.794
 4985POPC   GL264142  34.387  41.015   5.691
 4985POPC   C1A64143  34.323  40.593   6.254
 4985POPC   D2A64144  34.555  40.489   6.679
 4985POPC   C3A64145  34.501  40.620   7.153
 4985POPC   C4A64146  34.588  40.684   7.638
 4985POPC   C1B64147  34.609  41.019   6.116
 4985POPC   C2B64148  34.468  40.984   6.556
 4985POPC   C3B64149  34.355  41.206   6.923
 4985POPC   C4B64150  34.442  41.109   7.365
 4986POPC   NC364151  37.851  32.538   5.074
 4986POPC   PO464152  37.303  32.188   5.376
 4986POPC   GL164153  37.465  32.411   5.712
 4986POPC   GL264154  37.836  32.459   5.787
 4986POPC   C1A64155  37.470  32.424   6.158
 4986POPC   D2A64156  37.765  32.321   6.483
 4986POPC   C3A64157  37.697  32.026   6.814
 4986POPC   C4A64158  37.848  32.224   7.188
 4986POPC   C1B64159  37.981  32.697   6.192
 4986POPC   C2B64160  38.067  32.709   6.678
 4986POPC   C3B64161  37.882  32.741   7.132
 4986POPC   C4B64162  37.708  32.571   7.547
 4987POPC   NC364163  21.936  44.428   5.265
 4987POPC   PO464164  22.543  44.591   5.540
 4987POPC   GL164165  22.282  44.710   5.870
 4987POPC   GL264166  21.991  44.586   5.749
 4987POPC   C1A64167  22.123  44.772   6.259
 4987POPC   D2A64168  22.296  44.693   6.657
 4987POPC   C3A64169  22.125  44.763   7.067
 4987POPC   C4A64170  22.080  44.467   7.423
 4987POPC   C1B64171  21.877  44.334   6.105
 4987POPC   C2B64172  21.961  44.263   6.554
 4987POPC   C3B64173  21.826  44.350   6.988
 4987POPC   C4B64174  21.648  44.672   7.275
 4988POPC   NC364175  24.286  29.829   5.165
 4988POPC   PO464176  24.816  30.289   5.493
 4988POPC   GL164177  24.611  30.055   5.796
 4988POPC   GL264178  24.668  29.731   5.668
 4988POPC   C1A64179  24.416  30.074   6.222
 4988POPC   D2A64180  24.502  30.010   6.666
 4988POPC   C3A64181  24.342  30.098   7.061
 4988POPC   C4A64182  24.666  30.392   7.132
 4988POPC   C1B64183  24.552  29.589   6.050
 4988POPC   C2B64184  24.403  29.551   6.450
 4988POPC   C3B64185  24.273  29.594   6.870
 4988POPC   C4B64186  24.663  29.693   7.062
 4989POPC   NC364187   7.681  17.034   5.493
 4989POPC   PO464188   7.550  16.407   5.452
 4989POPC   GL164189   7.405  16.661   5.757
 4989POPC   GL264190   7.225  16.412   5.866
 4989POPC   C1A64191   7.516  16.866   6.145
 4989POPC   D2A64192   7.424  17.144   6.498
 4989POPC   C3A64193   7.486  16.882   6.861
 4989POPC   C4A64194   7.384  16.858   7.285
 4989POPC   C1B64195   7.095  16.517   6.238
 4989POPC   C2B64196   7.276  16.476   6.621
 4989POPC   C3B64197   7.079  16.535   6.997
 4989POPC   C4B64198   7.043  16.336   7.373
 4990POPC   NC364199  17.661   0.229   5.449
 4990POPC   PO464200  17.492   0.867   5.368
 4990POPC   GL164201  17.448   0.571   5.751
 4990POPC   GL264202  17.765   0.496   5.911
 4990POPC   C1A64203  17.319   0.504   6.188
 4990POPC   D2A64204  17.515   0.597   6.603
 4990POPC   C3A64205  17.299   0.649   6.976
 4990POPC   C4A64206  17.009   0.326   7.086
 4990POPC   C1B64207  17.689   0.152   6.226
 4990POPC   C2B64208  17.459   0.086   6.628
 4990POPC   C3B64209  17.507   0.193   7.075
 4990POPC   C4B64210  17.844   0.189   7.371
 4991POPC   NC364211  34.815   6.461   5.425
 4991POPC   PO464212  34.600   7.137   5.194
 4991POPC   GL164213  34.576   6.872   5.657
 4991POPC   GL264214  34.396   6.546   5.707
 4991POPC   C1A64215  34.708   6.649   6.102
 4991POPC   D2A64216  34.847   6.913   6.486
 4991POPC   C3A64217  34.615   6.977   6.856
 4991POPC   C4A64218  34.615   6.766   7.236
 4991POPC   C1B64219  34.363   6.260   6.062
 4991POPC   C2B64220  34.246   6.355   6.474
 4991POPC   C3B64221  34.452   6.475   6.845
 4991POPC   C4B64222  34.412   6.305   7.251
 4992POPC   NC364223  25.495  29.273   5.325
 4992POPC   PO464224  25.096  28.867   5.431
 4992POPC   GL164225  25.401  28.936   5.746
 4992POPC   GL264226  25.346  29.299   5.813
 4992POPC   C1A64227  25.333  28.971   6.190
 4992POPC   D2A64228  25.522  29.182   6.536
 4992POPC   C3A64229  25.387  28.937   6.875
 4992POPC   C4A64230  25.344  28.850   7.308
 4992POPC   C1B64231  25.565  29.612   6.067
 4992POPC   C2B64232  25.710  29.714   6.478
 4992POPC   C3B64233  25.662  29.567   6.898
 4992POPC   C4B64234  25.419  29.347   7.182
 4993POPC   NC364235  29.655   6.884   5.404
 4993POPC   PO464236  29.029   6.777   5.341
 4993POPC   GL164237  29.284   6.668   5.730
 4993POPC   GL264238  29.364   6.989   5.825
 4993POPC   C1A64239  29.199   6.426   6.128
 4993POPC   D2A64240  29.314   6.448   6.581
 4993POPC   C3A64241  29.061   6.473   6.962
 4993POPC   C4A64242  29.374   6.577   7.252
 4993POPC   C1B64243  29.005   6.901   6.091
 4993POPC   C2B64244  29.077   6.902   6.518
 4993POPC   C3B64245  29.238   6.949   6.898
 4993POPC   C4B64246  29.128   6.990   7.311
 4994POPC   NC364247  42.174  27.208   4.996
 4994POPC   PO464248  41.947  26.702   5.438
 4994POPC   GL164249  42.175  26.757   5.785
 4994POPC   GL264250  42.465  26.922   5.622
 4994POPC   C1A64251  42.103  26.795   6.238
 4994POPC   D2A64252  42.276  26.849   6.659
 4994POPC   C3A64253  42.037  26.881   7.026
 4994POPC   C4A64254  42.051  26.471   7.209
 4994POPC   C1B64255  42.607  26.858   6.062
 4994POPC   C2B64256  42.707  26.612   6.442
 4994POPC   C3B64257  42.753  26.732   6.856
 4994POPC   C4B64258  42.496  26.726   7.197
 4995POPC   NC364259   9.592  13.035   5.131
 4995POPC   PO464260   9.943  12.656   5.510
 4995POPC   GL164261   9.763  12.897   5.806
 4995POPC   GL264262   9.450  13.068   5.673
 4995POPC   C1A64263   9.792  12.874   6.234
 4995POPC   D2A64264   9.416  12.855   6.463
 4995POPC   C3A64265   9.502  12.822   6.880
 4995POPC   C4A64266   9.735  12.616   7.219
 4995POPC   C1B64267   9.456  13.254   6.109
 4995POPC   C2B64268   9.675  13.288   6.537
 4995POPC   C3B64269   9.544  13.333   6.959
 4995POPC   C4B64270   9.623  13.147   7.359
 4996POPC   NC364271  25.373  17.812   5.556
 4996POPC   PO464272  25.141  17.130   5.558
 4996POPC   GL164273  25.094  17.422   5.853
 4996POPC   GL264274  25.429  17.352   5.911
 4996POPC   C1A64275  25.191  17.525   6.305
 4996POPC   D2A64276  25.327  17.411   6.736
 4996POPC   C3A64277  25.340  17.677   7.109
 4996POPC   C4A64278  25.029  17.706   7.486
 4996POPC   C1B64279  25.655  17.225   6.276
 4996POPC   C2B64280  25.779  17.086   6.693
 4996POPC   C3B64281  25.572  17.121   7.095
 4996POPC   C4B64282  25.340  17.289   7.440
 4997POPC   NC364283  10.881  36.334   5.359
 4997POPC   PO464284  10.377  36.781   5.609
 4997POPC   GL164285  10.719  36.667   5.884
 4997POPC   GL264286  10.798  37.019   5.812
 4997POPC   C1A64287  10.708  36.577   6.350
 4997POPC   D2A64288  10.375  36.771   6.628
 4997POPC   C3A64289  10.397  36.704   7.079
 4997POPC   C4A64290  10.506  36.778   7.536
 4997POPC   C1B64291  10.605  37.060   6.227
 4997POPC   C2B64292  10.841  37.029   6.635
 4997POPC   C3B64293  10.924  36.799   7.025
 4997POPC   C4B64294  10.911  37.054   7.398
 4998POPC   NC364295  23.525  31.917   5.456
 4998POPC   PO464296  23.796  32.610   5.436
 4998POPC   GL164297  23.571  32.456   5.822
 4998POPC   GL264298  23.597  32.076   5.927
 4998POPC   C1A64299  23.700  32.425   6.272
 4998POPC   D2A64300  24.049  32.523   6.537
 4998POPC   C3A64301  23.862  32.549   6.955
 4998POPC   C4A64302  23.546  32.255   7.149
 4998POPC   C1B64303  23.886  31.963   6.274
 4998POPC   C2B64304  23.834  32.034   6.747
 4998POPC   C3B64305  23.997  32.030   7.192
 4998POPC   C4B64306  23.767  31.929   7.592
 4999POPC   NC364307  39.211  20.599   5.337
 4999POPC   PO464308  38.935  20.411   5.867
 4999POPC   GL164309  39.148  20.626   6.073
 4999POPC   GL264310  39.283  20.848   5.785
 4999POPC   C1A64311  39.012  20.520   6.485
 4999POPC   D2A64312  39.296  20.354   6.662
 4999POPC   C3A64313  39.209  20.564   7.009
 4999POPC   C4A64314  38.965  20.513   7.399
 4999POPC   C1B64315  39.329  21.082   6.161
 4999POPC   C2B64316  39.424  20.869   6.547
 4999POPC   C3B64317  39.546  20.961   6.959
 4999POPC   C4B64318  39.342  20.860   7.374
 5000POPC   NC364319  27.169  29.243   5.404
 5000POPC   PO464320  26.552  28.853   5.342
 5000POPC   GL164321  26.756  28.987   5.716
 5000POPC   GL264322  26.689  29.318   5.656
 5000POPC   C1A64323  26.842  28.831   6.181
 5000POPC   D2A64324  26.886  28.999   6.640
 5000POPC   C3A64325  26.855  28.924   7.104
 5000POPC   C4A64326  26.566  28.900   7.441
 5000POPC   C1B64327  26.998  29.326   6.044
 5000POPC   C2B64328  27.087  29.435   6.487
 5000POPC   C3B64329  26.986  29.526   6.935
 5000POPC   C4B64330  26.766  29.389   7.359
 5001POPC   NC364331  12.361  16.125   5.422
 5001POPC   PO464332  11.974  15.681   5.485
 5001POPC   GL164333  11.812  15.834   5.835
 5001POPC   GL264334  12.085  16.047   5.836
 5001POPC   C1A64335  11.946  15.859   6.283
 5001POPC   D2A64336  12.097  15.942   6.680
 5001POPC   C3A64337  12.339  15.636   6.866
 5001POPC   C4A64338  12.050  15.686   7.169
 5001POPC   C1B64339  12.411  16.139   6.117
 5001POPC   C2B64340  12.550  16.152   6.526
 5001POPC   C3B64341  12.375  16.333   6.881
 5001POPC   C4B64342  12.109  16.181   7.210
 5002POPC   NC364343  40.757  32.643   5.098
 5002POPC   PO464344  40.735  33.230   5.404
 5002POPC   GL164345  40.823  32.961   5.789
 5002POPC   GL264346  40.535  32.727   5.898
 5002POPC   C1A64347  40.966  33.024   6.249
 5002POPC   D2A64348  40.762  33.118   6.675
 5002POPC   C3A64349  40.933  33.382   7.011
 5002POPC   C4A64350  41.055  33.328   7.450
 5002POPC   C1B64351  40.598  32.664   6.368
 5002POPC   C2B64352  40.988  32.645   6.647
 5002POPC   C3B64353  40.879  32.794   7.076
 5002POPC   C4B64354  40.474  32.833   7.275
 5003POPC   NC364355  39.162   6.201   5.540
 5003POPC   PO464356  39.371   5.470   5.465
 5003POPC   GL164357  39.255   5.772   5.815
 5003POPC   GL264358  39.451   6.077   5.972
 5003POPC   C1A64359  39.024   5.924   6.193
 5003POPC   D2A64360  39.243   6.097   6.558
 5003POPC   C3A64361  39.029   6.200   6.940
 5003POPC   C4A64362  39.147   5.919   7.195
 5003POPC   C1B64363  39.515   5.728   6.280
 5003POPC   C2B64364  39.570   5.569   6.717
 5003POPC   C3B64365  39.534   5.573   7.175
 5003POPC   C4B64366  39.544   5.532   7.656
 5004POPC   NC364367  35.472   8.176   5.359
 5004POPC   PO464368  35.108   8.664   5.610
 5004POPC   GL164369  35.465   8.458   5.784
 5004POPC   GL264370  35.415   8.047   5.851
 5004POPC   C1A64371  35.450   8.391   6.207
 5004POPC   D2A64372  35.564   8.099   6.474
 5004POPC   C3A64373  35.393   8.188   6.859
 5004POPC   C4A64374  35.536   8.470   7.155
 5004POPC   C1B64375  35.119   7.919   6.217
 5004POPC   C2B64376  34.961   7.950   6.670
 5004POPC   C3B64377  34.958   7.803   7.118
 5004POPC   C4B64378  35.033   7.774   7.597
 5005POPC   NC364379  44.964  43.841   5.355
 5005POPC   PO464380   0.489  44.290   5.344
 5005POPC   GL164381   0.470  44.009   5.711
 5005POPC   GL264382   0.134  44.144   5.791
 5005POPC   C1A64383   0.682  43.798   6.112
 5005POPC   D2A64384   0.844  43.965   6.522
 5005POPC   C3A64385   0.869  43.837   6.969
 5005POPC   C4A64386   0.499  43.814   7.253
 5005POPC   C1B64387   0.131  43.832   6.125
 5005POPC   C2B64388  44.949  43.719   6.524
 5005POPC   C3B64389   0.126  43.897   6.906
 5005POPC   C4B64390   0.150  44.257   7.211
 5006POPC   NC364391  16.998  13.560   5.401
 5006POPC   PO464392  16.439  13.365   5.139
 5006POPC   GL164393  16.607  13.605   5.711
 5006POPC   GL264394  16.930  13.357   5.848
 5006POPC   C1A64395  16.604  13.344   6.214
 5006POPC   D2A64396  16.885  13.362   6.579
 5006POPC   C3A64397  16.698  13.256   6.989
 5006POPC   C4A64398  16.758  13.555   7.361
 5006POPC   C1B64399  16.886  13.729   6.123
 5006POPC   C2B64400  16.579  13.770   6.486
 5006POPC   C3B64401  16.681  13.774   6.902
 5006POPC   C4B64402  16.977  14.009   7.184
 5007POPC   NC364403  44.465  16.122   5.439
 5007POPC   PO464404  44.807  15.575   5.437
 5007POPC   GL164405  44.793  15.775   5.816
 5007POPC   GL264406  44.428  15.816   5.888
 5007POPC   C1A64407  44.783  15.629   6.234
 5007POPC   D2A64408  44.687  15.808   6.630
 5007POPC   C3A64409  44.683  15.609   7.015
 5007POPC   C4A64410  44.343  15.719   7.303
 5007POPC   C1B64411  44.639  16.125   6.213
 5007POPC   C2B64412  44.533  16.324   6.646
 5007POPC   C3B64413  44.667  16.118   7.068
 5007POPC   C4B64414  44.939  16.256   7.438
 5008POPC   NC364415  36.335  21.556   5.423
 5008POPC   PO464416  35.751  21.236   5.648
 5008POPC   GL164417  36.095  21.397   5.836
 5008POPC   GL264418  36.048  21.745   5.822
 5008POPC   C1A64419  36.287  21.446   6.208
 5008POPC   D2A64420  36.156  21.286   6.597
 5008POPC   C3A64421  36.022  21.571   6.897
 5008POPC   C4A64422  36.118  21.360   7.265
 5008POPC   C1B64423  36.420  21.917   6.067
 5008POPC   C2B64424  36.530  21.854   6.488
 5008POPC   C3B64425  36.344  21.982   6.849
 5008POPC   C4B64426  36.293  21.821   7.257
 5009POPC   NC364427  35.572   0.983   5.320
 5009POPC   PO464428  35.410   1.670   5.188
 5009POPC   GL164429  35.449   1.469   5.643
 5009POPC   GL264430  35.642   1.152   5.779
 5009POPC   C1A64431  35.328   1.409   6.103
 5009POPC   D2A64432  35.052   1.402   6.490
 5009POPC   C3A64433  35.225   1.475   6.912
 5009POPC   C4A64434  35.411   1.385   7.293
 5009POPC   C1B64435  35.813   1.089   6.189
 5009POPC   C2B64436  35.572   1.238   6.536
 5009POPC   C3B64437  35.566   1.057   6.933
 5009POPC   C4B64438  35.822   1.015   7.286
 5010POPC   NC364439  34.753  18.527   5.405
 5010POPC   PO464440  34.360  18.028   5.291
 5010POPC   GL164441  34.630  18.090   5.657
 5010POPC   GL264442  34.381  18.318   5.746
 5010POPC   C1A64443  34.783  18.296   6.056
 5010POPC   D2A64444  34.681  18.183   6.489
 5010POPC   C3A64445  34.684  18.384   6.868
 5010POPC   C4A64446  34.617  18.194   7.277
 5010POPC   C1B64447  34.273  18.235   6.164
 5010POPC   C2B64448  34.211  18.354   6.588
 5010POPC   C3B64449  34.246  18.090   6.937
 5010POPC   C4B64450  34.095  18.298   7.303
 5011POPC   NC364451  29.321   8.919   5.223
 5011POPC   PO464452  28.886   8.390   5.238
 5011POPC   GL164453  29.045   8.678   5.644
 5011POPC   GL264454  29.055   9.031   5.690
 5011POPC   C1A64455  29.291   8.774   6.097
 5011POPC   D2A64456  29.412   8.549   6.496
 5011POPC   C3A64457  29.316   8.718   6.904
 5011POPC   C4A64458  28.970   8.785   7.174
 5011POPC   C1B64459  29.061   9.226   6.098
 5011POPC   C2B64460  29.140   9.063   6.537
 5011POPC   C3B64461  29.100   9.240   6.978
 5011POPC   C4B64462  28.797   9.494   7.250
 5012POPC   NC364463  39.892  21.897   5.435
 5012POPC   PO464464  40.183  22.505   5.270
 5012POPC   GL164465  40.162  22.383   5.733
 5012POPC   GL264466  39.841  22.219   5.835
 5012POPC   C1A64467  40.151  22.405   6.212
 5012POPC   D2A64468  40.183  22.141   6.591
 5012POPC   C3A64469  40.068  22.189   7.040
 5012POPC   C4A64470  40.122  21.767   7.196
 5012POPC   C1B64471  39.743  22.002   6.225
 5012POPC   C2B64472  39.667  22.073   6.668
 5012POPC   C3B64473  39.609  21.940   7.095
 5012POPC   C4B64474  39.594  22.153   7.496
 5013POPC   NC364475  40.758   0.840   5.668
 5013POPC   PO464476  41.019   0.245   5.373
 5013POPC   GL164477  40.973   0.373   5.810
 5013POPC   GL264478  40.595   0.385   5.861
 5013POPC   C1A64479  40.904   0.455   6.276
 5013POPC   D2A64480  40.627   0.300   6.624
 5013POPC   C3A64481  40.749   0.396   7.038
 5013POPC   C4A64482  40.804   0.810   7.210
 5013POPC   C1B64483  40.342   0.205   6.211
 5013POPC   C2B64484  40.165   0.075   6.635
 5013POPC   C3B64485  40.262   0.167   7.092
 5013POPC   C4B64486  40.522   0.274   7.486
 5014POPC   NC364487  23.074   5.717   5.480
 5014POPC   PO464488  23.425   6.243   5.562
 5014POPC   GL164489  23.083   6.030   5.885
 5014POPC   GL264490  22.810   5.752   5.902
 5014POPC   C1A64491  23.011   5.853   6.333
 5014POPC   D2A64492  23.060   5.549   6.621
 5014POPC   C3A64493  22.927   5.752   6.956
 5014POPC   C4A64494  23.067   5.906   7.346
 5014POPC   C1B64495  22.533   5.496   6.125
 5014POPC   C2B64496  22.540   5.612   6.552
 5014POPC   C3B64497  22.463   5.469   6.961
 5014POPC   C4B64498  22.587   5.680   7.326
 5015POPC   NC364499  22.080  25.725   5.405
 5015POPC   PO464500  22.339  25.039   5.569
 5015POPC   GL164501  22.082  25.152   5.873
 5015POPC   GL264502  22.264  25.451   5.895
 5015POPC   C1A64503  21.944  24.963   6.286
 5015POPC   D2A64504  21.695  24.942   6.699
 5015POPC   C3A64505  21.923  25.146   7.062
 5015POPC   C4A64506  21.830  25.158   7.520
 5015POPC   C1B64507  22.442  25.172   6.254
 5015POPC   C2B64508  22.634  25.320   6.642
 5015POPC   C3B64509  22.459  25.285   7.052
 5015POPC   C4B64510  22.301  25.395   7.478
 5016POPC   NC364511  27.756  23.914   5.362
 5016POPC   PO464512  27.333  23.393   5.421
 5016POPC   GL164513  27.446  23.702   5.715
 5016POPC   GL264514  27.813  23.595   5.769
 5016POPC   C1A64515  27.522  23.757   6.149
 5016POPC   D2A64516  27.556  23.437   6.482
 5016POPC   C3A64517  27.636  23.587   6.901
 5016POPC   C4A64518  27.590  23.451   7.323
 5016POPC   C1B64519  28.025  23.884   6.058
 5016POPC   C2B64520  27.924  24.012   6.483
 5016POPC   C3B64521  28.053  23.992   6.882
 5016POPC   C4B64522  27.779  23.968   7.208
 5017POPC   NC364523   0.636  32.391   5.180
 5017POPC   PO464524   0.272  31.863   5.295
 5017POPC   GL164525   0.550  32.086   5.621
 5017POPC   GL264526   0.374  31.990   5.929
 5017POPC   C1A64527   0.751  32.309   5.999
 5017POPC   D2A64528   0.596  32.284   6.443
 5017POPC   C3A64529   0.515  32.387   6.872
 5017POPC   C4A64530   0.468  32.143   7.260
 5017POPC   C1B64531   0.151  32.317   6.189
 5017POPC   C2B64532   0.058  32.366   6.630
 5017POPC   C3B64533   0.017  32.438   7.064
 5017POPC   C4B64534  44.972  32.188   7.442
 5018POPC   NC364535  10.648  30.972   5.412
 5018POPC   PO464536  10.374  30.356   5.483
 5018POPC   GL164537  10.595  30.551   5.834
 5018POPC   GL264538  10.427  30.880   5.892
 5018POPC   C1A64539  10.617  30.614   6.309
 5018POPC   D2A64540  10.425  30.976   6.532
 5018POPC   C3A64541  10.343  30.938   6.969
 5018POPC   C4A64542  10.595  30.620   7.163
 5018POPC   C1B64543  10.837  31.003   6.056
 5018POPC   C2B64544  11.007  30.933   6.461
 5018POPC   C3B64545  11.097  31.146   6.821
 5018POPC   C4B64546  10.819  31.096   7.175
 5019POPC   NC364547  27.429   4.670   5.483
 5019POPC   PO464548  27.634   5.305   5.391
 5019POPC   GL164549  27.594   5.046   5.807
 5019POPC   GL264550  27.794   4.742   5.884
 5019POPC   C1A64551  27.462   4.933   6.232
 5019POPC   D2A64552  27.222   5.134   6.573
 5019POPC   C3A64553  27.413   5.112   6.965
 5019POPC   C4A64554  27.475   5.398   7.257
 5019POPC   C1B64555  27.979   5.012   6.207
 5019POPC   C2B64556  27.763   5.175   6.574
 5019POPC   C3B64557  27.896   5.309   6.965
 5019POPC   C4B64558  28.039   4.970   7.195
 5020POPC   NC364559  23.911  22.608   5.618
 5020POPC   PO464560  23.546  23.173   5.370
 5020POPC   GL164561  23.635  23.022   5.806
 5020POPC   GL264562  23.982  23.043   5.863
 5020POPC   C1A64563  23.677  23.005   6.275
 5020POPC   D2A64564  23.675  22.786   6.654
 5020POPC   C3A64565  23.522  22.883   7.035
 5020POPC   C4A64566  23.439  22.723   7.421
 5020POPC   C1B64567  24.191  22.817   6.216
 5020POPC   C2B64568  24.175  22.829   6.662
 5020POPC   C3B64569  23.991  22.622   7.043
 5020POPC   C4B64570  24.027  22.612   7.470
 5021POPC   NC364571  33.774  37.215   5.489
 5021POPC   PO464572  33.395  36.648   5.469
 5021POPC   GL164573  33.633  36.777   5.885
 5021POPC   GL264574  33.899  36.544   5.986
 5021POPC   C1A64575  33.832  37.121   6.191
 5021POPC   D2A64576  33.998  37.339   6.589
 5021POPC   C3A64577  33.861  37.184   7.039
 5021POPC   C4A64578  33.743  36.966   7.441
 5021POPC   C1B64579  34.108  36.707   6.321
 5021POPC   C2B64580  33.950  36.841   6.676
 5021POPC   C3B64581  33.929  36.667   7.067
 5021POPC   C4B64582  33.602  36.472   7.342
 5022POPC   NC364583  17.201  35.571   5.344
 5022POPC   PO464584  17.806  35.374   5.409
 5022POPC   GL164585  17.617  35.176   5.805
 5022POPC   GL264586  17.414  35.463   5.844
 5022POPC   C1A64587  17.624  35.011   6.265
 5022POPC   D2A64588  17.323  35.020   6.630
 5022POPC   C3A64589  17.570  35.044   6.991
 5022POPC   C4A64590  17.924  35.155   7.181
 5022POPC   C1B64591  17.221  35.295   6.206
 5022POPC   C2B64592  17.204  35.534   6.588
 5022POPC   C3B64593  17.195  35.438   6.998
 5022POPC   C4B64594  17.093  35.028   7.147
 5023POPC   NC364595  11.516  31.469   5.430
 5023POPC   PO464596  10.868  31.383   5.427
 5023POPC   GL164597  10.993  31.478   5.830
 5023POPC   GL264598  11.335  31.612   5.867
 5023POPC   C1A64599  11.125  31.392   6.259
 5023POPC   D2A64600  11.211  31.640   6.623
 5023POPC   C3A64601  11.004  31.608   7.016
 5023POPC   C4A64602  11.159  31.443   7.403
 5023POPC   C1B64603  11.596  31.551   6.224
 5023POPC   C2B64604  11.606  31.320   6.612
 5023POPC   C3B64605  11.498  31.431   7.016
 5023POPC   C4B64606  11.583  31.729   7.348
 5024POPC   NC364607  32.932  13.912   5.138
 5024POPC   PO464608  32.810  14.584   5.396
 5024POPC   GL164609  32.732  14.483   5.819
 5024POPC   GL264610  32.801  14.138   5.736
 5024POPC   C1A64611  32.841  14.595   6.266
 5024POPC   D2A64612  33.120  14.599   6.646
 5024POPC   C3A64613  32.943  14.640   7.069
 5024POPC   C4A64614  32.497  14.659   7.156
 5024POPC   C1B64615  33.088  14.140   6.138
 5024POPC   C2B64616  33.027  14.096   6.589
 5024POPC   C3B64617  33.239  14.216   6.982
 5024POPC   C4B64618  33.183  14.198   7.408
 5025POPC   NC364619  16.168  31.448   4.990
 5025POPC   PO464620  15.682  31.118   5.299
 5025POPC   GL164621  15.897  31.451   5.590
 5025POPC   GL264622  15.900  31.204   5.860
 5025POPC   C1A64623  16.166  31.579   5.997
 5025POPC   D2A64624  16.330  31.217   6.259
 5025POPC   C3A64625  16.395  31.173   6.716
 5025POPC   C4A64626  16.205  31.415   7.049
 5025POPC   C1B64627  15.737  31.326   6.279
 5025POPC   C2B64628  15.749  31.239   6.745
 5025POPC   C3B64629  15.721  31.560   7.074
 5025POPC   C4B64630  15.420  31.821   7.232
 5026POPC   NC364631  19.771   5.764   5.435
 5026POPC   PO464632  20.395   5.827   5.571
 5026POPC   GL164633  20.063   5.949   5.889
 5026POPC   GL264634  19.686   5.873   5.910
 5026POPC   C1A64635  19.958   5.906   6.330
 5026POPC   D2A64636  20.066   5.897   6.749
 5026POPC   C3A64637  19.846   5.891   7.106
 5026POPC   C4A64638  20.063   5.858   7.481
 5026POPC   C1B64639  19.574   5.547   6.194
 5026POPC   C2B64640  19.605   5.641   6.636
 5026POPC   C3B64641  19.504   5.514   7.037
 5026POPC   C4B64642  19.446   5.705   7.454
 5027POPC   NC364643  34.822  43.410   5.388
 5027POPC   PO464644  35.018  42.732   5.335
 5027POPC   GL164645  34.826  42.828   5.741
 5027POPC   GL264646  34.471  42.909   5.784
 5027POPC   C1A64647  34.831  43.113   6.114
 5027POPC   D2A64648  34.805  43.359   6.508
 5027POPC   C3A64649  34.776  43.131   6.914
 5027POPC   C4A64650  34.621  43.039   7.335
 5027POPC   C1B64651  34.331  43.015   6.242
 5027POPC   C2B64652  34.322  43.204   6.618
 5027POPC   C3B64653  34.252  43.057   6.993
 5027POPC   C4B64654  34.139  43.237   7.363
 5028POPC   NC364655  33.165  35.497   5.448
 5028POPC   PO464656  32.662  35.129   5.266
 5028POPC   GL164657  32.779  35.173   5.708
 5028POPC   GL264658  33.044  35.342   5.907
 5028POPC   C1A64659  32.636  35.144   6.136
 5028POPC   D2A64660  32.751  35.063   6.563
 5028POPC   C3A64661  33.060  35.291   6.818
 5028POPC   C4A64662  32.872  35.296   7.224
 5028POPC   C1B64663  33.168  35.496   6.320
 5028POPC   C2B64664  33.103  35.809   6.665
 5028POPC   C3B64665  33.022  35.758   7.095
 5028POPC   C4B64666  33.205  35.578   7.475
 5029POPC   NC364667  29.121  27.314   5.675
 5029POPC   PO464668  29.391  26.721   5.395
 5029POPC   GL164669  29.446  26.897   5.802
 5029POPC   GL264670  29.123  26.834   5.855
 5029POPC   C1A64671  29.365  26.958   6.271
 5029POPC   D2A64672  29.050  26.990   6.599
 5029POPC   C3A64673  29.237  27.155   6.938
 5029POPC   C4A64674  29.380  26.898   7.228
 5029POPC   C1B64675  28.933  26.636   6.243
 5029POPC   C2B64676  28.851  26.500   6.679
 5029POPC   C3B64677  28.928  26.674   7.104
 5029POPC   C4B64678  28.810  26.466   7.475
 5030POPC   NC364679   3.908  25.359   5.480
 5030POPC   PO464680   3.263  25.089   5.509
 5030POPC   GL164681   3.365  25.226   5.882
 5030POPC   GL264682   3.235  25.570   5.783
 5030POPC   C1A64683   3.560  25.184   6.297
 5030POPC   D2A64684   3.761  25.412   6.673
 5030POPC   C3A64685   3.744  25.212   7.091
 5030POPC   C4A64686   3.948  25.250   7.526
 5030POPC   C1B64687   3.364  25.656   6.205
 5030POPC   C2B64688   3.266  25.469   6.608
 5030POPC   C3B64689   3.406  25.603   7.011
 5030POPC   C4B64690   3.597  25.602   7.414
 5031POPC   NC364691  20.479  44.863   5.304
 5031POPC   PO464692  20.793  44.269   5.396
 5031POPC   GL164693  20.765  44.599   5.685
 5031POPC   GL264694  20.425  44.635   5.755
 5031POPC   C1A64695  20.849  44.585   6.127
 5031POPC   D2A64696  20.929  44.365   6.527
 5031POPC   C3A64697  20.798  44.586   6.917
 5031POPC   C4A64698  20.829  44.678   7.373
 5031POPC   C1B64699  20.450  44.907   6.098
 5031POPC   C2B64700  20.469  44.759   6.491
 5031POPC   C3B64701  20.217  44.816   6.824
 5031POPC   C4B64702  20.332  44.613   7.192
 5032POPC   NC364703  37.375  40.237   5.503
 5032POPC   PO464704  38.013  39.861   5.573
 5032POPC   GL164705  37.784  40.104   5.879
 5032POPC   GL264706  37.439  39.965   5.915
 5032POPC   C1A64707  37.678  40.153   6.329
 5032POPC   D2A64708  37.561  40.333   6.755
 5032POPC   C3A64709  37.720  40.164   7.093
 5032POPC   C4A64710  38.003  39.922   7.302
 5032POPC   C1B64711  37.425  39.689   6.281
 5032POPC   C2B64712  37.574  39.803   6.684
 5032POPC   C3B64713  37.477  39.725   7.087
 5032POPC   C4B64714  37.347  39.619   7.486
 5033POPC   NC364715  28.140  21.597   5.650
 5033POPC   PO464716  28.548  21.219   5.296
 5033POPC   GL164717  28.461  21.211   5.764
 5033POPC   GL264718  28.120  21.061   5.833
 5033POPC   C1A64719  28.450  21.440   6.186
 5033POPC   D2A64720  28.619  21.488   6.581
 5033POPC   C3A64721  28.380  21.506   6.990
 5033POPC   C4A64722  28.649  21.495   7.355
 5033POPC   C1B64723  28.245  20.988   6.235
 5033POPC   C2B64724  28.201  21.176   6.615
 5033POPC   C3B64725  28.116  21.027   7.009
 5033POPC   C4B64726  28.099  21.116   7.458
 5034POPC   NC364727  29.555   8.066   5.571
 5034POPC   PO464728  30.202   8.123   5.410
 5034POPC   GL164729  30.042   8.091   5.819
 5034POPC   GL264730  29.870   8.409   5.856
 5034POPC   C1A64731  30.161   8.259   6.237
 5034POPC   D2A64732  29.933   8.485   6.572
 5034POPC   C3A64733  30.095   8.366   6.972
 5034POPC   C4A64734  30.161   7.939   7.126
 5034POPC   C1B64735  29.671   8.198   6.220
 5034POPC   C2B64736  29.598   7.802   6.462
 5034POPC   C3B64737  29.591   7.765   6.918
 5034POPC   C4B64738  29.659   8.074   7.219
 5035POPC   NC364739  32.575  23.526   5.484
 5035POPC   PO464740  31.975  23.407   5.228
 5035POPC   GL164741  32.020  23.661   5.646
 5035POPC   GL264742  31.968  24.039   5.662
 5035POPC   C1A64743  32.217  23.595   6.072
 5035POPC   D2A64744  32.168  23.374   6.465
 5035POPC   C3A64745  32.300  23.540   6.849
 5035POPC   C4A64746  32.407  23.747   7.261
 5035POPC   C1B64747  31.997  24.046   6.116
 5035POPC   C2B64748  32.163  23.934   6.551
 5035POPC   C3B64749  32.017  23.970   7.023
 5035POPC   C4B64750  32.048  24.005   7.519
 5036POPC   NC364751  15.538  25.231   5.602
 5036POPC   PO464752  15.125  25.322   5.076
 5036POPC   GL164753  15.049  25.077   5.541
 5036POPC   GL264754  15.067  25.372   5.732
 5036POPC   C1A64755  15.130  25.022   6.078
 5036POPC   D2A64756  15.135  25.235   6.509
 5036POPC   C3A64757  15.358  25.157   6.907
 5036POPC   C4A64758  15.096  25.217   7.270
 5036POPC   C1B64759  15.266  25.559   6.135
 5036POPC   C2B64760  15.396  25.714   6.569
 5036POPC   C3B64761  15.534  25.633   7.031
 5036POPC   C4B64762  15.430  25.532   7.485
 5037POPC   NC364763  18.489  34.729   5.412
 5037POPC   PO464764  17.853  34.435   5.517
 5037POPC   GL164765  18.208  34.483   5.787
 5037POPC   GL264766  18.126  34.818   5.794
 5037POPC   C1A64767  18.439  34.377   6.182
 5037POPC   D2A64768  18.261  34.296   6.578
 5037POPC   C3A64769  18.450  34.286   6.975
 5037POPC   C4A64770  18.324  34.500   7.308
 5037POPC   C1B64771  18.424  34.894   6.116
 5037POPC   C2B64772  18.462  34.760   6.551
 5037POPC   C3B64773  18.285  34.896   6.936
 5037POPC   C4B64774  18.373  35.007   7.363
 5038POPC   NC364775  29.792  10.698   5.619
 5038POPC   PO464776  29.743  11.350   5.506
 5038POPC   GL164777  29.975  11.375   5.872
 5038POPC   GL264778  30.305  11.533   5.866
 5038POPC   C1A64779  29.822  11.284   6.274
 5038POPC   D2A64780  29.711  11.524   6.622
 5038POPC   C3A64781  29.670  11.258   7.003
 5038POPC   C4A64782  29.800  11.341   7.433
 5038POPC   C1B64783  30.313  11.440   6.304
 5038POPC   C2B64784  30.173  11.301   6.680
 5038POPC   C3B64785  30.184  11.199   7.077
 5038POPC   C4B64786  30.398  11.515   7.244
 5039POPC   NC364787  21.779   5.025   5.372
 5039POPC   PO464788  21.249   5.336   5.743
 5039POPC   GL164789  21.641   5.188   5.891
 5039POPC   GL264790  21.695   4.836   5.843
 5039POPC   C1A64791  21.640   5.080   6.348
 5039POPC   D2A64792  21.328   5.116   6.691
 5039POPC   C3A64793  21.447   5.224   7.084
 5039POPC   C4A64794  21.150   5.474   7.277
 5039POPC   C1B64795  21.557   4.604   6.211
 5039POPC   C2B64796  21.630   4.604   6.659
 5039POPC   C3B64797  21.561   4.669   7.108
 5039POPC   C4B64798  21.415   4.638   7.559
 5040POPC   NC364799  12.116  23.301   5.443
 5040POPC   PO464800  12.389  22.620   5.275
 5040POPC   GL164801  12.196  22.832   5.633
 5040POPC   GL264802  12.403  23.098   5.803
 5040POPC   C1A64803  11.973  22.841   6.048
 5040POPC   D2A64804  12.128  22.836   6.471
 5040POPC   C3A64805  11.981  22.939   6.879
 5040POPC   C4A64806  11.796  22.780   7.248
 5040POPC   C1B64807  12.444  23.194   6.237
 5040POPC   C2B64808  12.282  23.318   6.624
 5040POPC   C3B64809  12.460  23.236   7.012
 5040POPC   C4B64810  12.300  22.935   7.276
 5041POPC   NC364811   5.071  10.113   5.333
 5041POPC   PO464812   5.377   9.547   5.479
 5041POPC   GL164813   5.127   9.836   5.773
 5041POPC   GL264814   4.743   9.899   5.691
 5041POPC   C1A64815   5.223   9.809   6.222
 5041POPC   D2A64816   5.372   9.517   6.560
 5041POPC   C3A64817   5.426   9.662   6.980
 5041POPC   C4A64818   5.239   9.550   7.370
 5041POPC   C1B64819   4.712   9.632   6.076
 5041POPC   C2B64820   4.844   9.640   6.515
 5041POPC   C3B64821   4.925   9.674   6.938
 5041POPC   C4B64822   5.036   9.996   7.237
 5042POPC   NC364823  10.312   1.132   5.458
 5042POPC   PO464824  10.725   1.636   5.258
 5042POPC   GL164825  10.583   1.578   5.698
 5042POPC   GL264826  10.658   1.270   5.822
 5042POPC   C1A64827  10.582   1.609   6.174
 5042POPC   D2A64828  10.332   1.422   6.496
 5042POPC   C3A64829  10.546   1.195   6.770
 5042POPC   C4A64830  10.463   1.282   7.166
 5042POPC   C1B64831  10.357   1.094   6.111
 5042POPC   C2B64832  10.200   0.909   6.497
 5042POPC   C3B64833  10.066   1.041   6.905
 5042POPC   C4B64834  10.160   0.856   7.277
 5043POPC   NC364835  35.451  17.085   5.355
 5043POPC   PO464836  35.227  17.724   5.341
 5043POPC   GL164837  35.279  17.521   5.706
 5043POPC   GL264838  35.035  17.770   5.805
 5043POPC   C1A64839  35.408  17.582   6.150
 5043POPC   D2A64840  35.378  17.410   6.576
 5043POPC   C3A64841  35.350  17.665   6.947
 5043POPC   C4A64842  35.492  17.582   7.338
 5043POPC   C1B64843  34.885  17.815   6.185
 5043POPC   C2B64844  35.013  17.802   6.577
 5043POPC   C3B64845  34.841  17.836   6.978
 5043POPC   C4B64846  35.103  17.960   7.344
 5044POPC   NC364847  38.677  44.323   5.441
 5044POPC   PO464848  38.292  43.735   5.273
 5044POPC   GL164849  38.440  43.924   5.650
 5044POPC   GL264850  38.720  43.701   5.685
 5044POPC   C1A64851  38.523  44.120   6.084
 5044POPC   D2A64852  38.257  44.135   6.476
 5044POPC   C3A64853  38.430  44.005   6.891
 5044POPC   C4A64854  38.745  43.925   7.181
 5044POPC   C1B64855  38.445  43.624   6.064
 5044POPC   C2B64856  38.478  43.661   6.507
 5044POPC   C3B64857  38.447  43.390   6.848
 5044POPC   C4B64858  38.362  43.576   7.212
 5045POPC   NC364859  12.912  24.709   5.406
 5045POPC   PO464860  12.995  24.024   5.509
 5045POPC   GL164861  13.001  24.408   5.806
 5045POPC   GL264862  12.738  24.291   5.948
 5045POPC   C1A64863  12.843  24.680   6.216
 5045POPC   D2A64864  12.974  24.459   6.575
 5045POPC   C3A64865  13.125  24.523   6.977
 5045POPC   C4A64866  12.941  24.534   7.392
 5045POPC   C1B64867  12.400  24.262   6.217
 5045POPC   C2B64868  12.441  24.489   6.574
 5045POPC   C3B64869  12.599  24.546   6.972
 5045POPC   C4B64870  12.530  24.220   7.296
 5046POPC   NC364871  36.495   6.753   4.993
 5046POPC   PO464872  35.972   6.469   5.436
 5046POPC   GL164873  36.170   6.499   5.786
 5046POPC   GL264874  36.470   6.643   5.643
 5046POPC   C1A64875  36.039   6.696   6.156
 5046POPC   D2A64876  35.852   6.760   6.550
 5046POPC   C3A64877  36.076   6.957   6.879
 5046POPC   C4A64878  35.894   6.785   7.231
 5046POPC   C1B64879  36.558   6.670   6.094
 5046POPC   C2B64880  36.390   6.776   6.525
 5046POPC   C3B64881  36.218   6.488   6.840
 5046POPC   C4B64882  36.208   6.346   7.255
 5047POPC   NC364883  35.946   3.639   5.211
 5047POPC   PO464884  35.300   3.463   5.439
 5047POPC   GL164885  35.399   3.232   5.770
 5047POPC   GL264886  35.209   3.438   5.967
 5047POPC   C1A64887  35.587   3.178   6.185
 5047POPC   D2A64888  35.409   3.427   6.520
 5047POPC   C3A64889  35.471   3.257   6.917
 5047POPC   C4A64890  35.215   3.321   7.257
 5047POPC   C1B64891  35.428   3.798   6.159
 5047POPC   C2B64892  35.790   3.773   6.444
 5047POPC   C3B64893  35.656   3.803   6.866
 5047POPC   C4B64894  35.644   3.624   7.255
 5048POPC   NC364895  28.894   5.527   5.506
 5048POPC   PO464896  29.313   4.897   5.590
 5048POPC   GL164897  29.206   5.240   5.828
 5048POPC   GL264898  29.479   5.446   5.744
 5048POPC   C1A64899  28.953   5.341   6.207
 5048POPC   D2A64900  28.729   5.170   6.565
 5048POPC   C3A64901  28.879   4.812   6.780
 5048POPC   C4A64902  28.982   4.703   7.216
 5048POPC   C1B64903  29.459   5.410   6.229
 5048POPC   C2B64904  29.261   5.203   6.633
 5048POPC   C3B64905  29.349   5.257   7.088
 5048POPC   C4B64906  29.321   5.161   7.543
 5049POPC   NC364907  11.892   0.698   5.399
 5049POPC   PO464908  12.431   0.243   5.294
 5049POPC   GL164909  12.333   0.423   5.722
 5049POPC   GL264910  12.569   0.725   5.793
 5049POPC   C1A64911  12.098   0.251   6.109
 5049POPC   D2A64912  11.903   0.087   6.508
 5049POPC   C3A64913  11.849   0.337   6.887
 5049POPC   C4A64914  11.693   0.759   7.005
 5049POPC   C1B64915  12.272   0.738   6.142
 5049POPC   C2B64916  12.224   0.542   6.548
 5049POPC   C3B64917  12.272   0.599   6.992
 5049POPC   C4B64918  12.397   0.358   7.404
 5050POPC   NC364919  36.886   3.968   5.127
 5050POPC   PO464920  37.121   3.437   5.459
 5050POPC   GL164921  37.035   3.375   5.902
 5050POPC   GL264922  36.680   3.429   5.967
 5050POPC   C1A64923  36.958   3.334   6.364
 5050POPC   D2A64924  36.599   3.364   6.637
 5050POPC   C3A64925  36.827   3.450   7.005
 5050POPC   C4A64926  36.973   3.433   7.423
 5050POPC   C1B64927  36.720   3.789   6.286
 5050POPC   C2B64928  36.944   3.896   6.671
 5050POPC   C3B64929  36.922   3.944   7.104
 5050POPC   C4B64930  36.500   3.827   7.257
 5051POPC   NC364931  37.786  32.083   5.400
 5051POPC   PO464932  37.364  31.455   5.289
 5051POPC   GL164933  37.600  31.557   5.682
 5051POPC   GL264934  37.500  31.890   5.795
 5051POPC   C1A64935  37.735  31.421   6.100
 5051POPC   D2A64936  37.569  31.271   6.472
 5051POPC   C3A64937  37.627  31.475   6.850
 5051POPC   C4A64938  37.706  31.238   7.258
 5051POPC   C1B64939  37.651  31.897   6.231
 5051POPC   C2B64940  38.036  31.836   6.464
 5051POPC   C3B64941  38.118  31.731   6.916
 5051POPC   C4B64942  37.796  31.733   7.244
 5052POPC   NC364943  24.086  14.342   5.292
 5052POPC   PO464944  23.541  13.998   5.390
 5052POPC   GL164945  23.553  14.393   5.709
 5052POPC   GL264946  23.791  14.704   5.684
 5052POPC   C1A64947  23.477  14.608   6.157
 5052POPC   D2A64948  23.537  14.737   6.628
 5052POPC   C3A64949  23.479  14.468   7.024
 5052POPC   C4A64950  23.396  14.017   7.157
 5052POPC   C1B64951  24.021  14.847   6.085
 5052POPC   C2B64952  23.999  14.943   6.557
 5052POPC   C3B64953  23.936  14.735   6.990
 5052POPC   C4B64954  23.683  14.741   7.400
 5053POPC   NC364955  32.027   4.963   5.526
 5053POPC   PO464956  32.019   5.636   5.746
 5053POPC   GL164957  32.018   5.244   5.953
 5053POPC   GL264958  32.329   5.124   5.927
 5053POPC   C1A64959  32.074   5.166   6.393
 5053POPC   D2A64960  31.909   5.477   6.690
 5053POPC   C3A64961  32.177   5.445   7.018
 5053POPC   C4A64962  32.293   5.063   7.179
 5053POPC   C1B64963  32.472   4.852   6.253
 5053POPC   C2B64964  32.421   4.850   6.712
 5053POPC   C3B64965  32.730   4.841   7.029
 5053POPC   C4B64966  32.677   4.886   7.477
 5054POPC   NC364967   4.132  23.409   5.297
 5054POPC   PO464968   4.251  22.807   5.375
 5054POPC   GL164969   4.154  23.090   5.720
 5054POPC   GL264970   4.136  22.800   5.929
 5054POPC   C1A64971   4.043  23.233   6.168
 5054POPC   D2A64972   4.034  23.027   6.586
 5054POPC   C3A64973   4.138  23.174   7.011
 5054POPC   C4A64974   4.472  23.076   7.306
 5054POPC   C1B64975   4.114  22.576   6.290
 5054POPC   C2B64976   3.867  22.549   6.631
 5054POPC   C3B64977   4.065  22.521   6.974
 5054POPC   C4B64978   4.058  22.741   7.308
 5055POPC   NC364979  29.725  37.888   5.521
 5055POPC   PO464980  30.244  37.394   5.541
 5055POPC   GL164981  29.951  37.481   5.833
 5055POPC   GL264982  30.132  37.787   5.954
 5055POPC   C1A64983  29.763  37.585   6.238
 5055POPC   D2A64984  29.955  37.795   6.596
 5055POPC   C3A64985  29.851  37.593   6.978
 5055POPC   C4A64986  30.108  37.472   7.291
 5055POPC   C1B64987  29.837  38.088   6.161
 5055POPC   C2B64988  29.664  38.222   6.527
 5055POPC   C3B64989  29.683  38.256   6.938
 5055POPC   C4B64990  29.730  37.980   7.280
 5056POPC   NC364991  39.851   2.326   5.438
 5056POPC   PO464992  39.804   1.632   5.429
 5056POPC   GL164993  39.833   1.942   5.765
 5056POPC   GL264994  40.158   2.060   5.737
 5056POPC   C1A64995  39.683   2.198   6.142
 5056POPC   D2A64996  39.704   2.064   6.598
 5056POPC   C3A64997  39.674   2.306   7.024
 5056POPC   C4A64998  39.641   2.318   7.549
 5056POPC   C1B64999  40.196   2.106   6.160
 5056POPC   C2B65000  40.214   1.883   6.527
 5056POPC   C3B65001  40.100   1.928   6.934
 5056POPC   C4B65002  40.290   2.018   7.330
 5057POPC   NC365003  22.394  23.273   5.544
 5057POPC   PO465004  21.998  22.745   5.474
 5057POPC   GL165005  22.249  22.844   5.806
 5057POPC   GL265006  22.052  23.125   5.878
 5057POPC   C1A65007  22.318  22.724   6.233
 5057POPC   D2A65008  22.226  22.904   6.609
 5057POPC   C3A65009  22.276  22.722   6.987
 5057POPC   C4A65010  22.263  22.599   7.376
 5057POPC   C1B65011  22.288  23.245   6.215
 5057POPC   C2B65012  22.395  23.425   6.612
 5057POPC   C3B65013  22.326  23.227   6.991
 5057POPC   C4B65014  22.351  23.109   7.401
 5058POPC   NC365015  34.208  30.353   5.073
 5058POPC   PO465016  34.472  30.922   5.141
 5058POPC   GL165017  34.457  30.948   5.694
 5058POPC   GL265018  34.407  30.599   5.927
 5058POPC   C1A65019  34.681  30.948   6.146
 5058POPC   D2A65020  34.535  30.625   6.472
 5058POPC   C3A65021  34.632  30.684   6.913
 5058POPC   C4A65022  34.739  31.054   7.135
 5058POPC   C1B65023  34.195  30.335   6.242
 5058POPC   C2B65024  34.190  30.298   6.698
 5058POPC   C3B65025  34.253  30.410   7.149
 5058POPC   C4B65026  34.487  30.640   7.465
 5059POPC   NC365027   5.111  35.960   5.354
 5059POPC   PO465028   4.752  36.487   5.371
 5059POPC   GL165029   5.006  36.291   5.739
 5059POPC   GL265030   5.383  36.301   5.679
 5059POPC   C1A65031   4.868  36.071   6.129
 5059POPC   D2A65032   4.771  35.756   6.470
 5059POPC   C3A65033   4.756  35.867   6.913
 5059POPC   C4A65034   5.075  36.116   7.113
 5059POPC   C1B65035   5.349  36.328   6.139
 5059POPC   C2B65036   5.279  36.454   6.605
 5059POPC   C3B65037   5.474  36.421   7.062
 5059POPC   C4B65038   5.260  36.460   7.460
 5060POPC   NC365039  33.583  40.893   5.343
 5060POPC   PO465040  33.223  41.445   5.368
 5060POPC   GL165041  33.476  41.199   5.731
 5060POPC   GL265042  33.876  41.205   5.680
 5060POPC   C1A65043  33.634  40.839   6.040
 5060POPC   D2A65044  33.593  40.537   6.427
 5060POPC   C3A65045  33.548  40.733   6.847
 5060POPC   C4A65046  33.624  40.545   7.251
 5060POPC   C1B65047  34.089  41.102   6.090
 5060POPC   C2B65048  33.962  40.903   6.474
 5060POPC   C3B65049  34.077  40.735   6.873
 5060POPC   C4B65050  33.924  41.045   7.133
 5061POPC   NC365051  23.253  21.182   5.313
 5061POPC   PO465052  22.701  21.436   5.169
 5061POPC   GL165053  22.745  21.379   5.657
 5061POPC   GL265054  23.072  21.352   5.814
 5061POPC   C1A65055  22.651  21.501   6.131
 5061POPC   D2A65056  22.879  21.478   6.546
 5061POPC   C3A65057  22.684  21.460   6.957
 5061POPC   C4A65058  22.488  21.740   7.220
 5061POPC   C1B65059  22.985  21.094   6.207
 5061POPC   C2B65060  22.850  20.943   6.628
 5061POPC   C3B65061  22.720  20.943   7.064
 5061POPC   C4B65062  23.043  21.016   7.339
 5062POPC   NC365063  26.605  32.313   5.277
 5062POPC   PO465064  27.229  32.334   5.175
 5062POPC   GL165065  27.015  32.329   5.643
 5062POPC   GL265066  26.769  32.578   5.738
 5062POPC   C1A65067  27.031  32.254   6.145
 5062POPC   D2A65068  27.190  32.270   6.639
 5062POPC   C3A65069  27.102  32.071   7.073
 5062POPC   C4A65070  26.954  32.030   7.561
 5062POPC   C1B65071  26.473  32.589   6.107
 5062POPC   C2B65072  26.504  32.539   6.563
 5062POPC   C3B65073  26.377  32.545   7.000
 5062POPC   C4B65074  26.600  32.328   7.340
 5063POPC   NC365075  11.086   8.146   5.379
 5063POPC   PO465076  11.394   8.698   5.413
 5063POPC   GL165077  11.200   8.491   5.793
 5063POPC   GL265078  11.351   8.139   5.814
 5063POPC   C1A65079  11.195   8.367   6.261
 5063POPC   D2A65080  11.373   8.266   6.683
 5063POPC   C3A65081  11.287   8.019   7.083
 5063POPC   C4A65082  11.426   8.255   7.410
 5063POPC   C1B65083  11.032   7.929   6.019
 5063POPC   C2B65084  11.022   7.897   6.461
 5063POPC   C3B65085  10.884   8.115   6.788
 5063POPC   C4B65086  10.752   7.916   7.136
 5064POPC   NC365087  11.023   4.813   5.438
 5064POPC   PO465088  11.324   5.356   5.369
 5064POPC   GL165089  11.150   5.163   5.790
 5064POPC   GL265090  11.116   4.813   5.932
 5064POPC   C1A65091  11.016   5.242   6.241
 5064POPC   D2A65092  11.224   5.226   6.655
 5064POPC   C3A65093  11.132   4.903   6.946
 5064POPC   C4A65094  10.865   5.147   7.176
 5064POPC   C1B65095  11.473   4.688   6.194
 5064POPC   C2B65096  11.553   4.822   6.597
 5064POPC   C3B65097  11.629   4.906   7.035
 5064POPC   C4B65098  11.437   4.723   7.387
 5065POPC   NC365099  36.106  14.199   5.432
 5065POPC   PO465100  35.510  14.370   5.229
 5065POPC   GL165101  35.729  14.222   5.788
 5065POPC   GL265102  36.117  14.432   5.897
 5065POPC   C1A65103  35.815  14.380   6.271
 5065POPC   D2A65104  35.978  14.287   6.696
 5065POPC   C3A65105  35.877  14.540   7.037
 5065POPC   C4A65106  36.088  14.693   7.372
 5065POPC   C1B65107  36.420  14.310   6.183
 5065POPC   C2B65108  36.523  14.452   6.562
 5065POPC   C3B65109  36.397  14.538   6.956
 5065POPC   C4B65110  36.567  14.320   7.263
 5066POPC   NC365111  29.481  39.426   5.642
 5066POPC   PO465112  30.077  39.063   5.463
 5066POPC   GL165113  29.935  39.290   5.847
 5066POPC   GL265114  30.249  39.376   6.024
 5066POPC   C1A65115  29.805  39.454   6.275
 5066POPC   D2A65116  29.831  39.214   6.679
 5066POPC   C3A65117  29.800  39.331   7.103
 5066POPC   C4A65118  29.571  39.145   7.436
 5066POPC   C1B65119  30.244  39.182   6.378
 5066POPC   C2B65120  30.310  38.997   6.744
 5066POPC   C3B65121  30.141  38.846   7.128
 5066POPC   C4B65122  30.063  39.079   7.496
 5067POPC   NC365123  29.283  16.928   5.552
 5067POPC   PO465124  28.819  16.490   5.398
 5067POPC   GL165125  28.997  16.569   5.805
 5067POPC   GL265126  29.312  16.670   5.986
 5067POPC   C1A65127  28.828  16.680   6.205
 5067POPC   D2A65128  29.055  16.794   6.569
 5067POPC   C3A65129  28.894  16.621   6.941
 5067POPC   C4A65130  28.884  16.772   7.365
 5067POPC   C1B65131  29.524  16.698   6.394
 5067POPC   C2B65132  29.534  16.737   6.838
 5067POPC   C3B65133  29.358  16.615   7.215
 5067POPC   C4B65134  29.547  16.512   7.609
 5068POPC   NC365135  10.815  43.569   5.628
 5068POPC   PO465136  10.644  43.990   5.266
 5068POPC   GL165137  10.414  43.853   5.699
 5068POPC   GL265138  10.096  43.645   5.740
 5068POPC   C1A65139  10.554  43.932   6.164
 5068POPC   D2A65140  10.832  43.815   6.550
 5068POPC   C3A65141  10.664  43.654   6.979
 5068POPC   C4A65142  10.529  43.809   7.405
 5068POPC   C1B65143  10.068  43.739   6.181
 5068POPC   C2B65144  10.299  43.784   6.585
 5068POPC   C3B65145  10.203  43.929   6.989
 5068POPC   C4B65146  10.133  43.575   7.217
 5069POPC   NC365147  11.221  22.653   5.572
 5069POPC   PO465148  11.701  23.106   5.475
 5069POPC   GL165149  11.521  23.112   5.873
 5069POPC   GL265150  11.155  23.092   5.839
 5069POPC   C1A65151  11.465  22.819   6.234
 5069POPC   D2A65152  11.590  22.657   6.647
 5069POPC   C3A65153  11.437  22.954   6.947
 5069POPC   C4A65154  11.547  23.213   7.299
 5069POPC   C1B65155  10.956  22.862   6.169
 5069POPC   C2B65156  11.050  22.778   6.588
 5069POPC   C3B65157  10.934  22.878   6.984
 5069POPC   C4B65158  11.081  23.002   7.397
 5070POPC   NC365159  31.839   6.635   5.089
 5070POPC   PO465160  31.496   6.899   5.565
 5070POPC   GL165161  31.553   6.718   5.893
 5070POPC   GL265162  31.265   6.505   5.818
 5070POPC   C1A65163  31.576   6.883   6.286
 5070POPC   D2A65164  31.643   6.622   6.606
 5070POPC   C3A65165  31.593   6.829   6.956
 5070POPC   C4A65166  31.708   6.546   7.246
 5070POPC   C1B65167  31.110   6.731   6.133
 5070POPC   C2B65168  31.149   6.691   6.538
 5070POPC   C3B65169  31.186   6.522   6.908
 5070POPC   C4B65170  31.206   6.630   7.278
 5071POPC   NC365171   5.204   0.772   5.396
 5071POPC   PO465172   5.216   0.090   5.135
 5071POPC   GL165173   5.083   0.140   5.695
 5071POPC   GL265174   4.860   0.403   5.607
 5071POPC   C1A65175   5.251   0.230   6.146
 5071POPC   D2A65176   5.380   0.408   6.566
 5071POPC   C3A65177   5.404   0.179   6.948
 5071POPC   C4A65178   5.244   0.258   7.356
 5071POPC   C1B65179   4.764   0.369   6.081
 5071POPC   C2B65180   4.869   0.290   6.540
 5071POPC   C3B65181   4.889   0.371   7.013
 5071POPC   C4B65182   4.778   0.329   7.499
 5072POPC   NC365183  10.699  21.594   5.395
 5072POPC   PO465184  10.670  20.919   5.398
 5072POPC   GL165185  10.451  21.218   5.672
 5072POPC   GL265186  10.721  21.380   5.868
 5072POPC   C1A65187  10.341  21.200   6.138
 5072POPC   D2A65188  10.571  21.244   6.539
 5072POPC   C3A65189  10.417  21.506   6.855
 5072POPC   C4A65190  10.311  21.591   7.272
 5072POPC   C1B65191  10.824  21.609   6.262
 5072POPC   C2B65192  10.953  21.705   6.710
 5072POPC   C3B65193  10.825  21.569   7.146
 5072POPC   C4B65194  10.797  21.702   7.611
 5073POPC   NC365195  11.587  26.048   5.593
 5073POPC   PO465196  12.046  26.286   5.193
 5073POPC   GL165197  12.035  26.268   5.689
 5073POPC   GL265198  12.123  25.891   5.768
 5073POPC   C1A65199  11.900  26.127   6.150
 5073POPC   D2A65200  12.131  26.050   6.517
 5073POPC   C3A65201  11.955  25.970   6.927
 5073POPC   C4A65202  11.850  26.182   7.281
 5073POPC   C1B65203  12.054  25.638   6.193
 5073POPC   C2B65204  12.211  25.571   6.644
 5073POPC   C3B65205  12.465  25.913   6.889
 5073POPC   C4B65206  12.346  25.972   7.327
 5074POPC   NC365207  19.167  14.769   5.507
 5074POPC   PO465208  18.734  14.215   5.351
 5074POPC   GL165209  18.999  14.290   5.766
 5074POPC   GL265210  19.310  14.434   5.910
 5074POPC   C1A65211  18.932  14.272   6.226
 5074POPC   D2A65212  18.758  14.226   6.626
 5074POPC   C3A65213  18.908  14.286   7.044
 5074POPC   C4A65214  18.668  14.617   7.160
 5074POPC   C1B65215  19.434  14.199   6.298
 5074POPC   C2B65216  19.311  14.185   6.733
 5074POPC   C3B65217  19.415  14.474   7.059
 5074POPC   C4B65218  19.392  14.554   7.504
 5075POPC   NC365219  29.739   4.996   5.447
 5075POPC   PO465220  30.084   5.527   5.621
 5075POPC   GL165221  29.915   5.285   5.970
 5075POPC   GL265222  29.682   5.021   5.942
 5075POPC   C1A65223  29.878   5.126   6.393
 5075POPC   D2A65224  29.706   4.978   6.744
 5075POPC   C3A65225  29.884   5.169   7.082
 5075POPC   C4A65226  30.075   4.868   7.343
 5075POPC   C1B65227  29.381   4.894   6.237
 5075POPC   C2B65228  29.220   4.574   6.480
 5075POPC   C3B65229  29.360   4.630   6.876
 5075POPC   C4B65230  29.554   4.806   7.245
 5076POPC   NC365231   1.804   9.399   5.355
 5076POPC   PO465232   1.696   8.734   5.427
 5076POPC   GL165233   1.929   9.007   5.758
 5076POPC   GL265234   2.282   9.172   5.761
 5076POPC   C1A65235   2.113   8.920   6.193
 5076POPC   D2A65236   1.931   9.071   6.591
 5076POPC   C3A65237   1.953   8.904   7.021
 5076POPC   C4A65238   1.682   9.112   7.330
 5076POPC   C1B65239   2.247   9.405   6.186
 5076POPC   C2B65240   2.103   9.551   6.605
 5076POPC   C3B65241   2.158   9.367   6.981
 5076POPC   C4B65242   2.176   9.262   7.383
 5077POPC   NC365243  30.901  25.981   5.133
 5077POPC   PO465244  30.362  26.235   5.411
 5077POPC   GL165245  30.457  26.004   5.800
 5077POPC   GL265246  30.810  25.932   5.787
 5077POPC   C1A65247  30.656  26.181   6.214
 5077POPC   D2A65248  30.839  26.092   6.608
 5077POPC   C3A65249  30.581  26.120   6.940
 5077POPC   C4A65250  30.624  26.334   7.323
 5077POPC   C1B65251  30.691  25.668   6.170
 5077POPC   C2B65252  30.554  25.679   6.601
 5077POPC   C3B65253  30.358  25.636   6.983
 5077POPC   C4B65254  30.368  25.872   7.339
 5078POPC   NC365255  44.275   7.578   5.450
 5078POPC   PO465256  44.945   7.281   5.473
 5078POPC   GL165257  44.549   7.158   5.722
 5078POPC   GL265258  44.461   7.475   5.913
 5078POPC   C1A65259  44.553   7.052   6.166
 5078POPC   D2A65260  44.553   7.412   6.453
 5078POPC   C3A65261  44.654   7.413   6.907
 5078POPC   C4A65262  44.604   7.086   7.211
 5078POPC   C1B65263  44.808   7.716   6.096
 5078POPC   C2B65264  44.822   7.874   6.516
 5078POPC   C3B65265  44.761   7.976   6.935
 5078POPC   C4B65266  44.582   7.785   7.296
 5079POPC   NC365267  29.451  20.735   5.391
 5079POPC   PO465268  28.785  20.509   5.393
 5079POPC   GL165269  29.044  20.571   5.751
 5079POPC   GL265270  29.044  20.936   5.691
 5079POPC   C1A65271  29.337  20.405   6.114
 5079POPC   D2A65272  29.612  20.423   6.504
 5079POPC   C3A65273  29.471  20.548   6.929
 5079POPC   C4A65274  29.331  20.671   7.338
 5079POPC   C1B65275  29.217  20.895   6.119
 5079POPC   C2B65276  29.167  20.706   6.534
 5079POPC   C3B65277  29.047  20.831   6.950
 5079POPC   C4B65278  29.035  21.113   7.332
 5080POPC   NC365279  34.526  44.106   5.284
 5080POPC   PO465280  34.333  43.437   5.151
 5080POPC   GL165281  34.364  43.759   5.571
 5080POPC   GL265282  34.678  43.773   5.709
 5080POPC   C1A65283  34.355  43.927   6.055
 5080POPC   D2A65284  34.467  43.768   6.513
 5080POPC   C3A65285  34.459  44.015   6.927
 5080POPC   C4A65286  34.411  43.831   7.350
 5080POPC   C1B65287  34.889  43.786   6.137
 5080POPC   C2B65288  34.985  43.978   6.549
 5080POPC   C3B65289  34.887  43.726   6.907
 5080POPC   C4B65290  34.829  43.503   7.274
 5081POPC   NC365291  27.914   5.726   5.495
 5081POPC   PO465292  27.262   5.828   5.307
 5081POPC   GL165293  27.290   6.017   5.738
 5081POPC   GL265294  27.616   5.903   5.900
 5081POPC   C1A65295  27.183   5.998   6.201
 5081POPC   D2A65296  27.209   5.685   6.574
 5081POPC   C3A65297  27.352   5.845   6.986
 5081POPC   C4A65298  27.728   5.834   7.270
 5081POPC   C1B65299  27.680   5.843   6.369
 5081POPC   C2B65300  27.907   5.985   6.758
 5081POPC   C3B65301  28.150   6.054   7.127
 5081POPC   C4B65302  28.188   5.859   7.530
 5082POPC   NC365303  23.799  28.701   5.419
 5082POPC   PO465304  23.829  28.057   5.520
 5082POPC   GL165305  23.658  28.301   5.830
 5082POPC   GL265306  23.425  28.558   5.742
 5082POPC   C1A65307  23.812  28.379   6.233
 5082POPC   D2A65308  23.692  28.178   6.614
 5082POPC   C3A65309  23.993  28.094   6.932
 5082POPC   C4A65310  23.911  28.301   7.302
 5082POPC   C1B65311  23.450  28.750   6.147
 5082POPC   C2B65312  23.310  28.781   6.575
 5082POPC   C3B65313  23.473  28.736   6.992
 5082POPC   C4B65314  23.384  28.378   7.246
 5083POPC   NC365315  30.369   3.537   5.472
 5083POPC   PO465316  29.705   3.575   5.462
 5083POPC   GL165317  29.984   3.481   5.822
 5083POPC   GL265318  30.151   3.168   5.762
 5083POPC   C1A65319  30.115   3.535   6.268
 5083POPC   D2A65320  30.032   3.623   6.707
 5083POPC   C3A65321  29.906   3.457   7.105
 5083POPC   C4A65322  30.099   3.545   7.473
 5083POPC   C1B65323  30.236   3.057   6.145
 5083POPC   C2B65324  30.225   3.126   6.600
 5083POPC   C3B65325  30.207   3.019   7.040
 5083POPC   C4B65326  30.038   3.051   7.439
 5084POPC   NC365327  29.295  17.564   5.310
 5084POPC   PO465328  29.338  17.999   5.761
 5084POPC   GL165329  29.270  17.618   5.972
 5084POPC   GL265330  29.422  17.340   5.817
 5084POPC   C1A65331  29.053  17.595   6.349
 5084POPC   D2A65332  28.914  17.405   6.724
 5084POPC   C3A65333  29.096  17.633   7.035
 5084POPC   C4A65334  29.357  17.687   7.376
 5084POPC   C1B65335  29.297  17.146   6.213
 5084POPC   C2B65336  29.393  17.193   6.654
 5084POPC   C3B65337  29.149  17.070   7.027
 5084POPC   C4B65338  29.019  17.287   7.412
 5085POPC   NC365339   8.510  19.360   5.363
 5085POPC   PO465340   8.156  19.961   5.200
 5085POPC   GL165341   8.199  19.866   5.657
 5085POPC   GL265342   8.511  19.699   5.741
 5085POPC   C1A65343   8.171  19.937   6.113
 5085POPC   D2A65344   8.082  19.752   6.514
 5085POPC   C3A65345   8.134  20.016   6.887
 5085POPC   C4A65346   7.931  19.861   7.252
 5085POPC   C1B65347   8.575  19.552   6.159
 5085POPC   C2B65348   8.455  19.354   6.552
 5085POPC   C3B65349   8.354  19.549   6.931
 5085POPC   C4B65350   8.457  19.786   7.295
 5086POPC   NC365351   3.567  23.741   5.368
 5086POPC   PO465352   3.244  24.268   5.673
 5086POPC   GL165353   3.224  23.842   5.763
 5086POPC   GL265354   3.406  23.508   5.799
 5086POPC   C1A65355   3.178  23.785   6.176
 5086POPC   D2A65356   3.359  23.718   6.530
 5086POPC   C3A65357   3.184  23.816   6.880
 5086POPC   C4A65358   3.093  23.694   7.291
 5086POPC   C1B65359   3.405  23.292   6.208
 5086POPC   C2B65360   3.603  23.302   6.620
 5086POPC   C3B65361   3.434  23.360   7.034
 5086POPC   C4B65362   3.654  23.365   7.425
 5087POPC   NC365363  42.292   0.923   5.353
 5087POPC   PO465364  42.564   1.525   5.530
 5087POPC   GL165365  42.556   1.138   5.732
 5087POPC   GL265366  42.340   1.328   5.973
 5087POPC   C1A65367  42.564   0.905   6.145
 5087POPC   D2A65368  42.511   1.165   6.494
 5087POPC   C3A65369  42.355   1.020   6.887
 5087POPC   C4A65370  42.508   0.931   7.277
 5087POPC   C1B65371  42.102   1.596   6.269
 5087POPC   C2B65372  41.744   1.562   6.557
 5087POPC   C3B65373  41.760   1.669   6.980
 5087POPC   C4B65374  41.929   1.408   7.284
 5088POPC   NC365375  39.776  18.966   5.211
 5088POPC   PO465376  40.450  19.163   5.421
 5088POPC   GL165377  40.062  19.089   5.656
 5088POPC   GL265378  39.904  18.732   5.664
 5088POPC   C1A65379  39.920  19.248   6.066
 5088POPC   D2A65380  39.981  19.001   6.458
 5088POPC   C3A65381  39.928  18.891   6.879
 5088POPC   C4A65382  39.978  19.244   7.092
 5088POPC   C1B65383  40.117  18.731   6.046
 5088POPC   C2B65384  40.443  18.830   6.340
 5088POPC   C3B65385  40.420  18.941   6.773
 5088POPC   C4B65386  40.382  18.898   7.229
 5089POPC   NC365387  35.454  42.580   5.309
 5089POPC   PO465388  35.363  41.917   5.367
 5089POPC   GL165389  35.318  42.211   5.719
 5089POPC   GL265390  35.006  42.329   5.661
 5089POPC   C1A65391  35.423  42.198   6.189
 5089POPC   D2A65392  35.327  42.000   6.609
 5089POPC   C3A65393  35.456  42.247   6.963
 5089POPC   C4A65394  35.671  42.599   7.084
 5089POPC   C1B65395  34.924  42.202   6.085
 5089POPC   C2B65396  34.946  42.383   6.510
 5089POPC   C3B65397  34.947  42.240   6.903
 5089POPC   C4B65398  34.968  42.237   7.323
 5090POPC   NC365399  10.525   7.042   5.105
 5090POPC   PO465400  10.089   6.561   5.327
 5090POPC   GL165401  10.369   6.514   5.742
 5090POPC   GL265402  10.699   6.633   5.776
 5090POPC   C1A65403  10.362   6.511   6.240
 5090POPC   D2A65404  10.258   6.325   6.667
 5090POPC   C3A65405  10.389   6.491   7.060
 5090POPC   C4A65406  10.545   6.349   7.437
 5090POPC   C1B65407  10.855   6.617   6.227
 5090POPC   C2B65408  10.723   6.532   6.642
 5090POPC   C3B65409  10.888   6.590   7.056
 5090POPC   C4B65410  10.675   6.866   7.343
 5091POPC   NC365411   2.909  25.365   5.428
 5091POPC   PO465412   2.271  25.440   5.289
 5091POPC   GL165413   2.539  25.422   5.780
 5091POPC   GL265414   2.849  25.227   5.895
 5091POPC   C1A65415   2.563  25.303   6.282
 5091POPC   D2A65416   2.816  25.259   6.689
 5091POPC   C3A65417   2.575  25.221   7.084
 5091POPC   C4A65418   2.513  25.627   7.292
 5091POPC   C1B65419   3.023  25.019   6.252
 5091POPC   C2B65420   3.230  24.933   6.625
 5091POPC   C3B65421   3.223  25.117   7.000
 5091POPC   C4B65422   3.005  25.417   7.249
 5092POPC   NC365423   8.590  20.077   5.352
 5092POPC   PO465424   9.038  19.573   5.434
 5092POPC   GL165425   8.979  19.915   5.703
 5092POPC   GL265426   9.039  19.705   5.934
 5092POPC   C1A65427   8.692  20.064   6.068
 5092POPC   D2A65428   8.542  19.952   6.513
 5092POPC   C3A65429   8.815  19.876   6.882
 5092POPC   C4A65430   8.929  20.067   7.284
 5092POPC   C1B65431   9.018  19.786   6.345
 5092POPC   C2B65432   9.201  19.581   6.617
 5092POPC   C3B65433   9.454  19.587   6.918
 5092POPC   C4B65434   9.393  19.562   7.311
 5093POPC   NC365435  15.452  22.549   5.414
 5093POPC   PO465436  15.292  21.935   5.414
 5093POPC   GL165437  15.208  22.147   5.793
 5093POPC   GL265438  15.038  22.421   5.809
 5093POPC   C1A65439  15.209  22.025   6.217
 5093POPC   D2A65440  14.991  21.849   6.558
 5093POPC   C3A65441  15.021  22.055   6.940
 5093POPC   C4A65442  14.910  21.811   7.279
 5093POPC   C1B65443  15.168  22.549   6.199
 5093POPC   C2B65444  15.302  22.387   6.597
 5093POPC   C3B65445  15.446  22.603   6.975
 5093POPC   C4B65446  15.207  22.408   7.312
 5094POPC   NC365447  39.791  25.396   5.579
 5094POPC   PO465448  40.487  25.343   5.317
 5094POPC   GL165449  40.257  25.220   5.696
 5094POPC   GL265450  40.205  25.507   5.925
 5094POPC   C1A65451  40.068  25.046   6.080
 5094POPC   D2A65452  39.965  25.065   6.525
 5094POPC   C3A65453  40.285  25.043   6.855
 5094POPC   C4A65454  40.204  25.132   7.299
 5094POPC   C1B65455  39.875  25.504   6.236
 5094POPC   C2B65456  39.641  25.455   6.613
 5094POPC   C3B65457  39.850  25.340   6.984
 5094POPC   C4B65458  39.990  25.636   7.271
 5095POPC   NC365459  20.780  23.514   5.368
 5095POPC   PO465460  20.585  24.163   5.397
 5095POPC   GL165461  20.631  23.842   5.734
 5095POPC   GL265462  20.907  23.624   5.851
 5095POPC   C1A65463  20.497  23.608   6.141
 5095POPC   D2A65464  20.538  23.364   6.523
 5095POPC   C3A65465  20.511  23.547   6.946
 5095POPC   C4A65466  20.193  23.751   7.232
 5095POPC   C1B65467  21.035  23.629   6.266
 5095POPC   C2B65468  20.985  23.534   6.688
 5095POPC   C3B65469  20.955  23.842   6.980
 5095POPC   C4B65470  20.720  23.760   7.371
 5096POPC   NC365471   1.105  30.972   5.543
 5096POPC   PO465472   1.737  30.740   5.395
 5096POPC   GL165473   1.498  30.586   5.814
 5096POPC   GL265474   1.381  30.862   5.943
 5096POPC   C1A65475   1.213  30.514   6.262
 5096POPC   D2A65476   0.964  30.371   6.659
 5096POPC   C3A65477   1.162  30.440   7.070
 5096POPC   C4A65478   1.026  30.553   7.512
 5096POPC   C1B65479   1.641  30.808   6.314
 5096POPC   C2B65480   1.415  30.825   6.713
 5096POPC   C3B65481   1.277  30.939   7.117
 5096POPC   C4B65482   1.493  30.756   7.446
 5097POPC   NC365483  32.839  38.710   5.391
 5097POPC   PO465484  32.480  38.156   5.517
 5097POPC   GL165485  32.939  38.162   5.727
 5097POPC   GL265486  33.063  38.534   5.817
 5097POPC   C1A65487  33.071  38.146   6.179
 5097POPC   D2A65488  32.831  38.245   6.585
 5097POPC   C3A65489  32.938  38.234   7.046
 5097POPC   C4A65490  33.361  38.306   7.272
 5097POPC   C1B65491  32.993  38.679   6.233
 5097POPC   C2B65492  33.263  38.812   6.560
 5097POPC   C3B65493  33.122  38.713   6.993
 5097POPC   C4B65494  32.895  38.953   7.231
 5098POPC   NC365495  14.662  44.548   5.508
 5098POPC   PO465496  14.068  44.779   5.369
 5098POPC   GL165497  14.258  44.684   5.797
 5098POPC   GL265498  14.215  44.345   5.733
 5098POPC   C1A65499  14.387  44.788   6.262
 5098POPC   D2A65500  14.251  44.934   6.663
 5098POPC   C3A65501  14.274  44.690   7.043
 5098POPC   C4A65502  14.210  44.267   7.056
 5098POPC   C1B65503  14.477  44.321   6.109
 5098POPC   C2B65504  14.534  44.399   6.555
 5098POPC   C3B65505  14.722  44.718   6.779
 5098POPC   C4B65506  14.761  44.657   7.217
 5099POPC   NC365507  32.229  34.960   5.423
 5099POPC   PO465508  32.737  34.542   5.524
 5099POPC   GL165509  32.623  34.644   5.893
 5099POPC   GL265510  32.376  34.325   5.859
 5099POPC   C1A65511  32.285  34.739   6.171
 5099POPC   D2A65512  32.052  34.416   6.377
 5099POPC   C3A65513  32.133  34.445   6.808
 5099POPC   C4A65514  32.126  34.508   7.241
 5099POPC   C1B65515  32.549  34.273   6.246
 5099POPC   C2B65516  32.594  34.553   6.585
 5099POPC   C3B65517  32.623  34.446   7.017
 5099POPC   C4B65518  32.589  34.545   7.462
 5100POPC   NC365519  43.871   9.475   5.195
 5100POPC   PO465520  43.880   8.816   5.416
 5100POPC   GL165521  43.781   8.841   5.848
 5100POPC   GL265522  44.126   8.804   5.884
 5100POPC   C1A65523  43.680   9.046   6.249
 5100POPC   D2A65524  43.468   9.146   6.621
 5100POPC   C3A65525  43.726   9.263   6.986
 5100POPC   C4A65526  43.952   8.995   7.262
 5100POPC   C1B65527  44.159   9.155   6.175
 5100POPC   C2B65528  44.074   9.074   6.606
 5100POPC   C3B65529  44.356   8.941   6.954
 5100POPC   C4B65530  44.401   8.770   7.369
 5101POPC   NC365531  33.229  17.911   5.448
 5101POPC   PO465532  32.986  18.514   5.320
 5101POPC   GL165533  32.907  18.465   5.757
 5101POPC   GL265534  32.913  18.089   5.824
 5101POPC   C1A65535  32.948  18.454   6.204
 5101POPC   D2A65536  32.784  18.289   6.579
 5101POPC   C3A65537  32.699  18.548   6.972
 5101POPC   C4A65538  32.673  18.360   7.403
 5101POPC   C1B65539  33.254  17.999   6.146
 5101POPC   C2B65540  33.335  18.142   6.566
 5101POPC   C3B65541  33.088  18.116   6.948
 5101POPC   C4B65542  33.266  18.136   7.325
 5102POPC   NC365543  14.351  32.320   5.365
 5102POPC   PO465544  14.922  32.520   5.552
 5102POPC   GL165545  14.603  32.373   5.824
 5102POPC   GL265546  14.527  32.033   5.763
 5102POPC   C1A65547  14.317  32.492   6.142
 5102POPC   D2A65548  14.378  32.372   6.543
 5102POPC   C3A65549  14.320  32.592   6.880
 5102POPC   C4A65550  14.216  32.544   7.260
 5102POPC   C1B65551  14.527  32.010   6.207
 5102POPC   C2B65552  14.329  31.878   6.588
 5102POPC   C3B65553  14.322  32.084   6.971
 5102POPC   C4B65554  14.673  32.278   7.146
 5103POPC   NC365555  16.594  21.755   5.138
 5103POPC   PO465556  16.780  21.120   5.231
 5103POPC   GL165557  16.605  21.339   5.636
 5103POPC   GL265558  16.876  21.231   5.863
 5103POPC   C1A65559  16.518  21.481   6.087
 5103POPC   D2A65560  16.532  21.270   6.485
 5103POPC   C3A65561  16.572  21.443   6.866
 5103POPC   C4A65562  16.850  21.682   7.122
 5103POPC   C1B65563  17.057  21.310   6.264
 5103POPC   C2B65564  17.048  21.430   6.681
 5103POPC   C3B65565  17.103  21.241   7.062
 5103POPC   C4B65566  17.156  20.898   7.280
 5104POPC   NC365567  11.375   3.078   5.382
 5104POPC   PO465568  10.993   3.640   5.290
 5104POPC   GL165569  11.058   3.470   5.697
 5104POPC   GL265570  11.401   3.413   5.794
 5104POPC   C1A65571  11.020   3.577   6.143
 5104POPC   D2A65572  11.105   3.883   6.481
 5104POPC   C3A65573  11.129   3.706   6.916
 5104POPC   C4A65574  11.391   3.374   7.119
 5104POPC   C1B65575  11.547   3.616   6.175
 5104POPC   C2B65576  11.609   3.749   6.617
 5104POPC   C3B65577  11.577   3.919   7.028
 5104POPC   C4B65578  11.350   3.842   7.400
 5105POPC   NC365579  41.785  21.030   5.389
 5105POPC   PO465580  41.407  20.364   5.422
 5105POPC   GL165581  41.549  20.624   5.807
 5105POPC   GL265582  41.442  20.957   5.836
 5105POPC   C1A65583  41.619  20.680   6.297
 5105POPC   D2A65584  41.628  20.744   6.767
 5105POPC   C3A65585  41.570  20.446   7.085
 5105POPC   C4A65586  41.493  20.420   7.539
 5105POPC   C1B65587  41.155  20.727   6.116
 5105POPC   C2B65588  41.086  20.705   6.537
 5105POPC   C3B65589  41.031  20.932   6.877
 5105POPC   C4B65590  41.275  20.819   7.229
 5106POPC   NC365591  36.470   1.417   5.388
 5106POPC   PO465592  36.021   0.891   5.333
 5106POPC   GL165593  36.149   1.166   5.689
 5106POPC   GL265594  35.993   1.501   5.612
 5106POPC   C1A65595  36.391   0.992   6.037
 5106POPC   D2A65596  36.248   0.853   6.432
 5106POPC   C3A65597  36.054   1.160   6.698
 5106POPC   C4A65598  36.267   1.248   7.061
 5106POPC   C1B65599  35.848   1.576   6.031
 5106POPC   C2B65600  35.912   1.662   6.470
 5106POPC   C3B65601  35.757   1.581   6.886
 5106POPC   C4B65602  35.890   1.522   7.272
 5107POPC   NC365603  30.252   6.963   5.454
 5107POPC   PO465604  29.724   6.436   5.413
 5107POPC   GL165605  29.809   6.607   5.802
 5107POPC   GL265606  29.882   6.976   5.846
 5107POPC   C1A65607  29.623   6.686   6.189
 5107POPC   D2A65608  29.830   6.536   6.547
 5107POPC   C3A65609  29.723   6.698   6.907
 5107POPC   C4A65610  29.893   6.606   7.308
 5107POPC   C1B65611  30.134   6.794   6.161
 5107POPC   C2B65612  30.253   6.842   6.590
 5107POPC   C3B65613  30.109   7.026   6.964
 5107POPC   C4B65614  30.198   7.077   7.377
 5108POPC   NC365615  29.359  13.114   5.252
 5108POPC   PO465616  28.846  12.677   5.150
 5108POPC   GL165617  28.980  12.996   5.546
 5108POPC   GL265618  29.312  12.798   5.665
 5108POPC   C1A65619  28.963  13.113   6.009
 5108POPC   D2A65620  28.961  12.908   6.443
 5108POPC   C3A65621  29.219  13.071   6.780
 5108POPC   C4A65622  29.128  13.128   7.227
 5108POPC   C1B65623  29.311  12.694   6.119
 5108POPC   C2B65624  29.246  12.455   6.500
 5108POPC   C3B65625  29.050  12.604   6.884
 5108POPC   C4B65626  29.400  12.718   7.108
 5109POPC   NC365627  22.314  42.882   5.444
 5109POPC   PO465628  21.837  43.286   5.406
 5109POPC   GL165629  21.968  43.048   5.780
 5109POPC   GL265630  22.220  43.321   5.794
 5109POPC   C1A65631  22.231  42.979   6.173
 5109POPC   D2A65632  22.395  43.178   6.564
 5109POPC   C3A65633  22.238  42.945   6.923
 5109POPC   C4A65634  22.387  42.835   7.338
 5109POPC   C1B65635  21.960  43.411   6.155
 5109POPC   C2B65636  21.878  43.263   6.569
 5109POPC   C3B65637  21.839  43.264   7.004
 5109POPC   C4B65638  22.146  43.477   7.235
 5110POPC   NC365639  27.633   3.839   5.343
 5110POPC   PO465640  27.896   4.539   5.432
 5110POPC   GL165641  27.628   4.269   5.734
 5110POPC   GL265642  27.758   3.948   5.816
 5110POPC   C1A65643  27.477   4.405   6.146
 5110POPC   D2A65644  27.427   4.178   6.533
 5110POPC   C3A65645  27.523   4.307   6.931
 5110POPC   C4A65646  27.604   4.674   7.152
 5110POPC   C1B65647  27.845   4.060   6.233
 5110POPC   C2B65648  28.015   4.101   6.643
 5110POPC   C3B65649  27.933   4.038   7.107
 5110POPC   C4B65650  27.858   4.046   7.572
 5111POPC   NC365651  39.180   9.659   5.438
 5111POPC   PO465652  38.796  10.041   5.827
 5111POPC   GL165653  39.148   9.707   5.936
 5111POPC   GL265654  39.532   9.651   5.831
 5111POPC   C1A65655  39.305   9.524   6.297
 5111POPC   D2A65656  39.105   9.457   6.675
 5111POPC   C3A65657  39.076   9.828   6.925
 5111POPC   C4A65658  39.076   9.701   7.364
 5111POPC   C1B65659  39.691   9.873   6.214
 5111POPC   C2B65660  39.524   9.877   6.654
 5111POPC   C3B65661  39.512   9.587   7.010
 5111POPC   C4B65662  39.575   9.716   7.426
 5112POPC   NC365663  23.372  33.696   5.414
 5112POPC   PO465664  24.031  33.475   5.285
 5112POPC   GL165665  23.898  33.613   5.763
 5112POPC   GL265666  23.600  33.789   5.844
 5112POPC   C1A65667  24.088  33.588   6.212
 5112POPC   D2A65668  23.931  33.669   6.617
 5112POPC   C3A65669  24.162  33.619   6.982
 5112POPC   C4A65670  23.845  33.630   7.260
 5112POPC   C1B65671  23.707  33.946   6.225
 5112POPC   C2B65672  23.544  34.006   6.594
 5112POPC   C3B65673  23.747  34.057   6.956
 5112POPC   C4B65674  23.512  34.035   7.253
 5113POPC   NC365675  13.356  13.014   5.430
 5113POPC   PO465676  13.999  12.873   5.186
 5113POPC   GL165677  13.820  12.758   5.590
 5113POPC   GL265678  13.504  12.608   5.685
 5113POPC   C1A65679  13.845  12.808   6.053
 5113POPC   D2A65680  13.810  12.608   6.465
 5113POPC   C3A65681  13.986  12.790   6.817
 5113POPC   C4A65682  13.842  12.744   7.211
 5113POPC   C1B65683  13.379  12.628   6.115
 5113POPC   C2B65684  13.321  12.759   6.538
 5113POPC   C3B65685  13.479  12.578   6.902
 5113POPC   C4B65686  13.347  12.536   7.314
 5114POPC   NC365687  38.910   5.421   5.492
 5114POPC   PO465688  39.303   4.849   5.267
 5114POPC   GL165689  39.302   5.044   5.770
 5114POPC   GL265690  39.527   5.314   5.920
 5114POPC   C1A65691  39.357   5.006   6.279
 5114POPC   D2A65692  39.516   4.849   6.680
 5114POPC   C3A65693  39.331   5.127   6.982
 5114POPC   C4A65694  38.855   5.105   6.993
 5114POPC   C1B65695  39.088   5.398   6.113
 5114POPC   C2B65696  38.923   5.361   6.515
 5114POPC   C3B65697  39.082   5.543   6.880
 5114POPC   C4B65698  39.055   5.431   7.340
 5115POPC   NC365699   6.975  20.036   5.561
 5115POPC   PO465700   6.350  19.635   5.422
 5115POPC   GL165701   6.535  19.801   5.759
 5115POPC   GL265702   6.811  19.559   5.777
 5115POPC   C1A65703   6.616  20.010   6.141
 5115POPC   D2A65704   6.665  19.971   6.564
 5115POPC   C3A65705   6.361  20.069   6.837
 5115POPC   C4A65706   6.450  20.086   7.255
 5115POPC   C1B65707   6.592  19.490   6.165
 5115POPC   C2B65708   6.788  19.494   6.549
 5115POPC   C3B65709   6.740  19.604   6.973
 5115POPC   C4B65710   7.120  19.578   7.174
 5116POPC   NC365711  36.110  27.155   5.202
 5116POPC   PO465712  36.197  26.540   5.603
 5116POPC   GL165713  36.152  26.830   5.895
 5116POPC   GL265714  36.329  27.011   5.713
 5116POPC   C1A65715  35.940  26.992   6.249
 5116POPC   D2A65716  36.004  26.874   6.682
 5116POPC   C3A65717  35.755  26.826   7.028
 5116POPC   C4A65718  35.820  26.862   7.473
 5116POPC   C1B65719  36.420  27.123   6.244
 5116POPC   C2B65720  36.484  27.018   6.740
 5116POPC   C3B65721  36.264  27.001   7.191
 5116POPC   C4B65722  36.217  27.102   7.675
 5117POPC   NC365723  36.023   7.345   5.403
 5117POPC   PO465724  36.523   7.695   5.564
 5117POPC   GL165725  36.304   7.434   5.843
 5117POPC   GL265726  36.173   7.062   5.811
 5117POPC   C1A65727  36.188   7.603   6.227
 5117POPC   D2A65728  35.945   7.764   6.547
 5117POPC   C3A65729  36.112   7.649   6.919
 5117POPC   C4A65730  36.267   7.327   7.206
 5117POPC   C1B65731  35.875   7.193   6.158
 5117POPC   C2B65732  35.760   7.283   6.609
 5117POPC   C3B65733  35.781   7.286   7.083
 5117POPC   C4B65734  35.876   7.168   7.566
 5118POPC   NC365735  22.303  40.055   5.369
 5118POPC   PO465736  21.690  40.224   5.397
 5118POPC   GL165737  21.984  40.236   5.759
 5118POPC   GL265738  21.965  39.892   5.815
 5118POPC   C1A65739  22.312  40.136   6.124
 5118POPC   D2A65740  22.364  39.860   6.518
 5118POPC   C3A65741  22.370  40.047   6.938
 5118POPC   C4A65742  21.982  40.186   7.147
 5118POPC   C1B65743  21.938  39.736   6.239
 5118POPC   C2B65744  21.840  39.690   6.714
 5118POPC   C3B65745  22.086  39.661   7.134
 5118POPC   C4B65746  21.964  39.668   7.576
 5119POPC   NC365747  38.332  28.873   5.482
 5119POPC   PO465748  38.569  29.548   5.381
 5119POPC   GL165749  38.444  29.292   5.747
 5119POPC   GL265750  38.706  29.051   5.822
 5119POPC   C1A65751  38.264  29.154   6.163
 5119POPC   D2A65752  38.476  28.944   6.536
 5119POPC   C3A65753  38.348  29.106   6.949
 5119POPC   C4A65754  38.178  29.057   7.349
 5119POPC   C1B65755  38.718  29.360   6.194
 5119POPC   C2B65756  38.589  29.449   6.629
 5119POPC   C3B65757  38.831  29.214   6.958
 5119POPC   C4B65758  38.716  29.115   7.401
 5120POPC   NC365759  42.893   1.719   5.272
 5120POPC   PO465760  43.337   2.211   5.498
 5120POPC   GL165761  43.179   1.860   5.736
 5120POPC   GL265762  42.841   1.945   5.761
 5120POPC   C1A65763  43.121   1.742   6.178
 5120POPC   D2A65764  43.086   1.974   6.561
 5120POPC   C3A65765  43.025   1.823   6.960
 5120POPC   C4A65766  43.308   1.978   7.309
 5120POPC   C1B65767  42.975   2.248   6.132
 5120POPC   C2B65768  42.904   2.438   6.588
 5120POPC   C3B65769  42.991   2.340   7.037
 5120POPC   C4B65770  42.947   2.306   7.502
 5121POPC   NC365771  16.257  25.359   5.441
 5121POPC   PO465772  15.767  24.833   5.481
 5121POPC   GL165773  15.996  25.072   5.773
 5121POPC   GL265774  16.226  24.848   5.829
 5121POPC   C1A65775  15.906  25.358   6.143
 5121POPC   D2A65776  15.685  25.280   6.519
 5121POPC   C3A65777  15.905  25.307   6.907
 5121POPC   C4A65778  15.777  25.209   7.301
 5121POPC   C1B65779  16.328  24.981   6.199
 5121POPC   C2B65780  16.232  25.197   6.527
 5121POPC   C3B65781  16.292  24.980   6.912
 5121POPC   C4B65782  16.218  24.906   7.321
 5122POPC   NC365783   9.152  30.269   5.463
 5122POPC   PO465784   8.767  29.758   5.347
 5122POPC   GL165785   8.876  29.923   5.780
 5122POPC   GL265786   9.188  29.876   5.832
 5122POPC   C1A65787   8.897  30.181   6.208
 5122POPC   D2A65788   9.089  30.353   6.617
 5122POPC   C3A65789   8.918  30.160   6.992
 5122POPC   C4A65790   8.793  30.008   7.404
 5122POPC   C1B65791   9.059  29.687   6.222
 5122POPC   C2B65792   9.134  29.805   6.656
 5122POPC   C3B65793   9.231  29.788   7.095
 5122POPC   C4B65794   8.991  29.547   7.375
 5123POPC   NC365795   9.686  26.085   4.970
 5123POPC   PO465796   9.637  26.463   5.484
 5123POPC   GL165797   9.841  26.081   5.798
 5123POPC   GL265798  10.196  26.073   5.900
 5123POPC   C1A65799   9.929  25.842   6.261
 5123POPC   D2A65800  10.045  25.754   6.743
 5123POPC   C3A65801   9.767  25.869   7.126
 5123POPC   C4A65802   9.850  25.741   7.589
 5123POPC   C1B65803   9.985  26.347   6.230
 5123POPC   C2B65804   9.917  26.252   6.682
 5123POPC   C3B65805  10.002  26.367   7.103
 5123POPC   C4B65806   9.898  26.259   7.527
 5124POPC   NC365807  32.503  29.270   5.398
 5124POPC   PO465808  31.840  29.117   5.550
 5124POPC   GL165809  32.153  29.199   5.848
 5124POPC   GL265810  32.427  28.953   5.803
 5124POPC   C1A65811  32.035  29.139   6.294
 5124POPC   D2A65812  31.786  28.975   6.643
 5124POPC   C3A65813  31.822  29.277   6.958
 5124POPC   C4A65814  32.198  29.324   7.196
 5124POPC   C1B65815  32.478  28.874   6.257
 5124POPC   C2B65816  32.351  29.026   6.697
 5124POPC   C3B65817  32.113  28.836   7.043
 5124POPC   C4B65818  31.997  28.740   7.475
 5125POPC   NC365819  31.245   9.142   5.405
 5125POPC   PO465820  31.869   9.354   5.451
 5125POPC   GL165821  31.784   9.074   5.832
 5125POPC   GL265822  31.406   8.969   5.870
 5125POPC   C1A65823  31.687   8.987   6.293
 5125POPC   D2A65824  31.785   8.763   6.681
 5125POPC   C3A65825  31.761   9.079   6.998
 5125POPC   C4A65826  31.532   9.340   7.244
 5125POPC   C1B65827  31.155   8.696   6.178
 5125POPC   C2B65828  31.029   8.523   6.615
 5125POPC   C3B65829  31.067   8.652   7.067
 5125POPC   C4B65830  31.148   8.530   7.512
 5126POPC   NC365831   9.920  41.943   5.160
 5126POPC   PO465832   9.907  41.234   5.399
 5126POPC   GL165833   9.776  41.544   5.725
 5126POPC   GL265834  10.110  41.659   5.679
 5126POPC   C1A65835   9.502  41.437   6.133
 5126POPC   D2A65836   9.459  41.174   6.543
 5126POPC   C3A65837   9.510  41.305   6.996
 5126POPC   C4A65838   9.590  41.337   7.469
 5126POPC   C1B65839  10.088  41.358   6.082
 5126POPC   C2B65840   9.981  41.340   6.555
 5126POPC   C3B65841  10.008  41.385   7.024
 5126POPC   C4B65842  10.052  41.590   7.437
 5127POPC   NC365843   8.624  30.852   5.786
 5127POPC   PO465844   9.088  30.732   5.333
 5127POPC   GL165845   9.181  30.813   5.802
 5127POPC   GL265846   9.344  31.139   5.896
 5127POPC   C1A65847   9.248  30.772   6.289
 5127POPC   D2A65848   9.087  30.941   6.714
 5127POPC   C3A65849   9.017  30.675   7.089
 5127POPC   C4A65850   9.123  30.387   7.414
 5127POPC   C1B65851   9.025  31.221   6.220
 5127POPC   C2B65852   8.645  31.140   6.526
 5127POPC   C3B65853   8.594  30.943   6.946
 5127POPC   C4B65854   8.616  30.847   7.397
 5128POPC   NC365855   5.939  29.614   5.383
 5128POPC   PO465856   5.923  30.336   5.385
 5128POPC   GL165857   5.970  30.024   5.686
 5128POPC   GL265858   5.640  29.987   5.677
 5128POPC   C1A65859   5.859  29.724   6.058
 5128POPC   D2A65860   5.934  29.602   6.491
 5128POPC   C3A65861   5.855  29.797   6.877
 5128POPC   C4A65862   6.201  30.085   7.024
 5128POPC   C1B65863   5.756  30.224   6.094
 5128POPC   C2B65864   5.764  30.168   6.512
 5128POPC   C3B65865   5.719  30.297   6.920
 5128POPC   C4B65866   5.774  30.107   7.294
 5129POPC   NC365867  37.909  18.648   5.613
 5129POPC   PO465868  37.905  18.003   5.347
 5129POPC   GL165869  37.689  18.015   5.742
 5129POPC   GL265870  37.511  18.309   5.841
 5129POPC   C1A65871  37.800  18.074   6.173
 5129POPC   D2A65872  37.711  18.334   6.530
 5129POPC   C3A65873  37.597  18.125   6.903
 5129POPC   C4A65874  37.890  18.061   7.244
 5129POPC   C1B65875  37.303  18.415   6.222
 5129POPC   C2B65876  37.261  18.568   6.657
 5129POPC   C3B65877  37.415  18.565   7.098
 5129POPC   C4B65878  37.390  18.681   7.547
 5130POPC   NC365879  20.907  42.138   5.458
 5130POPC   PO465880  20.281  42.347   5.323
 5130POPC   GL165881  20.383  42.198   5.756
 5130POPC   GL265882  20.472  42.523   5.913
 5130POPC   C1A65883  20.672  42.039   6.122
 5130POPC   D2A65884  20.826  41.883   6.575
 5130POPC   C3A65885  20.652  42.160   6.928
 5130POPC   C4A65886  20.842  42.540   7.098
 5130POPC   C1B65887  20.188  42.390   6.253
 5130POPC   C2B65888  20.169  42.458   6.723
 5130POPC   C3B65889  20.320  42.507   7.156
 5130POPC   C4B65890  20.470  42.163   7.449
 5131POPC   NC365891  39.368   4.193   5.415
 5131POPC   PO465892  38.669   4.381   5.511
 5131POPC   GL165893  39.059   4.300   5.788
 5131POPC   GL265894  39.357   4.534   5.812
 5131POPC   C1A65895  39.295   4.180   6.178
 5131POPC   D2A65896  39.303   4.387   6.572
 5131POPC   C3A65897  39.266   4.173   6.940
 5131POPC   C4A65898  39.604   3.934   7.123
 5131POPC   C1B65899  39.051   4.630   6.173
 5131POPC   C2B65900  38.974   4.778   6.597
 5131POPC   C3B65901  39.128   4.664   7.010
 5131POPC   C4B65902  39.540   4.730   7.195
 5132POPC   NC365903  33.441  41.750   5.069
 5132POPC   PO465904  32.877  41.927   5.399
 5132POPC   GL165905  32.808  41.727   5.822
 5132POPC   GL265906  32.999  41.433   5.826
 5132POPC   C1A65907  32.748  41.774   6.302
 5132POPC   D2A65908  32.870  42.029   6.716
 5132POPC   C3A65909  32.980  41.810   7.076
 5132POPC   C4A65910  32.704  41.489   7.054
 5132POPC   C1B65911  33.187  41.526   6.216
 5132POPC   C2B65912  33.029  41.464   6.629
 5132POPC   C3B65913  33.118  41.205   6.959
 5132POPC   C4B65914  33.100  41.376   7.350
 5133POPC   NC365915  12.977  37.368   5.467
 5133POPC   PO465916  12.707  37.743   4.990
 5133POPC   GL165917  12.793  37.850   5.485
 5133POPC   GL265918  13.115  37.897   5.654
 5133POPC   C1A65919  12.733  37.726   5.972
 5133POPC   D2A65920  12.887  37.660   6.401
 5133POPC   C3A65921  12.643  37.738   6.778
 5133POPC   C4A65922  12.671  37.622   7.207
 5133POPC   C1B65923  13.197  37.941   6.099
 5133POPC   C2B65924  13.306  37.926   6.560
 5133POPC   C3B65925  13.114  37.815   6.957
 5133POPC   C4B65926  13.083  37.962   7.378
 5134POPC   NC365927  34.744   8.396   5.529
 5134POPC   PO465928  34.660   9.102   5.319
 5134POPC   GL165929  34.628   8.905   5.720
 5134POPC   GL265930  34.304   8.729   5.742
 5134POPC   C1A65931  34.738   8.989   6.180
 5134POPC   D2A65932  34.539   8.992   6.612
 5134POPC   C3A65933  34.808   8.881   6.934
 5134POPC   C4A65934  34.986   8.442   7.019
 5134POPC   C1B65935  34.314   8.687   6.198
 5134POPC   C2B65936  34.152   8.658   6.618
 5134POPC   C3B65937  34.360   8.687   7.053
 5134POPC   C4B65938  34.294   8.804   7.528
 5135POPC   NC365939   2.431  39.468   5.217
 5135POPC   PO465940   2.953  39.121   5.453
 5135POPC   GL165941   2.866  39.280   5.846
 5135POPC   GL265942   2.570  39.447   5.700
 5135POPC   C1A65943   2.775  39.138   6.269
 5135POPC   D2A65944   2.932  39.235   6.658
 5135POPC   C3A65945   2.739  39.105   7.016
 5135POPC   C4A65946   2.915  39.184   7.375
 5135POPC   C1B65947   2.484  39.522   6.098
 5135POPC   C2B65948   2.693  39.635   6.446
 5135POPC   C3B65949   2.629  39.614   6.869
 5135POPC   C4B65950   2.526  39.489   7.259
 5136POPC   NC365951  41.011   7.933   5.302
 5136POPC   PO465952  40.518   8.420   5.237
 5136POPC   GL165953  40.648   8.154   5.649
 5136POPC   GL265954  41.002   8.200   5.719
 5136POPC   C1A65955  40.736   8.139   6.144
 5136POPC   D2A65956  40.669   8.337   6.547
 5136POPC   C3A65957  40.832   8.225   6.926
 5136POPC   C4A65958  40.656   8.058   7.269
 5136POPC   C1B65959  41.143   8.453   6.023
 5136POPC   C2B65960  41.040   8.661   6.386
 5136POPC   C3B65961  40.973   8.704   6.807
 5136POPC   C4B65962  41.288   8.520   7.065
 5137POPC   NC365963  44.886  27.414   5.530
 5137POPC   PO465964  44.637  28.044   5.425
 5137POPC   GL165965  44.671  27.799   5.808
 5137POPC   GL265966  44.501  27.488   5.859
 5137POPC   C1A65967  44.915  27.749   6.197
 5137POPC   D2A65968   0.005  27.815   6.634
 5137POPC   C3A65969  44.709  27.786   6.945
 5137POPC   C4A65970  44.506  27.725   7.329
 5137POPC   C1B65971  44.710  27.292   6.238
 5137POPC   C2B65972  44.651  27.320   6.689
 5137POPC   C3B65973  44.758  27.299   7.123
 5137POPC   C4B65974  44.578  27.170   7.512
 5138POPC   NC365975  24.832  36.239   5.538
 5138POPC   PO465976  25.490  35.906   5.481
 5138POPC   GL165977  25.389  36.140   5.817
 5138POPC   GL265978  25.069  36.057   5.932
 5138POPC   C1A65979  25.548  36.151   6.218
 5138POPC   D2A65980  25.611  36.341   6.592
 5138POPC   C3A65981  25.401  36.146   6.907
 5138POPC   C4A65982  25.594  36.210   7.273
 5138POPC   C1B65983  24.898  36.260   6.282
 5138POPC   C2B65984  24.854  36.175   6.730
 5138POPC   C3B65985  24.973  36.293   7.163
 5138POPC   C4B65986  25.039  35.983   7.486
 5139POPC   NC365987  37.775   2.320   5.422
 5139POPC   PO465988  37.825   1.640   5.501
 5139POPC   GL165989  37.681   1.809   5.858
 5139POPC   GL265990  37.605   2.124   5.873
 5139POPC   C1A65991  37.587   1.662   6.242
 5139POPC   D2A65992  37.410   1.595   6.636
 5139POPC   C3A65993  37.599   1.736   7.026
 5139POPC   C4A65994  37.846   1.955   7.352
 5139POPC   C1B65995  37.655   2.252   6.315
 5139POPC   C2B65996  37.512   2.172   6.754
 5139POPC   C3B65997  37.603   2.387   7.158
 5139POPC   C4B65998  37.515   2.312   7.625
 5140POPC   NC365999  35.804  26.785   5.498
 5140POPC   PO466000  35.151  26.759   5.648
 5140POPC   GL166001  35.399  26.853   5.965
 5140POPC   GL266002  35.677  26.650   5.969
 5140POPC   C1A66003  35.184  26.834   6.340
 5140POPC   D2A66004  35.277  26.758   6.766
 5140POPC   C3A66005  35.166  27.085   7.041
 5140POPC   C4A66006  35.429  27.181   7.391
 5140POPC   C1B66007  35.641  26.623   6.410
 5140POPC   C2B66008  35.801  26.387   6.729
 5140POPC   C3B66009  35.491  26.368   7.024
 5140POPC   C4B66010  35.359  26.670   7.309
 5141POPC   NC366011  10.833  26.985   5.360
 5141POPC   PO466012  10.401  26.598   5.212
 5141POPC   GL166013  10.502  26.740   5.672
 5141POPC   GL266014  10.341  26.559   5.915
 5141POPC   C1A66015  10.477  27.043   6.059
 5141POPC   D2A66016  10.596  26.998   6.486
 5141POPC   C3A66017  10.463  27.106   6.884
 5141POPC   C4A66018  10.755  27.116   7.207
 5141POPC   C1B66019  10.461  26.537   6.306
 5141POPC   C2B66020  10.328  26.597   6.702
 5141POPC   C3B66021  10.470  26.649   7.105
 5141POPC   C4B66022  10.406  26.412   7.453
 5142POPC   NC366023  15.373  10.507   5.328
 5142POPC   PO466024  14.683  10.672   5.376
 5142POPC   GL166025  15.058  10.652   5.723
 5142POPC   GL266026  15.363  10.421   5.822
 5142POPC   C1A66027  15.176  10.743   6.181
 5142POPC   D2A66028  14.936  10.696   6.598
 5142POPC   C3A66029  15.060  10.851   7.016
 5142POPC   C4A66030  15.009  10.712   7.445
 5142POPC   C1B66031  15.412  10.267   6.210
 5142POPC   C2B66032  15.441  10.482   6.560
 5142POPC   C3B66033  15.371  10.441   6.965
 5142POPC   C4B66034  15.629  10.681   7.217
 5143POPC   NC366035  35.068  23.801   5.351
 5143POPC   PO466036  34.381  23.776   5.319
 5143POPC   GL166037  34.514  23.673   5.725
 5143POPC   GL266038  34.793  23.493   5.626
 5143POPC   C1A66039  34.444  23.800   6.169
 5143POPC   D2A66040  34.546  24.159   6.469
 5143POPC   C3A66041  34.744  24.077   6.891
 5143POPC   C4A66042  34.668  23.935   7.314
 5143POPC   C1B66043  34.855  23.435   6.066
 5143POPC   C2B66044  34.957  23.448   6.524
 5143POPC   C3B66045  34.732  23.532   6.932
 5143POPC   C4B66046  34.528  23.350   7.297
 5144POPC   NC366047  25.952  35.952   5.437
 5144POPC   PO466048  26.294  36.498   5.522
 5144POPC   GL166049  26.003  36.236   5.877
 5144POPC   GL266050  25.839  35.875   5.910
 5144POPC   C1A66051  26.054  36.099   6.340
 5144POPC   D2A66052  26.391  36.137   6.671
 5144POPC   C3A66053  26.356  36.436   6.996
 5144POPC   C4A66054  26.112  36.347   7.355
 5144POPC   C1B66055  25.734  35.652   6.280
 5144POPC   C2B66056  25.678  35.818   6.658
 5144POPC   C3B66057  25.962  35.997   6.993
 5144POPC   C4B66058  25.970  35.874   7.459
 5145POPC   NC366059  10.806  18.527   5.489
 5145POPC   PO466060  10.368  18.099   5.221
 5145POPC   GL166061  10.395  18.201   5.666
 5145POPC   GL266062  10.089  18.335   5.782
 5145POPC   C1A66063  10.535  18.350   6.101
 5145POPC   D2A66064  10.485  18.294   6.544
 5145POPC   C3A66065  10.403  18.576   6.896
 5145POPC   C4A66066  10.318  18.473   7.347
 5145POPC   C1B66067  10.014  18.110   6.189
 5145POPC   C2B66068  10.126  17.930   6.584
 5145POPC   C3B66069  10.222  18.122   6.992
 5145POPC   C4B66070  10.014  18.042   7.429
 5146POPC   NC366071  31.762  16.225   5.537
 5146POPC   PO466072  31.757  15.637   5.527
 5146POPC   GL166073  31.453  15.853   5.804
 5146POPC   GL266074  31.454  16.217   5.943
 5146POPC   C1A66075  31.385  15.785   6.236
 5146POPC   D2A66076  31.574  15.941   6.617
 5146POPC   C3A66077  31.507  15.701   6.974
 5146POPC   C4A66078  31.410  15.728   7.433
 5146POPC   C1B66079  31.173  16.242   6.324
 5146POPC   C2B66080  31.164  16.202   6.779
 5146POPC   C3B66081  31.393  16.179   7.164
 5146POPC   C4B66082  31.229  16.216   7.610
 5147POPC   NC366083  24.867   3.642   5.390
 5147POPC   PO466084  25.460   3.849   5.168
 5147POPC   GL166085  25.276   3.583   5.677
 5147POPC   GL266086  24.947   3.444   5.849
 5147POPC   C1A66087  25.377   3.431   6.130
 5147POPC   D2A66088  25.371   3.563   6.600
 5147POPC   C3A66089  25.602   3.561   7.002
 5147POPC   C4A66090  25.447   3.672   7.429
 5147POPC   C1B66091  24.908   3.585   6.286
 5147POPC   C2B66092  24.891   3.747   6.701
 5147POPC   C3B66093  25.096   3.631   7.066
 5147POPC   C4B66094  24.976   3.415   7.444
 5148POPC   NC366095  26.961   5.552   5.529
 5148POPC   PO466096  26.644   5.058   5.464
 5148POPC   GL166097  26.689   5.271   5.860
 5148POPC   GL266098  27.053   5.150   5.879
 5148POPC   C1A66099  26.780   5.220   6.313
 5148POPC   D2A66100  26.753   4.929   6.662
 5148POPC   C3A66101  26.901   5.112   7.040
 5148POPC   C4A66102  26.705   5.127   7.410
 5148POPC   C1B66103  26.988   4.767   6.150
 5148POPC   C2B66104  27.188   4.625   6.551
 5148POPC   C3B66105  27.143   4.680   6.966
 5148POPC   C4B66106  27.181   4.860   7.397
 5149POPC   NC366107  20.238   1.258   5.328
 5149POPC   PO466108  20.828   1.213   5.122
 5149POPC   GL166109  20.677   1.037   5.600
 5149POPC   GL266110  20.322   1.063   5.790
 5149POPC   C1A66111  20.691   0.878   6.079
 5149POPC   D2A66112  20.789   1.073   6.482
 5149POPC   C3A66113  20.529   1.010   6.832
 5149POPC   C4A66114  20.641   1.130   7.233
 5149POPC   C1B66115  20.474   1.337   6.159
 5149POPC   C2B66116  20.402   1.450   6.582
 5149POPC   C3B66117  20.550   1.568   6.982
 5149POPC   C4B66118  20.396   1.527   7.429
 5150POPC   NC366119  35.085  20.508   5.229
 5150POPC   PO466120  34.363  20.604   5.339
 5150POPC   GL166121  34.350  20.747   5.819
 5150POPC   GL266122  34.728  20.724   5.821
 5150POPC   C1A66123  34.301  20.673   6.299
 5150POPC   D2A66124  34.454  20.373   6.636
 5150POPC   C3A66125  34.409  20.327   7.096
 5150POPC   C4A66126  34.791  20.455   7.294
 5150POPC   C1B66127  34.791  20.926   6.235
 5150POPC   C2B66128  34.574  20.981   6.626
 5150POPC   C3B66129  34.515  20.869   7.053
 5150POPC   C4B66130  34.795  21.098   7.317
 5151POPC   NC366131  33.248   1.423   5.450
 5151POPC   PO466132  32.786   0.874   5.282
 5151POPC   GL166133  32.802   1.017   5.725
 5151POPC   GL266134  33.169   1.086   5.824
 5151POPC   C1A66135  32.839   1.141   6.190
 5151POPC   D2A66136  32.971   1.321   6.557
 5151POPC   C3A66137  33.054   1.056   6.877
 5151POPC   C4A66138  32.948   1.200   7.247
 5151POPC   C1B66139  33.324   1.439   6.143
 5151POPC   C2B66140  33.350   1.654   6.574
 5151POPC   C3B66141  33.278   1.518   7.011
 5151POPC   C4B66142  33.175   1.616   7.467
 5152POPC   NC366143  42.561  40.889   5.506
 5152POPC   PO466144  43.047  40.885   5.039
 5152POPC   GL166145  43.126  40.954   5.513
 5152POPC   GL266146  42.965  40.691   5.735
 5152POPC   C1A66147  43.204  41.048   5.999
 5152POPC   D2A66148  43.033  41.255   6.397
 5152POPC   C3A66149  43.033  41.112   6.850
 5152POPC   C4A66150  42.980  40.893   7.286
 5152POPC   C1B66151  42.791  40.787   6.169
 5152POPC   C2B66152  42.910  40.692   6.606
 5152POPC   C3B66153  43.234  40.613   6.950
 5152POPC   C4B66154  43.200  40.439   7.383
 5153POPC   NC366155  30.888  31.115   5.473
 5153POPC   PO466156  31.558  31.424   5.205
 5153POPC   GL166157  31.658  31.333   5.677
 5153POPC   GL266158  31.316  31.265   5.740
 5153POPC   C1A66159  31.554  31.465   6.141
 5153POPC   D2A66160  31.374  31.587   6.548
 5153POPC   C3A66161  31.511  31.406   6.943
 5153POPC   C4A66162  31.436  31.573   7.354
 5153POPC   C1B66163  31.102  31.222   6.155
 5153POPC   C2B66164  31.041  31.191   6.585
 5153POPC   C3B66165  31.186  31.017   6.951
 5153POPC   C4B66166  31.160  31.145   7.348
 5154POPC   NC366167   2.022  26.808   5.444
 5154POPC   PO466168   1.371  26.408   5.329
 5154POPC   GL166169   1.552  26.633   5.713
 5154POPC   GL266170   1.741  26.963   5.841
 5154POPC   C1A66171   1.696  26.569   6.157
 5154POPC   D2A66172   1.801  26.881   6.485
 5154POPC   C3A66173   1.904  26.726   6.892
 5154POPC   C4A66174   1.848  26.873   7.311
 5154POPC   C1B66175   2.133  26.836   6.087
 5154POPC   C2B66176   2.227  26.562   6.454
 5154POPC   C3B66177   2.360  26.527   6.884
 5154POPC   C4B66178   2.476  26.643   7.313
 5155POPC   NC366179   6.368  16.842   5.475
 5155POPC   PO466180   6.731  16.415   5.411
 5155POPC   GL166181   6.807  16.689   5.772
 5155POPC   GL266182   6.805  17.071   5.731
 5155POPC   C1A66183   6.621  16.775   6.169
 5155POPC   D2A66184   6.448  16.818   6.560
 5155POPC   C3A66185   6.574  16.708   6.963
 5155POPC   C4A66186   6.405  16.949   7.336
 5155POPC   C1B66187   7.034  17.046   6.133
 5155POPC   C2B66188   6.970  16.902   6.565
 5155POPC   C3B66189   6.983  17.013   6.976
 5155POPC   C4B66190   6.892  16.820   7.370
 5156POPC   NC366191  18.503  21.841   5.464
 5156POPC   PO466192  17.902  22.232   5.436
 5156POPC   GL166193  18.214  22.223   5.769
 5156POPC   GL266194  18.576  22.287   5.717
 5156POPC   C1A66195  18.262  22.026   6.168
 5156POPC   D2A66196  18.157  21.783   6.541
 5156POPC   C3A66197  18.202  21.900   6.978
 5156POPC   C4A66198  18.038  22.244   7.231
 5156POPC   C1B66199  18.757  22.103   6.060
 5156POPC   C2B66200  18.646  22.141   6.491
 5156POPC   C3B66201  18.418  22.320   6.843
 5156POPC   C4B66202  18.561  22.148   7.257
 5157POPC   NC366203  34.527  20.039   5.566
 5157POPC   PO466204  34.776  19.346   5.468
 5157POPC   GL166205  34.619  19.589   5.803
 5157POPC   GL266206  34.950  19.756   5.776
 5157POPC   C1A66207  34.388  19.714   6.198
 5157POPC   D2A66208  34.253  19.898   6.624
 5157POPC   C3A66209  34.385  19.648   7.005
 5157POPC   C4A66210  34.441  19.848   7.411
 5157POPC   C1B66211  34.928  19.654   6.209
 5157POPC   C2B66212  34.713  19.690   6.597
 5157POPC   C3B66213  34.750  19.993   6.932
 5157POPC   C4B66214  34.960  19.975   7.321
 5158POPC   NC366215  13.178  44.509   5.492
 5158POPC   PO466216  12.686   0.023   5.821
 5158POPC   GL166217  12.968  44.757   5.878
 5158POPC   GL266218  13.242  44.970   5.679
 5158POPC   C1A66219  13.032  44.435   6.211
 5158POPC   D2A66220  13.019  44.224   6.642
 5158POPC   C3A66221  12.755  44.436   6.992
 5158POPC   C4A66222  12.677  44.485   7.459
 5158POPC   C1B66223  13.412  44.803   6.092
 5158POPC   C2B66224  13.443  44.648   6.502
 5158POPC   C3B66225  13.280  44.596   6.910
 5158POPC   C4B66226  13.037  44.804   7.229
 5159POPC   NC366227   4.643  43.268   4.990
 5159POPC   PO466228   4.067  43.195   5.328
 5159POPC   GL166229   4.174  43.134   5.779
 5159POPC   GL266230   4.446  42.923   5.804
 5159POPC   C1A66231   4.191  43.003   6.215
 5159POPC   D2A66232   4.474  42.955   6.530
 5159POPC   C3A66233   4.261  42.947   6.874
 5159POPC   C4A66234   4.207  43.107   7.260
 5159POPC   C1B66235   4.610  43.263   6.094
 5159POPC   C2B66236   4.684  43.436   6.495
 5159POPC   C3B66237   4.467  43.430   6.887
 5159POPC   C4B66238   4.591  43.553   7.268
 5160POPC   NC366239   6.745  19.205   5.393
 5160POPC   PO466240   6.157  18.889   5.599
 5160POPC   GL166241   6.500  19.068   5.873
 5160POPC   GL266242   6.866  19.019   5.839
 5160POPC   C1A66243   6.680  19.003   6.314
 5160POPC   D2A66244   6.556  19.081   6.731
 5160POPC   C3A66245   6.647  18.724   6.978
 5160POPC   C4A66246   6.443  18.716   7.338
 5160POPC   C1B66247   7.070  19.290   6.161
 5160POPC   C2B66248   7.164  19.164   6.590
 5160POPC   C3B66249   7.015  19.103   7.004
 5160POPC   C4B66250   7.249  19.137   7.385
 5161POPC   NC366251  28.143  41.927   5.606
 5161POPC   PO466252  28.427  41.358   5.406
 5161POPC   GL166253  28.306  41.332   5.824
 5161POPC   GL266254  28.633  41.164   5.873
 5161POPC   C1A66255  28.168  41.240   6.261
 5161POPC   D2A66256  28.262  41.208   6.702
 5161POPC   C3A66257  28.273  41.598   6.966
 5161POPC   C4A66258  28.224  41.867   7.364
 5161POPC   C1B66259  28.649  41.442   6.225
 5161POPC   C2B66260  28.702  41.490   6.655
 5161POPC   C3B66261  28.659  41.258   7.029
 5161POPC   C4B66262  28.700  41.186   7.500
 5162POPC   NC366263  25.930  33.611   5.439
 5162POPC   PO466264  26.144  34.230   5.556
 5162POPC   GL166265  25.972  33.975   5.833
 5162POPC   GL266266  26.206  33.733   5.854
 5162POPC   C1A66267  25.830  33.860   6.252
 5162POPC   D2A66268  25.886  33.644   6.659
 5162POPC   C3A66269  25.979  33.874   7.047
 5162POPC   C4A66270  25.870  34.005   7.488
 5162POPC   C1B66271  26.420  33.754   6.217
 5162POPC   C2B66272  26.378  33.533   6.587
 5162POPC   C3B66273  26.425  33.645   6.970
 5162POPC   C4B66274  26.352  33.765   7.406
 5163POPC   NC366275   0.766  44.726   5.361
 5163POPC   PO466276   0.177  44.963   5.505
 5163POPC   GL166277   0.488  44.838   5.839
 5163POPC   GL266278   0.610  44.511   5.790
 5163POPC   C1A66279   0.473  44.763   6.316
 5163POPC   D2A66280   0.497  44.716   6.796
 5163POPC   C3A66281   0.351   0.013   7.105
 5163POPC   C4A66282   0.279   0.121   7.549
 5163POPC   C1B66283   0.528  44.278   6.144
 5163POPC   C2B66284   0.342  44.192   6.521
 5163POPC   C3B66285   0.543  44.212   6.891
 5163POPC   C4B66286   0.675  44.328   7.282
 5164POPC   NC366287  11.861  15.251   5.589
 5164POPC   PO466288  12.490  14.926   5.675
 5164POPC   GL166289  12.228  15.197   5.952
 5164POPC   GL266290  12.273  15.569   5.919
 5164POPC   C1A66291  11.928  15.173   6.315
 5164POPC   D2A66292  11.880  15.452   6.691
 5164POPC   C3A66293  11.893  15.216   7.098
 5164POPC   C4A66294  11.875  15.390   7.532
 5164POPC   C1B66295  12.324  15.488   6.378
 5164POPC   C2B66296  12.284  15.129   6.724
 5164POPC   C3B66297  12.280  14.874   7.153
 5164POPC   C4B66298  12.312  14.938   7.634
 5165POPC   NC366299  35.685   6.849   5.505
 5165POPC   PO466300  35.048   6.978   5.515
 5165POPC   GL166301  35.171   6.625   5.790
 5165POPC   GL266302  35.501   6.442   5.764
 5165POPC   C1A66303  35.179   6.426   6.210
 5165POPC   D2A66304  34.919   6.429   6.604
 5165POPC   C3A66305  35.046   6.632   6.975
 5165POPC   C4A66306  35.477   6.563   7.044
 5165POPC   C1B66307  35.688   6.312   6.146
 5165POPC   C2B66308  35.559   6.292   6.580
 5165POPC   C3B66309  35.808   6.174   6.921
 5165POPC   C4B66310  35.735   6.168   7.345
 5166POPC   NC366311  30.980  16.750   5.438
 5166POPC   PO466312  30.340  16.869   5.685
 5166POPC   GL166313  30.632  16.502   5.807
 5166POPC   GL266314  31.017  16.499   5.881
 5166POPC   C1A66315  30.661  16.299   6.203
 5166POPC   D2A66316  30.797  16.499   6.583
 5166POPC   C3A66317  30.552  16.515   6.934
 5166POPC   C4A66318  30.357  16.870   7.134
 5166POPC   C1B66319  30.893  16.822   6.167
 5166POPC   C2B66320  30.954  17.053   6.559
 5166POPC   C3B66321  30.897  16.906   6.953
 5166POPC   C4B66322  31.156  16.624   7.135
 5167POPC   NC366323   0.923  26.202   5.341
 5167POPC   PO466324   0.199  26.049   5.438
 5167POPC   GL166325   0.370  25.950   5.832
 5167POPC   GL266326   0.709  26.081   5.793
 5167POPC   C1A66327   0.526  25.827   6.241
 5167POPC   D2A66328   0.772  25.922   6.598
 5167POPC   C3A66329   0.470  25.968   6.937
 5167POPC   C4A66330   0.251  26.065   7.318
 5167POPC   C1B66331   0.719  26.298   6.179
 5167POPC   C2B66332   0.522  26.379   6.603
 5167POPC   C3B66333   0.554  26.474   7.060
 5167POPC   C4B66334   0.626  26.439   7.522
 5168POPC   NC366335  25.698  40.454   5.361
 5168POPC   PO466336  26.094  40.996   5.532
 5168POPC   GL166337  26.215  40.884   5.937
 5168POPC   GL266338  26.321  40.551   5.882
 5168POPC   C1A66339  26.021  40.971   6.350
 5168POPC   D2A66340  26.031  40.720   6.734
 5168POPC   C3A66341  25.974  40.994   7.084
 5168POPC   C4A66342  25.998  41.272   7.444
 5168POPC   C1B66343  26.088  40.326   6.214
 5168POPC   C2B66344  25.882  40.211   6.606
 5168POPC   C3B66345  25.973  40.299   7.038
 5168POPC   C4B66346  25.997  40.584   7.384
 5169POPC   NC366347   7.613  43.478   5.595
 5169POPC   PO466348   7.088  42.893   5.457
 5169POPC   GL166349   7.207  43.180   5.712
 5169POPC   GL266350   7.511  43.041   5.813
 5169POPC   C1A66351   7.194  43.308   6.130
 5169POPC   D2A66352   7.417  43.233   6.501
 5169POPC   C3A66353   7.294  43.333   6.906
 5169POPC   C4A66354   7.396  43.180   7.316
 5169POPC   C1B66355   7.498  42.828   6.177
 5169POPC   C2B66356   7.355  42.728   6.563
 5169POPC   C3B66357   7.569  42.893   6.919
 5169POPC   C4B66358   7.839  42.679   7.184
 5170POPC   NC366359   7.765  41.160   5.549
 5170POPC   PO466360   7.650  40.535   5.349
 5170POPC   GL166361   7.377  40.658   5.713
 5170POPC   GL266362   7.678  40.771   5.882
 5170POPC   C1A66363   7.350  40.548   6.186
 5170POPC   D2A66364   7.685  40.569   6.533
 5170POPC   C3A66365   7.540  40.646   6.951
 5170POPC   C4A66366   7.263  40.966   7.033
 5170POPC   C1B66367   7.669  41.033   6.285
 5170POPC   C2B66368   7.649  41.252   6.679
 5170POPC   C3B66369   7.743  41.143   7.081
 5170POPC   C4B66370   7.731  40.931   7.470
 5171POPC   NC366371   2.034  34.935   5.482
 5171POPC   PO466372   2.065  35.557   5.305
 5171POPC   GL166373   2.004  35.385   5.742
 5171POPC   GL266374   1.701  35.187   5.828
 5171POPC   C1A66375   2.050  35.417   6.197
 5171POPC   D2A66376   1.740  35.499   6.530
 5171POPC   C3A66377   1.912  35.605   6.909
 5171POPC   C4A66378   1.821  35.601   7.324
 5171POPC   C1B66379   1.750  35.025   6.272
 5171POPC   C2B66380   2.026  35.112   6.638
 5171POPC   C3B66381   1.774  35.088   6.953
 5171POPC   C4B66382   1.729  34.708   7.176
 5172POPC   NC366383  29.182  35.693   5.399
 5172POPC   PO466384  29.354  35.048   5.330
 5172POPC   GL166385  29.307  35.310   5.733
 5172POPC   GL266386  28.960  35.450   5.859
 5172POPC   C1A66387  29.294  35.200   6.170
 5172POPC   D2A66388  29.435  35.018   6.560
 5172POPC   C3A66389  29.101  35.138   6.847
 5172POPC   C4A66390  29.082  35.353   7.255
 5172POPC   C1B66391  28.989  35.623   6.323
 5172POPC   C2B66392  29.024  35.697   6.813
 5172POPC   C3B66393  28.755  35.736   7.193
 5172POPC   C4B66394  28.722  35.472   7.588
 5173POPC   NC366395   4.515  38.591   5.332
 5173POPC   PO466396   3.839  38.656   5.455
 5173POPC   GL166397   4.164  38.620   5.809
 5173POPC   GL266398   4.371  38.301   5.843
 5173POPC   C1A66399   4.319  38.568   6.272
 5173POPC   D2A66400   4.438  38.257   6.624
 5173POPC   C3A66401   4.463  38.455   7.051
 5173POPC   C4A66402   4.465  38.891   7.223
 5173POPC   C1B66403   4.055  38.137   6.171
 5173POPC   C2B66404   3.926  38.127   6.615
 5173POPC   C3B66405   4.154  38.034   7.025
 5173POPC   C4B66406   4.388  38.109   7.439
 5174POPC   NC366407  11.626  42.309   5.410
 5174POPC   PO466408  11.072  42.771   5.360
 5174POPC   GL166409  11.191  42.453   5.718
 5174POPC   GL266410  11.004  42.157   5.915
 5174POPC   C1A66411  11.384  42.404   6.141
 5174POPC   D2A66412  11.236  42.165   6.503
 5174POPC   C3A66413  11.348  42.305   6.912
 5174POPC   C4A66414  11.061  42.498   7.188
 5174POPC   C1B66415  10.789  42.031   6.307
 5174POPC   C2B66416  10.800  41.928   6.766
 5174POPC   C3B66417  11.008  41.993   7.184
 5174POPC   C4B66418  11.262  42.005   7.592
 5175POPC   NC366419   2.441  16.358   5.527
 5175POPC   PO466420   1.982  16.876   5.453
 5175POPC   GL166421   2.012  16.677   5.808
 5175POPC   GL266422   2.337  16.710   5.883
 5175POPC   C1A66423   1.948  16.554   6.219
 5175POPC   D2A66424   1.945  16.825   6.575
 5175POPC   C3A66425   2.074  16.650   6.943
 5175POPC   C4A66426   1.975  16.655   7.364
 5175POPC   C1B66427   2.229  17.020   6.161
 5175POPC   C2B66428   2.331  17.199   6.558
 5175POPC   C3B66429   2.236  17.139   6.994
 5175POPC   C4B66430   2.279  17.058   7.444
 5176POPC   NC366431  10.065  22.305   5.543
 5176POPC   PO466432   9.562  21.878   5.417
 5176POPC   GL166433   9.699  21.963   5.820
 5176POPC   GL266434   9.612  22.322   5.817
 5176POPC   C1A66435   9.956  22.036   6.202
 5176POPC   D2A66436  10.147  22.309   6.539
 5176POPC   C3A66437  10.009  22.415   6.962
 5176POPC   C4A66438  10.026  22.196   7.374
 5176POPC   C1B66439   9.461  22.172   6.229
 5176POPC   C2B66440   9.608  22.239   6.657
 5176POPC   C3B66441   9.499  22.287   7.102
 5176POPC   C4B66442   9.337  22.532   7.468
 5177POPC   NC366443  36.722  41.596   5.000
 5177POPC   PO466444  37.213  41.589   5.507
 5177POPC   GL166445  36.801  41.594   5.769
 5177POPC   GL266446  36.717  41.235   5.872
 5177POPC   C1A66447  36.587  41.582   6.206
 5177POPC   D2A66448  36.715  41.440   6.621
 5177POPC   C3A66449  36.873  41.737   6.903
 5177POPC   C4A66450  36.666  41.666   7.263
 5177POPC   C1B66451  37.054  41.370   6.153
 5177POPC   C2B66452  37.228  41.428   6.562
 5177POPC   C3B66453  37.284  41.134   6.882
 5177POPC   C4B66454  37.044  41.307   7.210
 5178POPC   NC366455  16.097  34.373   5.077
 5178POPC   PO466456  15.544  34.629   5.392
 5178POPC   GL166457  15.681  34.662   5.815
 5178POPC   GL266458  16.052  34.585   5.801
 5178POPC   C1A66459  15.720  34.585   6.255
 5178POPC   D2A66460  15.911  34.731   6.634
 5178POPC   C3A66461  15.695  34.456   6.877
 5178POPC   C4A66462  15.441  34.394   7.179
 5178POPC   C1B66463  16.253  34.677   6.230
 5178POPC   C2B66464  16.404  34.526   6.643
 5178POPC   C3B66465  16.197  34.566   7.057
 5178POPC   C4B66466  16.170  34.816   7.464
 5179POPC   NC366467  14.018  30.902   5.200
 5179POPC   PO466468  14.397  30.465   5.467
 5179POPC   GL166469  14.361  30.783   5.805
 5179POPC   GL266470  14.110  31.036   5.715
 5179POPC   C1A66471  14.518  30.696   6.236
 5179POPC   D2A66472  14.661  30.388   6.556
 5179POPC   C3A66473  14.638  30.627   6.933
 5179POPC   C4A66474  14.285  30.569   7.193
 5179POPC   C1B66475  14.159  31.069   6.189
 5179POPC   C2B66476  14.213  30.863   6.625
 5179POPC   C3B66477  14.094  31.034   7.025
 5179POPC   C4B66478  14.292  31.261   7.378
 5180POPC   NC366479  14.685  19.541   5.448
 5180POPC   PO466480  14.282  18.898   5.501
 5180POPC   GL166481  14.338  19.106   5.883
 5180POPC   GL266482  14.644  19.254   5.871
 5180POPC   C1A66483  14.388  19.198   6.329
 5180POPC   D2A66484  14.307  19.503   6.688
 5180POPC   C3A66485  14.467  19.338   7.075
 5180POPC   C4A66486  14.395  18.965   7.282
 5180POPC   C1B66487  14.701  18.861   6.131
 5180POPC   C2B66488  14.554  18.725   6.535
 5180POPC   C3B66489  14.760  18.729   6.960
 5180POPC   C4B66490  15.051  18.690   7.327
 5181POPC   NC366491  12.146  43.422   5.459
 5181POPC   PO466492  11.908  42.747   5.374
 5181POPC   GL166493  11.906  43.007   5.714
 5181POPC   GL266494  12.275  42.990   5.750
 5181POPC   C1A66495  11.964  43.255   6.077
 5181POPC   D2A66496  12.222  43.310   6.457
 5181POPC   C3A66497  12.043  43.342   6.878
 5181POPC   C4A66498  11.805  43.618   7.132
 5181POPC   C1B66499  12.227  42.832   6.187
 5181POPC   C2B66500  12.049  42.846   6.621
 5181POPC   C3B66501  12.235  42.900   7.041
 5181POPC   C4B66502  12.279  42.839   7.487
 5182POPC   NC366503  13.730  41.299   5.441
 5182POPC   PO466504  13.449  41.953   5.483
 5182POPC   GL166505  13.616  41.715   5.777
 5182POPC   GL266506  13.362  41.481   5.778
 5182POPC   C1A66507  13.737  41.491   6.138
 5182POPC   D2A66508  13.610  41.371   6.534
 5182POPC   C3A66509  13.708  41.613   6.896
 5182POPC   C4A66510  13.655  41.488   7.343
 5182POPC   C1B66511  13.266  41.734   6.168
 5182POPC   C2B66512  13.284  41.784   6.625
 5182POPC   C3B66513  13.286  41.809   7.113
 5182POPC   C4B66514  13.469  41.941   7.532
 5183POPC   NC366515  14.964  32.982   5.544
 5183POPC   PO466516  15.453  33.346   5.362
 5183POPC   GL166517  15.419  33.112   5.793
 5183POPC   GL266518  15.327  32.742   5.837
 5183POPC   C1A66519  15.345  33.053   6.252
 5183POPC   D2A66520  15.206  32.964   6.682
 5183POPC   C3A66521  15.435  33.103   7.076
 5183POPC   C4A66522  15.253  33.250   7.480
 5183POPC   C1B66523  14.988  32.682   6.196
 5183POPC   C2B66524  14.799  32.666   6.628
 5183POPC   C3B66525  14.998  32.657   7.037
 5183POPC   C4B66526  15.111  32.727   7.452
 5184POPC   NC366527  28.613  39.923   5.612
 5184POPC   PO466528  29.226  40.049   5.254
 5184POPC   GL166529  29.103  40.132   5.680
 5184POPC   GL266530  29.227  39.821   5.856
 5184POPC   C1A66531  29.041  40.196   6.141
 5184POPC   D2A66532  29.231  40.001   6.500
 5184POPC   C3A66533  29.343  40.168   6.889
 5184POPC   C4A66534  29.207  40.073   7.297
 5184POPC   C1B66535  28.914  39.675   6.196
 5184POPC   C2B66536  28.847  39.723   6.654
 5184POPC   C3B66537  29.190  39.668   6.979
 5184POPC   C4B66538  29.332  39.606   7.440
 5185POPC   NC366539  21.645   6.669   5.386
 5185POPC   PO466540  20.972   6.550   5.192
 5185POPC   GL166541  21.234   6.731   5.665
 5185POPC   GL266542  21.485   6.541   5.852
 5185POPC   C1A66543  21.241   6.807   6.176
 5185POPC   D2A66544  21.128   6.603   6.598
 5185POPC   C3A66545  21.104   6.750   6.995
 5185POPC   C4A66546  21.378   7.039   7.144
 5185POPC   C1B66547  21.375   6.308   6.249
 5185POPC   C2B66548  21.430   6.129   6.650
 5185POPC   C3B66549  21.403   6.345   7.048
 5185POPC   C4B66550  21.465   6.439   7.506
 5186POPC   NC366551   2.337  10.902   5.402
 5186POPC   PO466552   2.309  10.212   5.517
 5186POPC   GL166553   2.132  10.310   5.917
 5186POPC   GL266554   1.810  10.455   5.848
 5186POPC   C1A66555   1.981  10.390   6.339
 5186POPC   D2A66556   1.943  10.683   6.659
 5186POPC   C3A66557   2.203  10.530   6.981
 5186POPC   C4A66558   2.237  10.281   7.321
 5186POPC   C1B66559   1.554  10.206   6.141
 5186POPC   C2B66560   1.506  10.381   6.573
 5186POPC   C3B66561   1.720  10.337   6.952
 5186POPC   C4B66562   1.761  10.113   7.303
 5187POPC   NC366563  39.950  34.416   5.185
 5187POPC   PO466564  40.387  34.752   5.563
 5187POPC   GL166565  40.116  34.734   5.907
 5187POPC   GL266566  39.785  34.694   5.785
 5187POPC   C1A66567  39.867  35.011   6.183
 5187POPC   D2A66568  39.806  34.937   6.612
 5187POPC   C3A66569  40.124  34.826   6.867
 5187POPC   C4A66570  40.077  34.753   7.259
 5187POPC   C1B66571  39.687  34.527   6.232
 5187POPC   C2B66572  39.957  34.430   6.553
 5187POPC   C3B66573  40.091  34.318   6.974
 5187POPC   C4B66574  39.863  34.306   7.362
 5188POPC   NC366575   6.569  42.769   5.456
 5188POPC   PO466576   6.343  42.168   5.367
 5188POPC   GL166577   6.608  42.119   5.752
 5188POPC   GL266578   6.746  42.440   5.825
 5188POPC   C1A66579   6.712  42.047   6.202
 5188POPC   D2A66580   6.513  42.060   6.637
 5188POPC   C3A66581   6.835  42.172   6.984
 5188POPC   C4A66582   6.826  42.119   7.437
 5188POPC   C1B66583   6.572  42.520   6.240
 5188POPC   C2B66584   6.719  42.539   6.653
 5188POPC   C3B66585   6.466  42.491   7.038
 5188POPC   C4B66586   6.500  42.671   7.473
 5189POPC   NC366587  34.718  29.867   5.295
 5189POPC   PO466588  34.458  30.482   5.450
 5189POPC   GL166589  34.649  30.149   5.749
 5189POPC   GL266590  34.906  29.842   5.759
 5189POPC   C1A66591  34.579  29.962   6.172
 5189POPC   D2A66592  34.393  29.821   6.580
 5189POPC   C3A66593  34.576  30.049   6.944
 5189POPC   C4A66594  34.723  30.223   7.329
 5189POPC   C1B66595  34.895  29.553   6.116
 5189POPC   C2B66596  34.890  29.645   6.545
 5189POPC   C3B66597  34.704  29.549   6.908
 5189POPC   C4B66598  34.472  29.656   7.273
 5190POPC   NC366599  26.863   3.917   5.402
 5190POPC   PO466600  26.792   3.279   5.616
 5190POPC   GL166601  26.580   3.446   5.918
 5190POPC   GL266602  26.534   3.799   5.784
 5190POPC   C1A66603  26.805   3.397   6.317
 5190POPC   D2A66604  27.051   3.347   6.657
 5190POPC   C3A66605  26.771   3.554   6.926
 5190POPC   C4A66606  26.710   3.322   7.291
 5190POPC   C1B66607  26.874   3.823   6.066
 5190POPC   C2B66608  27.032   3.826   6.496
 5190POPC   C3B66609  27.153   3.916   6.899
 5190POPC   C4B66610  26.925   3.908   7.281
 5191POPC   NC366611  22.225  37.255   5.629
 5191POPC   PO466612  22.452  37.875   5.400
 5191POPC   GL166613  22.272  37.769   5.811
 5191POPC   GL266614  21.942  37.863   5.899
 5191POPC   C1A66615  22.265  37.618   6.261
 5191POPC   D2A66616  22.467  37.417   6.626
 5191POPC   C3A66617  22.318  37.479   7.034
 5191POPC   C4A66618  22.161  37.867   7.170
 5191POPC   C1B66619  21.753  37.693   6.252
 5191POPC   C2B66620  21.932  37.691   6.669
 5191POPC   C3B66621  21.808  37.528   7.016
 5191POPC   C4B66622  21.525  37.443   7.278
 5192POPC   NC366623  40.074   3.707   5.527
 5192POPC   PO466624  39.672   3.151   5.465
 5192POPC   GL166625  40.065   3.248   5.732
 5192POPC   GL266626  39.976   3.486   5.978
 5192POPC   C1A66627  40.332   3.122   6.076
 5192POPC   D2A66628  40.136   3.279   6.445
 5192POPC   C3A66629  40.163   3.194   6.876
 5192POPC   C4A66630  39.992   3.172   7.290
 5192POPC   C1B66631  40.054   3.814   6.262
 5192POPC   C2B66632  40.193   3.746   6.655
 5192POPC   C3B66633  40.041   3.668   7.032
 5192POPC   C4B66634  40.265   3.577   7.411
 5193POPC   NC366635  40.840   3.064   5.540
 5193POPC   PO466636  40.319   2.488   5.482
 5193POPC   GL166637  40.629   2.655   5.786
 5193POPC   GL266638  40.775   2.379   5.974
 5193POPC   C1A66639  40.814   2.847   6.186
 5193POPC   D2A66640  40.844   2.679   6.617
 5193POPC   C3A66641  40.658   2.977   6.888
 5193POPC   C4A66642  40.389   2.870   7.210
 5193POPC   C1B66643  41.148   2.446   6.250
 5193POPC   C2B66644  41.362   2.620   6.621
 5193POPC   C3B66645  41.232   2.585   7.035
 5193POPC   C4B66646  40.935   2.785   7.273
 5194POPC   NC366647   0.008   3.636   5.449
 5194POPC   PO466648   0.526   3.195   5.340
 5194POPC   GL166649   0.417   3.406   5.765
 5194POPC   GL266650   0.183   3.691   5.916
 5194POPC   C1A66651   0.449   3.404   6.228
 5194POPC   D2A66652   0.517   3.246   6.631
 5194POPC   C3A66653   0.800   3.501   6.852
 5194POPC   C4A66654   0.731   3.415   7.250
 5194POPC   C1B66655   0.332   3.927   6.248
 5194POPC   C2B66656   0.428   3.766   6.633
 5194POPC   C3B66657   0.334   3.627   7.037
 5194POPC   C4B66658   0.008   3.335   7.181
 5195POPC   NC366659  26.567  38.540   5.228
 5195POPC   PO466660  27.189  38.375   5.156
 5195POPC   GL166661  26.897  38.422   5.605
 5195POPC   GL266662  26.589  38.211   5.633
 5195POPC   C1A66663  26.860  38.652   6.052
 5195POPC   D2A66664  26.791  38.461   6.494
 5195POPC   C3A66665  26.882  38.648   6.900
 5195POPC   C4A66666  26.681  38.543   7.301
 5195POPC   C1B66667  26.461  38.321   6.055
 5195POPC   C2B66668  26.284  38.373   6.466
 5195POPC   C3B66669  26.444  38.251   6.882
 5195POPC   C4B66670  26.207  38.196   7.272
 5196POPC   NC366671  10.234  28.239   5.347
 5196POPC   PO466672  10.425  28.841   5.349
 5196POPC   GL166673  10.292  28.602   5.704
 5196POPC   GL266674  10.603  28.448   5.775
 5196POPC   C1A66675  10.272  28.564   6.158
 5196POPC   D2A66676  10.451  28.703   6.542
 5196POPC   C3A66677  10.437  28.449   6.887
 5196POPC   C4A66678  10.400  28.614   7.263
 5196POPC   C1B66679  10.661  28.209   6.156
 5196POPC   C2B66680  10.484  28.047   6.530
 5196POPC   C3B66681  10.649  27.969   6.948
 5196POPC   C4B66682  10.372  28.082   7.285
 5197POPC   NC366683  39.123  14.042   5.457
 5197POPC   PO466684  39.446  13.509   5.289
 5197POPC   GL166685  39.364  13.623   5.713
 5197POPC   GL266686  39.045  13.596   5.657
 5197POPC   C1A66687  39.478  13.730   6.148
 5197POPC   D2A66688  39.245  13.843   6.534
 5197POPC   C3A66689  39.406  13.833   6.967
 5197POPC   C4A66690  39.490  13.527   7.314
 5197POPC   C1B66691  38.989  13.595   6.132
 5197POPC   C2B66692  38.960  13.405   6.549
 5197POPC   C3B66693  38.966  13.537   6.974
 5197POPC   C4B66694  38.970  13.325   7.346
 5198POPC   NC366695  30.911  27.938   5.422
 5198POPC   PO466696  30.814  28.570   5.549
 5198POPC   GL166697  30.644  28.542   5.928
 5198POPC   GL266698  30.587  28.187   5.893
 5198POPC   C1A66699  30.759  28.403   6.311
 5198POPC   D2A66700  30.798  28.219   6.687
 5198POPC   C3A66701  30.923  28.566   6.927
 5198POPC   C4A66702  30.696  28.720   7.285
 5198POPC   C1B66703  30.510  27.932   6.253
 5198POPC   C2B66704  30.398  27.757   6.636
 5198POPC   C3B66705  30.516  27.933   7.011
 5198POPC   C4B66706  30.803  28.178   7.215
 5199POPC   NC366707  33.009  40.229   5.346
 5199POPC   PO466708  33.005  39.585   5.233
 5199POPC   GL166709  32.788  39.661   5.654
 5199POPC   GL266710  32.625  39.994   5.744
 5199POPC   C1A66711  32.788  39.658   6.137
 5199POPC   D2A66712  33.081  39.885   6.434
 5199POPC   C3A66713  33.107  39.870   6.890
 5199POPC   C4A66714  33.303  39.693   7.275
 5199POPC   C1B66715  32.645  40.163   6.207
 5199POPC   C2B66716  32.677  40.121   6.688
 5199POPC   C3B66717  32.787  40.242   7.116
 5199POPC   C4B66718  33.195  40.220   7.257
 5200POPC   NC366719  26.792  28.447   5.268
 5200POPC   PO466720  27.393  28.314   5.388
 5200POPC   GL166721  27.065  28.515   5.700
 5200POPC   GL266722  26.649  28.494   5.759
 5200POPC   C1A66723  27.015  28.341   6.091
 5200POPC   D2A66724  26.845  28.271   6.475
 5200POPC   C3A66725  26.980  28.510   6.802
 5200POPC   C4A66726  27.224  28.349   7.120
 5200POPC   C1B66727  26.460  28.282   6.136
 5200POPC   C2B66728  26.377  28.091   6.549
 5200POPC   C3B66729  26.660  28.100   6.928
 5200POPC   C4B66730  26.602  28.451   7.155
 5201POPC   NC366731  37.943  36.093   5.477
 5201POPC   PO466732  37.334  35.968   5.223
 5201POPC   GL166733  37.479  36.225   5.685
 5201POPC   GL266734  37.287  36.025   5.916
 5201POPC   C1A66735  37.688  36.161   6.162
 5201POPC   D2A66736  37.639  36.021   6.605
 5201POPC   C3A66737  37.640  36.324   6.989
 5201POPC   C4A66738  37.700  36.345   7.478
 5201POPC   C1B66739  37.292  35.724   6.261
 5201POPC   C2B66740  37.205  35.680   6.697
 5201POPC   C3B66741  37.448  35.854   7.051
 5201POPC   C4B66742  37.857  35.885   7.198
 5202POPC   NC366743  15.552  35.086   5.518
 5202POPC   PO466744  16.160  35.387   5.462
 5202POPC   GL166745  15.905  35.394   5.778
 5202POPC   GL266746  16.011  35.080   5.851
 5202POPC   C1A66747  15.878  35.562   6.175
 5202POPC   D2A66748  16.022  35.469   6.579
 5202POPC   C3A66749  15.838  35.675   6.903
 5202POPC   C4A66750  15.843  35.476   7.265
 5202POPC   C1B66751  15.826  35.073   6.235
 5202POPC   C2B66752  15.543  35.294   6.489
 5202POPC   C3B66753  15.692  35.167   6.867
 5202POPC   C4B66754  15.751  34.867   7.160
 5203POPC   NC366755  44.181   6.757   5.211
 5203POPC   PO466756  43.553   6.523   5.399
 5203POPC   GL166757  43.785   6.751   5.739
 5203POPC   GL266758  44.152   6.720   5.738
 5203POPC   C1A66759  43.696   6.568   6.143
 5203POPC   D2A66760  43.874   6.616   6.543
 5203POPC   C3A66761  43.648   6.487   6.898
 5203POPC   C4A66762  43.791   6.324   7.266
 5203POPC   C1B66763  44.077   6.902   6.157
 5203POPC   C2B66764  44.251   6.974   6.585
 5203POPC   C3B66765  44.111   6.837   6.990
 5203POPC   C4B66766  44.151   7.052   7.358
 5204POPC   NC366767  27.316  17.095   5.302
 5204POPC   PO466768  27.923  16.746   5.358
 5204POPC   GL166769  27.792  16.832   5.757
 5204POPC   GL266770  27.456  16.968   5.798
 5204POPC   C1A66771  27.853  16.710   6.160
 5204POPC   D2A66772  27.863  16.553   6.555
 5204POPC   C3A66773  27.602  16.600   6.870
 5204POPC   C4A66774  27.715  16.591   7.249
 5204POPC   C1B66775  27.206  17.231   6.069
 5204POPC   C2B66776  27.180  17.306   6.506
 5204POPC   C3B66777  27.220  17.267   6.945
 5204POPC   C4B66778  27.265  16.866   7.170
 5205POPC   NC366779  18.036  42.685   5.060
 5205POPC   PO466780  18.335  42.397   5.498
 5205POPC   GL166781  18.484  42.485   5.874
 5205POPC   GL266782  18.378  42.822   5.923
 5205POPC   C1A66783  18.321  42.416   6.282
 5205POPC   D2A66784  18.227  42.112   6.590
 5205POPC   C3A66785  18.143  42.214   7.001
 5205POPC   C4A66786  18.298  42.106   7.396
 5205POPC   C1B66787  18.073  42.866   6.267
 5205POPC   C2B66788  18.052  42.700   6.661
 5205POPC   C3B66789  18.342  42.690   6.986
 5205POPC   C4B66790  18.490  42.568   7.407
 5206POPC   NC366791  31.561  32.769   5.430
 5206POPC   PO466792  31.253  33.345   5.357
 5206POPC   GL166793  31.409  33.170   5.734
 5206POPC   GL266794  31.110  33.098   5.944
 5206POPC   C1A66795  31.627  33.189   6.129
 5206POPC   D2A66796  31.594  33.503   6.445
 5206POPC   C3A66797  31.421  33.338   6.810
 5206POPC   C4A66798  31.307  33.480   7.216
 5206POPC   C1B66799  31.190  33.027   6.392
 5206POPC   C2B66800  31.455  32.724   6.598
 5206POPC   C3B66801  31.547  32.654   7.008
 5206POPC   C4B66802  31.454  32.996   7.237
 5207POPC   NC366803   9.819   3.743   5.660
 5207POPC   PO466804   9.523   3.194   5.391
 5207POPC   GL166805   9.789   3.215   5.751
 5207POPC   GL266806   9.624   3.408   6.036
 5207POPC   C1A66807  10.054   3.195   6.136
 5207POPC   D2A66808  10.042   3.529   6.484
 5207POPC   C3A66809   9.939   3.616   6.950
 5207POPC   C4A66810   9.919   3.889   7.375
 5207POPC   C1B66811   9.487   3.476   6.486
 5207POPC   C2B66812   9.432   3.533   6.945
 5207POPC   C3B66813   9.436   3.907   7.212
 5207POPC   C4B66814   9.146   4.175   7.424
 5208POPC   NC366815  13.761  11.772   5.594
 5208POPC   PO466816  14.253  12.175   5.333
 5208POPC   GL166817  14.406  12.138   5.776
 5208POPC   GL266818  14.422  11.777   5.785
 5208POPC   C1A66819  14.545  12.291   6.172
 5208POPC   D2A66820  14.650  12.112   6.562
 5208POPC   C3A66821  14.806  12.280   6.967
 5208POPC   C4A66822  14.579  12.259   7.363
 5208POPC   C1B66823  14.320  11.810   6.220
 5208POPC   C2B66824  14.352  11.709   6.654
 5208POPC   C3B66825  14.411  11.902   7.015
 5208POPC   C4B66826  14.160  11.868   7.346
 5209POPC   NC366827  12.738  15.318   5.584
 5209POPC   PO466828  13.352  15.040   5.391
 5209POPC   GL166829  13.174  15.162   5.802
 5209POPC   GL266830  13.177  15.497   5.906
 5209POPC   C1A66831  12.877  15.198   6.204
 5209POPC   D2A66832  12.763  15.360   6.621
 5209POPC   C3A66833  12.726  15.068   6.977
 5209POPC   C4A66834  12.756  14.823   7.384
 5209POPC   C1B66835  13.400  15.224   6.242
 5209POPC   C2B66836  13.543  15.176   6.670
 5209POPC   C3B66837  13.192  15.333   6.908
 5209POPC   C4B66838  13.035  15.269   7.306
 5210POPC   NC366839  36.370  42.419   5.356
 5210POPC   PO466840  35.756  42.450   5.641
 5210POPC   GL166841  36.137  42.278   5.812
 5210POPC   GL266842  36.417  42.496   5.855
 5210POPC   C1A66843  36.104  42.295   6.247
 5210POPC   D2A66844  35.812  42.324   6.579
 5210POPC   C3A66845  36.021  42.207   6.938
 5210POPC   C4A66846  36.140  42.464   7.292
 5210POPC   C1B66847  36.534  42.582   6.256
 5210POPC   C2B66848  36.358  42.509   6.645
 5210POPC   C3B66849  36.534  42.648   6.993
 5210POPC   C4B66850  36.591  42.618   7.402
 5211POPC   NC366851  35.840  38.512   5.304
 5211POPC   PO466852  35.253  38.543   5.561
 5211POPC   GL166853  35.523  38.544   5.896
 5211POPC   GL266854  35.612  38.192   5.801
 5211POPC   C1A66855  35.439  38.553   6.357
 5211POPC   D2A66856  35.364  38.632   6.795
 5211POPC   C3A66857  35.256  38.343   7.142
 5211POPC   C4A66858  35.153  38.488   7.590
 5211POPC   C1B66859  35.787  38.247   6.214
 5211POPC   C2B66860  35.660  38.153   6.624
 5211POPC   C3B66861  35.752  38.342   7.022
 5211POPC   C4B66862  35.643  38.287   7.467
 5212POPC   NC366863  25.734  34.430   5.636
 5212POPC   PO466864  26.113  34.861   5.308
 5212POPC   GL166865  26.098  34.744   5.772
 5212POPC   GL266866  26.328  34.567   5.940
 5212POPC   C1A66867  25.898  34.656   6.217
 5212POPC   D2A66868  25.762  34.331   6.528
 5212POPC   C3A66869  25.902  34.497   6.909
 5212POPC   C4A66870  25.698  34.478   7.285
 5212POPC   C1B66871  26.182  34.232   6.209
 5212POPC   C2B66872  26.206  34.034   6.586
 5212POPC   C3B66873  26.339  34.202   6.925
 5212POPC   C4B66874  26.197  34.333   7.289
 5213POPC   NC366875   5.059   7.655   5.604
 5213POPC   PO466876   5.145   7.162   5.228
 5213POPC   GL166877   5.099   7.159   5.728
 5213POPC   GL266878   5.295   7.384   5.975
 5213POPC   C1A66879   4.885   7.173   6.181
 5213POPC   D2A66880   4.867   7.461   6.593
 5213POPC   C3A66881   4.962   7.289   7.021
 5213POPC   C4A66882   4.790   6.955   7.250
 5213POPC   C1B66883   5.137   7.762   6.240
 5213POPC   C2B66884   5.074   7.961   6.642
 5213POPC   C3B66885   5.069   7.792   7.058
 5213POPC   C4B66886   5.187   7.530   7.443
 5214POPC   NC366887  37.157  43.657   5.303
 5214POPC   PO466888  36.500  43.636   5.565
 5214POPC   GL166889  36.772  43.741   5.881
 5214POPC   GL266890  37.101  43.824   5.800
 5214POPC   C1A66891  36.918  43.747   6.289
 5214POPC   D2A66892  37.176  43.827   6.616
 5214POPC   C3A66893  36.877  43.744   6.923
 5214POPC   C4A66894  36.823  43.950   7.279
 5214POPC   C1B66895  37.072  44.187   6.112
 5214POPC   C2B66896  37.172  44.368   6.540
 5214POPC   C3B66897  37.154  44.220   6.950
 5214POPC   C4B66898  37.383  44.238   7.339
 5215POPC   NC366899  21.568   4.177   5.331
 5215POPC   PO466900  21.388   4.785   5.363
 5215POPC   GL166901  21.339   4.494   5.734
 5215POPC   GL266902  21.593   4.266   5.845
 5215POPC   C1A66903  21.134   4.318   6.113
 5215POPC   D2A66904  21.311   4.203   6.483
 5215POPC   C3A66905  21.142   4.096   6.847
 5215POPC   C4A66906  21.243   4.279   7.224
 5215POPC   C1B66907  21.771   4.134   6.266
 5215POPC   C2B66908  21.743   4.106   6.745
 5215POPC   C3B66909  21.753   4.180   7.199
 5215POPC   C4B66910  21.886   4.491   7.549
 5216POPC   NC366911  35.722   1.979   5.036
 5216POPC   PO466912  35.177   1.944   5.566
 5216POPC   GL166913  35.208   2.075   5.924
 5216POPC   GL266914  35.017   2.380   6.026
 5216POPC   C1A66915  35.487   1.907   6.188
 5216POPC   D2A66916  35.420   1.746   6.539
 5216POPC   C3A66917  35.400   1.983   6.918
 5216POPC   C4A66918  35.524   1.884   7.291
 5216POPC   C1B66919  35.157   2.219   6.422
 5216POPC   C2B66920  34.969   1.946   6.678
 5216POPC   C3B66921  34.995   2.297   7.000
 5216POPC   C4B66922  35.179   2.234   7.396
 5217POPC   NC366923  11.370  16.246   5.460
 5217POPC   PO466924  10.966  15.746   5.449
 5217POPC   GL166925  11.248  15.894   5.786
 5217POPC   GL266926  10.979  16.091   5.870
 5217POPC   C1A66927  11.466  16.024   6.166
 5217POPC   D2A66928  11.593  16.162   6.576
 5217POPC   C3A66929  11.517  16.019   7.003
 5217POPC   C4A66930  11.406  15.701   7.309
 5217POPC   C1B66931  10.983  16.161   6.296
 5217POPC   C2B66932  11.105  16.248   6.735
 5217POPC   C3B66933  10.948  16.198   7.173
 5217POPC   C4B66934  10.901  16.329   7.629
 5218POPC   NC366935  29.838  18.012   5.076
 5218POPC   PO466936  30.060  18.453   5.526
 5218POPC   GL166937  29.985  18.364   5.950
 5218POPC   GL266938  29.706  18.133   6.075
 5218POPC   C1A66939  30.010  18.460   6.343
 5218POPC   D2A66940  30.248  18.284   6.657
 5218POPC   C3A66941  30.188  18.477   7.032
 5218POPC   C4A66942  30.058  18.338   7.457
 5218POPC   C1B66943  29.780  18.041   6.517
 5218POPC   C2B66944  29.741  18.421   6.767
 5218POPC   C3B66945  29.658  18.457   7.127
 5218POPC   C4B66946  29.691  18.046   7.235
 5219POPC   NC366947  42.594  30.526   5.644
 5219POPC   PO466948  43.124  30.849   5.305
 5219POPC   GL166949  43.038  30.769   5.714
 5219POPC   GL266950  42.914  31.099   5.791
 5219POPC   C1A66951  43.110  30.476   6.096
 5219POPC   D2A66952  42.893  30.435   6.515
 5219POPC   C3A66953  43.025  30.341   6.973
 5219POPC   C4A66954  43.297  30.506   7.320
 5219POPC   C1B66955  43.275  31.004   6.089
 5219POPC   C2B66956  43.331  30.758   6.461
 5219POPC   C3B66957  43.319  30.766   6.892
 5219POPC   C4B66958  43.368  30.998   7.275
 5220POPC   NC366959  20.517  38.675   5.369
 5220POPC   PO466960  20.718  38.061   5.343
 5220POPC   GL166961  20.825  38.382   5.660
 5220POPC   GL266962  20.990  38.192   5.887
 5220POPC   C1A66963  20.747  38.613   6.087
 5220POPC   D2A66964  20.666  38.457   6.542
 5220POPC   C3A66965  20.707  38.618   6.962
 5220POPC   C4A66966  20.434  38.845   7.247
 5220POPC   C1B66967  21.134  38.010   6.260
 5220POPC   C2B66968  21.044  37.854   6.633
 5220POPC   C3B66969  20.940  37.939   7.006
 5220POPC   C4B66970  20.945  38.237   7.244
 5221POPC   NC366971  43.943  24.247   5.271
 5221POPC   PO466972  43.430  24.630   5.358
 5221POPC   GL166973  43.643  24.628   5.731
 5221POPC   GL266974  43.729  24.285   5.744
 5221POPC   C1A66975  43.847  24.680   6.150
 5221POPC   D2A66976  43.997  24.885   6.545
 5221POPC   C3A66977  43.940  24.655   6.948
 5221POPC   C4A66978  43.627  24.672   7.256
 5221POPC   C1B66979  43.505  24.280   6.125
 5221POPC   C2B66980  43.689  24.324   6.544
 5221POPC   C3B66981  43.553  24.248   6.960
 5221POPC   C4B66982  43.772  24.184   7.331
 5222POPC   NC366983   0.274   7.614   5.430
 5222POPC   PO466984   0.912   7.550   5.532
 5222POPC   GL166985   0.591   7.443   5.830
 5222POPC   GL266986   0.321   7.211   5.789
 5222POPC   C1A66987   0.462   7.489   6.241
 5222POPC   D2A66988   0.657   7.524   6.637
 5222POPC   C3A66989   0.479   7.281   6.944
 5222POPC   C4A66990   0.482   7.499   7.345
 5222POPC   C1B66991   0.024   7.241   6.177
 5222POPC   C2B66992   0.074   7.427   6.604
 5222POPC   C3B66993   0.173   7.689   6.969
 5222POPC   C4B66994   0.069   7.849   7.398
 5223POPC   NC366995  39.818  41.836   5.312
 5223POPC   PO466996  40.467  41.476   5.293
 5223POPC   GL166997  40.253  41.542   5.699
 5223POPC   GL266998  40.069  41.848   5.767
 5223POPC   C1A66999  39.996  41.389   6.062
 5223POPC   D2A67000  39.728  41.444   6.464
 5223POPC   C3A67001  39.731  41.593   6.902
 5223POPC   C4A67002  39.977  41.530   7.266
 5223POPC   C1B67003  39.800  41.857   6.139
 5223POPC   C2B67004  39.904  41.945   6.574
 5223POPC   C3B67005  39.969  42.040   6.994
 5223POPC   C4B67006  39.691  41.922   7.307
 5224POPC   NC367007  30.182  30.474   5.777
 5224POPC   PO467008  30.448  31.049   5.599
 5224POPC   GL167009  30.569  30.764   5.908
 5224POPC   GL267010  30.727  30.405   5.841
 5224POPC   C1A67011  30.708  30.871   6.291
 5224POPC   D2A67012  30.825  30.730   6.683
 5224POPC   C3A67013  30.680  30.990   6.961
 5224POPC   C4A67014  30.639  31.000   7.377
 5224POPC   C1B67015  30.628  30.339   6.310
 5224POPC   C2B67016  30.861  30.235   6.705
 5224POPC   C3B67017  30.752  30.211   7.158
 5224POPC   C4B67018  30.753  30.152   7.618
 5225POPC   NC367019  16.540  35.138   5.379
 5225POPC   PO467020  17.160  35.156   5.536
 5225POPC   GL167021  16.860  35.343   5.855
 5225POPC   GL267022  16.500  35.379   5.847
 5225POPC   C1A67023  16.763  35.470   6.319
 5225POPC   D2A67024  16.791  35.244   6.715
 5225POPC   C3A67025  16.691  35.366   7.141
 5225POPC   C4A67026  16.975  35.406   7.494
 5225POPC   C1B67027  16.316  35.228   6.223
 5225POPC   C2B67028  16.324  35.041   6.632
 5225POPC   C3B67029  16.197  35.153   7.056
 5225POPC   C4B67030  16.292  35.305   7.484
 5226POPC   NC367031  38.908   2.479   5.632
 5226POPC   PO467032  38.944   2.920   5.102
 5226POPC   GL167033  39.229   2.863   5.621
 5226POPC   GL267034  39.268   3.207   5.809
 5226POPC   C1A67035  39.286   2.786   6.113
 5226POPC   D2A67036  39.356   2.500   6.488
 5226POPC   C3A67037  39.071   2.560   6.853
 5226POPC   C4A67038  39.278   2.556   7.255
 5226POPC   C1B67039  39.339   3.298   6.241
 5226POPC   C2B67040  39.159   3.165   6.613
 5226POPC   C3B67041  39.287   3.001   6.983
 5226POPC   C4B67042  39.288   3.130   7.369
 5227POPC   NC367043  13.098   3.569   5.444
 5227POPC   PO467044  12.531   3.333   5.388
 5227POPC   GL167045  12.662   3.187   5.773
 5227POPC   GL267046  12.995   3.280   5.836
 5227POPC   C1A67047  12.553   3.098   6.201
 5227POPC   D2A67048  12.730   3.170   6.618
 5227POPC   C3A67049  12.676   3.520   6.898
 5227POPC   C4A67050  12.679   3.390   7.334
 5227POPC   C1B67051  12.925   3.479   6.241
 5227POPC   C2B67052  13.145   3.487   6.639
 5227POPC   C3B67053  13.169   3.640   7.065
 5227POPC   C4B67054  13.452   3.940   7.217
 5228POPC   NC367055  31.923  19.074   5.121
 5228POPC   PO467056  31.350  18.833   5.358
 5228POPC   GL167057  31.431  19.097   5.730
 5228POPC   GL267058  31.187  19.380   5.733
 5228POPC   C1A67059  31.676  19.123   6.141
 5228POPC   D2A67060  31.564  19.040   6.572
 5228POPC   C3A67061  31.698  19.259   6.941
 5228POPC   C4A67062  31.829  19.012   7.300
 5228POPC   C1B67063  31.168  19.206   6.176
 5228POPC   C2B67064  31.142  19.316   6.620
 5228POPC   C3B67065  31.206  19.205   7.067
 5228POPC   C4B67066  31.456  19.412   7.399
 5229POPC   NC367067  44.751   0.925   5.338
 5229POPC   PO467068  44.971   1.560   5.315
 5229POPC   GL167069  44.720   1.372   5.678
 5229POPC   GL267070  44.822   1.037   5.820
 5229POPC   C1A67071  44.602   1.416   6.131
 5229POPC   D2A67072  44.379   1.259   6.523
 5229POPC   C3A67073  44.650   1.243   6.875
 5229POPC   C4A67074  44.757   1.455   7.247
 5229POPC   C1B67075  44.601   0.907   6.195
 5229POPC   C2B67076  44.646   0.778   6.593
 5229POPC   C3B67077  44.778   0.738   6.993
 5229POPC   C4B67078  44.593   0.972   7.320
 5230POPC   NC367079  34.775  21.990   5.562
 5230POPC   PO467080  34.448  22.544   5.425
 5230POPC   GL167081  34.450  22.304   5.835
 5230POPC   GL267082  34.392  21.930   5.908
 5230POPC   C1A67083  34.675  22.277   6.240
 5230POPC   D2A67084  34.682  21.913   6.510
 5230POPC   C3A67085  34.452  21.889   6.874
 5230POPC   C4A67086  34.612  22.152   7.148
 5230POPC   C1B67087  34.215  22.042   6.300
 5230POPC   C2B67088  34.308  22.327   6.631
 5230POPC   C3B67089  34.173  22.359   7.036
 5230POPC   C4B67090  34.184  22.001   7.335
 5231POPC   NC367091   3.579  37.145   5.093
 5231POPC   PO467092   3.203  36.702   5.356
 5231POPC   GL167093   3.420  36.952   5.709
 5231POPC   GL267094   3.807  37.039   5.677
 5231POPC   C1A67095   3.280  37.004   6.154
 5231POPC   D2A67096   3.343  36.814   6.541
 5231POPC   C3A67097   3.322  37.013   6.917
 5231POPC   C4A67098   3.591  36.768   7.198
 5231POPC   C1B67099   3.694  37.298   6.046
 5231POPC   C2B67100   3.738  37.142   6.444
 5231POPC   C3B67101   3.814  37.089   6.854
 5231POPC   C4B67102   3.711  37.278   7.219
 5232POPC   NC367103  28.913  17.782   5.668
 5232POPC   PO467104  28.264  17.487   5.498
 5232POPC   GL167105  28.342  17.507   5.896
 5232POPC   GL267106  28.683  17.472   5.979
 5232POPC   C1A67107  28.297  17.446   6.315
 5232POPC   D2A67108  27.977  17.482   6.567
 5232POPC   C3A67109  28.229  17.579   6.888
 5232POPC   C4A67110  28.144  17.374   7.204
 5232POPC   C1B67111  28.770  17.175   6.283
 5232POPC   C2B67112  28.597  16.996   6.651
 5232POPC   C3B67113  28.628  17.138   7.056
 5232POPC   C4B67114  28.620  17.534   7.232
 5233POPC   NC367115  44.961  30.128   5.219
 5233POPC   PO467116  44.405  29.671   5.284
 5233POPC   GL167117  44.614  29.797   5.679
 5233POPC   GL267118  44.778  29.498   5.805
 5233POPC   C1A67119  44.588  29.852   6.149
 5233POPC   D2A67120  44.577  30.182   6.480
 5233POPC   C3A67121  44.562  29.959   6.859
 5233POPC   C4A67122  44.593  29.972   7.249
 5233POPC   C1B67123   0.027  29.567   6.201
 5233POPC   C2B67124  44.954  29.768   6.604
 5233POPC   C3B67125   0.037  29.683   7.059
 5233POPC   C4B67126  44.888  29.615   7.515
 5234POPC   NC367127  40.612  42.018   5.347
 5234POPC   PO467128  41.151  42.534   5.334
 5234POPC   GL167129  41.002  42.541   5.748
 5234POPC   GL267130  40.820  42.222   5.782
 5234POPC   C1A67131  41.162  42.352   6.136
 5234POPC   D2A67132  40.963  42.181   6.506
 5234POPC   C3A67133  41.013  42.368   6.924
 5234POPC   C4A67134  40.931  42.106   7.281
 5234POPC   C1B67135  40.662  42.435   6.173
 5234POPC   C2B67136  40.599  42.570   6.597
 5234POPC   C3B67137  40.506  42.464   7.028
 5234POPC   C4B67138  40.498  42.317   7.448
 5235POPC   NC367139  17.219   2.562   5.438
 5235POPC   PO467140  17.932   2.428   5.531
 5235POPC   GL167141  17.712   2.614   5.928
 5235POPC   GL267142  17.401   2.846   5.846
 5235POPC   C1A67143  17.654   2.439   6.382
 5235POPC   D2A67144  17.318   2.294   6.687
 5235POPC   C3A67145  17.306   2.430   7.136
 5235POPC   C4A67146  17.442   2.653   7.562
 5235POPC   C1B67147  17.331   2.817   6.296
 5235POPC   C2B67148  17.437   2.827   6.755
 5235POPC   C3B67149  17.240   2.926   7.179
 5235POPC   C4B67150  17.155   3.058   7.652
 5236POPC   NC367151   2.664  27.195   5.496
 5236POPC   PO467152   2.500  26.642   5.367
 5236POPC   GL167153   2.846  26.755   5.732
 5236POPC   GL267154   2.974  27.115   5.872
 5236POPC   C1A67155   2.950  26.741   6.206
 5236POPC   D2A67156   2.705  26.781   6.573
 5236POPC   C3A67157   2.900  26.896   6.950
 5236POPC   C4A67158   2.990  26.756   7.351
 5236POPC   C1B67159   2.570  27.102   6.154
 5236POPC   C2B67160   2.278  27.073   6.535
 5236POPC   C3B67161   2.410  27.024   6.959
 5236POPC   C4B67162   2.673  27.167   7.324
 5237POPC   NC367163  23.879  16.512   5.497
 5237POPC   PO467164  23.596  17.164   5.566
 5237POPC   GL167165  23.711  16.845   5.869
 5237POPC   GL267166  23.417  16.597   5.893
 5237POPC   C1A67167  24.038  16.854   6.212
 5237POPC   D2A67168  24.066  16.679   6.646
 5237POPC   C3A67169  23.973  16.952   7.017
 5237POPC   C4A67170  23.884  16.809   7.453
 5237POPC   C1B67171  23.564  16.668   6.328
 5237POPC   C2B67172  23.557  16.745   6.750
 5237POPC   C3B67173  23.682  16.510   7.095
 5237POPC   C4B67174  23.453  16.540   7.484
 5238POPC   NC367175   4.585  31.785   5.507
 5238POPC   PO467176   3.976  31.688   5.165
 5238POPC   GL167177   4.090  31.629   5.585
 5238POPC   GL267178   4.117  31.265   5.681
 5238POPC   C1A67179   4.092  31.672   6.032
 5238POPC   D2A67180   4.045  31.473   6.452
 5238POPC   C3A67181   4.169  31.600   6.874
 5238POPC   C4A67182   4.478  31.741   7.133
 5238POPC   C1B67183   4.300  31.167   6.114
 5238POPC   C2B67184   4.480  31.234   6.556
 5238POPC   C3B67185   4.335  31.111   6.976
 5238POPC   C4B67186   4.660  30.936   7.195
 5239POPC   NC367187  33.894  35.569   5.452
 5239POPC   PO467188  33.433  35.069   5.458
 5239POPC   GL167189  33.559  35.310   5.830
 5239POPC   GL267190  33.925  35.273   5.877
 5239POPC   C1A67191  33.643  35.242   6.296
 5239POPC   D2A67192  33.884  35.373   6.681
 5239POPC   C3A67193  33.729  35.142   7.058
 5239POPC   C4A67194  33.340  35.124   7.295
 5239POPC   C1B67195  34.088  35.583   6.195
 5239POPC   C2B67196  34.209  35.835   6.573
 5239POPC   C3B67197  34.159  35.765   6.998
 5239POPC   C4B67198  34.037  35.484   7.291
 5240POPC   NC367199  16.249  32.350   5.415
 5240POPC   PO467200  15.722  31.937   5.411
 5240POPC   GL167201  15.951  31.994   5.760
 5240POPC   GL267202  15.899  32.331   5.821
 5240POPC   C1A67203  15.834  31.957   6.193
 5240POPC   D2A67204  15.801  31.775   6.599
 5240POPC   C3A67205  15.693  32.103   6.900
 5240POPC   C4A67206  15.812  32.131   7.331
 5240POPC   C1B67207  16.060  32.476   6.210
 5240POPC   C2B67208  15.933  32.499   6.638
 5240POPC   C3B67209  16.022  32.504   7.075
 5240POPC   C4B67210  15.966  32.563   7.579
 5241POPC   NC367211  28.175  38.235   5.374
 5241POPC   PO467212  28.548  38.774   5.283
 5241POPC   GL167213  28.494  38.549   5.700
 5241POPC   GL267214  28.165  38.443   5.844
 5241POPC   C1A67215  28.683  38.416   6.106
 5241POPC   D2A67216  28.795  38.215   6.492
 5241POPC   C3A67217  28.494  38.318   6.783
 5241POPC   C4A67218  28.545  38.471   7.175
 5241POPC   C1B67219  27.988  38.194   6.198
 5241POPC   C2B67220  27.954  37.997   6.611
 5241POPC   C3B67221  28.030  38.230   7.000
 5241POPC   C4B67222  28.074  38.662   7.152
 5242POPC   NC367223   1.393  29.455   5.344
 5242POPC   PO467224   0.999  28.894   5.254
 5242POPC   GL167225   1.107  28.751   5.639
 5242POPC   GL267226   1.451  28.860   5.655
 5242POPC   C1A67227   1.066  28.679   6.075
 5242POPC   D2A67228   1.041  28.980   6.410
 5242POPC   C3A67229   1.098  28.885   6.855
 5242POPC   C4A67230   0.890  29.040   7.215
 5242POPC   C1B67231   1.399  29.100   6.033
 5242POPC   C2B67232   1.471  29.248   6.462
 5242POPC   C3B67233   1.488  29.225   6.878
 5242POPC   C4B67234   1.490  29.452   7.240
 5243POPC   NC367235  17.147  42.280   5.458
 5243POPC   PO467236  17.638  42.650   5.294
 5243POPC   GL167237  17.514  42.585   5.717
 5243POPC   GL267238  17.199  42.688   5.826
 5243POPC   C1A67239  17.674  42.565   6.153
 5243POPC   D2A67240  17.486  42.530   6.577
 5243POPC   C3A67241  17.706  42.497   6.974
 5243POPC   C4A67242  17.974  42.592   7.309
 5243POPC   C1B67243  17.195  42.380   6.177
 5243POPC   C2B67244  17.097  42.213   6.630
 5243POPC   C3B67245  17.337  42.155   7.058
 5243POPC   C4B67246  17.284  41.982   7.494
 5244POPC   NC367247  10.773  26.320   5.080
 5244POPC   PO467248  10.281  25.943   5.399
 5244POPC   GL167249  10.657  25.974   5.704
 5244POPC   GL267250  10.746  26.304   5.740
 5244POPC   C1A67251  10.653  26.057   6.168
 5244POPC   D2A67252  10.346  26.079   6.477
 5244POPC   C3A67253  10.419  26.124   6.917
 5244POPC   C4A67254  10.232  25.947   7.279
 5244POPC   C1B67255  10.939  26.468   6.194
 5244POPC   C2B67256  10.812  26.350   6.661
 5244POPC   C3B67257  10.838  26.307   7.164
 5244POPC   C4B67258  10.688  25.985   7.462
 5245POPC   NC367259  12.239  25.842   5.167
 5245POPC   PO467260  12.939  25.956   5.275
 5245POPC   GL167261  12.741  26.009   5.728
 5245POPC   GL267262  12.546  26.355   5.776
 5245POPC   C1A67263  12.846  25.799   6.144
 5245POPC   D2A67264  13.135  25.680   6.498
 5245POPC   C3A67265  13.139  25.842   6.910
 5245POPC   C4A67266  12.841  25.825   7.238
 5245POPC   C1B67267  12.769  26.323   6.171
 5245POPC   C2B67268  12.830  26.112   6.551
 5245POPC   C3B67269  12.866  26.272   6.926
 5245POPC   C4B67270  12.673  26.339   7.248
 5246POPC   NC367271  30.357  42.048   5.560
 5246POPC   PO467272  30.950  42.243   5.466
 5246POPC   GL167273  30.706  42.323   5.822
 5246POPC   GL267274  30.640  42.048   5.970
 5246POPC   C1A67275  30.451  42.447   6.184
 5246POPC   D2A67276  30.347  42.363   6.609
 5246POPC   C3A67277  30.477  42.116   6.993
 5246POPC   C4A67278  30.467  42.333   7.418
 5246POPC   C1B67279  30.631  41.976   6.367
 5246POPC   C2B67280  30.859  42.224   6.606
 5246POPC   C3B67281  30.902  42.394   6.978
 5246POPC   C4B67282  30.976  42.265   7.368
 5247POPC   NC367283   0.336  22.706   5.502
 5247POPC   PO467284   0.805  23.263   5.401
 5247POPC   GL167285   0.678  23.090   5.783
 5247POPC   GL267286   0.682  22.722   5.875
 5247POPC   C1A67287   0.591  23.116   6.212
 5247POPC   D2A67288   0.515  22.846   6.572
 5247POPC   C3A67289   0.270  22.970   6.922
 5247POPC   C4A67290   0.225  22.630   7.158
 5247POPC   C1B67291   0.819  22.523   6.256
 5247POPC   C2B67292   0.932  22.539   6.673
 5247POPC   C3B67293   0.724  22.693   7.033
 5247POPC   C4B67294   0.673  22.654   7.498
 5248POPC   NC367295  16.960  31.827   5.336
 5248POPC   PO467296  16.517  31.339   5.310
 5248POPC   GL167297  16.631  31.446   5.761
 5248POPC   GL267298  16.945  31.600   5.793
 5248POPC   C1A67299  16.655  31.613   6.197
 5248POPC   D2A67300  16.828  31.457   6.567
 5248POPC   C3A67301  16.664  31.568   6.936
 5248POPC   C4A67302  16.574  31.817   7.271
 5248POPC   C1B67303  17.175  31.451   6.165
 5248POPC   C2B67304  17.301  31.661   6.551
 5248POPC   C3B67305  17.206  31.492   6.935
 5248POPC   C4B67306  17.016  31.545   7.333
 5249POPC   NC367307  10.339  20.806   5.085
 5249POPC   PO467308  10.598  20.353   5.526
 5249POPC   GL167309  10.559  20.451   5.960
 5249POPC   GL267310  10.663  20.827   5.938
 5249POPC   C1A67311  10.123  20.453   6.194
 5249POPC   D2A67312   9.944  20.409   6.614
 5249POPC   C3A67313  10.188  20.703   6.927
 5249POPC   C4A67314  10.548  20.590   7.191
 5249POPC   C1B67315  10.505  20.760   6.345
 5249POPC   C2B67316  10.678  20.723   6.696
 5249POPC   C3B67317  10.715  21.010   6.978
 5249POPC   C4B67318  10.428  21.100   7.251
 5250POPC   NC367319  32.534  18.629   5.421
 5250POPC   PO467320  32.025  18.251   5.240
 5250POPC   GL167321  32.099  18.325   5.681
 5250POPC   GL267322  32.421  18.262   5.772
 5250POPC   C1A67323  32.023  18.375   6.138
 5250POPC   D2A67324  32.271  18.355   6.545
 5250POPC   C3A67325  32.131  18.336   6.955
 5250POPC   C4A67326  32.168  18.283   7.394
 5250POPC   C1B67327  32.503  18.075   6.167
 5250POPC   C2B67328  32.478  17.877   6.572
 5250POPC   C3B67329  32.560  18.055   6.998
 5250POPC   C4B67330  32.509  17.825   7.387
 5251POPC   NC367331  28.798  29.697   5.686
 5251POPC   PO467332  29.164  30.115   5.309
 5251POPC   GL167333  29.254  29.951   5.795
 5251POPC   GL267334  29.321  29.632   5.759
 5251POPC   C1A67335  29.157  29.962   6.271
 5251POPC   D2A67336  29.258  30.167   6.682
 5251POPC   C3A67337  29.054  29.982   7.049
 5251POPC   C4A67338  29.003  30.202   7.481
 5251POPC   C1B67339  29.490  29.550   6.191
 5251POPC   C2B67340  29.279  29.479   6.611
 5251POPC   C3B67341  29.463  29.585   7.039
 5251POPC   C4B67342  29.297  29.771   7.446
 5252POPC   NC367343  25.369   6.835   5.343
 5252POPC   PO467344  25.047   6.237   5.568
 5252POPC   GL167345  25.196   6.664   5.786
 5252POPC   GL267346  25.592   6.769   5.812
 5252POPC   C1A67347  25.271   6.856   6.205
 5252POPC   D2A67348  25.018   6.917   6.587
 5252POPC   C3A67349  25.089   6.615   6.876
 5252POPC   C4A67350  25.348   6.609   7.212
 5252POPC   C1B67351  25.509   6.393   6.082
 5252POPC   C2B67352  25.283   6.336   6.464
 5252POPC   C3B67353  25.422   6.235   6.882
 5252POPC   C4B67354  25.724   6.280   7.210
 5253POPC   NC367355   4.620  18.534   5.098
 5253POPC   PO467356   4.105  18.229   5.487
 5253POPC   GL167357   4.077  18.414   5.881
 5253POPC   GL267358   4.304  18.170   5.972
 5253POPC   C1A67359   4.392  18.584   6.214
 5253POPC   D2A67360   4.500  18.263   6.515
 5253POPC   C3A67361   4.180  18.214   6.831
 5253POPC   C4A67362   4.256  18.245   7.266
 5253POPC   C1B67363   4.033  18.050   6.315
 5253POPC   C2B67364   4.047  17.758   6.676
 5253POPC   C3B67365   4.198  17.763   7.116
 5253POPC   C4B67366   4.143  17.889   7.606
 5254POPC   NC367367   8.632   9.078   5.434
 5254POPC   PO467368   9.244   8.774   5.369
 5254POPC   GL167369   9.195   9.044   5.736
 5254POPC   GL267370   9.267   8.731   5.896
 5254POPC   C1A67371   9.035   9.067   6.203
 5254POPC   D2A67372   9.068   8.976   6.664
 5254POPC   C3A67373   8.699   8.987   6.956
 5254POPC   C4A67374   8.657   8.875   7.369
 5254POPC   C1B67375   9.535   8.540   6.226
 5254POPC   C2B67376   9.403   8.423   6.644
 5254POPC   C3B67377   9.368   8.704   6.987
 5254POPC   C4B67378   9.139   9.004   7.215
 5255POPC   NC367379  33.621   8.122   5.139
 5255POPC   PO467380  34.194   8.415   5.317
 5255POPC   GL167381  33.864   8.431   5.648
 5255POPC   GL267382  33.686   8.110   5.666
 5255POPC   C1A67383  33.612   8.466   6.038
 5255POPC   D2A67384  33.671   8.341   6.476
 5255POPC   C3A67385  33.555   8.242   6.907
 5255POPC   C4A67386  33.700   8.395   7.328
 5255POPC   C1B67387  33.651   7.952   6.105
 5255POPC   C2B67388  33.546   7.838   6.534
 5255POPC   C3B67389  33.501   7.690   6.955
 5255POPC   C4B67390  33.612   7.897   7.328
 5256POPC   NC367391  10.956  15.280   5.351
 5256POPC   PO467392  11.508  14.914   5.540
 5256POPC   GL167393  11.407  15.238   5.847
 5256POPC   GL267394  11.116  15.413   5.824
 5256POPC   C1A67395  11.578  15.508   6.151
 5256POPC   D2A67396  11.431  15.313   6.495
 5256POPC   C3A67397  11.418  15.360   6.946
 5256POPC   C4A67398  11.438  15.167   7.390
 5256POPC   C1B67399  11.105  15.661   6.204
 5256POPC   C2B67400  11.189  15.757   6.626
 5256POPC   C3B67401  10.963  15.697   7.013
 5256POPC   C4B67402  10.981  15.394   7.357
 5257POPC   NC367403  42.947  22.693   5.460
 5257POPC   PO467404  43.248  23.222   5.152
 5257POPC   GL167405  43.215  23.091   5.670
 5257POPC   GL267406  43.061  22.782   5.926
 5257POPC   C1A67407  43.064  23.274   6.081
 5257POPC   D2A67408  42.946  23.219   6.522
 5257POPC   C3A67409  43.217  22.951   6.814
 5257POPC   C4A67410  43.340  22.939   7.232
 5257POPC   C1B67411  42.768  22.575   6.232
 5257POPC   C2B67412  42.588  22.848   6.559
 5257POPC   C3B67413  42.723  23.005   6.942
 5257POPC   C4B67414  42.895  22.683   7.156
 5258POPC   NC367415   5.703   0.146   4.984
 5258POPC   PO467416   5.455   0.411   5.545
 5258POPC   GL167417   5.722   0.266   5.856
 5258POPC   GL267418   6.105   0.358   5.875
 5258POPC   C1A67419   5.802   0.340   6.284
 5258POPC   D2A67420   6.150   0.228   6.567
 5258POPC   C3A67421   5.966   0.302   6.981
 5258POPC   C4A67422   5.732   0.175   7.354
 5258POPC   C1B67423   6.149   0.692   6.236
 5258POPC   C2B67424   6.132   0.744   6.695
 5258POPC   C3B67425   6.001   0.790   7.144
 5258POPC   C4B67426   6.044   0.866   7.622
 5259POPC   NC367427  11.246  38.749   5.529
 5259POPC   PO467428  10.860  38.311   5.197
 5259POPC   GL167429  11.047  38.292   5.642
 5259POPC   GL267430  11.398  38.303   5.718
 5259POPC   C1A67431  11.076  38.475   6.101
 5259POPC   D2A67432  11.201  38.749   6.482
 5259POPC   C3A67433  11.163  38.561   6.908
 5259POPC   C4A67434  11.042  38.258   7.234
 5259POPC   C1B67435  11.575  38.503   6.108
 5259POPC   C2B67436  11.597  38.395   6.547
 5259POPC   C3B67437  11.654  38.457   6.997
 5259POPC   C4B67438  11.474  38.499   7.418
 5260POPC   NC367439  33.038  20.138   5.030
 5260POPC   PO467440  33.178  19.608   5.469
 5260POPC   GL167441  33.115  19.879   5.798
 5260POPC   GL267442  32.847  20.019   5.643
 5260POPC   C1A67443  33.003  19.741   6.243
 5260POPC   D2A67444  33.296  19.681   6.574
 5260POPC   C3A67445  33.025  19.804   6.894
 5260POPC   C4A67446  33.009  19.520   7.199
 5260POPC   C1B67447  32.848  20.222   6.081
 5260POPC   C2B67448  32.641  20.079   6.473
 5260POPC   C3B67449  32.692  20.206   6.911
 5260POPC   C4B67450  32.711  20.052   7.337
 5261POPC   NC367451  33.999  22.617   5.497
 5261POPC   PO467452  33.711  23.207   5.555
 5261POPC   GL167453  33.955  23.119   5.890
 5261POPC   GL267454  33.786  22.822   5.921
 5261POPC   C1A67455  34.022  22.954   6.330
 5261POPC   D2A67456  33.854  23.083   6.699
 5261POPC   C3A67457  33.860  22.767   7.014
 5261POPC   C4A67458  33.947  22.814   7.445
 5261POPC   C1B67459  33.541  23.174   6.185
 5261POPC   C2B67460  33.280  23.225   6.557
 5261POPC   C3B67461  33.446  23.237   6.963
 5261POPC   C4B67462  33.500  22.989   7.283
 5262POPC   NC367463  37.806  12.513   5.445
 5262POPC   PO467464  37.617  11.915   5.158
 5262POPC   GL167465  37.512  11.959   5.600
 5262POPC   GL267466  37.845  12.069   5.745
 5262POPC   C1A67467  37.441  11.857   6.050
 5262POPC   D2A67468  37.660  11.899   6.461
 5262POPC   C3A67469  37.503  11.985   6.898
 5262POPC   C4A67470  37.883  11.968   7.149
 5262POPC   C1B67471  37.802  12.340   6.136
 5262POPC   C2B67472  38.048  12.466   6.508
 5262POPC   C3B67473  37.950  12.461   6.921
 5262POPC   C4B67474  37.667  12.416   7.238
 5263POPC   NC367475   8.823   6.949   5.362
 5263POPC   PO467476   9.077   6.339   5.471
 5263POPC   GL167477   8.966   6.667   5.753
 5263POPC   GL267478   8.651   6.827   5.812
 5263POPC   C1A67479   9.038   6.774   6.172
 5263POPC   D2A67480   9.060   6.523   6.542
 5263POPC   C3A67481   9.103   6.703   6.962
 5263POPC   C4A67482   9.038   6.368   7.257
 5263POPC   C1B67483   8.633   6.495   6.087
 5263POPC   C2B67484   8.588   6.665   6.478
 5263POPC   C3B67485   8.582   6.764   6.906
 5263POPC   C4B67486   8.742   6.764   7.317
 5264POPC   NC367487  35.239  24.722   5.474
 5264POPC   PO467488  35.706  25.205   5.304
 5264POPC   GL167489  35.413  25.185   5.735
 5264POPC   GL267490  35.061  25.334   5.804
 5264POPC   C1A67491  35.398  25.374   6.179
 5264POPC   D2A67492  35.508  25.237   6.608
 5264POPC   C3A67493  35.567  25.418   7.005
 5264POPC   C4A67494  35.418  25.244   7.389
 5264POPC   C1B67495  35.094  24.968   6.096
 5264POPC   C2B67496  35.120  24.889   6.541
 5264POPC   C3B67497  35.154  25.025   6.963
 5264POPC   C4B67498  35.020  24.900   7.367
 5265POPC   NC367499  12.163  26.727   5.337
 5265POPC   PO467500  11.554  26.546   5.561
 5265POPC   GL167501  11.862  26.858   5.765
 5265POPC   GL267502  12.208  26.753   5.860
 5265POPC   C1A67503  11.925  27.088   6.160
 5265POPC   D2A67504  12.170  26.891   6.484
 5265POPC   C3A67505  12.080  27.018   6.887
 5265POPC   C4A67506  12.093  26.828   7.257
 5265POPC   C1B67507  12.273  26.465   6.209
 5265POPC   C2B67508  12.422  26.442   6.642
 5265POPC   C3B67509  12.228  26.395   7.043
 5265POPC   C4B67510  12.291  26.457   7.547
 5266POPC   NC367511  28.805  10.556   5.543
 5266POPC   PO467512  29.536  10.279   5.537
 5266POPC   GL167513  29.213  10.330   5.816
 5266POPC   GL267514  28.950  10.101   5.784
 5266POPC   C1A67515  29.202  10.570   6.196
 5266POPC   D2A67516  29.451  10.784   6.520
 5266POPC   C3A67517  29.151  10.814   6.856
 5266POPC   C4A67518  29.094  10.552   7.220
 5266POPC   C1B67519  28.759  10.265   6.165
 5266POPC   C2B67520  28.747  10.468   6.576
 5266POPC   C3B67521  28.628  10.401   7.011
 5266POPC   C4B67522  28.685  10.349   7.465
 5267POPC   NC367523  44.945  42.940   5.508
 5267POPC   PO467524  44.316  43.202   5.535
 5267POPC   GL167525  44.493  42.938   5.809
 5267POPC   GL267526  44.730  43.211   5.887
 5267POPC   C1A67527  44.532  42.894   6.254
 5267POPC   D2A67528  44.657  43.254   6.511
 5267POPC   C3A67529  44.510  43.281   6.940
 5267POPC   C4A67530  44.542  43.467   7.347
 5267POPC   C1B67531   0.042  43.034   6.153
 5267POPC   C2B67532   0.163  43.179   6.536
 5267POPC   C3B67533   0.038  43.372   6.898
 5267POPC   C4B67534  44.914  43.097   7.188
 5268POPC   NC367535   7.307  18.816   5.306
 5268POPC   PO467536   7.191  18.088   5.375
 5268POPC   GL167537   7.324  18.261   5.775
 5268POPC   GL267538   7.672  18.400   5.835
 5268POPC   C1A67539   7.291  18.297   6.234
 5268POPC   D2A67540   7.129  18.434   6.650
 5268POPC   C3A67541   7.430  18.317   6.985
 5268POPC   C4A67542   7.483  18.173   7.435
 5268POPC   C1B67543   7.775  18.132   6.221
 5268POPC   C2B67544   7.808  18.086   6.688
 5268POPC   C3B67545   7.905  18.191   7.123
 5268POPC   C4B67546   7.991  18.012   7.539
 5269POPC   NC367547   9.969  28.981   5.507
 5269POPC   PO467548   9.279  29.143   5.443
 5269POPC   GL167549   9.537  28.970   5.779
 5269POPC   GL267550   9.532  28.635   5.809
 5269POPC   C1A67551   9.747  29.040   6.206
 5269POPC   D2A67552   9.749  29.217   6.648
 5269POPC   C3A67553   9.721  29.070   7.085
 5269POPC   C4A67554   9.985  28.903   7.393
 5269POPC   C1B67555   9.417  28.656   6.197
 5269POPC   C2B67556   9.567  28.656   6.582
 5269POPC   C3B67557   9.353  28.763   6.933
 5269POPC   C4B67558   9.494  28.645   7.347
 5270POPC   NC367559  11.398   6.462   5.445
 5270POPC   PO467560  10.933   6.909   5.341
 5270POPC   GL167561  11.157   6.865   5.769
 5270POPC   GL267562  11.193   6.518   5.891
 5270POPC   C1A67563  11.230   6.988   6.201
 5270POPC   D2A67564  11.138   6.834   6.652
 5270POPC   C3A67565  11.111   7.063   7.070
 5270POPC   C4A67566  11.184   6.789   7.447
 5270POPC   C1B67567  11.377   6.522   6.307
 5270POPC   C2B67568  11.556   6.546   6.742
 5270POPC   C3B67569  11.573   6.510   7.207
 5270POPC   C4B67570  11.524   6.363   7.660
 5271POPC   NC367571  13.664  29.526   5.509
 5271POPC   PO467572  13.252  30.038   5.411
 5271POPC   GL167573  13.333  29.890   5.761
 5271POPC   GL267574  13.215  29.551   5.765
 5271POPC   C1A67575  13.417  30.156   6.118
 5271POPC   D2A67576  13.633  30.195   6.522
 5271POPC   C3A67577  13.451  30.207   6.932
 5271POPC   C4A67578  13.774  30.127   7.220
 5271POPC   C1B67579  13.503  29.643   6.174
 5271POPC   C2B67580  13.750  29.653   6.584
 5271POPC   C3B67581  13.676  29.647   7.038
 5271POPC   C4B67582  13.544  29.411   7.424
 5272POPC   NC367583  43.012   5.303   5.306
 5272POPC   PO467584  43.221   4.762   5.740
 5272POPC   GL167585  43.028   5.136   5.783
 5272POPC   GL267586  43.284   5.381   5.781
 5272POPC   C1A67587  42.807   5.281   6.122
 5272POPC   D2A67588  42.777   5.019   6.511
 5272POPC   C3A67589  42.823   5.150   6.950
 5272POPC   C4A67590  42.781   4.863   7.297
 5272POPC   C1B67591  43.299   5.225   6.223
 5272POPC   C2B67592  43.211   5.279   6.644
 5272POPC   C3B67593  43.428   5.173   7.024
 5272POPC   C4B67594  43.605   5.247   7.458
 5273POPC   NC367595  35.202  29.462   5.475
 5273POPC   PO467596  35.672  29.027   5.387
 5273POPC   GL167597  35.575  29.155   5.764
 5273POPC   GL267598  35.727  28.845   5.876
 5273POPC   C1A67599  35.370  29.358   6.125
 5273POPC   D2A67600  35.196  29.193   6.546
 5273POPC   C3A67601  35.205  29.422   6.931
 5273POPC   C4A67602  35.469  29.637   7.226
 5273POPC   C1B67603  35.463  28.861   6.205
 5273POPC   C2B67604  35.503  28.770   6.606
 5273POPC   C3B67605  35.563  29.036   6.952
 5273POPC   C4B67606  35.220  28.990   7.197
 5274POPC   NC367607  32.428  11.039   5.458
 5274POPC   PO467608  31.817  10.893   5.482
 5274POPC   GL167609  32.021  11.260   5.759
 5274POPC   GL267610  32.268  11.573   5.769
 5274POPC   C1A67611  32.130  11.307   6.196
 5274POPC   D2A67612  32.283  11.020   6.469
 5274POPC   C3A67613  32.304  11.167   6.855
 5274POPC   C4A67614  32.164  10.943   7.206
 5274POPC   C1B67615  32.562  11.556   6.152
 5274POPC   C2B67616  32.417  11.641   6.579
 5274POPC   C3B67617  32.541  11.593   7.000
 5274POPC   C4B67618  32.599  11.264   7.286
 5275POPC   NC367619  39.504  44.554   5.528
 5275POPC   PO467620  38.916  44.806   5.333
 5275POPC   GL167621  39.086  44.817   5.772
 5275POPC   GL267622  38.939   0.126   5.879
 5275POPC   C1A67623  39.231  44.620   6.164
 5275POPC   D2A67624  39.159  44.245   6.425
 5275POPC   C3A67625  39.229  44.346   6.854
 5275POPC   C4A67626  39.047  44.356   7.269
 5275POPC   C1B67627  38.777  44.887   6.217
 5275POPC   C2B67628  39.003  44.769   6.603
 5275POPC   C3B67629  39.052  44.812   7.035
 5275POPC   C4B67630  39.310  44.779   7.415
 5276POPC   NC367631   0.488  20.947   5.427
 5276POPC   PO467632   0.749  20.354   5.508
 5276POPC   GL167633   0.361  20.503   5.674
 5276POPC   GL267634   0.553  20.720   5.878
 5276POPC   C1A67635   0.115  20.536   6.056
 5276POPC   D2A67636   0.260  20.561   6.475
 5276POPC   C3A67637   0.139  20.590   6.882
 5276POPC   C4A67638   0.310  20.536   7.300
 5276POPC   C1B67639   0.593  20.354   6.147
 5276POPC   C2B67640   0.604  20.203   6.588
 5276POPC   C3B67641   0.689  20.372   7.002
 5276POPC   C4B67642   0.782  20.645   7.383
 5277POPC   NC367643  39.378  35.545   5.413
 5277POPC   PO467644  38.948  35.028   5.379
 5277POPC   GL167645  39.059  35.211   5.762
 5277POPC   GL267646  38.971  35.552   5.806
 5277POPC   C1A67647  38.958  35.205   6.194
 5277POPC   D2A67648  38.815  35.359   6.563
 5277POPC   C3A67649  39.061  35.254   6.906
 5277POPC   C4A67650  39.305  34.970   7.157
 5277POPC   C1B67651  39.085  35.718   6.208
 5277POPC   C2B67652  39.240  35.650   6.593
 5277POPC   C3B67653  39.335  35.885   6.962
 5277POPC   C4B67654  39.327  35.615   7.267
 5278POPC   NC367655   9.552  30.799   5.416
 5278POPC   PO467656   9.434  30.333   5.821
 5278POPC   GL167657   9.684  30.700   5.907
 5278POPC   GL267658  10.019  30.569   5.816
 5278POPC   C1A67659   9.742  31.012   6.228
 5278POPC   D2A67660   9.873  30.945   6.670
 5278POPC   C3A67661   9.597  30.680   6.936
 5278POPC   C4A67662   9.504  30.708   7.371
 5278POPC   C1B67663  10.089  30.569   6.279
 5278POPC   C2B67664  10.173  30.520   6.739
 5278POPC   C3B67665  10.046  30.544   7.196
 5278POPC   C4B67666  10.056  30.320   7.606
 5279POPC   NC367667   9.957  21.644   5.473
 5279POPC   PO467668  10.053  21.012   5.374
 5279POPC   GL167669   9.925  21.232   5.765
 5279POPC   GL267670   9.585  21.422   5.728
 5279POPC   C1A67671   9.887  21.435   6.168
 5279POPC   D2A67672  10.040  21.328   6.561
 5279POPC   C3A67673   9.897  21.391   6.989
 5279POPC   C4A67674   9.960  21.217   7.412
 5279POPC   C1B67675   9.433  21.623   6.120
 5279POPC   C2B67676   9.654  21.740   6.506
 5279POPC   C3B67677   9.560  21.790   6.938
 5279POPC   C4B67678   9.496  21.551   7.295
 5280POPC   NC367679  23.949   3.736   5.588
 5280POPC   PO467680  24.466   3.491   5.176
 5280POPC   GL167681  24.455   3.410   5.622
 5280POPC   GL267682  24.502   3.733   5.755
 5280POPC   C1A67683  24.497   3.355   6.102
 5280POPC   D2A67684  24.442   3.516   6.570
 5280POPC   C3A67685  24.689   3.332   6.969
 5280POPC   C4A67686  24.573   3.132   7.391
 5280POPC   C1B67687  24.504   3.878   6.168
 5280POPC   C2B67688  24.233   4.071   6.463
 5280POPC   C3B67689  24.406   3.949   6.841
 5280POPC   C4B67690  24.633   3.825   7.185
 5281POPC   NC367691  15.875  44.960   5.373
 5281POPC   PO467692  16.252  44.543   5.500
 5281POPC   GL167693  16.062  44.398   5.852
 5281POPC   GL267694  15.971  44.753   5.900
 5281POPC   C1A67695  15.940  44.346   6.300
 5281POPC   D2A67696  16.059  44.431   6.737
 5281POPC   C3A67697  16.111  44.771   7.048
 5281POPC   C4A67698  16.068  44.557   7.438
 5281POPC   C1B67699  15.674  44.800   6.243
 5281POPC   C2B67700  15.736  44.937   6.668
 5281POPC   C3B67701  15.553   0.096   7.026
 5281POPC   C4B67702  15.719  44.931   7.377
 5282POPC   NC367703  24.114   3.816   5.100
 5282POPC   PO467704  23.632   3.400   5.499
 5282POPC   GL167705  23.698   3.406   5.897
 5282POPC   GL267706  24.026   3.309   5.895
 5282POPC   C1A67707  23.512   3.569   6.268
 5282POPC   D2A67708  23.485   3.375   6.650
 5282POPC   C3A67709  23.462   3.616   6.977
 5282POPC   C4A67710  23.626   3.701   7.408
 5282POPC   C1B67711  24.039   3.601   6.249
 5282POPC   C2B67712  23.874   3.745   6.644
 5282POPC   C3B67713  23.989   3.769   7.053
 5282POPC   C4B67714  24.267   3.488   7.189
 5283POPC   NC367715  28.532  14.782   5.641
 5283POPC   PO467716  28.423  14.091   5.338
 5283POPC   GL167717  28.266  14.382   5.713
 5283POPC   GL267718  28.539  14.293   5.915
 5283POPC   C1A67719  28.157  14.473   6.205
 5283POPC   D2A67720  28.361  14.259   6.584
 5283POPC   C3A67721  28.191  14.332   7.014
 5283POPC   C4A67722  28.071  14.004   7.299
 5283POPC   C1B67723  28.813  14.055   6.198
 5283POPC   C2B67724  28.899  14.250   6.595
 5283POPC   C3B67725  28.666  14.496   6.920
 5283POPC   C4B67726  28.604  14.778   7.269
 5284POPC   NC367727  23.519  27.028   5.502
 5284POPC   PO467728  24.033  26.654   5.455
 5284POPC   GL167729  23.950  26.916   5.830
 5284POPC   GL267730  23.606  26.783   5.932
 5284POPC   C1A67731  23.896  26.926   6.301
 5284POPC   D2A67732  23.612  26.837   6.625
 5284POPC   C3A67733  23.872  26.952   6.984
 5284POPC   C4A67734  24.087  26.787   7.327
 5284POPC   C1B67735  23.434  27.128   6.207
 5284POPC   C2B67736  23.445  27.313   6.658
 5284POPC   C3B67737  23.383  27.043   7.046
 5284POPC   C4B67738  23.550  26.579   7.086
 5285POPC   NC367739  30.623  21.058   5.485
 5285POPC   PO467740  30.922  21.688   5.342
 5285POPC   GL167741  30.625  21.549   5.631
 5285POPC   GL267742  30.872  21.449   5.863
 5285POPC   C1A67743  30.360  21.495   5.990
 5285POPC   D2A67744  30.252  21.640   6.410
 5285POPC   C3A67745  30.479  21.487   6.794
 5285POPC   C4A67746  30.723  21.605   7.190
 5285POPC   C1B67747  30.765  21.432   6.322
 5285POPC   C2B67748  30.989  21.596   6.702
 5285POPC   C3B67749  31.212  21.438   7.057
 5285POPC   C4B67750  31.045  21.296   7.455
 5286POPC   NC367751   6.875   8.170   5.440
 5286POPC   PO467752   7.524   8.122   5.479
 5286POPC   GL167753   7.263   8.174   5.828
 5286POPC   GL267754   7.068   7.849   5.818
 5286POPC   C1A67755   7.365   8.401   6.240
 5286POPC   D2A67756   7.236   8.642   6.623
 5286POPC   C3A67757   7.396   8.431   6.969
 5286POPC   C4A67758   7.483   8.402   7.388
 5286POPC   C1B67759   7.276   7.891   6.247
 5286POPC   C2B67760   7.205   8.093   6.626
 5286POPC   C3B67761   7.145   7.970   7.044
 5286POPC   C4B67762   7.327   7.914   7.439
 5287POPC   NC367763  25.049  40.150   5.339
 5287POPC   PO467764  25.679  39.977   5.380
 5287POPC   GL167765  25.529  40.126   5.769
 5287POPC   GL267766  25.258  39.967   5.807
 5287POPC   C1A67767  25.430  40.194   6.226
 5287POPC   D2A67768  25.357  40.350   6.644
 5287POPC   C3A67769  25.486  40.102   6.985
 5287POPC   C4A67770  25.596  40.275   7.390
 5287POPC   C1B67771  25.196  39.745   6.194
 5287POPC   C2B67772  25.086  39.909   6.591
 5287POPC   C3B67773  25.092  39.728   6.979
 5287POPC   C4B67774  24.892  39.610   7.363
 5288POPC   NC367775  16.511  30.974   5.601
 5288POPC   PO467776  17.050  30.528   5.425
 5288POPC   GL167777  16.927  30.720   5.797
 5288POPC   GL267778  17.017  31.085   5.773
 5288POPC   C1A67779  16.836  30.587   6.242
 5288POPC   D2A67780  16.487  30.679   6.543
 5288POPC   C3A67781  16.667  30.631   6.967
 5288POPC   C4A67782  17.058  30.434   7.145
 5288POPC   C1B67783  16.821  31.092   6.187
 5288POPC   C2B67784  16.939  30.968   6.613
 5288POPC   C3B67785  16.870  31.105   7.026
 5288POPC   C4B67786  16.510  31.030   7.242
 5289POPC   NC367787  24.053  40.081   5.287
 5289POPC   PO467788  24.632  39.973   5.087
 5289POPC   GL167789  24.509  39.990   5.552
 5289POPC   GL267790  24.771  40.120   5.750
 5289POPC   C1A67791  24.382  39.963   6.025
 5289POPC   D2A67792  24.568  39.947   6.455
 5289POPC   C3A67793  24.341  40.090   6.806
 5289POPC   C4A67794  24.159  39.787   7.116
 5289POPC   C1B67795  24.911  40.179   6.155
 5289POPC   C2B67796  24.832  40.366   6.541
 5289POPC   C3B67797  24.944  40.297   6.972
 5289POPC   C4B67798  24.680  39.998   7.147
 5290POPC   NC367799  12.685   9.111   5.253
 5290POPC   PO467800  12.947   8.522   5.373
 5290POPC   GL167801  12.855   8.888   5.729
 5290POPC   GL267802  12.786   9.264   5.737
 5290POPC   C1A67803  12.780   9.003   6.206
 5290POPC   D2A67804  12.759   9.269   6.618
 5290POPC   C3A67805  12.827   8.988   6.996
 5290POPC   C4A67806  12.665   8.780   7.393
 5290POPC   C1B67807  13.121   9.338   6.057
 5290POPC   C2B67808  13.258   9.237   6.506
 5290POPC   C3B67809  13.243   9.308   6.962
 5290POPC   C4B67810  12.864   9.444   7.221
 5291POPC   NC367811  32.040  17.801   5.156
 5291POPC   PO467812  32.239  17.160   5.236
 5291POPC   GL167813  32.384  17.476   5.598
 5291POPC   GL267814  32.171  17.790   5.673
 5291POPC   C1A67815  32.371  17.515   6.077
 5291POPC   D2A67816  32.180  17.290   6.427
 5291POPC   C3A67817  32.363  17.261   6.851
 5291POPC   C4A67818  32.261  17.387   7.265
 5291POPC   C1B67819  32.010  17.871   6.113
 5291POPC   C2B67820  31.980  17.761   6.560
 5291POPC   C3B67821  32.129  17.796   6.973
 5291POPC   C4B67822  31.988  17.802   7.386
 5292POPC   NC367823  33.461  39.528   5.161
 5292POPC   PO467824  33.019  39.136   5.577
 5292POPC   GL167825  32.998  39.127   5.961
 5292POPC   GL267826  33.325  39.018   6.032
 5292POPC   C1A67827  32.764  39.168   6.326
 5292POPC   D2A67828  32.887  39.103   6.739
 5292POPC   C3A67829  32.957  39.403   7.063
 5292POPC   C4A67830  32.759  39.405   7.453
 5292POPC   C1B67831  33.236  39.354   6.343
 5292POPC   C2B67832  33.339  39.417   6.742
 5292POPC   C3B67833  33.411  39.145   7.084
 5292POPC   C4B67834  33.287  39.215   7.482
 5293POPC   NC367835  36.571  23.368   5.488
 5293POPC   PO467836  37.025  22.739   5.386
 5293POPC   GL167837  36.778  22.795   5.751
 5293POPC   GL267838  36.872  23.115   5.780
 5293POPC   C1A67839  36.917  22.770   6.216
 5293POPC   D2A67840  36.921  22.739   6.685
 5293POPC   C3A67841  37.165  22.991   6.993
 5293POPC   C4A67842  37.066  22.863   7.429
 5293POPC   C1B67843  36.678  23.222   6.172
 5293POPC   C2B67844  36.820  23.247   6.604
 5293POPC   C3B67845  36.721  23.230   7.056
 5293POPC   C4B67846  36.794  23.319   7.498
 5294POPC   NC367847  23.407  27.812   5.507
 5294POPC   PO467848  23.938  27.358   5.488
 5294POPC   GL167849  23.691  27.393   5.844
 5294POPC   GL267850  23.737  27.739   5.898
 5294POPC   C1A67851  23.845  27.425   6.278
 5294POPC   D2A67852  23.808  27.682   6.619
 5294POPC   C3A67853  23.882  27.507   6.999
 5294POPC   C4A67854  24.004  27.764   7.339
 5294POPC   C1B67855  23.460  27.801   6.233
 5294POPC   C2B67856  23.296  27.802   6.640
 5294POPC   C3B67857  23.511  27.883   7.029
 5294POPC   C4B67858  23.559  27.960   7.470
 5295POPC   NC367859  39.090  16.470   5.341
 5295POPC   PO467860  39.169  17.105   5.370
 5295POPC   GL167861  39.316  16.759   5.705
 5295POPC   GL267862  39.532  16.437   5.676
 5295POPC   C1A67863  39.342  16.692   6.176
 5295POPC   D2A67864  39.037  16.814   6.507
 5295POPC   C3A67865  39.154  16.748   6.934
 5295POPC   C4A67866  39.085  16.541   7.314
 5295POPC   C1B67867  39.735  16.385   6.101
 5295POPC   C2B67868  39.573  16.316   6.516
 5295POPC   C3B67869  39.723  16.283   6.941
 5295POPC   C4B67870  39.526  16.296   7.336
 5296POPC   NC367871  36.372  15.622   5.303
 5296POPC   PO467872  35.828  15.982   5.393
 5296POPC   GL167873  36.090  15.867   5.788
 5296POPC   GL267874  36.442  16.018   5.844
 5296POPC   C1A67875  36.025  15.891   6.269
 5296POPC   D2A67876  35.937  15.653   6.656
 5296POPC   C3A67877  35.975  15.848   7.063
 5296POPC   C4A67878  36.086  15.732   7.494
 5296POPC   C1B67879  36.529  15.838   6.264
 5296POPC   C2B67880  36.374  15.900   6.696
 5296POPC   C3B67881  36.503  15.844   7.124
 5296POPC   C4B67882  36.767  15.738   7.473
 5297POPC   NC367883  44.886   8.365   5.360
 5297POPC   PO467884  44.312   8.055   5.470
 5297POPC   GL167885  44.611   8.226   5.785
 5297POPC   GL267886  44.326   8.298   6.006
 5297POPC   C1A67887  44.798   8.307   6.204
 5297POPC   D2A67888  44.502   8.285   6.569
 5297POPC   C3A67889  44.599   8.483   6.966
 5297POPC   C4A67890  44.869   8.321   7.285
 5297POPC   C1B67891  44.348   7.889   6.260
 5297POPC   C2B67892  44.335   7.793   6.713
 5297POPC   C3B67893  44.258   8.080   7.030
 5297POPC   C4B67894  44.386   8.268   7.419
 5298POPC   NC367895   1.348  18.633   5.316
 5298POPC   PO467896   0.867  18.153   5.337
 5298POPC   GL167897   1.093  18.253   5.706
 5298POPC   GL267898   0.920  18.533   5.723
 5298POPC   C1A67899   1.178  18.124   6.150
 5298POPC   D2A67900   1.388  18.247   6.551
 5298POPC   C3A67901   1.197  17.986   6.855
 5298POPC   C4A67902   1.093  18.044   7.283
 5298POPC   C1B67903   1.276  18.615   6.061
 5298POPC   C2B67904   1.417  18.774   6.507
 5298POPC   C3B67905   1.325  18.635   6.948
 5298POPC   C4B67906   1.519  18.635   7.381
 5299POPC   NC367907  44.686  39.324   5.430
 5299POPC   PO467908   0.299  39.359   5.477
 5299POPC   GL167909   0.462  39.262   5.897
 5299POPC   GL267910   0.565  38.907   5.936
 5299POPC   C1A67911   0.495  39.240   6.349
 5299POPC   D2A67912   0.644  39.140   6.755
 5299POPC   C3A67913   0.387  39.146   7.135
 5299POPC   C4A67914   0.437  38.968   7.559
 5299POPC   C1B67915   0.727  38.785   6.354
 5299POPC   C2B67916   0.535  38.605   6.745
 5299POPC   C3B67917   0.573  38.638   7.182
 5299POPC   C4B67918   0.859  38.936   7.170
 5300POPC   NC367919  43.702  23.313   5.008
 5300POPC   PO467920  44.075  22.891   5.373
 5300POPC   GL167921  44.138  22.912   5.822
 5300POPC   GL267922  44.078  22.591   5.966
 5300POPC   C1A67923  43.855  22.997   6.183
 5300POPC   D2A67924  43.636  22.819   6.522
 5300POPC   C3A67925  43.763  23.016   6.899
 5300POPC   C4A67926  43.797  23.166   7.315
 5300POPC   C1B67927  44.164  22.587   6.390
 5300POPC   C2B67928  44.009  22.576   6.773
 5300POPC   C3B67929  43.632  22.544   6.993
 5300POPC   C4B67930  43.737  22.667   7.379
 5301POPC   NC367931  40.921  34.445   5.421
 5301POPC   PO467932  40.253  34.105   5.368
 5301POPC   GL167933  40.522  34.217   5.770
 5301POPC   GL267934  40.731  34.509   5.875
 5301POPC   C1A67935  40.427  34.321   6.228
 5301POPC   D2A67936  40.443  34.555   6.590
 5301POPC   C3A67937  40.593  34.528   7.000
 5301POPC   C4A67938  40.563  34.929   7.186
 5301POPC   C1B67939  40.934  34.493   6.266
 5301POPC   C2B67940  40.948  34.671   6.672
 5301POPC   C3B67941  41.080  34.736   7.099
 5301POPC   C4B67942  41.154  35.023   7.478
 5302POPC   NC367943  11.239  41.241   5.303
 5302POPC   PO467944  11.328  41.969   5.548
 5302POPC   GL167945  11.161  41.680   5.819
 5302POPC   GL267946  11.326  41.373   5.874
 5302POPC   C1A67947  10.915  41.550   6.162
 5302POPC   D2A67948  10.969  41.280   6.531
 5302POPC   C3A67949  11.126  41.501   6.927
 5302POPC   C4A67950  10.930  41.513   7.345
 5302POPC   C1B67951  11.391  41.614   6.314
 5302POPC   C2B67952  11.543  41.812   6.727
 5302POPC   C3B67953  11.505  41.866   7.168
 5302POPC   C4B67954  11.406  41.546   7.509
 5303POPC   NC367955  35.902  35.259   5.523
 5303POPC   PO467956  35.277  35.411   5.496
 5303POPC   GL167957  35.581  35.495   5.826
 5303POPC   GL267958  35.646  35.160   5.970
 5303POPC   C1A67959  35.576  35.627   6.233
 5303POPC   D2A67960  35.665  35.395   6.592
 5303POPC   C3A67961  35.701  35.634   6.952
 5303POPC   C4A67962  35.711  35.498   7.353
 5303POPC   C1B67963  35.262  35.214   6.257
 5303POPC   C2B67964  35.147  35.390   6.685
 5303POPC   C3B67965  35.266  35.310   7.135
 5303POPC   C4B67966  35.093  35.217   7.555
 5304POPC   NC367967  24.124  15.306   5.245
 5304POPC   PO467968  24.705  15.024   5.391
 5304POPC   GL167969  24.541  15.180   5.770
 5304POPC   GL267970  24.586  15.510   5.648
 5304POPC   C1A67971  24.484  15.062   6.230
 5304POPC   D2A67972  24.720  15.060   6.614
 5304POPC   C3A67973  24.518  14.998   7.013
 5304POPC   C4A67974  24.686  14.945   7.424
 5304POPC   C1B67975  24.623  15.553   6.122
 5304POPC   C2B67976  24.711  15.689   6.579
 5304POPC   C3B67977  24.755  15.448   6.972
 5304POPC   C4B67978  24.418  15.412   7.301
 5305POPC   NC367979  10.391  41.236   5.391
 5305POPC   PO467980  10.973  41.612   5.335
 5305POPC   GL167981  10.828  41.317   5.658
 5305POPC   GL267982  10.628  41.626   5.734
 5305POPC   C1A67983  10.585  41.192   6.054
 5305POPC   D2A67984  10.473  41.464   6.424
 5305POPC   C3A67985  10.601  41.447   6.845
 5305POPC   C4A67986  10.468  41.301   7.210
 5305POPC   C1B67987  10.385  41.809   6.074
 5305POPC   C2B67988  10.316  41.936   6.506
 5305POPC   C3B67989  10.246  41.820   6.915
 5305POPC   C4B67990  10.524  41.813   7.227
 5306POPC   NC367991  40.254  43.555   5.641
 5306POPC   PO467992  39.878  43.140   5.183
 5306POPC   GL167993  39.883  43.209   5.660
 5306POPC   GL267994  39.747  43.570   5.722
 5306POPC   C1A67995  40.123  43.098   6.082
 5306POPC   D2A67996  40.218  42.937   6.492
 5306POPC   C3A67997  40.267  43.116   6.907
 5306POPC   C4A67998  40.252  42.850   7.283
 5306POPC   C1B67999  39.860  43.532   6.179
 5306POPC   C2B68000  39.810  43.324   6.589
 5306POPC   C3B68001  39.858  43.432   7.025
 5306POPC   C4B68002  39.912  43.309   7.454
 5307POPC   NC368003  13.203  21.570   5.223
 5307POPC   PO468004  12.615  21.200   5.483
 5307POPC   GL168005  12.585  21.513   5.855
 5307POPC   GL268006  12.744  21.239   6.062
 5307POPC   C1A68007  12.423  21.569   6.289
 5307POPC   D2A68008  12.518  21.258   6.551
 5307POPC   C3A68009  12.724  21.380   6.896
 5307POPC   C4A68010  12.705  21.350   7.347
 5307POPC   C1B68011  12.951  21.557   6.317
 5307POPC   C2B68012  13.103  21.707   6.716
 5307POPC   C3B68013  13.023  21.689   7.154
 5307POPC   C4B68014  13.183  21.404   7.495
 5308POPC   NC368015  11.800  10.327   5.379
 5308POPC   PO468016  11.251  10.789   5.363
 5308POPC   GL168017  11.247  10.565   5.758
 5308POPC   GL268018  11.583  10.507   5.803
 5308POPC   C1A68019  11.248  10.291   6.138
 5308POPC   D2A68020  11.478  10.285   6.523
 5308POPC   C3A68021  11.286  10.338   6.915
 5308POPC   C4A68022  10.997  10.153   7.214
 5308POPC   C1B68023  11.624  10.670   6.195
 5308POPC   C2B68024  11.475  10.894   6.545
 5308POPC   C3B68025  11.513  10.821   6.953
 5308POPC   C4B68026  11.291  10.696   7.322
 5309POPC   NC368027   9.509   6.262   5.601
 5309POPC   PO468028   9.828   5.680   5.415
 5309POPC   GL168029   9.977   5.778   5.839
 5309POPC   GL268030   9.875   5.491   5.974
 5309POPC   C1A68031   9.795   5.919   6.257
 5309POPC   D2A68032   9.775   6.226   6.572
 5309POPC   C3A68033   9.832   6.080   7.018
 5309POPC   C4A68034   9.558   5.974   7.385
 5309POPC   C1B68035   9.834   5.440   6.433
 5309POPC   C2B68036   9.680   5.615   6.817
 5309POPC   C3B68037   9.749   5.535   7.262
 5309POPC   C4B68038  10.010   5.523   7.660
 5310POPC   NC368039  14.650  33.860   5.446
 5310POPC   PO468040  14.081  33.668   5.069
 5310POPC   GL168041  14.129  33.818   5.562
 5310POPC   GL268042  14.324  33.586   5.808
 5310POPC   C1A68043  14.216  34.022   6.020
 5310POPC   D2A68044  14.312  33.836   6.441
 5310POPC   C3A68045  14.290  34.034   6.845
 5310POPC   C4A68046  14.386  33.908   7.259
 5310POPC   C1B68047  14.693  33.642   6.141
 5310POPC   C2B68048  14.922  33.823   6.540
 5310POPC   C3B68049  14.761  33.796   6.957
 5310POPC   C4B68050  14.516  33.424   7.167
 5311POPC   NC368051  37.954   5.254   5.446
 5311POPC   PO468052  37.481   4.851   5.661
 5311POPC   GL168053  37.793   5.023   5.889
 5311POPC   GL268054  37.633   5.337   5.840
 5311POPC   C1A68055  37.732   4.998   6.321
 5311POPC   D2A68056  37.338   5.029   6.556
 5311POPC   C3A68057  37.352   4.902   6.997
 5311POPC   C4A68058  37.579   5.029   7.360
 5311POPC   C1B68059  37.968   5.453   6.122
 5311POPC   C2B68060  37.916   5.408   6.555
 5311POPC   C3B68061  37.793   5.235   6.931
 5311POPC   C4B68062  38.020   5.293   7.316
 5312POPC   NC368063  12.383  44.835   5.530
 5312POPC   PO468064  11.721  44.585   5.545
 5312POPC   GL168065  11.986  44.686   5.951
 5312POPC   GL268066  12.374  44.635   6.015
 5312POPC   C1A68067  11.991  44.580   6.411
 5312POPC   D2A68068  12.262  44.570   6.810
 5312POPC   C3A68069  12.017  44.616   7.201
 5312POPC   C4A68070  11.608  44.803   7.259
 5312POPC   C1B68071  12.401  44.935   6.405
 5312POPC   C2B68072  12.332   0.103   6.828
 5312POPC   C3B68073  12.464  44.881   7.192
 5312POPC   C4B68074  12.305  44.819   7.602
 5313POPC   NC368075  35.084  24.582   4.952
 5313POPC   PO468076  35.603  24.407   5.398
 5313POPC   GL168077  35.552  24.418   5.825
 5313POPC   GL268078  35.609  24.735   5.837
 5313POPC   C1A68079  35.319  24.504   6.224
 5313POPC   D2A68080  35.075  24.378   6.593
 5313POPC   C3A68081  35.280  24.520   6.941
 5313POPC   C4A68082  35.201  24.350   7.317
 5313POPC   C1B68083  35.635  24.906   6.234
 5313POPC   C2B68084  35.664  24.748   6.662
 5313POPC   C3B68085  35.608  24.882   7.092
 5313POPC   C4B68086  35.487  24.718   7.493
 5314POPC   NC368087  37.874   7.607   5.640
 5314POPC   PO468088  37.325   7.195   5.448
 5314POPC   GL168089  37.515   7.290   5.844
 5314POPC   GL268090  37.369   7.607   5.879
 5314POPC   C1A68091  37.754   7.327   6.272
 5314POPC   D2A68092  37.851   7.016   6.623
 5314POPC   C3A68093  37.928   7.265   6.990
 5314POPC   C4A68094  37.950   7.733   6.959
 5314POPC   C1B68095  37.242   7.425   6.290
 5314POPC   C2B68096  37.416   7.299   6.710
 5314POPC   C3B68097  37.490   7.499   7.131
 5314POPC   C4B68098  37.237   7.528   7.516
 5315POPC   NC368099  41.856  34.173   5.466
 5315POPC   PO468100  41.360  34.606   5.385
 5315POPC   GL168101  41.313  34.416   5.821
 5315POPC   GL268102  41.542  34.131   5.877
 5315POPC   C1A68103  41.500  34.479   6.274
 5315POPC   D2A68104  41.460  34.703   6.704
 5315POPC   C3A68105  41.643  34.746   7.138
 5315POPC   C4A68106  41.676  34.938   7.577
 5315POPC   C1B68107  41.201  34.068   6.183
 5315POPC   C2B68108  41.218  34.237   6.619
 5315POPC   C3B68109  41.393  34.292   7.024
 5315POPC   C4B68110  41.814  34.141   7.131
 5316POPC   NC368111   8.568  41.372   5.508
 5316POPC   PO468112   7.923  41.583   5.398
 5316POPC   GL168113   8.137  41.418   5.774
 5316POPC   GL268114   8.264  41.712   5.906
 5316POPC   C1A68115   8.149  41.286   6.209
 5316POPC   D2A68116   8.208  41.601   6.532
 5316POPC   C3A68117   8.141  41.498   6.965
 5316POPC   C4A68118   7.990  41.447   7.410
 5316POPC   C1B68119   8.482  41.954   6.220
 5316POPC   C2B68120   8.662  41.854   6.606
 5316POPC   C3B68121   8.576  41.886   7.049
 5316POPC   C4B68122   8.443  41.688   7.420
 5317POPC   NC368123   0.215  26.881   5.484
 5317POPC   PO468124   0.831  26.709   5.442
 5317POPC   GL168125   0.563  26.724   5.822
 5317POPC   GL268126   0.346  26.461   5.767
 5317POPC   C1A68127   0.293  26.878   6.164
 5317POPC   D2A68128   0.397  26.894   6.600
 5317POPC   C3A68129   0.239  26.882   7.020
 5317POPC   C4A68130   0.548  26.915   7.360
 5317POPC   C1B68131   0.204  26.354   6.173
 5317POPC   C2B68132   0.043  26.518   6.560
 5317POPC   C3B68133   0.048  26.411   6.983
 5317POPC   C4B68134   0.137  26.548   7.429
 5318POPC   NC368135  37.326  38.626   5.424
 5318POPC   PO468136  37.819  38.240   5.443
 5318POPC   GL168137  37.820  38.441   5.831
 5318POPC   GL268138  37.593  38.722   5.867
 5318POPC   C1A68139  37.786  38.296   6.246
 5318POPC   D2A68140  37.590  38.249   6.649
 5318POPC   C3A68141  37.867  38.321   7.032
 5318POPC   C4A68142  37.809  38.263   7.496
 5318POPC   C1B68143  37.479  38.664   6.325
 5318POPC   C2B68144  37.580  38.752   6.774
 5318POPC   C3B68145  37.430  38.569   7.165
 5318POPC   C4B68146  37.528  38.657   7.616
 5319POPC   NC368147  37.813  31.269   5.306
 5319POPC   PO468148  37.514  30.648   5.340
 5319POPC   GL168149  37.656  30.882   5.655
 5319POPC   GL268150  37.741  30.594   5.822
 5319POPC   C1A68151  37.457  30.962   6.073
 5319POPC   D2A68152  37.281  30.827   6.498
 5319POPC   C3A68153  37.523  30.931   6.864
 5319POPC   C4A68154  37.637  30.733   7.209
 5319POPC   C1B68155  37.946  30.799   6.125
 5319POPC   C2B68156  37.914  30.882   6.543
 5319POPC   C3B68157  38.066  30.717   6.932
 5319POPC   C4B68158  38.096  30.884   7.355
 5320POPC   NC368159  26.390  35.290   5.296
 5320POPC   PO468160  25.864  35.503   5.423
 5320POPC   GL168161  26.015  35.400   5.826
 5320POPC   GL268162  26.292  35.208   5.776
 5320POPC   C1A68163  26.229  35.567   6.196
 5320POPC   D2A68164  26.174  35.674   6.639
 5320POPC   C3A68165  25.900  35.481   6.973
 5320POPC   C4A68166  26.262  35.537   7.210
 5320POPC   C1B68167  26.210  35.050   6.166
 5320POPC   C2B68168  26.000  35.207   6.516
 5320POPC   C3B68169  26.300  35.188   6.839
 5320POPC   C4B68170  26.354  34.833   7.102
 5321POPC   NC368171  22.485  30.102   5.149
 5321POPC   PO468172  23.097  29.884   5.345
 5321POPC   GL168173  22.919  30.078   5.719
 5321POPC   GL268174  22.583  30.222   5.669
 5321POPC   C1A68175  23.032  29.950   6.129
 5321POPC   D2A68176  22.983  30.147   6.503
 5321POPC   C3A68177  23.077  29.959   6.896
 5321POPC   C4A68178  23.188  29.588   7.153
 5321POPC   C1B68179  22.546  30.096   6.118
 5321POPC   C2B68180  22.557  29.883   6.525
 5321POPC   C3B68181  22.569  29.880   6.964
 5321POPC   C4B68182  22.753  30.142   7.253
 5322POPC   NC368183  11.875  38.933   5.292
 5322POPC   PO468184  12.364  39.386   5.362
 5322POPC   GL168185  12.267  39.316   5.787
 5322POPC   GL268186  12.544  39.107   5.915
 5322POPC   C1A68187  12.238  39.424   6.226
 5322POPC   D2A68188  12.102  39.214   6.581
 5322POPC   C3A68189  12.338  39.250   6.924
 5322POPC   C4A68190  12.158  39.203   7.293
 5322POPC   C1B68191  12.366  38.871   6.301
 5322POPC   C2B68192  12.382  38.733   6.753
 5322POPC   C3B68193  12.447  38.797   7.223
 5322POPC   C4B68194  12.375  38.947   7.696
 5323POPC   NC368195  27.280  22.837   5.409
 5323POPC   PO468196  27.907  22.641   5.405
 5323POPC   GL168197  27.639  22.763   5.783
 5323POPC   GL268198  27.609  23.121   5.770
 5323POPC   C1A68199  27.578  22.914   6.250
 5323POPC   D2A68200  27.827  22.818   6.634
 5323POPC   C3A68201  27.618  22.704   7.021
 5323POPC   C4A68202  27.793  22.788   7.436
 5323POPC   C1B68203  27.271  23.269   6.065
 5323POPC   C2B68204  27.098  23.155   6.483
 5323POPC   C3B68205  27.289  23.192   6.904
 5323POPC   C4B68206  27.315  23.002   7.313
 5324POPC   NC368207   6.552  20.990   5.354
 5324POPC   PO468208   6.558  20.267   5.516
 5324POPC   GL168209   6.609  20.497   5.910
 5324POPC   GL268210   6.609  20.838   5.825
 5324POPC   C1A68211   6.637  20.474   6.373
 5324POPC   D2A68212   6.769  20.426   6.780
 5324POPC   C3A68213   6.439  20.550   7.030
 5324POPC   C4A68214   6.308  20.675   7.434
 5324POPC   C1B68215   6.779  20.939   6.186
 5324POPC   C2B68216   6.964  20.853   6.565
 5324POPC   C3B68217   6.828  20.881   6.990
 5324POPC   C4B68218   6.820  20.715   7.371
 5325POPC   NC368219  38.812  41.617   5.742
 5325POPC   PO468220  39.356  41.691   5.354
 5325POPC   GL168221  39.346  41.622   5.815
 5325POPC   GL268222  39.187  41.300   5.912
 5325POPC   C1A68223  39.282  41.695   6.271
 5325POPC   D2A68224  39.255  41.546   6.711
 5325POPC   C3A68225  39.036  41.727   7.100
 5325POPC   C4A68226  39.270  41.747   7.504
 5325POPC   C1B68227  39.054  41.216   6.367
 5325POPC   C2B68228  38.950  41.176   6.881
 5325POPC   C3B68229  38.996  41.278   7.352
 5325POPC   C4B68230  38.924  41.171   7.806
 5326POPC   NC368231  21.763  19.247   5.144
 5326POPC   PO468232  21.364  18.997   5.605
 5326POPC   GL168233  21.436  18.918   5.995
 5326POPC   GL268234  21.325  18.564   5.900
 5326POPC   C1A68235  21.438  19.249   6.344
 5326POPC   D2A68236  21.208  19.245   6.704
 5326POPC   C3A68237  21.408  19.259   7.094
 5326POPC   C4A68238  21.200  19.331   7.464
 5326POPC   C1B68239  21.574  18.516   6.279
 5326POPC   C2B68240  21.300  18.759   6.525
 5326POPC   C3B68241  21.239  18.783   6.948
 5326POPC   C4B68242  21.610  18.743   7.131
 5327POPC   NC368243  39.696  17.207   5.484
 5327POPC   PO468244  39.985  16.552   5.376
 5327POPC   GL168245  40.069  16.753   5.749
 5327POPC   GL268246  39.788  16.887   5.860
 5327POPC   C1A68247  40.346  16.881   6.094
 5327POPC   D2A68248  40.313  16.949   6.537
 5327POPC   C3A68249  40.119  16.633   6.780
 5327POPC   C4A68250  40.202  16.622   7.203
 5327POPC   C1B68251  39.851  16.885   6.280
 5327POPC   C2B68252  39.632  16.801   6.650
 5327POPC   C3B68253  39.676  16.773   7.092
 5327POPC   C4B68254  39.480  16.808   7.492
 5328POPC   NC368255  44.314   9.106   5.491
 5328POPC   PO468256  44.950   8.822   5.390
 5328POPC   GL168257  44.630   8.753   5.769
 5328POPC   GL268258  44.583   9.091   5.926
 5328POPC   C1A68259  44.469   8.721   6.248
 5328POPC   D2A68260  44.601   9.054   6.510
 5328POPC   C3A68261  44.873   8.993   6.865
 5328POPC   C4A68262  44.822   9.027   7.292
 5328POPC   C1B68263  44.885   9.348   6.178
 5328POPC   C2B68264  44.911   9.496   6.603
 5328POPC   C3B68265  44.979   9.469   7.045
 5328POPC   C4B68266   0.274   9.276   7.335
 5329POPC   NC368267  43.917   5.343   5.275
 5329POPC   PO468268  43.330   4.945   5.220
 5329POPC   GL168269  43.653   5.039   5.636
 5329POPC   GL268270  43.981   4.899   5.816
 5329POPC   C1A68271  43.770   5.317   6.036
 5329POPC   D2A68272  43.715   5.277   6.529
 5329POPC   C3A68273  43.877   5.436   6.955
 5329POPC   C4A68274  44.136   5.183   7.262
 5329POPC   C1B68275  44.264   5.127   6.141
 5329POPC   C2B68276  44.219   5.237   6.603
 5329POPC   C3B68277  44.002   4.911   6.837
 5329POPC   C4B68278  44.132   4.557   7.142
 5330POPC   NC368279   3.167   2.003   5.298
 5330POPC   PO468280   2.627   1.620   5.441
 5330POPC   GL168281   2.872   1.866   5.738
 5330POPC   GL268282   2.965   1.607   5.923
 5330POPC   C1A68283   2.875   2.074   6.189
 5330POPC   D2A68284   2.711   2.220   6.607
 5330POPC   C3A68285   2.953   2.212   6.989
 5330POPC   C4A68286   2.740   2.185   7.358
 5330POPC   C1B68287   2.529   1.707   6.126
 5330POPC   C2B68288   2.429   1.783   6.575
 5330POPC   C3B68289   2.674   1.793   6.980
 5330POPC   C4B68290   3.049   1.539   7.168
 5331POPC   NC368291   9.861  17.150   5.385
 5331POPC   PO468292   9.549  17.757   5.319
 5331POPC   GL168293   9.609  17.525   5.712
 5331POPC   GL268294   9.404  17.200   5.651
 5331POPC   C1A68295   9.692  17.626   6.166
 5331POPC   D2A68296   9.738  17.575   6.626
 5331POPC   C3A68297   9.790  17.307   6.999
 5331POPC   C4A68298   9.843  17.526   7.415
 5331POPC   C1B68299   9.630  17.065   6.020
 5331POPC   C2B68300   9.601  17.102   6.464
 5331POPC   C3B68301   9.329  17.290   6.776
 5331POPC   C4B68302   9.253  17.118   7.161
 5332POPC   NC368303   1.201  36.272   5.394
 5332POPC   PO468304   0.700  36.002   5.628
 5332POPC   GL168305   1.078  35.955   5.845
 5332POPC   GL268306   1.307  36.250   5.888
 5332POPC   C1A68307   1.076  35.967   6.291
 5332POPC   D2A68308   1.195  36.329   6.565
 5332POPC   C3A68309   1.017  36.238   6.963
 5332POPC   C4A68310   1.065  35.940   7.270
 5332POPC   C1B68311   1.559  36.002   6.160
 5332POPC   C2B68312   1.561  35.970   6.588
 5332POPC   C3B68313   1.519  35.968   7.043
 5332POPC   C4B68314   1.523  36.021   7.512
 5333POPC   NC368315  34.269   7.889   5.393
 5333POPC   PO468316  34.983   7.979   5.465
 5333POPC   GL168317  34.627   7.957   5.809
 5333POPC   GL268318  34.337   8.210   5.790
 5333POPC   C1A68319  34.556   8.055   6.267
 5333POPC   D2A68320  34.570   8.346   6.640
 5333POPC   C3A68321  34.555   8.134   7.031
 5333POPC   C4A68322  34.744   8.164   7.435
 5333POPC   C1B68323  34.079   8.222   6.152
 5333POPC   C2B68324  34.110   8.111   6.594
 5333POPC   C3B68325  34.054   8.303   6.972
 5333POPC   C4B68326  34.229   8.319   7.384
 5334POPC   NC368327  19.680  32.418   5.296
 5334POPC   PO468328  20.123  32.211   5.721
 5334POPC   GL168329  19.686  32.312   5.803
 5334POPC   GL268330  19.551  32.004   5.911
 5334POPC   C1A68331  19.509  32.405   6.210
 5334POPC   D2A68332  19.608  32.220   6.607
 5334POPC   C3A68333  19.848  32.380   6.922
 5334POPC   C4A68334  19.656  32.498   7.291
 5334POPC   C1B68335  19.536  31.795   6.312
 5334POPC   C2B68336  19.479  31.756   6.763
 5334POPC   C3B68337  19.508  32.014   7.120
 5334POPC   C4B68338  19.585  32.051   7.565
 5335POPC   NC368339   8.891   1.340   5.468
 5335POPC   PO468340   9.295   0.861   5.490
 5335POPC   GL168341   9.018   0.976   5.826
 5335POPC   GL268342   9.221   1.230   5.865
 5335POPC   C1A68343   8.978   0.844   6.285
 5335POPC   D2A68344   9.255   0.863   6.674
 5335POPC   C3A68345   9.102   0.958   7.087
 5335POPC   C4A68346   9.249   1.306   7.328
 5335POPC   C1B68347   8.981   1.334   6.243
 5335POPC   C2B68348   8.820   1.190   6.642
 5335POPC   C3B68349   8.857   1.389   7.019
 5335POPC   C4B68350   8.765   1.472   7.428
 5336POPC   NC368351  21.313   2.417   5.363
 5336POPC   PO468352  21.146   3.147   5.511
 5336POPC   GL168353  21.303   2.955   5.857
 5336POPC   GL268354  21.550   2.709   5.801
 5336POPC   C1A68355  21.333   2.841   6.275
 5336POPC   D2A68356  21.221   2.541   6.542
 5336POPC   C3A68357  21.315   2.717   6.921
 5336POPC   C4A68358  21.095   2.767   7.279
 5336POPC   C1B68359  21.590   2.418   6.169
 5336POPC   C2B68360  21.689   2.327   6.620
 5336POPC   C3B68361  21.457   2.232   7.002
 5336POPC   C4B68362  21.456   2.446   7.423
 5337POPC   NC368363  34.920   7.420   5.653
 5337POPC   PO468364  35.564   7.331   5.375
 5337POPC   GL168365  35.444   7.450   5.782
 5337POPC   GL268366  35.407   7.121   5.864
 5337POPC   C1A68367  35.570   7.627   6.194
 5337POPC   D2A68368  35.389   7.653   6.603
 5337POPC   C3A68369  35.603   7.741   6.952
 5337POPC   C4A68370  35.365   7.525   7.253
 5337POPC   C1B68371  35.500   6.822   6.164
 5337POPC   C2B68372  35.339   6.779   6.565
 5337POPC   C3B68373  35.356   7.063   6.890
 5337POPC   C4B68374  35.434   7.032   7.321
 5338POPC   NC368375  40.586   4.803   4.998
 5338POPC   PO468376  40.803   4.270   5.414
 5338POPC   GL168377  40.888   4.500   5.762
 5338POPC   GL268378  41.030   4.224   5.925
 5338POPC   C1A68379  40.922   4.702   6.161
 5338POPC   D2A68380  40.631   4.636   6.497
 5338POPC   C3A68381  40.692   4.333   6.840
 5338POPC   C4A68382  40.545   4.384   7.276
 5338POPC   C1B68383  40.990   4.253   6.394
 5338POPC   C2B68384  41.155   4.525   6.721
 5338POPC   C3B68385  41.079   4.444   7.179
 5338POPC   C4B68386  40.922   4.021   7.283
 5339POPC   NC368387  32.231   0.563   5.411
 5339POPC   PO468388  32.697   0.132   5.739
 5339POPC   GL168389  32.470   0.524   5.924
 5339POPC   GL268390  32.089   0.561   5.918
 5339POPC   C1A68391  32.330   0.577   6.385
 5339POPC   D2A68392  32.208   0.241   6.716
 5339POPC   C3A68393  32.248   0.202   7.178
 5339POPC   C4A68394  32.270   0.072   7.659
 5339POPC   C1B68395  31.925   0.856   6.185
 5339POPC   C2B68396  32.096   0.965   6.643
 5339POPC   C3B68397  32.053   0.851   7.115
 5339POPC   C4B68398  32.194   0.585   7.514
 5340POPC   NC368399  12.577  33.363   5.608
 5340POPC   PO468400  12.873  32.830   5.443
 5340POPC   GL168401  12.870  33.018   5.880
 5340POPC   GL268402  12.924  33.377   5.955
 5340POPC   C1A68403  12.859  32.944   6.326
 5340POPC   D2A68404  13.014  32.727   6.693
 5340POPC   C3A68405  13.187  32.968   7.061
 5340POPC   C4A68406  13.017  32.960   7.490
 5340POPC   C1B68407  12.512  33.299   6.263
 5340POPC   C2B68408  12.461  33.037   6.645
 5340POPC   C3B68409  12.645  33.073   7.052
 5340POPC   C4B68410  12.525  33.482   7.231
 5341POPC   NC368411   4.351  10.806   5.318
 5341POPC   PO468412   3.965  10.296   5.430
 5341POPC   GL168413   4.302  10.291   5.752
 5341POPC   GL268414   4.524  10.607   5.772
 5341POPC   C1A68415   4.327  10.389   6.215
 5341POPC   D2A68416   4.461  10.267   6.617
 5341POPC   C3A68417   4.385  10.489   6.993
 5341POPC   C4A68418   4.487  10.276   7.312
 5341POPC   C1B68419   4.600  10.811   6.197
 5341POPC   C2B68420   4.432  10.850   6.635
 5341POPC   C3B68421   4.597  10.928   7.091
 5341POPC   C4B68422   4.654  10.720   7.520
 5342POPC   NC368423  13.542  32.403   5.486
 5342POPC   PO468424  14.112  31.939   5.471
 5342POPC   GL168425  14.031  32.195   5.826
 5342POPC   GL268426  13.855  32.534   5.885
 5342POPC   C1A68427  13.986  32.090   6.261
 5342POPC   D2A68428  13.853  32.394   6.570
 5342POPC   C3A68429  13.855  32.300   6.981
 5342POPC   C4A68430  13.849  31.954   7.210
 5342POPC   C1B68431  13.531  32.325   6.150
 5342POPC   C2B68432  13.334  32.348   6.558
 5342POPC   C3B68433  13.387  32.493   6.967
 5342POPC   C4B68434  13.388  32.218   7.285
 5343POPC   NC368435  22.295   3.735   5.382
 5343POPC   PO468436  22.409   3.104   5.485
 5343POPC   GL168437  22.303   3.375   5.758
 5343POPC   GL268438  21.977   3.422   5.694
 5343POPC   C1A68439  22.324   3.446   6.189
 5343POPC   D2A68440  22.038   3.325   6.521
 5343POPC   C3A68441  22.275   3.387   6.902
 5343POPC   C4A68442  22.299   3.150   7.284
 5343POPC   C1B68443  21.876   3.670   6.071
 5343POPC   C2B68444  21.659   3.671   6.488
 5343POPC   C3B68445  21.801   3.604   6.902
 5343POPC   C4B68446  22.013   3.601   7.299
 5344POPC   NC368447  29.984  33.394   5.339
 5344POPC   PO468448  29.879  32.733   5.504
 5344POPC   GL168449  30.031  33.093   5.765
 5344POPC   GL268450  29.734  33.188   5.813
 5344POPC   C1A68451  30.061  33.227   6.230
 5344POPC   D2A68452  30.209  33.266   6.663
 5344POPC   C3A68453  29.966  33.080   7.002
 5344POPC   C4A68454  29.973  33.121   7.441
 5344POPC   C1B68455  29.733  32.847   6.137
 5344POPC   C2B68456  29.807  32.829   6.573
 5344POPC   C3B68457  29.575  32.743   6.940
 5344POPC   C4B68458  29.508  32.927   7.329
 5345POPC   NC368459  25.796   7.663   5.037
 5345POPC   PO468460  26.170   7.422   5.532
 5345POPC   GL168461  26.109   7.476   5.933
 5345POPC   GL268462  25.788   7.342   5.920
 5345POPC   C1A68463  26.146   7.452   6.371
 5345POPC   D2A68464  25.912   7.708   6.623
 5345POPC   C3A68465  25.951   7.475   6.950
 5345POPC   C4A68466  26.227   7.376   7.291
 5345POPC   C1B68467  25.798   7.069   6.255
 5345POPC   C2B68468  25.973   7.048   6.693
 5345POPC   C3B68469  25.787   7.026   7.147
 5345POPC   C4B68470  25.825   7.163   7.594
 5346POPC   NC368471  23.151   0.491   5.380
 5346POPC   PO468472  22.672   0.115   5.222
 5346POPC   GL168473  22.694   0.282   5.681
 5346POPC   GL268474  22.784   0.646   5.740
 5346POPC   C1A68475  22.845   0.318   6.157
 5346POPC   D2A68476  23.076   0.384   6.590
 5346POPC   C3A68477  22.901   0.319   7.051
 5346POPC   C4A68478  22.528   0.254   7.351
 5346POPC   C1B68479  22.656   0.794   6.185
 5346POPC   C2B68480  22.833   0.831   6.633
 5346POPC   C3B68481  22.947   0.841   7.086
 5346POPC   C4B68482  23.131   0.939   7.479
 5347POPC   NC368483  38.367  41.163   5.286
 5347POPC   PO468484  38.401  41.792   5.663
 5347POPC   GL168485  38.410  41.639   6.029
 5347POPC   GL268486  38.351  41.287   5.814
 5347POPC   C1A68487  38.611  41.902   6.325
 5347POPC   D2A68488  38.923  41.946   6.625
 5347POPC   C3A68489  38.579  41.927   6.893
 5347POPC   C4A68490  38.446  41.816   7.295
 5347POPC   C1B68491  38.566  41.180   6.175
 5347POPC   C2B68492  38.627  41.421   6.547
 5347POPC   C3B68493  38.472  41.424   6.957
 5347POPC   C4B68494  38.474  41.294   7.362
 5348POPC   NC368495   0.784   5.233   5.318
 5348POPC   PO468496   0.205   4.920   5.448
 5348POPC   GL168497   0.550   5.037   5.757
 5348POPC   GL268498   0.899   4.924   5.737
 5348POPC   C1A68499   0.552   5.262   6.152
 5348POPC   D2A68500   0.214   5.358   6.438
 5348POPC   C3A68501   0.349   5.317   6.858
 5348POPC   C4A68502   0.220   5.175   7.259
 5348POPC   C1B68503   0.844   4.815   6.184
 5348POPC   C2B68504   0.634   4.938   6.580
 5348POPC   C3B68505   0.754   5.055   7.019
 5348POPC   C4B68506   0.696   5.079   7.473
 5349POPC   NC368507  18.776   5.828   5.359
 5349POPC   PO468508  19.423   6.055   5.507
 5349POPC   GL168509  19.176   5.829   5.833
 5349POPC   GL268510  18.916   5.583   5.773
 5349POPC   C1A68511  19.224   5.924   6.272
 5349POPC   D2A68512  19.137   5.871   6.697
 5349POPC   C3A68513  19.339   6.006   7.035
 5349POPC   C4A68514  19.073   6.067   7.381
 5349POPC   C1B68515  19.010   5.437   6.168
 5349POPC   C2B68516  18.800   5.531   6.531
 5349POPC   C3B68517  18.751   5.634   6.947
 5349POPC   C4B68518  19.015   5.564   7.248
 5350POPC   NC368519   2.111   0.336   5.446
 5350POPC   PO468520   1.841   1.009   5.350
 5350POPC   GL168521   1.917   0.690   5.749
 5350POPC   GL268522   1.865   0.308   5.902
 5350POPC   C1A68523   2.123   0.661   6.168
 5350POPC   D2A68524   1.915   0.419   6.503
 5350POPC   C3A68525   1.982   0.531   6.929
 5350POPC   C4A68526   1.979   0.412   7.346
 5350POPC   C1B68527   2.200   0.157   6.167
 5350POPC   C2B68528   2.326   0.133   6.638
 5350POPC   C3B68529   2.208   0.035   7.092
 5350POPC   C4B68530   2.047  44.960   7.568
 5351POPC   NC368531  15.423  20.817   5.512
 5351POPC   PO468532  14.999  20.316   5.261
 5351POPC   GL168533  15.129  20.415   5.700
 5351POPC   GL268534  14.852  20.476   5.952
 5351POPC   C1A68535  15.332  20.514   6.114
 5351POPC   D2A68536  15.082  20.415   6.502
 5351POPC   C3A68537  15.235  20.434   6.933
 5351POPC   C4A68538  15.137  20.146   7.243
 5351POPC   C1B68539  14.974  20.844   6.263
 5351POPC   C2B68540  15.073  20.910   6.714
 5351POPC   C3B68541  14.932  20.802   7.125
 5351POPC   C4B68542  14.645  20.924   7.456
 5352POPC   NC368543  35.846   4.452   5.458
 5352POPC   PO468544  35.152   4.449   5.356
 5352POPC   GL168545  35.073   4.438   5.784
 5352POPC   GL268546  35.106   4.091   5.863
 5352POPC   C1A68547  35.314   4.424   6.199
 5352POPC   D2A68548  35.492   4.176   6.546
 5352POPC   C3A68549  35.619   4.333   6.983
 5352POPC   C4A68550  35.758   4.513   7.389
 5352POPC   C1B68551  34.833   4.258   6.196
 5352POPC   C2B68552  34.922   4.399   6.582
 5352POPC   C3B68553  35.135   4.239   6.904
 5352POPC   C4B68554  35.294   4.006   7.228
 5353POPC   NC368555  39.854   5.418   5.342
 5353POPC   PO468556  40.379   5.934   5.373
 5353POPC   GL168557  40.131   5.898   5.780
 5353POPC   GL268558  39.789   5.734   5.762
 5353POPC   C1A68559  39.955   6.047   6.196
 5353POPC   D2A68560  39.726   6.269   6.544
 5353POPC   C3A68561  39.670   6.040   6.923
 5353POPC   C4A68562  40.051   6.023   7.146
 5353POPC   C1B68563  39.970   5.515   6.132
 5353POPC   C2B68564  40.085   5.661   6.566
 5353POPC   C3B68565  40.060   5.506   6.998
 5353POPC   C4B68566  39.993   5.627   7.440
 5354POPC   NC368567  38.871  32.359   5.547
 5354POPC   PO468568  38.192  32.400   5.379
 5354POPC   GL168569  38.296  32.218   5.806
 5354POPC   GL268570  38.521  31.964   5.724
 5354POPC   C1A68571  38.256  32.271   6.296
 5354POPC   D2A68572  38.182  32.211   6.775
 5354POPC   C3A68573  38.313  32.462   7.131
 5354POPC   C4A68574  38.267  32.707   7.502
 5354POPC   C1B68575  38.579  31.877   6.167
 5354POPC   C2B68576  38.739  31.983   6.577
 5354POPC   C3B68577  38.632  32.076   7.000
 5354POPC   C4B68578  38.359  31.936   7.330
 5355POPC   NC368579  43.506   4.574   5.428
 5355POPC   PO468580  44.028   4.201   5.552
 5355POPC   GL168581  43.994   4.393   5.918
 5355POPC   GL268582  43.653   4.507   5.911
 5355POPC   C1A68583  44.098   4.597   6.290
 5355POPC   D2A68584  44.259   4.467   6.660
 5355POPC   C3A68585  44.011   4.125   6.860
 5355POPC   C4A68586  43.767   4.159   7.241
 5355POPC   C1B68587  43.660   4.847   6.216
 5355POPC   C2B68588  43.496   4.815   6.616
 5355POPC   C3B68589  43.632   4.546   6.932
 5355POPC   C4B68590  43.713   4.806   7.244
 5356POPC   NC368591  31.781   8.300   5.469
 5356POPC   PO468592  31.168   8.062   5.255
 5356POPC   GL168593  31.258   8.285   5.730
 5356POPC   GL268594  31.566   8.184   5.915
 5356POPC   C1A68595  31.175   8.193   6.224
 5356POPC   D2A68596  31.361   8.110   6.674
 5356POPC   C3A68597  31.492   8.317   7.089
 5356POPC   C4A68598  31.401   8.082   7.496
 5356POPC   C1B68599  31.740   7.933   6.257
 5356POPC   C2B68600  31.870   8.014   6.692
 5356POPC   C3B68601  31.737   7.864   7.119
 5356POPC   C4B68602  31.809   7.775   7.581
 5357POPC   NC368603  20.446  37.678   5.357
 5357POPC   PO468604  21.036  37.425   5.440
 5357POPC   GL168605  20.838  37.687   5.779
 5357POPC   GL268606  20.546  37.932   5.797
 5357POPC   C1A68607  20.756  37.673   6.215
 5357POPC   D2A68608  20.831  37.411   6.551
 5357POPC   C3A68609  20.653  37.526   6.956
 5357POPC   C4A68610  20.496  37.479   7.394
 5357POPC   C1B68611  20.523  38.122   6.202
 5357POPC   C2B68612  20.541  37.961   6.661
 5357POPC   C3B68613  20.445  37.984   7.127
 5357POPC   C4B68614  20.219  37.917   7.527
 5358POPC   NC368615  25.736  38.599   5.273
 5358POPC   PO468616  26.256  38.147   5.189
 5358POPC   GL168617  26.075  38.343   5.596
 5358POPC   GL268618  26.168  38.694   5.564
 5358POPC   C1A68619  25.968  38.519   6.038
 5358POPC   D2A68620  25.743  38.397   6.428
 5358POPC   C3A68621  25.938  38.425   6.846
 5358POPC   C4A68622  25.708  38.413   7.232
 5358POPC   C1B68623  26.375  38.827   5.941
 5358POPC   C2B68624  26.445  38.826   6.374
 5358POPC   C3B68625  26.401  38.780   6.813
 5358POPC   C4B68626  26.191  38.705   7.203
 5359POPC   NC368627  23.200  22.034   5.212
 5359POPC   PO468628  22.656  21.891   5.586
 5359POPC   GL168629  22.863  22.272   5.768
 5359POPC   GL268630  22.593  22.469   5.878
 5359POPC   C1A68631  23.055  22.544   6.110
 5359POPC   D2A68632  23.077  22.461   6.572
 5359POPC   C3A68633  22.906  22.058   6.786
 5359POPC   C4A68634  22.963  21.948   7.254
 5359POPC   C1B68635  22.633  22.292   6.273
 5359POPC   C2B68636  22.479  22.386   6.647
 5359POPC   C3B68637  22.620  22.347   7.090
 5359POPC   C4B68638  22.703  22.392   7.509
 5360POPC   NC368639  40.794  40.236   5.149
 5360POPC   PO468640  40.738  40.876   5.336
 5360POPC   GL168641  40.694  40.859   5.800
 5360POPC   GL268642  41.041  40.961   5.809
 5360POPC   C1A68643  40.577  40.870   6.274
 5360POPC   D2A68644  40.626  41.139   6.696
 5360POPC   C3A68645  40.616  40.921   7.141
 5360POPC   C4A68646  40.422  41.000   7.566
 5360POPC   C1B68647  41.106  40.947   6.250
 5360POPC   C2B68648  40.940  40.728   6.604
 5360POPC   C3B68649  41.098  40.871   6.976
 5360POPC   C4B68650  41.316  40.750   7.304
 5361POPC   NC368651   9.468  14.593   5.322
 5361POPC   PO468652  10.008  14.193   5.195
 5361POPC   GL168653   9.948  14.415   5.640
 5361POPC   GL268654  10.042  14.758   5.780
 5361POPC   C1A68655   9.825  14.304   6.095
 5361POPC   D2A68656   9.608  14.195   6.498
 5361POPC   C3A68657   9.927  14.219   6.838
 5361POPC   C4A68658   9.946  14.511   7.211
 5361POPC   C1B68659   9.613  14.766   5.982
 5361POPC   C2B68660   9.417  14.668   6.361
 5361POPC   C3B68661   9.502  14.634   6.805
 5361POPC   C4B68662   9.430  14.520   7.199
 5362POPC   NC368663  33.310  41.827   5.618
 5362POPC   PO468664  33.818  41.536   5.206
 5362POPC   GL168665  33.884  41.746   5.653
 5362POPC   GL268666  33.664  41.628   5.921
 5362POPC   C1A68667  34.073  41.850   6.087
 5362POPC   D2A68668  33.965  41.661   6.496
 5362POPC   C3A68669  34.105  41.826   6.904
 5362POPC   C4A68670  34.066  41.549   7.242
 5362POPC   C1B68671  33.657  41.317   6.242
 5362POPC   C2B68672  33.572  41.337   6.684
 5362POPC   C3B68673  33.567  41.406   7.125
 5362POPC   C4B68674  33.452  41.012   7.296
 5363POPC   NC368675  24.488  40.811   5.402
 5363POPC   PO468676  25.001  40.671   5.686
 5363POPC   GL168677  24.688  40.607   5.963
 5363POPC   GL268678  24.383  40.457   5.816
 5363POPC   C1A68679  24.655  40.816   6.353
 5363POPC   D2A68680  24.400  40.903   6.701
 5363POPC   C3A68681  24.499  40.579   6.986
 5363POPC   C4A68682  24.759  40.757   7.264
 5363POPC   C1B68683  24.325  40.424   6.296
 5363POPC   C2B68684  24.055  40.505   6.686
 5363POPC   C3B68685  24.012  40.681   7.116
 5363POPC   C4B68686  24.305  41.026   7.222
 5364POPC   NC368687  17.376  10.962   5.201
 5364POPC   PO468688  17.518  10.256   5.314
 5364POPC   GL168689  17.493  10.352   5.804
 5364POPC   GL268690  17.200  10.567   5.907
 5364POPC   C1A68691  17.661  10.531   6.207
 5364POPC   D2A68692  17.580  10.361   6.620
 5364POPC   C3A68693  17.632  10.605   6.985
 5364POPC   C4A68694  17.645  10.439   7.401
 5364POPC   C1B68695  17.142  10.501   6.350
 5364POPC   C2B68696  17.035  10.588   6.780
 5364POPC   C3B68697  17.166  10.575   7.210
 5364POPC   C4B68698  17.279  10.796   7.591
 5365POPC   NC368699  36.223  19.890   5.261
 5365POPC   PO468700  35.569  19.923   5.275
 5365POPC   GL168701  35.901  19.911   5.668
 5365POPC   GL268702  36.267  19.760   5.757
 5365POPC   C1A68703  35.904  19.980   6.133
 5365POPC   D2A68704  35.779  19.843   6.581
 5365POPC   C3A68705  35.960  19.972   6.948
 5365POPC   C4A68706  36.151  20.178   7.298
 5365POPC   C1B68707  36.407  19.924   6.180
 5365POPC   C2B68708  36.306  19.751   6.601
 5365POPC   C3B68709  36.442  19.824   7.026
 5365POPC   C4B68710  36.350  19.734   7.457
 5366POPC   NC368711  26.459  40.810   5.360
 5366POPC   PO468712  26.971  40.527   5.634
 5366POPC   GL168713  26.808  40.498   6.029
 5366POPC   GL268714  26.726  40.841   6.080
 5366POPC   C1A68715  26.864  40.484   6.474
 5366POPC   D2A68716  26.903  40.375   6.891
 5366POPC   C3A68717  26.996  40.693   7.145
 5366POPC   C4A68718  26.992  41.109   7.256
 5366POPC   C1B68719  26.421  40.670   6.372
 5366POPC   C2B68720  26.399  40.347   6.691
 5366POPC   C3B68721  26.451  40.519   7.107
 5366POPC   C4B68722  26.485  40.966   7.214
 5367POPC   NC368723  24.209   6.987   5.401
 5367POPC   PO468724  24.903   6.872   5.336
 5367POPC   GL168725  24.676   6.770   5.731
 5367POPC   GL268726  24.396   6.547   5.871
 5367POPC   C1A68727  24.775   6.707   6.168
 5367POPC   D2A68728  24.440   6.645   6.449
 5367POPC   C3A68729  24.585   6.729   6.855
 5367POPC   C4A68730  24.748   6.692   7.253
 5367POPC   C1B68731  24.108   6.341   6.198
 5367POPC   C2B68732  24.078   6.350   6.681
 5367POPC   C3B68733  24.186   6.515   7.109
 5367POPC   C4B68734  24.280   6.161   7.380
 5368POPC   NC368735  30.263  17.380   5.140
 5368POPC   PO468736  30.865  17.197   5.313
 5368POPC   GL168737  30.764  17.422   5.703
 5368POPC   GL268738  30.822  17.776   5.780
 5368POPC   C1A68739  30.751  17.319   6.123
 5368POPC   D2A68740  30.468  17.068   6.398
 5368POPC   C3A68741  30.483  17.240   6.808
 5368POPC   C4A68742  30.371  17.497   7.152
 5368POPC   C1B68743  30.645  17.836   6.165
 5368POPC   C2B68744  30.690  18.027   6.549
 5368POPC   C3B68745  30.683  17.862   6.965
 5368POPC   C4B68746  30.735  17.766   7.412
 5369POPC   NC368747  32.513  26.805   5.372
 5369POPC   PO468748  31.878  26.768   5.469
 5369POPC   GL168749  32.253  26.715   5.793
 5369POPC   GL268750  32.422  27.072   5.801
 5369POPC   C1A68751  32.489  26.776   6.225
 5369POPC   D2A68752  32.501  26.540   6.630
 5369POPC   C3A68753  32.432  26.719   7.059
 5369POPC   C4A68754  32.052  26.547   7.266
 5369POPC   C1B68755  32.047  27.037   6.100
 5369POPC   C2B68756  32.127  27.038   6.528
 5369POPC   C3B68757  31.969  26.923   6.903
 5369POPC   C4B68758  32.035  27.052   7.261
 5370POPC   NC368759  44.641  17.797   5.565
 5370POPC   PO468760  44.890  18.363   5.361
 5370POPC   GL168761  44.676  18.305   5.797
 5370POPC   GL268762  44.483  18.040   5.975
 5370POPC   C1A68763  44.531  18.491   6.208
 5370POPC   D2A68764  44.302  18.537   6.609
 5370POPC   C3A68765  44.489  18.502   6.978
 5370POPC   C4A68766  44.421  18.119   7.161
 5370POPC   C1B68767  44.753  18.044   6.313
 5370POPC   C2B68768  44.696  18.039   6.739
 5370POPC   C3B68769  44.919  18.190   7.085
 5370POPC   C4B68770   0.198  18.027   7.410
 5371POPC   NC368771  32.490  25.809   5.345
 5371POPC   PO468772  31.902  25.928   5.679
 5371POPC   GL168773  32.249  25.876   5.859
 5371POPC   GL268774  32.423  26.196   5.768
 5371POPC   C1A68775  32.158  25.786   6.279
 5371POPC   D2A68776  32.364  25.822   6.637
 5371POPC   C3A68777  32.203  25.720   7.019
 5371POPC   C4A68778  32.083  26.045   7.302
 5371POPC   C1B68779  32.550  26.146   6.210
 5371POPC   C2B68780  32.774  26.123   6.608
 5371POPC   C3B68781  32.495  26.169   7.014
 5371POPC   C4B68782  32.502  26.324   7.458
 5372POPC   NC368783  41.085  20.695   5.458
 5372POPC   PO468784  40.444  20.760   5.515
 5372POPC   GL168785  40.722  20.564   5.836
 5372POPC   GL268786  41.035  20.311   5.788
 5372POPC   C1A68787  40.666  20.691   6.261
 5372POPC   D2A68788  40.538  20.895   6.623
 5372POPC   C3A68789  40.609  20.674   6.986
 5372POPC   C4A68790  40.780  20.853   7.352
 5372POPC   C1B68791  40.902  20.231   6.209
 5372POPC   C2B68792  40.797  20.301   6.627
 5372POPC   C3B68793  41.047  20.403   6.990
 5372POPC   C4B68794  41.004  20.410   7.437
 5373POPC   NC368795  42.496  25.066   5.119
 5373POPC   PO468796  43.037  25.330   5.501
 5373POPC   GL168797  43.024  25.299   5.912
 5373POPC   GL268798  43.120  25.641   5.909
 5373POPC   C1A68799  42.991  25.139   6.339
 5373POPC   D2A68800  43.376  25.044   6.574
 5373POPC   C3A68801  43.384  25.116   6.978
 5373POPC   C4A68802  43.214  24.952   7.340
 5373POPC   C1B68803  43.026  25.661   6.320
 5373POPC   C2B68804  43.157  25.863   6.653
 5373POPC   C3B68805  43.301  25.635   6.961
 5373POPC   C4B68806  43.155  25.446   7.297
 5374POPC   NC368807  27.119  35.530   5.370
 5374POPC   PO468808  26.489  35.788   5.323
 5374POPC   GL168809  26.708  35.489   5.687
 5374POPC   GL268810  27.028  35.252   5.781
 5374POPC   C1A68811  26.665  35.285   6.114
 5374POPC   D2A68812  26.755  35.297   6.532
 5374POPC   C3A68813  26.797  35.003   6.834
 5374POPC   C4A68814  26.708  35.262   7.158
 5374POPC   C1B68815  27.068  35.610   6.074
 5374POPC   C2B68816  27.139  35.665   6.507
 5374POPC   C3B68817  27.130  35.432   6.889
 5374POPC   C4B68818  27.083  35.588   7.305
 5375POPC   NC368819  16.794  25.536   5.094
 5375POPC   PO468820  16.567  24.992   5.423
 5375POPC   GL168821  16.607  25.211   5.832
 5375POPC   GL268822  16.345  25.437   5.931
 5375POPC   C1A68823  16.727  25.307   6.287
 5375POPC   D2A68824  16.712  25.182   6.723
 5375POPC   C3A68825  16.992  25.301   7.070
 5375POPC   C4A68826  16.846  25.395   7.482
 5375POPC   C1B68827  16.365  25.676   6.323
 5375POPC   C2B68828  16.411  25.604   6.771
 5375POPC   C3B68829  16.378  25.405   7.185
 5375POPC   C4B68830  16.356  25.471   7.629
 5376POPC   NC368831  22.890  44.727   5.273
 5376POPC   PO468832  23.298  44.336   5.260
 5376POPC   GL168833  23.046  44.454   5.713
 5376POPC   GL268834  22.902  44.805   5.818
 5376POPC   C1A68835  22.898  44.425   6.188
 5376POPC   D2A68836  22.772  44.517   6.645
 5376POPC   C3A68837  22.931  44.414   7.096
 5376POPC   C4A68838  23.286  44.645   7.352
 5376POPC   C1B68839  22.634  44.855   6.212
 5376POPC   C2B68840  22.675   0.045   6.633
 5376POPC   C3B68841  22.652  44.850   7.043
 5376POPC   C4B68842  22.500  44.729   7.439
 5377POPC   NC368843   8.101  37.958   5.338
 5377POPC   PO468844   8.516  38.402   5.340
 5377POPC   GL168845   8.227  38.597   5.646
 5377POPC   GL268846   7.937  38.357   5.692
 5377POPC   C1A68847   8.192  38.649   6.110
 5377POPC   D2A68848   8.320  38.358   6.443
 5377POPC   C3A68849   8.202  38.497   6.860
 5377POPC   C4A68850   8.444  38.360   7.189
 5377POPC   C1B68851   7.947  38.177   6.122
 5377POPC   C2B68852   7.830  38.262   6.569
 5377POPC   C3B68853   7.865  38.055   6.985
 5377POPC   C4B68854   7.962  38.269   7.388
 5378POPC   NC368855   9.586   2.053   5.386
 5378POPC   PO468856  10.016   1.553   5.483
 5378POPC   GL168857   9.770   1.845   5.827
 5378POPC   GL268858   9.426   2.044   5.864
 5378POPC   C1A68859   9.647   1.921   6.287
 5378POPC   D2A68860   9.709   1.715   6.643
 5378POPC   C3A68861   9.791   2.046   6.914
 5378POPC   C4A68862   9.835   2.021   7.319
 5378POPC   C1B68863   9.434   2.369   6.238
 5378POPC   C2B68864   9.527   2.436   6.706
 5378POPC   C3B68865   9.364   2.228   7.146
 5378POPC   C4B68866   9.464   2.186   7.615
 5379POPC   NC368867  13.451  15.556   5.427
 5379POPC   PO468868  13.595  16.224   5.405
 5379POPC   GL168869  13.656  15.991   5.766
 5379POPC   GL268870  13.286  15.979   5.768
 5379POPC   C1A68871  13.853  16.062   6.189
 5379POPC   D2A68872  13.772  15.923   6.624
 5379POPC   C3A68873  13.851  16.099   7.002
 5379POPC   C4A68874  13.743  15.958   7.364
 5379POPC   C1B68875  13.351  15.895   6.203
 5379POPC   C2B68876  13.377  15.638   6.551
 5379POPC   C3B68877  13.370  15.810   6.975
 5379POPC   C4B68878  13.318  15.698   7.405
 5380POPC   NC368879   7.383  30.430   5.328
 5380POPC   PO468880   7.296  31.104   5.308
 5380POPC   GL168881   7.223  30.892   5.696
 5380POPC   GL268882   7.528  30.720   5.749
 5380POPC   C1A68883   7.320  30.954   6.156
 5380POPC   D2A68884   7.425  30.753   6.554
 5380POPC   C3A68885   7.291  30.954   6.925
 5380POPC   C4A68886   6.988  30.805   7.169
 5380POPC   C1B68887   7.694  30.596   6.151
 5380POPC   C2B68888   7.821  30.430   6.576
 5380POPC   C3B68889   7.679  30.606   6.981
 5380POPC   C4B68890   7.707  30.608   7.422
 5381POPC   NC368891  38.215  38.475   5.498
 5381POPC   PO468892  38.786  38.118   5.666
 5381POPC   GL168893  38.522  38.388   5.903
 5381POPC   GL268894  38.364  38.738   5.905
 5381POPC   C1A68895  38.363  38.374   6.300
 5381POPC   D2A68896  38.561  38.255   6.695
 5381POPC   C3A68897  38.505  38.433   7.074
 5381POPC   C4A68898  38.744  38.615   7.396
 5381POPC   C1B68899  38.001  38.749   6.191
 5381POPC   C2B68900  38.034  38.614   6.609
 5381POPC   C3B68901  38.173  38.804   6.985
 5381POPC   C4B68902  38.156  38.635   7.408
 5382POPC   NC368903  15.478  18.945   5.322
 5382POPC   PO468904  15.142  19.424   5.363
 5382POPC   GL168905  15.138  19.382   5.825
 5382POPC   GL268906  15.117  19.027   5.861
 5382POPC   C1A68907  14.927  19.373   6.271
 5382POPC   D2A68908  14.760  19.182   6.680
 5382POPC   C3A68909  14.958  19.176   7.123
 5382POPC   C4A68910  15.186  19.167   7.536
 5382POPC   C1B68911  15.176  18.924   6.315
 5382POPC   C2B68912  15.265  19.067   6.729
 5382POPC   C3B68913  15.441  18.978   7.127
 5382POPC   C4B68914  15.530  18.782   7.521
 5383POPC   NC368915  27.227  34.788   5.375
 5383POPC   PO468916  27.719  34.282   5.449
 5383POPC   GL168917  27.448  34.489   5.745
 5383POPC   GL268918  27.528  34.862   5.776
 5383POPC   C1A68919  27.488  34.499   6.170
 5383POPC   D2A68920  27.694  34.255   6.477
 5383POPC   C3A68921  27.525  34.423   6.831
 5383POPC   C4A68922  27.552  34.265   7.245
 5383POPC   C1B68923  27.791  34.950   6.116
 5383POPC   C2B68924  27.755  34.774   6.513
 5383POPC   C3B68925  27.899  34.756   6.899
 5383POPC   C4B68926  27.673  34.761   7.239
 5384POPC   NC368927   1.684  30.400   5.058
 5384POPC   PO468928   2.243  30.566   5.507
 5384POPC   GL168929   2.032  30.699   5.867
 5384POPC   GL268930   1.871  30.992   5.841
 5384POPC   C1A68931   2.125  30.607   6.284
 5384POPC   D2A68932   2.254  30.349   6.637
 5384POPC   C3A68933   2.181  30.543   7.023
 5384POPC   C4A68934   1.783  30.417   7.195
 5384POPC   C1B68935   2.062  31.125   6.243
 5384POPC   C2B68936   2.061  30.954   6.665
 5384POPC   C3B68937   1.835  30.926   7.070
 5384POPC   C4B68938   2.024  30.817   7.478
 5385POPC   NC368939  41.882   7.140   5.528
 5385POPC   PO468940  41.276   7.291   5.479
 5385POPC   GL168941  41.571   7.461   5.801
 5385POPC   GL268942  41.896   7.655   5.652
 5385POPC   C1A68943  41.650   7.273   6.222
 5385POPC   D2A68944  41.629   7.130   6.665
 5385POPC   C3A68945  41.320   7.261   6.986
 5385POPC   C4A68946  41.389   7.600   7.268
 5385POPC   C1B68947  41.946   7.685   6.095
 5385POPC   C2B68948  41.626   7.750   6.426
 5385POPC   C3B68949  41.665   7.641   6.843
 5385POPC   C4B68950  41.895   7.735   7.200
 5386POPC   NC368951  13.669  24.212   5.300
 5386POPC   PO468952  13.401  24.932   5.408
 5386POPC   GL168953  13.537  24.711   5.799
 5386POPC   GL268954  13.537  24.350   5.777
 5386POPC   C1A68955  13.631  24.580   6.243
 5386POPC   D2A68956  13.500  24.730   6.624
 5386POPC   C3A68957  13.651  24.581   6.966
 5386POPC   C4A68958  13.470  24.564   7.362
 5386POPC   C1B68959  13.868  24.175   6.060
 5386POPC   C2B68960  13.909  24.017   6.465
 5386POPC   C3B68961  13.964  24.192   6.860
 5386POPC   C4B68962  13.889  24.267   7.312
 5387POPC   NC368963  32.127  31.816   5.356
 5387POPC   PO468964  32.540  31.389   5.415
 5387POPC   GL168965  32.420  31.298   5.802
 5387POPC   GL268966  32.483  31.675   5.855
 5387POPC   C1A68967  32.445  31.308   6.275
 5387POPC   D2A68968  32.527  31.601   6.633
 5387POPC   C3A68969  32.430  31.565   7.087
 5387POPC   C4A68970  32.198  31.230   7.348
 5387POPC   C1B68971  32.053  31.552   6.044
 5387POPC   C2B68972  31.941  31.299   6.432
 5387POPC   C3B68973  32.008  31.448   6.838
 5387POPC   C4B68974  31.918  31.635   7.232
 5388POPC   NC368975  26.651  16.475   5.132
 5388POPC   PO468976  26.117  16.891   5.444
 5388POPC   GL168977  25.911  16.736   5.785
 5388POPC   GL268978  26.207  16.629   5.922
 5388POPC   C1A68979  25.823  16.752   6.225
 5388POPC   D2A68980  26.141  16.671   6.530
 5388POPC   C3A68981  26.016  16.663   6.954
 5388POPC   C4A68982  25.773  16.713   7.324
 5388POPC   C1B68983  26.165  17.098   6.067
 5388POPC   C2B68984  26.205  17.323   6.443
 5388POPC   C3B68985  26.300  17.097   6.815
 5388POPC   C4B68986  26.072  17.100   7.226
 5389POPC   NC368987  31.083  20.596   5.465
 5389POPC   PO468988  31.721  20.383   5.222
 5389POPC   GL168989  31.625  20.413   5.693
 5389POPC   GL268990  31.278  20.310   5.850
 5389POPC   C1A68991  31.836  20.591   6.086
 5389POPC   D2A68992  31.763  20.806   6.482
 5389POPC   C3A68993  31.628  20.628   6.846
 5389POPC   C4A68994  31.495  20.551   7.270
 5389POPC   C1B68995  31.316  20.652   6.195
 5389POPC   C2B68996  31.093  20.847   6.579
 5389POPC   C3B68997  31.147  20.912   7.044
 5389POPC   C4B68998  31.474  21.051   7.318
 5390POPC   NC368999  18.933  42.764   5.387
 5390POPC   PO469000  19.332  43.132   5.475
 5390POPC   GL169001  19.010  43.113   5.808
 5390POPC   GL269002  18.899  42.799   5.880
 5390POPC   C1A69003  18.907  43.167   6.274
 5390POPC   D2A69004  18.903  43.336   6.705
 5390POPC   C3A69005  19.097  43.187   7.076
 5390POPC   C4A69006  19.336  42.992   7.437
 5390POPC   C1B69007  18.756  42.693   6.257
 5390POPC   C2B69008  18.998  42.773   6.622
 5390POPC   C3B69009  18.836  42.756   7.029
 5390POPC   C4B69010  18.808  42.966   7.420
 5391POPC   NC369011  25.319  31.512   5.352
 5391POPC   PO469012  25.561  30.951   5.413
 5391POPC   GL169013  25.361  31.261   5.787
 5391POPC   GL269014  25.054  31.539   5.784
 5391POPC   C1A69015  25.339  31.588   6.178
 5391POPC   D2A69016  25.074  31.579   6.529
 5391POPC   C3A69017  25.338  31.624   6.881
 5391POPC   C4A69018  25.429  31.466   7.288
 5391POPC   C1B69019  24.990  31.213   6.127
 5391POPC   C2B69020  25.020  31.045   6.528
 5391POPC   C3B69021  24.980  31.246   6.918
 5391POPC   C4B69022  24.979  31.228   7.334
 5392POPC   NC369023   2.144  25.108   5.600
 5392POPC   PO469024   2.042  24.430   5.404
 5392POPC   GL169025   2.102  24.630   5.815
 5392POPC   GL269026   1.784  24.767   5.788
 5392POPC   C1A69027   2.085  24.492   6.269
 5392POPC   D2A69028   2.323  24.407   6.657
 5392POPC   C3A69029   2.032  24.276   6.959
 5392POPC   C4A69030   2.071  24.443   7.352
 5392POPC   C1B69031   1.672  24.812   6.222
 5392POPC   C2B69032   1.658  24.532   6.604
 5392POPC   C3B69033   1.658  24.609   7.072
 5392POPC   C4B69034   1.501  24.632   7.516
 5393POPC   NC369035  41.249   4.566   5.393
 5393POPC   PO469036  41.550   3.924   5.341
 5393POPC   GL169037  41.526   4.112   5.768
 5393POPC   GL269038  41.500   4.447   5.831
 5393POPC   C1A69039  41.411   4.031   6.220
 5393POPC   D2A69040  41.586   4.064   6.670
 5393POPC   C3A69041  41.419   4.064   7.126
 5393POPC   C4A69042  41.295   4.069   7.613
 5393POPC   C1B69043  41.746   4.401   6.203
 5393POPC   C2B69044  41.714   4.590   6.614
 5393POPC   C3B69045  41.749   4.432   7.018
 5393POPC   C4B69046  41.582   4.447   7.441
 5394POPC   NC369047  16.178  26.056   5.639
 5394POPC   PO469048  15.726  25.630   5.469
 5394POPC   GL169049  15.695  25.906   5.830
 5394POPC   GL269050  15.701  26.280   5.752
 5394POPC   C1A69051  15.861  25.879   6.262
 5394POPC   D2A69052  16.099  26.042   6.636
 5394POPC   C3A69053  16.034  25.811   7.036
 5394POPC   C4A69054  15.918  25.681   7.444
 5394POPC   C1B69055  15.715  26.385   6.197
 5394POPC   C2B69056  15.597  26.191   6.574
 5394POPC   C3B69057  15.724  26.209   6.964
 5394POPC   C4B69058  16.017  26.424   7.140
 5395POPC   NC369059  12.105  20.980   5.585
 5395POPC   PO469060  12.343  20.454   5.362
 5395POPC   GL169061  12.269  20.486   5.795
 5395POPC   GL269062  11.897  20.522   5.750
 5395POPC   C1A69063  12.269  20.723   6.214
 5395POPC   D2A69064  12.171  20.907   6.625
 5395POPC   C3A69065  12.364  20.704   6.962
 5395POPC   C4A69066  12.209  20.636   7.361
 5395POPC   C1B69067  11.946  20.333   6.167
 5395POPC   C2B69068  11.909  20.478   6.578
 5395POPC   C3B69069  12.012  20.330   6.984
 5395POPC   C4B69070  11.760  20.349   7.334
 5396POPC   NC369071  10.594  37.986   5.574
 5396POPC   PO469072   9.994  37.613   5.377
 5396POPC   GL169073  10.268  37.643   5.770
 5396POPC   GL269074  10.588  37.501   5.825
 5396POPC   C1A69075  10.344  37.872   6.170
 5396POPC   D2A69076  10.235  38.198   6.511
 5396POPC   C3A69077  10.246  37.987   6.925
 5396POPC   C4A69078  10.608  37.948   7.215
 5396POPC   C1B69079  10.716  37.550   6.268
 5396POPC   C2B69080  10.661  37.679   6.704
 5396POPC   C3B69081  10.802  37.468   7.087
 5396POPC   C4B69082  10.624  37.511   7.500
 5397POPC   NC369083  31.368  31.731   5.510
 5397POPC   PO469084  31.370  32.350   5.347
 5397POPC   GL169085  31.467  32.332   5.792
 5397POPC   GL269086  31.469  32.691   5.956
 5397POPC   C1A69087  31.557  31.991   6.138
 5397POPC   D2A69088  31.838  31.818   6.474
 5397POPC   C3A69089  31.640  31.903   6.886
 5397POPC   C4A69090  31.667  32.188   7.233
 5397POPC   C1B69091  31.248  32.396   6.241
 5397POPC   C2B69092  31.196  32.097   6.577
 5397POPC   C3B69093  31.216  32.246   7.009
 5397POPC   C4B69094  31.247  32.519   7.400
 5398POPC   NC369095  43.272  14.887   5.401
 5398POPC   PO469096  43.217  15.539   5.327
 5398POPC   GL169097  43.411  15.338   5.695
 5398POPC   GL269098  43.079  15.416   5.807
 5398POPC   C1A69099  43.340  15.097   6.104
 5398POPC   D2A69100  43.171  14.891   6.488
 5398POPC   C3A69101  43.124  15.111   6.873
 5398POPC   C4A69102  43.362  15.082   7.214
 5398POPC   C1B69103  42.909  15.467   6.195
 5398POPC   C2B69104  42.747  15.314   6.573
 5398POPC   C3B69105  42.756  15.518   6.971
 5398POPC   C4B69106  42.733  15.350   7.357
 5399POPC   NC369107  32.374  32.740   5.471
 5399POPC   PO469108  32.495  32.087   5.397
 5399POPC   GL169109  32.261  32.156   5.757
 5399POPC   GL269110  32.327  32.494   5.924
 5399POPC   C1A69111  32.266  32.028   6.179
 5399POPC   D2A69112  32.248  32.283   6.529
 5399POPC   C3A69113  32.337  32.040   6.867
 5399POPC   C4A69114  32.168  32.069   7.239
 5399POPC   C1B69115  32.574  32.630   6.290
 5399POPC   C2B69116  32.674  32.524   6.746
 5399POPC   C3B69117  32.513  32.482   7.188
 5399POPC   C4B69118  32.411  32.652   7.600
 5400POPC   NC369119   0.098  39.774   5.447
 5400POPC   PO469120   0.472  40.290   5.404
 5400POPC   GL169121   0.622  40.090   5.810
 5400POPC   GL269122   0.470  39.770   5.812
 5400POPC   C1A69123   0.647  39.983   6.272
 5400POPC   D2A69124   0.424  40.098   6.653
 5400POPC   C3A69125   0.631  40.082   7.067
 5400POPC   C4A69126   0.436  40.094   7.487
 5400POPC   C1B69127   0.259  39.678   6.208
 5400POPC   C2B69128   0.316  39.600   6.664
 5400POPC   C3B69129   0.198  39.788   7.065
 5400POPC   C4B69130   0.312  39.589   7.459
 5401POPC   NC369131   9.552   4.513   5.423
 5401POPC   PO469132  10.077   4.026   5.399
 5401POPC   GL169133   9.907   4.255   5.758
 5401POPC   GL269134   9.963   4.589   5.745
 5401POPC   C1A69135   9.763   4.203   6.198
 5401POPC   D2A69136   9.710   3.926   6.554
 5401POPC   C3A69137   9.839   4.112   6.913
 5401POPC   C4A69138   9.695   4.360   7.192
 5401POPC   C1B69139  10.145   4.540   6.147
 5401POPC   C2B69140   9.970   4.522   6.573
 5401POPC   C3B69141   9.996   4.717   6.989
 5401POPC   C4B69142   9.956   4.705   7.471
 5402POPC   NC369143  18.779  13.447   5.270
 5402POPC   PO469144  18.314  13.838   5.609
 5402POPC   GL169145  18.218  13.473   5.831
 5402POPC   GL269146  18.571  13.406   5.781
 5402POPC   C1A69147  18.019  13.359   6.257
 5402POPC   D2A69148  18.153  13.427   6.708
 5402POPC   C3A69149  18.035  13.711   7.051
 5402POPC   C4A69150  17.965  13.448   7.445
 5402POPC   C1B69151  18.531  13.451   6.249
 5402POPC   C2B69152  18.726  13.384   6.642
 5402POPC   C3B69153  18.576  13.497   7.030
 5402POPC   C4B69154  18.408  13.677   7.386
 5403POPC   NC369155  20.969  17.815   5.368
 5403POPC   PO469156  21.532  17.437   5.305
 5403POPC   GL169157  21.565  17.459   5.764
 5403POPC   GL269158  21.227  17.552   5.828
 5403POPC   C1A69159  21.655  17.275   6.217
 5403POPC   D2A69160  21.669  17.169   6.679
 5403POPC   C3A69161  21.517  17.465   6.971
 5403POPC   C4A69162  21.142  17.481   7.178
 5403POPC   C1B69163  21.236  17.587   6.269
 5403POPC   C2B69164  21.106  17.702   6.668
 5403POPC   C3B69165  21.272  17.928   6.969
 5403POPC   C4B69166  21.504  17.860   7.334
 5404POPC   NC369167   2.441  34.138   5.536
 5404POPC   PO469168   2.665  33.502   5.329
 5404POPC   GL169169   2.745  33.719   5.741
 5404POPC   GL269170   2.450  33.707   5.858
 5404POPC   C1A69171   2.834  33.910   6.160
 5404POPC   D2A69172   2.688  33.757   6.590
 5404POPC   C3A69173   2.853  33.990   6.970
 5404POPC   C4A69174   3.073  34.114   7.338
 5404POPC   C1B69175   2.337  33.996   6.208
 5404POPC   C2B69176   2.127  33.965   6.605
 5404POPC   C3B69177   2.317  33.966   7.003
 5404POPC   C4B69178   2.553  33.690   7.241
 5405POPC   NC369179  25.767  19.074   5.436
 5405POPC   PO469180  26.258  18.713   5.433
 5405POPC   GL169181  26.074  18.826   5.818
 5405POPC   GL269182  25.984  19.168   5.864
 5405POPC   C1A69183  26.116  18.852   6.255
 5405POPC   D2A69184  25.896  18.830   6.615
 5405POPC   C3A69185  26.178  18.877   6.947
 5405POPC   C4A69186  25.997  18.737   7.327
 5405POPC   C1B69187  26.002  19.372   6.208
 5405POPC   C2B69188  26.161  19.283   6.589
 5405POPC   C3B69189  26.262  19.383   6.978
 5405POPC   C4B69190  26.188  19.200   7.350
 5406POPC   NC369191  27.267  26.974   5.504
 5406POPC   PO469192  27.856  26.683   5.402
 5406POPC   GL169193  27.686  26.561   5.806
 5406POPC   GL269194  27.337  26.495   5.743
 5406POPC   C1A69195  27.517  26.826   6.156
 5406POPC   D2A69196  27.462  27.129   6.499
 5406POPC   C3A69197  27.516  27.063   6.951
 5406POPC   C4A69198  27.563  27.059   7.410
 5406POPC   C1B69199  27.404  26.337   6.175
 5406POPC   C2B69200  27.342  26.564   6.583
 5406POPC   C3B69201  27.480  26.550   7.017
 5406POPC   C4B69202  27.527  26.573   7.472
 5407POPC   NC369203  23.593  12.842   5.085
 5407POPC   PO469204  23.999  12.801   5.337
 5407POPC   GL169205  23.709  12.756   5.718
 5407POPC   GL269206  23.467  13.027   5.820
 5407POPC   C1A69207  23.625  12.642   6.175
 5407POPC   D2A69208  23.777  12.496   6.603
 5407POPC   C3A69209  23.678  12.703   7.010
 5407POPC   C4A69210  23.830  13.046   7.274
 5407POPC   C1B69211  23.513  13.128   6.286
 5407POPC   C2B69212  23.380  12.835   6.612
 5407POPC   C3B69213  23.194  12.818   7.044
 5407POPC   C4B69214  23.420  12.813   7.466
 5408POPC   NC369215  26.955  31.249   5.457
 5408POPC   PO469216  26.737  31.891   5.427
 5408POPC   GL169217  26.951  31.705   5.765
 5408POPC   GL269218  26.685  31.482   5.838
 5408POPC   C1A69219  26.927  31.721   6.232
 5408POPC   D2A69220  26.843  31.830   6.670
 5408POPC   C3A69221  27.037  31.557   6.964
 5408POPC   C4A69222  27.193  31.644   7.356
 5408POPC   C1B69223  26.634  31.268   6.246
 5408POPC   C2B69224  26.649  31.282   6.695
 5408POPC   C3B69225  26.624  31.333   7.138
 5408POPC   C4B69226  26.277  31.461   7.423
 5409POPC   NC369227  37.702  17.583   5.209
 5409POPC   PO469228  37.014  17.846   5.289
 5409POPC   GL169229  36.888  17.567   5.699
 5409POPC   GL269230  37.115  17.243   5.688
 5409POPC   C1A69231  36.766  17.534   6.143
 5409POPC   D2A69232  37.035  17.584   6.485
 5409POPC   C3A69233  36.941  17.528   6.919
 5409POPC   C4A69234  36.825  17.453   7.323
 5409POPC   C1B69235  37.138  17.192   6.155
 5409POPC   C2B69236  37.142  17.117   6.628
 5409POPC   C3B69237  37.209  17.114   7.074
 5409POPC   C4B69238  37.332  17.299   7.444
 5410POPC   NC369239  24.598  39.553   5.288
 5410POPC   PO469240  25.068  39.033   5.391
 5410POPC   GL169241  24.780  39.269   5.732
 5410POPC   GL269242  24.428  39.233   5.886
 5410POPC   C1A69243  24.722  39.567   6.110
 5410POPC   D2A69244  24.397  39.474   6.435
 5410POPC   C3A69245  24.548  39.570   6.848
 5410POPC   C4A69246  24.450  39.393   7.236
 5410POPC   C1B69247  24.674  39.075   6.248
 5410POPC   C2B69248  24.610  39.030   6.693
 5410POPC   C3B69249  24.326  38.938   7.042
 5410POPC   C4B69250  24.273  38.986   7.492
 5411POPC   NC369251  25.500   2.655   5.496
 5411POPC   PO469252  25.018   3.188   5.410
 5411POPC   GL169253  25.297   3.051   5.783
 5411POPC   GL269254  25.147   2.729   5.885
 5411POPC   C1A69255  25.499   2.934   6.230
 5411POPC   D2A69256  25.694   2.712   6.635
 5411POPC   C3A69257  25.568   2.822   7.043
 5411POPC   C4A69258  25.249   3.111   7.165
 5411POPC   C1B69259  25.117   2.542   6.293
 5411POPC   C2B69260  24.832   2.664   6.634
 5411POPC   C3B69261  24.838   2.816   7.030
 5411POPC   C4B69262  25.149   2.538   7.189
 5412POPC   NC369263   0.076  41.338   5.291
 5412POPC   PO469264   0.413  41.899   5.399
 5412POPC   GL169265   0.365  41.621   5.755
 5412POPC   GL269266   0.441  41.245   5.659
 5412POPC   C1A69267   0.176  41.701   6.193
 5412POPC   D2A69268   0.075  41.796   6.655
 5412POPC   C3A69269   0.368  41.689   7.015
 5412POPC   C4A69270   0.839  41.678   7.114
 5412POPC   C1B69271   0.466  41.258   6.117
 5412POPC   C2B69272   0.485  41.443   6.524
 5412POPC   C3B69273   0.433  41.204   6.877
 5412POPC   C4B69274   0.647  41.202   7.228
 5413POPC   NC369275  39.997  36.084   5.303
 5413POPC   PO469276  39.656  36.626   5.463
 5413POPC   GL169277  39.741  36.356   5.856
 5413POPC   GL269278  39.836  35.999   5.796
 5413POPC   C1A69279  39.928  36.245   6.282
 5413POPC   D2A69280  40.077  36.184   6.730
 5413POPC   C3A69281  39.895  36.409   7.100
 5413POPC   C4A69282  39.749  36.511   7.528
 5413POPC   C1B69283  39.659  35.807   6.160
 5413POPC   C2B69284  39.690  35.887   6.586
 5413POPC   C3B69285  39.831  35.780   6.998
 5413POPC   C4B69286  39.738  35.984   7.365
 5414POPC   NC369287  43.515  12.127   5.519
 5414POPC   PO469288  44.139  11.924   5.364
 5414POPC   GL169289  44.020  12.010   5.765
 5414POPC   GL269290  43.740  11.792   5.851
 5414POPC   C1A69291  44.208  12.090   6.172
 5414POPC   D2A69292  44.079  12.017   6.587
 5414POPC   C3A69293  44.020  12.326   6.908
 5414POPC   C4A69294  44.088  12.217   7.356
 5414POPC   C1B69295  43.697  12.123   6.187
 5414POPC   C2B69296  43.606  12.312   6.600
 5414POPC   C3B69297  43.524  12.317   7.027
 5414POPC   C4B69298  43.584  12.162   7.464
 5415POPC   NC369299  42.636  24.315   5.305
 5415POPC   PO469300  42.255  24.877   5.459
 5415POPC   GL169301  42.486  24.556   5.739
 5415POPC   GL269302  42.310  24.217   5.695
 5415POPC   C1A69303  42.622  24.513   6.195
 5415POPC   D2A69304  42.760  24.604   6.636
 5415POPC   C3A69305  42.427  24.629   6.965
 5415POPC   C4A69306  42.391  24.331   7.302
 5415POPC   C1B69307  42.166  24.270   6.129
 5415POPC   C2B69308  42.181  24.306   6.595
 5415POPC   C3B69309  41.995  24.196   6.999
 5415POPC   C4B69310  41.933  24.239   7.483
 5416POPC   NC369311  27.981   2.257   5.255
 5416POPC   PO469312  28.381   2.794   5.403
 5416POPC   GL169313  28.428   2.804   5.821
 5416POPC   GL269314  28.696   2.649   5.880
 5416POPC   C1A69315  28.431   2.737   6.282
 5416POPC   D2A69316  28.363   2.808   6.682
 5416POPC   C3A69317  28.420   2.604   7.049
 5416POPC   C4A69318  28.224   2.809   7.402
 5416POPC   C1B69319  28.746   3.083   6.104
 5416POPC   C2B69320  28.789   3.114   6.541
 5416POPC   C3B69321  28.668   3.120   6.955
 5416POPC   C4B69322  28.726   2.885   7.339
 5417POPC   NC369323   8.803  38.025   5.347
 5417POPC   PO469324   9.215  38.521   5.537
 5417POPC   GL169325   9.108  38.276   5.912
 5417POPC   GL269326   9.179  38.553   6.126
 5417POPC   C1A69327   8.829  38.237   6.319
 5417POPC   D2A69328   8.934  38.593   6.615
 5417POPC   C3A69329   9.156  38.580   7.010
 5417POPC   C4A69330   8.937  38.353   7.310
 5417POPC   C1B69331   8.717  38.727   6.160
 5417POPC   C2B69332   8.465  38.835   6.558
 5417POPC   C3B69333   8.629  38.811   6.983
 5417POPC   C4B69334   8.703  38.774   7.417
 5418POPC   NC369335   7.238  34.330   5.245
 5418POPC   PO469336   7.776  34.728   5.356
 5418POPC   GL169337   7.422  34.690   5.608
 5418POPC   GL269338   7.541  34.389   5.694
 5418POPC   C1A69339   7.424  34.798   6.046
 5418POPC   D2A69340   7.577  34.642   6.454
 5418POPC   C3A69341   7.523  34.926   6.778
 5418POPC   C4A69342   7.375  34.890   7.193
 5418POPC   C1B69343   7.400  34.298   6.080
 5418POPC   C2B69344   7.256  34.244   6.487
 5418POPC   C3B69345   7.325  34.436   6.898
 5418POPC   C4B69346   7.569  34.347   7.264
 5419POPC   NC369347  32.544   4.517   5.316
 5419POPC   PO469348  32.003   4.128   5.370
 5419POPC   GL169349  32.188   4.305   5.745
 5419POPC   GL269350  32.350   4.623   5.794
 5419POPC   C1A69351  32.247   4.182   6.171
 5419POPC   D2A69352  32.041   4.006   6.508
 5419POPC   C3A69353  32.218   4.146   6.906
 5419POPC   C4A69354  32.451   4.058   7.299
 5419POPC   C1B69355  32.021   4.664   6.129
 5419POPC   C2B69356  32.074   4.527   6.543
 5419POPC   C3B69357  32.002   4.638   6.962
 5419POPC   C4B69358  32.342   4.553   7.216
 5420POPC   NC369359  37.314  18.240   5.372
 5420POPC   PO469360  36.698  18.452   5.498
 5420POPC   GL169361  36.970  18.377   5.816
 5420POPC   GL269362  37.049  18.050   5.772
 5420POPC   C1A69363  36.791  18.481   6.210
 5420POPC   D2A69364  36.610  18.303   6.573
 5420POPC   C3A69365  36.801  18.391   6.956
 5420POPC   C4A69366  36.978  18.426   7.378
 5420POPC   C1B69367  36.954  18.011   6.217
 5420POPC   C2B69368  37.129  18.071   6.632
 5420POPC   C3B69369  37.090  17.988   7.067
 5420POPC   C4B69370  36.729  17.973   7.338
 5421POPC   NC369371   3.084   7.723   5.083
 5421POPC   PO469372   2.682   7.387   5.500
 5421POPC   GL169373   2.735   7.429   5.904
 5421POPC   GL269374   2.861   7.753   6.023
 5421POPC   C1A69375   2.716   7.175   6.235
 5421POPC   D2A69376   3.037   7.148   6.524
 5421POPC   C3A69377   2.839   7.178   6.909
 5421POPC   C4A69378   3.071   7.262   7.252
 5421POPC   C1B69379   2.855   7.628   6.443
 5421POPC   C2B69380   2.701   7.690   6.862
 5421POPC   C3B69381   2.603   7.835   7.259
 5421POPC   C4B69382   2.528   7.876   7.706
 5422POPC   NC369383  27.292  31.958   5.438
 5422POPC   PO469384  27.414  31.225   5.477
 5422POPC   GL169385  27.603  31.512   5.762
 5422POPC   GL269386  27.877  31.255   5.804
 5422POPC   C1A69387  27.461  31.766   6.138
 5422POPC   D2A69388  27.338  31.624   6.554
 5422POPC   C3A69389  27.516  31.757   6.956
 5422POPC   C4A69390  27.717  31.693   7.319
 5422POPC   C1B69391  27.804  31.392   6.237
 5422POPC   C2B69392  27.924  31.487   6.681
 5422POPC   C3B69393  27.857  31.265   7.094
 5422POPC   C4B69394  27.514  30.974   7.196
 5423POPC   NC369395  41.995   4.103   5.414
 5423POPC   PO469396  42.594   4.284   5.364
 5423POPC   GL169397  42.435   4.424   5.735
 5423POPC   GL269398  42.101   4.563   5.703
 5423POPC   C1A69399  42.254   4.333   6.154
 5423POPC   D2A69400  42.071   4.222   6.561
 5423POPC   C3A69401  42.260   4.230   6.965
 5423POPC   C4A69402  42.042   4.204   7.366
 5423POPC   C1B69403  42.015   4.810   6.093
 5423POPC   C2B69404  42.203   4.718   6.496
 5423POPC   C3B69405  42.143   4.731   6.914
 5423POPC   C4B69406  42.318   4.644   7.320
 5424POPC   NC369407  36.921   6.999   5.309
 5424POPC   PO469408  36.948   6.275   5.339
 5424POPC   GL169409  36.984   6.618   5.647
 5424POPC   GL269410  36.965   6.360   5.841
 5424POPC   C1A69411  37.067   6.777   6.105
 5424POPC   D2A69412  36.886   6.894   6.533
 5424POPC   C3A69413  36.758   6.626   6.917
 5424POPC   C4A69414  36.866   6.660   7.377
 5424POPC   C1B69415  36.737   6.197   6.133
 5424POPC   C2B69416  36.590   6.321   6.516
 5424POPC   C3B69417  36.566   6.132   6.911
 5424POPC   C4B69418  36.729   6.173   7.284
 5425POPC   NC369419   2.489  25.972   5.233
 5425POPC   PO469420   1.930  26.357   5.496
 5425POPC   GL169421   1.999  26.048   5.861
 5425POPC   GL269422   2.190  25.785   5.719
 5425POPC   C1A69423   1.857  25.786   6.248
 5425POPC   D2A69424   1.789  25.754   6.727
 5425POPC   C3A69425   1.897  26.176   6.958
 5425POPC   C4A69426   1.572  26.445   7.168
 5425POPC   C1B69427   2.356  25.788   6.178
 5425POPC   C2B69428   2.267  25.913   6.610
 5425POPC   C3B69429   2.429  26.043   7.000
 5425POPC   C4B69430   2.321  26.105   7.419
 5426POPC   NC369431  27.606  27.915   5.495
 5426POPC   PO469432  27.164  27.413   5.594
 5426POPC   GL169433  27.500  27.436   5.940
 5426POPC   GL269434  27.799  27.674   5.910
 5426POPC   C1A69435  27.577  27.620   6.374
 5426POPC   D2A69436  27.350  27.954   6.636
 5426POPC   C3A69437  27.260  27.836   7.077
 5426POPC   C4A69438  27.523  27.550   7.331
 5426POPC   C1B69439  27.983  27.937   6.278
 5426POPC   C2B69440  27.882  28.086   6.708
 5426POPC   C3B69441  27.762  27.964   7.145
 5426POPC   C4B69442  27.786  27.849   7.638
 5427POPC   NC369443   2.431  20.086   5.197
 5427POPC   PO469444   2.863  19.690   5.427
 5427POPC   GL169445   2.865  19.957   5.781
 5427POPC   GL269446   2.746  19.653   5.953
 5427POPC   C1A69447   3.056  19.940   6.219
 5427POPC   D2A69448   2.863  19.612   6.505
 5427POPC   C3A69449   2.872  19.738   6.933
 5427POPC   C4A69450   2.996  20.032   7.233
 5427POPC   C1B69451   2.542  19.958   6.241
 5427POPC   C2B69452   2.266  19.735   6.486
 5427POPC   C3B69453   2.424  19.488   6.807
 5427POPC   C4B69454   2.435  19.607   7.212
 5428POPC   NC369455  31.734  29.525   5.368
 5428POPC   PO469456  31.398  28.923   5.275
 5428POPC   GL169457  31.359  29.196   5.693
 5428POPC   GL269458  31.231  29.496   5.675
 5428POPC   C1A69459  31.539  29.313   6.134
 5428POPC   D2A69460  31.453  29.424   6.580
 5428POPC   C3A69461  31.319  29.077   6.864
 5428POPC   C4A69462  31.572  28.866   7.167
 5428POPC   C1B69463  31.080  29.537   6.124
 5428POPC   C2B69464  30.924  29.381   6.517
 5428POPC   C3B69465  31.047  29.501   6.923
 5428POPC   C4B69466  31.381  29.429   7.246
 5429POPC   NC369467  31.181  39.070   5.345
 5429POPC   PO469468  31.595  39.503   5.308
 5429POPC   GL169469  31.533  39.205   5.704
 5429POPC   GL269470  31.191  39.065   5.844
 5429POPC   C1A69471  31.657  39.158   6.147
 5429POPC   D2A69472  31.825  39.424   6.496
 5429POPC   C3A69473  31.661  39.303   6.877
 5429POPC   C4A69474  31.553  39.458   7.236
 5429POPC   C1B69475  31.137  39.333   6.177
 5429POPC   C2B69476  31.272  39.485   6.564
 5429POPC   C3B69477  31.128  39.408   6.964
 5429POPC   C4B69478  31.206  39.078   7.244
 5430POPC   NC369479  43.674  19.232   5.286
 5430POPC   PO469480  43.941  18.672   5.426
 5430POPC   GL169481  43.928  19.086   5.724
 5430POPC   GL269482  43.630  19.362   5.763
 5430POPC   C1A69483  43.954  19.238   6.154
 5430POPC   D2A69484  44.060  18.990   6.510
 5430POPC   C3A69485  43.993  18.811   6.921
 5430POPC   C4A69486  44.149  19.071   7.242
 5430POPC   C1B69487  43.442  19.326   6.160
 5430POPC   C2B69488  43.634  19.268   6.558
 5430POPC   C3B69489  43.812  19.299   6.932
 5430POPC   C4B69490  43.701  19.325   7.344
 5431POPC   NC369491  35.997  18.799   5.367
 5431POPC   PO469492  36.393  19.369   5.395
 5431POPC   GL169493  36.182  19.111   5.732
 5431POPC   GL269494  36.374  18.791   5.750
 5431POPC   C1A69495  35.977  18.890   6.080
 5431POPC   D2A69496  36.013  19.109   6.439
 5431POPC   C3A69497  35.996  19.043   6.862
 5431POPC   C4A69498  36.085  19.446   7.035
 5431POPC   C1B69499  36.478  18.884   6.190
 5431POPC   C2B69500  36.317  18.727   6.572
 5431POPC   C3B69501  36.465  18.795   6.971
 5431POPC   C4B69502  36.229  18.900   7.294
 5432POPC   NC369503  16.687  28.358   5.374
 5432POPC   PO469504  15.969  28.383   5.385
 5432POPC   GL169505  15.966  28.335   5.807
 5432POPC   GL269506  15.820  28.661   5.847
 5432POPC   C1A69507  16.194  28.476   6.179
 5432POPC   D2A69508  16.037  28.577   6.590
 5432POPC   C3A69509  16.085  28.219   6.816
 5432POPC   C4A69510  16.150  28.164   7.243
 5432POPC   C1B69511  15.684  28.441   6.243
 5432POPC   C2B69512  15.583  28.363   6.682
 5432POPC   C3B69513  15.753  28.512   7.072
 5432POPC   C4B69514  16.009  28.633   7.391
 5433POPC   NC369515  39.715   7.217   5.500
 5433POPC   PO469516  40.312   7.497   5.561
 5433POPC   GL169517  40.084   7.341   5.871
 5433POPC   GL269518  40.271   7.537   6.092
 5433POPC   C1A69519  40.032   7.108   6.241
 5433POPC   D2A69520  40.099   7.208   6.661
 5433POPC   C3A69521  39.757   7.184   6.938
 5433POPC   C4A69522  39.962   7.055   7.285
 5433POPC   C1B69523  39.927   7.638   6.319
 5433POPC   C2B69524  39.900   7.680   6.745
 5433POPC   C3B69525  40.285   7.649   6.928
 5433POPC   C4B69526  40.426   7.472   7.261
 5434POPC   NC369527  19.582  38.568   5.324
 5434POPC   PO469528  20.091  38.837   5.414
 5434POPC   GL169529  20.154  38.637   5.811
 5434POPC   GL269530  19.811  38.573   5.799
 5434POPC   C1A69531  20.278  38.697   6.292
 5434POPC   D2A69532  20.227  38.772   6.779
 5434POPC   C3A69533  20.120  38.453   7.132
 5434POPC   C4A69534  19.823  38.230   7.421
 5434POPC   C1B69535  19.810  38.857   6.175
 5434POPC   C2B69536  19.728  38.764   6.634
 5434POPC   C3B69537  19.624  38.556   7.041
 5434POPC   C4B69538  19.669  38.715   7.453
 5435POPC   NC369539  10.812  35.506   5.290
 5435POPC   PO469540  10.453  36.101   5.073
 5435POPC   GL169541  10.413  36.062   5.566
 5435POPC   GL269542  10.729  35.900   5.672
 5435POPC   C1A69543  10.335  35.986   6.049
 5435POPC   D2A69544  10.479  35.939   6.522
 5435POPC   C3A69545  10.442  36.084   6.980
 5435POPC   C4A69546  10.433  36.308   7.391
 5435POPC   C1B69547  10.817  36.151   6.055
 5435POPC   C2B69548  10.961  36.124   6.499
 5435POPC   C3B69549  10.926  35.902   6.874
 5435POPC   C4B69550  10.880  36.078   7.264
 5436POPC   NC369551  36.463  43.249   5.323
 5436POPC   PO469552  36.006  42.706   5.236
 5436POPC   GL169553  36.224  42.890   5.621
 5436POPC   GL269554  36.221  43.237   5.810
 5436POPC   C1A69555  36.106  42.821   6.082
 5436POPC   D2A69556  36.237  42.993   6.481
 5436POPC   C3A69557  36.070  42.865   6.888
 5436POPC   C4A69558  36.230  42.980   7.288
 5436POPC   C1B69559  35.853  43.292   6.138
 5436POPC   C2B69560  35.763  43.406   6.610
 5436POPC   C3B69561  35.972  43.377   7.042
 5436POPC   C4B69562  36.427  43.450   7.204
 5437POPC   NC369563  25.385  28.512   5.416
 5437POPC   PO469564  24.765  28.385   5.118
 5437POPC   GL169565  24.914  28.431   5.624
 5437POPC   GL269566  25.175  28.193   5.781
 5437POPC   C1A69567  24.998  28.562   6.108
 5437POPC   D2A69568  24.976  28.804   6.546
 5437POPC   C3A69569  24.991  28.616   7.000
 5437POPC   C4A69570  25.153  28.367   7.382
 5437POPC   C1B69571  25.370  28.204   6.204
 5437POPC   C2B69572  25.380  28.379   6.640
 5437POPC   C3B69573  25.383  28.107   7.012
 5437POPC   C4B69574  25.744  27.927   7.186
 5438POPC   NC369575  33.225   5.376   5.473
 5438POPC   PO469576  32.497   4.992   5.463
 5438POPC   GL169577  32.819   5.157   5.750
 5438POPC   GL269578  32.752   5.448   5.898
 5438POPC   C1A69579  33.065   5.087   6.147
 5438POPC   D2A69580  33.327   5.232   6.502
 5438POPC   C3A69581  33.239   5.097   6.907
 5438POPC   C4A69582  33.218   5.307   7.312
 5438POPC   C1B69583  32.627   5.336   6.290
 5438POPC   C2B69584  32.825   5.134   6.603
 5438POPC   C3B69585  32.796   5.334   6.977
 5438POPC   C4B69586  32.615   5.476   7.298
 5439POPC   NC369587  16.315  20.257   5.376
 5439POPC   PO469588  15.894  20.715   5.459
 5439POPC   GL169589  15.851  20.816   5.855
 5439POPC   GL269590  16.140  20.625   5.907
 5439POPC   C1A69591  15.815  20.707   6.290
 5439POPC   D2A69592  15.595  20.456   6.561
 5439POPC   C3A69593  15.757  20.433   6.965
 5439POPC   C4A69594  15.772  20.793   7.169
 5439POPC   C1B69595  16.221  21.013   6.154
 5439POPC   C2B69596  16.074  21.073   6.584
 5439POPC   C3B69597  16.174  21.073   7.012
 5439POPC   C4B69598  16.251  20.706   7.285
 5440POPC   NC369599  36.974  18.829   5.578
 5440POPC   PO469600  37.260  19.464   5.536
 5440POPC   GL169601  37.077  19.232   5.875
 5440POPC   GL269602  36.686  19.193   5.836
 5440POPC   C1A69603  37.084  18.911   6.238
 5440POPC   D2A69604  36.815  18.816   6.594
 5440POPC   C3A69605  36.994  18.865   6.994
 5440POPC   C4A69606  37.041  19.195   7.250
 5440POPC   C1B69607  36.371  19.381   6.189
 5440POPC   C2B69608  36.467  19.257   6.684
 5440POPC   C3B69609  36.533  19.284   7.184
 5440POPC   C4B69610  36.599  19.331   7.655
 5441POPC   NC369611  33.188  26.507   5.500
 5441POPC   PO469612  32.867  27.109   5.425
 5441POPC   GL169613  33.009  26.913   5.795
 5441POPC   GL269614  32.778  26.646   5.828
 5441POPC   C1A69615  32.997  26.966   6.259
 5441POPC   D2A69616  32.722  26.982   6.661
 5441POPC   C3A69617  32.936  26.956   7.081
 5441POPC   C4A69618  33.331  26.937   7.335
 5441POPC   C1B69619  32.962  26.452   6.194
 5441POPC   C2B69620  33.047  26.583   6.610
 5441POPC   C3B69621  32.901  26.458   6.986
 5441POPC   C4B69622  32.982  26.527   7.391
 5442POPC   NC369623  36.912  32.598   5.410
 5442POPC   PO469624  36.565  32.054   5.230
 5442POPC   GL169625  36.709  32.152   5.684
 5442POPC   GL269626  37.021  32.094   5.778
 5442POPC   C1A69627  36.726  32.257   6.170
 5442POPC   D2A69628  36.630  32.099   6.592
 5442POPC   C3A69629  36.845  32.260   6.947
 5442POPC   C4A69630  36.811  32.135   7.340
 5442POPC   C1B69631  37.163  32.009   6.190
 5442POPC   C2B69632  37.213  32.073   6.636
 5442POPC   C3B69633  37.258  31.930   7.094
 5442POPC   C4B69634  37.166  31.856   7.563
 5443POPC   NC369635  31.918  38.443   5.594
 5443POPC   PO469636  32.363  38.872   5.419
 5443POPC   GL169637  32.359  38.588   5.827
 5443POPC   GL269638  32.602  38.402   6.012
 5443POPC   C1A69639  32.133  38.300   6.161
 5443POPC   D2A69640  31.900  38.349   6.517
 5443POPC   C3A69641  32.114  38.499   6.883
 5443POPC   C4A69642  31.980  38.546   7.309
 5443POPC   C1B69643  32.485  38.592   6.415
 5443POPC   C2B69644  32.615  38.654   6.858
 5443POPC   C3B69645  32.432  38.770   7.248
 5443POPC   C4B69646  32.446  38.767   7.695
 5444POPC   NC369647  35.662  23.119   5.241
 5444POPC   PO469648  36.353  22.969   5.428
 5444POPC   GL169649  36.293  23.074   5.835
 5444POPC   GL269650  35.927  23.080   5.752
 5444POPC   C1A69651  36.250  22.889   6.256
 5444POPC   D2A69652  36.370  23.001   6.679
 5444POPC   C3A69653  36.213  22.853   7.079
 5444POPC   C4A69654  36.547  22.822   7.353
 5444POPC   C1B69655  35.744  22.989   6.147
 5444POPC   C2B69656  35.849  23.090   6.563
 5444POPC   C3B69657  35.706  22.929   6.945
 5444POPC   C4B69658  35.760  22.666   7.292
 5445POPC   NC369659  17.753  43.774   5.447
 5445POPC   PO469660  17.716  44.498   5.322
 5445POPC   GL169661  17.837  44.248   5.731
 5445POPC   GL269662  17.560  43.994   5.863
 5445POPC   C1A69663  17.703  44.321   6.199
 5445POPC   D2A69664  17.484  43.992   6.406
 5445POPC   C3A69665  17.492  43.965   6.841
 5445POPC   C4A69666  17.471  44.270   7.147
 5445POPC   C1B69667  17.877  43.827   6.117
 5445POPC   C2B69668  17.992  43.803   6.549
 5445POPC   C3B69669  17.892  43.654   6.954
 5445POPC   C4B69670  17.829  43.931   7.274
 5446POPC   NC369671  22.598   6.496   5.634
 5446POPC   PO469672  22.901   6.881   5.162
 5446POPC   GL169673  22.966   6.860   5.672
 5446POPC   GL269674  23.086   6.550   5.848
 5446POPC   C1A69675  22.844   6.875   6.165
 5446POPC   D2A69676  22.956   6.711   6.615
 5446POPC   C3A69677  22.695   6.780   7.003
 5446POPC   C4A69678  22.849   6.939   7.428
 5446POPC   C1B69679  22.861   6.351   6.232
 5446POPC   C2B69680  22.705   6.148   6.627
 5446POPC   C3B69681  22.800   6.260   7.045
 5446POPC   C4B69682  23.111   6.570   7.166
 5447POPC   NC369683   7.130  39.197   5.568
 5447POPC   PO469684   7.595  39.292   5.116
 5447POPC   GL169685   7.605  39.159   5.704
 5447POPC   GL269686   7.603  39.447   5.969
 5447POPC   C1A69687   7.363  39.034   6.170
 5447POPC   D2A69688   7.108  38.980   6.613
 5447POPC   C3A69689   7.375  38.952   7.017
 5447POPC   C4A69690   7.540  39.208   7.388
 5447POPC   C1B69691   7.159  39.531   6.205
 5447POPC   C2B69692   6.983  39.730   6.617
 5447POPC   C3B69693   7.145  39.712   7.066
 5447POPC   C4B69694   7.275  39.647   7.523
 5448POPC   NC369695  30.068  40.202   5.409
 5448POPC   PO469696  29.870  39.544   5.345
 5448POPC   GL169697  29.890  39.810   5.736
 5448POPC   GL269698  29.670  40.139   5.764
 5448POPC   C1A69699  30.140  39.875   6.117
 5448POPC   D2A69700  30.066  40.033   6.550
 5448POPC   C3A69701  30.354  40.210   6.845
 5448POPC   C4A69702  30.373  40.511   7.232
 5448POPC   C1B69703  29.645  39.964   6.219
 5448POPC   C2B69704  29.652  39.755   6.685
 5448POPC   C3B69705  29.679  39.848   7.158
 5448POPC   C4B69706  29.588  40.015   7.623
 5449POPC   NC369707   7.698  18.001   5.503
 5449POPC   PO469708   7.376  17.391   5.455
 5449POPC   GL169709   7.272  17.413   5.870
 5449POPC   GL269710   7.321  17.767   5.884
 5449POPC   C1A69711   7.108  17.530   6.290
 5449POPC   D2A69712   7.038  17.449   6.720
 5449POPC   C3A69713   7.334  17.360   7.018
 5449POPC   C4A69714   7.126  17.647   7.271
 5449POPC   C1B69715   7.621  17.610   6.214
 5449POPC   C2B69716   7.658  17.587   6.676
 5449POPC   C3B69717   7.561  17.806   7.084
 5449POPC   C4B69718   7.562  17.688   7.559
 5450POPC   NC369719  24.004  23.286   5.416
 5450POPC   PO469720  23.860  23.939   5.378
 5450POPC   GL169721  23.622  23.887   5.792
 5450POPC   GL269722  23.615  23.525   5.760
 5450POPC   C1A69723  23.610  24.004   6.256
 5450POPC   D2A69724  23.807  23.804   6.573
 5450POPC   C3A69725  23.747  23.867   6.984
 5450POPC   C4A69726  23.914  23.584   7.289
 5450POPC   C1B69727  23.655  23.502   6.171
 5450POPC   C2B69728  23.457  23.430   6.552
 5450POPC   C3B69729  23.530  23.394   6.976
 5450POPC   C4B69730  23.410  23.649   7.297
 5451POPC   NC369731  35.407  10.178   5.503
 5451POPC   PO469732  35.161   9.569   5.463
 5451POPC   GL169733  35.219   9.795   5.833
 5451POPC   GL269734  35.584   9.823   5.828
 5451POPC   C1A69735  35.322   9.728   6.267
 5451POPC   D2A69736  35.555   9.683   6.635
 5451POPC   C3A69737  35.242   9.789   6.958
 5451POPC   C4A69738  35.093   9.886   7.384
 5451POPC   C1B69739  35.766   9.984   6.212
 5451POPC   C2B69740  35.802  10.259   6.553
 5451POPC   C3B69741  35.765  10.030   6.950
 5451POPC   C4B69742  35.623   9.736   7.268
 5452POPC   NC369743  38.889   0.917   5.418
 5452POPC   PO469744  38.249   1.240   5.327
 5452POPC   GL169745  38.409   1.275   5.757
 5452POPC   GL269746  38.548   0.941   5.792
 5452POPC   C1A69747  38.540   1.468   6.181
 5452POPC   D2A69748  38.790   1.482   6.595
 5452POPC   C3A69749  38.525   1.477   6.992
 5452POPC   C4A69750  38.374   1.687   7.385
 5452POPC   C1B69751  38.376   0.987   6.196
 5452POPC   C2B69752  38.362   1.167   6.587
 5452POPC   C3B69753  38.464   0.971   6.984
 5452POPC   C4B69754  38.729   0.821   7.335
 5453POPC   NC369755  32.654   1.320   5.280
 5453POPC   PO469756  32.028   1.076   5.337
 5453POPC   GL169757  32.271   1.019   5.714
 5453POPC   GL269758  32.344   1.379   5.710
 5453POPC   C1A69759  32.338   1.133   6.176
 5453POPC   D2A69760  32.438   1.370   6.570
 5453POPC   C3A69761  32.505   1.120   6.958
 5453POPC   C4A69762  32.487   1.051   7.424
 5453POPC   C1B69763  31.930   1.356   5.952
 5453POPC   C2B69764  31.900   1.415   6.390
 5453POPC   C3B69765  31.960   1.439   6.822
 5453POPC   C4B69766  32.144   1.390   7.217
 5454POPC   NC369767  38.289   2.988   5.567
 5454POPC   PO469768  37.601   2.748   5.481
 5454POPC   GL169769  37.641   2.638   5.881
 5454POPC   GL269770  37.975   2.470   5.864
 5454POPC   C1A69771  37.496   2.805   6.293
 5454POPC   D2A69772  37.579   2.685   6.725
 5454POPC   C3A69773  37.424   2.889   7.105
 5454POPC   C4A69774  37.606   2.809   7.511
 5454POPC   C1B69775  38.015   2.789   6.199
 5454POPC   C2B69776  38.038   2.924   6.632
 5454POPC   C3B69777  37.955   2.848   7.087
 5454POPC   C4B69778  37.928   3.189   7.365
 5455POPC   NC369779  41.406  10.480   5.287
 5455POPC   PO469780  42.007  10.273   5.517
 5455POPC   GL169781  41.715  10.525   5.809
 5455POPC   GL269782  41.403  10.749   5.730
 5455POPC   C1A69783  41.870  10.667   6.211
 5455POPC   D2A69784  41.908  10.937   6.568
 5455POPC   C3A69785  41.803  10.701   6.899
 5455POPC   C4A69786  41.744  10.413   7.255
 5455POPC   C1B69787  41.355  10.599   6.172
 5455POPC   C2B69788  41.415  10.759   6.588
 5455POPC   C3B69789  41.324  10.616   7.012
 5455POPC   C4B69790  41.236  10.239   7.176
 5456POPC   NC369791  33.736  24.842   5.560
 5456POPC   PO469792  33.665  25.435   5.243
 5456POPC   GL169793  33.608  25.425   5.694
 5456POPC   GL269794  33.929  25.292   5.788
 5456POPC   C1A69795  33.568  25.276   6.151
 5456POPC   D2A69796  33.824  25.342   6.540
 5456POPC   C3A69797  33.660  25.174   6.962
 5456POPC   C4A69798  33.593  25.392   7.356
 5456POPC   C1B69799  34.034  25.007   6.148
 5456POPC   C2B69800  34.255  25.033   6.538
 5456POPC   C3B69801  34.173  25.246   6.916
 5456POPC   C4B69802  34.047  25.186   7.322
 5457POPC   NC369803  10.153  12.256   5.411
 5457POPC   PO469804   9.580  11.907   5.559
 5457POPC   GL169805   9.936  12.035   5.827
 5457POPC   GL269806   9.793  12.349   5.869
 5457POPC   C1A69807  10.105  12.192   6.239
 5457POPC   D2A69808   9.919  12.297   6.654
 5457POPC   C3A69809   9.829  11.873   6.825
 5457POPC   C4A69810  10.065  11.632   7.173
 5457POPC   C1B69811   9.512  12.432   6.190
 5457POPC   C2B69812   9.375  12.375   6.603
 5457POPC   C3B69813   9.486  12.229   6.983
 5457POPC   C4B69814   9.797  12.051   7.286
 5458POPC   NC369815  35.352  21.378   5.460
 5458POPC   PO469816  35.007  21.877   5.194
 5458POPC   GL169817  35.131  21.696   5.754
 5458POPC   GL269818  35.515  21.654   5.880
 5458POPC   C1A69819  35.263  21.381   6.201
 5458POPC   D2A69820  35.181  21.060   6.582
 5458POPC   C3A69821  35.198  21.271   6.997
 5458POPC   C4A69822  35.416  21.707   7.054
 5458POPC   C1B69823  35.757  21.598   6.249
 5458POPC   C2B69824  35.583  21.447   6.628
 5458POPC   C3B69825  35.689  21.190   6.969
 5458POPC   C4B69826  35.594  21.331   7.370
 5459POPC   NC369827   3.950   0.264   5.379
 5459POPC   PO469828   4.543   0.493   5.143
 5459POPC   GL169829   4.349   0.550   5.573
 5459POPC   GL269830   4.543   0.827   5.632
 5459POPC   C1A69831   4.198   0.440   6.027
 5459POPC   D2A69832   3.943   0.427   6.453
 5459POPC   C3A69833   4.098   0.421   6.881
 5459POPC   C4A69834   3.987   0.299   7.312
 5459POPC   C1B69835   4.514   0.813   6.098
 5459POPC   C2B69836   4.442   0.573   6.490
 5459POPC   C3B69837   4.513   0.704   6.938
 5459POPC   C4B69838   4.644   0.831   7.364
 5460POPC   NC369839  41.146  19.979   5.351
 5460POPC   PO469840  40.496  19.955   5.445
 5460POPC   GL169841  40.745  19.875   5.802
 5460POPC   GL269842  41.023  19.648   5.743
 5460POPC   C1A69843  40.612  19.797   6.229
 5460POPC   D2A69844  40.422  19.930   6.627
 5460POPC   C3A69845  40.679  19.954   6.997
 5460POPC   C4A69846  40.699  19.721   7.364
 5460POPC   C1B69847  41.134  19.765   6.169
 5460POPC   C2B69848  41.024  19.801   6.614
 5460POPC   C3B69849  41.030  19.541   7.008
 5460POPC   C4B69850  41.137  19.513   7.477
 5461POPC   NC369851  14.003  29.382   5.010
 5461POPC   PO469852  13.445  29.119   5.372
 5461POPC   GL169853  13.345  29.049   5.787
 5461POPC   GL269854  13.699  28.939   5.799
 5461POPC   C1A69855  13.163  29.265   6.188
 5461POPC   D2A69856  13.288  29.431   6.618
 5461POPC   C3A69857  13.442  29.190   6.967
 5461POPC   C4A69858  13.298  28.865   7.221
 5461POPC   C1B69859  13.688  29.148   6.193
 5461POPC   C2B69860  13.647  28.933   6.575
 5461POPC   C3B69861  13.837  28.837   6.951
 5461POPC   C4B69862  13.783  28.880   7.382
 5462POPC   NC369863  31.261  40.882   5.560
 5462POPC   PO469864  30.774  40.721   5.153
 5462POPC   GL169865  30.664  40.780   5.637
 5462POPC   GL269866  30.805  41.109   5.766
 5462POPC   C1A69867  30.530  40.827   6.109
 5462POPC   D2A69868  30.361  40.562   6.432
 5462POPC   C3A69869  30.509  40.699   6.801
 5462POPC   C4A69870  30.451  41.039   7.087
 5462POPC   C1B69871  31.008  41.026   6.185
 5462POPC   C2B69872  30.887  40.994   6.631
 5462POPC   C3B69873  30.963  40.771   7.008
 5462POPC   C4B69874  31.129  40.931   7.351
 5463POPC   NC369875  18.034  30.705   5.092
 5463POPC   PO469876  18.783  30.725   5.184
 5463POPC   GL169877  18.572  30.730   5.612
 5463POPC   GL269878  18.195  30.837   5.620
 5463POPC   C1A69879  18.542  30.794   6.057
 5463POPC   D2A69880  18.486  30.871   6.495
 5463POPC   C3A69881  18.337  30.568   6.802
 5463POPC   C4A69882  18.452  30.670   7.217
 5463POPC   C1B69883  18.033  30.821   6.089
 5463POPC   C2B69884  17.952  30.984   6.532
 5463POPC   C3B69885  17.936  30.833   6.980
 5463POPC   C4B69886  17.981  30.473   7.229
 5464POPC   NC369887  22.028  32.495   5.635
 5464POPC   PO469888  22.393  31.939   5.415
 5464POPC   GL169889  22.254  32.054   5.769
 5464POPC   GL269890  21.915  31.970   5.689
 5464POPC   C1A69891  22.276  32.253   6.176
 5464POPC   D2A69892  22.459  32.412   6.536
 5464POPC   C3A69893  22.260  32.311   6.894
 5464POPC   C4A69894  22.279  32.037   7.207
 5464POPC   C1B69895  21.815  31.948   6.108
 5464POPC   C2B69896  21.798  31.887   6.551
 5464POPC   C3B69897  21.815  32.057   6.951
 5464POPC   C4B69898  21.877  32.322   7.319
 5465POPC   NC369899  23.256   5.012   5.531
 5465POPC   PO469900  22.797   5.387   5.295
 5465POPC   GL169901  22.887   5.292   5.719
 5465POPC   GL269902  22.712   5.034   5.830
 5465POPC   C1A69903  23.011   5.324   6.159
 5465POPC   D2A69904  22.758   5.153   6.527
 5465POPC   C3A69905  22.888   5.208   6.971
 5465POPC   C4A69906  22.618   5.169   7.354
 5465POPC   C1B69907  22.949   4.810   6.172
 5465POPC   C2B69908  23.131   4.794   6.601
 5465POPC   C3B69909  22.845   4.702   6.938
 5465POPC   C4B69910  22.710   4.668   7.361
 5466POPC   NC369911   7.115  39.606   5.154
 5466POPC   PO469912   6.699  39.033   5.347
 5466POPC   GL169913   6.691  39.046   5.783
 5466POPC   GL269914   6.767  39.409   5.868
 5466POPC   C1A69915   6.775  39.022   6.218
 5466POPC   D2A69916   6.651  39.322   6.522
 5466POPC   C3A69917   6.744  39.238   6.923
 5466POPC   C4A69918   7.047  39.253   7.281
 5466POPC   C1B69919   6.445  39.608   6.128
 5466POPC   C2B69920   6.454  39.808   6.540
 5466POPC   C3B69921   6.328  39.740   6.970
 5466POPC   C4B69922   6.661  39.607   7.239
 5467POPC   NC369923  39.878  38.008   5.226
 5467POPC   PO469924  39.422  37.512   5.439
 5467POPC   GL169925  39.767  37.725   5.674
 5467POPC   GL269926  39.757  38.045   5.837
 5467POPC   C1A69927  39.946  37.564   6.085
 5467POPC   D2A69928  39.876  37.282   6.490
 5467POPC   C3A69929  39.967  37.439   6.928
 5467POPC   C4A69930  39.751  37.742   7.168
 5467POPC   C1B69931  39.823  38.008   6.328
 5467POPC   C2B69932  39.998  38.006   6.786
 5467POPC   C3B69933  40.026  38.152   7.243
 5467POPC   C4B69934  40.193  38.438   7.563
 5468POPC   NC369935   2.245  40.218   5.441
 5468POPC   PO469936   2.898  40.117   5.382
 5468POPC   GL169937   2.625  39.967   5.717
 5468POPC   GL269938   2.885  39.801   5.909
 5468POPC   C1A69939   2.485  40.033   6.146
 5468POPC   D2A69940   2.729  40.133   6.515
 5468POPC   C3A69941   2.443  40.075   6.820
 5468POPC   C4A69942   2.579  40.012   7.217
 5468POPC   C1B69943   3.144  39.569   6.218
 5468POPC   C2B69944   3.173  39.714   6.653
 5468POPC   C3B69945   3.088  39.545   7.054
 5468POPC   C4B69946   2.943  39.683   7.469
 5469POPC   NC369947  40.429  15.371   5.188
 5469POPC   PO469948  39.922  15.112   5.588
 5469POPC   GL169949  39.875  15.268   5.925
 5469POPC   GL269950  39.564  15.381   5.864
 5469POPC   C1A69951  40.052  15.231   6.285
 5469POPC   D2A69952  40.039  15.486   6.579
 5469POPC   C3A69953  40.071  15.190   6.900
 5469POPC   C4A69954  40.196  15.392   7.249
 5469POPC   C1B69955  39.527  15.237   6.298
 5469POPC   C2B69956  39.589  15.244   6.712
 5469POPC   C3B69957  39.663  15.357   7.119
 5469POPC   C4B69958  39.437  15.304   7.474
 5470POPC   NC369959  31.733  12.136   5.387
 5470POPC   PO469960  31.157  11.996   5.572
 5470POPC   GL169961  31.510  12.049   5.873
 5470POPC   GL269962  31.729  11.753   5.760
 5470POPC   C1A69963  31.482  12.044   6.350
 5470POPC   D2A69964  31.541  12.205   6.772
 5470POPC   C3A69965  31.267  12.016   7.119
 5470POPC   C4A69966  31.262  12.163   7.530
 5470POPC   C1B69967  31.745  11.639   6.180
 5470POPC   C2B69968  31.890  11.756   6.593
 5470POPC   C3B69969  31.692  11.752   6.994
 5470POPC   C4B69970  31.701  11.644   7.427
 5471POPC   NC369971   1.165  32.874   5.308
 5471POPC   PO469972   1.108  33.573   5.487
 5471POPC   GL169973   1.319  33.250   5.732
 5471POPC   GL269974   1.070  32.999   5.796
 5471POPC   C1A69975   1.431  33.121   6.175
 5471POPC   D2A69976   1.487  33.205   6.630
 5471POPC   C3A69977   1.216  33.121   6.976
 5471POPC   C4A69978   1.336  33.043   7.395
 5471POPC   C1B69979   1.063  32.733   6.151
 5471POPC   C2B69980   1.163  32.801   6.577
 5471POPC   C3B69981   0.985  32.620   6.965
 5471POPC   C4B69982   0.863  32.893   7.303
 5472POPC   NC369983  16.300  33.657   5.487
 5472POPC   PO469984  16.944  33.712   5.474
 5472POPC   GL169985  16.774  33.907   5.826
 5472POPC   GL269986  16.510  33.724   5.984
 5472POPC   C1A69987  16.952  33.894   6.234
 5472POPC   D2A69988  16.850  33.679   6.591
 5472POPC   C3A69989  16.878  33.848   6.968
 5472POPC   C4A69990  17.139  33.700   7.241
 5472POPC   C1B69991  16.481  34.057   6.298
 5472POPC   C2B69992  16.456  34.020   6.725
 5472POPC   C3B69993  16.436  34.050   7.167
 5472POPC   C4B69994  16.353  33.980   7.613
 5473POPC   NC369995   1.603  40.218   5.499
 5473POPC   PO469996   2.122  39.790   5.313
 5473POPC   GL169997   2.124  39.755   5.750
 5473POPC   GL269998   2.003  40.084   5.882
 5473POPC   C1A69999   2.000  39.622   6.163
 5473POPC   D2A70000   2.201  39.702   6.531
 5473POPC   C3A70001   1.931  39.861   6.819
 5473POPC   C4A70002   2.072  39.719   7.199
 5473POPC   C1B70003   2.009  40.147   6.341
 5473POPC   C2B70004   2.023  40.376   6.746
 5473POPC   C3B70005   2.061  40.230   7.144
 5473POPC   C4B70006   1.827  40.302   7.499
 5474POPC   NC370007  35.614  12.442   5.697
 5474POPC   PO470008  35.192  11.940   5.490
 5474POPC   GL170009  35.164  12.200   5.848
 5474POPC   GL270010  34.848  12.305   5.949
 5474POPC   C1A70011  35.353  12.212   6.255
 5474POPC   D2A70012  35.653  12.242   6.564
 5474POPC   C3A70013  35.714  11.846   6.780
 5474POPC   C4A70014  35.560  11.838   7.201
 5474POPC   C1B70015  34.868  12.191   6.380
 5474POPC   C2B70016  35.166  12.051   6.723
 5474POPC   C3B70017  35.423  12.288   7.039
 5474POPC   C4B70018  35.330  12.206   7.500
 5475POPC   NC370019   9.428  15.414   5.484
 5475POPC   PO470020   9.779  14.939   5.369
 5475POPC   GL170021   9.822  15.227   5.757
 5475POPC   GL270022  10.148  15.307   5.840
 5475POPC   C1A70023   9.790  15.223   6.208
 5475POPC   D2A70024   9.807  14.974   6.548
 5475POPC   C3A70025   9.658  15.144   6.916
 5475POPC   C4A70026   9.683  14.954   7.247
 5475POPC   C1B70027  10.218  15.489   6.259
 5475POPC   C2B70028   9.994  15.468   6.637
 5475POPC   C3B70029  10.101  15.318   7.054
 5475POPC   C4B70030  10.023  15.499   7.424
 5476POPC   NC370031  31.271  37.543   5.466
 5476POPC   PO470032  31.696  38.110   5.357
 5476POPC   GL170033  31.627  37.863   5.718
 5476POPC   GL270034  31.752  37.526   5.726
 5476POPC   C1A70035  31.564  37.824   6.164
 5476POPC   D2A70036  31.408  37.604   6.541
 5476POPC   C3A70037  31.545  37.852   6.919
 5476POPC   C4A70038  31.702  37.749   7.333
 5476POPC   C1B70039  31.629  37.310   6.112
 5476POPC   C2B70040  31.791  37.277   6.543
 5476POPC   C3B70041  31.573  37.331   6.963
 5476POPC   C4B70042  31.780  37.247   7.351
 5477POPC   NC370043  41.856  30.505   5.491
 5477POPC   PO470044  41.335  30.922   5.402
 5477POPC   GL170045  41.228  30.767   5.787
 5477POPC   GL270046  41.580  30.718   5.908
 5477POPC   C1A70047  41.197  30.858   6.218
 5477POPC   D2A70048  41.522  30.653   6.477
 5477POPC   C3A70049  41.516  30.454   6.882
 5477POPC   C4A70050  41.671  30.414   7.290
 5477POPC   C1B70051  41.696  31.066   6.199
 5477POPC   C2B70052  41.918  31.149   6.608
 5477POPC   C3B70053  41.812  30.908   6.984
 5477POPC   C4B70054  41.854  30.847   7.444
 5478POPC   NC370055  37.557  20.181   5.545
 5478POPC   PO470056  37.952  19.776   5.233
 5478POPC   GL170057  37.693  19.719   5.704
 5478POPC   GL270058  37.301  19.857   5.839
 5478POPC   C1A70059  37.699  19.857   6.160
 5478POPC   D2A70060  37.644  20.120   6.543
 5478POPC   C3A70061  37.701  19.950   6.960
 5478POPC   C4A70062  38.026  20.056   7.208
 5478POPC   C1B70063  37.230  19.687   6.258
 5478POPC   C2B70064  37.283  19.763   6.704
 5478POPC   C3B70065  37.356  19.570   7.115
 5478POPC   C4B70066  37.521  19.692   7.511
 5479POPC   NC370067  43.418  13.564   5.556
 5479POPC   PO470068  42.873  13.824   5.345
 5479POPC   GL170069  42.920  13.613   5.737
 5479POPC   GL270070  43.176  13.803   5.922
 5479POPC   C1A70071  42.869  13.509   6.182
 5479POPC   D2A70072  43.050  13.711   6.582
 5479POPC   C3A70073  42.974  13.403   6.886
 5479POPC   C4A70074  43.003  13.462   7.287
 5479POPC   C1B70075  43.381  13.532   6.245
 5479POPC   C2B70076  43.568  13.645   6.640
 5479POPC   C3B70077  43.443  13.532   7.046
 5479POPC   C4B70078  43.472  13.398   7.477
 5480POPC   NC370079   9.075  24.246   5.367
 5480POPC   PO470080   9.121  24.896   5.457
 5480POPC   GL170081   9.194  24.609   5.837
 5480POPC   GL270082   9.155  24.236   5.871
 5480POPC   C1A70083   9.200  24.493   6.311
 5480POPC   D2A70084   8.941  24.261   6.642
 5480POPC   C3A70085   8.878  24.501   7.015
 5480POPC   C4A70086   9.260  24.692   7.123
 5480POPC   C1B70087   9.427  24.050   6.207
 5480POPC   C2B70088   9.441  24.123   6.665
 5480POPC   C3B70089   9.284  24.178   7.096
 5480POPC   C4B70090   8.986  24.224   7.432
 5481POPC   NC370091  44.205  34.181   5.519
 5481POPC   PO470092  43.910  33.673   5.248
 5481POPC   GL170093  43.840  33.740   5.715
 5481POPC   GL270094  43.594  33.505   5.873
 5481POPC   C1A70095  44.037  33.645   6.162
 5481POPC   D2A70096  43.909  33.563   6.634
 5481POPC   C3A70097  44.079  33.722   7.016
 5481POPC   C4A70098  44.041  34.106   7.234
 5481POPC   C1B70099  43.538  33.681   6.267
 5481POPC   C2B70100  43.612  33.976   6.612
 5481POPC   C3B70101  43.574  33.880   7.045
 5481POPC   C4B70102  43.598  33.993   7.471
 5482POPC   NC370103  40.328  11.882   5.471
 5482POPC   PO470104  39.696  11.892   5.430
 5482POPC   GL170105  39.861  12.106   5.787
 5482POPC   GL270106  40.128  12.330   5.680
 5482POPC   C1A70107  39.998  11.974   6.194
 5482POPC   D2A70108  40.006  11.744   6.576
 5482POPC   C3A70109  39.943  11.885   6.976
 5482POPC   C4A70110  39.973  11.976   7.387
 5482POPC   C1B70111  40.196  12.436   6.100
 5482POPC   C2B70112  40.339  12.221   6.478
 5482POPC   C3B70113  40.449  12.079   6.848
 5482POPC   C4B70114  40.405  12.273   7.196
 5483POPC   NC370115   1.836  28.582   5.449
 5483POPC   PO470116   1.969  27.963   5.196
 5483POPC   GL170117   2.144  28.215   5.587
 5483POPC   GL270118   2.327  28.550   5.659
 5483POPC   C1A70119   2.047  28.319   6.039
 5483POPC   D2A70120   2.138  28.105   6.434
 5483POPC   C3A70121   1.960  28.277   6.795
 5483POPC   C4A70122   2.176  28.195   7.134
 5483POPC   C1B70123   2.344  28.755   6.106
 5483POPC   C2B70124   2.189  28.617   6.519
 5483POPC   C3B70125   2.276  28.683   6.999
 5483POPC   C4B70126   2.248  28.593   7.468
 5484POPC   NC370127  29.499   0.494   5.067
 5484POPC   PO470128  29.412   0.177   5.671
 5484POPC   GL170129  29.222   0.497   6.013
 5484POPC   GL270130  29.558   0.533   6.110
 5484POPC   C1A70131  29.226   0.647   6.478
 5484POPC   D2A70132  29.506   0.715   6.804
 5484POPC   C3A70133  29.341   0.514   7.196
 5484POPC   C4A70134  28.902   0.530   7.376
 5484POPC   C1B70135  29.346   0.164   6.365
 5484POPC   C2B70136  29.166   0.223   6.786
 5484POPC   C3B70137  29.049   0.076   7.196
 5484POPC   C4B70138  29.258  44.823   7.484
 5485POPC   NC370139  44.928   6.835   5.591
 5485POPC   PO470140   0.474   6.428   5.452
 5485POPC   GL170141   0.420   6.690   5.820
 5485POPC   GL270142   0.550   6.383   5.956
 5485POPC   C1A70143   0.452   6.958   6.185
 5485POPC   D2A70144   0.297   6.972   6.564
 5485POPC   C3A70145   0.426   6.700   6.887
 5485POPC   C4A70146   0.470   6.902   7.282
 5485POPC   C1B70147   0.418   6.481   6.364
 5485POPC   C2B70148   0.244   6.249   6.692
 5485POPC   C3B70149   0.063   6.395   7.077
 5485POPC   C4B70150   0.371   6.392   7.368
 5486POPC   NC370151  32.672   7.075   5.424
 5486POPC   PO470152  32.954   6.502   5.370
 5486POPC   GL170153  32.816   6.662   5.761
 5486POPC   GL270154  32.488   6.586   5.724
 5486POPC   C1A70155  32.925   6.674   6.214
 5486POPC   D2A70156  32.928   6.584   6.674
 5486POPC   C3A70157  33.142   6.705   7.060
 5486POPC   C4A70158  33.324   6.979   7.360
 5486POPC   C1B70159  32.518   6.375   6.098
 5486POPC   C2B70160  32.608   6.213   6.492
 5486POPC   C3B70161  32.514   6.329   6.861
 5486POPC   C4B70162  32.701   6.492   7.232
 5487POPC   NC370163  38.060  26.376   5.070
 5487POPC   PO470164  37.657  26.880   5.378
 5487POPC   GL170165  37.405  26.867   5.742
 5487POPC   GL270166  37.701  26.776   5.898
 5487POPC   C1A70167  37.445  27.075   6.188
 5487POPC   D2A70168  37.770  26.954   6.484
 5487POPC   C3A70169  37.520  27.000   6.846
 5487POPC   C4A70170  37.343  26.957   7.255
 5487POPC   C1B70171  37.985  26.575   6.162
 5487POPC   C2B70172  38.095  26.385   6.531
 5487POPC   C3B70173  38.130  26.622   6.902
 5487POPC   C4B70174  37.848  26.793   7.187
 5488POPC   NC370175  24.195  32.304   5.492
 5488POPC   PO470176  24.757  31.989   5.286
 5488POPC   GL170177  24.649  32.097   5.689
 5488POPC   GL270178  24.765  32.427   5.623
 5488POPC   C1A70179  24.437  32.048   6.121
 5488POPC   D2A70180  24.303  31.965   6.559
 5488POPC   C3A70181  24.313  32.255   6.871
 5488POPC   C4A70182  24.508  32.113   7.190
 5488POPC   C1B70183  24.751  32.462   6.072
 5488POPC   C2B70184  24.589  32.479   6.507
 5488POPC   C3B70185  24.787  32.463   6.932
 5488POPC   C4B70186  24.700  32.587   7.381
 5489POPC   NC370187   3.409   9.266   5.347
 5489POPC   PO470188   3.842   8.752   5.359
 5489POPC   GL170189   3.704   9.024   5.705
 5489POPC   GL270190   3.336   8.978   5.771
 5489POPC   C1A70191   3.646   9.187   6.139
 5489POPC   D2A70192   3.472   9.172   6.577
 5489POPC   C3A70193   3.733   8.992   6.900
 5489POPC   C4A70194   3.837   8.788   7.293
 5489POPC   C1B70195   3.149   8.985   6.183
 5489POPC   C2B70196   2.958   9.139   6.580
 5489POPC   C3B70197   3.143   9.138   6.999
 5489POPC   C4B70198   3.358   8.742   7.139
 5490POPC   NC370199   2.285   4.515   5.641
 5490POPC   PO470200   2.675   4.092   5.187
 5490POPC   GL170201   2.670   4.140   5.645
 5490POPC   GL270202   2.450   3.963   5.805
 5490POPC   C1A70203   2.694   4.329   6.092
 5490POPC   D2A70204   2.561   4.408   6.524
 5490POPC   C3A70205   2.753   4.298   6.926
 5490POPC   C4A70206   2.717   4.561   7.284
 5490POPC   C1B70207   2.356   3.994   6.263
 5490POPC   C2B70208   2.435   3.920   6.710
 5490POPC   C3B70209   2.475   3.944   7.172
 5490POPC   C4B70210   2.389   4.265   7.537
 5491POPC   NC370211  16.188  24.572   5.423
 5491POPC   PO470212  15.677  24.064   5.492
 5491POPC   GL170213  15.962  24.296   5.781
 5491POPC   GL270214  15.766  24.551   5.884
 5491POPC   C1A70215  16.142  24.433   6.197
 5491POPC   D2A70216  16.147  24.206   6.587
 5491POPC   C3A70217  16.239  24.465   6.959
 5491POPC   C4A70218  16.098  24.394   7.379
 5491POPC   C1B70219  15.823  24.853   6.201
 5491POPC   C2B70220  15.940  24.778   6.607
 5491POPC   C3B70221  15.812  24.770   7.032
 5491POPC   C4B70222  15.764  24.728   7.497
 5492POPC   NC370223  10.583  29.286   5.344
 5492POPC   PO470224  10.032  29.431   5.647
 5492POPC   GL170225  10.398  29.217   5.838
 5492POPC   GL270226  10.662  28.974   5.768
 5492POPC   C1A70227  10.464  29.165   6.279
 5492POPC   D2A70228  10.557  29.180   6.714
 5492POPC   C3A70229  10.206  29.051   6.928
 5492POPC   C4A70230  10.102  29.382   7.239
 5492POPC   C1B70231  10.800  28.822   6.156
 5492POPC   C2B70232  10.966  28.896   6.588
 5492POPC   C3B70233  10.842  28.890   7.031
 5492POPC   C4B70234  10.550  29.102   7.284
 5493POPC   NC370235  10.310  12.976   5.537
 5493POPC   PO470236  10.539  12.324   5.647
 5493POPC   GL170237  10.553  12.673   5.888
 5493POPC   GL270238  10.211  12.652   5.963
 5493POPC   C1A70239  10.662  12.948   6.225
 5493POPC   D2A70240  10.758  12.790   6.634
 5493POPC   C3A70241  10.625  12.999   7.001
 5493POPC   C4A70242  10.871  13.239   7.271
 5493POPC   C1B70243  10.264  12.649   6.418
 5493POPC   C2B70244   9.995  12.830   6.741
 5493POPC   C3B70245  10.097  12.994   7.152
 5493POPC   C4B70246  10.105  13.244   7.518
 5494POPC   NC370247   9.965  18.918   5.509
 5494POPC   PO470248   9.562  19.352   5.235
 5494POPC   GL170249   9.651  19.271   5.701
 5494POPC   GL270250   9.325  19.293   5.780
 5494POPC   C1A70251   9.833  19.069   6.120
 5494POPC   D2A70252  10.023  18.927   6.525
 5494POPC   C3A70253  10.075  19.285   6.788
 5494POPC   C4A70254   9.838  19.356   7.132
 5494POPC   C1B70255   9.492  19.464   6.172
 5494POPC   C2B70256   9.563  19.224   6.549
 5494POPC   C3B70257   9.336  19.105   6.914
 5494POPC   C4B70258   9.506  18.835   7.184
 5495POPC   NC370259   0.184   4.449   5.481
 5495POPC   PO470260   0.425   3.868   5.517
 5495POPC   GL170261   0.657   4.139   5.830
 5495POPC   GL270262   0.571   4.517   5.826
 5495POPC   C1A70263   0.683   4.304   6.268
 5495POPC   D2A70264   0.357   4.406   6.566
 5495POPC   C3A70265   0.400   4.186   6.933
 5495POPC   C4A70266   0.337   4.179   7.342
 5495POPC   C1B70267   0.291   4.761   6.142
 5495POPC   C2B70268   0.101   4.862   6.558
 5495POPC   C3B70269   0.312   4.771   6.963
 5495POPC   C4B70270   0.632   4.599   7.259
 5496POPC   NC370271   9.290  43.020   5.317
 5496POPC   PO470272   8.685  43.231   5.229
 5496POPC   GL170273   8.900  43.163   5.633
 5496POPC   GL270274   8.697  43.425   5.775
 5496POPC   C1A70275   8.997  43.121   6.103
 5496POPC   D2A70276   9.135  42.926   6.509
 5496POPC   C3A70277   9.089  43.113   6.917
 5496POPC   C4A70278   8.789  42.972   7.213
 5496POPC   C1B70279   8.508  43.333   6.181
 5496POPC   C2B70280   8.707  43.292   6.591
 5496POPC   C3B70281   8.676  43.431   7.033
 5496POPC   C4B70282   8.756  43.404   7.483
 5497POPC   NC370283  37.788  19.346   5.356
 5497POPC   PO470284  37.437  18.689   5.521
 5497POPC   GL170285  37.463  18.854   5.890
 5497POPC   GL270286  37.655  19.155   5.819
 5497POPC   C1A70287  37.678  18.806   6.280
 5497POPC   D2A70288  37.711  18.818   6.728
 5497POPC   C3A70289  37.499  19.075   7.026
 5497POPC   C4A70290  37.490  19.173   7.477
 5497POPC   C1B70291  37.914  19.366   6.136
 5497POPC   C2B70292  38.023  19.311   6.588
 5497POPC   C3B70293  38.136  19.033   6.921
 5497POPC   C4B70294  37.993  19.094   7.329
 5498POPC   NC370295  38.143  29.727   5.304
 5498POPC   PO470296  38.451  30.310   5.425
 5498POPC   GL170297  38.545  30.091   5.837
 5498POPC   GL270298  38.384  29.789   5.810
 5498POPC   C1A70299  38.445  30.062   6.281
 5498POPC   D2A70300  38.155  30.040   6.611
 5498POPC   C3A70301  38.436  29.904   6.924
 5498POPC   C4A70302  38.544  30.123   7.294
 5498POPC   C1B70303  38.064  29.765   6.140
 5498POPC   C2B70304  37.991  29.552   6.548
 5498POPC   C3B70305  37.948  29.744   6.977
 5498POPC   C4B70306  38.263  29.553   7.258
 5499POPC   NC370307  10.097  26.410   5.501
 5499POPC   PO470308  10.285  27.139   5.464
 5499POPC   GL170309  10.030  26.943   5.809
 5499POPC   GL270310   9.796  26.702   5.887
 5499POPC   C1A70311  10.069  26.854   6.272
 5499POPC   D2A70312   9.841  26.748   6.617
 5499POPC   C3A70313   9.997  26.863   7.011
 5499POPC   C4A70314   9.860  26.786   7.426
 5499POPC   C1B70315   9.565  26.969   6.232
 5499POPC   C2B70316   9.557  27.174   6.668
 5499POPC   C3B70317   9.533  27.190   7.134
 5499POPC   C4B70318   9.480  27.081   7.595
 5500POPC   NC370319  23.332  29.532   5.133
 5500POPC   PO470320  23.387  28.928   5.379
 5500POPC   GL170321  23.643  29.051   5.766
 5500POPC   GL270322  24.048  29.019   5.732
 5500POPC   C1A70323  23.518  29.262   6.172
 5500POPC   D2A70324  23.274  29.291   6.558
 5500POPC   C3A70325  23.512  29.273   6.928
 5500POPC   C4A70326  23.600  29.117   7.346
 5500POPC   C1B70327  23.953  28.875   6.155
 5500POPC   C2B70328  23.779  29.003   6.558
 5500POPC   C3B70329  23.994  29.110   6.944
 5500POPC   C4B70330  24.082  28.857   7.289
 5501POPC   NC370331   1.997  36.732   5.468
 5501POPC   PO470332   1.680  37.346   5.442
 5501POPC   GL170333   1.977  37.126   5.818
 5501POPC   GL270334   1.859  36.792   5.943
 5501POPC   C1A70335   2.274  36.905   6.209
 5501POPC   D2A70336   2.505  36.811   6.639
 5501POPC   C3A70337   2.270  37.025   7.014
 5501POPC   C4A70338   2.331  37.082   7.481
 5501POPC   C1B70339   1.781  37.054   6.313
 5501POPC   C2B70340   1.825  37.135   6.763
 5501POPC   C3B70341   1.771  36.893   7.141
 5501POPC   C4B70342   1.424  36.886   7.445
 5502POPC   NC370343   1.990  23.978   5.469
 5502POPC   PO470344   2.198  23.378   5.364
 5502POPC   GL170345   2.047  23.336   5.782
 5502POPC   GL270346   1.807  23.608   5.790
 5502POPC   C1A70347   2.180  23.570   6.162
 5502POPC   D2A70348   2.221  23.964   6.405
 5502POPC   C3A70349   2.301  23.856   6.829
 5502POPC   C4A70350   2.183  23.480   7.063
 5502POPC   C1B70351   1.714  23.815   6.178
 5502POPC   C2B70352   1.807  23.699   6.594
 5502POPC   C3B70353   1.772  23.790   6.991
 5502POPC   C4B70354   1.703  23.548   7.322
 5503POPC   NC370355  39.020  22.388   5.444
 5503POPC   PO470356  39.434  21.881   5.492
 5503POPC   GL170357  39.343  22.028   5.894
 5503POPC   GL270358  39.004  21.998   5.830
 5503POPC   C1A70359  39.210  22.047   6.348
 5503POPC   D2A70360  39.229  22.354   6.676
 5503POPC   C3A70361  39.193  22.247   7.108
 5503POPC   C4A70362  39.108  22.218   7.541
 5503POPC   C1B70363  38.965  22.394   6.073
 5503POPC   C2B70364  38.769  22.426   6.447
 5503POPC   C3B70365  38.826  22.629   6.847
 5503POPC   C4B70366  38.774  22.494   7.255
 5504POPC   NC370367  16.732  11.683   5.183
 5504POPC   PO470368  16.927  12.352   5.325
 5504POPC   GL170369  16.696  12.288   5.751
 5504POPC   GL270370  16.326  12.355   5.702
 5504POPC   C1A70371  16.787  12.239   6.240
 5504POPC   D2A70372  16.891  11.967   6.631
 5504POPC   C3A70373  16.897  12.149   7.066
 5504POPC   C4A70374  16.673  12.412   7.320
 5504POPC   C1B70375  16.336  12.071   6.063
 5504POPC   C2B70376  16.382  12.022   6.498
 5504POPC   C3B70377  16.405  12.208   6.899
 5504POPC   C4B70378  16.367  12.012   7.287
 5505POPC   NC370379  18.622  31.865   5.563
 5505POPC   PO470380  18.161  31.365   5.373
 5505POPC   GL170381  18.415  31.428   5.742
 5505POPC   GL270382  18.276  31.225   5.944
 5505POPC   C1A70383  18.481  31.634   6.196
 5505POPC   D2A70384  18.466  31.888   6.603
 5505POPC   C3A70385  18.540  31.704   7.012
 5505POPC   C4A70386  18.465  31.269   7.189
 5505POPC   C1B70387  17.996  31.552   6.044
 5505POPC   C2B70388  17.845  31.535   6.471
 5505POPC   C3B70389  18.107  31.517   6.829
 5505POPC   C4B70390  18.075  31.605   7.269
 5506POPC   NC370391   9.908  43.859   5.322
 5506POPC   PO470392  10.277  44.329   5.664
 5506POPC   GL170393   9.884  44.149   5.793
 5506POPC   GL270394   9.606  43.900   5.719
 5506POPC   C1A70395   9.700  44.141   6.195
 5506POPC   D2A70396   9.953  44.154   6.557
 5506POPC   C3A70397   9.726  44.120   6.889
 5506POPC   C4A70398   9.687  43.794   7.160
 5506POPC   C1B70399   9.544  43.668   6.096
 5506POPC   C2B70400   9.672  43.703   6.529
 5506POPC   C3B70401   9.392  43.548   6.828
 5506POPC   C4B70402   9.511  43.315   7.201
 5507POPC   NC370403  30.508  21.924   5.275
 5507POPC   PO470404  30.860  22.553   5.317
 5507POPC   GL170405  30.586  22.440   5.707
 5507POPC   GL270406  30.467  22.083   5.763
 5507POPC   C1A70407  30.544  22.453   6.191
 5507POPC   D2A70408  30.800  22.478   6.595
 5507POPC   C3A70409  30.888  22.112   6.877
 5507POPC   C4A70410  30.773  22.248   7.290
 5507POPC   C1B70411  30.611  21.939   6.176
 5507POPC   C2B70412  30.450  22.077   6.594
 5507POPC   C3B70413  30.410  21.967   7.037
 5507POPC   C4B70414  30.438  21.911   7.502
 5508POPC   NC370415  28.074   3.157   5.421
 5508POPC   PO470416  27.512   2.703   5.230
 5508POPC   GL170417  27.622   2.956   5.625
 5508POPC   GL270418  27.933   2.910   5.853
 5508POPC   C1A70419  27.475   2.900   6.063
 5508POPC   D2A70420  27.354   2.951   6.508
 5508POPC   C3A70421  27.362   2.664   6.823
 5508POPC   C4A70422  27.503   2.779   7.208
 5508POPC   C1B70423  27.912   2.789   6.334
 5508POPC   C2B70424  27.867   2.792   6.809
 5508POPC   C3B70425  27.919   2.478   7.172
 5508POPC   C4B70426  28.044   2.335   7.601
 5509POPC   NC370427   3.045  18.580   5.360
 5509POPC   PO470428   2.619  18.142   5.152
 5509POPC   GL170429   2.494  18.295   5.664
 5509POPC   GL270430   2.853  18.393   5.803
 5509POPC   C1A70431   2.537  18.188   6.151
 5509POPC   D2A70432   2.455  18.005   6.570
 5509POPC   C3A70433   2.427  18.078   6.992
 5509POPC   C4A70434   2.705  18.250   7.209
 5509POPC   C1B70435   3.069  18.263   6.212
 5509POPC   C2B70436   2.965  18.156   6.668
 5509POPC   C3B70437   3.185  18.126   7.076
 5509POPC   C4B70438   3.277  18.156   7.558
 5510POPC   NC370439  11.408  34.147   5.341
 5510POPC   PO470440  11.441  33.482   5.201
 5510POPC   GL170441  11.294  33.580   5.660
 5510POPC   GL270442  11.284  33.918   5.800
 5510POPC   C1A70443  11.267  33.522   6.152
 5510POPC   D2A70444  11.162  33.734   6.574
 5510POPC   C3A70445  11.376  33.647   6.988
 5510POPC   C4A70446  11.194  33.398   7.310
 5510POPC   C1B70447  11.430  34.029   6.228
 5510POPC   C2B70448  11.362  34.251   6.624
 5510POPC   C3B70449  11.310  34.174   7.069
 5510POPC   C4B70450  11.700  34.127   7.267
 5511POPC   NC370451  31.421  14.546   5.416
 5511POPC   PO470452  31.106  13.998   5.617
 5511POPC   GL170453  31.227  14.391   5.891
 5511POPC   GL270454  31.062  14.679   5.786
 5511POPC   C1A70455  31.543  14.544   6.225
 5511POPC   D2A70456  31.652  14.837   6.552
 5511POPC   C3A70457  31.618  14.575   6.903
 5511POPC   C4A70458  31.643  14.219   7.159
 5511POPC   C1B70459  31.095  14.802   6.193
 5511POPC   C2B70460  31.155  14.559   6.546
 5511POPC   C3B70461  31.102  14.584   6.939
 5511POPC   C4B70462  31.227  14.508   7.325
 5512POPC   NC370463  19.932  33.166   5.282
 5512POPC   PO470464  20.058  32.607   5.125
 5512POPC   GL170465  19.909  32.755   5.616
 5512POPC   GL270466  19.939  33.100   5.784
 5512POPC   C1A70467  19.947  32.711   6.106
 5512POPC   D2A70468  19.717  32.777   6.508
 5512POPC   C3A70469  19.881  32.884   6.930
 5512POPC   C4A70470  19.697  32.998   7.332
 5512POPC   C1B70471  19.794  33.233   6.201
 5512POPC   C2B70472  19.906  33.320   6.629
 5512POPC   C3B70473  19.681  33.373   7.005
 5512POPC   C4B70474  19.508  33.469   7.368
 5513POPC   NC370475  18.676  42.092   5.549
 5513POPC   PO470476  19.289  42.423   5.424
 5513POPC   GL170477  19.105  42.322   5.809
 5513POPC   GL270478  19.202  42.028   6.009
 5513POPC   C1A70479  19.222  42.509   6.190
 5513POPC   D2A70480  19.382  42.392   6.561
 5513POPC   C3A70481  19.146  42.334   6.918
 5513POPC   C4A70482  19.204  42.531   7.306
 5513POPC   C1B70483  18.862  42.189   6.293
 5513POPC   C2B70484  18.664  42.392   6.659
 5513POPC   C3B70485  18.654  42.268   7.046
 5513POPC   C4B70486  18.905  42.125   7.370
 5514POPC   NC370487  32.087  40.626   5.427
 5514POPC   PO470488  32.363  41.227   5.364
 5514POPC   GL170489  32.379  40.945   5.717
 5514POPC   GL270490  32.059  41.032   5.800
 5514POPC   C1A70491  32.494  40.695   6.124
 5514POPC   D2A70492  32.352  40.808   6.559
 5514POPC   C3A70493  32.455  40.560   6.910
 5514POPC   C4A70494  32.266  40.524   7.317
 5514POPC   C1B70495  32.003  40.827   6.192
 5514POPC   C2B70496  31.863  40.993   6.608
 5514POPC   C3B70497  32.016  40.829   6.977
 5514POPC   C4B70498  32.202  41.010   7.347
 5515POPC   NC370499  28.580  28.878   5.617
 5515POPC   PO470500  28.370  29.521   5.434
 5515POPC   GL170501  28.252  29.258   5.791
 5515POPC   GL270502  28.480  29.425   5.953
 5515POPC   C1A70503  28.374  29.046   6.242
 5515POPC   D2A70504  28.431  29.229   6.670
 5515POPC   C3A70505  28.344  28.952   7.001
 5515POPC   C4A70506  28.200  28.967   7.424
 5515POPC   C1B70507  28.537  29.594   6.313
 5515POPC   C2B70508  28.796  29.660   6.638
 5515POPC   C3B70509  28.525  29.670   6.942
 5515POPC   C4B70510  28.437  29.391   7.254
 5516POPC   NC370511  13.766   0.147   5.312
 5516POPC   PO470512  14.108   0.771   5.489
 5516POPC   GL170513  13.751   0.685   5.806
 5516POPC   GL270514  13.610   0.355   5.793
 5516POPC   C1A70515  13.582   0.804   6.207
 5516POPC   D2A70516  13.789   0.764   6.622
 5516POPC   C3A70517  13.617   0.482   6.912
 5516POPC   C4A70518  13.574   0.464   7.351
 5516POPC   C1B70519  13.606   0.302   6.230
 5516POPC   C2B70520  13.276   0.402   6.530
 5516POPC   C3B70521  13.245   0.122   6.855
 5516POPC   C4B70522  13.515  44.993   7.166
 5517POPC   NC370523  24.064  21.698   5.587
 5517POPC   PO470524  23.605  21.708   5.119
 5517POPC   GL170525  23.568  21.506   5.650
 5517POPC   GL270526  23.849  21.293   5.822
 5517POPC   C1A70527  23.451  21.387   6.189
 5517POPC   D2A70528  23.773  21.332   6.597
 5517POPC   C3A70529  23.744  21.227   7.065
 5517POPC   C4A70530  23.505  21.115   7.484
 5517POPC   C1B70531  23.882  21.617   6.186
 5517POPC   C2B70532  23.829  21.875   6.552
 5517POPC   C3B70533  23.642  21.765   6.952
 5517POPC   C4B70534  23.878  21.649   7.301
 5518POPC   NC370535  35.600  20.318   5.510
 5518POPC   PO470536  35.314  20.909   5.287
 5518POPC   GL170537  35.408  20.838   5.717
 5518POPC   GL270538  35.741  20.704   5.827
 5518POPC   C1A70539  35.282  20.793   6.153
 5518POPC   D2A70540  35.041  20.513   6.472
 5518POPC   C3A70541  35.136  20.400   6.925
 5518POPC   C4A70542  35.195  20.775   7.226
 5518POPC   C1B70543  35.590  20.380   6.158
 5518POPC   C2B70544  35.555  20.318   6.602
 5518POPC   C3B70545  35.582  20.640   6.923
 5518POPC   C4B70546  35.730  20.492   7.309
 5519POPC   NC370547  43.373   6.935   5.519
 5519POPC   PO470548  42.949   6.386   5.391
 5519POPC   GL170549  42.965   6.670   5.741
 5519POPC   GL270550  42.876   7.048   5.723
 5519POPC   C1A70551  43.159   6.651   6.150
 5519POPC   D2A70552  43.386   6.774   6.526
 5519POPC   C3A70553  43.196   6.751   6.935
 5519POPC   C4A70554  43.271   6.547   7.310
 5519POPC   C1B70555  43.093   7.172   6.124
 5519POPC   C2B70556  43.249   7.284   6.546
 5519POPC   C3B70557  43.066   7.261   6.953
 5519POPC   C4B70558  42.963   6.992   7.325
 5520POPC   NC370559  10.837  30.249   5.441
 5520POPC   PO470560  10.435  29.724   5.253
 5520POPC   GL170561  10.574  29.695   5.675
 5520POPC   GL270562  10.567  30.009   5.794
 5520POPC   C1A70563  10.514  29.649   6.130
 5520POPC   D2A70564  10.343  29.638   6.535
 5520POPC   C3A70565  10.611  29.678   6.885
 5520POPC   C4A70566  10.522  29.729   7.302
 5520POPC   C1B70567  10.432  30.158   6.179
 5520POPC   C2B70568  10.556  30.155   6.631
 5520POPC   C3B70569  10.385  30.160   7.054
 5520POPC   C4B70570  10.561  30.219   7.482
 5521POPC   NC370571  22.462  18.537   5.226
 5521POPC   PO470572  22.070  18.106   5.537
 5521POPC   GL170573  22.214  18.191   5.898
 5521POPC   GL270574  22.268  18.549   5.722
 5521POPC   C1A70575  22.003  18.166   6.306
 5521POPC   D2A70576  21.975  18.417   6.676
 5521POPC   C3A70577  22.314  18.275   6.925
 5521POPC   C4A70578  22.263  18.023   7.282
 5521POPC   C1B70579  22.092  18.634   6.100
 5521POPC   C2B70580  22.268  18.785   6.455
 5521POPC   C3B70581  22.288  18.796   6.874
 5521POPC   C4B70582  22.096  18.662   7.221
 5522POPC   NC370583  17.052  30.137   5.672
 5522POPC   PO470584  16.726  29.765   5.199
 5522POPC   GL170585  16.655  29.678   5.666
 5522POPC   GL270586  16.468  30.000   5.791
 5522POPC   C1A70587  16.706  29.717   6.139
 5522POPC   D2A70588  16.448  29.749   6.532
 5522POPC   C3A70589  16.761  29.702   6.875
 5522POPC   C4A70590  16.795  29.712   7.341
 5522POPC   C1B70591  16.513  30.177   6.241
 5522POPC   C2B70592  16.645  30.200   6.684
 5522POPC   C3B70593  16.630  30.138   7.131
 5522POPC   C4B70594  16.719  30.164   7.582
 5523POPC   NC370595  42.279  29.630   5.333
 5523POPC   PO470596  42.281  30.315   5.361
 5523POPC   GL170597  42.432  30.007   5.693
 5523POPC   GL270598  42.548  29.648   5.753
 5523POPC   C1A70599  42.455  30.049   6.142
 5523POPC   D2A70600  42.406  30.304   6.493
 5523POPC   C3A70601  42.402  30.122   6.886
 5523POPC   C4A70602  42.564  30.323   7.260
 5523POPC   C1B70603  42.290  29.563   6.126
 5523POPC   C2B70604  42.396  29.585   6.570
 5523POPC   C3B70605  42.230  29.592   6.985
 5523POPC   C4B70606  42.305  29.851   7.328
 5524POPC   NC370607  30.676  36.892   5.211
 5524POPC   PO470608  30.218  36.462   5.522
 5524POPC   GL170609  30.452  36.636   5.895
 5524POPC   GL270610  30.771  36.847   5.843
 5524POPC   C1A70611  30.473  36.934   6.242
 5524POPC   D2A70612  30.692  36.820   6.597
 5524POPC   C3A70613  30.563  36.953   6.976
 5524POPC   C4A70614  30.357  37.013   7.354
 5524POPC   C1B70615  31.028  36.679   6.230
 5524POPC   C2B70616  31.123  36.604   6.716
 5524POPC   C3B70617  30.901  36.579   7.130
 5524POPC   C4B70618  31.004  36.627   7.573
 5525POPC   NC370619  39.349  40.953   5.308
 5525POPC   PO470620  38.788  41.242   5.484
 5525POPC   GL170621  39.017  40.854   5.721
 5525POPC   GL270622  39.388  40.808   5.775
 5525POPC   C1A70623  39.109  40.701   6.167
 5525POPC   D2A70624  39.199  40.787   6.583
 5525POPC   C3A70625  38.967  40.640   6.929
 5525POPC   C4A70626  39.161  40.807   7.248
 5525POPC   C1B70627  39.630  40.577   6.069
 5525POPC   C2B70628  39.518  40.352   6.430
 5525POPC   C3B70629  39.447  40.447   6.863
 5525POPC   C4B70630  39.660  40.734   7.149
 5526POPC   NC370631   5.959   5.791   5.091
 5526POPC   PO470632   6.346   5.861   5.375
 5526POPC   GL170633   6.161   5.895   5.842
 5526POPC   GL270634   5.935   6.194   5.951
 5526POPC   C1A70635   5.996   5.831   6.313
 5526POPC   D2A70636   5.703   5.926   6.682
 5526POPC   C3A70637   5.880   5.855   7.136
 5526POPC   C4A70638   6.164   5.577   7.384
 5526POPC   C1B70639   5.569   6.344   6.214
 5526POPC   C2B70640   5.503   6.463   6.647
 5526POPC   C3B70641   5.783   6.341   6.970
 5526POPC   C4B70642   5.821   6.303   7.392
 5527POPC   NC370643  31.047  12.451   5.535
 5527POPC   PO470644  30.518  12.885   5.476
 5527POPC   GL170645  30.599  12.605   5.815
 5527POPC   GL270646  30.921  12.736   5.951
 5527POPC   C1A70647  30.589  12.540   6.272
 5527POPC   D2A70648  30.872  12.808   6.543
 5527POPC   C3A70649  30.920  12.798   7.023
 5527POPC   C4A70650  30.778  12.794   7.468
 5527POPC   C1B70651  30.625  13.048   6.136
 5527POPC   C2B70652  30.571  13.259   6.555
 5527POPC   C3B70653  30.671  13.234   7.010
 5527POPC   C4B70654  30.613  13.270   7.448
 5528POPC   NC370655   0.182  25.578   5.480
 5528POPC   PO470656   0.619  25.129   5.562
 5528POPC   GL170657   0.458  25.017   5.940
 5528POPC   GL270658   0.669  24.732   6.003
 5528POPC   C1A70659   0.325  25.335   6.266
 5528POPC   D2A70660   0.454  25.512   6.669
 5528POPC   C3A70661   0.363  25.216   6.990
 5528POPC   C4A70662   0.293  25.176   7.434
 5528POPC   C1B70663   0.742  25.026   6.372
 5528POPC   C2B70664   0.894  25.081   6.802
 5528POPC   C3B70665   0.822  25.425   7.071
 5528POPC   C4B70666   0.532  25.622   7.325
 5529POPC   NC370667   9.581  24.829   5.544
 5529POPC   PO470668   9.490  24.133   5.479
 5529POPC   GL170669   9.652  24.372   5.849
 5529POPC   GL270670   9.987  24.428   5.851
 5529POPC   C1A70671   9.748  24.444   6.323
 5529POPC   D2A70672  10.070  24.531   6.666
 5529POPC   C3A70673   9.893  24.808   6.988
 5529POPC   C4A70674   9.669  24.883   7.382
 5529POPC   C1B70675   9.955  24.019   6.135
 5529POPC   C2B70676   9.943  24.044   6.618
 5529POPC   C3B70677   9.783  24.268   7.029
 5529POPC   C4B70678   9.845  24.051   7.459
 5530POPC   NC370679  33.572  16.630   5.354
 5530POPC   PO470680  34.239  16.438   5.503
 5530POPC   GL170681  33.956  16.689   5.801
 5530POPC   GL270682  33.588  16.767   5.819
 5530POPC   C1A70683  33.837  16.497   6.180
 5530POPC   D2A70684  33.892  16.271   6.558
 5530POPC   C3A70685  33.806  16.590   6.845
 5530POPC   C4A70686  34.014  16.626   7.191
 5530POPC   C1B70687  33.681  16.990   6.172
 5530POPC   C2B70688  34.015  16.951   6.490
 5530POPC   C3B70689  34.014  17.111   6.906
 5530POPC   C4B70690  33.690  17.028   7.179
 5531POPC   NC370691  14.426  12.951   5.392
 5531POPC   PO470692  14.873  12.450   5.427
 5531POPC   GL170693  14.633  12.643   5.756
 5531POPC   GL270694  14.279  12.638   5.799
 5531POPC   C1A70695  14.694  12.782   6.181
 5531POPC   D2A70696  14.365  12.663   6.494
 5531POPC   C3A70697  14.477  12.711   6.946
 5531POPC   C4A70698  14.753  12.837   7.274
 5531POPC   C1B70699  14.292  13.056   6.029
 5531POPC   C2B70700  14.262  13.176   6.459
 5531POPC   C3B70701  14.369  13.239   6.859
 5531POPC   C4B70702  14.198  13.118   7.226
 5532POPC   NC370703  22.494  17.056   5.381
 5532POPC   PO470704  21.933  16.815   5.272
 5532POPC   GL170705  22.167  16.775   5.673
 5532POPC   GL270706  22.343  16.462   5.629
 5532POPC   C1A70707  22.250  16.983   6.095
 5532POPC   D2A70708  22.233  16.782   6.527
 5532POPC   C3A70709  22.095  16.954   6.954
 5532POPC   C4A70710  21.699  16.869   7.214
 5532POPC   C1B70711  22.360  16.474   6.087
 5532POPC   C2B70712  22.625  16.440   6.467
 5532POPC   C3B70713  22.581  16.621   6.884
 5532POPC   C4B70714  22.335  16.458   7.201
 5533POPC   NC370715  31.528  35.126   5.383
 5533POPC   PO470716  31.207  35.688   5.556
 5533POPC   GL170717  31.123  35.508   5.964
 5533POPC   GL270718  31.218  35.206   5.804
 5533POPC   C1A70719  31.165  35.371   6.419
 5533POPC   D2A70720  31.269  35.575   6.851
 5533POPC   C3A70721  31.645  35.464   7.119
 5533POPC   C4A70722  31.639  35.244   7.513
 5533POPC   C1B70723  31.600  35.395   6.040
 5533POPC   C2B70724  31.684  35.378   6.486
 5533POPC   C3B70725  31.534  35.102   6.811
 5533POPC   C4B70726  31.853  34.956   7.143
 5534POPC   NC370727  41.476  16.813   5.452
 5534POPC   PO470728  41.999  16.435   5.583
 5534POPC   GL170729  41.669  16.552   5.881
 5534POPC   GL270730  41.328  16.754   5.927
 5534POPC   C1A70731  41.618  16.586   6.317
 5534POPC   D2A70732  41.427  16.490   6.693
 5534POPC   C3A70733  41.565  16.715   7.052
 5534POPC   C4A70734  41.799  16.506   7.341
 5534POPC   C1B70735  41.300  17.040   6.304
 5534POPC   C2B70736  41.208  16.944   6.753
 5534POPC   C3B70737  41.087  16.837   7.188
 5534POPC   C4B70738  41.301  16.670   7.565
 5535POPC   NC370739  29.360  24.613   5.119
 5535POPC   PO470740  28.899  24.289   5.468
 5535POPC   GL170741  29.021  24.592   5.759
 5535POPC   GL270742  29.352  24.688   5.770
 5535POPC   C1A70743  29.003  24.489   6.183
 5535POPC   D2A70744  29.131  24.520   6.595
 5535POPC   C3A70745  29.224  24.180   6.868
 5535POPC   C4A70746  29.034  24.041   7.234
 5535POPC   C1B70747  29.470  24.747   6.236
 5535POPC   C2B70748  29.607  24.575   6.692
 5535POPC   C3B70749  29.334  24.625   7.114
 5535POPC   C4B70750  29.525  24.605   7.561
 5536POPC   NC370751   3.394  24.663   5.526
 5536POPC   PO470752   4.061  24.833   5.431
 5536POPC   GL170753   3.766  24.791   5.835
 5536POPC   GL270754   3.698  24.409   5.873
 5536POPC   C1A70755   3.458  24.683   6.218
 5536POPC   D2A70756   3.371  24.444   6.643
 5536POPC   C3A70757   3.534  24.702   7.014
 5536POPC   C4A70758   3.817  24.772   7.369
 5536POPC   C1B70759   3.567  24.144   6.264
 5536POPC   C2B70760   3.702  24.032   6.715
 5536POPC   C3B70761   3.820  24.271   7.081
 5536POPC   C4B70762   3.773  24.279   7.515
 5537POPC   NC370763  40.415  16.948   5.386
 5537POPC   PO470764  41.045  16.645   5.462
 5537POPC   GL170765  40.805  16.751   5.842
 5537POPC   GL270766  40.533  16.547   5.708
 5537POPC   C1A70767  40.821  16.837   6.326
 5537POPC   D2A70768  40.754  17.138   6.704
 5537POPC   C3A70769  40.575  16.911   7.037
 5537POPC   C4A70770  40.663  16.830   7.503
 5537POPC   C1B70771  40.571  16.390   6.127
 5537POPC   C2B70772  40.576  16.427   6.549
 5537POPC   C3B70773  40.903  16.512   6.805
 5537POPC   C4B70774  40.759  16.447   7.192
 5538POPC   NC370775  25.091  27.588   5.235
 5538POPC   PO470776  24.723  27.960   5.630
 5538POPC   GL170777  25.034  27.672   5.795
 5538POPC   GL270778  25.277  27.387   5.697
 5538POPC   C1A70779  25.213  27.697   6.195
 5538POPC   D2A70780  25.211  27.873   6.602
 5538POPC   C3A70781  25.051  27.664   6.997
 5538POPC   C4A70782  25.284  27.689   7.363
 5538POPC   C1B70783  25.579  27.354   6.083
 5538POPC   C2B70784  25.685  27.457   6.503
 5538POPC   C3B70785  25.544  27.563   6.893
 5538POPC   C4B70786  25.696  27.417   7.282
 5539POPC   NC370787  34.374  24.220   5.478
 5539POPC   PO470788  35.059  24.270   5.301
 5539POPC   GL170789  34.859  24.461   5.718
 5539POPC   GL270790  34.499  24.585   5.798
 5539POPC   C1A70791  34.813  24.532   6.184
 5539POPC   D2A70792  34.631  24.682   6.572
 5539POPC   C3A70793  34.777  24.596   7.009
 5539POPC   C4A70794  34.718  24.440   7.447
 5539POPC   C1B70795  34.288  24.545   6.194
 5539POPC   C2B70796  34.160  24.469   6.625
 5539POPC   C3B70797  34.266  24.726   7.000
 5539POPC   C4B70798  34.186  24.714   7.466
 5540POPC   NC370799  17.857   3.438   5.077
 5540POPC   PO470800  18.456   3.428   5.382
 5540POPC   GL170801  18.573   3.352   5.784
 5540POPC   GL270802  18.272   3.548   5.926
 5540POPC   C1A70803  18.514   3.181   6.165
 5540POPC   D2A70804  18.261   3.372   6.472
 5540POPC   C3A70805  18.378   3.310   6.898
 5540POPC   C4A70806  18.022   3.210   7.156
 5540POPC   C1B70807  18.565   3.745   6.233
 5540POPC   C2B70808  18.453   3.825   6.664
 5540POPC   C3B70809  18.057   3.735   6.869
 5540POPC   C4B70810  18.213   3.698   7.258
 5541POPC   NC370811  38.686  33.758   5.453
 5541POPC   PO470812  38.043  33.471   5.558
 5541POPC   GL170813  38.357  33.639   5.831
 5541POPC   GL270814  38.695  33.461   5.858
 5541POPC   C1A70815  38.427  33.695   6.249
 5541POPC   D2A70816  38.418  33.501   6.620
 5541POPC   C3A70817  38.204  33.747   6.874
 5541POPC   C4A70818  38.240  33.900   7.258
 5541POPC   C1B70819  38.924  33.754   6.155
 5541POPC   C2B70820  38.791  33.887   6.576
 5541POPC   C3B70821  38.741  33.706   6.959
 5541POPC   C4B70822  38.768  33.866   7.318
 5542POPC   NC370823  37.368  41.213   5.282
 5542POPC   PO470824  37.621  40.667   5.568
 5542POPC   GL170825  37.719  40.706   5.984
 5542POPC   GL270826  37.688  41.069   6.092
 5542POPC   C1A70827  37.729  40.650   6.399
 5542POPC   D2A70828  37.736  40.859   6.749
 5542POPC   C3A70829  37.988  40.607   7.028
 5542POPC   C4A70830  37.911  40.442   7.475
 5542POPC   C1B70831  37.357  40.986   6.366
 5542POPC   C2B70832  37.188  40.669   6.636
 5542POPC   C3B70833  37.230  40.604   7.070
 5542POPC   C4B70834  37.579  40.811   7.230
 5543POPC   NC370835  21.648  32.729   5.179
 5543POPC   PO470836  21.312  33.231   5.256
 5543POPC   GL170837  21.354  33.103   5.701
 5543POPC   GL270838  21.608  32.816   5.744
 5543POPC   C1A70839  21.332  33.330   6.114
 5543POPC   D2A70840  21.440  33.175   6.540
 5543POPC   C3A70841  21.288  33.358   6.913
 5543POPC   C4A70842  21.540  33.232   7.258
 5543POPC   C1B70843  21.373  32.818   6.176
 5543POPC   C2B70844  21.186  32.727   6.630
 5543POPC   C3B70845  21.216  32.865   7.069
 5543POPC   C4B70846  21.418  32.784   7.466
 5544POPC   NC370847  44.744   0.102   5.494
 5544POPC   PO470848  44.940   0.573   5.094
 5544POPC   GL170849  44.886   0.547   5.639
 5544POPC   GL270850   0.209   0.530   5.852
 5544POPC   C1A70851  44.715   0.421   6.073
 5544POPC   D2A70852  44.375   0.394   6.384
 5544POPC   C3A70853  44.435   0.350   6.839
 5544POPC   C4A70854  44.337   0.540   7.257
 5544POPC   C1B70855   0.142   0.604   6.307
 5544POPC   C2B70856  44.896   0.331   6.596
 5544POPC   C3B70857  44.892   0.224   7.047
 5544POPC   C4B70858  44.812   0.455   7.436
 5545POPC   NC370859  40.251  43.481   5.112
 5545POPC   PO470860  39.905  44.037   5.394
 5545POPC   GL170861  39.656  44.078   5.769
 5545POPC   GL270862  40.006  44.001   5.911
 5545POPC   C1A70863  39.606  44.009   6.231
 5545POPC   D2A70864  39.883  43.844   6.595
 5545POPC   C3A70865  39.945  44.096   6.976
 5545POPC   C4A70866  40.305  44.254   7.228
 5545POPC   C1B70867  40.293  43.837   6.228
 5545POPC   C2B70868  40.298  43.502   6.541
 5545POPC   C3B70869  40.298  43.671   6.956
 5545POPC   C4B70870  40.084  43.769   7.346
 5546POPC   NC370871  10.977  32.323   5.396
 5546POPC   PO470872  10.337  32.023   5.404
 5546POPC   GL170873  10.561  32.157   5.791
 5546POPC   GL270874  10.699  32.457   5.891
 5546POPC   C1A70875  10.408  32.201   6.236
 5546POPC   D2A70876  10.382  32.510   6.588
 5546POPC   C3A70877  10.231  32.301   6.977
 5546POPC   C4A70878   9.906  32.114   7.279
 5546POPC   C1B70879  10.884  32.428   6.311
 5546POPC   C2B70880  11.012  32.605   6.713
 5546POPC   C3B70881  10.865  32.436   7.126
 5546POPC   C4B70882  10.485  32.543   7.337
 5547POPC   NC370883  23.218  18.917   5.437
 5547POPC   PO470884  22.843  19.482   5.438
 5547POPC   GL170885  22.873  19.133   5.762
 5547POPC   GL270886  22.703  18.826   5.634
 5547POPC   C1A70887  23.143  18.925   6.119
 5547POPC   D2A70888  23.296  18.788   6.545
 5547POPC   C3A70889  23.143  19.020   6.901
 5547POPC   C4A70890  22.946  19.167   7.285
 5547POPC   C1B70891  22.640  18.805   6.093
 5547POPC   C2B70892  22.752  19.047   6.470
 5547POPC   C3B70893  22.642  19.187   6.877
 5547POPC   C4B70894  22.449  19.076   7.267
 5548POPC   NC370895  19.684   2.674   5.373
 5548POPC   PO470896  20.147   3.109   5.526
 5548POPC   GL170897  19.929   2.863   5.817
 5548POPC   GL270898  19.907   2.484   5.812
 5548POPC   C1A70899  19.883   2.755   6.242
 5548POPC   D2A70900  20.059   2.997   6.582
 5548POPC   C3A70901  19.834   3.013   6.946
 5548POPC   C4A70902  20.019   2.865   7.303
 5548POPC   C1B70903  19.936   2.199   6.161
 5548POPC   C2B70904  19.831   2.185   6.596
 5548POPC   C3B70905  19.839   2.510   6.899
 5548POPC   C4B70906  19.630   2.519   7.312
 5549POPC   NC370907  21.654  22.422   5.396
 5549POPC   PO470908  21.183  21.903   5.369
 5549POPC   GL170909  21.241  22.225   5.637
 5549POPC   GL270910  21.579  22.085   5.775
 5549POPC   C1A70911  21.231  22.327   6.052
 5549POPC   D2A70912  21.523  22.209   6.367
 5549POPC   C3A70913  21.296  22.165   6.708
 5549POPC   C4A70914  21.301  22.441   7.039
 5549POPC   C1B70915  21.793  21.839   6.101
 5549POPC   C2B70916  21.935  21.912   6.543
 5549POPC   C3B70917  21.748  22.100   6.931
 5549POPC   C4B70918  21.553  22.100   7.323
 5550POPC   NC370919  17.768   7.181   5.291
 5550POPC   PO470920  17.628   6.634   5.152
 5550POPC   GL170921  17.682   6.644   5.646
 5550POPC   GL270922  18.027   6.670   5.738
 5550POPC   C1A70923  17.667   6.526   6.139
 5550POPC   D2A70924  17.772   6.545   6.639
 5550POPC   C3A70925  17.664   6.370   7.093
 5550POPC   C4A70926  17.555   6.129   7.505
 5550POPC   C1B70927  18.107   6.777   6.201
 5550POPC   C2B70928  18.183   6.835   6.679
 5550POPC   C3B70929  17.933   6.836   7.102
 5550POPC   C4B70930  17.755   7.027   7.498
 5551POPC   NC370931  23.492  43.929   5.290
 5551POPC   PO470932  23.752  43.468   5.465
 5551POPC   GL170933  23.532  43.699   5.826
 5551POPC   GL270934  23.351  44.031   5.749
 5551POPC   C1A70935  23.597  43.765   6.311
 5551POPC   D2A70936  23.440  43.860   6.758
 5551POPC   C3A70937  23.718  43.943   7.124
 5551POPC   C4A70938  23.773  43.937   7.587
 5551POPC   C1B70939  23.308  44.142   6.143
 5551POPC   C2B70940  23.282  44.336   6.542
 5551POPC   C3B70941  23.415  44.329   6.967
 5551POPC   C4B70942  23.327  44.148   7.366
 5552POPC   NC370943  33.155  36.241   5.507
 5552POPC   PO470944  32.737  35.706   5.412
 5552POPC   GL170945  32.936  35.862   5.800
 5552POPC   GL270946  32.765  36.183   5.906
 5552POPC   C1A70947  33.153  36.023   6.196
 5552POPC   D2A70948  33.410  36.248   6.529
 5552POPC   C3A70949  33.332  36.157   6.992
 5552POPC   C4A70950  33.205  36.097   7.450
 5552POPC   C1B70951  32.604  36.099   6.335
 5552POPC   C2B70952  32.573  36.007   6.795
 5552POPC   C3B70953  32.791  36.199   7.152
 5552POPC   C4B70954  33.081  36.549   7.246
 5553POPC   NC370955  42.502  21.177   5.292
 5553POPC   PO470956  42.750  21.811   5.422
 5553POPC   GL170957  42.487  21.475   5.699
 5553POPC   GL270958  42.277  21.154   5.752
 5553POPC   C1A70959  42.583  21.323   6.122
 5553POPC   D2A70960  42.752  21.599   6.450
 5553POPC   C3A70961  42.714  21.432   6.899
 5553POPC   C4A70962  42.336  21.309   7.193
 5553POPC   C1B70963  41.954  21.014   6.038
 5553POPC   C2B70964  41.923  21.081   6.475
 5553POPC   C3B70965  41.945  21.185   6.894
 5553POPC   C4B70966  41.814  20.924   7.227
 5554POPC   NC370967   0.035  10.885   5.323
 5554POPC   PO470968   0.415  11.440   5.508
 5554POPC   GL170969   0.414  11.265   5.886
 5554POPC   GL270970   0.136  11.092   5.792
 5554POPC   C1A70971   0.572  11.171   6.286
 5554POPC   D2A70972   0.777  11.121   6.665
 5554POPC   C3A70973   0.504  11.245   6.989
 5554POPC   C4A70974   0.641  11.357   7.373
 5554POPC   C1B70975   0.039  11.104   6.218
 5554POPC   C2B70976   0.226  10.999   6.607
 5554POPC   C3B70977   0.061  10.988   7.025
 5554POPC   C4B70978   0.172  11.154   7.420
 5555POPC   NC370979   4.505  22.415   5.359
 5555POPC   PO470980   3.901  22.199   5.481
 5555POPC   GL170981   4.208  22.276   5.799
 5555POPC   GL270982   4.581  22.170   5.842
 5555POPC   C1A70983   4.231  22.094   6.196
 5555POPC   D2A70984   4.211  22.151   6.623
 5555POPC   C3A70985   4.456  21.977   6.952
 5555POPC   C4A70986   4.137  22.060   7.233
 5555POPC   C1B70987   4.626  22.374   6.292
 5555POPC   C2B70988   4.562  22.484   6.766
 5555POPC   C3B70989   4.494  22.452   7.243
 5555POPC   C4B70990   4.718  22.431   7.623
 5556POPC   NC370991   4.461  26.853   5.561
 5556POPC   PO470992   3.831  26.816   5.534
 5556POPC   GL170993   4.065  27.068   5.894
 5556POPC   GL270994   4.250  26.795   6.027
 5556POPC   C1A70995   4.133  27.102   6.411
 5556POPC   D2A70996   3.958  26.883   6.817
 5556POPC   C3A70997   4.100  26.857   7.262
 5556POPC   C4A70998   4.351  26.968   7.637
 5556POPC   C1B70999   3.925  26.624   6.321
 5556POPC   C2B71000   3.809  26.395   6.728
 5556POPC   C3B71001   4.145  26.373   7.091
 5556POPC   C4B71002   4.543  26.616   7.252
 5557POPC   NC371003  21.043  35.287   5.421
 5557POPC   PO471004  21.459  35.752   5.438
 5557POPC   GL171005  21.286  35.502   5.802
 5557POPC   GL271006  21.376  35.116   5.771
 5557POPC   C1A71007  21.389  35.481   6.214
 5557POPC   D2A71008  21.578  35.712   6.546
 5557POPC   C3A71009  21.447  35.550   6.929
 5557POPC   C4A71010  21.612  35.603   7.323
 5557POPC   C1B71011  21.265  34.955   6.165
 5557POPC   C2B71012  21.279  35.106   6.574
 5557POPC   C3B71013  21.446  34.974   6.930
 5557POPC   C4B71014  21.412  35.152   7.299
 5558POPC   NC371015  36.925  17.396   5.218
 5558POPC   PO471016  36.823  16.787   5.441
 5558POPC   GL171017  36.857  16.837   5.875
 5558POPC   GL271018  36.650  17.114   5.854
 5558POPC   C1A71019  36.904  16.760   6.324
 5558POPC   D2A71020  36.636  16.713   6.662
 5558POPC   C3A71021  36.947  16.680   6.994
 5558POPC   C4A71022  37.252  16.417   7.129
 5558POPC   C1B71023  36.520  17.082   6.242
 5558POPC   C2B71024  36.654  17.244   6.604
 5558POPC   C3B71025  36.660  17.091   7.021
 5558POPC   C4B71026  36.620  17.006   7.479
 5559POPC   NC371027  41.972   8.128   5.389
 5559POPC   PO471028  41.284   8.407   5.330
 5559POPC   GL171029  41.530   8.245   5.674
 5559POPC   GL271030  41.456   7.923   5.600
 5559POPC   C1A71031  41.806   8.164   6.034
 5559POPC   D2A71032  41.972   8.122   6.457
 5559POPC   C3A71033  41.718   8.338   6.771
 5559POPC   C4A71034  41.664   8.186   7.180
 5559POPC   C1B71035  41.340   7.963   6.045
 5559POPC   C2B71036  41.196   8.131   6.445
 5559POPC   C3B71037  41.291   7.999   6.860
 5559POPC   C4B71038  41.180   8.069   7.280
 5560POPC   NC371039   8.533  11.536   5.205
 5560POPC   PO471040   7.995  11.067   5.341
 5560POPC   GL171041   8.047  11.269   5.738
 5560POPC   GL271042   8.038  10.909   5.871
 5560POPC   C1A71043   8.267  11.279   6.144
 5560POPC   D2A71044   8.485  11.362   6.511
 5560POPC   C3A71045   8.475  11.123   6.866
 5560POPC   C4A71046   8.504  11.268   7.257
 5560POPC   C1B71047   7.780  11.141   6.177
 5560POPC   C2B71048   7.879  11.489   6.461
 5560POPC   C3B71049   8.086  11.493   6.843
 5560POPC   C4B71050   8.004  11.305   7.226
 5561POPC   NC371051  20.859   6.160   5.484
 5561POPC   PO471052  20.507   6.798   5.539
 5561POPC   GL171053  20.764   6.834   5.867
 5561POPC   GL271054  20.863   6.499   5.884
 5561POPC   C1A71055  20.764   6.836   6.301
 5561POPC   D2A71056  20.537   6.620   6.573
 5561POPC   C3A71057  20.574   6.843   6.917
 5561POPC   C4A71058  20.643   6.714   7.281
 5561POPC   C1B71059  20.857   6.331   6.260
 5561POPC   C2B71060  20.904   6.156   6.609
 5561POPC   C3B71061  20.795   6.347   6.949
 5561POPC   C4B71062  20.984   6.333   7.332
 5562POPC   NC371063  27.411  14.274   5.404
 5562POPC   PO471064  27.891  14.073   5.772
 5562POPC   GL171065  27.561  14.318   5.908
 5562POPC   GL271066  27.701  14.657   5.904
 5562POPC   C1A71067  27.544  14.276   6.342
 5562POPC   D2A71068  27.843  14.318   6.650
 5562POPC   C3A71069  27.690  14.281   7.073
 5562POPC   C4A71070  27.797  14.391   7.513
 5562POPC   C1B71071  27.423  14.745   6.264
 5562POPC   C2B71072  27.434  14.627   6.721
 5562POPC   C3B71073  27.619  14.774   7.106
 5562POPC   C4B71074  27.428  14.732   7.506
 5563POPC   NC371075  11.606  21.750   5.382
 5563POPC   PO471076  11.004  21.514   5.041
 5563POPC   GL171077  11.163  21.376   5.558
 5563POPC   GL271078  11.105  21.060   5.817
 5563POPC   C1A71079  11.359  21.427   6.047
 5563POPC   D2A71080  11.474  21.540   6.511
 5563POPC   C3A71081  11.560  21.370   6.922
 5563POPC   C4A71082  11.827  21.551   7.208
 5563POPC   C1B71083  10.978  21.107   6.259
 5563POPC   C2B71084  11.104  21.210   6.689
 5563POPC   C3B71085  11.152  21.162   7.141
 5563POPC   C4B71086  10.892  21.210   7.508
 5564POPC   NC371087  31.701  25.681   5.339
 5564POPC   PO471088  31.739  25.010   5.317
 5564POPC   GL171089  31.662  24.946   5.768
 5564POPC   GL271090  31.351  25.155   5.806
 5564POPC   C1A71091  31.500  24.862   6.180
 5564POPC   D2A71092  31.348  25.008   6.525
 5564POPC   C3A71093  31.467  24.887   6.929
 5564POPC   C4A71094  31.345  25.166   7.232
 5564POPC   C1B71095  31.208  25.380   6.207
 5564POPC   C2B71096  31.106  25.540   6.608
 5564POPC   C3B71097  31.312  25.624   7.013
 5564POPC   C4B71098  31.655  25.806   7.207
 5565POPC   NC371099  32.740  34.089   5.556
 5565POPC   PO471100  33.134  33.551   5.397
 5565POPC   GL171101  33.118  33.785   5.744
 5565POPC   GL271102  32.798  33.692   5.861
 5565POPC   C1A71103  33.154  33.972   6.145
 5565POPC   D2A71104  33.275  33.776   6.543
 5565POPC   C3A71105  32.999  33.769   6.896
 5565POPC   C4A71106  33.198  33.874   7.267
 5565POPC   C1B71107  32.699  33.743   6.283
 5565POPC   C2B71108  32.550  33.558   6.651
 5565POPC   C3B71109  32.510  33.669   7.106
 5565POPC   C4B71110  32.665  34.024   7.308
 5566POPC   NC371111  16.639  23.351   5.556
 5566POPC   PO471112  16.855  22.721   5.426
 5566POPC   GL171113  16.721  22.904   5.824
 5566POPC   GL271114  16.389  22.876   5.975
 5566POPC   C1A71115  16.813  23.015   6.259
 5566POPC   D2A71116  16.875  23.232   6.656
 5566POPC   C3A71117  17.029  23.004   6.991
 5566POPC   C4A71118  16.797  22.761   7.297
 5566POPC   C1B71119  16.332  23.236   6.296
 5566POPC   C2B71120  16.377  23.207   6.714
 5566POPC   C3B71121  16.524  22.842   6.875
 5566POPC   C4B71122  16.298  22.946   7.226
 5567POPC   NC371123  44.757   6.170   4.865
 5567POPC   PO471124  44.549   6.491   5.449
 5567POPC   GL171125  44.628   6.563   5.896
 5567POPC   GL271126  44.999   6.434   5.899
 5567POPC   C1A71127  44.420   6.556   6.307
 5567POPC   D2A71128  44.297   6.428   6.736
 5567POPC   C3A71129  44.576   6.599   7.043
 5567POPC   C4A71130  44.641   6.487   7.471
 5567POPC   C1B71131  44.945   6.709   6.272
 5567POPC   C2B71132  44.785   6.944   6.637
 5567POPC   C3B71133   0.039   7.000   7.012
 5567POPC   C4B71134   0.002   6.838   7.459
 5568POPC   NC371135  37.154  36.368   5.333
 5568POPC   PO471136  36.743  35.826   5.405
 5568POPC   GL171137  36.826  36.192   5.732
 5568POPC   GL271138  37.053  36.468   5.834
 5568POPC   C1A71139  36.682  36.347   6.177
 5568POPC   D2A71140  36.694  36.157   6.614
 5568POPC   C3A71141  36.670  36.387   7.012
 5568POPC   C4A71142  36.767  36.278   7.469
 5568POPC   C1B71143  37.194  36.321   6.297
 5568POPC   C2B71144  37.181  36.209   6.762
 5568POPC   C3B71145  36.944  35.954   7.063
 5568POPC   C4B71146  36.977  35.824   7.493
 5569POPC   NC371147   0.515  43.010   5.267
 5569POPC   PO471148   0.029  43.390   5.371
 5569POPC   GL171149   0.316  43.219   5.736
 5569POPC   GL271150   0.433  42.859   5.768
 5569POPC   C1A71151   0.498  43.314   6.168
 5569POPC   D2A71152   0.447  43.613   6.545
 5569POPC   C3A71153   0.559  43.424   6.939
 5569POPC   C4A71154   0.357  43.305   7.332
 5569POPC   C1B71155   0.582  42.794   6.222
 5569POPC   C2B71156   0.633  43.026   6.616
 5569POPC   C3B71157   0.374  42.952   6.957
 5569POPC   C4B71158   0.453  42.617   7.152
 5570POPC   NC371159  32.367  19.473   5.360
 5570POPC   PO471160  32.071  18.805   5.455
 5570POPC   GL171161  32.336  18.877   5.815
 5570POPC   GL271162  32.377  19.239   5.865
 5570POPC   C1A71163  32.386  18.735   6.216
 5570POPC   D2A71164  31.994  18.789   6.442
 5570POPC   C3A71165  32.001  18.833   6.859
 5570POPC   C4A71166  32.285  18.772   7.208
 5570POPC   C1B71167  32.176  19.210   6.228
 5570POPC   C2B71168  32.107  19.342   6.621
 5570POPC   C3B71169  32.188  19.302   7.053
 5570POPC   C4B71170  31.967  19.498   7.367
 5571POPC   NC371171  32.961  20.463   5.462
 5571POPC   PO471172  32.958  21.077   5.534
 5571POPC   GL171173  33.215  20.839   5.839
 5571POPC   GL271174  33.309  20.461   5.831
 5571POPC   C1A71175  32.985  20.709   6.216
 5571POPC   D2A71176  32.678  20.597   6.532
 5571POPC   C3A71177  32.797  20.726   6.927
 5571POPC   C4A71178  32.824  20.561   7.340
 5571POPC   C1B71179  33.467  20.552   6.244
 5571POPC   C2B71180  33.277  20.645   6.659
 5571POPC   C3B71181  33.257  20.559   7.084
 5571POPC   C4B71182  33.198  20.164   7.267
 5572POPC   NC371183  39.475  37.053   5.410
 5572POPC   PO471184  38.874  36.689   5.592
 5572POPC   GL171185  39.171  36.953   5.853
 5572POPC   GL271186  39.540  36.900   5.886
 5572POPC   C1A71187  39.181  36.910   6.323
 5572POPC   D2A71188  38.855  36.992   6.642
 5572POPC   C3A71189  38.996  37.120   7.039
 5572POPC   C4A71190  39.005  36.716   7.294
 5572POPC   C1B71191  39.660  36.703   6.261
 5572POPC   C2B71192  39.605  36.854   6.672
 5572POPC   C3B71193  39.422  36.837   7.061
 5572POPC   C4B71194  39.528  36.950   7.496
 5573POPC   NC371195   4.164  29.109   5.010
 5573POPC   PO471196   4.444  29.408   5.535
 5573POPC   GL171197   4.360  29.243   5.938
 5573POPC   GL271198   4.269  28.891   6.044
 5573POPC   C1A71199   4.598  29.175   6.291
 5573POPC   D2A71200   4.388  29.163   6.644
 5573POPC   C3A71201   4.600  29.314   6.953
 5573POPC   C4A71202   4.625  29.141   7.329
 5573POPC   C1B71203   3.976  29.106   6.295
 5573POPC   C2B71204   3.899  29.063   6.727
 5573POPC   C3B71205   4.110  29.169   7.107
 5573POPC   C4B71206   3.968  28.869   7.386
 5574POPC   NC371207  19.293  31.998   5.478
 5574POPC   PO471208  19.271  32.651   5.359
 5574POPC   GL171209  19.171  32.497   5.801
 5574POPC   GL271210  19.065  32.149   5.939
 5574POPC   C1A71211  19.016  32.593   6.240
 5574POPC   D2A71212  19.228  32.584   6.634
 5574POPC   C3A71213  19.134  32.333   6.975
 5574POPC   C4A71214  19.185  32.316   7.406
 5574POPC   C1B71215  19.128  32.108   6.409
 5574POPC   C2B71216  18.978  31.877   6.771
 5574POPC   C3B71217  18.998  31.860   7.219
 5574POPC   C4B71218  19.107  31.848   7.629
 5575POPC   NC371219  41.854  20.033   5.344
 5575POPC   PO471220  41.316  19.587   5.156
 5575POPC   GL171221  41.495  19.856   5.663
 5575POPC   GL271222  41.699  20.137   5.802
 5575POPC   C1A71223  41.641  19.733   6.099
 5575POPC   D2A71224  41.567  19.819   6.499
 5575POPC   C3A71225  41.690  19.540   6.826
 5575POPC   C4A71226  41.594  19.583   7.255
 5575POPC   C1B71227  41.416  20.226   6.138
 5575POPC   C2B71228  41.358  20.276   6.586
 5575POPC   C3B71229  41.402  19.988   6.942
 5575POPC   C4B71230  41.153  19.968   7.257
 5576POPC   NC371231  37.349   8.474   5.654
 5576POPC   PO471232  36.924   8.083   5.226
 5576POPC   GL171233  36.889   8.199   5.668
 5576POPC   GL271234  36.947   7.911   5.839
 5576POPC   C1A71235  36.818   8.420   6.081
 5576POPC   D2A71236  36.606   8.456   6.510
 5576POPC   C3A71237  36.802   8.419   6.932
 5576POPC   C4A71238  36.730   8.161   7.328
 5576POPC   C1B71239  37.077   7.979   6.290
 5576POPC   C2B71240  36.971   7.974   6.748
 5576POPC   C3B71241  37.100   7.862   7.170
 5576POPC   C4B71242  37.065   7.984   7.664
 5577POPC   NC371243  38.593  39.401   5.481
 5577POPC   PO471244  38.052  38.985   5.521
 5577POPC   GL171245  38.106  39.194   5.933
 5577POPC   GL271246  38.260  39.505   5.892
 5577POPC   C1A71247  38.302  39.108   6.362
 5577POPC   D2A71248  38.542  38.771   6.585
 5577POPC   C3A71249  38.700  38.903   6.963
 5577POPC   C4A71250  38.861  39.298   7.153
 5577POPC   C1B71251  38.602  39.510   6.218
 5577POPC   C2B71252  38.677  39.367   6.652
 5577POPC   C3B71253  38.380  39.307   6.972
 5577POPC   C4B71254  38.313  39.517   7.361
 5578POPC   NC371255  11.738   5.522   5.423
 5578POPC   PO471256  12.215   5.056   5.432
 5578POPC   GL171257  11.974   5.130   5.821
 5578POPC   GL271258  11.644   5.112   5.760
 5578POPC   C1A71259  11.942   4.953   6.266
 5578POPC   D2A71260  12.050   4.902   6.728
 5578POPC   C3A71261  12.015   5.217   7.094
 5578POPC   C4A71262  11.802   5.091   7.503
 5578POPC   C1B71263  11.521   5.215   6.206
 5578POPC   C2B71264  11.713   5.322   6.657
 5578POPC   C3B71265  11.629   5.567   7.078
 5578POPC   C4B71266  11.732   5.587   7.552
 5579POPC   NC371267  26.631  33.764   5.541
 5579POPC   PO471268  26.960  34.345   5.434
 5579POPC   GL171269  26.932  34.091   5.823
 5579POPC   GL271270  26.571  34.135   5.867
 5579POPC   C1A71271  26.951  33.783   6.178
 5579POPC   D2A71272  26.864  33.467   6.462
 5579POPC   C3A71273  27.017  33.557   6.872
 5579POPC   C4A71274  26.833  33.504   7.243
 5579POPC   C1B71275  26.681  34.203   6.285
 5579POPC   C2B71276  26.720  33.950   6.671
 5579POPC   C3B71277  26.735  34.001   7.156
 5579POPC   C4B71278  26.975  34.293   7.385
 5580POPC   NC371279  30.193  36.933   5.592
 5580POPC   PO471280  29.501  36.773   5.366
 5580POPC   GL171281  29.710  36.930   5.766
 5580POPC   GL271282  29.835  36.628   5.869
 5580POPC   C1A71283  29.935  37.078   6.173
 5580POPC   D2A71284  29.913  37.252   6.595
 5580POPC   C3A71285  30.020  37.067   6.976
 5580POPC   C4A71286  29.833  37.072   7.379
 5580POPC   C1B71287  29.582  36.716   6.277
 5580POPC   C2B71288  29.665  36.789   6.737
 5580POPC   C3B71289  29.524  36.706   7.179
 5580POPC   C4B71290  29.587  36.724   7.672
 5581POPC   NC371291  41.436  42.140   5.321
 5581POPC   PO471292  42.061  42.490   5.391
 5581POPC   GL171293  41.793  42.242   5.714
 5581POPC   GL271294  41.504  42.440   5.729
 5581POPC   C1A71295  41.609  42.111   6.149
 5581POPC   D2A71296  41.486  42.342   6.537
 5581POPC   C3A71297  41.545  42.219   6.965
 5581POPC   C4A71298  41.364  42.346   7.399
 5581POPC   C1B71299  41.679  42.622   6.087
 5581POPC   C2B71300  41.961  42.553   6.420
 5581POPC   C3B71301  42.018  42.556   6.859
 5581POPC   C4B71302  41.785  42.568   7.230
 5582POPC   NC371303   1.427  43.312   5.544
 5582POPC   PO471304   0.913  42.950   5.473
 5582POPC   GL171305   0.946  42.931   5.898
 5582POPC   GL271306   1.284  43.017   5.910
 5582POPC   C1A71307   1.008  43.165   6.293
 5582POPC   D2A71308   0.938  43.477   6.575
 5582POPC   C3A71309   1.090  43.357   6.953
 5582POPC   C4A71310   0.928  43.026   7.138
 5582POPC   C1B71311   1.590  43.067   6.225
 5582POPC   C2B71312   1.611  42.861   6.637
 5582POPC   C3B71313   1.479  43.018   7.041
 5582POPC   C4B71314   1.651  43.420   7.199
 5583POPC   NC371315  10.293  20.708   5.622
 5583POPC   PO471316   9.708  20.325   5.412
 5583POPC   GL171317   9.782  20.572   5.789
 5583POPC   GL271318   9.570  20.875   5.845
 5583POPC   C1A71319   9.610  20.472   6.195
 5583POPC   D2A71320   9.362  20.623   6.516
 5583POPC   C3A71321   9.528  20.498   6.878
 5583POPC   C4A71322   9.801  20.457   7.179
 5583POPC   C1B71323   9.873  20.920   6.210
 5583POPC   C2B71324   9.789  20.898   6.664
 5583POPC   C3B71325   9.633  20.952   7.095
 5583POPC   C4B71326   9.646  20.815   7.535
 5584POPC   NC371327  22.508  14.497   5.324
 5584POPC   PO471328  22.735  13.864   5.290
 5584POPC   GL171329  22.719  14.122   5.675
 5584POPC   GL271330  22.858  14.479   5.699
 5584POPC   C1A71331  22.723  14.233   6.139
 5584POPC   D2A71332  22.839  14.489   6.528
 5584POPC   C3A71333  23.041  14.284   6.860
 5584POPC   C4A71334  22.923  14.155   7.258
 5584POPC   C1B71335  22.944  14.729   6.088
 5584POPC   C2B71336  23.091  14.940   6.475
 5584POPC   C3B71337  23.094  14.814   6.885
 5584POPC   C4B71338  22.869  14.649   7.207
 5585POPC   NC371339  41.255  15.031   5.322
 5585POPC   PO471340  41.928  15.096   5.267
 5585POPC   GL171341  41.805  14.860   5.690
 5585POPC   GL271342  41.449  14.872   5.790
 5585POPC   C1A71343  41.878  14.870   6.173
 5585POPC   D2A71344  41.855  15.250   6.494
 5585POPC   C3A71345  41.764  15.219   6.968
 5585POPC   C4A71346  41.853  15.502   7.351
 5585POPC   C1B71347  41.404  15.070   6.195
 5585POPC   C2B71348  41.494  14.901   6.590
 5585POPC   C3B71349  41.267  14.822   6.943
 5585POPC   C4B71350  41.403  14.983   7.303
 5586POPC   NC371351   4.621  21.631   5.467
 5586POPC   PO471352   3.925  21.562   5.481
 5586POPC   GL171353   4.194  21.413   5.755
 5586POPC   GL271354   4.303  21.728   5.876
 5586POPC   C1A71355   4.183  21.329   6.178
 5586POPC   D2A71356   4.480  21.200   6.488
 5586POPC   C3A71357   4.449  21.374   6.879
 5586POPC   C4A71358   4.412  21.120   7.234
 5586POPC   C1B71359   4.520  21.697   6.315
 5586POPC   C2B71360   4.889  21.514   6.545
 5586POPC   C3B71361   4.915  21.679   6.946
 5586POPC   C4B71362   4.694  21.547   7.301
 5587POPC   NC371363   4.949  29.473   5.410
 5587POPC   PO471364   4.699  28.858   5.423
 5587POPC   GL171365   4.815  29.049   5.803
 5587POPC   GL271366   4.875  29.384   5.901
 5587POPC   C1A71367   5.072  28.987   6.181
 5587POPC   D2A71368   4.987  29.066   6.618
 5587POPC   C3A71369   5.260  28.884   6.914
 5587POPC   C4A71370   5.114  28.990   7.287
 5587POPC   C1B71371   5.015  29.517   6.314
 5587POPC   C2B71372   4.969  29.601   6.764
 5587POPC   C3B71373   5.003  29.482   7.228
 5587POPC   C4B71374   5.260  29.374   7.611
 5588POPC   NC371375  43.804   2.092   5.448
 5588POPC   PO471376  43.698   1.407   5.559
 5588POPC   GL171377  43.922   1.747   5.850
 5588POPC   GL271378  44.082   2.137   5.878
 5588POPC   C1A71379  44.084   1.806   6.264
 5588POPC   D2A71380  43.881   1.967   6.615
 5588POPC   C3A71381  44.064   1.920   6.994
 5588POPC   C4A71382  43.768   1.685   7.248
 5588POPC   C1B71383  43.720   2.246   6.200
 5588POPC   C2B71384  43.528   2.356   6.649
 5588POPC   C3B71385  43.680   2.311   7.105
 5588POPC   C4B71386  44.116   2.332   7.293
 5589POPC   NC371387   3.359  10.979   5.253
 5589POPC   PO471388   3.225  10.450   5.624
 5589POPC   GL171389   3.406  10.392   5.987
 5589POPC   GL271390   3.780  10.382   5.902
 5589POPC   C1A71391   3.339  10.641   6.353
 5589POPC   D2A71392   3.528  10.816   6.709
 5589POPC   C3A71393   3.323  10.594   7.007
 5589POPC   C4A71394   3.119  10.226   7.028
 5589POPC   C1B71395   3.805  10.435   6.309
 5589POPC   C2B71396   4.002  10.533   6.649
 5589POPC   C3B71397   3.845  10.538   7.027
 5589POPC   C4B71398   3.883  10.334   7.374
 5590POPC   NC371399   1.086  12.380   5.434
 5590POPC   PO471400   1.355  11.771   5.590
 5590POPC   GL171401   0.970  11.900   5.829
 5590POPC   GL271402   1.045  12.218   5.913
 5590POPC   C1A71403   0.852  11.952   6.296
 5590POPC   D2A71404   1.079  12.116   6.664
 5590POPC   C3A71405   0.927  12.087   7.094
 5590POPC   C4A71406   1.090  12.213   7.502
 5590POPC   C1B71407   1.316  12.357   6.252
 5590POPC   C2B71408   1.379  12.538   6.680
 5590POPC   C3B71409   1.424  12.384   7.112
 5590POPC   C4B71410   1.456  12.593   7.529
 5591POPC   NC371411  24.203  33.918   5.347
 5591POPC   PO471412  24.693  33.451   5.565
 5591POPC   GL171413  24.716  33.761   5.854
 5591POPC   GL271414  24.378  33.785   5.818
 5591POPC   C1A71415  24.712  33.971   6.259
 5591POPC   D2A71416  24.716  34.142   6.681
 5591POPC   C3A71417  24.644  33.808   6.979
 5591POPC   C4A71418  24.580  33.655   7.366
 5591POPC   C1B71419  24.170  34.055   6.061
 5591POPC   C2B71420  24.241  34.029   6.482
 5591POPC   C3B71421  24.247  34.113   6.896
 5591POPC   C4B71422  24.176  34.028   7.318
 5592POPC   NC371423  33.294  25.162   5.158
 5592POPC   PO471424  32.668  25.378   5.304
 5592POPC   GL171425  32.969  25.255   5.685
 5592POPC   GL271426  33.266  25.034   5.674
 5592POPC   C1A71427  32.979  25.165   6.158
 5592POPC   D2A71428  32.848  25.090   6.609
 5592POPC   C3A71429  33.142  25.354   6.827
 5592POPC   C4A71430  33.145  25.580   7.217
 5592POPC   C1B71431  33.345  24.810   6.076
 5592POPC   C2B71432  33.326  24.944   6.495
 5592POPC   C3B71433  33.279  24.824   6.912
 5592POPC   C4B71434  33.213  25.080   7.246
 5593POPC   NC371435  10.962  12.120   5.542
 5593POPC   PO471436  10.382  11.880   5.220
 5593POPC   GL171437  10.410  11.836   5.708
 5593POPC   GL271438  10.712  11.895   5.906
 5593POPC   C1A71439  10.313  11.682   6.137
 5593POPC   D2A71440  10.399  11.769   6.585
 5593POPC   C3A71441  10.287  12.047   6.959
 5593POPC   C4A71442  10.665  12.215   7.196
 5593POPC   C1B71443  10.619  12.134   6.275
 5593POPC   C2B71444  10.595  12.312   6.670
 5593POPC   C3B71445  10.361  12.557   6.974
 5593POPC   C4B71446  10.183  12.390   7.356
 5594POPC   NC371447  36.335  40.251   5.409
 5594POPC   PO471448  35.930  39.767   5.508
 5594POPC   GL171449  36.101  40.006   5.860
 5594POPC   GL271450  36.302  40.309   5.894
 5594POPC   C1A71451  36.023  39.978   6.295
 5594POPC   D2A71452  36.208  39.715   6.620
 5594POPC   C3A71453  36.036  39.880   6.982
 5594POPC   C4A71454  35.975  39.937   7.441
 5594POPC   C1B71455  36.279  40.453   6.289
 5594POPC   C2B71456  36.321  40.233   6.665
 5594POPC   C3B71457  36.319  40.276   7.083
 5594POPC   C4B71458  36.329  40.288   7.471
 5595POPC   NC371459  17.928   8.916   5.375
 5595POPC   PO471460  17.375   9.170   5.347
 5595POPC   GL171461  17.538   9.045   5.766
 5595POPC   GL271462  17.878   9.083   5.878
 5595POPC   C1A71463  17.515   8.978   6.238
 5595POPC   D2A71464  17.400   9.224   6.601
 5595POPC   C3A71465  17.421   9.027   7.014
 5595POPC   C4A71466  17.308   9.008   7.455
 5595POPC   C1B71467  18.020   8.914   6.285
 5595POPC   C2B71468  17.866   8.946   6.723
 5595POPC   C3B71469  17.940   8.727   7.137
 5595POPC   C4B71470  17.923   8.719   7.617
 5596POPC   NC371471  15.495  14.294   5.463
 5596POPC   PO471472  16.196  14.338   5.372
 5596POPC   GL171473  16.019  14.469   5.764
 5596POPC   GL271474  15.752  14.671   5.703
 5596POPC   C1A71475  16.107  14.362   6.203
 5596POPC   D2A71476  15.921  14.355   6.646
 5596POPC   C3A71477  16.162  14.306   7.042
 5596POPC   C4A71478  16.341  13.925   7.241
 5596POPC   C1B71479  15.744  14.717   6.163
 5596POPC   C2B71480  15.648  14.778   6.619
 5596POPC   C3B71481  15.646  14.584   7.048
 5596POPC   C4B71482  15.694  14.540   7.531
 5597POPC   NC371483  10.158   5.345   5.373
 5597POPC   PO471484  10.568   4.889   5.520
 5597POPC   GL171485  10.652   5.098   5.855
 5597POPC   GL271486  10.727   5.451   5.784
 5597POPC   C1A71487  10.558   5.048   6.258
 5597POPC   D2A71488  10.736   5.078   6.651
 5597POPC   C3A71489  10.454   5.017   6.949
 5597POPC   C4A71490  10.420   4.772   7.246
 5597POPC   C1B71491  10.368   5.480   6.056
 5597POPC   C2B71492  10.412   5.470   6.497
 5597POPC   C3B71493  10.624   5.533   6.884
 5597POPC   C4B71494  10.491   5.483   7.300
 5598POPC   NC371495  35.572  43.688   5.438
 5598POPC   PO471496  34.945  43.856   5.239
 5598POPC   GL171497  35.176  43.827   5.715
 5598POPC   GL271498  35.252  44.157   5.892
 5598POPC   C1A71499  35.442  43.757   6.134
 5598POPC   D2A71500  35.583  43.993   6.535
 5598POPC   C3A71501  35.399  43.908   6.928
 5598POPC   C4A71502  35.577  43.662   7.250
 5598POPC   C1B71503  35.482  44.395   6.214
 5598POPC   C2B71504  35.381  44.451   6.667
 5598POPC   C3B71505  35.439  44.390   7.116
 5598POPC   C4B71506  35.297  44.077   7.404
 5599POPC   NC371507  14.737  14.371   5.247
 5599POPC   PO471508  15.298  14.707   5.466
 5599POPC   GL171509  15.287  14.510   5.879
 5599POPC   GL271510  15.118  14.203   5.892
 5599POPC   C1A71511  15.398  14.343   6.289
 5599POPC   D2A71512  15.211  14.460   6.658
 5599POPC   C3A71513  15.222  14.268   7.065
 5599POPC   C4A71514  15.230  14.576   7.364
 5599POPC   C1B71515  14.770  14.020   6.157
 5599POPC   C2B71516  14.886  14.032   6.568
 5599POPC   C3B71517  14.732  14.218   6.930
 5599POPC   C4B71518  14.784  13.994   7.303
 5600POPC   NC371519  30.247  15.833   5.352
 5600POPC   PO471520  29.687  16.160   5.420
 5600POPC   GL171521  29.773  16.139   5.812
 5600POPC   GL271522  29.737  15.751   5.860
 5600POPC   C1A71523  30.052  16.054   6.129
 5600POPC   D2A71524  29.983  15.670   6.403
 5600POPC   C3A71525  30.071  15.773   6.849
 5600POPC   C4A71526  30.212  16.151   7.034
 5600POPC   C1B71527  29.568  15.983   6.258
 5600POPC   C2B71528  29.790  16.210   6.603
 5600POPC   C3B71529  29.679  16.239   7.057
 5600POPC   C4B71530  29.632  15.999   7.439
 5601POPC   NC371531  38.720   2.508   5.153
 5601POPC   PO471532  38.730   2.914   5.705
 5601POPC   GL171533  38.470   2.595   5.887
 5601POPC   GL271534  38.715   2.467   6.097
 5601POPC   C1A71535  38.258   2.346   6.255
 5601POPC   D2A71536  38.053   2.391   6.649
 5601POPC   C3A71537  38.372   2.621   6.891
 5601POPC   C4A71538  38.442   2.584   7.314
 5601POPC   C1B71539  38.520   2.792   6.350
 5601POPC   C2B71540  38.562   3.063   6.655
 5601POPC   C3B71541  38.316   3.222   6.954
 5601POPC   C4B71542  38.417   3.082   7.300
 5602POPC   NC371543  31.967  16.772   5.279
 5602POPC   PO471544  32.430  16.966   5.729
 5602POPC   GL171545  32.210  16.644   5.935
 5602POPC   GL271546  31.872  16.576   5.878
 5602POPC   C1A71547  32.332  16.645   6.333
 5602POPC   D2A71548  32.523  16.779   6.684
 5602POPC   C3A71549  32.439  16.588   7.068
 5602POPC   C4A71550  32.477  16.933   7.332
 5602POPC   C1B71551  31.875  16.887   6.224
 5602POPC   C2B71552  31.992  16.879   6.671
 5602POPC   C3B71553  32.031  16.885   7.102
 5602POPC   C4B71554  32.024  16.546   7.439
 5603POPC   NC371555  42.916   4.599   5.442
 5603POPC   PO471556  43.158   3.961   5.274
 5603POPC   GL171557  43.218   4.213   5.642
 5603POPC   GL271558  42.920   4.137   5.727
 5603POPC   C1A71559  43.267   4.146   6.109
 5603POPC   D2A71560  43.012   4.044   6.500
 5603POPC   C3A71561  43.133   4.290   6.878
 5603POPC   C4A71562  43.162   4.730   7.010
 5603POPC   C1B71563  42.757   4.244   6.101
 5603POPC   C2B71564  42.665   4.513   6.433
 5603POPC   C3B71565  42.644   4.623   6.864
 5603POPC   C4B71566  42.739   4.347   7.218
 5604POPC   NC371567  32.799  15.094   5.377
 5604POPC   PO471568  33.353  14.930   5.656
 5604POPC   GL171569  32.903  15.065   5.867
 5604POPC   GL271570  32.628  15.365   5.767
 5604POPC   C1A71571  32.671  15.081   6.252
 5604POPC   D2A71572  32.756  14.979   6.684
 5604POPC   C3A71573  33.155  15.086   6.826
 5604POPC   C4A71574  33.185  15.064   7.249
 5604POPC   C1B71575  32.832  15.546   6.115
 5604POPC   C2B71576  32.912  15.486   6.561
 5604POPC   C3B71577  32.851  15.464   7.011
 5604POPC   C4B71578  33.266  15.554   7.185
 5605POPC   NC371579  34.308  37.867   5.217
 5605POPC   PO471580  34.918  37.777   5.408
 5605POPC   GL171581  34.563  37.677   5.717
 5605POPC   GL271582  34.224  37.468   5.708
 5605POPC   C1A71583  34.620  37.659   6.173
 5605POPC   D2A71584  34.857  37.711   6.577
 5605POPC   C3A71585  34.861  37.395   6.922
 5605POPC   C4A71586  34.634  37.413   7.324
 5605POPC   C1B71587  34.063  37.623   6.129
 5605POPC   C2B71588  34.278  37.765   6.526
 5605POPC   C3B71589  34.418  37.752   6.958
 5605POPC   C4B71590  34.125  37.567   7.271
 5606POPC   NC371591  41.602   8.712   5.506
 5606POPC   PO471592  41.768   9.352   5.516
 5606POPC   GL171593  41.496   9.252   5.881
 5606POPC   GL271594  41.338   8.915   5.905
 5606POPC   C1A71595  41.622   9.114   6.311
 5606POPC   D2A71596  41.484   8.803   6.627
 5606POPC   C3A71597  41.344   9.032   6.953
 5606POPC   C4A71598  41.629   9.200   7.226
 5606POPC   C1B71599  41.618   8.625   6.155
 5606POPC   C2B71600  41.975   8.684   6.437
 5606POPC   C3B71601  41.990   8.843   6.872
 5606POPC   C4B71602  41.760   8.684   7.206
 5607POPC   NC371603   9.399  41.352   5.449
 5607POPC   PO471604   9.556  41.994   5.450
 5607POPC   GL171605   9.143  41.763   5.682
 5607POPC   GL271606   9.005  41.438   5.832
 5607POPC   C1A71607   9.032  41.814   6.148
 5607POPC   D2A71608   9.060  41.505   6.485
 5607POPC   C3A71609   9.049  41.677   6.906
 5607POPC   C4A71610   9.143  41.528   7.297
 5607POPC   C1B71611   8.650  41.450   6.173
 5607POPC   C2B71612   8.602  41.291   6.612
 5607POPC   C3B71613   8.629  41.363   7.063
 5607POPC   C4B71614   8.626  41.228   7.489
 5608POPC   NC371615  22.840  38.630   5.361
 5608POPC   PO471616  23.251  38.046   5.338
 5608POPC   GL171617  23.009  38.250   5.687
 5608POPC   GL271618  22.618  38.312   5.733
 5608POPC   C1A71619  23.011  38.246   6.133
 5608POPC   D2A71620  22.964  38.507   6.494
 5608POPC   C3A71621  22.930  38.345   6.918
 5608POPC   C4A71622  22.900  38.541   7.328
 5608POPC   C1B71623  22.563  38.547   6.156
 5608POPC   C2B71624  22.501  38.488   6.634
 5608POPC   C3B71625  22.427  38.293   7.071
 5608POPC   C4B71626  22.439  38.499   7.521
 5609POPC   NC371627  35.111   9.104   5.453
 5609POPC   PO471628  35.721   9.089   5.178
 5609POPC   GL171629  35.581   8.978   5.597
 5609POPC   GL271630  35.519   9.309   5.748
 5609POPC   C1A71631  35.559   8.909   6.059
 5609POPC   D2A71632  35.560   9.082   6.479
 5609POPC   C3A71633  35.296   8.842   6.757
 5609POPC   C4A71634  35.242   8.874   7.184
 5609POPC   C1B71635  35.199   9.264   6.106
 5609POPC   C2B71636  35.132   9.353   6.569
 5609POPC   C3B71637  35.399   9.308   6.959
 5609POPC   C4B71638  35.084   9.382   7.268
 5610POPC   NC371639   5.941  17.758   5.395
 5610POPC   PO471640   6.079  17.171   5.569
 5610POPC   GL171641   5.964  17.506   5.846
 5610POPC   GL271642   5.679  17.771   5.824
 5610POPC   C1A71643   6.018  17.509   6.259
 5610POPC   D2A71644   6.125  17.223   6.534
 5610POPC   C3A71645   6.034  17.427   6.861
 5610POPC   C4A71646   6.235  17.473   7.234
 5610POPC   C1B71647   5.525  17.526   6.139
 5610POPC   C2B71648   5.450  17.536   6.586
 5610POPC   C3B71649   5.551  17.544   7.032
 5610POPC   C4B71650   5.798  17.229   7.261
 5611POPC   NC371651  25.112   1.734   5.541
 5611POPC   PO471652  25.120   2.375   5.514
 5611POPC   GL171653  25.009   2.164   5.871
 5611POPC   GL271654  24.717   1.949   5.851
 5611POPC   C1A71655  25.188   2.011   6.229
 5611POPC   D2A71656  25.246   1.761   6.588
 5611POPC   C3A71657  25.315   2.019   6.955
 5611POPC   C4A71658  25.132   2.026   7.344
 5611POPC   C1B71659  24.741   1.771   6.290
 5611POPC   C2B71660  24.772   1.657   6.739
 5611POPC   C3B71661  25.088   1.571   7.084
 5611POPC   C4B71662  25.035   1.573   7.568
 5612POPC   NC371663  33.279   9.061   5.185
 5612POPC   PO471664  32.710   9.038   5.390
 5612POPC   GL171665  32.996   8.955   5.731
 5612POPC   GL271666  33.374   8.872   5.666
 5612POPC   C1A71667  32.868   9.126   6.135
 5612POPC   D2A71668  32.547   9.006   6.408
 5612POPC   C3A71669  32.631   9.043   6.826
 5612POPC   C4A71670  32.888   8.958   7.154
 5612POPC   C1B71671  33.344   8.934   6.125
 5612POPC   C2B71672  33.159   8.984   6.546
 5612POPC   C3B71673  33.289   8.748   6.890
 5612POPC   C4B71674  33.319   8.786   7.337
 5613POPC   NC371675   3.775  28.190   5.076
 5613POPC   PO471676   3.201  28.453   5.326
 5613POPC   GL171677   3.443  28.445   5.716
 5613POPC   GL271678   3.411  28.116   5.895
 5613POPC   C1A71679   3.716  28.468   6.095
 5613POPC   D2A71680   3.719  28.184   6.465
 5613POPC   C3A71681   3.738  28.376   6.880
 5613POPC   C4A71682   3.632  28.470   7.300
 5613POPC   C1B71683   3.206  28.451   6.177
 5613POPC   C2B71684   3.327  28.552   6.590
 5613POPC   C3B71685   3.216  28.423   6.997
 5613POPC   C4B71686   3.082  28.686   7.320
 5614POPC   NC371687  39.122  37.883   5.442
 5614POPC   PO471688  38.887  37.253   5.184
 5614POPC   GL171689  39.028  37.458   5.710
 5614POPC   GL271690  39.285  37.770   5.890
 5614POPC   C1A71691  39.129  37.376   6.134
 5614POPC   D2A71692  39.092  37.449   6.565
 5614POPC   C3A71693  39.439  37.342   6.826
 5614POPC   C4A71694  39.410  37.371   7.248
 5614POPC   C1B71695  38.989  37.876   6.244
 5614POPC   C2B71696  38.974  37.958   6.677
 5614POPC   C3B71697  39.243  37.833   7.012
 5614POPC   C4B71698  39.419  38.094   7.349
 5615POPC   NC371699  39.669  10.771   5.606
 5615POPC   PO471700  39.352  10.214   5.379
 5615POPC   GL171701  39.400  10.155   5.839
 5615POPC   GL271702  39.412  10.491   5.970
 5615POPC   C1A71703  39.236  10.091   6.283
 5615POPC   D2A71704  39.225  10.335   6.650
 5615POPC   C3A71705  39.072  10.328   7.061
 5615POPC   C4A71706  39.435  10.183   7.248
 5615POPC   C1B71707  39.370  10.888   6.195
 5615POPC   C2B71708  39.049  11.053   6.427
 5615POPC   C3B71709  39.101  10.812   6.781
 5615POPC   C4B71710  39.435  10.697   7.085
 5616POPC   NC371711   9.928  16.237   5.147
 5616POPC   PO471712   9.364  15.848   5.343
 5616POPC   GL171713   9.579  15.772   5.801
 5616POPC   GL271714   9.549  16.114   5.997
 5616POPC   C1A71715   9.796  15.749   6.203
 5616POPC   D2A71716   9.700  16.013   6.541
 5616POPC   C3A71717   9.919  15.900   6.911
 5616POPC   C4A71718   9.630  15.773   7.176
 5616POPC   C1B71719   9.460  16.466   6.283
 5616POPC   C2B71720   9.392  16.369   6.726
 5616POPC   C3B71721   9.612  16.285   7.102
 5616POPC   C4B71722   9.457  16.164   7.515
 5617POPC   NC371723  40.419  12.719   5.475
 5617POPC   PO471724  41.026  12.997   5.348
 5617POPC   GL171725  40.784  13.041   5.711
 5617POPC   GL271726  40.779  12.686   5.835
 5617POPC   C1A71727  40.520  13.071   6.084
 5617POPC   D2A71728  40.403  13.139   6.502
 5617POPC   C3A71729  40.695  13.067   6.815
 5617POPC   C4A71730  40.527  12.857   7.206
 5617POPC   C1B71731  41.086  12.541   6.181
 5617POPC   C2B71732  41.104  12.700   6.590
 5617POPC   C3B71733  41.298  12.531   6.921
 5617POPC   C4B71734  41.454  12.639   7.273
 5618POPC   NC371735  26.188  28.561   5.435
 5618POPC   PO471736  25.676  28.120   5.433
 5618POPC   GL171737  25.688  28.412   5.822
 5618POPC   GL271738  25.887  28.709   5.818
 5618POPC   C1A71739  25.679  28.619   6.256
 5618POPC   D2A71740  25.828  28.719   6.654
 5618POPC   C3A71741  25.919  28.397   6.933
 5618POPC   C4A71742  25.664  28.443   7.279
 5618POPC   C1B71743  26.258  28.735   6.090
 5618POPC   C2B71744  26.445  28.705   6.516
 5618POPC   C3B71745  26.315  28.816   6.948
 5618POPC   C4B71746  26.142  28.638   7.344
 5619POPC   NC371747  32.245   9.110   5.385
 5619POPC   PO471748  32.256   8.424   5.442
 5619POPC   GL171749  32.238   8.683   5.802
 5619POPC   GL271750  32.456   8.972   5.853
 5619POPC   C1A71751  32.135   8.752   6.235
 5619POPC   D2A71752  32.278   8.612   6.628
 5619POPC   C3A71753  32.208   8.833   6.985
 5619POPC   C4A71754  32.423   8.969   7.351
 5619POPC   C1B71755  32.179   9.244   6.142
 5619POPC   C2B71756  32.088   9.197   6.593
 5619POPC   C3B71757  32.228   9.339   7.007
 5619POPC   C4B71758  32.029   9.291   7.395
 5620POPC   NC371759  44.344  20.622   5.434
 5620POPC   PO471760   0.050  20.798   5.351
 5620POPC   GL171761  44.807  20.661   5.668
 5620POPC   GL271762  44.647  21.008   5.662
 5620POPC   C1A71763  44.624  20.403   6.049
 5620POPC   D2A71764  44.490  20.579   6.474
 5620POPC   C3A71765  44.569  20.392   6.898
 5620POPC   C4A71766  44.817  20.475   7.268
 5620POPC   C1B71767  44.754  20.905   6.110
 5620POPC   C2B71768  44.879  20.918   6.543
 5620POPC   C3B71769  44.732  20.900   6.966
 5620POPC   C4B71770   0.042  20.950   7.249
 5621POPC   NC371771  43.322  44.050   5.139
 5621POPC   PO471772  43.930  43.969   5.352
 5621POPC   GL171773  43.817  43.808   5.743
 5621POPC   GL271774  43.476  43.901   5.807
 5621POPC   C1A71775  44.051  43.696   6.141
 5621POPC   D2A71776  43.916  43.828   6.550
 5621POPC   C3A71777  44.123  43.981   6.917
 5621POPC   C4A71778  43.913  43.973   7.303
 5621POPC   C1B71779  43.544  43.661   6.187
 5621POPC   C2B71780  43.630  43.415   6.563
 5621POPC   C3B71781  43.784  43.516   6.982
 5621POPC   C4B71782  43.657  43.550   7.425
 5622POPC   NC371783  38.062  37.860   5.322
 5622POPC   PO471784  37.449  37.500   5.415
 5622POPC   GL171785  37.531  37.678   5.797
 5622POPC   GL271786  37.666  37.352   5.908
 5622POPC   C1A71787  37.585  37.823   6.219
 5622POPC   D2A71788  37.411  37.664   6.592
 5622POPC   C3A71789  37.484  37.856   6.965
 5622POPC   C4A71790  37.821  37.831   7.217
 5622POPC   C1B71791  37.955  37.447   6.253
 5622POPC   C2B71792  37.944  37.616   6.676
 5622POPC   C3B71793  38.111  37.452   7.063
 5622POPC   C4B71794  38.162  37.530   7.551
 5623POPC   NC371795  33.869  36.434   5.499
 5623POPC   PO471796  33.492  35.839   5.493
 5623POPC   GL171797  33.705  35.810   5.865
 5623POPC   GL271798  34.033  35.926   5.808
 5623POPC   C1A71799  33.600  35.751   6.269
 5623POPC   D2A71800  33.685  35.841   6.659
 5623POPC   C3A71801  33.511  35.623   6.988
 5623POPC   C4A71802  33.627  35.835   7.332
 5623POPC   C1B71803  33.962  36.110   6.221
 5623POPC   C2B71804  33.927  36.310   6.616
 5623POPC   C3B71805  33.849  36.171   7.006
 5623POPC   C4B71806  34.047  36.135   7.375
 5624POPC   NC371807  22.754  40.913   5.485
 5624POPC   PO471808  23.271  40.518   5.272
 5624POPC   GL171809  22.993  40.551   5.740
 5624POPC   GL271810  23.115  40.801   5.964
 5624POPC   C1A71811  22.933  40.332   6.180
 5624POPC   D2A71812  23.112  40.538   6.566
 5624POPC   C3A71813  22.815  40.753   6.860
 5624POPC   C4A71814  22.780  40.719   7.298
 5624POPC   C1B71815  22.702  40.785   6.176
 5624POPC   C2B71816  22.483  40.979   6.518
 5624POPC   C3B71817  22.332  41.075   6.923
 5624POPC   C4B71818  22.452  41.083   7.356
 5625POPC   NC371819  34.666  13.649   5.448
 5625POPC   PO471820  34.059  13.567   5.411
 5625POPC   GL171821  34.324  13.705   5.816
 5625POPC   GL271822  34.635  13.533   5.946
 5625POPC   C1A71823  34.413  13.861   6.256
 5625POPC   D2A71824  34.585  13.686   6.606
 5625POPC   C3A71825  34.645  13.831   7.033
 5625POPC   C4A71826  34.459  13.598   7.399
 5625POPC   C1B71827  34.829  13.311   6.319
 5625POPC   C2B71828  34.961  13.385   6.750
 5625POPC   C3B71829  34.917  13.424   7.171
 5625POPC   C4B71830  34.904  13.414   7.602
 5626POPC   NC371831  31.068  17.679   5.361
 5626POPC   PO471832  31.744  17.594   5.440
 5626POPC   GL171833  31.646  17.641   5.836
 5626POPC   GL271834  31.304  17.615   5.833
 5626POPC   C1A71835  31.628  17.537   6.267
 5626POPC   D2A71836  31.379  17.574   6.676
 5626POPC   C3A71837  31.659  17.581   7.010
 5626POPC   C4A71838  31.770  17.281   7.294
 5626POPC   C1B71839  31.133  17.710   6.238
 5626POPC   C2B71840  30.861  17.553   6.568
 5626POPC   C3B71841  30.949  17.421   6.966
 5626POPC   C4B71842  31.196  17.650   7.217
 5627POPC   NC371843   5.452  22.197   5.596
 5627POPC   PO471844   4.847  22.038   5.408
 5627POPC   GL171845   5.000  21.829   5.787
 5627POPC   GL271846   5.352  21.722   5.817
 5627POPC   C1A71847   4.995  21.910   6.235
 5627POPC   D2A71848   4.970  22.176   6.613
 5627POPC   C3A71849   4.908  22.198   7.062
 5627POPC   C4A71850   5.156  22.364   7.399
 5627POPC   C1B71851   5.495  21.766   6.235
 5627POPC   C2B71852   5.330  21.805   6.637
 5627POPC   C3B71853   5.354  21.956   7.063
 5627POPC   C4B71854   5.089  21.865   7.418
 5628POPC   NC371855  22.909  16.232   5.407
 5628POPC   PO471856  23.001  15.579   5.444
 5628POPC   GL171857  22.846  15.854   5.763
 5628POPC   GL271858  23.129  16.095   5.844
 5628POPC   C1A71859  22.697  16.040   6.126
 5628POPC   D2A71860  22.925  15.988   6.479
 5628POPC   C3A71861  22.776  16.080   6.872
 5628POPC   C4A71862  22.892  15.803   7.206
 5628POPC   C1B71863  23.251  15.778   6.107
 5628POPC   C2B71864  23.436  15.776   6.495
 5628POPC   C3B71865  23.242  15.796   6.845
 5628POPC   C4B71866  23.401  15.651   7.209
 5629POPC   NC371867   9.400  22.691   5.316
 5629POPC   PO471868   8.951  22.187   5.253
 5629POPC   GL171869   9.121  22.092   5.687
 5629POPC   GL271870   9.008  21.736   5.783
 5629POPC   C1A71871   9.001  22.358   6.052
 5629POPC   D2A71872   8.776  22.269   6.454
 5629POPC   C3A71873   8.981  22.248   6.883
 5629POPC   C4A71874   8.887  22.336   7.312
 5629POPC   C1B71875   9.022  21.884   6.190
 5629POPC   C2B71876   9.176  21.902   6.569
 5629POPC   C3B71877   9.050  21.729   6.930
 5629POPC   C4B71878   9.136  21.900   7.274
 5630POPC   NC371879  33.669  24.232   5.125
 5630POPC   PO471880  34.136  24.631   5.430
 5630POPC   GL171881  33.939  24.443   5.797
 5630POPC   GL271882  33.633  24.314   5.634
 5630POPC   C1A71883  33.778  24.565   6.244
 5630POPC   D2A71884  33.795  24.824   6.622
 5630POPC   C3A71885  33.778  24.576   6.996
 5630POPC   C4A71886  33.973  24.148   7.024
 5630POPC   C1B71887  33.470  24.227   6.033
 5630POPC   C2B71888  33.585  24.073   6.434
 5630POPC   C3B71889  33.500  24.087   6.854
 5630POPC   C4B71890  33.345  24.365   7.154
 5631POPC   NC371891  42.222  21.873   5.369
 5631POPC   PO471892  42.556  22.491   5.289
 5631POPC   GL171893  42.326  22.280   5.678
 5631POPC   GL271894  42.435  21.962   5.807
 5631POPC   C1A71895  42.318  22.269   6.183
 5631POPC   D2A71896  42.270  22.042   6.598
 5631POPC   C3A71897  42.047  22.191   6.973
 5631POPC   C4A71898  42.279  22.182   7.355
 5631POPC   C1B71899  42.306  21.738   6.179
 5631POPC   C2B71900  42.278  21.533   6.618
 5631POPC   C3B71901  42.376  21.778   7.051
 5631POPC   C4B71902  42.316  21.690   7.551
 5632POPC   NC371903  25.730  16.044   5.481
 5632POPC   PO471904  26.459  16.075   5.389
 5632POPC   GL171905  26.157  15.809   5.645
 5632POPC   GL271906  26.103  16.138   5.806
 5632POPC   C1A71907  26.200  15.744   6.128
 5632POPC   D2A71908  26.371  15.900   6.550
 5632POPC   C3A71909  26.141  15.828   6.919
 5632POPC   C4A71910  26.024  15.783   7.326
 5632POPC   C1B71911  25.976  16.262   6.206
 5632POPC   C2B71912  25.898  16.190   6.627
 5632POPC   C3B71913  25.758  16.228   7.044
 5632POPC   C4B71914  26.029  16.286   7.381
 5633POPC   NC371915  36.185  31.124   5.367
 5633POPC   PO471916  36.133  30.476   5.415
 5633POPC   GL171917  36.372  30.639   5.721
 5633POPC   GL271918  36.441  30.360   5.904
 5633POPC   C1A71919  36.283  30.800   6.141
 5633POPC   D2A71920  36.171  30.767   6.581
 5633POPC   C3A71921  36.413  31.001   6.894
 5633POPC   C4A71922  36.209  31.051   7.304
 5633POPC   C1B71923  36.165  30.295   6.279
 5633POPC   C2B71924  36.195  30.272   6.734
 5633POPC   C3B71925  36.324  30.540   7.069
 5633POPC   C4B71926  36.277  30.610   7.548
 5634POPC   NC371927  41.216  28.770   5.557
 5634POPC   PO471928  41.601  29.356   5.436
 5634POPC   GL171929  41.396  29.185   5.811
 5634POPC   GL271930  41.618  28.920   5.908
 5634POPC   C1A71931  41.198  28.997   6.200
 5634POPC   D2A71932  41.244  29.222   6.578
 5634POPC   C3A71933  41.232  29.039   6.942
 5634POPC   C4A71934  41.459  29.164   7.280
 5634POPC   C1B71935  41.673  28.998   6.372
 5634POPC   C2B71936  41.674  28.766   6.771
 5634POPC   C3B71937  41.770  28.753   7.240
 5634POPC   C4B71938  41.811  29.056   7.618
 5635POPC   NC371939   2.359  27.789   5.349
 5635POPC   PO471940   3.039  27.478   5.474
 5635POPC   GL171941   2.865  27.625   5.827
 5635POPC   GL271942   2.509  27.558   5.818
 5635POPC   C1A71943   2.883  27.486   6.258
 5635POPC   D2A71944   2.695  27.338   6.647
 5635POPC   C3A71945   2.915  27.498   6.997
 5635POPC   C4A71946   2.860  27.661   7.411
 5635POPC   C1B71947   2.472  27.789   6.191
 5635POPC   C2B71948   2.546  27.825   6.649
 5635POPC   C3B71949   2.471  27.759   7.103
 5635POPC   C4B71950   2.472  28.026   7.488
 5636POPC   NC371951  25.416  35.444   5.460
 5636POPC   PO471952  24.851  35.777   5.459
 5636POPC   GL171953  25.029  35.551   5.832
 5636POPC   GL271954  25.368  35.632   5.933
 5636POPC   C1A71955  25.048  35.319   6.223
 5636POPC   D2A71956  25.390  35.332   6.530
 5636POPC   C3A71957  25.257  35.195   6.932
 5636POPC   C4A71958  25.531  35.079   7.252
 5636POPC   C1B71959  25.208  35.796   6.341
 5636POPC   C2B71960  25.157  35.727   6.768
 5636POPC   C3B71961  25.408  35.681   7.142
 5636POPC   C4B71962  25.039  35.502   7.290
 5637POPC   NC371963   4.541  32.741   5.581
 5637POPC   PO471964   4.063  32.357   5.492
 5637POPC   GL171965   4.244  32.108   5.774
 5637POPC   GL271966   4.578  32.236   5.805
 5637POPC   C1A71967   4.275  32.118   6.221
 5637POPC   D2A71968   4.049  32.008   6.579
 5637POPC   C3A71969   4.235  32.153   6.960
 5637POPC   C4A71970   4.056  32.234   7.379
 5637POPC   C1B71971   4.679  32.463   6.162
 5637POPC   C2B71972   4.592  32.352   6.566
 5637POPC   C3B71973   4.600  32.573   6.908
 5637POPC   C4B71974   4.580  32.369   7.274
 5638POPC   NC371975   2.974   5.227   5.501
 5638POPC   PO471976   2.733   4.604   5.460
 5638POPC   GL171977   2.622   4.886   5.799
 5638POPC   GL271978   2.456   5.187   5.668
 5638POPC   C1A71979   2.677   4.857   6.285
 5638POPC   D2A71980   2.617   4.883   6.765
 5638POPC   C3A71981   2.955   4.962   7.072
 5638POPC   C4A71982   2.993   4.965   7.528
 5638POPC   C1B71983   2.320   5.190   6.112
 5638POPC   C2B71984   2.322   5.297   6.564
 5638POPC   C3B71985   2.525   5.338   6.982
 5638POPC   C4B71986   2.511   5.067   7.318
 5639POPC   NC371987   5.566   8.505   5.657
 5639POPC   PO471988   5.683   8.003   5.282
 5639POPC   GL171989   5.905   8.123   5.706
 5639POPC   GL271990   6.110   7.853   5.727
 5639POPC   C1A71991   5.873   8.262   6.186
 5639POPC   D2A71992   5.659   8.175   6.573
 5639POPC   C3A71993   5.817   8.383   6.887
 5639POPC   C4A71994   5.815   8.219   7.281
 5639POPC   C1B71995   6.187   7.837   6.175
 5639POPC   C2B71996   6.161   7.984   6.598
 5639POPC   C3B71997   6.199   7.753   6.988
 5639POPC   C4B71998   6.120   7.850   7.393
 5640POPC   NC371999   1.308   5.727   5.309
 5640POPC   PO472000   1.311   6.133   5.766
 5640POPC   GL172001   1.314   5.748   5.937
 5640POPC   GL272002   1.017   5.691   5.792
 5640POPC   C1A72003   1.352   5.744   6.378
 5640POPC   D2A72004   1.405   6.181   6.583
 5640POPC   C3A72005   1.332   6.119   6.984
 5640POPC   C4A72006   1.447   5.697   7.081
 5640POPC   C1B72007   0.829   5.751   6.177
 5640POPC   C2B72008   0.916   5.964   6.555
 5640POPC   C3B72009   0.938   5.777   6.942
 5640POPC   C4B72010   1.065   5.898   7.349
 5641POPC   NC372011  12.484  10.536   5.570
 5641POPC   PO472012  11.894  10.817   5.487
 5641POPC   GL172013  12.061  10.663   5.862
 5641POPC   GL272014  12.086  10.330   5.855
 5641POPC   C1A72015  12.185  10.755   6.270
 5641POPC   D2A72016  12.402  10.541   6.601
 5641POPC   C3A72017  12.265  10.594   7.012
 5641POPC   C4A72018  12.444  10.231   7.232
 5641POPC   C1B72019  11.983  10.285   6.297
 5641POPC   C2B72020  11.885  10.544   6.659
 5641POPC   C3B72021  11.791  10.411   7.072
 5641POPC   C4B72022  11.514  10.235   7.351
 5642POPC   NC372023   1.132   0.629   5.338
 5642POPC   PO472024   1.642   0.350   5.458
 5642POPC   GL172025   1.393   0.531   5.787
 5642POPC   GL272026   1.180   0.250   5.755
 5642POPC   C1A72027   1.098   0.567   6.157
 5642POPC   D2A72028   1.139   0.736   6.597
 5642POPC   C3A72029   1.410   0.491   6.880
 5642POPC   C4A72030   1.529   0.608   7.291
 5642POPC   C1B72031   1.188   0.061   6.170
 5642POPC   C2B72032   0.889  44.995   6.525
 5642POPC   C3B72033   0.890   0.038   6.968
 5642POPC   C4B72034   1.218   0.184   7.244
 5643POPC   NC372035  20.469  11.942   5.141
 5643POPC   PO472036  20.681  12.407   5.446
 5643POPC   GL172037  20.437  12.313   5.829
 5643POPC   GL272038  20.409  11.934   5.907
 5643POPC   C1A72039  20.539  12.334   6.287
 5643POPC   D2A72040  20.751  12.478   6.684
 5643POPC   C3A72041  20.659  12.369   7.152
 5643POPC   C4A72042  20.979  12.342   7.502
 5643POPC   C1B72043  20.312  11.883   6.352
 5643POPC   C2B72044  20.468  12.047   6.728
 5643POPC   C3B72045  20.539  11.874   7.115
 5643POPC   C4B72046  20.250  12.067   7.332
 5644POPC   NC372047  17.956  13.833   5.316
 5644POPC   PO472048  17.429  13.407   5.433
 5644POPC   GL172049  17.390  13.589   5.846
 5644POPC   GL272050  17.254  13.895   5.747
 5644POPC   C1A72051  17.359  13.637   6.327
 5644POPC   D2A72052  17.678  13.664   6.672
 5644POPC   C3A72053  17.646  13.385   7.041
 5644POPC   C4A72054  17.439  13.409   7.480
 5644POPC   C1B72055  17.214  14.101   6.160
 5644POPC   C2B72056  17.044  13.976   6.578
 5644POPC   C3B72057  17.200  13.676   6.872
 5644POPC   C4B72058  17.468  13.825   7.207
 5645POPC   NC372059   8.484  36.468   5.418
 5645POPC   PO472060   8.176  37.100   5.452
 5645POPC   GL172061   8.438  36.885   5.731
 5645POPC   GL272062   8.216  36.609   5.855
 5645POPC   C1A72063   8.496  36.962   6.162
 5645POPC   D2A72064   8.164  37.073   6.454
 5645POPC   C3A72065   8.358  37.106   6.855
 5645POPC   C4A72066   8.343  36.940   7.276
 5645POPC   C1B72067   8.270  36.479   6.302
 5645POPC   C2B72068   8.336  36.416   6.773
 5645POPC   C3B72069   8.091  36.514   7.151
 5645POPC   C4B72070   8.175  36.570   7.594
 5646POPC   NC372071  27.487   8.064   5.242
 5646POPC   PO472072  28.205   8.060   5.283
 5646POPC   GL172073  27.862   8.065   5.632
 5646POPC   GL272074  27.500   8.173   5.763
 5646POPC   C1A72075  27.888   8.214   6.083
 5646POPC   D2A72076  27.732   8.137   6.483
 5646POPC   C3A72077  27.762   8.274   6.870
 5646POPC   C4A72078  27.590   8.062   7.179
 5646POPC   C1B72079  27.383   8.364   6.172
 5646POPC   C2B72080  27.337   8.433   6.625
 5646POPC   C3B72081  27.284   8.433   7.057
 5646POPC   C4B72082  27.487   8.517   7.450
 5647POPC   NC372083  34.007  17.695   5.490
 5647POPC   PO472084  33.810  17.030   5.287
 5647POPC   GL172085  33.760  17.239   5.684
 5647POPC   GL272086  33.396  17.251   5.733
 5647POPC   C1A72087  33.797  17.488   6.093
 5647POPC   D2A72088  34.037  17.478   6.498
 5647POPC   C3A72089  33.949  17.651   6.906
 5647POPC   C4A72090  33.960  17.481   7.301
 5647POPC   C1B72091  33.279  17.412   6.138
 5647POPC   C2B72092  33.481  17.640   6.492
 5647POPC   C3B72093  33.425  17.732   6.931
 5647POPC   C4B72094  33.428  17.444   7.267
 5648POPC   NC372095  23.343  30.313   5.581
 5648POPC   PO472096  23.670  29.855   5.132
 5648POPC   GL172097  23.633  29.896   5.584
 5648POPC   GL272098  23.831  30.194   5.708
 5648POPC   C1A72099  23.550  29.863   6.062
 5648POPC   D2A72100  23.371  29.797   6.501
 5648POPC   C3A72101  23.589  29.827   6.924
 5648POPC   C4A72102  23.834  29.569   7.217
 5648POPC   C1B72103  23.907  30.228   6.170
 5648POPC   C2B72104  23.986  30.078   6.608
 5648POPC   C3B72105  23.857  30.262   6.997
 5648POPC   C4B72106  23.745  30.194   7.387
 5649POPC   NC372107   8.092  13.162   5.354
 5649POPC   PO472108   8.120  12.491   5.482
 5649POPC   GL172109   8.254  12.459   5.926
 5649POPC   GL272110   8.598  12.599   5.921
 5649POPC   C1A72111   8.074  12.631   6.330
 5649POPC   D2A72112   8.060  12.556   6.780
 5649POPC   C3A72113   8.013  12.866   7.065
 5649POPC   C4A72114   8.026  12.685   7.474
 5649POPC   C1B72115   8.545  12.839   6.294
 5649POPC   C2B72116   8.463  12.875   6.745
 5649POPC   C3B72117   8.511  12.813   7.161
 5649POPC   C4B72118   8.338  13.121   7.412
 5650POPC   NC372119  24.741  35.333   5.470
 5650POPC   PO472120  24.084  35.135   5.483
 5650POPC   GL172121  24.339  35.296   5.813
 5650POPC   GL272122  24.510  35.632   5.820
 5650POPC   C1A72123  24.517  35.282   6.209
 5650POPC   D2A72124  24.422  35.264   6.622
 5650POPC   C3A72125  24.728  35.201   6.944
 5650POPC   C4A72126  24.618  35.240   7.382
 5650POPC   C1B72127  24.701  35.767   6.214
 5650POPC   C2B72128  24.609  35.727   6.673
 5650POPC   C3B72129  24.399  35.584   7.068
 5650POPC   C4B72130  24.604  35.729   7.461
 5651POPC   NC372131  38.927  27.407   5.368
 5651POPC   PO472132  38.324  27.599   5.340
 5651POPC   GL172133  38.555  27.683   5.705
 5651POPC   GL272134  38.601  27.320   5.733
 5651POPC   C1A72135  38.353  27.677   6.138
 5651POPC   D2A72136  38.378  27.865   6.574
 5651POPC   C3A72137  38.145  27.750   6.944
 5651POPC   C4A72138  38.219  27.463   7.259
 5651POPC   C1B72139  38.733  27.317   6.127
 5651POPC   C2B72140  38.668  27.446   6.533
 5651POPC   C3B72141  38.652  27.517   6.964
 5651POPC   C4B72142  38.769  27.205   7.315
 5652POPC   NC372143  35.568  35.774   5.382
 5652POPC   PO472144  34.960  35.967   5.270
 5652POPC   GL172145  35.297  36.157   5.569
 5652POPC   GL272146  35.301  35.916   5.812
 5652POPC   C1A72147  35.390  36.417   5.950
 5652POPC   D2A72148  35.325  36.531   6.409
 5652POPC   C3A72149  35.420  36.321   6.807
 5652POPC   C4A72150  35.501  36.472   7.221
 5652POPC   C1B72151  35.213  36.013   6.234
 5652POPC   C2B72152  35.275  35.867   6.622
 5652POPC   C3B72153  35.223  35.822   7.034
 5652POPC   C4B72154  35.519  35.974   7.303
 5653POPC   NC372155   7.944  15.424   5.340
 5653POPC   PO472156   8.375  14.933   5.371
 5653POPC   GL172157   8.311  15.292   5.679
 5653POPC   GL272158   8.532  15.539   5.849
 5653POPC   C1A72159   8.133  15.306   6.090
 5653POPC   D2A72160   8.174  14.966   6.368
 5653POPC   C3A72161   8.168  14.924   6.806
 5653POPC   C4A72162   8.025  15.025   7.199
 5653POPC   C1B72163   8.627  15.367   6.257
 5653POPC   C2B72164   8.656  15.112   6.638
 5653POPC   C3B72165   8.528  15.207   7.048
 5653POPC   C4B72166   8.350  15.462   7.347
 5654POPC   NC372167  16.956  24.648   5.518
 5654POPC   PO472168  16.506  24.220   5.391
 5654POPC   GL172169  16.494  24.363   5.830
 5654POPC   GL272170  16.684  24.659   5.977
 5654POPC   C1A72171  16.593  24.175   6.260
 5654POPC   D2A72172  16.629  24.108   6.723
 5654POPC   C3A72173  16.757  24.425   6.955
 5654POPC   C4A72174  17.039  24.495   7.280
 5654POPC   C1B72175  16.931  24.795   6.381
 5654POPC   C2B72176  17.054  24.823   6.843
 5654POPC   C3B72177  16.725  24.887   7.175
 5654POPC   C4B72178  16.568  24.545   7.424
 5655POPC   NC372179  40.536  29.476   5.357
 5655POPC   PO472180  40.795  28.771   5.350
 5655POPC   GL172181  40.598  28.846   5.760
 5655POPC   GL272182  40.583  29.226   5.807
 5655POPC   C1A72183  40.711  28.814   6.201
 5655POPC   D2A72184  40.798  29.004   6.581
 5655POPC   C3A72185  40.726  28.921   6.996
 5655POPC   C4A72186  40.935  29.089   7.353
 5655POPC   C1B72187  40.846  29.364   6.193
 5655POPC   C2B72188  40.866  29.569   6.608
 5655POPC   C3B72189  40.755  29.434   7.020
 5655POPC   C4B72190  40.460  29.331   7.340
 5656POPC   NC372191  22.957  28.713   5.438
 5656POPC   PO472192  22.980  28.050   5.475
 5656POPC   GL172193  23.166  28.126   5.868
 5656POPC   GL272194  22.964  28.433   5.923
 5656POPC   C1A72195  23.311  28.282   6.277
 5656POPC   D2A72196  23.212  28.291   6.726
 5656POPC   C3A72197  22.975  28.554   6.950
 5656POPC   C4A72198  22.861  28.376   7.331
 5656POPC   C1B72199  22.882  28.529   6.374
 5656POPC   C2B72200  22.570  28.421   6.681
 5656POPC   C3B72201  22.425  28.466   7.095
 5656POPC   C4B72202  22.341  28.289   7.499
 5657POPC   NC372203  24.857  13.839   5.507
 5657POPC   PO472204  25.434  13.918   5.336
 5657POPC   GL172205  25.517  13.759   5.746
 5657POPC   GL272206  25.325  14.009   5.876
 5657POPC   C1A72207  25.462  13.644   6.219
 5657POPC   D2A72208  25.456  13.781   6.675
 5657POPC   C3A72209  25.181  13.653   7.079
 5657POPC   C4A72210  24.894  13.406   7.324
 5657POPC   C1B72211  25.365  14.137   6.302
 5657POPC   C2B72212  25.183  14.203   6.724
 5657POPC   C3B72213  25.400  14.110   7.075
 5657POPC   C4B72214  25.680  13.709   7.118
 5658POPC   NC372215  41.375  21.644   5.342
 5658POPC   PO472216  42.091  21.411   5.343
 5658POPC   GL172217  41.948  21.559   5.742
 5658POPC   GL272218  41.595  21.455   5.756
 5658POPC   C1A72219  41.847  21.518   6.196
 5658POPC   D2A72220  41.635  21.544   6.579
 5658POPC   C3A72221  41.886  21.709   6.867
 5658POPC   C4A72222  41.921  21.731   7.264
 5658POPC   C1B72223  41.360  21.353   6.145
 5658POPC   C2B72224  41.398  21.102   6.498
 5658POPC   C3B72225  41.442  21.213   6.934
 5658POPC   C4B72226  41.462  21.587   7.136
 5659POPC   NC372227  37.413   4.416   5.506
 5659POPC   PO472228  37.827   4.852   5.246
 5659POPC   GL172229  37.857   4.543   5.731
 5659POPC   GL272230  37.869   4.223   5.903
 5659POPC   C1A72231  37.569   4.512   6.187
 5659POPC   D2A72232  37.587   4.591   6.646
 5659POPC   C3A72233  37.467   4.240   6.908
 5659POPC   C4A72234  37.421   3.926   7.240
 5659POPC   C1B72235  38.062   4.575   6.210
 5659POPC   C2B72236  38.075   4.768   6.660
 5659POPC   C3B72237  37.965   4.783   7.111
 5659POPC   C4B72238  37.962   4.731   7.570
 5660POPC   NC372239  14.364   1.117   5.308
 5660POPC   PO472240  14.565   1.704   5.481
 5660POPC   GL172241  14.376   1.370   5.814
 5660POPC   GL272242  14.377   1.025   5.830
 5660POPC   C1A72243  14.357   1.429   6.256
 5660POPC   D2A72244  14.115   1.530   6.637
 5660POPC   C3A72245  14.304   1.484   7.056
 5660POPC   C4A72246  14.640   1.239   7.211
 5660POPC   C1B72247  14.599   0.946   6.206
 5660POPC   C2B72248  14.719   1.098   6.636
 5660POPC   C3B72249  14.826   0.828   6.984
 5660POPC   C4B72250  14.549   0.641   7.256
 5661POPC   NC372251  26.299  22.925   5.418
 5661POPC   PO472252  26.925  22.653   5.172
 5661POPC   GL172253  26.789  22.835   5.585
 5661POPC   GL272254  26.895  23.203   5.645
 5661POPC   C1A72255  26.622  22.731   6.005
 5661POPC   D2A72256  26.578  22.881   6.449
 5661POPC   C3A72257  26.805  22.844   6.851
 5661POPC   C4A72258  26.559  22.799   7.246
 5661POPC   C1B72259  26.745  23.215   6.082
 5661POPC   C2B72260  26.543  23.392   6.442
 5661POPC   C3B72261  26.797  23.451   6.801
 5661POPC   C4B72262  26.849  23.229   7.191
 5662POPC   NC372263   1.443  38.441   5.530
 5662POPC   PO472264   0.844  38.665   5.540
 5662POPC   GL172265   1.165  38.672   5.910
 5662POPC   GL272266   1.545  38.561   6.001
 5662POPC   C1A72267   1.234  38.718   6.349
 5662POPC   D2A72268   1.511  38.574   6.628
 5662POPC   C3A72269   1.328  38.709   7.029
 5662POPC   C4A72270   1.067  38.535   7.377
 5662POPC   C1B72271   1.687  38.253   6.258
 5662POPC   C2B72272   1.844  38.187   6.680
 5662POPC   C3B72273   1.520  38.217   6.997
 5662POPC   C4B72274   1.420  38.189   7.428
 5663POPC   NC372275  10.888  40.370   5.330
 5663POPC   PO472276  10.413  40.785   5.385
 5663POPC   GL172277  10.524  40.740   5.786
 5663POPC   GL272278  10.643  40.414   5.775
 5663POPC   C1A72279  10.392  40.735   6.221
 5663POPC   D2A72280  10.457  40.994   6.592
 5663POPC   C3A72281  10.712  40.911   6.957
 5663POPC   C4A72282  10.321  40.800   7.174
 5663POPC   C1B72283  10.853  40.509   6.151
 5663POPC   C2B72284  10.695  40.499   6.601
 5663POPC   C3B72285  10.659  40.404   7.060
 5663POPC   C4B72286  10.922  40.574   7.364
 5664POPC   NC372287  34.142  27.702   5.748
 5664POPC   PO472288  34.825  27.695   5.583
 5664POPC   GL172289  34.612  27.658   5.970
 5664POPC   GL272290  34.471  27.320   5.954
 5664POPC   C1A72291  34.463  27.602   6.399
 5664POPC   D2A72292  34.130  27.499   6.678
 5664POPC   C3A72293  34.320  27.715   7.040
 5664POPC   C4A72294  34.804  27.742   7.053
 5664POPC   C1B72295  34.828  27.252   6.251
 5664POPC   C2B72296  34.939  27.378   6.666
 5664POPC   C3B72297  34.596  27.291   6.955
 5664POPC   C4B72298  34.529  27.269   7.402
 5665POPC   NC372299   1.889  10.021   5.557
 5665POPC   PO472300   2.257   9.534   5.378
 5665POPC   GL172301   2.238   9.725   5.793
 5665POPC   GL272302   1.918   9.543   5.854
 5665POPC   C1A72303   2.056   9.888   6.209
 5665POPC   D2A72304   1.816   9.967   6.591
 5665POPC   C3A72305   2.083   9.954   6.943
 5665POPC   C4A72306   2.196   9.768   7.324
 5665POPC   C1B72307   1.728   9.441   6.275
 5665POPC   C2B72308   1.592   9.490   6.721
 5665POPC   C3B72309   1.740   9.606   7.141
 5665POPC   C4B72310   1.565   9.720   7.544
 5666POPC   NC372311  12.064  28.461   5.286
 5666POPC   PO472312  12.349  27.908   5.204
 5666POPC   GL172313  12.260  27.993   5.668
 5666POPC   GL272314  12.301  28.349   5.728
 5666POPC   C1A72315  12.013  28.070   6.078
 5666POPC   D2A72316  11.952  28.277   6.517
 5666POPC   C3A72317  12.084  28.100   6.928
 5666POPC   C4A72318  12.044  28.239   7.347
 5666POPC   C1B72319  12.138  28.577   6.113
 5666POPC   C2B72320  12.071  28.797   6.535
 5666POPC   C3B72321  12.109  28.616   6.956
 5666POPC   C4B72322  12.464  28.600   7.208
 5667POPC   NC372323  34.222  11.492   5.379
 5667POPC   PO472324  34.675  11.107   5.294
 5667POPC   GL172325  34.471  11.194   5.729
 5667POPC   GL272326  34.338  11.525   5.874
 5667POPC   C1A72327  34.588  11.166   6.177
 5667POPC   D2A72328  34.956  11.152   6.462
 5667POPC   C3A72329  34.841  11.291   6.872
 5667POPC   C4A72330  34.913  11.138   7.261
 5667POPC   C1B72331  34.228  11.550   6.310
 5667POPC   C2B72332  34.338  11.378   6.723
 5667POPC   C3B72333  34.408  11.419   7.173
 5667POPC   C4B72334  34.524  11.685   7.549
 5668POPC   NC372335  34.253  16.912   5.458
 5668POPC   PO472336  34.847  16.800   5.301
 5668POPC   GL172337  34.719  16.775   5.752
 5668POPC   GL272338  34.449  16.986   5.928
 5668POPC   C1A72339  34.855  16.830   6.198
 5668POPC   D2A72340  34.690  16.858   6.609
 5668POPC   C3A72341  34.881  16.647   6.957
 5668POPC   C4A72342  34.885  16.795   7.383
 5668POPC   C1B72343  34.348  16.629   6.251
 5668POPC   C2B72344  34.308  16.575   6.745
 5668POPC   C3B72345  34.433  16.897   7.081
 5668POPC   C4B72346  34.132  17.026   7.460
 5669POPC   NC372347  43.230  44.994   5.511
 5669POPC   PO472348  43.070  44.305   5.409
 5669POPC   GL172349  43.286  44.543   5.755
 5669POPC   GL272350  42.971  44.688   5.855
 5669POPC   C1A72351  43.353  44.628   6.224
 5669POPC   D2A72352  43.252  44.401   6.620
 5669POPC   C3A72353  43.210  44.499   7.029
 5669POPC   C4A72354  43.116  44.864   7.186
 5669POPC   C1B72355  42.832  44.521   6.264
 5669POPC   C2B72356  42.793  44.611   6.718
 5669POPC   C3B72357  42.684  44.584   7.144
 5669POPC   C4B72358  42.661  44.624   7.596
 5670POPC   NC372359  16.339  13.784   5.300
 5670POPC   PO472360  15.740  13.488   5.320
 5670POPC   GL172361  16.033  13.540   5.678
 5670POPC   GL272362  15.854  13.264   5.822
 5670POPC   C1A72363  16.189  13.624   6.094
 5670POPC   D2A72364  16.088  13.894   6.454
 5670POPC   C3A72365  16.076  13.709   6.860
 5670POPC   C4A72366  15.798  13.541   7.195
 5670POPC   C1B72367  15.717  13.373   6.259
 5670POPC   C2B72368  15.686  13.353   6.720
 5670POPC   C3B72369  15.380  13.287   7.061
 5670POPC   C4B72370  15.461  13.225   7.512
 5671POPC   NC372371  35.783  23.949   5.283
 5671POPC   PO472372  35.307  23.407   5.402
 5671POPC   GL172373  35.305  23.600   5.780
 5671POPC   GL272374  35.430  23.942   5.672
 5671POPC   C1A72375  35.561  23.502   6.134
 5671POPC   D2A72376  35.520  23.561   6.572
 5671POPC   C3A72377  35.455  23.529   7.026
 5671POPC   C4A72378  35.121  23.791   7.185
 5671POPC   C1B72379  35.362  23.999   6.119
 5671POPC   C2B72380  35.509  24.099   6.529
 5671POPC   C3B72381  35.512  24.063   6.969
 5671POPC   C4B72382  35.547  23.977   7.395
 5672POPC   NC372383  12.179  37.373   5.597
 5672POPC   PO472384  11.879  36.871   5.302
 5672POPC   GL172385  12.057  36.807   5.750
 5672POPC   GL272386  12.194  37.043   5.962
 5672POPC   C1A72387  11.981  36.702   6.240
 5672POPC   D2A72388  11.991  37.064   6.582
 5672POPC   C3A72389  12.014  36.956   7.034
 5672POPC   C4A72390  11.877  36.645   7.299
 5672POPC   C1B72391  12.536  37.243   6.124
 5672POPC   C2B72392  12.502  37.330   6.525
 5672POPC   C3B72393  12.353  37.323   6.920
 5672POPC   C4B72394  12.232  37.367   7.321
 5673POPC   NC372395  20.965   9.488   5.261
 5673POPC   PO472396  20.825  10.207   5.369
 5673POPC   GL172397  20.758   9.854   5.653
 5673POPC   GL272398  20.439   9.646   5.675
 5673POPC   C1A72399  20.710   9.773   6.104
 5673POPC   D2A72400  20.755   9.758   6.564
 5673POPC   C3A72401  20.754   9.772   6.992
 5673POPC   C4A72402  20.878   9.818   7.421
 5673POPC   C1B72403  20.379   9.401   6.101
 5673POPC   C2B72404  20.347   9.465   6.555
 5673POPC   C3B72405  20.386   9.422   7.044
 5673POPC   C4B72406  20.460   9.574   7.480
 5674POPC   NC372407  34.283  14.437   5.260
 5674POPC   PO472408  34.850  14.116   5.371
 5674POPC   GL172409  34.484  14.177   5.666
 5674POPC   GL272410  34.707  14.074   5.903
 5674POPC   C1A72411  34.342  14.355   6.113
 5674POPC   D2A72412  34.503  14.648   6.436
 5674POPC   C3A72413  34.460  14.440   6.848
 5674POPC   C4A72414  34.438  14.252   7.263
 5674POPC   C1B72415  34.879  14.316   6.273
 5674POPC   C2B72416  34.962  14.489   6.702
 5674POPC   C3B72417  34.938  14.285   7.127
 5674POPC   C4B72418  34.808  14.287   7.592
 5675POPC   NC372419  36.494  28.531   5.418
 5675POPC   PO472420  35.827  28.150   5.494
 5675POPC   GL172421  35.972  28.322   5.891
 5675POPC   GL272422  36.185  28.642   5.848
 5675POPC   C1A72423  35.968  28.058   6.290
 5675POPC   D2A72424  36.148  27.910   6.698
 5675POPC   C3A72425  36.029  28.202   7.040
 5675POPC   C4A72426  36.351  28.421   7.251
 5675POPC   C1B72427  36.046  28.786   6.298
 5675POPC   C2B72428  35.999  28.736   6.773
 5675POPC   C3B72429  36.009  28.853   7.223
 5675POPC   C4B72430  35.984  28.894   7.676
 5676POPC   NC372431  11.655  18.530   5.385
 5676POPC   PO472432  11.131  18.074   5.421
 5676POPC   GL172433  11.439  18.195   5.735
 5676POPC   GL272434  11.396  18.538   5.822
 5676POPC   C1A72435  11.436  18.075   6.167
 5676POPC   D2A72436  11.099  18.054   6.498
 5676POPC   C3A72437  11.313  18.092   6.899
 5676POPC   C4A72438  11.641  18.153   7.196
 5676POPC   C1B72439  11.137  18.483   6.173
 5676POPC   C2B72440  11.188  18.550   6.612
 5676POPC   C3B72441  10.876  18.364   6.867
 5676POPC   C4B72442  10.868  18.153   7.246
 5677POPC   NC372443  13.914  22.238   5.441
 5677POPC   PO472444  13.209  22.022   5.359
 5677POPC   GL172445  13.517  22.112   5.743
 5677POPC   GL272446  13.272  22.161   5.969
 5677POPC   C1A72447  13.727  22.299   6.132
 5677POPC   D2A72448  13.541  22.410   6.509
 5677POPC   C3A72449  13.702  22.364   6.941
 5677POPC   C4A72450  13.456  22.402   7.310
 5677POPC   C1B72451  13.350  21.922   6.312
 5677POPC   C2B72452  13.562  21.949   6.682
 5677POPC   C3B72453  13.440  21.945   7.085
 5677POPC   C4B72454  13.345  21.896   7.520
 5678POPC   NC372455  32.542  39.639   5.170
 5678POPC   PO472456  32.279  40.232   5.301
 5678POPC   GL172457  32.132  40.184   5.706
 5678POPC   GL272458  32.114  39.858   5.769
 5678POPC   C1A72459  32.068  40.320   6.113
 5678POPC   D2A72460  32.245  40.306   6.505
 5678POPC   C3A72461  32.045  40.248   6.906
 5678POPC   C4A72462  32.231  40.042   7.227
 5678POPC   C1B72463  32.238  39.831   6.174
 5678POPC   C2B72464  32.311  39.657   6.552
 5678POPC   C3B72465  32.703  39.597   6.670
 5678POPC   C4B72466  32.615  39.760   7.074
 5679POPC   NC372467  22.683  15.260   5.338
 5679POPC   PO472468  22.904  14.723   5.212
 5679POPC   GL172469  22.955  15.014   5.676
 5679POPC   GL272470  22.707  15.308   5.835
 5679POPC   C1A72471  23.133  15.257   6.082
 5679POPC   D2A72472  22.995  15.464   6.505
 5679POPC   C3A72473  23.085  15.322   6.963
 5679POPC   C4A72474  23.161  15.032   7.345
 5679POPC   C1B72475  22.644  15.112   6.268
 5679POPC   C2B72476  22.566  14.911   6.692
 5679POPC   C3B72477  22.646  15.111   7.101
 5679POPC   C4B72478  22.570  15.427   7.414
 5680POPC   NC372479  29.258   9.901   5.401
 5680POPC   PO472480  28.951   9.329   5.300
 5680POPC   GL172481  28.894   9.582   5.703
 5680POPC   GL272482  29.238   9.686   5.891
 5680POPC   C1A72483  28.814   9.695   6.157
 5680POPC   D2A72484  29.176   9.583   6.458
 5680POPC   C3A72485  29.139   9.755   6.876
 5680POPC   C4A72486  28.931  10.010   7.184
 5680POPC   C1B72487  29.221  10.040   6.236
 5680POPC   C2B72488  29.250  10.294   6.641
 5680POPC   C3B72489  29.406  10.161   7.041
 5680POPC   C4B72490  29.559   9.980   7.390
 5681POPC   NC372491  10.977   5.648   5.338
 5681POPC   PO472492  11.624   6.050   5.350
 5681POPC   GL172493  11.306   5.942   5.654
 5681POPC   GL272494  11.389   6.066   5.993
 5681POPC   C1A72495  11.192   5.628   5.975
 5681POPC   D2A72496  11.352   5.671   6.386
 5681POPC   C3A72497  11.082   5.737   6.706
 5681POPC   C4A72498  11.083   5.619   7.115
 5681POPC   C1B72499  11.071   6.131   6.306
 5681POPC   C2B72500  11.138   6.257   6.715
 5681POPC   C3B72501  11.334   6.074   7.067
 5681POPC   C4B72502  11.707   6.031   7.318
 5682POPC   NC372503   6.040  10.784   5.477
 5682POPC   PO472504   5.455  10.302   5.537
 5682POPC   GL172505   5.792  10.448   5.805
 5682POPC   GL272506   5.731  10.795   5.876
 5682POPC   C1A72507   6.018  10.475   6.215
 5682POPC   D2A72508   5.859  10.346   6.633
 5682POPC   C3A72509   6.017  10.484   7.035
 5682POPC   C4A72510   5.769  10.596   7.389
 5682POPC   C1B72511   5.601  10.755   6.286
 5682POPC   C2B72512   5.410  10.601   6.647
 5682POPC   C3B72513   5.563  10.806   6.991
 5682POPC   C4B72514   5.549  11.090   7.342
 5683POPC   NC372515  18.652  10.415   5.414
 5683POPC   PO472516  19.339  10.458   5.432
 5683POPC   GL172517  19.050  10.310   5.809
 5683POPC   GL272518  19.267  10.094   6.033
 5683POPC   C1A72519  18.764  10.512   6.170
 5683POPC   D2A72520  18.594  10.848   6.490
 5683POPC   C3A72521  18.805  10.866   6.904
 5683POPC   C4A72522  19.198  10.697   7.113
 5683POPC   C1B72523  19.070  10.174   6.420
 5683POPC   C2B72524  18.769  10.376   6.695
 5683POPC   C3B72525  18.799  10.384   7.152
 5683POPC   C4B72526  19.192  10.255   7.363
 5684POPC   NC372527  28.082   7.601   5.306
 5684POPC   PO472528  28.711   7.548   5.207
 5684POPC   GL172529  28.555   7.383   5.659
 5684POPC   GL272530  28.191   7.283   5.707
 5684POPC   C1A72531  28.444   7.516   6.127
 5684POPC   D2A72532  28.296   7.365   6.581
 5684POPC   C3A72533  28.375   7.561   7.021
 5684POPC   C4A72534  28.627   7.715   7.419
 5684POPC   C1B72535  28.119   7.128   6.137
 5684POPC   C2B72536  27.951   6.963   6.543
 5684POPC   C3B72537  28.166   7.010   6.947
 5684POPC   C4B72538  28.141   7.022   7.393
 5685POPC   NC372539  33.041  43.412   5.366
 5685POPC   PO472540  33.516  43.034   5.346
 5685POPC   GL172541  33.266  43.164   5.749
 5685POPC   GL272542  32.957  42.957   5.770
 5685POPC   C1A72543  33.113  43.240   6.189
 5685POPC   D2A72544  33.254  43.036   6.599
 5685POPC   C3A72545  33.187  43.250   6.979
 5685POPC   C4A72546  32.935  43.297   7.352
 5685POPC   C1B72547  33.101  42.728   6.199
 5685POPC   C2B72548  33.049  42.568   6.663
 5685POPC   C3B72549  33.023  42.754   7.104
 5685POPC   C4B72550  32.972  42.784   7.577
 5686POPC   NC372551  18.651   0.371   5.457
 5686POPC   PO472552  17.982   0.596   5.441
 5686POPC   GL172553  18.278   0.508   5.794
 5686POPC   GL272554  18.175   0.168   5.875
 5686POPC   C1A72555  18.605   0.482   6.146
 5686POPC   D2A72556  18.524   0.698   6.569
 5686POPC   C3A72557  18.549   0.441   6.941
 5686POPC   C4A72558  18.269   0.112   7.061
 5686POPC   C1B72559  18.134   0.379   6.293
 5686POPC   C2B72560  17.929   0.295   6.697
 5686POPC   C3B72561  17.868   0.571   7.038
 5686POPC   C4B72562  18.189   0.772   7.273
 5687POPC   NC372563  35.785  40.987   5.483
 5687POPC   PO472564  35.164  40.961   5.623
 5687POPC   GL172565  35.419  40.711   5.876
 5687POPC   GL272566  35.629  40.986   5.963
 5687POPC   C1A72567  35.254  40.522   6.265
 5687POPC   D2A72568  34.987  40.816   6.514
 5687POPC   C3A72569  34.967  40.693   6.928
 5687POPC   C4A72570  34.927  40.855   7.319
 5687POPC   C1B72571  35.505  40.946   6.358
 5687POPC   C2B72572  35.457  40.824   6.792
 5687POPC   C3B72573  35.435  40.939   7.229
 5687POPC   C4B72574  35.576  40.684   7.571
 5688POPC   NC372575  31.050  24.131   5.652
 5688POPC   PO472576  30.737  24.694   5.318
 5688POPC   GL172577  30.648  24.754   5.781
 5688POPC   GL272578  30.766  24.459   5.952
 5688POPC   C1A72579  30.497  24.736   6.256
 5688POPC   D2A72580  30.524  24.430   6.638
 5688POPC   C3A72581  30.622  24.656   7.038
 5688POPC   C4A72582  30.478  24.709   7.497
 5688POPC   C1B72583  30.810  24.117   6.260
 5688POPC   C2B72584  30.994  24.114   6.655
 5688POPC   C3B72585  30.788  24.142   7.029
 5688POPC   C4B72586  30.806  24.347   7.404
 5689POPC   NC372587  33.023  34.857   5.371
 5689POPC   PO472588  33.308  34.234   5.494
 5689POPC   GL172589  33.158  34.477   5.833
 5689POPC   GL272590  33.136  34.827   5.855
 5689POPC   C1A72591  33.007  34.487   6.249
 5689POPC   D2A72592  32.939  34.176   6.575
 5689POPC   C3A72593  33.197  34.278   6.907
 5689POPC   C4A72594  33.065  34.358   7.303
 5689POPC   C1B72595  33.171  34.980   6.272
 5689POPC   C2B72596  33.168  34.781   6.703
 5689POPC   C3B72597  32.970  34.813   7.104
 5689POPC   C4B72598  32.931  34.913   7.563
 5690POPC   NC372599   2.354  19.785   5.631
 5690POPC   PO472600   1.690  20.057   5.347
 5690POPC   GL172601   1.911  19.997   5.729
 5690POPC   GL272602   1.849  19.693   5.877
 5690POPC   C1A72603   2.035  20.101   6.173
 5690POPC   D2A72604   2.222  20.247   6.580
 5690POPC   C3A72605   2.121  19.978   6.930
 5690POPC   C4A72606   1.990  20.042   7.330
 5690POPC   C1B72607   1.764  19.668   6.313
 5690POPC   C2B72608   1.825  19.584   6.738
 5690POPC   C3B72609   1.612  19.684   7.101
 5690POPC   C4B72610   1.584  19.519   7.489
 5691POPC   NC372611  37.911  39.427   5.473
 5691POPC   PO472612  37.269  39.736   5.477
 5691POPC   GL172613  37.447  39.414   5.792
 5691POPC   GL272614  37.743  39.572   5.910
 5691POPC   C1A72615  37.646  39.161   6.159
 5691POPC   D2A72616  37.732  39.323   6.547
 5691POPC   C3A72617  37.533  39.233   6.941
 5691POPC   C4A72618  37.758  38.944   7.241
 5691POPC   C1B72619  37.944  39.711   6.247
 5691POPC   C2B72620  38.185  39.565   6.562
 5691POPC   C3B72621  37.950  39.565   6.944
 5691POPC   C4B72622  37.811  39.443   7.333
 5692POPC   NC372623  10.048  15.315   5.315
 5692POPC   PO472624  10.596  15.007   5.192
 5692POPC   GL172625  10.586  15.092   5.676
 5692POPC   GL272626  10.892  14.968   5.841
 5692POPC   C1A72627  10.474  15.055   6.156
 5692POPC   D2A72628  10.340  15.096   6.605
 5692POPC   C3A72629  10.583  15.161   6.991
 5692POPC   C4A72630  10.570  15.103   7.419
 5692POPC   C1B72631  10.962  15.171   6.260
 5692POPC   C2B72632  10.974  15.257   6.701
 5692POPC   C3B72633  11.066  14.995   7.059
 5692POPC   C4B72634  11.018  14.888   7.513
 5693POPC   NC372635  31.359  21.565   5.493
 5693POPC   PO472636  31.071  21.013   5.647
 5693POPC   GL172637  31.298  21.168   6.021
 5693POPC   GL272638  31.547  21.456   5.951
 5693POPC   C1A72639  31.417  21.257   6.466
 5693POPC   D2A72640  31.581  21.637   6.683
 5693POPC   C3A72641  31.705  21.605   7.107
 5693POPC   C4A72642  31.501  21.525   7.489
 5693POPC   C1B72643  31.830  21.162   6.115
 5693POPC   C2B72644  31.934  21.279   6.524
 5693POPC   C3B72645  31.787  21.138   6.916
 5693POPC   C4B72646  31.953  21.225   7.350
 5694POPC   NC372647  14.586   2.700   5.253
 5694POPC   PO472648  14.063   3.004   5.462
 5694POPC   GL172649  14.199   2.618   5.708
 5694POPC   GL272650  13.914   2.628   5.942
 5694POPC   C1A72651  14.364   2.487   6.131
 5694POPC   D2A72652  14.526   2.760   6.453
 5694POPC   C3A72653  14.450   2.624   6.884
 5694POPC   C4A72654  14.119   2.616   7.187
 5694POPC   C1B72655  14.048   2.964   6.209
 5694POPC   C2B72656  14.140   3.031   6.676
 5694POPC   C3B72657  14.024   3.184   7.099
 5694POPC   C4B72658  13.976   3.166   7.548
 5695POPC   NC372659  33.372  27.245   5.513
 5695POPC   PO472660  33.087  27.898   5.364
 5695POPC   GL172661  33.170  27.648   5.767
 5695POPC   GL272662  32.894  27.430   5.826
 5695POPC   C1A72663  33.204  27.471   6.227
 5695POPC   D2A72664  33.115  27.289   6.661
 5695POPC   C3A72665  32.863  27.454   7.030
 5695POPC   C4A72666  32.969  27.449   7.505
 5695POPC   C1B72667  32.656  27.336   6.175
 5695POPC   C2B72668  32.572  27.458   6.575
 5695POPC   C3B72669  32.393  27.260   6.938
 5695POPC   C4B72670  32.533  27.188   7.347
 5696POPC   NC372671  36.757  25.281   5.566
 5696POPC   PO472672  37.320  25.514   5.431
 5696POPC   GL172673  37.205  25.289   5.827
 5696POPC   GL272674  36.920  25.450   6.024
 5696POPC   C1A72675  37.302  25.168   6.262
 5696POPC   D2A72676  37.059  25.251   6.615
 5696POPC   C3A72677  37.096  25.057   6.999
 5696POPC   C4A72678  37.029  25.096   7.409
 5696POPC   C1B72679  36.799  25.039   6.197
 5696POPC   C2B72680  36.751  24.819   6.579
 5696POPC   C3B72681  36.600  25.009   6.931
 5696POPC   C4B72682  36.430  25.053   7.300
 5697POPC   NC372683  19.295  24.039   5.266
 5697POPC   PO472684  19.564  23.460   5.177
 5697POPC   GL172685  19.689  23.507   5.664
 5697POPC   GL272686  19.614  23.201   5.830
 5697POPC   C1A72687  19.959  23.580   6.100
 5697POPC   D2A72688  20.141  23.697   6.561
 5697POPC   C3A72689  19.896  23.981   6.858
 5697POPC   C4A72690  19.638  24.177   7.190
 5697POPC   C1B72691  19.544  23.346   6.269
 5697POPC   C2B72692  19.644  23.544   6.675
 5697POPC   C3B72693  19.742  23.564   7.122
 5697POPC   C4B72694  19.866  23.525   7.595
 5698POPC   NC372695  10.304  38.945   5.492
 5698POPC   PO472696  10.755  39.269   5.018
 5698POPC   GL172697  10.612  39.386   5.498
 5698POPC   GL272698  10.872  39.240   5.727
 5698POPC   C1A72699  10.552  39.529   6.009
 5698POPC   D2A72700  10.257  39.473   6.438
 5698POPC   C3A72701  10.417  39.280   6.856
 5698POPC   C4A72702  10.772  39.357   7.144
 5698POPC   C1B72703  10.778  38.936   6.095
 5698POPC   C2B72704  10.667  39.003   6.488
 5698POPC   C3B72705  10.785  38.899   6.868
 5698POPC   C4B72706  10.549  38.860   7.182
 5699POPC   NC372707  21.651  30.466   5.225
 5699POPC   PO472708  21.252  29.946   5.451
 5699POPC   GL172709  21.323  29.911   5.887
 5699POPC   GL272710  21.650  29.957   6.032
 5699POPC   C1A72711  21.211  30.115   6.267
 5699POPC   D2A72712  21.310  30.259   6.644
 5699POPC   C3A72713  21.218  30.063   7.007
 5699POPC   C4A72714  21.298  29.786   7.365
 5699POPC   C1B72715  21.688  29.960   6.471
 5699POPC   C2B72716  21.622  29.763   6.881
 5699POPC   C3B72717  21.792  29.648   7.290
 5699POPC   C4B72718  21.614  29.577   7.721
 5700POPC   NC372719  19.208  34.676   5.556
 5700POPC   PO472720  18.674  34.241   5.456
 5700POPC   GL172721  18.782  34.529   5.832
 5700POPC   GL272722  18.982  34.841   5.981
 5700POPC   C1A72723  18.957  34.446   6.257
 5700POPC   D2A72724  18.781  34.361   6.605
 5700POPC   C3A72725  18.951  34.533   6.960
 5700POPC   C4A72726  18.783  34.702   7.320
 5700POPC   C1B72727  19.375  34.761   6.226
 5700POPC   C2B72728  19.493  34.659   6.646
 5700POPC   C3B72729  19.558  34.864   7.023
 5700POPC   C4B72730  19.196  34.956   7.215
 5701POPC   NC372731  22.433  23.819   5.053
 5701POPC   PO472732  21.990  23.503   5.507
 5701POPC   GL172733  22.225  23.641   5.870
 5701POPC   GL272734  22.451  23.885   5.761
 5701POPC   C1A72735  22.116  23.727   6.300
 5701POPC   D2A72736  21.850  23.866   6.622
 5701POPC   C3A72737  21.921  23.667   7.010
 5701POPC   C4A72738  22.324  23.683   7.185
 5701POPC   C1B72739  22.522  24.014   6.177
 5701POPC   C2B72740  22.657  23.870   6.593
 5701POPC   C3B72741  22.603  24.061   7.006
 5701POPC   C4B72742  22.461  24.451   7.175
 5702POPC   NC372743  17.545  11.441   5.366
 5702POPC   PO472744  17.535  10.828   5.604
 5702POPC   GL172745  17.369  11.180   5.788
 5702POPC   GL272746  17.626  11.406   5.850
 5702POPC   C1A72747  17.356  11.186   6.240
 5702POPC   D2A72748  17.450  10.883   6.583
 5702POPC   C3A72749  17.293  11.019   6.998
 5702POPC   C4A72750  17.363  11.285   7.358
 5702POPC   C1B72751  17.827  11.478   6.212
 5702POPC   C2B72752  17.681  11.364   6.602
 5702POPC   C3B72753  17.802  11.144   6.944
 5702POPC   C4B72754  17.781  11.510   7.186
 5703POPC   NC372755  11.603  36.378   5.037
 5703POPC   PO472756  11.220  35.899   5.371
 5703POPC   GL172757  11.416  36.042   5.722
 5703POPC   GL272758  11.602  35.777   5.882
 5703POPC   C1A72759  11.321  36.170   6.141
 5703POPC   D2A72760  11.470  36.212   6.575
 5703POPC   C3A72761  11.236  36.314   6.984
 5703POPC   C4A72762  11.449  36.321   7.418
 5703POPC   C1B72763  11.600  35.758   6.330
 5703POPC   C2B72764  11.396  35.723   6.728
 5703POPC   C3B72765  11.370  35.865   7.167
 5703POPC   C4B72766  11.642  35.851   7.541
 5704POPC   NC372767  25.860  30.104   5.323
 5704POPC   PO472768  26.489  29.694   5.312
 5704POPC   GL172769  26.221  29.632   5.674
 5704POPC   GL272770  25.861  29.721   5.673
 5704POPC   C1A72771  26.121  29.555   6.096
 5704POPC   D2A72772  26.219  29.808   6.411
 5704POPC   C3A72773  26.150  29.648   6.779
 5704POPC   C4A72774  26.113  29.802   7.167
 5704POPC   C1B72775  25.913  30.029   6.041
 5704POPC   C2B72776  25.821  30.222   6.456
 5704POPC   C3B72777  25.843  30.110   6.865
 5704POPC   C4B72778  25.886  30.290   7.282
 5705POPC   NC372779  17.874  10.507   5.504
 5705POPC   PO472780  18.529  10.856   5.497
 5705POPC   GL172781  18.329  10.536   5.790
 5705POPC   GL272782  18.519  10.195   5.836
 5705POPC   C1A72783  18.222  10.600   6.216
 5705POPC   D2A72784  18.026  10.653   6.600
 5705POPC   C3A72785  18.350  10.612   6.899
 5705POPC   C4A72786  18.089  10.731   7.172
 5705POPC   C1B72787  18.257  10.107   6.136
 5705POPC   C2B72788  18.268  10.204   6.573
 5705POPC   C3B72789  18.021  10.227   6.964
 5705POPC   C4B72790  17.955  10.032   7.353
 5706POPC   NC372791  17.492   3.286   4.637
 5706POPC   PO472792  17.491   3.654   5.246
 5706POPC   GL172793  17.659   3.520   5.693
 5706POPC   GL272794  17.833   3.821   5.825
 5706POPC   C1A72795  17.622   3.286   6.134
 5706POPC   D2A72796  17.778   3.257   6.589
 5706POPC   C3A72797  17.524   3.292   6.954
 5706POPC   C4A72798  17.213   3.434   7.247
 5706POPC   C1B72799  17.614   3.974   6.191
 5706POPC   C2B72800  17.608   4.085   6.630
 5706POPC   C3B72801  17.494   3.823   6.975
 5706POPC   C4B72802  17.713   3.626   7.295
 5707POPC   NC372803  41.111   9.578   5.603
 5707POPC   PO472804  41.469  10.021   5.201
 5707POPC   GL172805  41.507  10.072   5.664
 5707POPC   GL272806  41.591   9.755   5.789
 5707POPC   C1A72807  41.628  10.137   6.150
 5707POPC   D2A72808  41.608  10.280   6.627
 5707POPC   C3A72809  41.643   9.978   6.999
 5707POPC   C4A72810  41.423   9.817   7.407
 5707POPC   C1B72811  41.384   9.659   6.200
 5707POPC   C2B72812  41.297   9.829   6.607
 5707POPC   C3B72813  41.335   9.571   6.963
 5707POPC   C4B72814  41.153   9.369   7.299
 5708POPC   NC372815  36.839  33.932   5.327
 5708POPC   PO472816  37.049  33.389   5.482
 5708POPC   GL172817  36.845  33.712   5.785
 5708POPC   GL272818  36.980  34.096   5.784
 5708POPC   C1A72819  37.043  33.803   6.188
 5708POPC   D2A72820  36.929  33.580   6.531
 5708POPC   C3A72821  37.116  33.746   6.857
 5708POPC   C4A72822  36.983  33.836   7.242
 5708POPC   C1B72823  36.810  34.256   6.161
 5708POPC   C2B72824  36.785  34.071   6.558
 5708POPC   C3B72825  36.806  34.202   6.956
 5708POPC   C4B72826  36.472  34.278   7.263
 5709POPC   NC372827   0.520  29.448   5.693
 5709POPC   PO472828   0.432  30.057   5.401
 5709POPC   GL172829   0.416  30.062   5.809
 5709POPC   GL272830   0.117  29.883   5.793
 5709POPC   C1A72831   0.476  29.859   6.206
 5709POPC   D2A72832   0.453  29.668   6.591
 5709POPC   C3A72833   0.722  29.884   6.904
 5709POPC   C4A72834   0.480  29.887   7.263
 5709POPC   C1B72835   0.026  30.131   6.154
 5709POPC   C2B72836   0.178  30.242   6.554
 5709POPC   C3B72837   0.036  30.185   6.974
 5709POPC   C4B72838   0.049  30.085   7.423
 5710POPC   NC372839   9.511  39.208   5.248
 5710POPC   PO472840  10.048  39.331   5.643
 5710POPC   GL172841   9.677  39.262   5.870
 5710POPC   GL272842   9.463  38.972   5.752
 5710POPC   C1A72843   9.698  39.318   6.319
 5710POPC   D2A72844   9.861  39.075   6.642
 5710POPC   C3A72845   9.919  39.373   6.925
 5710POPC   C4A72846   9.812  39.428   7.309
 5710POPC   C1B72847   9.316  39.030   6.187
 5710POPC   C2B72848   9.362  38.929   6.645
 5710POPC   C3B72849   9.530  39.048   7.065
 5710POPC   C4B72850   9.627  38.792   7.423
 5711POPC   NC372851  34.380  33.458   5.414
 5711POPC   PO472852  34.740  32.936   5.331
 5711POPC   GL172853  34.634  32.906   5.771
 5711POPC   GL272854  34.373  32.624   5.804
 5711POPC   C1A72855  34.620  33.155   6.158
 5711POPC   D2A72856  34.764  33.066   6.542
 5711POPC   C3A72857  34.605  33.238   6.891
 5711POPC   C4A72858  34.579  33.251   7.325
 5711POPC   C1B72859  34.585  32.638   6.229
 5711POPC   C2B72860  34.762  32.579   6.640
 5711POPC   C3B72861  34.675  32.742   7.052
 5711POPC   C4B72862  34.504  32.756   7.467
 5712POPC   NC372863  33.411  31.356   5.333
 5712POPC   PO472864  34.021  31.639   5.311
 5712POPC   GL172865  33.752  31.592   5.670
 5712POPC   GL272866  33.636  31.240   5.773
 5712POPC   C1A72867  33.929  31.546   6.075
 5712POPC   D2A72868  33.985  31.385   6.477
 5712POPC   C3A72869  33.741  31.563   6.772
 5712POPC   C4A72870  33.740  31.571   7.175
 5712POPC   C1B72871  33.676  31.092   6.182
 5712POPC   C2B72872  33.597  31.090   6.627
 5712POPC   C3B72873  33.759  31.085   7.034
 5712POPC   C4B72874  33.705  31.153   7.478
 5713POPC   NC372875  31.771   6.335   5.619
 5713POPC   PO472876  32.271   6.682   5.278
 5713POPC   GL172877  32.034   6.818   5.661
 5713POPC   GL272878  32.259   7.101   5.731
 5713POPC   C1A72879  32.033   6.661   6.119
 5713POPC   D2A72880  32.117   6.444   6.508
 5713POPC   C3A72881  32.072   6.588   6.891
 5713POPC   C4A72882  32.189   6.340   7.232
 5713POPC   C1B72883  32.469   6.934   6.090
 5713POPC   C2B72884  32.495   6.759   6.480
 5713POPC   C3B72885  32.545   6.847   6.893
 5713POPC   C4B72886  32.328   6.823   7.259
 5714POPC   NC372887  21.072   4.925   5.655
 5714POPC   PO472888  20.466   4.850   5.371
 5714POPC   GL172889  20.558   4.943   5.809
 5714POPC   GL272890  20.746   5.226   5.880
 5714POPC   C1A72891  20.412   5.121   6.239
 5714POPC   D2A72892  20.552   5.373   6.633
 5714POPC   C3A72893  20.818   5.174   6.949
 5714POPC   C4A72894  20.664   5.080   7.386
 5714POPC   C1B72895  20.930   5.092   6.295
 5714POPC   C2B72896  21.128   4.715   6.473
 5714POPC   C3B72897  21.046   4.619   6.901
 5714POPC   C4B72898  21.100   4.877   7.263
 5715POPC   NC372899  21.308  40.378   5.156
 5715POPC   PO472900  21.384  40.991   5.433
 5715POPC   GL172901  21.154  40.783   5.726
 5715POPC   GL272902  21.097  40.429   5.631
 5715POPC   C1A72903  21.139  40.949   6.136
 5715POPC   D2A72904  21.411  41.080   6.488
 5715POPC   C3A72905  21.245  41.091   6.882
 5715POPC   C4A72906  21.439  40.976   7.273
 5715POPC   C1B72907  21.120  40.393   6.100
 5715POPC   C2B72908  21.207  40.605   6.516
 5715POPC   C3B72909  21.314  40.593   6.957
 5715POPC   C4B72910  21.047  40.388   7.219
 5716POPC   NC372911   5.394   7.660   5.152
 5716POPC   PO472912   5.789   7.197   5.426
 5716POPC   GL172913   5.767   7.447   5.765
 5716POPC   GL272914   5.560   7.729   5.693
 5716POPC   C1A72915   5.776   7.333   6.196
 5716POPC   D2A72916   6.030   7.236   6.569
 5716POPC   C3A72917   5.874   7.309   6.990
 5716POPC   C4A72918   5.452   7.229   7.154
 5716POPC   C1B72919   5.639   7.822   6.131
 5716POPC   C2B72920   5.742   7.677   6.575
 5716POPC   C3B72921   5.677   7.795   7.009
 5716POPC   C4B72922   5.699   7.590   7.424
 5717POPC   NC372923  14.006  19.353   5.398
 5717POPC   PO472924  13.451  18.981   5.377
 5717POPC   GL172925  13.572  19.235   5.718
 5717POPC   GL272926  13.842  19.035   5.823
 5717POPC   C1A72927  13.542  19.316   6.172
 5717POPC   D2A72928  13.635  19.301   6.627
 5717POPC   C3A72929  13.600  18.888   6.837
 5717POPC   C4A72930  13.531  19.058   7.251
 5717POPC   C1B72931  13.923  19.011   6.282
 5717POPC   C2B72932  14.113  19.032   6.714
 5717POPC   C3B72933  13.977  19.208   7.056
 5717POPC   C4B72934  13.991  19.252   7.489
 5718POPC   NC372935  14.351  26.222   5.330
 5718POPC   PO472936  14.197  25.581   5.502
 5718POPC   GL172937  14.485  25.729   5.833
 5718POPC   GL272938  14.561  26.102   5.793
 5718POPC   C1A72939  14.384  25.735   6.290
 5718POPC   D2A72940  14.092  25.986   6.540
 5718POPC   C3A72941  14.204  26.090   6.963
 5718POPC   C4A72942  14.433  25.792   7.229
 5718POPC   C1B72943  14.584  26.320   6.189
 5718POPC   C2B72944  14.586  26.133   6.571
 5718POPC   C3B72945  14.747  26.037   6.922
 5718POPC   C4B72946  14.619  26.285   7.228
 5719POPC   NC372947  13.724  27.856   5.418
 5719POPC   PO472948  13.525  27.202   5.380
 5719POPC   GL172949  13.456  27.514   5.731
 5719POPC   GL272950  13.776  27.450   5.876
 5719POPC   C1A72951  13.447  27.602   6.220
 5719POPC   D2A72952  13.775  27.721   6.567
 5719POPC   C3A72953  13.630  27.866   6.998
 5719POPC   C4A72954  13.587  27.625   7.411
 5719POPC   C1B72955  14.011  27.365   6.232
 5719POPC   C2B72956  13.930  27.222   6.639
 5719POPC   C3B72957  13.671  27.330   6.973
 5719POPC   C4B72958  13.964  27.194   7.278
 5720POPC   NC372959  34.531  15.405   5.210
 5720POPC   PO472960  34.206  14.878   5.302
 5720POPC   GL172961  34.511  15.062   5.609
 5720POPC   GL272962  34.678  15.392   5.698
 5720POPC   C1A72963  34.529  15.028   6.065
 5720POPC   D2A72964  34.701  15.179   6.455
 5720POPC   C3A72965  34.688  14.933   6.828
 5720POPC   C4A72966  34.478  14.840   7.179
 5720POPC   C1B72967  34.516  15.635   6.066
 5720POPC   C2B72968  34.563  15.663   6.509
 5720POPC   C3B72969  34.453  15.433   6.861
 5720POPC   C4B72970  34.475  15.679   7.198
 5721POPC   NC372971   3.936  33.535   5.525
 5721POPC   PO472972   4.593  33.837   5.404
 5721POPC   GL172973   4.377  33.782   5.798
 5721POPC   GL272974   4.037  33.889   5.915
 5721POPC   C1A72975   4.405  33.721   6.244
 5721POPC   D2A72976   4.101  33.888   6.541
 5721POPC   C3A72977   4.247  34.019   6.954
 5721POPC   C4A72978   4.530  33.803   7.237
 5721POPC   C1B72979   3.923  33.534   6.168
 5721POPC   C2B72980   4.136  33.344   6.483
 5721POPC   C3B72981   4.180  33.504   6.879
 5721POPC   C4B72982   4.042  33.238   7.203
 5722POPC   NC372983  17.058   0.511   5.411
 5722POPC   PO472984  16.425   0.686   5.364
 5722POPC   GL172985  16.610   0.547   5.739
 5722POPC   GL272986  16.764   0.214   5.739
 5722POPC   C1A72987  16.801   0.593   6.139
 5722POPC   D2A72988  16.989   0.647   6.557
 5722POPC   C3A72989  16.713   0.753   6.879
 5722POPC   C4A72990  16.662   0.618   7.287
 5722POPC   C1B72991  16.965   0.089   6.147
 5722POPC   C2B72992  16.944   0.086   6.616
 5722POPC   C3B72993  16.805  44.854   7.011
 5722POPC   C4B72994  16.994  44.939   7.431
 5723POPC   NC372995  27.173   8.677   5.531
 5723POPC   PO472996  26.806   8.152   5.283
 5723POPC   GL172997  26.731   8.026   5.709
 5723POPC   GL272998  26.923   7.699   5.694
 5723POPC   C1A72999  26.642   8.144   6.146
 5723POPC   D2A73000  26.664   8.336   6.553
 5723POPC   C3A73001  26.604   8.196   6.977
 5723POPC   C4A73002  26.790   8.512   7.268
 5723POPC   C1B73003  27.088   7.936   6.038
 5723POPC   C2B73004  27.067   8.033   6.471
 5723POPC   C3B73005  26.968   7.839   6.874
 5723POPC   C4B73006  27.029   8.047   7.251
 5724POPC   NC373007  12.359  12.931   5.447
 5724POPC   PO473008  13.043  12.665   5.395
 5724POPC   GL173009  13.038  12.843   5.814
 5724POPC   GL273010  12.726  12.996   5.795
 5724POPC   C1A73011  12.896  12.893   6.264
 5724POPC   D2A73012  12.464  12.841   6.485
 5724POPC   C3A73013  12.580  12.805   6.926
 5724POPC   C4A73014  13.022  12.856   7.043
 5724POPC   C1B73015  12.536  13.243   6.143
 5724POPC   C2B73016  12.693  13.307   6.575
 5724POPC   C3B73017  12.547  13.314   6.993
 5724POPC   C4B73018  12.729  13.234   7.360
 5725POPC   NC373019  30.672  10.893   5.185
 5725POPC   PO473020  30.468  11.451   5.282
 5725POPC   GL173021  30.612  11.196   5.613
 5725POPC   GL273022  30.294  11.034   5.605
 5725POPC   C1A73023  30.733  11.280   6.038
 5725POPC   D2A73024  30.798  11.527   6.423
 5725POPC   C3A73025  30.701  11.350   6.819
 5725POPC   C4A73026  30.907  11.493   7.176
 5725POPC   C1B73027  30.306  10.999   6.056
 5725POPC   C2B73028  30.561  10.992   6.449
 5725POPC   C3B73029  30.549  10.854   6.881
 5725POPC   C4B73030  30.646  11.073   7.275
 5726POPC   NC373031  34.289  38.983   5.297
 5726POPC   PO473032  34.831  39.366   5.401
 5726POPC   GL173033  34.650  39.151   5.768
 5726POPC   GL273034  34.297  39.202   5.784
 5726POPC   C1A73035  34.578  38.963   6.191
 5726POPC   D2A73036  34.743  39.032   6.592
 5726POPC   C3A73037  34.577  38.963   7.003
 5726POPC   C4A73038  34.636  39.250   7.325
 5726POPC   C1B73039  34.153  39.220   6.216
 5726POPC   C2B73040  34.268  39.214   6.618
 5726POPC   C3B73041  34.321  39.460   6.991
 5726POPC   C4B73042  34.367  39.806   7.267
 5727POPC   NC373043  38.450  12.699   5.378
 5727POPC   PO473044  38.097  13.258   5.405
 5727POPC   GL173045  38.294  13.020   5.764
 5727POPC   GL273046  38.662  12.887   5.782
 5727POPC   C1A73047  38.301  12.744   6.134
 5727POPC   D2A73048  38.374  12.866   6.570
 5727POPC   C3A73049  38.309  12.831   7.016
 5727POPC   C4A73050  38.517  12.903   7.408
 5727POPC   C1B73051  38.778  12.564   6.121
 5727POPC   C2B73052  38.634  12.392   6.537
 5727POPC   C3B73053  38.725  12.491   6.985
 5727POPC   C4B73054  38.767  12.470   7.470
 5728POPC   NC373055  29.002   7.243   5.424
 5728POPC   PO473056  29.164   7.835   5.625
 5728POPC   GL173057  29.350   7.499   5.850
 5728POPC   GL273058  29.014   7.401   5.931
 5728POPC   C1A73059  29.376   7.314   6.288
 5728POPC   D2A73060  29.200   7.526   6.656
 5728POPC   C3A73061  29.256   7.426   7.092
 5728POPC   C4A73062  29.501   7.565   7.443
 5728POPC   C1B73063  28.847   7.322   6.345
 5728POPC   C2B73064  28.775   7.266   6.769
 5728POPC   C3B73065  28.767   7.290   7.172
 5728POPC   C4B73066  29.009   7.433   7.545
 5729POPC   NC373067  33.801  14.967   5.516
 5729POPC   PO473068  34.166  15.495   5.517
 5729POPC   GL173069  34.089  15.253   5.852
 5729POPC   GL273070  33.742  15.324   5.886
 5729POPC   C1A73071  34.147  15.293   6.285
 5729POPC   D2A73072  34.195  15.034   6.629
 5729POPC   C3A73073  33.962  15.199   6.962
 5729POPC   C4A73074  34.207  15.252   7.304
 5729POPC   C1B73075  33.628  15.160   6.289
 5729POPC   C2B73076  33.583  14.819   6.581
 5729POPC   C3B73077  33.494  14.726   7.007
 5729POPC   C4B73078  33.701  14.935   7.371
 5730POPC   NC373079  32.946  22.597   5.444
 5730POPC   PO473080  32.921  23.241   5.432
 5730POPC   GL173081  33.185  23.164   5.787
 5730POPC   GL273082  33.299  22.814   5.784
 5730POPC   C1A73083  33.018  23.025   6.168
 5730POPC   D2A73084  32.954  22.777   6.533
 5730POPC   C3A73085  33.014  22.955   6.942
 5730POPC   C4A73086  32.767  22.704   7.197
 5730POPC   C1B73087  33.409  22.689   6.254
 5730POPC   C2B73088  33.423  22.738   6.735
 5730POPC   C3B73089  33.271  22.564   7.157
 5730POPC   C4B73090  33.434  22.600   7.599
 5731POPC   NC373091  43.711  27.889   5.341
 5731POPC   PO473092  43.825  27.271   5.422
 5731POPC   GL173093  43.977  27.536   5.756
 5731POPC   GL273094  44.149  27.865   5.647
 5731POPC   C1A73095  43.804  27.612   6.165
 5731POPC   D2A73096  43.599  27.459   6.526
 5731POPC   C3A73097  43.471  27.789   6.798
 5731POPC   C4A73098  43.631  27.686   7.188
 5731POPC   C1B73099  44.258  27.873   6.096
 5731POPC   C2B73100  44.370  27.698   6.488
 5731POPC   C3B73101  44.200  27.726   6.908
 5731POPC   C4B73102  44.079  27.451   7.208
 5732POPC   NC373103  42.886   9.437   5.417
 5732POPC   PO473104  43.515   9.548   5.463
 5732POPC   GL173105  43.195   9.656   5.777
 5732POPC   GL273106  42.888   9.874   5.717
 5732POPC   C1A73107  42.963   9.538   6.162
 5732POPC   D2A73108  43.075   9.466   6.599
 5732POPC   C3A73109  43.140   9.740   6.952
 5732POPC   C4A73110  42.899   9.682   7.337
 5732POPC   C1B73111  42.936  10.045   6.147
 5732POPC   C2B73112  42.858   9.993   6.600
 5732POPC   C3B73113  42.810  10.114   7.051
 5732POPC   C4B73114  42.586  10.063   7.480
 5733POPC   NC373115  24.630  16.082   5.436
 5733POPC   PO473116  23.990  15.723   5.402
 5733POPC   GL173117  24.262  15.885   5.763
 5733POPC   GL273118  24.143  16.191   5.823
 5733POPC   C1A73119  24.523  16.057   6.157
 5733POPC   D2A73120  24.825  16.241   6.505
 5733POPC   C3A73121  24.703  16.237   6.946
 5733POPC   C4A73122  24.566  15.880   7.157
 5733POPC   C1B73123  24.099  16.354   6.219
 5733POPC   C2B73124  24.295  16.207   6.603
 5733POPC   C3B73125  24.145  16.250   7.006
 5733POPC   C4B73126  24.152  16.069   7.385
 5734POPC   NC373127  25.137  33.631   5.559
 5734POPC   PO473128  25.345  34.293   5.423
 5734POPC   GL173129  25.439  34.021   5.800
 5734POPC   GL273130  25.573  33.657   5.848
 5734POPC   C1A73131  25.275  33.985   6.210
 5734POPC   D2A73132  25.442  33.876   6.600
 5734POPC   C3A73133  25.131  33.793   6.879
 5734POPC   C4A73134  25.055  33.417   7.122
 5734POPC   C1B73135  25.469  33.468   6.247
 5734POPC   C2B73136  25.376  33.349   6.683
 5734POPC   C3B73137  25.552  33.582   7.031
 5734POPC   C4B73138  25.512  34.051   7.100
 5735POPC   NC373139  32.478   2.436   4.941
 5735POPC   PO473140  32.059   2.865   5.353
 5735POPC   GL173141  32.247   2.801   5.748
 5735POPC   GL273142  32.009   2.648   5.977
 5735POPC   C1A73143  32.374   2.981   6.166
 5735POPC   D2A73144  32.227   2.800   6.532
 5735POPC   C3A73145  32.525   2.737   6.851
 5735POPC   C4A73146  32.599   2.801   7.278
 5735POPC   C1B73147  32.033   2.347   6.328
 5735POPC   C2B73148  32.104   2.372   6.779
 5735POPC   C3B73149  32.096   2.662   7.121
 5735POPC   C4B73150  31.765   2.662   7.403
 5736POPC   NC373151   3.423  22.818   5.267
 5736POPC   PO473152   2.713  22.881   5.327
 5736POPC   GL173153   2.697  22.960   5.769
 5736POPC   GL273154   2.930  22.747   5.892
 5736POPC   C1A73155   2.533  23.094   6.194
 5736POPC   D2A73156   2.484  22.875   6.605
 5736POPC   C3A73157   2.343  22.986   7.016
 5736POPC   C4A73158   2.585  23.189   7.327
 5736POPC   C1B73159   3.020  22.949   6.303
 5736POPC   C2B73160   3.016  23.029   6.766
 5736POPC   C3B73161   2.847  22.809   7.108
 5736POPC   C4B73162   2.651  22.481   7.330
 5737POPC   NC373163   7.434  44.826   5.475
 5737POPC   PO473164   7.218  44.167   5.520
 5737POPC   GL173165   7.308  44.495   5.839
 5737POPC   GL273166   7.094  44.780   5.855
 5737POPC   C1A73167   7.506  44.768   6.165
 5737POPC   D2A73168   7.603  44.645   6.587
 5737POPC   C3A73169   7.317  44.796   6.893
 5737POPC   C4A73170   7.492  44.856   7.228
 5737POPC   C1B73171   7.020  44.620   6.256
 5737POPC   C2B73172   7.141  44.401   6.627
 5737POPC   C3B73173   7.227  44.325   7.060
 5737POPC   C4B73174   7.177  44.545   7.451
 5738POPC   NC373175  39.406  12.267   5.426
 5738POPC   PO473176  39.013  11.740   5.201
 5738POPC   GL173177  39.080  11.952   5.670
 5738POPC   GL273178  39.392  11.835   5.825
 5738POPC   C1A73179  39.214  12.283   6.033
 5738POPC   D2A73180  39.250  12.562   6.404
 5738POPC   C3A73181  39.367  12.368   6.814
 5738POPC   C4A73182  39.169  12.320   7.200
 5738POPC   C1B73183  39.494  11.895   6.245
 5738POPC   C2B73184  39.515  11.879   6.664
 5738POPC   C3B73185  39.475  11.640   6.996
 5738POPC   C4B73186  39.467  11.909   7.277
 5739POPC   NC373187  21.704  39.697   5.417
 5739POPC   PO473188  21.117  39.978   5.259
 5739POPC   GL173189  21.337  39.967   5.649
 5739POPC   GL273190  21.103  39.835   5.804
 5739POPC   C1A73191  21.486  39.998   6.101
 5739POPC   D2A73192  21.314  39.867   6.518
 5739POPC   C3A73193  21.385  40.099   6.902
 5739POPC   C4A73194  21.492  40.207   7.346
 5739POPC   C1B73195  21.053  39.568   6.157
 5739POPC   C2B73196  21.074  39.400   6.584
 5739POPC   C3B73197  21.098  39.669   6.965
 5739POPC   C4B73198  21.084  39.891   7.385
 5740POPC   NC373199  37.503  22.742   5.366
 5740POPC   PO473200  37.770  22.133   5.108
 5740POPC   GL173201  37.607  22.094   5.600
 5740POPC   GL273202  37.652  22.429   5.776
 5740POPC   C1A73203  37.531  21.940   6.088
 5740POPC   D2A73204  37.557  21.722   6.531
 5740POPC   C3A73205  37.405  21.954   6.914
 5740POPC   C4A73206  37.511  22.035   7.350
 5740POPC   C1B73207  37.867  22.321   6.175
 5740POPC   C2B73208  37.776  22.193   6.599
 5740POPC   C3B73209  37.890  22.152   7.026
 5740POPC   C4B73210  37.729  22.479   7.286
 5741POPC   NC373211  35.638   1.955   5.543
 5741POPC   PO473212  36.266   1.861   5.347
 5741POPC   GL173213  36.182   1.976   5.767
 5741POPC   GL273214  36.430   1.728   5.832
 5741POPC   C1A73215  35.973   2.112   6.173
 5741POPC   D2A73216  35.701   2.193   6.556
 5741POPC   C3A73217  35.883   2.133   6.967
 5741POPC   C4A73218  36.237   2.283   7.178
 5741POPC   C1B73219  36.332   1.479   6.183
 5741POPC   C2B73220  36.391   1.548   6.614
 5741POPC   C3B73221  36.251   1.762   6.990
 5741POPC   C4B73222  36.358   1.618   7.398
 5742POPC   NC373223  34.197   7.150   5.429
 5742POPC   PO473224  33.805   7.733   5.311
 5742POPC   GL173225  33.789   7.593   5.740
 5742POPC   GL273226  34.077   7.767   5.857
 5742POPC   C1A73227  33.674   7.452   6.193
 5742POPC   D2A73228  33.469   7.284   6.598
 5742POPC   C3A73229  33.651   7.180   7.001
 5742POPC   C4A73230  33.862   7.444   7.285
 5742POPC   C1B73231  34.134   7.695   6.295
 5742POPC   C2B73232  33.982   7.625   6.738
 5742POPC   C3B73233  34.127   7.834   7.117
 5742POPC   C4B73234  34.075   7.871   7.561
 5743POPC   NC373235  43.722  32.482   5.544
 5743POPC   PO473236  44.347  32.193   5.484
 5743POPC   GL173237  44.062  32.179   5.842
 5743POPC   GL273238  43.788  31.920   5.923
 5743POPC   C1A73239  44.158  31.992   6.260
 5743POPC   D2A73240  44.244  32.129   6.669
 5743POPC   C3A73241  44.090  32.013   7.055
 5743POPC   C4A73242  44.044  32.414   7.250
 5743POPC   C1B73243  43.711  32.268   6.207
 5743POPC   C2B73244  43.567  32.315   6.609
 5743POPC   C3B73245  43.587  32.381   7.013
 5743POPC   C4B73246  43.622  32.060   7.264
 5744POPC   NC373247  37.058  34.762   5.331
 5744POPC   PO473248  36.625  34.317   5.475
 5744POPC   GL173249  36.825  34.632   5.784
 5744POPC   GL273250  37.179  34.592   5.814
 5744POPC   C1A73251  36.931  34.780   6.223
 5744POPC   D2A73252  37.304  34.772   6.531
 5744POPC   C3A73253  37.217  34.666   6.980
 5744POPC   C4A73254  36.789  34.664   7.147
 5744POPC   C1B73255  37.308  34.357   6.179
 5744POPC   C2B73256  37.298  34.143   6.580
 5744POPC   C3B73257  37.362  34.158   7.047
 5744POPC   C4B73258  37.141  34.304   7.420
 5745POPC   NC373259  13.513  20.354   5.368
 5745POPC   PO473260  13.758  19.734   5.493
 5745POPC   GL173261  13.681  20.080   5.769
 5745POPC   GL273262  13.359  20.201   5.813
 5745POPC   C1A73263  13.717  20.124   6.196
 5745POPC   D2A73264  13.855  19.815   6.501
 5745POPC   C3A73265  13.699  19.883   6.917
 5745POPC   C4A73266  13.627  19.552   7.204
 5745POPC   C1B73267  13.119  20.223   6.158
 5745POPC   C2B73268  13.157  20.318   6.582
 5745POPC   C3B73269  13.121  20.103   6.972
 5745POPC   C4B73270  13.385  19.984   7.330
 5746POPC   NC373271  29.603  41.469   5.250
 5746POPC   PO473272  30.027  41.750   5.613
 5746POPC   GL173273  30.016  41.381   5.810
 5746POPC   GL273274  29.729  41.188   5.688
 5746POPC   C1A73275  30.147  41.194   6.197
 5746POPC   D2A73276  30.258  41.079   6.592
 5746POPC   C3A73277  30.182  41.428   6.850
 5746POPC   C4A73278  30.219  41.639   7.234
 5746POPC   C1B73279  29.636  41.325   6.149
 5746POPC   C2B73280  29.764  41.508   6.565
 5746POPC   C3B73281  29.590  41.499   7.005
 5746POPC   C4B73282  29.555  41.431   7.452
 5747POPC   NC373283  39.696  30.513   5.600
 5747POPC   PO473284  39.058  30.402   5.560
 5747POPC   GL173285  39.261  30.764   5.790
 5747POPC   GL273286  38.989  30.981   5.897
 5747POPC   C1A73287  39.545  30.725   6.172
 5747POPC   D2A73288  39.563  30.862   6.578
 5747POPC   C3A73289  39.471  30.571   6.909
 5747POPC   C4A73290  39.340  30.667   7.320
 5747POPC   C1B73291  39.050  30.755   6.279
 5747POPC   C2B73292  38.919  30.758   6.703
 5747POPC   C3B73293  38.972  30.466   7.032
 5747POPC   C4B73294  38.910  30.467   7.468
 5748POPC   NC373295  44.982  40.598   5.189
 5748POPC   PO473296  44.887  41.075   5.609
 5748POPC   GL173297  44.737  40.945   5.961
 5748POPC   GL273298  44.746  40.589   5.879
 5748POPC   C1A73299  44.768  40.814   6.371
 5748POPC   D2A73300  44.474  40.804   6.717
 5748POPC   C3A73301  44.610  40.933   7.113
 5748POPC   C4A73302  44.729  40.743   7.491
 5748POPC   C1B73303  44.562  40.354   6.236
 5748POPC   C2B73304  44.395  40.312   6.648
 5748POPC   C3B73305  44.464  40.429   7.065
 5748POPC   C4B73306  44.237  40.650   7.329
 5749POPC   NC373307  31.564  30.403   5.469
 5749POPC   PO473308  31.358  29.845   5.316
 5749POPC   GL173309  31.448  29.975   5.747
 5749POPC   GL273310  31.249  30.274   5.838
 5749POPC   C1A73311  31.510  29.856   6.178
 5749POPC   D2A73312  31.801  29.815   6.509
 5749POPC   C3A73313  31.657  29.776   6.923
 5749POPC   C4A73314  31.854  29.688   7.307
 5749POPC   C1B73315  31.557  30.395   6.129
 5749POPC   C2B73316  31.587  30.275   6.532
 5749POPC   C3B73317  31.762  30.388   6.907
 5749POPC   C4B73318  31.620  30.176   7.254
 5750POPC   NC373319  31.605   0.895   5.446
 5750POPC   PO473320  31.332   1.490   5.491
 5750POPC   GL173321  31.374   1.225   5.808
 5750POPC   GL273322  31.263   0.895   5.812
 5750POPC   C1A73323  31.487   1.145   6.195
 5750POPC   D2A73324  31.613   0.999   6.545
 5750POPC   C3A73325  31.552   1.132   6.883
 5750POPC   C4A73326  31.674   1.193   7.262
 5750POPC   C1B73327  31.030   0.920   6.129
 5750POPC   C2B73328  31.100   0.962   6.538
 5750POPC   C3B73329  31.314   0.684   6.808
 5750POPC   C4B73330  31.308   0.830   7.203
 5751POPC   NC373331  29.600  18.375   5.624
 5751POPC   PO473332  29.080  18.032   5.311
 5751POPC   GL173333  28.986  18.326   5.792
 5751POPC   GL273334  29.290  18.476   5.985
 5751POPC   C1A73335  28.922  18.238   6.257
 5751POPC   D2A73336  28.967  18.510   6.627
 5751POPC   C3A73337  28.774  18.458   7.039
 5751POPC   C4A73338  28.790  18.205   7.404
 5751POPC   C1B73339  29.416  18.409   6.382
 5751POPC   C2B73340  29.283  18.081   6.673
 5751POPC   C3B73341  29.195  18.145   7.089
 5751POPC   C4B73342  29.192  18.541   7.317
 5752POPC   NC373343  24.891  19.401   5.362
 5752POPC   PO473344  24.515  18.824   5.428
 5752POPC   GL173345  24.477  19.001   5.823
 5752POPC   GL273346  24.771  19.180   5.822
 5752POPC   C1A73347  24.142  19.193   6.103
 5752POPC   D2A73348  24.034  19.375   6.512
 5752POPC   C3A73349  24.245  19.138   6.813
 5752POPC   C4A73350  24.454  19.095   7.211
 5752POPC   C1B73351  24.634  19.283   6.250
 5752POPC   C2B73352  24.786  19.170   6.665
 5752POPC   C3B73353  24.806  19.403   7.039
 5752POPC   C4B73354  24.779  19.419   7.517
 5753POPC   NC373355  33.486   4.507   5.501
 5753POPC   PO473356  32.918   4.242   5.256
 5753POPC   GL173357  32.879   4.297   5.699
 5753POPC   GL273358  32.916   4.654   5.724
 5753POPC   C1A73359  32.714   4.388   6.121
 5753POPC   D2A73360  32.824   4.595   6.511
 5753POPC   C3A73361  32.688   4.354   6.859
 5753POPC   C4A73362  32.832   4.405   7.271
 5753POPC   C1B73363  33.195   4.576   6.104
 5753POPC   C2B73364  33.333   4.703   6.513
 5753POPC   C3B73365  33.171   4.580   6.908
 5753POPC   C4B73366  33.168   4.791   7.300
 5754POPC   NC373367   9.922  18.082   5.350
 5754POPC   PO473368   9.558  18.691   5.450
 5754POPC   GL173369   9.601  18.474   5.841
 5754POPC   GL273370   9.592  18.096   5.743
 5754POPC   C1A73371   9.712  18.527   6.288
 5754POPC   D2A73372   9.968  18.422   6.661
 5754POPC   C3A73373   9.837  18.444   7.108
 5754POPC   C4A73374   9.676  18.514   7.545
 5754POPC   C1B73375   9.447  18.089   6.148
 5754POPC   C2B73376   9.627  18.061   6.542
 5754POPC   C3B73377   9.743  17.954   6.967
 5754POPC   C4B73378   9.521  18.085   7.313
 5755POPC   NC373379  30.580  34.964   5.420
 5755POPC   PO473380  30.477  35.624   5.349
 5755POPC   GL173381  30.696  35.547   5.699
 5755POPC   GL273382  30.525  35.283   5.807
 5755POPC   C1A73383  30.667  35.631   6.172
 5755POPC   D2A73384  30.867  35.776   6.553
 5755POPC   C3A73385  30.766  35.521   6.902
 5755POPC   C4A73386  30.415  35.508   7.118
 5755POPC   C1B73387  30.806  35.113   6.105
 5755POPC   C2B73388  30.691  35.183   6.512
 5755POPC   C3B73389  30.450  35.062   6.852
 5755POPC   C4B73390  30.550  35.014   7.240
 5756POPC   NC373391  25.374   4.299   5.065
 5756POPC   PO473392  25.548   3.994   5.675
 5756POPC   GL173393  25.274   4.226   5.899
 5756POPC   GL273394  24.983   3.969   5.919
 5756POPC   C1A73395  25.442   4.433   6.285
 5756POPC   D2A73396  25.138   4.453   6.625
 5756POPC   C3A73397  25.177   4.641   7.002
 5756POPC   C4A73398  25.558   4.557   7.111
 5756POPC   C1B73399  25.209   3.988   6.342
 5756POPC   C2B73400  25.532   4.093   6.663
 5756POPC   C3B73401  25.421   4.057   7.064
 5756POPC   C4B73402  24.984   4.145   7.020
 5757POPC   NC373403   7.133  16.201   5.418
 5757POPC   PO473404   7.685  15.803   5.396
 5757POPC   GL173405   7.519  15.972   5.758
 5757POPC   GL273406   7.773  16.198   5.880
 5757POPC   C1A73407   7.365  16.051   6.173
 5757POPC   D2A73408   7.408  15.965   6.586
 5757POPC   C3A73409   7.206  16.057   6.945
 5757POPC   C4A73410   7.088  15.813   7.269
 5757POPC   C1B73411   7.846  16.180   6.332
 5757POPC   C2B73412   7.776  16.408   6.738
 5757POPC   C3B73413   7.536  16.392   7.149
 5757POPC   C4B73414   7.478  16.461   7.596
 5758POPC   NC373415  35.493  15.629   5.360
 5758POPC   PO473416  35.214  16.218   5.513
 5758POPC   GL173417  35.362  15.874   5.842
 5758POPC   GL273418  35.173  15.529   5.898
 5758POPC   C1A73419  35.491  15.871   6.312
 5758POPC   D2A73420  35.667  16.096   6.689
 5758POPC   C3A73421  35.384  16.040   7.037
 5758POPC   C4A73422  35.241  16.034   7.488
 5758POPC   C1B73423  35.179  15.457   6.387
 5758POPC   C2B73424  35.442  15.577   6.772
 5758POPC   C3B73425  35.522  15.582   7.228
 5758POPC   C4B73426  35.191  15.541   7.520
 5759POPC   NC373427  16.858  33.025   5.201
 5759POPC   PO473428  16.808  32.296   5.320
 5759POPC   GL173429  16.760  32.145   5.754
 5759POPC   GL273430  16.476  31.935   5.726
 5759POPC   C1A73431  16.701  32.363   6.193
 5759POPC   D2A73432  16.426  32.355   6.597
 5759POPC   C3A73433  16.627  32.354   7.021
 5759POPC   C4A73434  17.062  32.434   7.177
 5759POPC   C1B73435  16.340  32.023   6.162
 5759POPC   C2B73436  16.330  31.830   6.587
 5759POPC   C3B73437  16.200  32.011   6.995
 5759POPC   C4B73438  16.320  32.231   7.413
 5760POPC   NC373439  10.752  31.817   5.390
 5760POPC   PO473440  10.296  31.270   5.297
 5760POPC   GL173441  10.452  31.363   5.711
 5760POPC   GL273442  10.442  31.673   5.783
 5760POPC   C1A73443  10.454  31.345   6.167
 5760POPC   D2A73444  10.718  31.412   6.529
 5760POPC   C3A73445  10.521  31.415   6.878
 5760POPC   C4A73446  10.560  31.536   7.268
 5760POPC   C1B73447  10.721  31.789   6.142
 5760POPC   C2B73448  10.759  31.934   6.588
 5760POPC   C3B73449  10.659  31.985   7.043
 5760POPC   C4B73450  10.380  32.000   7.416
 5761POPC   NC373451   2.879  20.804   5.250
 5761POPC   PO473452   2.273  20.515   5.174
 5761POPC   GL173453   2.571  20.685   5.611
 5761POPC   GL273454   2.887  20.459   5.615
 5761POPC   C1A73455   2.683  20.783   6.068
 5761POPC   D2A73456   2.457  20.691   6.476
 5761POPC   C3A73457   2.495  20.849   6.895
 5761POPC   C4A73458   2.759  20.622   7.202
 5761POPC   C1B73459   3.096  20.441   6.009
 5761POPC   C2B73460   2.879  20.398   6.387
 5761POPC   C3B73461   2.882  20.286   6.796
 5761POPC   C4B73462   3.222  20.452   7.011
 5762POPC   NC373463   4.911   9.234   5.479
 5762POPC   PO473464   5.473   8.942   5.553
 5762POPC   GL173465   5.133   8.940   5.852
 5762POPC   GL273466   5.019   8.596   5.815
 5762POPC   C1A73467   5.001   9.213   6.242
 5762POPC   D2A73468   4.928   9.179   6.714
 5762POPC   C3A73469   5.178   8.902   6.935
 5762POPC   C4A73470   5.361   9.086   7.284
 5762POPC   C1B73471   4.838   8.724   6.229
 5762POPC   C2B73472   4.635   8.756   6.641
 5762POPC   C3B73473   4.720   8.783   7.104
 5762POPC   C4B73474   5.053   8.628   7.365
 5763POPC   NC373475  12.610  22.193   5.276
 5763POPC   PO473476  12.012  21.966   5.258
 5763POPC   GL173477  11.957  21.948   5.722
 5763POPC   GL273478  11.607  21.852   5.868
 5763POPC   C1A73479  12.201  21.977   6.103
 5763POPC   D2A73480  12.329  22.281   6.431
 5763POPC   C3A73481  12.063  22.425   6.774
 5763POPC   C4A73482  12.141  22.421   7.219
 5763POPC   C1B73483  11.728  22.082   6.219
 5763POPC   C2B73484  11.965  21.928   6.575
 5763POPC   C3B73485  11.947  21.987   6.996
 5763POPC   C4B73486  11.669  22.299   7.106
 5764POPC   NC373487   1.530  22.257   5.495
 5764POPC   PO473488   1.066  21.857   5.257
 5764POPC   GL173489   1.163  22.029   5.732
 5764POPC   GL273490   1.144  22.393   5.846
 5764POPC   C1A73491   1.167  21.996   6.186
 5764POPC   D2A73492   1.245  21.819   6.596
 5764POPC   C3A73493   1.052  22.062   6.884
 5764POPC   C4A73494   1.198  22.079   7.272
 5764POPC   C1B73495   1.335  22.494   6.206
 5764POPC   C2B73496   1.415  22.314   6.565
 5764POPC   C3B73497   1.358  22.475   6.935
 5764POPC   C4B73498   1.164  22.587   7.293
 5765POPC   NC373499  18.540  12.774   5.187
 5765POPC   PO473500  18.255  13.389   5.298
 5765POPC   GL173501  18.324  12.991   5.630
 5765POPC   GL273502  18.025  12.922   5.848
 5765POPC   C1A73503  18.436  12.814   6.099
 5765POPC   D2A73504  18.290  12.681   6.540
 5765POPC   C3A73505  18.399  12.995   6.813
 5765POPC   C4A73506  18.770  13.004   7.003
 5765POPC   C1B73507  17.902  12.831   6.250
 5765POPC   C2B73508  17.873  13.005   6.655
 5765POPC   C3B73509  17.975  13.016   7.094
 5765POPC   C4B73510  18.006  12.871   7.498
 5766POPC   NC373511  41.033   3.834   5.435
 5766POPC   PO473512  40.493   3.384   5.355
 5766POPC   GL173513  40.519   3.542   5.788
 5766POPC   GL273514  40.840   3.738   5.892
 5766POPC   C1A73515  40.498   3.610   6.231
 5766POPC   D2A73516  40.691   3.842   6.557
 5766POPC   C3A73517  40.716   3.521   6.861
 5766POPC   C4A73518  40.752   3.537   7.304
 5766POPC   C1B73519  40.964   3.396   6.189
 5766POPC   C2B73520  41.076   3.159   6.584
 5766POPC   C3B73521  41.093   3.216   7.046
 5766POPC   C4B73522  41.050   3.200   7.518
 5767POPC   NC373523  34.914  38.228   5.552
 5767POPC   PO473524  34.270  38.538   5.417
 5767POPC   GL173525  34.484  38.663   5.787
 5767POPC   GL273526  34.861  38.675   5.872
 5767POPC   C1A73527  34.533  38.430   6.178
 5767POPC   D2A73528  34.590  38.173   6.532
 5767POPC   C3A73529  34.419  38.317   6.917
 5767POPC   C4A73530  34.271  38.572   7.271
 5767POPC   C1B73531  34.956  38.647   6.335
 5767POPC   C2B73532  34.847  38.574   6.780
 5767POPC   C3B73533  34.789  38.509   7.212
 5767POPC   C4B73534  34.763  38.165   7.509
 5768POPC   NC373535  27.902  25.197   5.539
 5768POPC   PO473536  27.352  24.977   5.363
 5768POPC   GL173537  27.466  25.102   5.826
 5768POPC   GL273538  27.512  25.460   5.858
 5768POPC   C1A73539  27.530  25.014   6.312
 5768POPC   D2A73540  27.476  24.874   6.772
 5768POPC   C3A73541  27.384  25.253   7.034
 5768POPC   C4A73542  27.578  25.591   7.236
 5768POPC   C1B73543  27.865  25.415   6.155
 5768POPC   C2B73544  27.952  25.237   6.534
 5768POPC   C3B73545  27.881  25.324   6.913
 5768POPC   C4B73546  28.059  25.351   7.288
 5769POPC   NC373547  13.467   9.730   5.289
 5769POPC   PO473548  14.172   9.814   5.435
 5769POPC   GL173549  13.740   9.930   5.681
 5769POPC   GL273550  13.456   9.657   5.789
 5769POPC   C1A73551  13.613   9.978   6.133
 5769POPC   D2A73552  13.817   9.846   6.546
 5769POPC   C3A73553  13.570   9.760   6.933
 5769POPC   C4A73554  13.310   9.695   7.285
 5769POPC   C1B73555  13.616   9.453   6.198
 5769POPC   C2B73556  13.743   9.350   6.644
 5769POPC   C3B73557  13.954   9.428   7.054
 5769POPC   C4B73558  14.064   9.343   7.509
 5770POPC   NC373559   9.211  39.907   5.259
 5770POPC   PO473560   9.806  39.557   5.144
 5770POPC   GL173561   9.631  39.710   5.576
 5770POPC   GL273562   9.385  39.978   5.726
 5770POPC   C1A73563   9.730  39.775   6.040
 5770POPC   D2A73564   9.560  39.781   6.461
 5770POPC   C3A73565   9.852  39.864   6.791
 5770POPC   C4A73566   9.787  39.933   7.220
 5770POPC   C1B73567   9.446  40.223   6.108
 5770POPC   C2B73568   9.704  40.267   6.485
 5770POPC   C3B73569   9.518  40.259   6.907
 5770POPC   C4B73570   9.622  40.429   7.289
 5771POPC   NC373571  20.824  19.376   5.203
 5771POPC   PO473572  21.014  19.927   5.488
 5771POPC   GL173573  20.659  19.975   5.731
 5771POPC   GL273574  20.539  19.635   5.770
 5771POPC   C1A73575  20.715  20.054   6.183
 5771POPC   D2A73576  20.669  19.950   6.643
 5771POPC   C3A73577  20.824  19.758   7.058
 5771POPC   C4A73578  20.504  19.814   7.408
 5771POPC   C1B73579  20.724  19.539   6.195
 5771POPC   C2B73580  20.693  19.418   6.659
 5771POPC   C3B73581  20.474  19.388   7.088
 5771POPC   C4B73582  20.683  19.338   7.509
 5772POPC   NC373583  10.473  14.417   5.197
 5772POPC   PO473584  10.770  14.188   5.738
 5772POPC   GL173585  10.414  14.307   5.956
 5772POPC   GL273586  10.518  14.620   5.907
 5772POPC   C1A73587  10.388  14.385   6.405
 5772POPC   D2A73588  10.638  14.247   6.765
 5772POPC   C3A73589  10.402  13.946   6.971
 5772POPC   C4A73590  10.289  14.168   7.321
 5772POPC   C1B73591  10.813  14.655   6.273
 5772POPC   C2B73592  10.737  14.759   6.710
 5772POPC   C3B73593  10.438  14.681   7.096
 5772POPC   C4B73594  10.589  14.599   7.538
 5773POPC   NC373595  25.541   5.234   5.378
 5773POPC   PO473596  25.225   4.579   5.400
 5773POPC   GL173597  25.188   4.927   5.721
 5773POPC   GL273598  25.380   5.246   5.850
 5773POPC   C1A73599  25.265   4.886   6.172
 5773POPC   D2A73600  25.217   4.964   6.592
 5773POPC   C3A73601  25.488   5.065   6.896
 5773POPC   C4A73602  25.443   5.000   7.308
 5773POPC   C1B73603  25.269   5.402   6.273
 5773POPC   C2B73604  25.025   5.419   6.669
 5773POPC   C3B73605  25.055   5.293   7.105
 5773POPC   C4B73606  25.274   5.434   7.466
 5774POPC   NC373607  38.930  29.273   5.386
 5774POPC   PO473608  39.171  28.785   5.013
 5774POPC   GL173609  39.172  28.865   5.549
 5774POPC   GL273610  39.208  29.171   5.803
 5774POPC   C1A73611  39.107  28.751   6.025
 5774POPC   D2A73612  38.999  28.999   6.429
 5774POPC   C3A73613  39.289  29.037   6.790
 5774POPC   C4A73614  39.183  28.900   7.208
 5774POPC   C1B73615  39.244  29.403   6.178
 5774POPC   C2B73616  39.085  29.510   6.570
 5774POPC   C3B73617  39.216  29.556   6.976
 5774POPC   C4B73618  39.471  29.406   7.251
 5775POPC   NC373619  34.896   3.253   5.484
 5775POPC   PO473620  34.312   3.612   5.402
 5775POPC   GL173621  34.523   3.540   5.790
 5775POPC   GL273622  34.824   3.687   5.723
 5775POPC   C1A73623  34.474   3.446   6.245
 5775POPC   D2A73624  34.668   3.592   6.634
 5775POPC   C3A73625  34.366   3.622   6.927
 5775POPC   C4A73626  34.337   3.480   7.364
 5775POPC   C1B73627  34.873   3.748   6.165
 5775POPC   C2B73628  35.066   3.895   6.515
 5775POPC   C3B73629  35.127   3.685   6.882
 5775POPC   C4B73630  34.818   3.632   7.187
 5776POPC   NC373631  25.864  22.290   5.048
 5776POPC   PO473632  26.276  22.386   5.528
 5776POPC   GL173633  26.244  22.291   5.912
 5776POPC   GL273634  25.903  22.237   5.939
 5776POPC   C1A73635  26.274  22.044   6.258
 5776POPC   D2A73636  26.073  21.959   6.617
 5776POPC   C3A73637  26.238  22.122   6.991
 5776POPC   C4A73638  26.086  22.359   7.309
 5776POPC   C1B73639  25.666  22.005   6.242
 5776POPC   C2B73640  25.616  21.636   6.518
 5776POPC   C3B73641  25.657  21.845   6.877
 5776POPC   C4B73642  25.767  21.961   7.285
 5777POPC   NC373643   1.706  16.103   5.097
 5777POPC   PO473644   2.226  15.972   5.404
 5777POPC   GL173645   2.037  16.153   5.831
 5777POPC   GL273646   1.680  16.282   5.715
 5777POPC   C1A73647   2.056  16.036   6.320
 5777POPC   D2A73648   1.959  15.885   6.780
 5777POPC   C3A73649   2.027  16.178   7.151
 5777POPC   C4A73650   2.039  16.226   7.626
 5777POPC   C1B73651   1.600  16.166   6.146
 5777POPC   C2B73652   1.685  16.286   6.586
 5777POPC   C3B73653   1.539  16.118   6.971
 5777POPC   C4B73654   1.566  16.243   7.399
 5778POPC   NC373655  29.038  42.289   5.335
 5778POPC   PO473656  29.527  42.568   5.329
 5778POPC   GL173657  29.480  42.423   5.747
 5778POPC   GL273658  29.317  42.105   5.791
 5778POPC   C1A73659  29.499  42.345   6.210
 5778POPC   D2A73660  29.227  42.402   6.565
 5778POPC   C3A73661  29.334  42.536   6.976
 5778POPC   C4A73662  29.215  42.420   7.406
 5778POPC   C1B73663  29.116  41.977   6.213
 5778POPC   C2B73664  28.940  41.981   6.644
 5778POPC   C3B73665  28.918  42.110   7.103
 5778POPC   C4B73666  28.841  42.093   7.583
 5779POPC   NC373667   4.227  44.107   5.340
 5779POPC   PO473668   4.460  44.793   5.169
 5779POPC   GL173669   4.442  44.740   5.644
 5779POPC   GL273670   4.506   0.065   5.757
 5779POPC   C1A73671   4.480  44.479   6.060
 5779POPC   D2A73672   4.532  44.317   6.506
 5779POPC   C3A73673   4.417  44.565   6.868
 5779POPC   C4A73674   4.253  44.678   7.266
 5779POPC   C1B73675   4.388   0.010   6.214
 5779POPC   C2B73676   4.408   0.079   6.685
 5779POPC   C3B73677   4.439   0.149   7.145
 5779POPC   C4B73678   4.377   0.017   7.608
 5780POPC   NC373679  27.981   4.992   5.470
 5780POPC   PO473680  28.486   5.333   5.288
 5780POPC   GL173681  28.412   5.173   5.729
 5780POPC   GL273682  28.320   4.806   5.797
 5780POPC   C1A73683  28.419   5.328   6.162
 5780POPC   D2A73684  28.230   5.376   6.574
 5780POPC   C3A73685  28.418   5.218   6.961
 5780POPC   C4A73686  28.820   5.174   7.145
 5780POPC   C1B73687  28.480   4.819   6.227
 5780POPC   C2B73688  28.303   4.848   6.634
 5780POPC   C3B73689  28.467   4.709   7.058
 5780POPC   C4B73690  28.502   4.637   7.490
 5781POPC   NC373691   2.816  24.366   5.502
 5781POPC   PO473692   2.594  24.984   5.509
 5781POPC   GL173693   2.658  24.744   5.848
 5781POPC   GL273694   3.011  24.726   5.840
 5781POPC   C1A73695   2.554  24.729   6.278
 5781POPC   D2A73696   2.464  24.913   6.679
 5781POPC   C3A73697   2.540  24.700   7.081
 5781POPC   C4A73698   2.460  24.768   7.535
 5781POPC   C1B73699   2.993  24.487   6.242
 5781POPC   C2B73700   2.851  24.576   6.662
 5781POPC   C3B73701   3.041  24.580   7.031
 5781POPC   C4B73702   3.295  24.250   7.145
 5782POPC   NC373703   7.869  32.808   5.505
 5782POPC   PO473704   8.250  32.168   5.331
 5782POPC   GL173705   8.226  32.177   5.753
 5782POPC   GL273706   8.174  32.491   5.758
 5782POPC   C1A73707   8.016  32.282   6.195
 5782POPC   D2A73708   7.801  32.158   6.583
 5782POPC   C3A73709   8.121  32.103   6.883
 5782POPC   C4A73710   8.203  32.284   7.275
 5782POPC   C1B73711   8.487  32.490   6.076
 5782POPC   C2B73712   8.379  32.431   6.528
 5782POPC   C3B73713   8.586  32.400   6.931
 5782POPC   C4B73714   8.613  32.551   7.375
 5783POPC   NC373715  30.940   1.237   5.474
 5783POPC   PO473716  30.347   0.920   5.555
 5783POPC   GL173717  30.560   1.103   5.882
 5783POPC   GL273718  30.602   1.441   5.854
 5783POPC   C1A73719  30.613   1.132   6.311
 5783POPC   D2A73720  30.602   0.920   6.696
 5783POPC   C3A73721  30.552   1.217   7.019
 5783POPC   C4A73722  30.712   1.421   7.378
 5783POPC   C1B73723  30.994   1.438   6.130
 5783POPC   C2B73724  30.909   1.462   6.569
 5783POPC   C3B73725  31.061   1.280   6.965
 5783POPC   C4B73726  31.230   1.411   7.357
 5784POPC   NC373727   8.589  20.965   5.401
 5784POPC   PO473728   8.439  21.637   5.279
 5784POPC   GL173729   8.345  21.643   5.715
 5784POPC   GL273730   8.321  21.284   5.727
 5784POPC   C1A73731   8.139  21.561   6.148
 5784POPC   D2A73732   8.268  21.453   6.590
 5784POPC   C3A73733   8.060  21.546   7.016
 5784POPC   C4A73734   8.289  21.496   7.416
 5784POPC   C1B73735   8.401  21.098   6.141
 5784POPC   C2B73736   8.437  20.954   6.569
 5784POPC   C3B73737   8.334  21.113   6.997
 5784POPC   C4B73738   8.442  21.015   7.418
 5785POPC   NC373739  40.252  19.571   5.537
 5785POPC   PO473740  39.769  20.023   5.474
 5785POPC   GL173741  39.928  19.843   5.850
 5785POPC   GL273742  40.241  20.003   5.882
 5785POPC   C1A73743  40.020  19.753   6.295
 5785POPC   D2A73744  40.130  19.491   6.657
 5785POPC   C3A73745  40.101  19.733   7.043
 5785POPC   C4A73746  39.640  19.732   7.146
 5785POPC   C1B73747  40.368  20.273   6.216
 5785POPC   C2B73748  40.292  20.448   6.628
 5785POPC   C3B73749  40.260  20.300   7.054
 5785POPC   C4B73750  39.882  20.165   7.207
 5786POPC   NC373751   7.001   1.161   5.394
 5786POPC   PO473752   7.594   1.149   5.241
 5786POPC   GL173753   7.526   1.081   5.723
 5786POPC   GL273754   7.174   1.020   5.888
 5786POPC   C1A73755   7.651   1.158   6.201
 5786POPC   D2A73756   7.804   1.189   6.661
 5786POPC   C3A73757   7.534   1.323   7.021
 5786POPC   C4A73758   7.267   1.338   7.428
 5786POPC   C1B73759   7.093   0.655   6.208
 5786POPC   C2B73760   7.170   0.628   6.686
 5786POPC   C3B73761   7.153   0.963   7.050
 5786POPC   C4B73762   6.797   1.184   7.275
 5787POPC   NC373763  31.306   7.812   5.613
 5787POPC   PO473764  31.519   7.302   5.171
 5787POPC   GL173765  31.464   7.363   5.718
 5787POPC   GL273766  31.152   7.377   5.843
 5787POPC   C1A73767  31.529   7.423   6.194
 5787POPC   D2A73768  31.653   7.558   6.624
 5787POPC   C3A73769  31.634   7.342   6.988
 5787POPC   C4A73770  31.500   7.434   7.385
 5787POPC   C1B73771  31.051   7.224   6.257
 5787POPC   C2B73772  31.262   7.167   6.676
 5787POPC   C3B73773  31.172   7.128   7.142
 5787POPC   C4B73774  31.058   7.240   7.605
 5788POPC   NC373775  31.042   3.340   5.394
 5788POPC   PO473776  30.580   3.803   5.145
 5788POPC   GL173777  30.794   3.609   5.716
 5788POPC   GL273778  30.534   3.475   5.939
 5788POPC   C1A73779  30.961   3.723   6.144
 5788POPC   D2A73780  31.087   3.558   6.560
 5788POPC   C3A73781  30.971   3.760   6.935
 5788POPC   C4A73782  30.816   3.678   7.286
 5788POPC   C1B73783  30.640   3.347   6.329
 5788POPC   C2B73784  30.551   3.612   6.659
 5788POPC   C3B73785  30.408   3.506   7.054
 5788POPC   C4B73786  30.539   3.265   7.421
 5789POPC   NC373787  11.597  32.237   5.563
 5789POPC   PO473788  12.215  32.104   5.244
 5789POPC   GL173789  12.171  32.063   5.723
 5789POPC   GL273790  12.197  32.389   5.720
 5789POPC   C1A73791  11.968  31.966   6.193
 5789POPC   D2A73792  11.655  31.951   6.517
 5789POPC   C3A73793  11.827  31.849   6.886
 5789POPC   C4A73794  11.965  32.182   7.138
 5789POPC   C1B73795  11.980  32.479   6.072
 5789POPC   C2B73796  12.005  32.598   6.483
 5789POPC   C3B73797  12.062  32.743   6.883
 5789POPC   C4B73798  11.817  32.701   7.255
 5790POPC   NC373799  11.660  19.270   5.569
 5790POPC   PO473800  11.028  18.962   5.458
 5790POPC   GL173801  11.268  19.035   5.833
 5790POPC   GL273802  11.293  19.385   5.922
 5790POPC   C1A73803  11.342  18.943   6.277
 5790POPC   D2A73804  11.400  19.150   6.684
 5790POPC   C3A73805  11.470  18.895   7.053
 5790POPC   C4A73806  11.265  18.521   7.169
 5790POPC   C1B73807  11.639  19.364   6.236
 5790POPC   C2B73808  11.800  19.487   6.648
 5790POPC   C3B73809  11.642  19.410   7.068
 5790POPC   C4B73810  11.766  19.403   7.493
 5791POPC   NC373811  34.852  30.855   5.379
 5791POPC   PO473812  35.430  30.710   5.393
 5791POPC   GL173813  35.576  30.665   5.813
 5791POPC   GL273814  35.894  30.490   5.870
 5791POPC   C1A73815  35.320  30.740   6.196
 5791POPC   D2A73816  35.019  30.729   6.529
 5791POPC   C3A73817  35.171  30.858   6.912
 5791POPC   C4A73818  35.468  30.769   7.241
 5791POPC   C1B73819  35.593  30.294   6.165
 5791POPC   C2B73820  35.369  30.322   6.527
 5791POPC   C3B73821  35.608  30.437   6.878
 5791POPC   C4B73822  35.862  30.449   7.276
 5792POPC   NC373823  34.134  23.417   5.496
 5792POPC   PO473824  33.716  23.773   5.140
 5792POPC   GL173825  33.769  23.734   5.637
 5792POPC   GL273826  34.042  23.924   5.728
 5792POPC   C1A73827  33.891  23.597   6.114
 5792POPC   D2A73828  33.667  23.563   6.536
 5792POPC   C3A73829  33.771  23.640   6.969
 5792POPC   C4A73830  33.988  23.282   7.163
 5792POPC   C1B73831  34.015  24.098   6.150
 5792POPC   C2B73832  34.065  23.904   6.539
 5792POPC   C3B73833  34.214  23.527   6.724
 5792POPC   C4B73834  34.266  23.725   7.111
 5793POPC   NC373835  32.530   6.249   5.328
 5793POPC   PO473836  32.823   5.623   5.429
 5793POPC   GL173837  33.094   5.803   5.756
 5793POPC   GL273838  33.015   6.168   5.745
 5793POPC   C1A73839  33.143   5.634   6.182
 5793POPC   D2A73840  32.932   5.665   6.585
 5793POPC   C3A73841  33.155   5.699   7.006
 5793POPC   C4A73842  33.028   5.758   7.467
 5793POPC   C1B73843  32.992   6.142   6.154
 5793POPC   C2B73844  33.156   6.141   6.542
 5793POPC   C3B73845  32.984   6.156   6.932
 5793POPC   C4B73846  33.124   6.230   7.310
 5794POPC   NC373847  23.431  18.322   5.346
 5794POPC   PO473848  24.053  18.036   5.391
 5794POPC   GL173849  23.798  18.312   5.725
 5794POPC   GL273850  23.458  18.190   5.827
 5794POPC   C1A73851  23.682  18.493   6.153
 5794POPC   D2A73852  23.627  18.305   6.557
 5794POPC   C3A73853  24.010  18.370   6.788
 5794POPC   C4A73854  24.148  18.703   7.086
 5794POPC   C1B73855  23.376  17.945   6.180
 5794POPC   C2B73856  23.295  17.917   6.611
 5794POPC   C3B73857  23.311  18.159   6.999
 5794POPC   C4B73858  23.386  17.928   7.373
 5795POPC   NC373859  38.598  34.790   5.177
 5795POPC   PO473860  38.682  34.221   5.389
 5795POPC   GL173861  38.525  34.257   5.775
 5795POPC   GL273862  38.562  34.619   5.766
 5795POPC   C1A73863  38.613  34.179   6.197
 5795POPC   D2A73864  38.652  34.384   6.586
 5795POPC   C3A73865  38.560  34.192   6.963
 5795POPC   C4A73866  38.340  34.383   7.343
 5795POPC   C1B73867  38.298  34.575   6.148
 5795POPC   C2B73868  38.211  34.651   6.583
 5795POPC   C3B73869  38.424  34.711   6.957
 5795POPC   C4B73870  38.263  34.887   7.327
 5796POPC   NC373871  26.484  14.032   5.345
 5796POPC   PO473872  26.923  14.511   5.278
 5796POPC   GL173873  26.857  14.593   5.732
 5796POPC   GL273874  26.855  14.250   5.762
 5796POPC   C1A73875  26.608  14.542   6.175
 5796POPC   D2A73876  26.564  14.759   6.609
 5796POPC   C3A73877  26.612  14.566   7.058
 5796POPC   C4A73878  26.450  14.546   7.533
 5796POPC   C1B73879  27.084  14.367   6.139
 5796POPC   C2B73880  26.954  14.402   6.582
 5796POPC   C3B73881  27.078  14.328   7.016
 5796POPC   C4B73882  27.295  14.260   7.397
 5797POPC   NC373883  26.518   4.613   5.436
 5797POPC   PO473884  27.172   4.276   5.462
 5797POPC   GL173885  27.089   4.217   5.841
 5797POPC   GL273886  26.735   4.286   5.785
 5797POPC   C1A73887  26.982   4.269   6.260
 5797POPC   D2A73888  26.700   4.408   6.563
 5797POPC   C3A73889  26.823   4.302   6.959
 5797POPC   C4A73890  26.798   4.561   7.320
 5797POPC   C1B73891  26.481   4.189   6.124
 5797POPC   C2B73892  26.543   3.925   6.475
 5797POPC   C3B73893  26.417   4.002   6.888
 5797POPC   C4B73894  26.446   4.210   7.291
 5798POPC   NC373895  21.400  19.655   5.495
 5798POPC   PO473896  21.851  20.073   5.607
 5798POPC   GL173897  21.571  19.937   5.877
 5798POPC   GL273898  21.690  19.626   6.032
 5798POPC   C1A73899  21.186  19.785   6.109
 5798POPC   D2A73900  21.098  19.701   6.514
 5798POPC   C3A73901  21.416  19.711   6.809
 5798POPC   C4A73902  21.348  19.824   7.221
 5798POPC   C1B73903  21.594  19.947   6.373
 5798POPC   C2B73904  21.575  20.248   6.671
 5798POPC   C3B73905  21.536  20.303   7.082
 5798POPC   C4B73906  21.762  20.107   7.375
 5799POPC   NC373907  39.457  15.540   5.356
 5799POPC   PO473908  39.055  15.046   5.094
 5799POPC   GL173909  39.165  15.156   5.556
 5799POPC   GL273910  39.084  15.481   5.737
 5799POPC   C1A73911  39.226  14.961   5.975
 5799POPC   D2A73912  39.081  15.004   6.404
 5799POPC   C3A73913  39.263  14.843   6.758
 5799POPC   C4A73914  39.171  14.951   7.214
 5799POPC   C1B73915  38.947  15.422   6.158
 5799POPC   C2B73916  39.120  15.496   6.562
 5799POPC   C3B73917  39.194  15.427   6.974
 5799POPC   C4B73918  38.963  15.491   7.294
 5800POPC   NC373919  13.854  25.185   5.440
 5800POPC   PO473920  13.398  25.703   5.554
 5800POPC   GL173921  13.500  25.352   5.777
 5800POPC   GL273922  13.853  25.443   5.880
 5800POPC   C1A73923  13.442  25.429   6.199
 5800POPC   D2A73924  13.503  25.245   6.579
 5800POPC   C3A73925  13.512  25.470   6.940
 5800POPC   C4A73926  13.615  25.308   7.342
 5800POPC   C1B73927  13.772  25.061   6.116
 5800POPC   C2B73928  13.943  24.959   6.507
 5800POPC   C3B73929  13.848  25.057   6.929
 5800POPC   C4B73930  13.927  24.831   7.311
 5801POPC   NC373931  25.153  26.590   5.251
 5801POPC   PO473932  25.555  27.140   5.235
 5801POPC   GL173933  25.395  26.867   5.624
 5801POPC   GL273934  25.070  26.907   5.769
 5801POPC   C1A73935  25.496  26.828   6.083
 5801POPC   D2A73936  25.458  26.961   6.505
 5801POPC   C3A73937  25.398  26.677   6.876
 5801POPC   C4A73938  25.087  26.648   7.229
 5801POPC   C1B73939  25.097  27.182   6.149
 5801POPC   C2B73940  25.148  27.359   6.573
 5801POPC   C3B73941  25.222  27.158   6.971
 5801POPC   C4B73942  25.254  27.163   7.407
 5802POPC   NC373943  31.810  42.320   5.363
 5802POPC   PO473944  32.410  42.710   5.371
 5802POPC   GL173945  32.334  42.316   5.667
 5802POPC   GL273946  31.995  42.219   5.825
 5802POPC   C1A73947  32.403  42.120   6.116
 5802POPC   D2A73948  32.090  42.140   6.506
 5802POPC   C3A73949  32.160  42.267   6.978
 5802POPC   C4A73950  32.432  42.005   7.279
 5802POPC   C1B73951  32.119  42.547   6.096
 5802POPC   C2B73952  32.118  42.656   6.538
 5802POPC   C3B73953  32.280  42.792   6.942
 5802POPC   C4B73954  32.112  42.714   7.390
 5803POPC   NC373955  33.545  33.839   5.397
 5803POPC   PO473956  34.027  34.399   5.323
 5803POPC   GL173957  33.914  34.090   5.668
 5803POPC   GL273958  34.012  33.735   5.718
 5803POPC   C1A73959  33.695  33.913   6.066
 5803POPC   D2A73960  33.796  33.757   6.501
 5803POPC   C3A73961  33.692  34.093   6.793
 5803POPC   C4A73962  33.615  34.190   7.225
 5803POPC   C1B73963  33.992  33.452   6.113
 5803POPC   C2B73964  34.258  33.412   6.502
 5803POPC   C3B73965  34.056  33.417   6.921
 5803POPC   C4B73966  33.639  33.651   7.027
 5804POPC   NC373967  40.500  24.226   5.034
 5804POPC   PO473968  40.072  23.835   5.410
 5804POPC   GL173969  40.017  23.584   5.753
 5804POPC   GL273970  40.088  23.866   5.944
 5804POPC   C1A73971  40.090  23.362   6.156
 5804POPC   D2A73972  40.022  23.571   6.544
 5804POPC   C3A73973  40.053  23.469   6.987
 5804POPC   C4A73974  39.797  23.550   7.356
 5804POPC   C1B73975  39.849  24.076   6.244
 5804POPC   C2B73976  39.882  24.187   6.657
 5804POPC   C3B73977  39.800  23.939   6.980
 5804POPC   C4B73978  40.146  23.924   7.245
 5805POPC   NC373979  23.164  13.746   5.396
 5805POPC   PO473980  22.699  13.304   5.525
 5805POPC   GL173981  22.788  13.627   5.790
 5805POPC   GL273982  23.125  13.591   5.914
 5805POPC   C1A73983  22.689  13.732   6.212
 5805POPC   D2A73984  22.730  13.959   6.607
 5805POPC   C3A73985  23.012  13.757   6.911
 5805POPC   C4A73986  23.060  13.662   7.356
 5805POPC   C1B73987  23.178  13.563   6.393
 5805POPC   C2B73988  23.179  13.278   6.753
 5805POPC   C3B73989  23.354  13.277   7.186
 5805POPC   C4B73990  23.089  13.199   7.564
 5806POPC   NC373991  37.052  16.156   5.144
 5806POPC   PO473992  36.764  15.665   5.550
 5806POPC   GL173993  36.966  15.943   5.830
 5806POPC   GL273994  36.873  16.323   5.756
 5806POPC   C1A73995  37.049  15.810   6.262
 5806POPC   D2A73996  36.860  15.761   6.670
 5806POPC   C3A73997  37.047  15.922   7.024
 5806POPC   C4A73998  37.230  15.950   7.403
 5806POPC   C1B73999  36.837  16.261   6.206
 5806POPC   C2B74000  37.006  16.281   6.597
 5806POPC   C3B74001  36.703  16.253   6.892
 5806POPC   C4B74002  36.771  16.246   7.322
 5807POPC   NC374003  13.983  38.974   5.379
 5807POPC   PO474004  13.872  39.655   5.487
 5807POPC   GL174005  13.663  39.395   5.858
 5807POPC   GL274006  13.662  39.037   5.784
 5807POPC   C1A74007  13.607  39.333   6.346
 5807POPC   D2A74008  13.592  39.200   6.830
 5807POPC   C3A74009  13.943  39.042   7.129
 5807POPC   C4A74010  13.900  38.955   7.601
 5807POPC   C1B74011  13.361  38.956   6.096
 5807POPC   C2B74012  13.223  38.988   6.521
 5807POPC   C3B74013  13.253  38.830   6.937
 5807POPC   C4B74014  13.478  38.976   7.295
 5808POPC   NC374015  15.650   2.727   5.413
 5808POPC   PO474016  15.018   2.587   5.359
 5808POPC   GL174017  15.286   2.668   5.759
 5808POPC   GL274018  15.472   2.972   5.849
 5808POPC   C1A74019  15.339   2.544   6.192
 5808POPC   D2A74020  15.050   2.668   6.517
 5808POPC   C3A74021  15.191   2.649   6.922
 5808POPC   C4A74022  15.367   2.305   7.152
 5808POPC   C1B74023  15.388   3.042   6.315
 5808POPC   C2B74024  15.538   3.102   6.754
 5808POPC   C3B74025  15.300   3.105   7.158
 5808POPC   C4B74026  14.993   3.105   7.541
 5809POPC   NC374027  12.791  23.955   5.100
 5809POPC   PO474028  12.574  23.475   5.504
 5809POPC   GL174029  12.770  23.470   5.928
 5809POPC   GL274030  12.908  23.808   5.969
 5809POPC   C1A74031  12.891  23.492   6.354
 5809POPC   D2A74032  12.727  23.595   6.726
 5809POPC   C3A74033  12.973  23.472   7.043
 5809POPC   C4A74034  12.874  23.200   7.343
 5809POPC   C1B74035  12.817  24.006   6.372
 5809POPC   C2B74036  12.688  24.084   6.799
 5809POPC   C3B74037  12.975  24.033   7.137
 5809POPC   C4B74038  12.932  24.008   7.569
 5810POPC   NC374039   0.513  13.885   5.431
 5810POPC   PO474040   0.188  14.443   5.232
 5810POPC   GL174041   0.313  14.387   5.690
 5810POPC   GL274042   0.161  14.101   5.783
 5810POPC   C1A74043   0.414  14.444   6.132
 5810POPC   D2A74044   0.301  14.730   6.459
 5810POPC   C3A74045   0.464  14.644   6.882
 5810POPC   C4A74046   0.803  14.546   7.156
 5810POPC   C1B74047   0.029  14.141   6.222
 5810POPC   C2B74048   0.221  14.250   6.653
 5810POPC   C3B74049   0.419  14.141   7.070
 5810POPC   C4B74050   0.261  14.083   7.496
 5811POPC   NC374051  16.137  27.948   5.408
 5811POPC   PO474052  15.768  27.420   5.446
 5811POPC   GL174053  15.959  27.607   5.795
 5811POPC   GL274054  16.113  27.266   5.840
 5811POPC   C1A74055  15.905  27.905   6.174
 5811POPC   D2A74056  15.766  27.759   6.593
 5811POPC   C3A74057  15.759  27.887   7.029
 5811POPC   C4A74058  15.928  27.750   7.422
 5811POPC   C1B74059  15.925  27.355   6.260
 5811POPC   C2B74060  16.094  27.352   6.681
 5811POPC   C3B74061  16.110  27.383   7.130
 5811POPC   C4B74062  16.213  27.365   7.613
 5812POPC   NC374063  38.526   3.940   5.377
 5812POPC   PO474064  38.139   3.410   5.435
 5812POPC   GL174065  38.428   3.542   5.722
 5812POPC   GL274066  38.785   3.429   5.803
 5812POPC   C1A74067  38.432   3.644   6.139
 5812POPC   D2A74068  38.289   3.469   6.502
 5812POPC   C3A74069  38.303   3.745   6.863
 5812POPC   C4A74070  38.382   3.611   7.284
 5812POPC   C1B74071  38.792   3.301   6.252
 5812POPC   C2B74072  38.792   3.532   6.657
 5812POPC   C3B74073  38.833   3.284   7.035
 5812POPC   C4B74074  38.803   3.366   7.445
 5813POPC   NC374075  40.681  24.942   5.617
 5813POPC   PO474076  40.734  24.295   5.423
 5813POPC   GL174077  40.905  24.227   5.814
 5813POPC   GL274078  40.830  24.567   5.915
 5813POPC   C1A74079  40.801  24.167   6.245
 5813POPC   D2A74080  40.822  24.336   6.650
 5813POPC   C3A74081  40.682  24.157   7.038
 5813POPC   C4A74082  40.997  24.124   7.333
 5813POPC   C1B74083  40.766  24.810   6.299
 5813POPC   C2B74084  40.750  24.829   6.743
 5813POPC   C3B74085  40.890  24.621   7.105
 5813POPC   C4B74086  40.880  24.564   7.555
 5814POPC   NC374087  40.165  20.306   5.406
 5814POPC   PO474088  39.637  20.760   5.197
 5814POPC   GL174089  39.756  20.633   5.650
 5814POPC   GL274090  40.089  20.532   5.842
 5814POPC   C1A74091  39.664  20.657   6.113
 5814POPC   D2A74092  39.794  20.364   6.445
 5814POPC   C3A74093  39.738  20.500   6.865
 5814POPC   C4A74094  39.792  20.659   7.280
 5814POPC   C1B74095  40.161  20.783   6.205
 5814POPC   C2B74096  39.957  20.861   6.568
 5814POPC   C3B74097  40.118  20.867   6.959
 5814POPC   C4B74098  40.281  20.744   7.369
 5815POPC   NC374099  36.794   3.770   5.599
 5815POPC   PO474100  36.935   4.401   5.264
 5815POPC   GL174101  36.987   4.651   5.659
 5815POPC   GL274102  36.747   4.481   5.795
 5815POPC   C1A74103  37.034   4.674   6.177
 5815POPC   D2A74104  37.026   4.420   6.608
 5815POPC   C3A74105  37.041   4.470   7.087
 5815POPC   C4A74106  37.158   4.300   7.519
 5815POPC   C1B74107  36.517   4.523   6.168
 5815POPC   C2B74108  36.520   4.266   6.522
 5815POPC   C3B74109  36.550   4.246   6.948
 5815POPC   C4B74110  36.645   4.304   7.394
 5816POPC   NC374111  35.912   9.476   5.333
 5816POPC   PO474112  35.932  10.197   5.473
 5816POPC   GL174113  36.091   9.827   5.773
 5816POPC   GL274114  36.042   9.413   5.825
 5816POPC   C1A74115  36.204   9.698   6.220
 5816POPC   D2A74116  36.209   9.946   6.611
 5816POPC   C3A74117  36.421   9.961   6.984
 5816POPC   C4A74118  36.126   9.861   7.273
 5816POPC   C1B74119  36.014   9.168   6.232
 5816POPC   C2B74120  35.992   9.275   6.696
 5816POPC   C3B74121  35.974   9.379   7.153
 5816POPC   C4B74122  36.336   9.454   7.484
 5817POPC   NC374123  14.303  38.243   5.321
 5817POPC   PO474124  14.346  38.783   5.610
 5817POPC   GL174125  14.186  38.451   5.909
 5817POPC   GL274126  13.990  38.156   5.819
 5817POPC   C1A74127  14.118  38.449   6.390
 5817POPC   D2A74128  14.197  38.513   6.850
 5817POPC   C3A74129  14.613  38.412   7.069
 5817POPC   C4A74130  14.970  38.500   7.376
 5817POPC   C1B74131  14.169  37.970   6.218
 5817POPC   C2B74132  14.236  38.007   6.692
 5817POPC   C3B74133  14.221  38.088   7.144
 5817POPC   C4B74134  14.088  38.123   7.572
 5818POPC   NC374135   5.977  36.277   5.076
 5818POPC   PO474136   5.556  35.823   5.346
 5818POPC   GL174137   5.750  35.948   5.780
 5818POPC   GL274138   5.866  36.274   5.895
 5818POPC   C1A74139   5.730  35.961   6.247
 5818POPC   D2A74140   5.681  36.156   6.623
 5818POPC   C3A74141   5.754  35.890   6.965
 5818POPC   C4A74142   6.160  35.889   7.188
 5818POPC   C1B74143   6.158  36.532   6.130
 5818POPC   C2B74144   6.128  36.424   6.560
 5818POPC   C3B74145   5.998  36.339   6.971
 5818POPC   C4B74146   6.183  36.388   7.325
 5819POPC   NC374147  19.262  41.315   5.169
 5819POPC   PO474148  19.006  41.771   5.515
 5819POPC   GL174149  18.871  41.657   5.877
 5819POPC   GL274150  18.536  41.656   5.802
 5819POPC   C1A74151  18.985  41.667   6.305
 5819POPC   D2A74152  19.199  41.923   6.601
 5819POPC   C3A74153  19.125  41.808   7.027
 5819POPC   C4A74154  18.959  41.437   7.265
 5819POPC   C1B74155  18.505  41.846   6.233
 5819POPC   C2B74156  18.686  41.877   6.687
 5819POPC   C3B74157  18.600  41.774   7.135
 5819POPC   C4B74158  18.440  41.644   7.555
 5820POPC   NC374159  42.086  10.724   5.546
 5820POPC   PO474160  42.747  10.662   5.508
 5820POPC   GL174161  42.462  10.433   5.777
 5820POPC   GL274162  42.344  10.724   5.972
 5820POPC   C1A74163  42.223  10.252   6.126
 5820POPC   D2A74164  42.325  10.100   6.516
 5820POPC   C3A74165  42.152  10.316   6.861
 5820POPC   C4A74166  42.431  10.429   7.180
 5820POPC   C1B74167  42.650  10.989   6.144
 5820POPC   C2B74168  42.620  10.995   6.574
 5820POPC   C3B74169  42.323  10.816   6.863
 5820POPC   C4B74170  42.095  10.780   7.276
 5821POPC   NC374171   2.877  32.625   5.531
 5821POPC   PO474172   2.376  32.998   5.645
 5821POPC   GL174173   2.720  32.965   5.880
 5821POPC   GL274174   2.925  33.204   5.727
 5821POPC   C1A74175   2.769  32.755   6.252
 5821POPC   D2A74176   2.966  32.725   6.637
 5821POPC   C3A74177   2.671  32.845   6.952
 5821POPC   C4A74178   2.487  33.202   7.142
 5821POPC   C1B74179   2.752  33.389   6.142
 5821POPC   C2B74180   2.761  33.246   6.579
 5821POPC   C3B74181   2.920  33.414   6.974
 5821POPC   C4B74182   2.982  33.233   7.396
 5822POPC   NC374183  35.052  32.581   5.353
 5822POPC   PO474184  35.592  32.136   5.262
 5822POPC   GL174185  35.465  32.284   5.697
 5822POPC   GL274186  35.122  32.262   5.807
 5822POPC   C1A74187  35.506  32.281   6.192
 5822POPC   D2A74188  35.737  32.252   6.627
 5822POPC   C3A74189  35.521  32.188   7.035
 5822POPC   C4A74190  35.519  32.522   7.356
 5822POPC   C1B74191  34.986  32.321   6.226
 5822POPC   C2B74192  35.183  32.272   6.627
 5822POPC   C3B74193  35.114  32.478   7.023
 5822POPC   C4B74194  35.098  32.243   7.378
 5823POPC   NC374195   3.025  41.376   5.525
 5823POPC   PO474196   2.341  41.729   5.444
 5823POPC   GL174197   2.632  41.657   5.742
 5823POPC   GL274198   2.680  41.328   5.885
 5823POPC   C1A74199   2.716  41.791   6.145
 5823POPC   D2A74200   2.702  41.731   6.575
 5823POPC   C3A74201   2.960  41.789   6.896
 5823POPC   C4A74202   2.770  41.808   7.276
 5823POPC   C1B74203   2.610  41.298   6.310
 5823POPC   C2B74204   2.800  41.218   6.690
 5823POPC   C3B74205   2.927  41.327   7.095
 5823POPC   C4B74206   3.091  41.412   7.452
 5824POPC   NC374207  40.945  19.336   5.341
 5824POPC   PO474208  40.969  18.722   5.200
 5824POPC   GL174209  40.892  18.918   5.659
 5824POPC   GL274210  40.544  18.927   5.843
 5824POPC   C1A74211  40.919  19.209   6.047
 5824POPC   D2A74212  40.939  19.044   6.480
 5824POPC   C3A74213  40.890  19.015   6.919
 5824POPC   C4A74214  40.880  18.726   7.254
 5824POPC   C1B74215  40.427  19.296   6.149
 5824POPC   C2B74216  40.615  19.415   6.568
 5824POPC   C3B74217  40.522  19.392   7.007
 5824POPC   C4B74218  40.750  19.213   7.367
 5825W        W74219  35.419  43.818   4.389
 5826W        W74220  29.386  33.375  14.483
 5827W        W74221  27.319  21.748   2.175
 5828W        W74222   6.690  13.123   3.695
 5829W        W74223   2.007  39.841  14.916
 5830W        W74224  12.184  38.622  10.498
 5831W        W74225  28.663  28.860   1.230
 5832W        W74226  16.270  42.399   3.052
 5833W        W74227  28.276  26.637   4.642
 5834W        W74228  34.785  14.655  13.020
 5835W        W74229  32.510   0.693  11.012
 5836W        W74230   2.895  18.490   3.647
 5837W        W74231  23.540  31.847   4.554
 5838W        W74232  13.616  18.061   3.693
 5839W        W74233   5.288  27.526  10.600
 5840W        W74234   2.025  31.909  13.961
 5841W        W74235   5.442   3.342   1.816
 5842W        W74236  15.112  19.032  13.906
 5843W        W74237   5.597  31.216   3.633
 5844W        W74238   6.866  40.084   0.262
 5845W        W74239  36.481   0.878   2.923
 5846W        W74240  13.299  44.485  10.607
 5847W        W74241  26.556  11.223  14.380
 5848W        W74242  41.109  38.853   2.297
 5849W        W74243  44.822  43.482  12.245
 5850W        W74244  29.882   8.247   4.900
 5851W        W74245  28.212  42.912   5.003
 5852W        W74246  19.138  42.246  12.508
 5853W        W74247   7.487  33.942   0.589
 5854W        W74248  43.350  17.533   1.697
 5855W        W74249  11.346  16.722   4.472
 5856W        W74250  41.945  41.797  12.110
 5857W        W74251  31.472  37.972  14.074
 5858W        W74252  25.187  32.884  11.168
 5859W        W74253  16.724  41.295  12.481
 5860W        W74254  13.534  30.965  14.962
 5861W        W74255  30.819  44.796   1.355
 5862W        W74256   5.168  16.832   9.871
 5863W        W74257  31.503   6.197   1.872
 5864W        W74258  17.328  44.303  11.012
 5865W        W74259   7.608  13.261   4.565
 5866W        W74260   0.411  38.463  14.226
 5867W        W74261   9.138   5.737  14.818
 5868W        W74262   7.457  17.855  11.147
 5869W        W74263  38.942  17.134  12.415
 5870W        W74264  15.629   5.939  11.619
 5871W        W74265  17.763  10.747   0.363
 5872W        W74266  28.445  35.101  12.572
 5873W        W74267  34.210  35.979  11.583
 5874W        W74268  12.060  39.956   4.524
 5875W        W74269   6.302   5.151   2.845
 5876W        W74270  32.526  14.060   2.573
 5877W        W74271  38.306  42.074  13.869
 5878W        W74272  10.410  10.290  11.537
 5879W        W74273  15.373   6.903  11.235
 5880W        W74274   5.455  38.597  13.027
 5881W        W74275  30.464  15.311   4.186
 5882W        W74276  28.421   6.162   3.083
 5883W        W74277  43.575  32.701  11.081
 5884W        W74278  30.869  25.968  12.990
 5885W        W74279  17.063   0.862   3.672
 5886W        W74280   1.045   8.624   2.429
 5887W        W74281  27.128  16.324   2.027
 5888W        W74282  31.612  43.025  10.662
 5889W        W74283  20.283  40.262  14.609
 5890W        W74284  16.513   3.872   2.254
 5891W        W74285  35.397  11.454   2.694
 5892W        W74286  26.633  36.146  10.730
 5893W        W74287  35.017  31.080   2.100
 5894W        W74288   6.653  42.265  13.439
 5895W        W74289  40.762  44.296  11.666
 5896W        W74290  42.623  32.523   3.239
 5897W        W74291  35.553  34.359  13.486
 5898W        W74292  19.002  11.212  14.055
 5899W        W74293  35.706  10.757   0.547
 5900W        W74294  21.489  10.199   0.183
 5901W        W74295  35.325  28.326   2.863
 5902W        W74296  35.889  41.254  11.576
 5903W        W74297   7.623  40.293  14.411
 5904W        W74298   1.204  21.042  12.480
 5905W        W74299   9.779  13.341   4.338
 5906W        W74300  20.856  23.674   3.714
 5907W        W74301  32.959   0.844   0.919
 5908W        W74302  30.534   4.225  12.843
 5909W        W74303   0.218  15.839   3.584
 5910W        W74304  10.741  27.836  10.675
 5911W        W74305  17.254   3.498  11.103
 5912W        W74306  14.170  43.610   4.975
 5913W        W74307  20.664  17.393   1.902
 5914W        W74308  37.053  38.600  12.979
 5915W        W74309  14.762  37.289   0.818
 5916W        W74310  35.622  23.127  13.389
 5917W        W74311  19.920   4.644   1.217
 5918W        W74312  39.043  14.270  11.546
 5919W        W74313   0.913   8.807  12.982
 5920W        W74314  40.390  28.430   4.045
 5921W        W74315   9.247  38.894  14.475
 5922W        W74316  40.050  17.303   3.691
 5923W        W74317  32.516  23.636   4.672
 5924W        W74318  27.331   8.647  12.502
 5925W        W74319  30.124  28.717   3.314
 5926W        W74320  27.675  17.549   0.385
 5927W        W74321  30.938  10.696  12.946
 5928W        W74322   2.942   2.984  10.642
 5929W        W74323   2.832  23.214   3.259
 5930W        W74324  10.541  44.737  13.862
 5931W        W74325   8.910  18.032  14.418
 5932W        W74326  27.038  18.272   2.827
 5933W        W74327   1.702  16.477  13.814
 5934W        W74328  20.758  25.392  13.667
 5935W        W74329   0.732  37.755   0.399
 5936W        W74330   3.942   7.383  10.871
 5937W        W74331   0.559  33.485  10.956
 5938W        W74332  25.120  20.695   1.211
 5939W        W74333  18.323   7.735   3.198
 5940W        W74334  13.744   2.021  13.630
 5941W        W74335  30.684  25.552   0.661
 5942W        W74336  42.562  10.896  13.849
 5943W        W74337  29.639  19.293   0.287
 5944W        W74338  41.501  15.384  12.202
 5945W        W74339   5.095  20.113  14.263
 5946W        W74340  22.127  43.717   0.386
 5947W        W74341  21.914  21.449   5.100
 5948W        W74342  33.086  20.542  11.221
 5949W        W74343  22.252  37.013  14.208
 5950W        W74344  19.535  34.482  12.522
 5951W        W74345  43.508  35.857  12.154
 5952W        W74346  41.413   8.706   4.037
 5953W        W74347  34.552  13.577  14.448
 5954W        W74348  30.488  17.819   3.568
 5955W        W74349  17.067   8.729   2.103
 5956W        W74350  40.817  25.749   0.041
 5957W        W74351  18.747  35.817   2.845
 5958W        W74352  39.536  40.167   1.677
 5959W        W74353  38.463  37.410   4.588
 5960W        W74354  42.627  21.501   0.400
 5961W        W74355  24.106  31.451   3.648
 5962W        W74356   1.140  12.355  11.811
 5963W        W74357  23.258  41.581  14.323
 5964W        W74358  24.692   9.633   3.711
 5965W        W74359   8.644  17.270   0.373
 5966W        W74360  44.721   4.252   0.004
 5967W        W74361   0.377  28.490   2.329
 5968W        W74362  31.354   5.343   0.312
 5969W        W74363  38.088   8.644  11.212
 5970W        W74364  27.908  38.151  14.878
 5971W        W74365   6.854  23.280   2.784
 5972W        W74366  42.352  26.004   0.142
 5973W        W74367  32.602  44.661  12.962
 5974W        W74368  40.834   5.730   2.920
 5975W        W74369   0.924  11.087   5.034
 5976W        W74370  44.894  31.839   2.728
 5977W        W74371   9.160  34.348  14.973
 5978W        W74372  22.188  34.889  10.444
 5979W        W74373   6.438  13.529  10.981
 5980W        W74374   0.782   6.815  10.966
 5981W        W74375  27.015  30.078   3.164
 5982W        W74376   3.139   7.367  12.441
 5983W        W74377   4.888  39.838   4.405
 5984W        W74378  13.662  22.545   1.290
 5985W        W74379   1.905  41.806  11.682
 5986W        W74380  30.052  15.545  10.278
 5987W        W74381  40.922  23.563   4.465
 5988W        W74382  31.382   5.597   3.666
 5989W        W74383  43.048  25.583   2.258
 5990W        W74384  27.200  10.178   4.499
 5991W        W74385  11.045  31.788  12.145
 5992W        W74386   8.820  40.036  10.747
 5993W        W74387  16.142  11.822   0.476
 5994W        W74388  36.463  40.475   2.267
 5995W        W74389  33.962   7.313  12.445
 5996W        W74390  10.819  32.484   0.128
 5997W        W74391  40.899   2.508  14.928
 5998W        W74392   1.886  15.577   1.077
 5999W        W74393  13.952  18.330   0.755
 6000W        W74394  19.607  28.438  14.385
 6001W        W74395   7.169  37.447  12.932
 6002W        W74396  24.918  36.396  11.761
 6003W        W74397  26.553   0.208   0.913
 6004W        W74398  17.195  19.887   2.456
 6005W        W74399  20.424  20.293   2.031
 6006W        W74400   2.216   9.834   0.205
 6007W        W74401  14.593  35.230   0.841
 6008W        W74402  19.826  21.407  14.921
 6009W        W74403  40.151  41.355   0.896
 6010W        W74404  38.347  27.974   0.817
 6011W        W74405  33.509  12.616  12.627
 6012W        W74406  42.034  44.864   3.170
 6013W        W74407   7.629   1.232   4.701
 6014W        W74408   5.929   6.695   5.548
 6015W        W74409   5.901  22.841   0.264
 6016W        W74410  36.444   3.403   2.263
 6017W        W74411   8.870   8.094   2.753
 6018W        W74412  35.626  12.903   3.789
 6019W        W74413  12.064  29.163  14.843
 6020W        W74414  10.565  23.472   5.070
 6021W        W74415  43.602  14.227   4.326
 6022W        W74416  18.513  38.406  13.739
 6023W        W74417  30.551  37.137  11.933
 6024W        W74418   0.317  14.309   0.687
 6025W        W74419  16.926  39.584   4.896
 6026W        W74420  14.844  25.039  11.455
 6027W        W74421  33.333  18.623   4.037
 6028W        W74422  30.592  26.478   1.845
 6029W        W74423  19.055  23.482  13.082
 6030W        W74424  43.281  14.794   2.789
 6031W        W74425   5.467  36.976  13.299
 6032W        W74426  11.130  22.500  11.111
 6033W        W74427  28.481  30.430  13.312
 6034W        W74428  44.027   2.651  14.404
 6035W        W74429   8.073   8.804   2.508
 6036W        W74430  14.747   7.416   1.633
 6037W        W74431  40.980  14.659   1.547
 6038W        W74432  34.561  43.356   2.477
 6039W        W74433  26.707   6.008  12.023
 6040W        W74434   6.424  15.819   1.603
 6041W        W74435   4.087   6.204  11.622
 6042W        W74436  13.752  28.412  10.672
 6043W        W74437  26.266  33.866   3.631
 6044W        W74438  29.478   3.416   4.039
 6045W        W74439  22.588  44.509   0.384
 6046W        W74440  16.374  24.194   3.334
 6047W        W74441   3.347   8.318  13.665
 6048W        W74442   0.036  18.849  11.321
 6049W        W74443  40.459  20.052   1.216
 6050W        W74444  39.612  38.491  10.985
 6051W        W74445  12.826  10.121  12.794
 6052W        W74446  20.739   5.243   3.821
 6053W        W74447   7.409  10.336   3.173
 6054W        W74448  29.536  37.803   0.989
 6055W        W74449  29.712  44.615  11.537
 6056W        W74450  24.754  20.103  12.984
 6057W        W74451   0.383   3.327  10.513
 6058W        W74452  19.245  36.363  14.810
 6059W        W74453   9.353  43.413  12.396
 6060W        W74454  10.131  19.681  11.463
 6061W        W74455  24.691  29.125   1.233
 6062W        W74456   8.366  44.834   0.001
 6063W        W74457   0.889  22.577  12.785
 6064W        W74458  13.586   7.981   3.082
 6065W        W74459  15.312  33.571   3.156
 6066W        W74460  12.399  13.306   1.850
 6067W        W74461  24.525  43.756  10.031
 6068W        W74462   0.893  21.801  13.861
 6069W        W74463   6.785   0.435   2.370
 6070W        W74464  41.959   9.361   4.514
 6071W        W74465  34.422  30.008   0.006
 6072W        W74466  18.248  18.369   4.681
 6073W        W74467  35.208  26.910  14.862
 6074W        W74468  22.004  43.268   1.735
 6075W        W74469   0.924  41.920   0.751
 6076W        W74470  12.700  26.195   3.110
 6077W        W74471  34.121  15.747   4.311
 6078W        W74472  43.497  33.889  12.554
 6079W        W74473   3.902  37.024   1.880
 6080W        W74474  16.131  34.149   0.703
 6081W        W74475  41.915  13.222  13.702
 6082W        W74476  21.382  11.914  14.869
 6083W        W74477  35.452  33.864   0.074
 6084W        W74478  36.706   0.352   3.653
 6085W        W74479  31.158  38.127   1.314
 6086W        W74480  26.054  22.584  10.616
 6087W        W74481  21.542  27.290   0.354
 6088W        W74482  39.550  11.605   3.852
 6089W        W74483  35.942  22.269  13.886
 6090W        W74484  15.915   2.840   4.970
 6091W        W74485  37.224   7.675   1.103
 6092W        W74486   1.648  16.195   2.401
 6093W        W74487  40.561  27.006  11.870
 6094W        W74488  21.951  35.862  10.703
 6095W        W74489   6.629  26.969   3.216
 6096W        W74490   3.296  26.548  14.376
 6097W        W74491   3.318  28.032   1.298
 6098W        W74492  18.017  21.818  14.954
 6099W        W74493  38.479  35.065   0.733
 6100W        W74494  24.998  44.206  13.575
 6101W        W74495  44.436  29.442   3.635
 6102W        W74496  14.788  19.558   4.586
 6103W        W74497  41.458   1.744   0.190
 6104W        W74498  39.686  44.314   3.047
 6105W        W74499  30.070  11.164  14.465
 6106W        W74500   5.711   8.259  12.378
 6107W        W74501  42.288  42.398   3.714
 6108W        W74502  28.238  31.377  10.894
 6109W        W74503   5.965  14.059   1.953
 6110W        W74504  39.303  19.237   3.642
 6111W        W74505  39.827   8.552   2.723
 6112W        W74506  41.954  15.061  10.471
 6113W        W74507   0.812  43.717   1.977
 6114W        W74508  44.120  15.814  11.949
 6115W        W74509   2.192  10.939  11.612
 6116W        W74510  19.818  32.098  11.603
 6117W        W74511   4.258  15.783  14.430
 6118W        W74512  28.257  11.530  13.814
 6119W        W74513   4.454  40.685   4.677
 6120W        W74514  30.257  41.581   3.183
 6121W        W74515  17.748  25.200  12.856
 6122W        W74516  17.367   7.448  11.587
 6123W        W74517   4.541  26.566  10.263
 6124W        W74518   5.346  18.484   4.070
 6125W        W74519   4.482  32.969   1.519
 6126W        W74520   8.712   0.998   1.174
 6127W        W74521  44.099  28.050   2.760
 6128W        W74522  10.651  10.341  13.011
 6129W        W74523   0.207  29.189  10.728
 6130W        W74524  18.749  20.656  10.361
 6131W        W74525  11.950   1.044   2.496
 6132W        W74526  13.685  25.778   2.335
 6133W        W74527  19.319  43.077   3.125
 6134W        W74528  16.021  41.535   2.810
 6135W        W74529   6.293   5.643  11.167
 6136W        W74530  40.575   7.218   3.354
 6137W        W74531  30.349  39.486  14.861
 6138W        W74532  37.450  17.856   4.413
 6139W        W74533  44.763  24.914   2.095
 6140W        W74534  12.049   8.106   3.574
 6141W        W74535   9.335  15.827   3.825
 6142W        W74536  20.051  22.645   3.211
 6143W        W74537   2.929  22.818  14.516
 6144W        W74538  43.232  39.469  12.725
 6145W        W74539  13.984   6.997  14.801
 6146W        W74540   4.226  12.087  14.781
 6147W        W74541  15.229  17.483   3.928
 6148W        W74542  35.110  36.844  11.062
 6149W        W74543  13.163  12.842  12.815
 6150W        W74544  26.073  20.351   3.580
 6151W        W74545   5.001   6.472   0.990
 6152W        W74546   4.429   1.792   4.799
 6153W        W74547  33.880  44.780   3.685
 6154W        W74548   6.662  27.239  12.010
 6155W        W74549  21.527  11.889  12.001
 6156W        W74550  16.937  34.997   0.113
 6157W        W74551  44.451   1.968  10.286
 6158W        W74552  24.640  24.581  12.845
 6159W        W74553   4.936   3.180  13.741
 6160W        W74554  10.865  14.328  12.670
 6161W        W74555  10.876  15.445  11.555
 6162W        W74556   9.229   1.204  10.975
 6163W        W74557   7.351  28.079   0.436
 6164W        W74558  37.226  33.656   1.733
 6165W        W74559   3.946  12.126  12.069
 6166W        W74560  35.451  20.531   1.260
 6167W        W74561  21.583  21.123   4.396
 6168W        W74562  16.751  32.979   1.276
 6169W        W74563   3.969  10.748  14.335
 6170W        W74564  30.267  43.393  12.630
 6171W        W74565  38.501  34.877   4.404
 6172W        W74566  30.771  41.038  12.055
 6173W        W74567   9.415   3.922  13.587
 6174W        W74568  10.300   7.709   1.171
 6175W        W74569  18.089  17.858   2.255
 6176W        W74570   1.431  33.085  13.861
 6177W        W74571   4.165  22.683   4.142
 6178W        W74572   9.208  10.084   0.006
 6179W        W74573  35.146   6.757   2.869
 6180W        W74574   9.884  24.143   1.887
 6181W        W74575  37.772   5.808   9.992
 6182W        W74576  31.181   5.389  13.372
 6183W        W74577  42.041  29.158   4.650
 6184W        W74578  31.161  26.021  11.745
 6185W        W74579   9.768   6.753   2.649
 6186W        W74580  10.058   3.241   3.125
 6187W        W74581  23.018  27.554  12.796
 6188W        W74582   2.177   2.288   1.734
 6189W        W74583  20.751   1.185  13.550
 6190W        W74584  22.277  22.104  13.067
 6191W        W74585  19.724  32.775   3.377
 6192W        W74586   5.428   0.227   2.761
 6193W        W74587   9.639   3.410   3.358
 6194W        W74588  30.615  20.141   4.007
 6195W        W74589  42.940  41.027  14.522
 6196W        W74590  34.362  32.372  12.597
 6197W        W74591   7.418  30.443   0.061
 6198W        W74592   9.789  19.093   3.956
 6199W        W74593   8.246  24.011  11.613
 6200W        W74594  31.372  23.530   0.482
 6201W        W74595   7.663   9.265  13.104
 6202W        W74596  20.501  34.637  12.721
 6203W        W74597  41.983  17.823   2.759
 6204W        W74598  39.071  25.700  11.245
 6205W        W74599   3.256  20.818   2.715
 6206W        W74600   2.783  19.263   2.345
 6207W        W74601  28.427  13.349   3.989
 6208W        W74602  11.252  33.067   0.689
 6209W        W74603  18.614   5.419  14.451
 6210W        W74604   8.817  37.969  11.600
 6211W        W74605  43.363  36.381  10.938
 6212W        W74606  43.903  14.211   0.047
 6213W        W74607  32.138  12.596  13.828
 6214W        W74608  11.643  28.504  12.588
 6215W        W74609   1.483  22.283  12.098
 6216W        W74610   2.976  13.513  11.817
 6217W        W74611  38.818  24.112   1.926
 6218W        W74612  23.292  33.417  11.681
 6219W        W74613  28.160  18.948   1.492
 6220W        W74614  10.386   3.210   4.484
 6221W        W74615  17.118  24.676  12.764
 6222W        W74616   9.696  34.000   0.378
 6223W        W74617  38.161   0.705  14.118
 6224W        W74618  25.216  41.533   1.765
 6225W        W74619  26.475  15.277   2.241
 6226W        W74620   9.716   8.526   0.161
 6227W        W74621  39.978  19.773   1.262
 6228W        W74622  11.219  11.821   0.259
 6229W        W74623  11.800  27.388  13.841
 6230W        W74624  40.035  29.418   1.248
 6231W        W74625  16.831  26.045  13.049
 6232W        W74626   6.722  11.305  13.934
 6233W        W74627  11.583  42.700   2.464
 6234W        W74628  39.581  16.066   4.347
 6235W        W74629  34.956  34.417   0.631
 6236W        W74630  17.550  10.240  10.527
 6237W        W74631  44.175  31.952   1.239
 6238W        W74632  14.786   4.382   5.155
 6239W        W74633  33.449  42.452   4.205
 6240W        W74634   1.208  12.553   3.127
 6241W        W74635  26.565  31.972  11.582
 6242W        W74636  21.757  18.177  11.477
 6243W        W74637  35.068  24.539  12.477
 6244W        W74638  30.341  12.885   0.869
 6245W        W74639   9.919  25.661  10.143
 6246W        W74640  18.205  40.012  14.106
 6247W        W74641  43.027  43.368   3.204
 6248W        W74642  12.750   3.680   0.402
 6249W        W74643  19.060   7.865   4.612
 6250W        W74644  10.425  18.385  10.328
 6251W        W74645   9.720  15.346   0.752
 6252W        W74646  14.879  13.071   4.528
 6253W        W74647  38.560  36.143  11.672
 6254W        W74648  24.264  33.154  11.081
 6255W        W74649  20.298  14.675  14.976
 6256W        W74650  16.835  27.028   4.556
 6257W        W74651  44.499   7.499  10.871
 6258W        W74652   7.828  40.408  11.855
 6259W        W74653  23.816  31.960  11.470
 6260W        W74654  44.854  16.852  12.285
 6261W        W74655  43.305  21.490  12.985
 6262W        W74656   1.986  13.659   3.612
 6263W        W74657  28.771  17.632   4.036
 6264W        W74658  40.017  31.487   1.757
 6265W        W74659  26.909  25.668  13.280
 6266W        W74660  42.520   7.437   0.474
 6267W        W74661  16.610  15.754  12.428
 6268W        W74662  15.514  25.524   0.775
 6269W        W74663  27.207  33.547   4.564
 6270W        W74664  35.520   1.218  13.757
 6271W        W74665  33.570  29.977  13.836
 6272W        W74666  30.571  16.206  10.722
 6273W        W74667  18.818  36.151  14.055
 6274W        W74668   9.784  38.700  14.495
 6275W        W74669  16.754  33.504  10.692
 6276W        W74670  44.139  31.108   4.484
 6277W        W74671  18.148  26.567  14.326
 6278W        W74672   0.797  42.536  11.036
 6279W        W74673   0.915   4.711   0.941
 6280W        W74674  37.644  29.685  11.766
 6281W        W74675  24.147  37.069  11.564
 6282W        W74676  36.694  22.446  11.597
 6283W        W74677  14.081  16.362  14.470
 6284W        W74678   4.738  19.692   1.401
 6285W        W74679   4.637  16.933   0.394
 6286W        W74680  37.350   4.805   3.713
 6287W        W74681  25.250  35.525  14.310
 6288W        W74682  36.122  38.411   2.752
 6289W        W74683  29.616   6.438  11.633
 6290W        W74684  14.089   7.224  14.296
 6291W        W74685  42.763  20.316   3.889
 6292W        W74686  12.802  12.716  11.738
 6293W        W74687  20.991  34.331  10.748
 6294W        W74688  38.470  22.629  14.470
 6295W        W74689  38.130  13.043   4.448
 6296W        W74690  43.916  27.692   0.296
 6297W        W74691  39.528   1.751  14.926
 6298W        W74692   4.638   5.713   2.844
 6299W        W74693   9.642  33.561  10.792
 6300W        W74694  40.364   5.623  14.894
 6301W        W74695  31.541  24.964   3.074
 6302W        W74696   2.987  11.308   4.898
 6303W        W74697  20.920  28.568   4.106
 6304W        W74698   1.383  17.923   2.656
 6305W        W74699  21.341  25.279  11.085
 6306W        W74700  15.283  35.501  12.195
 6307W        W74701   3.384   7.902   0.240
 6308W        W74702  28.269  39.370  12.491
 6309W        W74703   8.206  41.233  12.031
 6310W        W74704   6.395  23.000   0.440
 6311W        W74705   0.284  23.603  11.238
 6312W        W74706  27.619  23.481   1.400
 6313W        W74707  12.722  12.017  14.414
 6314W        W74708  24.948  37.864   3.279
 6315W        W74709  11.866  42.017   3.347
 6316W        W74710  27.169  17.850  11.465
 6317W        W74711  43.219  31.840  14.915
 6318W        W74712  27.395  40.446   4.129
 6319W        W74713   3.401  18.675   1.371
 6320W        W74714   9.811  39.560   2.289
 6321W        W74715  33.821  27.447  12.013
 6322W        W74716   3.007  36.276   3.171
 6323W        W74717  28.711  31.186  14.701
 6324W        W74718  37.861  15.824   2.288
 6325W        W74719  44.330  26.808   4.299
 6326W        W74720  41.009   1.843  11.877
 6327W        W74721  10.699   7.175  13.844
 6328W        W74722  37.667  36.455   4.694
 6329W        W74723  23.997   8.166  10.710
 6330W        W74724  20.270   7.160  13.949
 6331W        W74725  11.330   3.667   2.814
 6332W        W74726   5.720  44.389   2.579
 6333W        W74727  41.001   4.350   2.299
 6334W        W74728  19.618  24.119  12.742
 6335W        W74729  34.205  29.047   3.253
 6336W        W74730  25.426  38.505   1.043
 6337W        W74731  44.087  22.183  12.900
 6338W        W74732  10.809  27.216   0.401
 6339W        W74733  20.928  35.431  10.843
 6340W        W74734  44.266  38.053  12.435
 6341W        W74735  11.815  19.504  14.523
 6342W        W74736  22.732  28.190   3.310
 6343W        W74737  14.530  37.624   2.213
 6344W        W74738  35.590  22.232   3.522
 6345W        W74739  14.871  33.222   2.396
 6346W        W74740  13.900   5.339   2.414
 6347W        W74741   8.368   0.415   3.968
 6348W        W74742  33.491  28.983  11.555
 6349W        W74743  41.807  23.981  13.852
 6350W        W74744  36.072   2.295  10.738
 6351W        W74745   1.526   6.030   3.648
 6352W        W74746  29.432   7.959   1.321
 6353W        W74747  11.438  27.938   1.719
 6354W        W74748  17.761   5.641  11.720
 6355W        W74749  35.815  32.276  12.543
 6356W        W74750  25.998   2.547   2.216
 6357W        W74751  21.154  24.172   3.767
 6358W        W74752   5.869   5.263   5.100
 6359W        W74753   6.820  12.149  13.966
 6360W        W74754  23.668  26.921   1.391
 6361W        W74755  13.094  13.414  13.965
 6362W        W74756  14.289   3.282   2.960
 6363W        W74757   2.011  26.732   3.257
 6364W        W74758  10.084  44.208  13.122
 6365W        W74759  15.240  31.904   1.852
 6366W        W74760  40.297   5.470  14.373
 6367W        W74761  42.396  26.913  12.094
 6368W        W74762   3.031  40.326   4.397
 6369W        W74763  33.528  27.211   0.695
 6370W        W74764  28.849  16.990   3.591
 6371W        W74765  41.304  31.889  12.487
 6372W        W74766  33.585  33.407  11.480
 6373W        W74767  17.369   1.277   0.729
 6374W        W74768  39.406  38.509   3.898
 6375W        W74769   5.718  35.033   4.543
 6376W        W74770  34.874  19.808   2.404
 6377W        W74771  18.678   0.042   1.371
 6378W        W74772  18.370  24.151   4.191
 6379W        W74773  40.972  24.402  12.466
 6380W        W74774  36.059  27.904  10.762
 6381W        W74775  14.654  22.632   0.909
 6382W        W74776  12.395  24.170   2.857
 6383W        W74777  43.539  30.893  13.092
 6384W        W74778  11.410  11.132   4.305
 6385W        W74779  11.247   7.237  13.501
 6386W        W74780   0.712  40.412   0.036
 6387W        W74781  18.550  29.704   2.252
 6388W        W74782   9.400  35.016   1.768
 6389W        W74783  23.486   1.973  13.652
 6390W        W74784  37.138  20.292   3.230
 6391W        W74785  37.259   8.845   4.218
 6392W        W74786  12.863   4.362   2.311
 6393W        W74787  25.058  21.520  11.236
 6394W        W74788  32.573  20.326   3.672
 6395W        W74789  28.355  18.746   0.326
 6396W        W74790  13.196   4.654   1.417
 6397W        W74791   2.939   6.465   2.794
 6398W        W74792  23.231  11.385   2.937
 6399W        W74793  25.601  11.666  14.273
 6400W        W74794  30.368  34.905  12.313
 6401W        W74795  14.374  32.150   2.249
 6402W        W74796  26.439  44.870   3.108
 6403W        W74797   9.620  18.536   1.671
 6404W        W74798   3.329  23.649  13.496
 6405W        W74799  36.898   5.260   4.319
 6406W        W74800  18.209   9.342  11.748
 6407W        W74801   9.997   3.235  12.111
 6408W        W74802  16.345  39.866   0.894
 6409W        W74803  16.287  43.295  12.284
 6410W        W74804  14.235  13.380   3.588
 6411W        W74805  25.840  35.526   3.733
 6412W        W74806  40.248  21.523  13.051
 6413W        W74807   3.727  14.852   1.388
 6414W        W74808  29.447  23.432  12.966
 6415W        W74809  24.337  25.574   4.146
 6416W        W74810   1.204  11.373   0.696
 6417W        W74811  30.071  35.236  12.050
 6418W        W74812  32.515   0.967  13.113
 6419W        W74813   7.098  39.374  13.044
 6420W        W74814  16.937   5.682  10.842
 6421W        W74815  39.979  40.933  12.341
 6422W        W74816  22.410  14.367   3.231
 6423W        W74817   2.854   0.033   3.558
 6424W        W74818   9.399   0.303  10.415
 6425W        W74819  16.087   1.685   2.284
 6426W        W74820  34.547  32.508   3.326
 6427W        W74821  38.367  26.105   3.904
 6428W        W74822  33.559  12.908   1.243
 6429W        W74823  24.133  44.863   5.459
 6430W        W74824  30.988  28.899   3.235
 6431W        W74825   9.292   0.052   1.238
 6432W        W74826  15.847   9.796   0.541
 6433W        W74827  13.634  27.534  11.143
 6434W        W74828  28.541  12.364   3.216
 6435W        W74829   3.306  27.649   0.968
 6436W        W74830  22.633   1.039  13.632
 6437W        W74831   8.643  12.347  11.072
 6438W        W74832  24.305  22.600   0.862
 6439W        W74833   9.488  38.410   1.511
 6440W        W74834   5.144  28.119  14.729
 6441W        W74835   3.173   8.798   4.951
 6442W        W74836   8.198  19.981   3.093
 6443W        W74837  11.754  38.570  11.746
 6444W        W74838  17.195  14.802  13.259
 6445W        W74839  39.485  39.133   1.817
 6446W        W74840  25.203  26.086   0.062
 6447W        W74841  39.699  43.378   0.819
 6448W        W74842  22.256  20.763  13.076
 6449W        W74843  10.335   9.037  13.471
 6450W        W74844   5.201  14.404   3.086
 6451W        W74845  25.396   7.610   3.129
 6452W        W74846   6.757  24.582   3.995
 6453W        W74847  32.430  36.755  11.984
 6454W        W74848  25.436  27.676   2.287
 6455W        W74849  17.569  38.217   1.751
 6456W        W74850   9.774  41.739  12.626
 6457W        W74851  30.650  16.802   3.198
 6458W        W74852   4.183   8.201   3.725
 6459W        W74853  13.815  22.396   0.429
 6460W        W74854  12.578  19.191  14.771
 6461W        W74855  12.691  20.029  14.194
 6462W        W74856  37.303  26.109   1.743
 6463W        W74857   4.963  11.977  10.748
 6464W        W74858  23.372  37.040   3.504
 6465W        W74859   3.882  26.055   4.266
 6466W        W74860  11.684  12.693   4.513
 6467W        W74861  18.580  10.583   2.705
 6468W        W74862  44.196  15.761   3.662
 6469W        W74863  36.511  27.660   3.944
 6470W        W74864  21.177  36.841  12.138
 6471W        W74865  23.221  38.846  12.648
 6472W        W74866  14.991  43.001  11.839
 6473W        W74867  38.387  15.641  14.726
 6474W        W74868  19.513  13.777   4.965
 6475W        W74869  20.221   7.154   3.345
 6476W        W74870  39.519  10.616  12.093
 6477W        W74871  33.484  14.072  13.647
 6478W        W74872  10.625  18.667  12.838
 6479W        W74873   3.507  16.566  10.083
 6480W        W74874   7.377  12.758   1.376
 6481W        W74875   8.095  19.417  10.466
 6482W        W74876  18.743  15.705   4.650
 6483W        W74877  18.527  18.138  13.943
 6484W        W74878  37.532  30.821  12.573
 6485W        W74879  15.403  15.604   0.264
 6486W        W74880   0.857  31.478  11.353
 6487W        W74881  22.192   5.709  12.939
 6488W        W74882  21.256  16.918   2.337
 6489W        W74883   1.513  20.190  12.013
 6490W        W74884  39.966  41.076  13.931
 6491W        W74885  12.531  43.180  13.930
 6492W        W74886   0.036  28.793  12.370
 6493W        W74887  34.958  31.932  14.785
 6494W        W74888   6.653  15.973  14.444
 6495W        W74889  39.057  31.546  13.802
 6496W        W74890  36.634  29.367   4.889
 6497W        W74891  34.541  17.208  14.832
 6498W        W74892   1.502  16.246  10.829
 6499W        W74893  14.259  33.650   1.858
 6500W        W74894  18.837   3.312   2.370
 6501W        W74895   2.841  34.477  10.514
 6502W        W74896   1.858  23.794   3.187
 6503W        W74897  41.530  16.218  11.540
 6504W        W74898  40.948  34.698   2.759
 6505W        W74899  36.083  36.847  11.247
 6506W        W74900  21.031   2.597  11.609
 6507W        W74901  11.187  16.238   0.350
 6508W        W74902  19.239  14.949   0.375
 6509W        W74903   3.911  28.716   0.922
 6510W        W74904   0.300  17.267  10.695
 6511W        W74905  43.547   7.459   0.243
 6512W        W74906   7.313  21.080   1.242
 6513W        W74907   7.547  17.171   2.802
 6514W        W74908   4.420  28.020  13.430
 6515W        W74909  37.446  19.088   2.278
 6516W        W74910  27.027   7.670   1.766
 6517W        W74911  40.702   7.861   1.713
 6518W        W74912   2.734  37.338  11.992
 6519W        W74913  23.158  22.087  11.280
 6520W        W74914  37.354  21.590   0.968
 6521W        W74915   4.385  17.789   3.938
 6522W        W74916  31.648   0.843  14.924
 6523W        W74917  25.081  29.631   2.492
 6524W        W74918  16.673  26.149  10.789
 6525W        W74919  24.202  23.732  14.087
 6526W        W74920  26.605  20.330  10.801
 6527W        W74921  24.113  25.218  11.480
 6528W        W74922  25.990  17.681  11.680
 6529W        W74923  37.108  34.831   4.183
 6530W        W74924  43.195  10.880   3.297
 6531W        W74925  39.054  36.301   4.862
 6532W        W74926  15.295  14.551   0.118
 6533W        W74927   0.621  19.834   2.165
 6534W        W74928   1.922  15.506  10.822
 6535W        W74929   7.428  28.611  10.996
 6536W        W74930  24.996  42.792   4.255
 6537W        W74931  10.700  20.542  10.599
 6538W        W74932  21.101  29.278   4.872
 6539W        W74933   8.115  27.735   4.162
 6540W        W74934  35.925  38.244   4.125
 6541W        W74935  17.177  22.385  13.468
 6542W        W74936  22.124   7.391  11.527
 6543W        W74937   6.889   5.148  12.487
 6544W        W74938  31.360  42.809  14.477
 6545W        W74939  18.121  18.712  13.399
 6546W        W74940  36.105  41.168   3.297
 6547W        W74941   4.264  32.527  14.302
 6548W        W74942  27.196  39.057   1.039
 6549W        W74943  41.536  40.758   2.812
 6550W        W74944  25.636  31.047   0.833
 6551W        W74945  34.384  28.585   0.186
 6552W        W74946  17.445  17.757  13.415
 6553W        W74947  10.872  11.183  14.734
 6554W        W74948  10.199  33.800   0.430
 6555W        W74949  39.065  36.874   0.867
 6556W        W74950  41.278  43.838   0.481
 6557W        W74951  11.899  23.125   1.933
 6558W        W74952  32.477  30.629   3.232
 6559W        W74953  27.712  43.319   3.186
 6560W        W74954  40.651  25.271  12.877
 6561W        W74955  13.727  11.838  13.157
 6562W        W74956  24.462  11.587  12.884
 6563W        W74957  38.084  38.055  10.712
 6564W        W74958  22.773  39.435  11.959
 6565W        W74959  44.749   0.051  11.061
 6566W        W74960  27.625   3.174  12.399
 6567W        W74961  24.438  42.516   0.395
 6568W        W74962  41.863  32.625   1.147
 6569W        W74963  19.919  20.300   2.215
 6570W        W74964  19.751   3.199   5.197
 6571W        W74965  28.696  41.304  13.181
 6572W        W74966  28.618   1.890  14.384
 6573W        W74967   9.889  41.596   2.358
 6574W        W74968  23.114  32.087   4.741
 6575W        W74969  15.292  26.488   1.185
 6576W        W74970  32.466  16.772  12.844
 6577W        W74971  22.267  27.409  14.679
 6578W        W74972  42.461   7.169   3.283
 6579W        W74973   5.266  14.913   0.411
 6580W        W74974   5.842  11.169  10.896
 6581W        W74975  27.137  37.752  12.077
 6582W        W74976  17.025  31.486  10.365
 6583W        W74977  41.272  43.289   2.855
 6584W        W74978  42.015  16.510   0.508
 6585W        W74979   0.602  44.935   1.020
 6586W        W74980   0.008  37.265  14.916
 6587W        W74981  38.780  15.855   4.917
 6588W        W74982   7.779  37.557   0.712
 6589W        W74983   7.217  23.423   9.644
 6590W        W74984  19.290   2.377  13.865
 6591W        W74985  44.341  10.509  14.029
 6592W        W74986  40.496  14.666   2.443
 6593W        W74987  12.832  20.747  10.539
 6594W        W74988   0.917  18.864   1.872
 6595W        W74989   9.148  11.750  14.337
 6596W        W74990  10.267  42.453   0.806
 6597W        W74991  32.139  31.617   2.664
 6598W        W74992  14.774  34.596   2.802
 6599W        W74993   1.761   3.368   3.557
 6600W        W74994  16.027  27.801  11.048
 6601W        W74995  36.001  25.268   0.477
 6602W        W74996   8.041  15.088  10.628
 6603W        W74997   1.418  30.972  14.778
 6604W        W74998  37.649  20.256   3.899
 6605W        W74999  22.555  40.963  12.574
 6606W        W75000  21.222  16.300   1.746
 6607W        W75001   0.069   3.917   0.828
 6608W        W75002  39.791  15.791  10.790
 6609W        W75003  33.025  14.566   4.475
 6610W        W75004   7.796  11.900  14.628
 6611W        W75005  31.679  37.830   0.354
 6612W        W75006  16.882  23.047  11.590
 6613W        W75007  33.467  39.469  10.927
 6614W        W75008  40.277   1.832   3.230
 6615W        W75009  41.902  38.553   1.645
 6616W        W75010  17.538  20.723  11.074
 6617W        W75011   7.453   6.453  11.574
 6618W        W75012  17.352  21.590  12.025
 6619W        W75013   4.766  28.679  13.157
 6620W        W75014  11.371  30.583  11.514
 6621W        W75015  30.499  23.864   0.241
 6622W        W75016  11.302  17.122   2.903
 6623W        W75017  37.271  39.765  13.782
 6624W        W75018  17.055  40.179  12.458
 6625W        W75019  15.016  38.826   4.264
 6626W        W75020  17.056  30.491   3.885
 6627W        W75021  30.915  18.111   0.860
 6628W        W75022  11.405  44.455   1.812
 6629W        W75023  27.140  25.568   3.907
 6630W        W75024   3.206  38.949  11.539
 6631W        W75025  43.456  14.396   0.258
 6632W        W75026  34.361  44.315   2.981
 6633W        W75027   4.001  20.063   1.380
 6634W        W75028   7.358   5.272  12.641
 6635W        W75029  20.515   9.607   1.361
 6636W        W75030   9.941  10.341   4.768
 6637W        W75031   4.688   7.115  10.742
 6638W        W75032  42.913  32.886  12.797
 6639W        W75033  17.608  21.597  14.009
 6640W        W75034  27.541  43.472  12.096
 6641W        W75035   4.592  12.275   3.777
 6642W        W75036  24.167  37.593   9.952
 6643W        W75037  20.605  41.718   4.138
 6644W        W75038  25.633  14.847  13.384
 6645W        W75039  36.826  39.337   3.695
 6646W        W75040  20.669  20.173   4.923
 6647W        W75041  34.660   4.320   2.750
 6648W        W75042  20.941  24.024   4.184
 6649W        W75043  31.796  19.774   2.721
 6650W        W75044   2.292   0.500  11.141
 6651W        W75045  13.301  14.109   0.440
 6652W        W75046  14.355   7.313  11.833
 6653W        W75047   9.665  18.321   0.199
 6654W        W75048  38.089  26.162  14.873
 6655W        W75049  34.306  17.895  10.613
 6656W        W75050  13.074  38.736   5.259
 6657W        W75051   0.931   0.335   2.653
 6658W        W75052  19.091  10.673   0.370
 6659W        W75053   8.000  11.739   3.653
 6660W        W75054   0.793  33.261   0.745
 6661W        W75055  31.374  37.993  14.939
 6662W        W75056   2.687   9.252  14.947
 6663W        W75057  29.122  35.437   2.675
 6664W        W75058  41.076  35.056   4.527
 6665W        W75059   4.951  38.878   1.147
 6666W        W75060  38.504  44.304   4.946
 6667W        W75061  33.657   8.719   2.266
 6668W        W75062  22.979  17.705   3.636
 6669W        W75063   9.078   5.284   2.005
 6670W        W75064  30.606  25.120   0.279
 6671W        W75065  25.219  26.055   4.145
 6672W        W75066  26.053   8.722  11.022
 6673W        W75067  36.581   7.162  13.017
 6674W        W75068  29.402  41.505   1.363
 6675W        W75069  15.809  16.213  13.438
 6676W        W75070  28.445  25.939   1.008
 6677W        W75071  25.610  11.856   2.785
 6678W        W75072  16.512  35.370  13.501
 6679W        W75073  33.684  39.014  14.163
 6680W        W75074  25.136  29.167   0.959
 6681W        W75075   7.176  26.729  13.319
 6682W        W75076  37.606  26.037  12.911
 6683W        W75077  29.382   3.904   0.456
 6684W        W75078   2.148  30.589  14.973
 6685W        W75079  21.478  42.445   3.614
 6686W        W75080  41.305  42.077   3.145
 6687W        W75081  28.271   7.345  14.832
 6688W        W75082  29.115  26.563  13.376
 6689W        W75083  27.214  29.398  13.849
 6690W        W75084  36.557  13.323   3.661
 6691W        W75085   1.839  44.756   2.808
 6692W        W75086   5.495  10.528  12.569
 6693W        W75087  18.967  10.462  14.472
 6694W        W75088  19.038   1.851   2.299
 6695W        W75089  33.161  34.870   1.439
 6696W        W75090   3.678  22.544   9.970
 6697W        W75091  34.636  31.057   0.327
 6698W        W75092   6.837  24.728   0.754
 6699W        W75093  13.245  23.314  11.268
 6700W        W75094  32.466  34.906  10.679
 6701W        W75095  16.904  11.270   2.825
 6702W        W75096  31.901  40.857  14.905
 6703W        W75097  10.331  37.842  13.366
 6704W        W75098  32.486  40.804   4.873
 6705W        W75099  44.956  29.462   4.553
 6706W        W75100   1.238   3.869  11.461
 6707W        W75101  34.558  14.260   0.433
 6708W        W75102  13.649   9.644  12.100
 6709W        W75103  17.351  17.761  11.141
 6710W        W75104  35.240  27.385   4.217
 6711W        W75105   4.453  16.170   3.201
 6712W        W75106  23.714  34.798  11.297
 6713W        W75107  33.675  12.741  11.158
 6714W        W75108   6.465  24.952  14.024
 6715W        W75109  31.121   5.131   2.437
 6716W        W75110  41.196  37.853  11.460
 6717W        W75111  43.417  21.385   5.118
 6718W        W75112   6.836  31.214  14.435
 6719W        W75113  21.235   7.797  14.835
 6720W        W75114  10.790  40.555  10.649
 6721W        W75115   8.154  39.420   1.510
 6722W        W75116  25.470   6.783  13.392
 6723W        W75117  28.406  24.666  12.841
 6724W        W75118   4.530  12.268  10.785
 6725W        W75119  44.312  12.708  10.867
 6726W        W75120   8.909  34.070  13.424
 6727W        W75121   4.407  22.706   3.262
 6728W        W75122  14.065  39.523  12.857
 6729W        W75123  13.117  37.873  12.894
 6730W        W75124  14.105  29.904   4.656
 6731W        W75125   3.410  18.299   3.644
 6732W        W75126  24.009   5.897   0.055
 6733W        W75127  32.443  35.300   3.093
 6734W        W75128  17.186  27.758   1.206
 6735W        W75129  26.629   9.723   5.204
 6736W        W75130  10.107  42.056  10.972
 6737W        W75131  14.555  27.463  14.840
 6738W        W75132  33.390  43.316   0.750
 6739W        W75133  37.388   1.292   4.669
 6740W        W75134  19.397   9.175   2.256
 6741W        W75135  23.567  37.374   2.677
 6742W        W75136   4.345  29.909   0.334
 6743W        W75137   4.469   1.849  11.978
 6744W        W75138  27.163  27.392  13.002
 6745W        W75139  13.308  28.320   3.732
 6746W        W75140   8.076   2.339  12.568
 6747W        W75141  41.906  30.374   3.010
 6748W        W75142   9.616  19.714  11.421
 6749W        W75143  39.293  14.286  14.491
 6750W        W75144  25.499  28.374  14.953
 6751W        W75145  20.799  41.558  10.932
 6752W        W75146  39.396  41.965  13.113
 6753W        W75147   7.675  19.344  11.998
 6754W        W75148  21.335   5.779  13.326
 6755W        W75149  39.895  15.906  12.684
 6756W        W75150  36.521   9.305  12.617
 6757W        W75151  24.260  42.648  14.294
 6758W        W75152  28.466  14.755  11.266
 6759W        W75153   0.976  41.496  11.108
 6760W        W75154  41.774  41.312   3.215
 6761W        W75155  14.698  38.348  12.056
 6762W        W75156  43.291  34.509  11.997
 6763W        W75157  25.656   6.800   3.766
 6764W        W75158  11.619   7.283  10.692
 6765W        W75159  28.477  40.883  13.369
 6766W        W75160  29.801  42.674  11.057
 6767W        W75161  25.942  43.766   1.724
 6768W        W75162  12.258  40.566   9.990
 6769W        W75163  26.797  17.281   0.381
 6770W        W75164  21.089  37.910  11.555
 6771W        W75165   9.119  20.965  14.314
 6772W        W75166  32.631  25.671   0.289
 6773W        W75167  15.209   6.679  10.804
 6774W        W75168  24.516  29.651   2.703
 6775W        W75169   7.012  21.591  13.623
 6776W        W75170   9.662  16.523   2.372
 6777W        W75171  38.007  27.876  10.526
 6778W        W75172  35.031  30.654   0.313
 6779W        W75173  32.653  39.092   4.230
 6780W        W75174   4.763  40.725   1.354
 6781W        W75175  35.240  14.624   1.031
 6782W        W75176  30.450  26.454   0.881
 6783W        W75177  44.188  24.261  13.712
 6784W        W75178  14.034  27.545  13.856
 6785W        W75179   7.479  24.593   1.660
 6786W        W75180  34.644   2.001  12.496
 6787W        W75181  34.487  36.385   2.087
 6788W        W75182  10.175  27.686  13.432
 6789W        W75183  33.183  11.473   3.393
 6790W        W75184  13.382   4.318   2.362
 6791W        W75185   6.179  44.303  12.510
 6792W        W75186  10.291  31.375   1.539
 6793W        W75187  31.953  16.633  13.718
 6794W        W75188  25.453  13.174   0.777
 6795W        W75189  32.449  12.137  11.123
 6796W        W75190   4.517  30.960   1.263
 6797W        W75191  41.451  44.261   0.724
 6798W        W75192  19.790  23.579   0.831
 6799W        W75193  38.317  36.803   1.933
 6800W        W75194  34.179  21.135   3.727
 6801W        W75195  24.587   9.690   0.597
 6802W        W75196   2.745   9.392  13.333
 6803W        W75197  20.046   2.723  11.534
 6804W        W75198  17.118  42.780   0.295
 6805W        W75199  23.852   3.479  10.550
 6806W        W75200  30.498   7.779  12.948
 6807W        W75201  20.119  27.398   3.555
 6808W        W75202   9.221  41.700   3.329
 6809W        W75203  43.567  18.436   4.836
 6810W        W75204  25.650  26.530   3.744
 6811W        W75205  12.387  20.804   2.766
 6812W        W75206   0.031  23.045  13.434
 6813W        W75207  31.294  35.959  13.318
 6814W        W75208  10.390   7.853  14.290
 6815W        W75209   4.876  13.866  14.903
 6816W        W75210  37.285  24.342  11.019
 6817W        W75211   2.190  37.743  13.667
 6818W        W75212  27.164  27.148   3.205
 6819W        W75213   1.754  43.546   0.332
 6820W        W75214  43.701   9.233   3.759
 6821W        W75215  43.392  41.825  14.471
 6822W        W75216  11.415  18.000  14.772
 6823W        W75217  28.048  15.953   3.736
 6824W        W75218  37.651   5.929  11.572
 6825W        W75219  34.012  44.871  10.803
 6826W        W75220  34.920  16.867  11.159
 6827W        W75221  37.391   6.260   4.303
 6828W        W75222   4.300  17.313   2.053
 6829W        W75223  44.071  40.354  13.550
 6830W        W75224   2.191  41.293  12.011
 6831W        W75225   7.674   8.735  13.904
 6832W        W75226  18.461  19.320   9.771
 6833W        W75227   6.351  10.228   4.001
 6834W        W75228  22.888  44.662  13.264
 6835W        W75229  22.835  32.108   1.137
 6836W        W75230  10.175  28.152   4.657
 6837W        W75231  15.195  16.618  13.934
 6838W        W75232  32.580   1.327   1.874
 6839W        W75233  43.738   8.794   0.450
 6840W        W75234  15.927  37.427  14.494
 6841W        W75235  31.952  14.479   3.767
 6842W        W75236  24.584   7.074  11.954
 6843W        W75237  26.685   8.288  14.292
 6844W        W75238   7.766  28.006   3.760
 6845W        W75239   5.870   6.255  13.938
 6846W        W75240  35.916  42.328  13.821
 6847W        W75241  24.540  22.831   0.376
 6848W        W75242  28.247  13.061   0.293
 6849W        W75243   7.615  13.408  11.952
 6850W        W75244  21.396  38.452  12.740
 6851W        W75245  33.058   2.945   4.758
 6852W        W75246  10.614  38.835  14.388
 6853W        W75247   1.454  44.516  10.716
 6854W        W75248  17.791   8.310  13.878
 6855W        W75249   8.280   7.440   1.907
 6856W        W75250   0.462  19.241   0.225
 6857W        W75251  23.642  15.334  13.072
 6858W        W75252  40.578  22.306   0.921
 6859W        W75253  25.257   9.145   0.918
 6860W        W75254   5.903  19.851  13.188
 6861W        W75255  25.195   3.911   2.213
 6862W        W75256   7.638  38.818  12.396
 6863W        W75257  29.427  21.040   1.452
 6864W        W75258  25.285   3.852  13.691
 6865W        W75259  31.567  22.593  11.458
 6866W        W75260  13.198  40.531  13.409
 6867W        W75261   0.351  21.265   0.452
 6868W        W75262  24.625  16.424   3.165
 6869W        W75263  30.141  43.289  11.681
 6870W        W75264  35.284  18.641   2.714
 6871W        W75265  37.892   8.963  11.606
 6872W        W75266  43.833   5.272  13.112
 6873W        W75267  41.144   3.747  11.076
 6874W        W75268  17.524  26.000  14.376
 6875W        W75269  38.116  38.372   0.316
 6876W        W75270  29.215  24.116  11.578
 6877W        W75271  31.267  24.061  13.192
 6878W        W75272  35.971   1.525   2.659
 6879W        W75273  10.796  11.326   1.952
 6880W        W75274   6.333  37.550   5.143
 6881W        W75275   1.942  13.321  14.951
 6882W        W75276  33.029  30.731   4.419
 6883W        W75277   5.518  40.101   2.429
 6884W        W75278  10.796  11.864  11.349
 6885W        W75279   5.942  33.724   4.141
 6886W        W75280  11.181  33.036  10.900
 6887W        W75281   2.907  44.992   2.705
 6888W        W75282   1.801   4.425  13.863
 6889W        W75283  17.309  43.353   2.468
 6890W        W75284  34.405   7.680  10.772
 6891W        W75285  34.531  22.735  10.655
 6892W        W75286   8.219  29.413  14.524
 6893W        W75287  30.108  33.320   3.709
 6894W        W75288  26.654  39.524   3.084
 6895W        W75289  27.209   3.745  14.014
 6896W        W75290   8.272  24.552   3.647
 6897W        W75291  41.482  33.887  13.809
 6898W        W75292  36.976   5.936  10.806
 6899W        W75293  34.666   0.906  11.187
 6900W        W75294   0.312  23.745  13.207
 6901W        W75295  22.685  42.014   0.300
 6902W        W75296  33.928   2.843   3.787
 6903W        W75297   3.760   3.830   4.055
 6904W        W75298  23.543  40.887  12.597
 6905W        W75299  32.945  17.301   4.330
 6906W        W75300   4.164   2.286  13.329
 6907W        W75301  10.111  32.982   2.764
 6908W        W75302  24.751   3.844  13.492
 6909W        W75303  29.368   2.458   0.673
 6910W        W75304  36.418  41.389  14.920
 6911W        W75305  10.980  27.682  14.506
 6912W        W75306  10.960  32.242   0.862
 6913W        W75307   9.393  22.749  12.630
 6914W        W75308  20.930  39.432   2.717
 6915W        W75309  23.976  24.672   0.797
 6916W        W75310  20.019  10.408  12.786
 6917W        W75311  31.451  31.456  14.937
 6918W        W75312  39.035  16.707   0.307
 6919W        W75313  24.016  35.539   0.807
 6920W        W75314   8.932  26.080   1.796
 6921W        W75315   5.632  24.754  11.244
 6922W        W75316   4.987   0.901   4.736
 6923W        W75317  33.722  43.342  12.417
 6924W        W75318  32.045  14.673  12.679
 6925W        W75319   0.553   3.817  13.461
 6926W        W75320   6.929  39.611   3.277
 6927W        W75321  15.229  15.031  13.405
 6928W        W75322  43.096  43.025   2.737
 6929W        W75323  17.503   7.835  14.462
 6930W        W75324  11.516   5.349  12.187
 6931W        W75325  35.936  35.104  11.313
 6932W        W75326   1.469  39.842   1.115
 6933W        W75327  41.111  22.629   4.459
 6934W        W75328   2.390  22.209   1.544
 6935W        W75329  17.148  36.021   5.092
 6936W        W75330   8.659  35.513   0.794
 6937W        W75331  25.761  41.082  12.046
 6938W        W75332  25.764   3.682  13.649
 6939W        W75333  41.784  24.635  11.199
 6940W        W75334  42.475   2.468  12.020
 6941W        W75335   9.218   7.248   1.193
 6942W        W75336  37.256  26.409  13.134
 6943W        W75337  18.220   5.624   2.576
 6944W        W75338  35.409  15.908   0.407
 6945W        W75339   7.332  10.450   3.691
 6946W        W75340  16.223   1.299   3.658
 6947W        W75341  10.974  35.083  11.052
 6948W        W75342  22.513  26.120   1.892
 6949W        W75343   4.398   3.527   1.438
 6950W        W75344   4.930  19.212  13.041
 6951W        W75345  28.402  17.104   2.818
 6952W        W75346  29.350  10.605  12.026
 6953W        W75347  39.235  13.667   2.865
 6954W        W75348  25.464  13.929   2.315
 6955W        W75349  32.816   9.390  12.650
 6956W        W75350   7.861  23.099  12.561
 6957W        W75351  17.638  37.831   4.349
 6958W        W75352  26.530  17.090   2.755
 6959W        W75353   9.924  16.485  11.740
 6960W        W75354  24.795   7.058  12.495
 6961W        W75355  20.496  33.935  10.668
 6962W        W75356  30.567  19.619   1.625
 6963W        W75357  31.255  44.093   0.430
 6964W        W75358   8.651  28.481  12.979
 6965W        W75359  28.960  40.278  13.269
 6966W        W75360  38.708  17.978   0.375
 6967W        W75361  24.568   5.979   1.909
 6968W        W75362  38.891  22.520  11.645
 6969W        W75363  23.069   3.124  12.104
 6970W        W75364   6.314  22.710  13.424
 6971W        W75365  40.297  20.753  12.112
 6972W        W75366  29.447  27.561  12.166
 6973W        W75367  23.860  22.100  13.975
 6974W        W75368  23.717  24.923  11.567
 6975W        W75369  17.716  12.273  12.320
 6976W        W75370  30.133  36.993   3.147
 6977W        W75371  14.033   8.695   0.846
 6978W        W75372  43.320  19.555   2.209
 6979W        W75373  23.200   0.153   2.912
 6980W        W75374  22.156  38.284  10.729
 6981W        W75375  44.076  39.491   4.853
 6982W        W75376  16.257  27.609  10.575
 6983W        W75377  16.779  24.229  13.543
 6984W        W75378  43.818  27.677   4.351
 6985W        W75379  22.481  30.503   4.830
 6986W        W75380   0.992  35.813  13.548
 6987W        W75381  19.465  24.476  13.071
 6988W        W75382   9.061   9.521   4.254
 6989W        W75383  38.878   8.573  11.642
 6990W        W75384  13.942  31.851   2.241
 6991W        W75385  15.329  36.734  11.605
 6992W        W75386   3.040  36.354  12.154
 6993W        W75387  38.504  27.405  11.147
 6994W        W75388  27.376  25.198   3.082
 6995W        W75389  30.075  37.768  11.200
 6996W        W75390  28.802  38.886  13.142
 6997W        W75391   1.837  33.504   2.574
 6998W        W75392  22.491  35.212   2.654
 6999W        W75393  42.662  43.142   4.571
 7000W        W75394  15.741  18.081  12.046
 7001W        W75395  35.072  14.330  14.722
 7002W        W75396  13.096  15.142   0.892
 7003W        W75397  25.915  22.098   0.389
 7004W        W75398  38.039  40.770   2.802
 7005W        W75399  23.477  30.693  11.871
 7006W        W75400   1.761  11.339   4.129
 7007W        W75401  23.562  16.238  12.992
 7008W        W75402  34.604   6.379  11.930
 7009W        W75403  18.314  41.964   0.994
 7010W        W75404  33.391  13.703  12.105
 7011W        W75405  36.142  34.852   3.639
 7012W        W75406  24.888  28.504   2.802
 7013W        W75407  23.537   6.238  11.464
 7014W        W75408  39.465   7.378  11.161
 7015W        W75409   1.378  41.842  14.051
 7016W        W75410  43.716  44.915  14.244
 7017W        W75411  35.278  30.107  10.668
 7018W        W75412  25.626  30.247  11.237
 7019W        W75413   6.379  18.742   2.560
 7020W        W75414  34.997   9.433  10.866
 7021W        W75415  34.702   4.204  11.592
 7022W        W75416  24.703  43.782  12.026
 7023W        W75417   7.433  20.866  12.106
 7024W        W75418  41.268  31.137  10.723
 7025W        W75419  34.619  18.563  12.858
 7026W        W75420   6.650  33.191   4.557
 7027W        W75421  15.158  38.067  13.770
 7028W        W75422  29.496   5.534  11.534
 7029W        W75423  23.731  31.992   0.787
 7030W        W75424  36.077  32.842  13.579
 7031W        W75425  38.419   5.702   0.268
 7032W        W75426  43.005  25.621  13.534
 7033W        W75427   9.183   9.715  13.909
 7034W        W75428  31.650   6.229   2.380
 7035W        W75429   4.941  10.696  14.298
 7036W        W75430  28.729  29.373   1.253
 7037W        W75431  27.819  13.372  10.771
 7038W        W75432   6.694  33.673   3.803
 7039W        W75433   7.313   9.908   3.686
 7040W        W75434  11.552  39.937   3.662
 7041W        W75435  36.251  38.766  12.102
 7042W        W75436  29.369  10.118  13.940
 7043W        W75437  40.243   6.795  11.842
 7044W        W75438   3.260  25.239  11.710
 7045W        W75439  18.587  30.945  14.853
 7046W        W75440  15.645  41.286  10.797
 7047W        W75441   7.253  15.577  10.731
 7048W        W75442   5.475  17.010  10.978
 7049W        W75443  20.685  42.356   4.895
 7050W        W75444  21.819  32.678  13.619
 7051W        W75445  36.586  14.266  11.911
 7052W        W75446  22.949   4.143   4.538
 7053W        W75447  24.984  27.071   4.038
 7054W        W75448  26.751  14.813   4.901
 7055W        W75449  31.583   0.237   4.902
 7056W        W75450  14.950  13.660  13.052
 7057W        W75451  11.355  32.586   0.813
 7058W        W75452   1.921  36.066  10.769
 7059W        W75453  22.998  34.173   4.472
 7060W        W75454   9.131   4.211   5.291
 7061W        W75455  20.653  15.886   0.622
 7062W        W75456  16.197  23.116   4.784
 7063W        W75457   0.468  19.067  12.929
 7064W        W75458  31.618  32.684  14.590
 7065W        W75459  27.673   4.271   3.783
 7066W        W75460   0.357  22.287  13.304
 7067W        W75461   0.417  40.301   3.712
 7068W        W75462   5.916   8.347   1.167
 7069W        W75463  16.589   9.843  14.966
 7070W        W75464  23.737  30.095  14.928
 7071W        W75465  32.683   5.185   1.257
 7072W        W75466  36.692  34.895   2.875
 7073W        W75467  40.397  19.238   2.796
 7074W        W75468  25.003  33.904  14.072
 7075W        W75469  32.439   0.738   0.860
 7076W        W75470   3.848  20.480   3.911
 7077W        W75471   5.397  19.621  14.794
 7078W        W75472  44.242  37.003   0.641
 7079W        W75473  13.826   2.232  12.758
 7080W        W75474  43.193  22.693   1.689
 7081W        W75475  25.037  38.364  12.885
 7082W        W75476  16.950   8.435  12.870
 7083W        W75477  32.116  19.062   2.837
 7084W        W75478  31.449   9.014  11.596
 7085W        W75479  11.959  32.086   3.617
 7086W        W75480  13.678   5.279   0.760
 7087W        W75481  35.617   8.727  11.057
 7088W        W75482  23.888  16.287   2.412
 7089W        W75483  34.905   5.429  14.809
 7090W        W75484  42.412  39.977   0.203
 7091W        W75485  19.316  20.612  11.013
 7092W        W75486  41.116  24.588   1.936
 7093W        W75487  36.329  23.996   1.499
 7094W        W75488   8.943   8.979  12.430
 7095W        W75489   2.268  30.083  13.944
 7096W        W75490  25.821  37.835  10.828
 7097W        W75491   3.389   0.862  13.318
 7098W        W75492  44.832   6.194  10.337
 7099W        W75493  31.656  18.701   3.277
 7100W        W75494  41.689  21.555  12.186
 7101W        W75495  11.307  34.676   4.103
 7102W        W75496  16.910  34.614   0.519
 7103W        W75497  13.789   7.644   2.759
 7104W        W75498  26.909   1.280   4.341
 7105W        W75499  34.396  44.498   0.675
 7106W        W75500  44.521   3.635   4.683
 7107W        W75501  29.602  26.911   4.539
 7108W        W75502   0.682   1.750  13.472
 7109W        W75503   0.567  27.064  13.949
 7110W        W75504   1.316  35.594   1.663
 7111W        W75505  31.486   8.972  14.754
 7112W        W75506  43.526  28.548  13.528
 7113W        W75507  30.146  35.556   2.632
 7114W        W75508  26.500  24.865   0.366
 7115W        W75509  43.060  21.583   2.166
 7116W        W75510  11.564  44.418  12.595
 7117W        W75511  35.168  25.722  14.444
 7118W        W75512  18.333   7.606   9.898
 7119W        W75513  42.407  18.393  14.307
 7120W        W75514  10.260  37.334   1.111
 7121W        W75515  29.565  20.545  14.824
 7122W        W75516  18.708  20.978  11.798
 7123W        W75517  23.292  36.767  11.269
 7124W        W75518  25.601  29.209   1.268
 7125W        W75519  19.854   7.204   2.979
 7126W        W75520   2.663  35.993  11.530
 7127W        W75521   9.760  36.033   1.213
 7128W        W75522  44.635  15.208   1.256
 7129W        W75523  19.966   2.772   3.611
 7130W        W75524   2.992   0.494   0.766
 7131W        W75525   9.063  30.468   1.388
 7132W        W75526   1.053  38.347  11.050
 7133W        W75527   7.293  21.596   2.865
 7134W        W75528  14.407  29.526  12.078
 7135W        W75529  21.315  21.430  13.383
 7136W        W75530  12.802  42.826  10.599
 7137W        W75531  10.496   2.730  13.349
 7138W        W75532  18.397   9.147   2.460
 7139W        W75533  18.494   6.751  10.931
 7140W        W75534  23.158   2.495   4.701
 7141W        W75535   6.838  38.830  13.804
 7142W        W75536   6.271  44.935  10.784
 7143W        W75537  44.452  43.826   1.941
 7144W        W75538  19.159   1.268  11.695
 7145W        W75539  43.283   7.401   3.331
 7146W        W75540   5.410  13.225  13.358
 7147W        W75541  17.236  37.830   0.849
 7148W        W75542  11.340  20.094  14.776
 7149W        W75543  19.234   6.171  14.570
 7150W        W75544   7.139  41.089   4.826
 7151W        W75545  11.190  23.110  10.776
 7152W        W75546   2.457  13.491   0.205
 7153W        W75547  37.674   1.622  13.075
 7154W        W75548  10.763  40.009  14.020
 7155W        W75549  44.684  39.905  10.642
 7156W        W75550  14.009  34.513   3.000
 7157W        W75551   0.300  17.138   3.277
 7158W        W75552  35.095  44.348  12.093
 7159W        W75553  44.141  21.104  13.405
 7160W        W75554  36.502  11.609   0.344
 7161W        W75555  40.008  20.948   4.789
 7162W        W75556   6.968   9.745   1.189
 7163W        W75557   4.046  34.671  11.514
 7164W        W75558   5.359  15.576  11.225
 7165W        W75559  22.704   8.754   2.397
 7166W        W75560  43.103  21.093   4.759
 7167W        W75561  14.171   0.991   3.269
 7168W        W75562  18.656  41.625  11.044
 7169W        W75563  10.196  44.486  12.341
 7170W        W75564   0.321  16.781  10.913
 7171W        W75565  41.352  44.340  12.443
 7172W        W75566   1.232  21.105   3.300
 7173W        W75567  36.609  10.141  12.041
 7174W        W75568  35.592  40.592  14.949
 7175W        W75569  13.697   7.201  13.965
 7176W        W75570   1.545  26.905  11.654
 7177W        W75571  23.732  29.574  14.817
 7178W        W75572  27.395  31.550   0.030
 7179W        W75573  36.374  39.544   0.322
 7180W        W75574   2.165   4.444   2.731
 7181W        W75575  11.113  40.831   4.248
 7182W        W75576  33.030  31.958  14.534
 7183W        W75577  37.731  27.665   4.566
 7184W        W75578  36.575  14.317   1.168
 7185W        W75579  27.797  43.740  13.390
 7186W        W75580   6.449  15.815   1.108
 7187W        W75581  35.464  28.628  12.971
 7188W        W75582  32.915   3.072  13.470
 7189W        W75583  10.688  21.102  12.380
 7190W        W75584   6.849   2.358   3.194
 7191W        W75585  40.859  20.002  13.038
 7192W        W75586  43.920  35.094   2.886
 7193W        W75587  29.132  31.693   3.994
 7194W        W75588  10.464  37.181  12.883
 7195W        W75589  18.602   3.828  14.910
 7196W        W75590   1.944  34.210  13.990
 7197W        W75591   4.113  19.490  12.814
 7198W        W75592  20.010  16.954  13.248
 7199W        W75593  30.361   3.639   0.760
 7200W        W75594  43.021  33.643   3.725
 7201W        W75595  21.637   1.900  11.435
 7202W        W75596  41.378  19.850   3.670
 7203W        W75597  12.636   4.333  12.939
 7204W        W75598   5.639   5.172  14.470
 7205W        W75599   8.928  16.560  12.773
 7206W        W75600  14.540  36.384  11.699
 7207W        W75601  13.788   4.229  11.038
 7208W        W75602  40.448   5.249   0.772
 7209W        W75603  35.546  25.132   3.345
 7210W        W75604  30.569  26.003   4.185
 7211W        W75605  21.102  15.942  12.425
 7212W        W75606  10.270  25.327  10.790
 7213W        W75607  19.249   0.218   0.391
 7214W        W75608   3.091  24.778  12.081
 7215W        W75609  10.788  23.297   2.263
 7216W        W75610  35.440  39.871  14.769
 7217W        W75611  15.644   1.322  13.794
 7218W        W75612  14.030  20.167  12.534
 7219W        W75613   2.016  17.841  11.532
 7220W        W75614  25.189  19.816   4.405
 7221W        W75615  21.529  15.047  13.002
 7222W        W75616  41.290  32.132  11.604
 7223W        W75617  42.949  18.079   1.361
 7224W        W75618   8.396  34.348   3.801
 7225W        W75619  41.076  19.471  13.517
 7226W        W75620  29.595  39.478  13.422
 7227W        W75621  19.092  40.238  14.003
 7228W        W75622  12.161  14.597  12.584
 7229W        W75623  19.756  37.340  10.681
 7230W        W75624   3.339   3.510   4.151
 7231W        W75625  33.665  31.645   3.155
 7232W        W75626  30.573   7.384  11.676
 7233W        W75627  18.204  36.831  13.243
 7234W        W75628   5.005  29.533  13.652
 7235W        W75629  16.665  42.848   1.194
 7236W        W75630  37.094  13.790   1.877
 7237W        W75631  19.416  19.043   1.696
 7238W        W75632   4.092  29.408  14.018
 7239W        W75633  20.967   8.202   0.404
 7240W        W75634   4.861   4.300   1.338
 7241W        W75635   3.044  30.959  12.019
 7242W        W75636  31.710  28.569   3.389
 7243W        W75637  14.532  40.617  14.521
 7244W        W75638  44.527   5.868   3.146
 7245W        W75639  43.978   4.012   2.112
 7246W        W75640   7.945  24.913  14.045
 7247W        W75641  19.388  12.182   3.279
 7248W        W75642   4.175   2.200   4.578
 7249W        W75643   0.419  20.235   3.346
 7250W        W75644  31.428  15.549  12.549
 7251W        W75645  43.122  16.624  11.212
 7252W        W75646  18.603  43.918  11.158
 7253W        W75647  44.376  19.500  11.182
 7254W        W75648   3.152  15.985   1.794
 7255W        W75649  32.166   7.376  10.391
 7256W        W75650  21.140  41.388   1.316
 7257W        W75651   8.072  18.992   4.205
 7258W        W75652  20.529  19.572   4.241
 7259W        W75653  21.515  25.640  10.381
 7260W        W75654  14.594  30.203   2.592
 7261W        W75655  22.658  25.260  12.385
 7262W        W75656  40.837  20.770  13.404
 7263W        W75657   7.526  28.399  13.367
 7264W        W75658  36.526  17.259   0.427
 7265W        W75659   2.203  19.577   1.514
 7266W        W75660  26.146  38.891   4.537
 7267W        W75661  40.654   5.516  12.485
 7268W        W75662  27.825   8.135  11.084
 7269W        W75663  15.457  11.763   1.889
 7270W        W75664   3.716  11.304   0.894
 7271W        W75665  44.095  23.672  10.595
 7272W        W75666   7.747   2.400   0.652
 7273W        W75667   5.599   5.236   0.412
 7274W        W75668  19.147   1.995  13.472
 7275W        W75669  40.613  12.796  13.517
 7276W        W75670   9.752  28.546  11.626
 7277W        W75671  16.304  36.810  14.715
 7278W        W75672  33.325   6.961  10.345
 7279W        W75673  24.187  27.450  11.128
 7280W        W75674   6.437  31.459   0.715
 7281W        W75675  35.677  43.320  14.934
 7282W        W75676   0.077   7.836   4.503
 7283W        W75677  28.700  31.800   1.695
 7284W        W75678  10.324  29.137  12.564
 7285W        W75679  24.606  32.717  14.320
 7286W        W75680  33.077  13.514  13.402
 7287W        W75681  34.953  39.301   4.059
 7288W        W75682  35.256  10.685   1.745
 7289W        W75683  12.732   6.983   4.193
 7290W        W75684  18.303  10.650   3.280
 7291W        W75685   7.917  13.937  11.337
 7292W        W75686  22.714  31.124   1.130
 7293W        W75687  19.701  37.920   1.601
 7294W        W75688  32.028  25.308   9.933
 7295W        W75689  35.446  29.166  12.970
 7296W        W75690  21.344  13.109  13.496
 7297W        W75691  41.047   2.248   3.253
 7298W        W75692  30.124  38.075  10.795
 7299W        W75693  38.514  32.847  10.612
 7300W        W75694  31.130  15.546  11.173
 7301W        W75695   2.433   8.817   3.215
 7302W        W75696  16.563  14.229   1.724
 7303W        W75697  32.375  37.598  14.787
 7304W        W75698  27.726  19.760  10.650
 7305W        W75699  33.730  33.579  10.004
 7306W        W75700  35.916  26.531   4.610
 7307W        W75701  20.404  14.014   4.861
 7308W        W75702  31.550  37.057   2.444
 7309W        W75703  12.568  33.550  11.580
 7310W        W75704  19.559   9.861  14.016
 7311W        W75705  19.742  16.914   5.061
 7312W        W75706  36.881   3.880  12.395
 7313W        W75707  17.139  42.267   0.347
 7314W        W75708  30.355  35.621  14.453
 7315W        W75709  42.220   0.293   1.370
 7316W        W75710  15.110  14.861  12.438
 7317W        W75711  27.172  30.990  12.938
 7318W        W75712  21.027  44.611  14.017
 7319W        W75713  12.788   3.377   0.828
 7320W        W75714   6.261  42.253  10.591
 7321W        W75715  18.628  33.468  13.951
 7322W        W75716  29.547  12.996  14.768
 7323W        W75717  35.399  19.243  12.882
 7324W        W75718   1.890  24.530  10.708
 7325W        W75719   7.581  17.842   0.796
 7326W        W75720  16.946  37.857   3.789
 7327W        W75721  14.214   2.782  10.403
 7328W        W75722  24.700  39.326   3.282
 7329W        W75723  29.591  17.305  14.555
 7330W        W75724  23.588   0.814   1.737
 7331W        W75725   8.719  17.597   1.707
 7332W        W75726   7.603   5.437   0.006
 7333W        W75727  20.591   0.538   4.599
 7334W        W75728  16.108  13.253   3.700
 7335W        W75729  28.597  20.720  14.067
 7336W        W75730  32.854  37.516  11.526
 7337W        W75731  43.871  24.622   4.035
 7338W        W75732  17.154  35.565   1.279
 7339W        W75733  33.391  30.592  11.258
 7340W        W75734  32.593   8.286   3.102
 7341W        W75735  32.115  37.951   3.677
 7342W        W75736   6.832  40.738   4.548
 7343W        W75737  28.007  35.605   5.065
 7344W        W75738  29.123   4.191   2.351
 7345W        W75739  14.276  22.351   4.358
 7346W        W75740   2.367  21.671   3.523
 7347W        W75741   3.099   6.969   2.831
 7348W        W75742  29.688  24.315  14.495
 7349W        W75743  17.323  18.197  12.005
 7350W        W75744  44.895  15.113  12.946
 7351W        W75745   0.747   2.956   3.272
 7352W        W75746  23.637  20.851   4.481
 7353W        W75747  25.425  17.315   4.834
 7354W        W75748  24.621  11.239   0.377
 7355W        W75749  14.636  42.560   2.315
 7356W        W75750  12.237  40.875  13.295
 7357W        W75751  44.343  25.805   3.097
 7358W        W75752  22.777  18.147   4.398
 7359W        W75753  28.213  35.135  12.030
 7360W        W75754  25.244   6.249   2.730
 7361W        W75755  34.010  29.686  12.342
 7362W        W75756  13.651  17.954   1.009
 7363W        W75757   1.445  15.246   4.092
 7364W        W75758  31.384  18.223   2.384
 7365W        W75759  11.713  27.198  11.991
 7366W        W75760  33.464  21.625   3.817
 7367W        W75761  30.987   3.386  12.582
 7368W        W75762  11.209  37.986  14.470
 7369W        W75763  24.070  40.130   3.516
 7370W        W75764   4.291  28.687  10.903
 7371W        W75765   9.826  25.489   3.515
 7372W        W75766  44.878  32.549   1.242
 7373W        W75767  39.400   8.810   2.095
 7374W        W75768   6.992   6.946  12.087
 7375W        W75769   8.205   1.260   3.154
 7376W        W75770   2.009  19.586   3.768
 7377W        W75771  32.519  41.455  14.445
 7378W        W75772  14.643   4.682  11.975
 7379W        W75773  38.627   7.271   4.214
 7380W        W75774   5.236   6.283   1.448
 7381W        W75775  23.185  10.711   0.201
 7382W        W75776  17.441  26.433   3.259
 7383W        W75777   5.478  20.262   1.202
 7384W        W75778  18.290  16.587   2.711
 7385W        W75779  33.661  16.846   3.122
 7386W        W75780  32.847  29.107  12.643
 7387W        W75781  41.012  21.184   4.658
 7388W        W75782  28.029  41.086  11.187
 7389W        W75783   9.155  22.601  13.602
 7390W        W75784  29.024   2.900  13.064
 7391W        W75785   7.316  20.277   0.824
 7392W        W75786  31.131  40.338  10.726
 7393W        W75787  14.493  44.499   4.177
 7394W        W75788  20.683  19.642  11.378
 7395W        W75789  10.877  43.377  13.687
 7396W        W75790   0.724  42.829   3.101
 7397W        W75791  20.598  25.145  10.701
 7398W        W75792  40.412  44.812  10.575
 7399W        W75793  11.158   1.894  14.395
 7400W        W75794  35.583  17.923  11.980
 7401W        W75795  40.339   0.788  11.022
 7402W        W75796  33.889  27.857   2.692
 7403W        W75797  44.385   9.332   1.408
 7404W        W75798  27.772  22.679   3.638
 7405W        W75799  16.052  44.773  13.377
 7406W        W75800  28.188  26.692   3.730
 7407W        W75801  24.205  10.978   1.850
 7408W        W75802  11.668  23.483  10.379
 7409W        W75803  37.124  24.672   1.759
 7410W        W75804  16.808  17.234  14.768
 7411W        W75805   7.695  43.962   0.390
 7412W        W75806   0.263  22.560  12.037
 7413W        W75807   3.519   4.202   2.276
 7414W        W75808   5.608  44.504  10.837
 7415W        W75809  38.889   7.330  10.650
 7416W        W75810  37.364  22.154   1.726
 7417W        W75811   3.397  34.139   3.996
 7418W        W75812  40.064  40.853  10.566
 7419W        W75813   4.914  25.525  14.626
 7420W        W75814   2.839  32.675   1.199
 7421W        W75815  18.242  36.677  12.753
 7422W        W75816  38.936  11.625   0.315
 7423W        W75817  25.687   6.875  12.937
 7424W        W75818  39.359  41.942   4.913
 7425W        W75819   9.635  26.418   3.754
 7426W        W75820  11.637  22.598   3.699
 7427W        W75821  30.080  33.891   4.618
 7428W        W75822  27.541  35.569  13.200
 7429W        W75823   1.500  15.755  10.639
 7430W        W75824  23.640  21.782   4.050
 7431W        W75825   2.786   3.784  14.234
 7432W        W75826  27.519  10.748   3.265
 7433W        W75827   7.917   4.019  12.591
 7434W        W75828  22.934  14.592   4.724
 7435W        W75829  31.118  30.504  14.333
 7436W        W75830  15.586  22.158   4.742
 7437W        W75831  16.840   2.450   3.192
 7438W        W75832  39.214  43.370   1.014
 7439W        W75833   7.376   3.352  12.555
 7440W        W75834  34.542   3.682  12.461
 7441W        W75835  10.863  19.940   1.431
 7442W        W75836  34.867  11.335  13.974
 7443W        W75837  17.606  42.987   4.451
 7444W        W75838  33.582   3.159   0.938
 7445W        W75839  11.638  43.922  10.649
 7446W        W75840  26.793  33.490  13.764
 7447W        W75841  13.995   6.309  14.280
 7448W        W75842  17.596  35.992   4.166
 7449W        W75843  33.375   7.894  10.998
 7450W        W75844  18.358   2.337  10.871
 7451W        W75845  26.480   5.696   1.821
 7452W        W75846  19.418  32.741  12.175
 7453W        W75847  23.268  14.196   3.601
 7454W        W75848  37.137  10.598   2.192
 7455W        W75849   1.257  27.525   1.691
 7456W        W75850  24.133  11.081  10.828
 7457W        W75851  30.379   1.032  10.847
 7458W        W75852  44.586  40.495  13.601
 7459W        W75853  20.886  17.165   3.735
 7460W        W75854  26.301  15.716  12.671
 7461W        W75855   7.341  37.879   3.404
 7462W        W75856  27.156   2.785   0.726
 7463W        W75857  12.884  34.618   3.232
 7464W        W75858  16.219   7.683   3.518
 7465W        W75859  13.451  26.601  14.754
 7466W        W75860   5.663  37.818  14.377
 7467W        W75861  26.081  12.710   0.291
 7468W        W75862  16.284  36.151  13.762
 7469W        W75863  36.046  18.570   3.304
 7470W        W75864  23.161  34.164  14.025
 7471W        W75865  42.244  21.703   3.605
 7472W        W75866  41.284   3.509   1.670
 7473W        W75867  38.914   0.960   1.765
 7474W        W75868   3.364  15.214   4.025
 7475W        W75869  37.063  29.049  13.341
 7476W        W75870  22.438  17.374  12.549
 7477W        W75871  43.035  28.638  13.689
 7478W        W75872  31.009   3.808  10.978
 7479W        W75873  24.265  29.353   1.434
 7480W        W75874   9.000  35.657  14.335
 7481W        W75875   4.745   0.876  14.729
 7482W        W75876   7.795  41.587   3.711
 7483W        W75877   1.133  17.740  11.108
 7484W        W75878  42.502  23.805  13.148
 7485W        W75879  27.417  44.857  14.171
 7486W        W75880  12.794   3.969  11.158
 7487W        W75881  11.394  19.794  14.358
 7488W        W75882  43.748   7.412   3.572
 7489W        W75883  29.402  24.594  11.642
 7490W        W75884  30.068   7.702   2.246
 7491W        W75885  28.115   2.268  12.379
 7492W        W75886   9.800  39.049  13.529
 7493W        W75887   2.319  43.305  12.083
 7494W        W75888   3.685   9.709   4.242
 7495W        W75889  42.608  35.225   4.970
 7496W        W75890  17.007   4.837  11.172
 7497W        W75891  25.878  35.618  13.069
 7498W        W75892  33.160  23.242  11.680
 7499W        W75893  22.446  16.581  11.583
 7500W        W75894  31.680  33.178  11.548
 7501W        W75895  30.362  13.567  14.305
 7502W        W75896  29.281   8.229  13.043
 7503W        W75897   1.890  20.791   1.643
 7504W        W75898   1.982  33.148   0.745
 7505W        W75899   0.876  11.464  12.050
 7506W        W75900  19.024   0.835   1.529
 7507W        W75901  17.737  19.290  14.368
 7508W        W75902   1.303  40.002   1.941
 7509W        W75903  29.869   8.736  14.547
 7510W        W75904  42.140  23.394  11.695
 7511W        W75905  29.881   5.314  10.836
 7512W        W75906  15.569  10.707   2.852
 7513W        W75907  38.837  16.029   4.037
 7514W        W75908  24.123  34.323  13.302
 7515W        W75909  44.849  41.276   4.451
 7516W        W75910  33.936  44.841   3.144
 7517W        W75911  34.833   0.361   0.263
 7518W        W75912   1.929  15.768  11.638
 7519W        W75913  27.242  16.049  11.301
 7520W        W75914  13.086  10.598  10.672
 7521W        W75915   7.332  30.682   3.136
 7522W        W75916  19.741  22.637   2.339
 7523W        W75917  29.561   6.299  13.999
 7524W        W75918  30.215  14.170  10.742
 7525W        W75919  36.825  40.602  14.370
 7526W        W75920  12.800  27.207  14.402
 7527W        W75921  25.090  13.689  10.852
 7528W        W75922  19.254  25.109   5.270
 7529W        W75923  36.408   8.630   3.879
 7530W        W75924  19.696  24.006   3.123
 7531W        W75925  44.437  15.747  13.094
 7532W        W75926  15.750  33.083  13.884
 7533W        W75927  14.288  35.523   0.535
 7534W        W75928   4.383  11.648   1.674
 7535W        W75929  31.893  33.357   3.224
 7536W        W75930  10.210  40.449  14.887
 7537W        W75931  32.586  16.507   0.527
 7538W        W75932  19.348  27.193  14.899
 7539W        W75933   4.564  37.984   2.419
 7540W        W75934  38.109  27.414  10.318
 7541W        W75935  35.071   8.628   1.852
 7542W        W75936   1.797  40.479  11.006
 7543W        W75937  20.638  39.477  11.924
 7544W        W75938  27.244  22.749  13.099
 7545W        W75939   8.089   7.307  10.578
 7546W        W75940  31.016  43.859   4.559
 7547W        W75941  12.902  37.377  10.589
 7548W        W75942  36.824   2.035   3.211
 7549W        W75943  25.689  22.692  11.963
 7550W        W75944  17.791  14.216  13.517
 7551W        W75945  31.209   9.729   2.728
 7552W        W75946  12.239   5.720   0.464
 7553W        W75947  17.671  12.923  14.635
 7554W        W75948  35.269  31.459   2.371
 7555W        W75949  41.518   0.238  11.163
 7556W        W75950  25.669  14.606   4.133
 7557W        W75951   5.195  43.052  12.971
 7558W        W75952  36.023  15.316   0.641
 7559W        W75953  42.456  41.964  11.977
 7560W        W75954   9.530  36.475   0.377
 7561W        W75955  38.962  14.797  14.345
 7562W        W75956  21.172  12.307  11.410
 7563W        W75957  30.582  27.674   1.134
 7564W        W75958  26.033   2.677   2.699
 7565W        W75959   9.209   9.214  13.585
 7566W        W75960   2.159  20.752   0.647
 7567W        W75961  23.403  29.506   2.424
 7568W        W75962  13.109  18.356  12.970
 7569W        W75963   8.789  16.801  13.694
 7570W        W75964  32.167  42.554   1.828
 7571W        W75965  38.624  27.639   2.399
 7572W        W75966  11.655  10.642   1.004
 7573W        W75967  33.847  31.344  13.874
 7574W        W75968  26.075  10.322   1.809
 7575W        W75969   9.371   2.849   0.395
 7576W        W75970   2.296  19.799  14.423
 7577W        W75971  41.785  26.998  14.390
 7578W        W75972  27.928  38.001   3.519
 7579W        W75973  34.443  36.897  13.504
 7580W        W75974  33.533  43.309   2.660
 7581W        W75975  19.058  39.456   2.061
 7582W        W75976   7.330  17.686  14.358
 7583W        W75977  24.289   4.929   2.344
 7584W        W75978  28.997  17.770  13.887
 7585W        W75979  41.467   0.688  14.798
 7586W        W75980  10.213   6.667  14.553
 7587W        W75981   0.172   0.374  13.393
 7588W        W75982  32.465  18.763   0.905
 7589W        W75983  33.573  11.596   1.740
 7590W        W75984  19.576   7.973   2.789
 7591W        W75985  21.369  16.606   2.837
 7592W        W75986  32.571  21.211   1.728
 7593W        W75987  44.068  37.439  13.295
 7594W        W75988  24.440   7.395  13.234
 7595W        W75989  15.146  13.367   3.717
 7596W        W75990  30.544  27.320   0.245
 7597W        W75991  34.317   5.889  13.311
 7598W        W75992  32.345  30.817   4.997
 7599W        W75993  15.346  20.311  14.503
 7600W        W75994  16.557  21.318   3.687
 7601W        W75995   0.216   5.280   4.624
 7602W        W75996   9.172  24.254   0.552
 7603W        W75997  16.658  38.891   2.350
 7604W        W75998   9.861  30.572   0.981
 7605W        W75999   1.029   6.179   3.644
 7606W        W76000  10.777  14.640   2.851
 7607W        W76001  35.053   3.754  11.688
 7608W        W76002  22.526  36.123  14.712
 7609W        W76003  44.175   3.024  12.351
 7610W        W76004   6.800   1.249  13.121
 7611W        W76005   9.345   2.516  10.543
 7612W        W76006  31.181  41.297  12.436
 7613W        W76007  34.394  33.003   3.077
 7614W        W76008  32.898  35.011  11.000
 7615W        W76009  35.399   8.229  11.558
 7616W        W76010  14.066  27.958   4.084
 7617W        W76011  10.663  35.693   0.777
 7618W        W76012  35.154  44.051   0.718
 7619W        W76013  13.883   3.508   1.267
 7620W        W76014   5.046  27.982   4.406
 7621W        W76015   5.765  23.903  11.631
 7622W        W76016  13.485   7.746  11.869
 7623W        W76017  10.961  44.752   2.543
 7624W        W76018  26.707  38.900   0.840
 7625W        W76019  28.222   4.691  10.731
 7626W        W76020  19.756   1.229  12.365
 7627W        W76021  19.009  27.010  13.357
 7628W        W76022  23.207  35.389  12.505
 7629W        W76023   4.556  31.855  10.984
 7630W        W76024  36.670  29.745   1.328
 7631W        W76025  35.534  11.257   4.418
 7632W        W76026  12.904  31.604   1.792
 7633W        W76027   6.339  31.567   4.210
 7634W        W76028  44.919  31.058   1.039
 7635W        W76029  18.702  38.960  13.064
 7636W        W76030   5.767  24.528   0.916
 7637W        W76031  35.130   1.301  10.746
 7638W        W76032  12.199  17.111   3.514
 7639W        W76033   9.423  37.778   2.873
 7640W        W76034  14.555   1.058  13.965
 7641W        W76035  40.784  39.491  14.727
 7642W        W76036  32.693  14.332   4.951
 7643W        W76037  43.286  22.636   0.299
 7644W        W76038  31.900  38.720  10.976
 7645W        W76039  38.574   7.364   1.488
 7646W        W76040  42.791  33.449   3.318
 7647W        W76041  28.146  43.341   2.205
 7648W        W76042  33.623   7.235  14.067
 7649W        W76043  38.422  26.079  12.506
 7650W        W76044   0.423   0.872   3.093
 7651W        W76045   4.438  32.972   2.813
 7652W        W76046  33.263  44.138  13.507
 7653W        W76047  40.807  28.114  11.833
 7654W        W76048   4.995  31.426   1.869
 7655W        W76049  29.099   6.340  11.655
 7656W        W76050  12.195   6.375   3.603
 7657W        W76051  29.763   0.417   3.640
 7658W        W76052  16.242   9.475  13.985
 7659W        W76053  11.379   1.355   0.790
 7660W        W76054  42.977  16.597   0.204
 7661W        W76055  42.871  25.460   3.631
 7662W        W76056  22.455  25.962  14.797
 7663W        W76057   1.776  25.157  12.065
 7664W        W76058   0.379  42.914  12.137
 7665W        W76059  32.795  41.859   4.687
 7666W        W76060   2.340  15.351   4.455
 7667W        W76061   3.488  23.152   0.331
 7668W        W76062   8.254  40.895   0.234
 7669W        W76063   1.748  20.216  12.766
 7670W        W76064  29.820  44.515  10.598
 7671W        W76065   7.934  35.999  11.899
 7672W        W76066  37.658  21.929  12.071
 7673W        W76067  22.419  22.251   1.716
 7674W        W76068  28.874  37.515   4.312
 7675W        W76069  29.095  42.266   3.526
 7676W        W76070  27.600  11.899   2.752
 7677W        W76071  17.601  16.209  11.004
 7678W        W76072  21.516  34.444   3.843
 7679W        W76073  25.654  38.756   1.850
 7680W        W76074  42.225  26.917   4.575
 7681W        W76075  11.444  27.402  12.965
 7682W        W76076   6.125  38.908   3.661
 7683W        W76077  41.631  17.124   4.998
 7684W        W76078  37.606  44.758  11.944
 7685W        W76079  39.360  43.807  12.448
 7686W        W76080  40.078   8.320   2.341
 7687W        W76081  13.634   9.862  10.432
 7688W        W76082  33.636  41.323  12.904
 7689W        W76083   8.180  15.194   2.169
 7690W        W76084  35.394  18.979  11.936
 7691W        W76085   0.248  20.955   4.496
 7692W        W76086   5.380  37.490   3.348
 7693W        W76087  34.715  18.574   2.677
 7694W        W76088   9.212   7.780   4.536
 7695W        W76089  39.367  43.305   0.290
 7696W        W76090  16.905  14.304  10.784
 7697W        W76091  18.514   0.033   3.986
 7698W        W76092  33.565  13.201   0.269
 7699W        W76093  28.858  12.780   0.871
 7700W        W76094  16.713  18.584  14.713
 7701W        W76095  27.666  42.463   4.415
 7702W        W76096  28.902  44.366   4.114
 7703W        W76097  12.084  19.152   3.610
 7704W        W76098   1.333  32.061   1.323
 7705W        W76099  16.094  25.593  12.049
 7706W        W76100   5.766  28.456   0.654
 7707W        W76101  32.882  36.384   4.813
 7708W        W76102  39.137  34.178   1.349
 7709W        W76103  29.894  29.634  12.885
 7710W        W76104  18.710  34.859  12.089
 7711W        W76105  19.589  29.383   9.803
 7712W        W76106  21.992  30.219  14.700
 7713W        W76107  25.024  32.938   2.827
 7714W        W76108  28.996  27.048  13.564
 7715W        W76109  24.996  42.965   3.413
 7716W        W76110  16.316  25.043  13.000
 7717W        W76111   6.827   2.812  14.285
 7718W        W76112  10.365  32.665   3.295
 7719W        W76113  26.662  44.753  14.610
 7720W        W76114  28.396  20.143  10.636
 7721W        W76115  17.181  38.822  11.545
 7722W        W76116  11.406  14.065  13.519
 7723W        W76117   3.807  44.744  12.063
 7724W        W76118  20.251   6.870  12.603
 7725W        W76119   8.487  43.763  14.407
 7726W        W76120  13.852  23.512   1.454
 7727W        W76121  33.087  26.440   3.745
 7728W        W76122  30.555   4.077  13.374
 7729W        W76123  36.950  15.568  10.955
 7730W        W76124   2.221  42.056   3.035
 7731W        W76125  22.189  43.875   2.267
 7732W        W76126  25.199   0.181  14.734
 7733W        W76127  32.040   7.668  12.535
 7734W        W76128  17.716   2.733   0.915
 7735W        W76129  35.037  29.045  11.547
 7736W        W76130  14.737  38.377   0.009
 7737W        W76131   6.816  41.819  14.870
 7738W        W76132  16.200  44.774   0.870
 7739W        W76133  33.023  10.370   4.086
 7740W        W76134  20.120  36.334   1.795
 7741W        W76135   0.457  10.831   2.487
 7742W        W76136  15.728   6.760  10.869
 7743W        W76137  28.716   2.215   4.145
 7744W        W76138  24.193  25.534   4.753
 7745W        W76139   7.431   9.177   0.812
 7746W        W76140  37.549  43.081  13.092
 7747W        W76141  36.533  26.686   3.794
 7748W        W76142  13.804   1.369  13.003
 7749W        W76143  12.904  33.372   1.644
 7750W        W76144  34.238  19.609   3.627
 7751W        W76145  32.148   8.189   0.297
 7752W        W76146  42.257   0.059  14.820
 7753W        W76147  22.548  41.434   2.805
 7754W        W76148  21.252  19.639  12.138
 7755W        W76149  36.798  13.665   1.473
 7756W        W76150  23.161  34.649   4.627
 7757W        W76151  10.237  18.567   4.554
 7758W        W76152  44.321  11.273   1.208
 7759W        W76153  41.248  11.403  12.988
 7760W        W76154  15.051  19.634   4.138
 7761W        W76155  32.490  27.405  12.493
 7762W        W76156  26.697  43.942   1.085
 7763W        W76157   5.764  43.549   0.304
 7764W        W76158   3.096   2.122  14.958
 7765W        W76159  34.094  36.219  14.311
 7766W        W76160   3.873  31.039   4.730
 7767W        W76161  36.360  39.424   2.440
 7768W        W76162   7.963  15.426  10.200
 7769W        W76163   5.678  31.625  13.973
 7770W        W76164  33.060  35.075  11.906
 7771W        W76165  11.691   8.752   4.615
 7772W        W76166  13.507  18.536  12.554
 7773W        W76167  11.960  22.128  11.119
 7774W        W76168  30.453  16.274   3.852
 7775W        W76169  35.975   4.359   1.887
 7776W        W76170  37.898  21.748   3.702
 7777W        W76171  32.592  36.386   4.131
 7778W        W76172  34.903  27.380  11.166
 7779W        W76173   7.265  21.104  10.293
 7780W        W76174  23.853  31.409   4.124
 7781W        W76175  33.945  41.792   1.878
 7782W        W76176  30.820  27.703  14.443
 7783W        W76177  16.101  13.176   1.917
 7784W        W76178  13.505  38.153  14.774
 7785W        W76179  27.426  24.072  13.458
 7786W        W76180  36.115  43.362   4.592
 7787W        W76181  23.939   1.564   5.193
 7788W        W76182  26.458   1.650  11.873
 7789W        W76183  38.884  41.400   4.369
 7790W        W76184  23.582  25.649  14.444
 7791W        W76185  25.046  28.416   0.355
 7792W        W76186   8.397   8.819   4.400
 7793W        W76187   1.241  32.924  14.834
 7794W        W76188  30.925  36.755  12.025
 7795W        W76189  37.672   2.912   0.441
 7796W        W76190   1.743  38.883  14.931
 7797W        W76191  36.510   4.441   3.595
 7798W        W76192  24.074  22.626   1.861
 7799W        W76193  18.876  42.801   3.189
 7800W        W76194  36.559   7.481  14.897
 7801W        W76195   7.194  24.385  14.406
 7802W        W76196  35.872  37.998   0.785
 7803W        W76197  11.870  13.219  12.478
 7804W        W76198  35.547  12.859  11.660
 7805W        W76199  40.290  31.577   4.806
 7806W        W76200  40.043  19.825   2.915
 7807W        W76201  14.188  38.974   4.783
 7808W        W76202  26.195  10.640   2.687
 7809W        W76203  12.446  22.739   4.039
 7810W        W76204  20.159  15.733  12.490
 7811W        W76205  21.748   1.569   2.758
 7812W        W76206  14.888   7.691   3.374
 7813W        W76207  36.295  26.156  11.641
 7814W        W76208  22.823  20.486   0.840
 7815W        W76209  30.960  13.181  10.772
 7816W        W76210  11.587  44.019  12.973
 7817W        W76211  23.091   5.661   0.425
 7818W        W76212  23.581  29.570  10.719
 7819W        W76213   7.365  16.380   0.727
 7820W        W76214   2.315  43.586  12.488
 7821W        W76215  30.205  25.443   0.408
 7822W        W76216  12.101  35.969  14.770
 7823W        W76217  12.081  38.997  13.399
 7824W        W76218  30.095  19.541   0.293
 7825W        W76219  32.186  36.425   1.376
 7826W        W76220  24.192  35.535  12.600
 7827W        W76221   1.024   8.787   3.431
 7828W        W76222  20.734  34.533  14.871
 7829W        W76223  23.728  21.967  14.464
 7830W        W76224  18.672  22.465  10.702
 7831W        W76225  30.540  43.004   2.399
 7832W        W76226  16.954  29.218   3.138
 7833W        W76227  15.024  14.142  11.956
 7834W        W76228  16.329  40.848  10.557
 7835W        W76229  25.277  18.991   0.999
 7836W        W76230  23.439  16.247  11.549
 7837W        W76231   1.509   0.958  12.911
 7838W        W76232   5.732   6.866  14.868
 7839W        W76233  30.433   1.819   1.771
 7840W        W76234  11.484   3.309   1.258
 7841W        W76235  42.856  17.340   2.752
 7842W        W76236  31.237  24.685   3.794
 7843W        W76237  15.868   8.369  11.073
 7844W        W76238   5.419  21.771   2.270
 7845W        W76239   7.308   4.833   1.801
 7846W        W76240  25.244  23.693   2.663
 7847W        W76241   7.093  34.061   1.017
 7848W        W76242   2.780  31.852  10.735
 7849W        W76243  38.962  33.446  14.314
 7850W        W76244  22.772  17.580  12.949
 7851W        W76245  16.112  36.089   0.470
 7852W        W76246  23.078  39.375   1.660
 7853W        W76247   6.785  17.931  10.590
 7854W        W76248  34.681  24.834  10.847
 7855W        W76249   2.291   0.027   3.272
 7856W        W76250  40.357   3.871   1.315
 7857W        W76251  39.707  35.614  12.937
 7858W        W76252  30.582  39.931  14.987
 7859W        W76253  15.210   2.910   1.763
 7860W        W76254  17.258  26.394   2.255
 7861W        W76255  29.679  37.151  10.803
 7862W        W76256  11.922  18.467   3.107
 7863W        W76257  39.916  36.138   3.279
 7864W        W76258   7.398  17.724   3.960
 7865W        W76259  21.104  21.090   0.433
 7866W        W76260  14.183  36.132   3.705
 7867W        W76261   5.852  32.707   3.740
 7868W        W76262  35.066   6.350  14.773
 7869W        W76263  41.972  33.791  14.969
 7870W        W76264  35.230   7.820   0.070
 7871W        W76265  36.183  43.552  12.141
 7872W        W76266  10.377  22.424   3.179
 7873W        W76267  40.425   3.692   3.411
 7874W        W76268  19.636  42.069   4.616
 7875W        W76269   7.975   0.523   4.252
 7876W        W76270  12.766  31.380  10.612
 7877W        W76271  34.096  18.499  13.556
 7878W        W76272  21.741   3.949   4.841
 7879W        W76273   9.452   2.983   4.120
 7880W        W76274  33.073  15.831   2.888
 7881W        W76275  26.542  29.734  11.146
 7882W        W76276  17.330   2.327  14.818
 7883W        W76277  27.971   3.977   4.451
 7884W        W76278  24.959  21.629   4.202
 7885W        W76279  22.124  35.102  14.915
 7886W        W76280  25.102  15.243   4.395
 7887W        W76281  30.569  40.103  12.324
 7888W        W76282  43.493  15.644   1.869
 7889W        W76283  38.813  24.434   4.465
 7890W        W76284   9.703  13.432   4.843
 7891W        W76285   1.647  12.262   1.296
 7892W        W76286  16.076  29.019  12.418
 7893W        W76287  44.232  22.014   4.155
 7894W        W76288  35.052  33.872   0.802
 7895W        W76289   8.233   9.270  12.856
 7896W        W76290  40.964  42.051   4.140
 7897W        W76291  14.793   9.197   3.124
 7898W        W76292  39.741  44.258   1.808
 7899W        W76293  32.877  30.663  11.142
 7900W        W76294  27.576   1.211   5.398
 7901W        W76295  28.020   9.616  11.703
 7902W        W76296  29.339  37.244   2.459
 7903W        W76297  33.843  37.396   2.716
 7904W        W76298  42.565  33.992  11.185
 7905W        W76299  26.606  22.204   4.621
 7906W        W76300  37.851  32.203  10.179
 7907W        W76301   1.007  21.531   3.844
 7908W        W76302  43.417  28.364  14.892
 7909W        W76303   3.374  18.787  13.425
 7910W        W76304   9.705   6.042   2.337
 7911W        W76305  39.268  34.348   4.758
 7912W        W76306  38.661   8.712   4.521
 7913W        W76307  27.718  29.511   2.730
 7914W        W76308  27.014  26.697  14.969
 7915W        W76309   0.776  23.715  14.820
 7916W        W76310  39.995   1.832  10.450
 7917W        W76311  39.944  17.060   1.745
 7918W        W76312  16.118  16.274  14.589
 7919W        W76313  41.287  39.974   3.803
 7920W        W76314   1.408  35.198  12.398
 7921W        W76315  40.773  28.637   1.213
 7922W        W76316  21.601  10.073   3.358
 7923W        W76317  31.994  12.057  12.127
 7924W        W76318   8.304  26.183   2.574
 7925W        W76319  19.006  30.540   2.961
 7926W        W76320  43.425  26.353  10.449
 7927W        W76321   2.276  31.606  13.520
 7928W        W76322  12.895  12.865   0.647
 7929W        W76323   6.399  39.496   0.777
 7930W        W76324  10.686  36.612  11.105
 7931W        W76325  14.530  26.649   3.880
 7932W        W76326  43.589  32.596  12.493
 7933W        W76327  36.680  30.815   3.789
 7934W        W76328  38.474   8.757   2.641
 7935W        W76329  29.951   3.906   4.668
 7936W        W76330  40.412  38.141  14.520
 7937W        W76331  10.935  15.293  13.517
 7938W        W76332  43.229   1.923  11.181
 7939W        W76333   7.305   2.450  13.072
 7940W        W76334  25.656  19.710   4.623
 7941W        W76335  41.470  33.079   3.829
 7942W        W76336   4.098   7.432  14.892
 7943W        W76337   0.494  13.309  14.793
 7944W        W76338  41.686  12.499   0.896
 7945W        W76339   0.377  29.635   0.631
 7946W        W76340  29.023  24.671  12.029
 7947W        W76341  43.860  11.435   4.705
 7948W        W76342  14.993  28.009  10.331
 7949W        W76343  20.657   8.157  11.066
 7950W        W76344   3.026  37.100   0.280
 7951W        W76345  28.207   0.037  13.794
 7952W        W76346  32.370   5.692  10.571
 7953W        W76347  11.702  21.422  10.474
 7954W        W76348  35.334  39.423   2.757
 7955W        W76349   2.532  43.751   4.080
 7956W        W76350  36.348  18.842  12.905
 7957W        W76351   9.376  33.301  14.895
 7958W        W76352  30.176  39.202   3.818
 7959W        W76353  20.297   3.425   4.306
 7960W        W76354  40.926   0.369   2.722
 7961W        W76355  12.056   5.409   4.060
 7962W        W76356  13.411   4.296   4.079
 7963W        W76357   2.991  37.122  13.412
 7964W        W76358  32.863   4.250  12.444
 7965W        W76359   4.747  27.427  13.040
 7966W        W76360   5.768  14.892  11.731
 7967W        W76361  40.386  30.435  13.352
 7968W        W76362  37.552   7.436   1.456
 7969W        W76363  16.834  28.695   4.097
 7970W        W76364  44.976   1.298   3.297
 7971W        W76365  22.238  11.236   1.795
 7972W        W76366  14.167   6.730  12.514
 7973W        W76367  43.195  42.085   2.624
 7974W        W76368  28.599  42.178   4.582
 7975W        W76369  23.501  17.441   2.372
 7976W        W76370   8.291  30.732  14.944
 7977W        W76371  17.824  37.586  10.735
 7978W        W76372  41.992  38.543  14.889
 7979W        W76373   2.142  29.206  10.678
 7980W        W76374   3.133  33.477  11.626
 7981W        W76375  30.073  18.646   3.345
 7982W        W76376  19.398  28.751  14.722
 7983W        W76377  31.351  12.185  14.918
 7984W        W76378  31.634  25.188  11.208
 7985W        W76379  15.709   1.932   0.180
 7986W        W76380  42.909   6.488   2.864
 7987W        W76381  38.572   4.334  12.601
 7988W        W76382  40.819   4.441   0.828
 7989W        W76383  42.068  28.470   0.931
 7990W        W76384   0.103  15.563   0.081
 7991W        W76385  19.871  29.418  14.624
 7992W        W76386   1.932   6.183  14.537
 7993W        W76387  29.537  42.994   5.003
 7994W        W76388  13.543   9.097   2.730
 7995W        W76389   2.632   3.345  14.469
 7996W        W76390   3.277  18.092   0.943
 7997W        W76391  42.839   2.371  14.080
 7998W        W76392   8.923  32.706   1.197
 7999W        W76393   4.183  17.999  11.960
 8000W        W76394  17.257   9.854  12.564
 8001W        W76395  19.064  16.500  13.043
 8002W        W76396  44.651  30.501   4.125
 8003W        W76397  23.087  26.202  11.578
 8004W        W76398  24.974   9.937   4.056
 8005W        W76399  24.491  37.305  11.210
 8006W        W76400   0.347  24.990   2.841
 8007W        W76401  22.029  41.498   2.797
 8008W        W76402  20.512   5.330   2.937
 8009W        W76403   1.108  34.466   1.278
 8010W        W76404   4.175   0.888   1.409
 8011W        W76405  28.145   7.924  13.911
 8012W        W76406  35.627   5.683   4.260
 8013W        W76407  39.834  34.340   3.655
 8014W        W76408  37.380  13.948   0.797
 8015W        W76409   3.389   4.145  14.959
 8016W        W76410  42.466  33.144   0.847
 8017W        W76411  11.343  18.001  13.477
 8018W        W76412  12.276  24.017   2.375
 8019W        W76413  12.036   4.332   3.263
 8020W        W76414   2.279  39.834   1.394
 8021W        W76415  26.642   2.757  12.579
 8022W        W76416  38.376  15.363  11.042
 8023W        W76417  29.124  16.316  13.047
 8024W        W76418  17.719  17.477  13.077
 8025W        W76419  11.502  25.320  10.361
 8026W        W76420  43.023  36.188   3.607
 8027W        W76421  32.114   8.965  13.026
 8028W        W76422  36.803  29.566  13.072
 8029W        W76423  29.614   1.252  12.661
 8030W        W76424  41.729  41.898   1.230
 8031W        W76425  33.986  32.830  10.575
 8032W        W76426  15.349  16.443  12.526
 8033W        W76427  20.348   2.360   2.292
 8034W        W76428   4.422  29.674   3.646
 8035W        W76429  21.073  40.257  14.064
 8036W        W76430  12.984  18.432   2.352
 8037W        W76431  30.898  37.384  12.573
 8038W        W76432  16.251  24.028  14.119
 8039W        W76433  40.538  19.804  12.419
 8040W        W76434  37.986  37.351   0.807
 8041W        W76435  18.736  14.338   0.925
 8042W        W76436  43.147   4.184  11.130
 8043W        W76437  39.995  29.499  14.287
 8044W        W76438  41.031   6.304   2.212
 8045W        W76439  13.811  23.696   0.755
 8046W        W76440  35.670  13.072   2.394
 8047W        W76441  21.198  11.377  12.630
 8048W        W76442  13.086  34.781  14.177
 8049W        W76443  28.653  12.457  11.127
 8050W        W76444  16.025  44.029   1.265
 8051W        W76445  28.486  13.694   0.850
 8052W        W76446  14.505   3.900   3.703
 8053W        W76447  37.092   5.403   0.421
 8054W        W76448  26.959  30.954  11.995
 8055W        W76449   2.443   2.881   0.746
 8056W        W76450  18.095   6.821   3.564
 8057W        W76451  21.065   7.281   4.511
 8058W        W76452  10.733  31.571  10.824
 8059W        W76453   8.717   9.643   1.825
 8060W        W76454   8.725  14.738   4.682
 8061W        W76455  23.913   5.154  13.270
 8062W        W76456   9.028  33.033   3.837
 8063W        W76457   3.412   4.725  12.651
 8064W        W76458  30.029   3.285   1.823
 8065W        W76459  31.273   1.981   4.489
 8066W        W76460  11.166   9.362  14.255
 8067W        W76461  37.564  39.914  13.374
 8068W        W76462  31.852  38.439   2.536
 8069W        W76463  20.646   1.592   1.519
 8070W        W76464   4.239  26.488  14.349
 8071W        W76465   8.421  24.829   2.356
 8072W        W76466  40.275   4.109  11.065
 8073W        W76467  41.508  37.589  12.897
 8074W        W76468  41.397  15.358  14.423
 8075W        W76469   4.487   8.084  13.370
 8076W        W76470  19.085  27.068   1.846
 8077W        W76471  40.036   7.795  11.371
 8078W        W76472  23.514  14.553  14.270
 8079W        W76473   2.779  25.534  11.533
 8080W        W76474  41.315  40.766   0.754
 8081W        W76475  21.535  37.881   3.305
 8082W        W76476  43.047  28.737  11.901
 8083W        W76477   5.518  28.994   2.331
 8084W        W76478  26.260   6.708   1.266
 8085W        W76479  12.094  44.137  10.721
 8086W        W76480  43.327   6.855  11.633
 8087W        W76481   8.336  17.582  14.455
 8088W        W76482  20.957  22.660   4.804
 8089W        W76483  29.907  19.845  14.433
 8090W        W76484   2.818  18.045  11.872
 8091W        W76485  18.585  27.558   1.218
 8092W        W76486  23.621  37.885  10.678
 8093W        W76487   0.279  23.066   4.110
 8094W        W76488   6.164  37.781   0.265
 8095W        W76489  18.314  43.483   4.075
 8096W        W76490   4.011  41.457  14.753
 8097W        W76491  43.908  11.324  14.813
 8098W        W76492  11.562  30.559   2.830
 8099W        W76493   5.753  16.722   2.885
 8100W        W76494  33.886  44.442   0.768
 8101W        W76495  29.706  25.690   2.817
 8102W        W76496  11.290  22.965   0.873
 8103W        W76497   8.617  12.297  11.921
 8104W        W76498   5.864  11.568   2.144
 8105W        W76499  14.810  14.644   2.841
 8106W        W76500  20.783  40.586   2.388
 8107W        W76501  11.294  18.576   0.978
 8108W        W76502  17.724  44.712  11.574
 8109W        W76503  43.723   5.342  10.641
 8110W        W76504  10.760   7.512  14.293
 8111W        W76505  17.247  22.486   2.851
 8112W        W76506   5.751  42.538  13.055
 8113W        W76507  15.697  18.107   1.711
 8114W        W76508  25.744  40.947   3.267
 8115W        W76509   7.431  16.607   1.794
 8116W        W76510  22.054  30.770  12.061
 8117W        W76511  30.407   9.713   0.843
 8118W        W76512   0.987  40.196  13.212
 8119W        W76513  33.139   1.904   4.995
 8120W        W76514  16.053  21.180  11.537
 8121W        W76515  32.452  10.557  10.693
 8122W        W76516  25.880  41.943  10.732
 8123W        W76517  44.706  21.059  10.073
 8124W        W76518  36.063  33.593   2.034
 8125W        W76519  24.547  28.279  12.564
 8126W        W76520  42.577   3.373  11.990
 8127W        W76521  12.978  40.297  12.980
 8128W        W76522   0.808  41.435   2.425
 8129W        W76523   8.608  29.792  13.459
 8130W        W76524   2.339  23.617   3.768
 8131W        W76525  42.314  24.039  10.776
 8132W        W76526  24.874  38.834   3.229
 8133W        W76527  24.525  14.268   0.403
 8134W        W76528   8.906  25.707   0.648
 8135W        W76529  23.788   4.834   0.459
 8136W        W76530  28.971  24.147   1.745
 8137W        W76531   6.472  40.569   3.561
 8138W        W76532  37.222  44.048   2.254
 8139W        W76533  13.162  19.438   0.881
 8140W        W76534  26.088  43.062  12.354
 8141W        W76535  37.493  42.927   0.475
 8142W        W76536  26.708   0.521   4.945
 8143W        W76537  41.978  40.842  13.889
 8144W        W76538  30.165  39.540   0.396
 8145W        W76539  15.944  44.671   0.418
 8146W        W76540  33.330  33.123  14.857
 8147W        W76541  14.813  21.089   4.260
 8148W        W76542  42.054  24.765  11.611
 8149W        W76543  26.413  34.112   4.512
 8150W        W76544   5.676  19.133   2.791
 8151W        W76545  39.332  18.799   3.358
 8152W        W76546  36.892   4.006  13.665
 8153W        W76547  27.091  34.819   2.282
 8154W        W76548  19.392  20.225   2.336
 8155W        W76549  43.183  10.153  14.072
 8156W        W76550  35.670   4.069  11.904
 8157W        W76551  40.578  29.091   0.407
 8158W        W76552  19.066  13.104   4.342
 8159W        W76553  21.772   8.051   0.805
 8160W        W76554  38.800  26.108   0.951
 8161W        W76555  43.889  32.358  10.875
 8162W        W76556  23.345  37.639  11.442
 8163W        W76557  21.748   1.942  14.874
 8164W        W76558  31.426  37.958   4.738
 8165W        W76559  25.737  10.427   4.465
 8166W        W76560  13.868  36.755  13.619
 8167W        W76561  22.146  38.800  10.722
 8168W        W76562  11.566  20.068   1.941
 8169W        W76563  28.652  32.304   1.754
 8170W        W76564   1.769  38.566   1.415
 8171W        W76565  36.496   6.082  12.015
 8172W        W76566  32.515  42.971  14.212
 8173W        W76567   9.686  10.755   4.617
 8174W        W76568  41.911  29.729   0.446
 8175W        W76569  19.001  15.452  12.465
 8176W        W76570  28.724  26.828   1.424
 8177W        W76571  20.500  38.387  11.108
 8178W        W76572   9.959  32.461  14.476
 8179W        W76573   3.734  30.354   3.303
 8180W        W76574  17.247  10.864   0.361
 8181W        W76575  39.613  21.646  13.570
 8182W        W76576  34.161   0.892   0.859
 8183W        W76577  33.869  20.998  14.368
 8184W        W76578  26.735  31.631   3.213
 8185W        W76579   7.671  22.150  14.449
 8186W        W76580  24.013   0.762  12.507
 8187W        W76581  17.059  18.778  10.504
 8188W        W76582   7.332  14.702  14.199
 8189W        W76583  16.082  32.592   1.324
 8190W        W76584  31.863   0.667   5.055
 8191W        W76585  13.658  21.725  14.312
 8192W        W76586  28.846  13.200  13.962
 8193W        W76587  41.570   8.405  13.517
 8194W        W76588  16.256  27.071  13.848
 8195W        W76589  11.116   8.266   3.681
 8196W        W76590   3.488  15.255   3.113
 8197W        W76591  21.768  36.678   0.730
 8198W        W76592  40.356  23.778  11.663
 8199W        W76593  15.147  29.149   2.283
 8200W        W76594  26.709  22.933   3.225
 8201W        W76595  27.700  11.791  11.479
 8202W        W76596  33.846  37.334   1.830
 8203W        W76597  14.360  37.001  11.947
 8204W        W76598  24.019  24.444  13.518
 8205W        W76599   5.471  27.215  14.361
 8206W        W76600  26.141  39.068   0.037
 8207W        W76601  35.497   3.009  11.975
 8208W        W76602   6.916   5.678   4.115
 8209W        W76603  11.576  15.599  12.916
 8210W        W76604  12.850  10.444  12.366
 8211W        W76605  36.963  14.589  12.471
 8212W        W76606  14.032  34.065  12.126
 8213W        W76607  43.429  26.836   1.914
 8214W        W76608  26.586  40.788   4.766
 8215W        W76609  40.969  24.467  10.801
 8216W        W76610   9.169   4.769  12.921
 8217W        W76611   8.111  26.083   5.011
 8218W        W76612  17.180  27.495  12.533
 8219W        W76613  12.705  16.413   3.645
 8220W        W76614  10.194  15.226   2.911
 8221W        W76615  36.960   9.345  14.889
 8222W        W76616   4.834   7.690  13.271
 8223W        W76617   2.956  39.883   3.103
 8224W        W76618  10.615  43.107   3.650
 8225W        W76619  38.474  18.114  12.618
 8226W        W76620   9.868  21.659  12.959
 8227W        W76621  27.880   7.631  11.190
 8228W        W76622   0.396  37.477  10.553
 8229W        W76623  38.437  24.890   0.975
 8230W        W76624  36.530  28.205  14.844
 8231W        W76625  25.586  33.340  14.368
 8232W        W76626   0.436   6.372   3.227
 8233W        W76627  28.714  29.045   3.245
 8234W        W76628  37.276  38.902  13.352
 8235W        W76629  35.350  40.834  13.030
 8236W        W76630  24.544  25.029  12.375
 8237W        W76631  12.548  14.962  12.540
 8238W        W76632  18.090  37.106   4.047
 8239W        W76633   1.215  22.677  13.547
 8240W        W76634  30.298  44.992   1.341
 8241W        W76635   8.195  21.969   4.483
 8242W        W76636  43.299   2.892  13.848
 8243W        W76637  13.777  36.230  12.450
 8244W        W76638  33.651   6.849  13.541
 8245W        W76639  39.714   5.223   3.213
 8246W        W76640  14.591  15.852  11.627
 8247W        W76641  12.607  18.611  14.076
 8248W        W76642  25.728  40.048  12.065
 8249W        W76643  10.677   1.487  14.994
 8250W        W76644  18.150  10.527  13.228
 8251W        W76645  35.599  41.771  11.137
 8252W        W76646  42.474  38.824   4.136
 8253W        W76647  34.549  20.296   3.701
 8254W        W76648  33.322   5.847   4.530
 8255W        W76649  23.275  19.200   0.362
 8256W        W76650  20.133  21.901  12.957
 8257W        W76651   7.971   1.740  13.482
 8258W        W76652  24.099   8.196   4.837
 8259W        W76653  34.497  27.211   2.262
 8260W        W76654  42.334  15.191  11.952
 8261W        W76655  28.519   7.325   4.514
 8262W        W76656  28.462  31.025   0.178
 8263W        W76657  15.593   7.766   0.627
 8264W        W76658   0.915   8.667  11.518
 8265W        W76659   2.238  10.609  11.176
 8266W        W76660  34.160  11.074   2.429
 8267W        W76661  29.430  15.417  12.431
 8268W        W76662   2.396  21.710  11.988
 8269W        W76663  11.757   5.183   1.649
 8270W        W76664  25.700   3.700  11.915
 8271W        W76665  15.823  28.967  14.032
 8272W        W76666  39.481  24.603  14.892
 8273W        W76667  41.260  44.810   1.855
 8274W        W76668  19.737  20.913  14.719
 8275W        W76669  43.638  27.167  11.742
 8276W        W76670  16.821  38.975  13.452
 8277W        W76671   2.961   7.089  14.109
 8278W        W76672  38.040  15.403  14.354
 8279W        W76673  22.903  11.467  11.087
 8280W        W76674  12.130  15.694   3.698
 8281W        W76675  34.024  20.511   2.701
 8282W        W76676  16.252  14.795  12.016
 8283W        W76677  39.074  26.572  11.205
 8284W        W76678  24.648  29.250   0.311
 8285W        W76679  29.941  38.799   3.328
 8286W        W76680  34.430  28.616  13.910
 8287W        W76681   9.670  27.813   2.155
 8288W        W76682  43.957  24.965  13.825
 8289W        W76683  25.694  40.564  12.057
 8290W        W76684  44.995  34.893  11.607
 8291W        W76685   4.364   7.353   4.595
 8292W        W76686  19.653  16.957  11.956
 8293W        W76687  43.703  16.157  11.998
 8294W        W76688  12.145  26.583   1.144
 8295W        W76689  44.638  43.510  11.325
 8296W        W76690  25.007  38.728   0.758
 8297W        W76691  41.439  31.659  14.120
 8298W        W76692  35.936  24.681  14.925
 8299W        W76693  33.375  34.558   4.092
 8300W        W76694  38.305  38.514  11.561
 8301W        W76695   7.872  20.726   0.279
 8302W        W76696   3.002   5.688   1.265
 8303W        W76697  41.450  32.697   4.609
 8304W        W76698   9.248  28.221   0.800
 8305W        W76699  21.268  13.608   2.878
 8306W        W76700  43.990  34.352  14.545
 8307W        W76701  15.364   7.606   3.190
 8308W        W76702  40.513  11.772  11.788
 8309W        W76703  42.539  34.955  12.169
 8310W        W76704  42.629   8.928   3.627
 8311W        W76705  12.280  43.838  13.493
 8312W        W76706  30.884  41.419  14.291
 8313W        W76707  44.801  27.688   2.690
 8314W        W76708  25.666   1.706   5.022
 8315W        W76709  17.125  31.487   1.485
 8316W        W76710  22.479  34.637   1.824
 8317W        W76711   1.445  25.044  13.468
 8318W        W76712  31.944  35.368   1.243
 8319W        W76713  12.669  37.105   0.279
 8320W        W76714  24.079  41.749  11.702
 8321W        W76715   0.092   7.100  12.569
 8322W        W76716  15.948   3.994   3.658
 8323W        W76717  19.602  41.481  11.518
 8324W        W76718  44.112   7.902   2.403
 8325W        W76719  22.868   3.611   3.051
 8326W        W76720   9.303   5.717   1.295
 8327W        W76721  19.777   1.238   1.005
 8328W        W76722  32.220  25.494  12.445
 8329W        W76723  39.574  22.032  14.961
 8330W        W76724  39.182  16.875   1.144
 8331W        W76725  20.540   3.347  14.465
 8332W        W76726   7.556  31.580  14.867
 8333W        W76727  10.352   4.764   3.295
 8334W        W76728  37.097  11.095   4.029
 8335W        W76729  16.219  33.904   4.587
 8336W        W76730  44.061  17.642   2.946
 8337W        W76731  28.617   1.529   4.549
 8338W        W76732  11.357  38.891   0.014
 8339W        W76733  22.292  34.164  11.197
 8340W        W76734  39.444   1.937  14.424
 8341W        W76735  19.148  26.889   4.111
 8342W        W76736  24.217  17.394  12.137
 8343W        W76737  26.791  18.103  14.444
 8344W        W76738  29.239  12.113  13.330
 8345W        W76739  39.436   3.747  14.291
 8346W        W76740   9.727  44.859   0.453
 8347W        W76741  32.850  16.159   0.792
 8348W        W76742   2.873  24.448  10.802
 8349W        W76743   0.499  17.980   1.073
 8350W        W76744  29.037   7.266   0.945
 8351W        W76745  15.840  12.675   3.746
 8352W        W76746  38.961  24.767  14.786
 8353W        W76747  11.573  17.521  14.641
 8354W        W76748  22.997  37.741  11.078
 8355W        W76749   6.912  28.259  11.853
 8356W        W76750  25.562  30.278   3.152
 8357W        W76751  19.203  44.796  11.450
 8358W        W76752  10.311   3.913   0.918
 8359W        W76753  44.260  13.076   2.424
 8360W        W76754  20.067   0.262  11.541
 8361W        W76755  43.795  22.795   3.873
 8362W        W76756  43.382  39.371   1.816
 8363W        W76757  44.566  24.537   3.886
 8364W        W76758  16.612   3.835   1.339
 8365W        W76759  11.697  31.340   2.505
 8366W        W76760   2.376   5.698   4.704
 8367W        W76761  30.059   7.493   0.901
 8368W        W76762   4.692  42.242   2.362
 8369W        W76763   1.509  26.486   1.853
 8370W        W76764  23.614  37.527   0.342
 8371W        W76765  39.004  32.796   1.265
 8372W        W76766   5.331  23.767   1.091
 8373W        W76767  17.809  33.960   4.469
 8374W        W76768   1.044  22.644   0.799
 8375W        W76769  30.190  20.566   2.142
 8376W        W76770  21.142  39.445  12.061
 8377W        W76771  27.418  30.444   2.387
 8378W        W76772  10.016  22.885   9.678
 8379W        W76773  35.055  15.640  13.327
 8380W        W76774   1.383  43.785  14.333
 8381W        W76775  33.028   0.789  14.967
 8382W        W76776   3.990  32.820   4.128
 8383W        W76777  37.874  31.461   4.273
 8384W        W76778  34.299  31.108   2.329
 8385W        W76779   0.462  33.097   0.304
 8386W        W76780  36.506  39.456   4.108
 8387W        W76781  29.065  16.572  14.383
 8388W        W76782  31.678  10.375  11.805
 8389W        W76783  23.767   4.574  13.798
 8390W        W76784   4.150   2.342   1.087
 8391W        W76785  42.901  29.984  13.018
 8392W        W76786  36.270  38.157  12.863
 8393W        W76787   6.875  15.307   5.141
 8394W        W76788  27.461   3.836  11.067
 8395W        W76789  10.427  32.823  13.942
 8396W        W76790  16.478   0.371   4.240
 8397W        W76791  31.042   4.268  12.913
 8398W        W76792  43.279  40.293  12.500
 8399W        W76793  33.663  29.172   3.293
 8400W        W76794   5.786  17.265  11.722
 8401W        W76795  29.142   9.221  11.113
 8402W        W76796  26.102  44.428  14.387
 8403W        W76797  27.566   5.255  11.047
 8404W        W76798   3.010  29.549   2.520
 8405W        W76799  43.824  29.170  14.067
 8406W        W76800  33.786  10.362   0.641
 8407W        W76801  40.407  39.533   4.408
 8408W        W76802  24.719   0.456   5.016
 8409W        W76803  15.214  22.630   3.566
 8410W        W76804  29.723  20.316   0.366
 8411W        W76805  41.378  38.978   1.673
 8412W        W76806  30.602  42.295  11.671
 8413W        W76807  19.384  32.921  14.868
 8414W        W76808  44.928   1.099  12.984
 8415W        W76809  34.778  43.387  12.670
 8416W        W76810  19.110  36.577  10.828
 8417W        W76811  26.089   8.914  13.973
 8418W        W76812  42.266   9.582   4.165
 8419W        W76813   9.440  12.296   0.396
 8420W        W76814  27.993  16.829   2.164
 8421W        W76815  37.449  38.405  13.414
 8422W        W76816  29.713  41.222   9.899
 8423W        W76817  33.583  18.130   0.746
 8424W        W76818  32.347   4.849   1.487
 8425W        W76819  23.562   5.916  13.514
 8426W        W76820  13.098  28.721   3.998
 8427W        W76821   7.332  41.040  14.379
 8428W        W76822  12.266  25.094   3.386
 8429W        W76823   4.827   7.915  12.044
 8430W        W76824  17.147   9.551  13.830
 8431W        W76825  29.756  13.711  12.007
 8432W        W76826   8.236   9.275  13.870
 8433W        W76827  12.849  13.793   2.895
 8434W        W76828  23.637  23.844  14.965
 8435W        W76829  35.553  42.781  10.993
 8436W        W76830  39.900   5.757  14.691
 8437W        W76831   9.164   3.820  12.198
 8438W        W76832  16.014  31.953  13.354
 8439W        W76833  42.951  17.641  14.403
 8440W        W76834  17.810  35.542  13.069
 8441W        W76835  27.032  41.915   2.696
 8442W        W76836  10.246   5.230   0.340
 8443W        W76837  25.946   3.927  14.815
 8444W        W76838  23.070  41.305   1.293
 8445W        W76839  25.590  17.735  13.633
 8446W        W76840  27.188  13.436   0.346
 8447W        W76841  11.296  25.229  11.318
 8448W        W76842  10.536   8.881   1.054
 8449W        W76843  41.169  26.664  13.440
 8450W        W76844  13.170  14.271  14.003
 8451W        W76845  27.109  43.166  13.597
 8452W        W76846  44.170  16.049  14.946
 8453W        W76847  38.782  15.108   0.118
 8454W        W76848  26.471  37.885  12.910
 8455W        W76849  42.815  26.694   3.227
 8456W        W76850  34.615  39.540  13.530
 8457W        W76851   5.198   0.379  12.525
 8458W        W76852  34.781   5.318   2.658
 8459W        W76853   9.351  16.002   2.329
 8460W        W76854  10.720   3.602   4.230
 8461W        W76855   7.305   7.758   1.770
 8462W        W76856  12.145  25.227  13.355
 8463W        W76857  14.708  44.656   0.548
 8464W        W76858  19.571  12.269   1.901
 8465W        W76859  39.641  41.089  13.503
 8466W        W76860  37.711   9.035  13.378
 8467W        W76861  25.029  23.026   0.341
 8468W        W76862  18.756  19.059   3.661
 8469W        W76863  10.160  15.075  10.970
 8470W        W76864  42.914  18.703  13.609
 8471W        W76865  32.941  44.454  12.554
 8472W        W76866  16.170  22.474   2.493
 8473W        W76867  27.048  13.751   1.380
 8474W        W76868  39.761  32.931  12.079
 8475W        W76869  39.570   8.311  13.363
 8476W        W76870  14.914   6.676   4.091
 8477W        W76871   7.501   2.852   0.827
 8478W        W76872  14.257  28.704   1.956
 8479W        W76873   2.185  24.364  11.113
 8480W        W76874  17.491  38.900   4.533
 8481W        W76875   3.390  37.514   0.978
 8482W        W76876  41.801  35.917  12.558
 8483W        W76877  20.186  24.714  11.449
 8484W        W76878  10.721  32.356  11.231
 8485W        W76879  13.129  16.612   2.047
 8486W        W76880  19.198  30.481   1.078
 8487W        W76881  34.155  22.103   1.993
 8488W        W76882   0.264  30.922   4.560
 8489W        W76883  10.783  29.057  11.456
 8490W        W76884   7.226  44.450   2.385
 8491W        W76885  32.136   7.668  11.634
 8492W        W76886  22.666  35.607  13.318
 8493W        W76887  29.722  27.165   3.198
 8494W        W76888  16.594  15.330   3.887
 8495W        W76889  11.816  40.051   3.230
 8496W        W76890  11.745  32.895   5.049
 8497W        W76891  41.464  10.258  13.866
 8498W        W76892  21.660   5.009   3.459
 8499W        W76893  37.282  34.443  14.383
 8500W        W76894  34.418   5.638  13.846
 8501W        W76895  23.359  36.568   4.214
 8502W        W76896  43.311   1.877  14.203
 8503W        W76897  23.203  18.180   3.630
 8504W        W76898   7.884   4.051  14.645
 8505W        W76899  34.865  15.557  10.625
 8506W        W76900  13.176   0.598   0.965
 8507W        W76901   2.763  16.865   0.061
 8508W        W76902   1.943  21.535   1.140
 8509W        W76903  13.128  41.901   2.870
 8510W        W76904   1.241  17.881  13.837
 8511W        W76905  28.180  29.336   4.052
 8512W        W76906  27.983  41.958  11.835
 8513W        W76907  20.089  26.498   1.200
 8514W        W76908  28.457   2.730  13.772
 8515W        W76909  18.488  18.016   4.117
 8516W        W76910  11.275   0.275   3.707
 8517W        W76911  20.300  10.684   3.764
 8518W        W76912  41.812   5.288   3.403
 8519W        W76913  40.046   8.646  11.147
 8520W        W76914  14.027   6.500  12.048
 8521W        W76915   7.905  16.075  14.378
 8522W        W76916  36.326  30.686   4.702
 8523W        W76917  43.364  27.251   3.696
 8524W        W76918  25.483  10.252   3.285
 8525W        W76919  35.900   4.338  12.296
 8526W        W76920  17.594  25.505  11.928
 8527W        W76921  18.486  28.992  12.567
 8528W        W76922  25.038  40.201   3.286
 8529W        W76923  11.184  31.033  12.166
 8530W        W76924  27.192   0.060   0.881
 8531W        W76925   0.321  42.751   3.424
 8532W        W76926  21.157  19.835   3.712
 8533W        W76927  23.702   1.899   2.482
 8534W        W76928   8.415  20.756   0.321
 8535W        W76929  39.015  39.319   2.894
 8536W        W76930  26.209  33.684  12.989
 8537W        W76931  12.078   8.180  10.380
 8538W        W76932  10.253  43.606  12.407
 8539W        W76933  36.388  26.999  12.334
 8540W        W76934   6.863  13.219  11.060
 8541W        W76935   2.677  28.626  14.972
 8542W        W76936   3.950  41.521   3.298
 8543W        W76937  18.163  38.831  14.894
 8544W        W76938  11.880  14.611   4.257
 8545W        W76939  10.375   2.129  11.997
 8546W        W76940  29.347  41.999  12.490
 8547W        W76941   0.499  23.924  10.908
 8548W        W76942   4.759  44.043  10.794
 8549W        W76943  12.164  41.362  13.106
 8550W        W76944  14.287  30.508   3.732
 8551W        W76945  27.440  11.326  10.211
 8552W        W76946  40.638   2.439  14.358
 8553W        W76947  32.838  44.698   2.335
 8554W        W76948  35.393  43.724   0.144
 8555W        W76949  13.823  41.858  13.944
 8556W        W76950  32.419  36.415   2.365
 8557W        W76951  20.302  27.693  11.614
 8558W        W76952  20.229  34.367  13.080
 8559W        W76953  32.974  29.038   3.474
 8560W        W76954   6.627  17.690  11.051
 8561W        W76955   3.219  43.009   4.440
 8562W        W76956  36.391  24.624   0.681
 8563W        W76957  23.160  32.603  13.135
 8564W        W76958  30.088  30.748   2.140
 8565W        W76959  13.029   4.926   0.093
 8566W        W76960  32.370   6.269   4.466
 8567W        W76961  11.170   8.242   1.372
 8568W        W76962  41.307  25.551   0.034
 8569W        W76963   3.293  25.062  13.528
 8570W        W76964  23.638  26.563   2.802
 8571W        W76965  41.995   3.441  14.875
 8572W        W76966  34.511  34.360   3.097
 8573W        W76967  36.529   4.382  13.596
 8574W        W76968  40.913   7.468  11.259
 8575W        W76969   7.861  32.516  13.112
 8576W        W76970  36.387  36.408   4.716
 8577W        W76971  38.415  16.809   3.717
 8578W        W76972  21.516  37.915   1.560
 8579W        W76973  24.832   5.040   4.105
 8580W        W76974  44.449  34.112  12.476
 8581W        W76975  28.209  15.160  10.692
 8582W        W76976  37.392  44.910  14.485
 8583W        W76977  42.607  25.525  12.489
 8584W        W76978  27.581  28.038  10.554
 8585W        W76979  40.625   8.716  12.889
 8586W        W76980  44.497  35.543  11.963
 8587W        W76981  20.254  27.414  14.835
 8588W        W76982  27.630  42.662  13.341
 8589W        W76983  43.234  22.726  13.095
 8590W        W76984  30.588  24.723  12.586
 8591W        W76985  39.525  19.759   1.708
 8592W        W76986  17.511   3.790  13.916
 8593W        W76987  42.590  44.956   0.708
 8594W        W76988  18.775  44.206  12.129
 8595W        W76989  10.207  14.747   1.533
 8596W        W76990  41.989  15.089  12.315
 8597W        W76991  23.153  35.874  12.242
 8598W        W76992  18.645  24.123  10.649
 8599W        W76993  21.052   3.227   4.586
 8600W        W76994  16.761  12.888   1.786
 8601W        W76995  16.532   7.836   2.199
 8602W        W76996  43.864   6.931   3.381
 8603W        W76997  38.335  28.869   4.203
 8604W        W76998  12.201  20.823   3.280
 8605W        W76999   0.702  19.602  11.935
 8606W        W77000  25.381   7.196  11.601
 8607W        W77001   5.210  30.049  13.263
 8608W        W77002   3.200  34.443   2.840
 8609W        W77003  26.388   3.923   3.665
 8610W        W77004  15.032  12.897   3.910
 8611W        W77005  12.297  33.964  14.901
 8612W        W77006   0.870  40.681  13.407
 8613W        W77007  35.476  28.035   1.066
 8614W        W77008  22.165   0.937  11.413
 8615W        W77009  41.502  24.627   3.715
 8616W        W77010   6.952  32.876   3.176
 8617W        W77011  19.861  39.799   2.131
 8618W        W77012  44.779   5.283   1.423
 8619W        W77013  24.762  17.095   3.726
 8620W        W77014   6.798   7.865  13.394
 8621W        W77015  39.821   8.323   3.186
 8622W        W77016   9.130   7.076   3.962
 8623W        W77017  13.120  18.051   1.970
 8624W        W77018  37.877  34.759  11.121
 8625W        W77019  20.630  12.199   3.837
 8626W        W77020  11.836  21.095  14.342
 8627W        W77021   3.124   3.745  10.764
 8628W        W77022  20.534  41.811   1.796
 8629W        W77023  28.236  26.718   1.328
 8630W        W77024  44.462  17.077  10.508
 8631W        W77025   8.770  38.616   3.800
 8632W        W77026   5.844  37.751   2.762
 8633W        W77027  30.659  36.022  10.500
 8634W        W77028  43.271  39.330  11.194
 8635W        W77029   2.009  39.085  10.680
 8636W        W77030  43.603  21.998  12.893
 8637W        W77031  39.426  12.183   4.668
 8638W        W77032  36.847  42.537   3.641
 8639W        W77033   9.777  37.778  14.296
 8640W        W77034  43.742  35.782   2.343
 8641W        W77035   2.754  36.220  13.013
 8642W        W77036  43.175  44.434   4.805
 8643W        W77037  36.921  31.047  10.919
 8644W        W77038   6.338  44.852   2.666
 8645W        W77039  19.522   1.669  13.304
 8646W        W77040  34.361  25.612   2.886
 8647W        W77041  42.524  42.974  11.115
 8648W        W77042  38.315   1.703  13.883
 8649W        W77043   9.815  23.543  11.572
 8650W        W77044  20.113  34.879   1.179
 8651W        W77045  15.516  10.650  11.536
 8652W        W77046  36.903  34.796  12.871
 8653W        W77047  39.009  22.962   0.235
 8654W        W77048  28.346  12.138   4.039
 8655W        W77049  44.363  25.572   1.151
 8656W        W77050  34.634   7.300   3.234
 8657W        W77051  34.075  19.010  13.601
 8658W        W77052  42.082  13.082   0.328
 8659W        W77053  37.316  14.402  13.566
 8660W        W77054  21.019  35.518  14.786
 8661W        W77055  19.665  21.779   0.800
 8662W        W77056  25.615  29.961   0.763
 8663W        W77057  32.999   6.266  13.442
 8664W        W77058  43.921   4.928   0.953
 8665W        W77059  24.262  33.872  13.083
 8666W        W77060  31.675   1.473  11.480
 8667W        W77061  13.213  15.524  10.540
 8668W        W77062  24.045  23.063   3.236
 8669W        W77063  38.457  38.846   3.161
 8670W        W77064   5.882  31.609   2.724
 8671W        W77065  18.191   4.366   4.815
 8672W        W77066  23.669   6.404   3.139
 8673W        W77067  22.698   5.913  11.634
 8674W        W77068  31.040  12.656   4.341
 8675W        W77069  28.795   3.919   1.782
 8676W        W77070  11.269   8.468  10.964
 8677W        W77071  26.281  38.529  14.439
 8678W        W77072  32.916   9.108   4.834
 8679W        W77073  32.160  32.627  10.982
 8680W        W77074   7.527  30.266   2.365
 8681W        W77075   2.486  29.139  11.945
 8682W        W77076  38.389  34.117  11.457
 8683W        W77077  10.586  43.704  13.952
 8684W        W77078  10.016  26.140  14.882
 8685W        W77079  42.829   1.180  13.551
 8686W        W77080  31.638  39.321  11.568
 8687W        W77081  37.857  40.420  10.775
 8688W        W77082  16.010  35.459   1.667
 8689W        W77083  29.843   3.734   0.661
 8690W        W77084  26.137  32.182   2.937
 8691W        W77085  30.653  32.656  12.551
 8692W        W77086  20.235  17.698  10.817
 8693W        W77087  31.252  41.752   1.423
 8694W        W77088  20.572  28.237   0.900
 8695W        W77089  26.129  27.563  14.024
 8696W        W77090  10.132   6.050   1.819
 8697W        W77091   4.800  30.672   0.440
 8698W        W77092  22.001  38.799  11.545
 8699W        W77093  25.344  44.056   0.399
 8700W        W77094  11.425  18.088   3.138
 8701W        W77095  15.398  25.872   1.524
 8702W        W77096  35.558  15.975  13.826
 8703W        W77097  19.660  42.465   2.820
 8704W        W77098  21.740  28.631  14.104
 8705W        W77099  13.327   6.153   3.230
 8706W        W77100  29.684  31.710   1.911
 8707W        W77101   7.347  36.918  14.590
 8708W        W77102  18.554   5.722  13.997
 8709W        W77103  19.532   2.290   4.997
 8710W        W77104  28.937  42.923   4.192
 8711W        W77105  20.801   5.535   0.997
 8712W        W77106  33.585  29.735  14.869
 8713W        W77107  17.019  14.139   4.849
 8714W        W77108  19.181  16.887   1.255
 8715W        W77109   8.658  22.094  14.095
 8716W        W77110   5.893   3.122   1.768
 8717W        W77111  27.741  40.049   4.160
 8718W        W77112  32.695  16.518  10.975
 8719W        W77113   6.265  35.802   4.511
 8720W        W77114  14.312  22.944  11.196
 8721W        W77115  24.872  36.516   3.246
 8722W        W77116  43.878  34.637   3.100
 8723W        W77117  22.578  43.826  11.506
 8724W        W77118   9.200  36.881   0.794
 8725W        W77119  33.433   9.408   1.309
 8726W        W77120   1.819  43.047   1.254
 8727W        W77121  25.700  35.734  11.584
 8728W        W77122   7.664  33.525   3.806
 8729W        W77123   4.984  41.447  13.549
 8730W        W77124  22.270  10.901   4.062
 8731W        W77125   4.679  31.060  13.997
 8732W        W77126  35.536  35.845  12.603
 8733W        W77127  25.586  18.466   4.155
 8734W        W77128  28.018  33.020   1.376
 8735W        W77129  31.859  43.427  14.871
 8736W        W77130  16.764  11.720   4.537
 8737W        W77131  31.983  34.484  13.484
 8738W        W77132  26.062  30.516  12.400
 8739W        W77133   3.314  28.062   4.554
 8740W        W77134  31.630  32.566   2.666
 8741W        W77135  11.864  12.481  11.395
 8742W        W77136  33.422  18.200   2.821
 8743W        W77137  36.193   1.771   0.312
 8744W        W77138  18.522   0.705  10.653
 8745W        W77139  14.796  17.262  14.966
 8746W        W77140  41.449   1.338  14.354
 8747W        W77141  19.397   4.706   1.318
 8748W        W77142   2.312  33.302   2.396
 8749W        W77143   3.812   7.151   4.634
 8750W        W77144  29.315  43.265   0.856
 8751W        W77145  18.658  30.521   0.975
 8752W        W77146  33.653  29.207  14.834
 8753W        W77147  15.419  19.970  12.441
 8754W        W77148  19.983   9.697   2.864
 8755W        W77149   6.227  15.584   0.720
 8756W        W77150   2.630  17.666  14.033
 8757W        W77151  20.463  18.705  11.540
 8758W        W77152  18.672   2.529  14.238
 8759W        W77153  43.990  39.116   2.860
 8760W        W77154  28.229  42.912   0.466
 8761W        W77155  44.991  10.831   2.164
 8762W        W77156   5.032   1.163   2.896
 8763W        W77157  22.348  26.265   0.678
 8764W        W77158  35.588  15.213  11.641
 8765W        W77159   3.473   1.176  14.993
 8766W        W77160   7.972   4.016  11.277
 8767W        W77161  28.116  12.215   2.977
 8768W        W77162  15.086  19.172  12.646
 8769W        W77163  36.688   4.701   1.316
 8770W        W77164  21.753  17.071   4.061
 8771W        W77165  30.925  12.387  11.247
 8772W        W77166  28.132  14.154   4.700
 8773W        W77167  15.337   6.245  12.486
 8774W        W77168  12.302  38.470  11.525
 8775W        W77169  41.602  36.302  12.020
 8776W        W77170  31.622  30.398  10.610
 8777W        W77171  33.509  23.065  12.695
 8778W        W77172  15.528  28.707  12.342
 8779W        W77173  19.863  34.301  14.401
 8780W        W77174  32.094  12.607  14.808
 8781W        W77175  35.742  43.351   1.744
 8782W        W77176  16.169  31.592  10.463
 8783W        W77177  26.914   3.937   2.144
 8784W        W77178  19.992  41.241   3.739
 8785W        W77179   5.816  18.161   0.428
 8786W        W77180  40.454  13.213  10.552
 8787W        W77181  12.259   5.882  12.137
 8788W        W77182  29.324  40.459  11.171
 8789W        W77183   8.137  27.673  12.608
 8790W        W77184  18.073  26.145  10.173
 8791W        W77185  44.445  27.716   3.077
 8792W        W77186  10.759  32.239  13.413
 8793W        W77187  40.751   6.794   4.877
 8794W        W77188  29.939  37.257   1.816
 8795W        W77189  28.107  17.084  14.388
 8796W        W77190   8.390  22.796  11.169
 8797W        W77191  42.315  16.847  10.854
 8798W        W77192   3.189  31.499  14.016
 8799W        W77193  32.194  25.105  12.874
 8800W        W77194  37.127  33.369   4.581
 8801W        W77195  34.169  15.065  12.056
 8802W        W77196  30.717  32.914  13.310
 8803W        W77197  43.024  14.114  10.259
 8804W        W77198  26.269   0.293  10.805
 8805W        W77199  36.364  33.534   1.372
 8806W        W77200  37.959  21.006  13.069
 8807W        W77201  24.796  39.099   0.436
 8808W        W77202  34.780  32.049   0.282
 8809W        W77203  12.254  20.289   0.834
 8810W        W77204  25.607  24.910  11.421
 8811W        W77205  38.268  25.466  12.226
 8812W        W77206  42.705  37.905  14.981
 8813W        W77207  43.734  34.347  12.686
 8814W        W77208  11.914  32.825  13.363
 8815W        W77209  20.948   4.192   1.365
 8816W        W77210   7.731  44.382  13.562
 8817W        W77211  14.349  36.508  11.218
 8818W        W77212   6.250  23.561  10.022
 8819W        W77213  20.505  28.571  14.404
 8820W        W77214  44.503  27.000  13.836
 8821W        W77215   1.335  15.272  10.227
 8822W        W77216  42.358  37.779  14.525
 8823W        W77217  19.147  27.562   1.208
 8824W        W77218   6.033  38.781  14.445
 8825W        W77219  42.636  30.984   5.359
 8826W        W77220  15.768  22.257  10.280
 8827W        W77221   4.401  16.856   2.262
 8828W        W77222  32.083  35.519   4.207
 8829W        W77223  27.982  20.752  11.973
 8830W        W77224  19.284  27.725  14.895
 8831W        W77225  42.733   4.248   0.868
 8832W        W77226  39.718  44.403  14.502
 8833W        W77227  36.014  27.355  11.385
 8834W        W77228  20.742  29.645  14.774
 8835W        W77229  25.648  19.071  14.736
 8836W        W77230  29.928  40.052  11.978
 8837W        W77231  15.629  36.142   2.207
 8838W        W77232  33.413  31.165   2.278
 8839W        W77233   8.377   3.459  14.920
 8840W        W77234  25.607  18.220  12.872
 8841W        W77235  41.838  23.045   4.157
 8842W        W77236  13.682  38.038   3.426
 8843W        W77237   5.355  28.073  13.325
 8844W        W77238  29.746  36.887   3.480
 8845W        W77239  44.355  42.236  12.367
 8846W        W77240   5.642  34.527  12.384
 8847W        W77241   3.255  27.753   3.177
 8848W        W77242  23.533   1.897   3.455
 8849W        W77243   0.836  38.855  11.140
 8850W        W77244  44.222  18.515  12.324
 8851W        W77245  28.982  19.234   1.730
 8852W        W77246  15.797  11.078  11.586
 8853W        W77247  24.566  14.665   0.743
 8854W        W77248   0.990  14.781  11.932
 8855W        W77249  35.001  18.381  12.535
 8856W        W77250  20.640  27.887  14.953
 8857W        W77251   9.383  35.695   2.742
 8858W        W77252  15.750  43.093   2.661
 8859W        W77253  33.193  35.535  12.042
 8860W        W77254  16.321  41.493   3.799
 8861W        W77255  16.279  36.669   3.962
 8862W        W77256  44.725  30.495  13.438
 8863W        W77257   7.021  16.262   4.379
 8864W        W77258  40.752  41.466  12.516
 8865W        W77259  29.257  11.320   3.787
 8866W        W77260   4.251  10.351   0.846
 8867W        W77261  17.035  24.490   2.857
 8868W        W77262  18.121  18.602   5.282
 8869W        W77263  27.994  27.861  14.568
 8870W        W77264  33.887  39.008  10.319
 8871W        W77265  15.720  43.453   3.648
 8872W        W77266  22.985  43.527  11.400
 8873W        W77267  10.581  36.864   4.826
 8874W        W77268  41.031  39.441   3.726
 8875W        W77269   8.438  33.572   1.684
 8876W        W77270  41.387   2.042   4.674
 8877W        W77271  28.443   2.339  14.902
 8878W        W77272  11.123   1.823   0.852
 8879W        W77273  31.788   5.618  13.790
 8880W        W77274  35.135  31.163   0.277
 8881W        W77275   4.707  18.621  11.083
 8882W        W77276  26.277   0.814  12.312
 8883W        W77277  31.548   2.375  12.121
 8884W        W77278   6.423  16.584   0.339
 8885W        W77279  37.045  42.820   0.778
 8886W        W77280  28.129  22.739   1.350
 8887W        W77281   5.406  39.983  10.796
 8888W        W77282   6.744  23.513   9.831
 8889W        W77283  36.028  14.427  14.890
 8890W        W77284   0.495   9.772  12.867
 8891W        W77285  11.458  34.271  11.203
 8892W        W77286  18.228  11.438  14.495
 8893W        W77287   0.477   6.943  13.872
 8894W        W77288  40.873   9.159   4.294
 8895W        W77289  36.188   1.225  14.357
 8896W        W77290   6.955   6.216  12.441
 8897W        W77291   4.698  13.744  12.270
 8898W        W77292  38.554  22.686  13.600
 8899W        W77293  39.406   5.183   3.701
 8900W        W77294   4.591  33.411   1.255
 8901W        W77295  42.484   7.193  14.432
 8902W        W77296  24.266   7.130  12.351
 8903W        W77297  26.454  37.335   3.189
 8904W        W77298  35.610  11.428   1.346
 8905W        W77299  15.283  35.634  13.965
 8906W        W77300   2.375   1.813   5.002
 8907W        W77301  44.812  18.089   0.420
 8908W        W77302   4.627  24.732  13.497
 8909W        W77303  28.958  14.107   1.290
 8910W        W77304  27.450  11.071  12.565
 8911W        W77305  15.753  37.649  10.669
 8912W        W77306  44.167  29.863  13.644
 8913W        W77307  15.678   8.126   2.753
 8914W        W77308  21.799  18.138  14.518
 8915W        W77309  18.866  43.315   3.173
 8916W        W77310   3.420  20.664   4.183
 8917W        W77311  35.743   7.902   0.274
 8918W        W77312  23.600  17.447   4.856
 8919W        W77313  33.691   7.220   4.561
 8920W        W77314  11.192  36.880  14.544
 8921W        W77315  32.041   4.350  10.417
 8922W        W77316   3.364  13.088   0.720
 8923W        W77317   2.130  28.092  11.106
 8924W        W77318  27.972   3.452   4.499
 8925W        W77319   5.871  27.503   0.262
 8926W        W77320  21.927  17.194   1.250
 8927W        W77321  20.157  24.108  12.830
 8928W        W77322  36.366  21.068  13.569
 8929W        W77323   0.995  33.110   0.276
 8930W        W77324  44.875   8.015   2.811
 8931W        W77325  36.881  23.715   3.374
 8932W        W77326  36.551   2.322  12.198
 8933W        W77327   8.193  39.578  11.133
 8934W        W77328   2.703  39.051   4.996
 8935W        W77329  44.877  12.866  14.604
 8936W        W77330  41.995  21.170  12.010
 8937W        W77331  31.538  30.732  13.410
 8938W        W77332  15.982   2.354   3.633
 8939W        W77333  31.672  22.149   1.303
 8940W        W77334  36.854  28.419  13.382
 8941W        W77335   5.139   6.319   3.280
 8942W        W77336   6.344  26.238   0.384
 8943W        W77337  38.426   1.498   0.124
 8944W        W77338  10.877  15.630   2.778
 8945W        W77339  10.241  11.490   4.875
 8946W        W77340  29.364  44.660  13.333
 8947W        W77341  41.073  24.129   0.024
 8948W        W77342  34.739  11.068  13.560
 8949W        W77343  25.406  31.508   4.847
 8950W        W77344  25.800  27.165  11.057
 8951W        W77345  29.155  31.176   2.768
 8952W        W77346  13.944  35.942  12.061
 8953W        W77347  40.320   8.187   1.902
 8954W        W77348  21.013  21.183   2.573
 8955W        W77349   8.693  41.983   4.772
 8956W        W77350  15.357  23.930   1.686
 8957W        W77351  25.086  31.643   3.853
 8958W        W77352   5.393  25.402  12.584
 8959W        W77353  19.247  27.029   1.116
 8960W        W77354  16.306  23.086  12.839
 8961W        W77355   7.474  32.295   4.241
 8962W        W77356   2.073   3.772   3.692
 8963W        W77357   3.496  21.055  12.600
 8964W        W77358  23.319  12.730   1.881
 8965W        W77359  43.834  16.799   4.037
 8966W        W77360  31.385  14.866   2.173
 8967W        W77361  17.811  16.377   0.381
 8968W        W77362  20.656  36.255   0.021
 8969W        W77363  25.595   3.378  10.964
 8970W        W77364  43.519  30.392  12.987
 8971W        W77365  22.557  21.956  11.363
 8972W        W77366  41.151  25.988  12.491
 8973W        W77367   4.200  38.051  11.633
 8974W        W77368  38.126  24.762   3.701
 8975W        W77369  31.702  30.056  14.813
 8976W        W77370   6.980  27.540  14.311
 8977W        W77371   0.370  38.471  14.883
 8978W        W77372  37.090  19.796  13.476
 8979W        W77373  17.075   3.844   0.383
 8980W        W77374  18.205  44.756   4.741
 8981W        W77375  20.732  34.777   4.202
 8982W        W77376  42.856  32.086  13.986
 8983W        W77377  24.738  27.433  11.228
 8984W        W77378  29.702   0.445  10.553
 8985W        W77379  11.599  39.093  13.567
 8986W        W77380  30.676  31.082  12.014
 8987W        W77381  11.641  28.206  14.874
 8988W        W77382  42.047  11.755   2.284
 8989W        W77383   2.874  42.734   0.011
 8990W        W77384   4.452  21.175   4.035
 8991W        W77385   4.287   0.355   2.185
 8992W        W77386  15.747  15.098   1.747
 8993W        W77387   0.670  39.030   2.606
 8994W        W77388  17.199  19.472  11.224
 8995W        W77389  40.325  26.679   3.606
 8996W        W77390  14.615  12.832  10.768
 8997W        W77391  36.451   2.044  12.999
 8998W        W77392  26.686  42.821  13.011
 8999W        W77393  13.147  37.010  12.502
 9000W        W77394  13.853   4.541  12.784
 9001W        W77395  21.486  23.981  13.110
 9002W        W77396  38.997  18.315  12.640
 9003W        W77397  31.926  16.262  12.402
 9004W        W77398  31.011  25.899   0.404
 9005W        W77399  34.950   6.270   1.719
 9006W        W77400  11.381  40.398   3.142
 9007W        W77401  40.932  40.104   4.219
 9008W        W77402  23.912  19.199  11.943
 9009W        W77403  24.408   0.407   4.083
 9010W        W77404  30.043  31.992   2.180
 9011W        W77405  36.933   3.652   2.324
 9012W        W77406  27.173  42.382  11.958
 9013W        W77407  32.699  28.596   3.601
 9014W        W77408   6.156  26.783   3.419
 9015W        W77409  33.052  23.100  13.565
 9016W        W77410  21.506  23.769  10.395
 9017W        W77411  12.703  19.659   3.191
 9018W        W77412   0.392  18.445  13.846
 9019W        W77413  30.334  35.355  11.191
 9020W        W77414  19.763  36.502   0.526
 9021W        W77415  29.979   7.707  10.913
 9022W        W77416  16.779   2.353  12.873
 9023W        W77417   0.379  41.952  14.366
 9024W        W77418  22.117  15.332  11.653
 9025W        W77419  21.414  11.879  13.945
 9026W        W77420  25.386  37.401  11.614
 9027W        W77421   7.293  14.464  13.268
 9028W        W77422  16.300  14.802   2.909
 9029W        W77423  33.903   2.692   4.281
 9030W        W77424   8.364   2.390  11.065
 9031W        W77425   4.661  23.496   5.186
 9032W        W77426  43.384  26.732   3.718
 9033W        W77427  44.883  15.082  13.800
 9034W        W77428  20.711  44.638   3.590
 9035W        W77429  44.243  29.431  12.834
 9036W        W77430  41.478  14.791  10.610
 9037W        W77431  18.282  34.564  12.027
 9038W        W77432  24.694   9.176   5.582
 9039W        W77433  36.810  26.624  14.554
 9040W        W77434  10.920  12.400   4.132
 9041W        W77435  11.895  41.324   3.488
 9042W        W77436  23.722   2.812  13.043
 9043W        W77437   5.892   2.155  11.335
 9044W        W77438  44.055  33.946  14.859
 9045W        W77439   1.475  41.989   0.846
 9046W        W77440   6.605  35.280  13.932
 9047W        W77441  19.611  39.843  10.769
 9048W        W77442  28.896   3.350  13.758
 9049W        W77443   4.648  42.347   1.279
 9050W        W77444  27.901  37.646   3.128
 9051W        W77445   6.451  16.408  13.464
 9052W        W77446  18.655   8.160  11.060
 9053W        W77447  26.236   9.431  12.554
 9054W        W77448  26.591   3.716  10.783
 9055W        W77449  17.772  16.535  10.644
 9056W        W77450  38.881  18.209   1.679
 9057W        W77451   0.311  32.560   1.901
 9058W        W77452  41.489   6.723  14.976
 9059W        W77453  29.226  37.537   1.334
 9060W        W77454  39.400  32.744   3.789
 9061W        W77455  19.297   9.673  12.576
 9062W        W77456  38.922  29.505  10.479
 9063W        W77457  36.490  10.745  14.902
 9064W        W77458  28.143  16.162  12.966
 9065W        W77459   5.794  34.126  11.627
 9066W        W77460   9.224   6.065   2.533
 9067W        W77461  39.952  23.490  11.494
 9068W        W77462  30.570  42.276   1.884
 9069W        W77463  18.843  10.720  11.075
 9070W        W77464  34.984  40.982   2.869
 9071W        W77465  22.596  20.976   0.689
 9072W        W77466  26.138  33.485   1.679
 9073W        W77467   2.923  16.229  13.334
 9074W        W77468  19.789  31.619   4.965
 9075W        W77469  22.432  44.517   3.623
 9076W        W77470  16.522  41.807  13.620
 9077W        W77471  26.873  10.418  11.427
 9078W        W77472  37.222   9.025   2.062
 9079W        W77473   3.710   9.929   3.314
 9080W        W77474  18.137  19.471  12.844
 9081W        W77475  40.449  29.872  13.552
 9082W        W77476   4.650  10.802  12.782
 9083W        W77477  27.511  31.846   2.282
 9084W        W77478  27.416  38.881  10.489
 9085W        W77479  35.016  22.644  12.938
 9086W        W77480  19.293  44.331   0.390
 9087W        W77481  24.365  21.002   3.727
 9088W        W77482   2.784  25.558   3.587
 9089W        W77483  22.663  18.982  11.456
 9090W        W77484  29.618  35.730  11.422
 9091W        W77485   3.394  40.575  13.288
 9092W        W77486   3.944  33.642  13.021
 9093W        W77487  43.303  26.219   3.680
 9094W        W77488  37.614  33.910   3.406
 9095W        W77489  38.940  33.312  11.929
 9096W        W77490  17.727  26.401   1.952
 9097W        W77491  28.244  26.832   9.951
 9098W        W77492  36.536  10.774   3.852
 9099W        W77493  33.488  31.591  10.358
 9100W        W77494   6.624  28.712  12.446
 9101W        W77495  33.390  44.041  14.059
 9102W        W77496  35.809  26.104  13.371
 9103W        W77497  30.450  11.936   0.118
 9104W        W77498  42.621   8.420   3.615
 9105W        W77499  14.984  17.100  13.911
 9106W        W77500  28.819  20.238   1.175
 9107W        W77501  37.419  25.530   1.028
 9108W        W77502  27.229  40.046  14.529
 9109W        W77503  27.730  15.401  14.545
 9110W        W77504  42.370  44.038   4.605
 9111W        W77505  21.400  28.030  13.092
 9112W        W77506  34.717  10.309  11.366
 9113W        W77507   8.142  36.318  12.259
 9114W        W77508  29.906  27.434  13.500
 9115W        W77509  39.631   5.372  13.812
 9116W        W77510  12.109  11.727   2.166
 9117W        W77511  39.901  24.237   3.246
 9118W        W77512   8.156  23.853   2.267
 9119W        W77513  25.183  34.332  11.493
 9120W        W77514  41.012   9.818   3.583
 9121W        W77515  31.126  24.638   3.173
 9122W        W77516  20.644  35.516   1.699
 9123W        W77517  14.732  15.151   0.712
 9124W        W77518  34.744  21.690  14.010
 9125W        W77519  40.843   5.828   2.398
 9126W        W77520  14.043   3.145   4.214
 9127W        W77521  23.928  35.950   1.370
 9128W        W77522  30.532  33.831   1.445
 9129W        W77523  28.938  17.660   0.742
 9130W        W77524   8.975  22.670   0.878
 9131W        W77525  10.695   2.617   1.870
 9132W        W77526  28.130  40.962   0.861
 9133W        W77527   2.367  34.811  14.460
 9134W        W77528  14.863  17.757  10.072
 9135W        W77529  24.808  40.585  12.443
 9136W        W77530  28.139  22.616   4.027
 9137W        W77531   8.503  21.464  11.621
 9138W        W77532  44.029  15.125   3.126
 9139W        W77533  32.277  27.111   1.289
 9140W        W77534  31.096   5.894   1.142
 9141W        W77535  21.610  20.423  13.276
 9142W        W77536  14.612  11.705   1.369
 9143W        W77537  36.035  31.614   0.942
 9144W        W77538  23.719  16.224   1.816
 9145W        W77539  27.512  12.454  14.891
 9146W        W77540  32.110   9.508  13.813
 9147W        W77541  21.988  13.284  10.943
 9148W        W77542   2.364   3.731   2.413
 9149W        W77543  22.998  29.166   0.422
 9150W        W77544  21.285  22.805  13.847
 9151W        W77545  43.119  30.427   1.319
 9152W        W77546  27.094  37.591   3.451
 9153W        W77547  37.657  40.655   0.292
 9154W        W77548  29.593  39.899   2.212
 9155W        W77549  17.762  42.475  13.521
 9156W        W77550  43.909  24.213   1.892
 9157W        W77551  42.276  25.576  11.192
 9158W        W77552  12.144  37.473   2.550
 9159W        W77553   3.687   3.719  10.766
 9160W        W77554  26.569  32.400  10.691
 9161W        W77555   9.834  22.914  12.431
 9162W        W77556   2.516  27.124   2.953
 9163W        W77557  11.242  40.521   2.249
 9164W        W77558  36.380   2.523   0.322
 9165W        W77559  44.279  25.141  13.417
 9166W        W77560  12.038  23.159   0.074
 9167W        W77561  31.183  36.781   3.089
 9168W        W77562  27.561  32.320  14.009
 9169W        W77563  42.539  14.200  14.484
 9170W        W77564  15.263  23.295  14.842
 9171W        W77565  13.312  33.005   2.145
 9172W        W77566   2.854  19.832   3.198
 9173W        W77567  32.880  13.672   1.359
 9174W        W77568   3.747   1.847   0.420
 9175W        W77569  26.016  20.527   2.082
 9176W        W77570  32.048  32.387  14.516
 9177W        W77571  28.195  38.454   3.372
 9178W        W77572   9.336  43.705  14.372
 9179W        W77573  28.035  10.490  12.226
 9180W        W77574  24.110  29.346   2.867
 9181W        W77575  10.142  29.758   2.521
 9182W        W77576  10.429  41.329   3.264
 9183W        W77577   6.945  22.669   1.013
 9184W        W77578  30.194  23.137  12.967
 9185W        W77579   7.212  44.568   1.245
 9186W        W77580  35.334  19.497  11.837
 9187W        W77581  34.629  22.746   1.724
 9188W        W77582  18.825  35.512   1.281
 9189W        W77583  34.888  36.425  14.855
 9190W        W77584  16.710  37.571  14.785
 9191W        W77585   9.656  42.390  13.005
 9192W        W77586  10.155  38.838   1.671
 9193W        W77587   4.514  34.445   2.259
 9194W        W77588   2.952   5.793  10.427
 9195W        W77589  19.823   9.614   4.152
 9196W        W77590  12.368  24.741  13.794
 9197W        W77591   0.845  16.201  11.995
 9198W        W77592   2.424  35.575   4.073
 9199W        W77593  22.454   9.604   4.119
 9200W        W77594  35.746  16.395  14.073
 9201W        W77595  44.330  38.398  14.878
 9202W        W77596  12.692  39.449  13.955
 9203W        W77597  13.831   6.517  13.404
 9204W        W77598   4.490   3.204   5.414
 9205W        W77599   2.647  31.070   3.504
 9206W        W77600  22.476  37.372   5.173
 9207W        W77601  16.436  21.009   4.470
 9208W        W77602   5.709   6.218   0.327
 9209W        W77603  33.371   4.771   4.635
 9210W        W77604  28.158  12.211   1.015
 9211W        W77605  38.589   9.167   4.216
 9212W        W77606  36.111  38.405   3.675
 9213W        W77607  11.315  40.292  12.001
 9214W        W77608  16.303  37.829   2.467
 9215W        W77609  14.311   1.841   1.368
 9216W        W77610  23.673   0.479   3.639
 9217W        W77611  26.444  40.136   0.380
 9218W        W77612   7.613  17.561  10.748
 9219W        W77613   5.788  18.136   1.921
 9220W        W77614  12.307  12.732   0.050
 9221W        W77615  15.623   1.763   4.851
 9222W        W77616  42.210  20.204   1.456
 9223W        W77617  18.621   6.020   3.880
 9224W        W77618   3.480  33.416  12.984
 9225W        W77619  24.920  22.078   3.332
 9226W        W77620  35.018   1.906   3.805
 9227W        W77621   0.321  16.056  13.759
 9228W        W77622  34.905  37.591  14.022
 9229W        W77623  30.130  12.371   1.366
 9230W        W77624  16.985   5.900   2.195
 9231W        W77625  25.608  44.728   1.522
 9232W        W77626  33.981  38.949  13.721
 9233W        W77627  13.261  15.030   4.576
 9234W        W77628  33.324   0.399   3.433
 9235W        W77629  29.552  16.091  11.538
 9236W        W77630  37.469  12.567  14.287
 9237W        W77631  22.707  36.615   0.579
 9238W        W77632  16.082   4.676   4.340
 9239W        W77633  24.660  41.319  14.801
 9240W        W77634  32.336  44.378  13.381
 9241W        W77635  31.346  16.042   4.579
 9242W        W77636  12.884  10.837  11.102
 9243W        W77637  28.148   6.256   2.312
 9244W        W77638  27.915  23.511   1.849
 9245W        W77639  16.874  29.133   2.617
 9246W        W77640   7.624  19.504   1.335
 9247W        W77641  15.624  11.315  12.026
 9248W        W77642  30.752  29.179  12.835
 9249W        W77643  29.127  39.782  11.672
 9250W        W77644  25.734  41.936   2.210
 9251W        W77645  16.077  28.525  14.096
 9252W        W77646  39.020   1.671  14.502
 9253W        W77647  13.571   6.293   2.289
 9254W        W77648   2.030  25.573  11.972
 9255W        W77649  44.098   0.921  12.527
 9256W        W77650  37.802  39.431  12.473
 9257W        W77651  17.267   3.321   2.349
 9258W        W77652   4.301  38.119   1.376
 9259W        W77653  19.054  24.143  12.515
 9260W        W77654  27.167   6.717   0.877
 9261W        W77655   8.265  10.818   1.811
 9262W        W77656  23.506  23.051  12.544
 9263W        W77657  39.393  18.035   2.435
 9264W        W77658   1.786  12.297  11.732
 9265W        W77659  30.672   3.220   0.624
 9266W        W77660  27.561  28.086  13.362
 9267W        W77661  21.123  19.869   2.731
 9268W        W77662  27.084  42.402   3.153
 9269W        W77663   0.943  35.514  11.079
 9270W        W77664  23.845   4.285   2.717
 9271W        W77665   6.363   0.773  14.858
 9272W        W77666   0.019  26.340   2.737
 9273W        W77667  43.608   1.860   4.167
 9274W        W77668  19.909  27.930   2.307
 9275W        W77669  22.184  21.198   1.770
 9276W        W77670   9.860   7.298  13.102
 9277W        W77671  32.578   0.405   1.860
 9278W        W77672  36.889  12.371  11.126
 9279W        W77673  17.038  41.641   2.907
 9280W        W77674  44.576   4.187  13.246
 9281W        W77675  32.147   9.521   1.472
 9282W        W77676   3.168  36.398  12.647
 9283W        W77677  34.451  13.868  10.841
 9284W        W77678  30.064   0.386  11.574
 9285W        W77679   3.255  24.937  12.569
 9286W        W77680   2.214  14.841  13.355
 9287W        W77681   7.522  42.148  13.266
 9288W        W77682  10.543  19.639  10.696
 9289W        W77683   1.455  21.396   1.401
 9290W        W77684  16.855  29.171  11.886
 9291W        W77685  42.516   3.723   2.738
 9292W        W77686  22.726  17.311   4.001
 9293W        W77687  42.581  43.249   2.894
 9294W        W77688  14.669   7.898   0.804
 9295W        W77689   5.811   8.800  13.954
 9296W        W77690  30.702   2.112  14.350
 9297W        W77691  13.132  39.983   1.712
 9298W        W77692  19.638  38.299  12.531
 9299W        W77693  42.725  10.319   2.091
 9300W        W77694   8.619   9.485  11.613
 9301W        W77695  36.520   3.935   2.210
 9302W        W77696  24.245   0.502  12.922
 9303W        W77697  10.196  26.396   3.913
 9304W        W77698  35.712  33.394   4.568
 9305W        W77699  34.051  43.017   3.745
 9306W        W77700  21.785  40.892   0.731
 9307W        W77701  24.419  23.669   0.881
 9308W        W77702  19.622   7.399  11.964
 9309W        W77703  44.752   0.373  10.632
 9310W        W77704  31.231   0.252   2.199
 9311W        W77705  33.056   9.684   0.007
 9312W        W77706   1.481  25.548  11.936
 9313W        W77707  30.597   6.489  14.571
 9314W        W77708  43.808  32.644   2.586
 9315W        W77709  36.658   1.641   4.542
 9316W        W77710  28.080   6.259   4.524
 9317W        W77711  36.443  36.871  14.449
 9318W        W77712  42.166  13.117   3.623
 9319W        W77713  28.954  32.098  13.450
 9320W        W77714  31.596   3.385   1.687
 9321W        W77715  25.474  23.397  13.489
 9322W        W77716   1.982  22.695  14.302
 9323W        W77717  37.753   3.904  13.909
 9324W        W77718  28.298  12.756   4.586
 9325W        W77719  11.038  25.970  13.079
 9326W        W77720   0.858  27.798  12.913
 9327W        W77721   4.472  24.744  14.020
 9328W        W77722  38.844  25.244  11.164
 9329W        W77723  22.530   3.321   5.032
 9330W        W77724  39.382  20.274  10.522
 9331W        W77725  10.893   1.059  12.394
 9332W        W77726  24.513  41.639  11.267
 9333W        W77727  12.640  16.334  13.575
 9334W        W77728   1.352   4.451  13.566
 9335W        W77729   1.876  12.880   1.872
 9336W        W77730  30.879  40.936   2.517
 9337W        W77731  13.552  10.433   1.785
 9338W        W77732   7.618  30.018  12.590
 9339W        W77733   2.694  37.116   2.889
 9340W        W77734   5.371  27.695  14.541
 9341W        W77735  38.642   4.723   5.109
 9342W        W77736  38.073  15.042   0.333
 9343W        W77737  15.512   1.803  11.599
 9344W        W77738   8.320  38.086  12.932
 9345W        W77739   8.795  44.720   0.804
 9346W        W77740   1.765  17.844  13.435
 9347W        W77741  41.075  11.462  14.810
 9348W        W77742  31.564  14.125   3.623
 9349W        W77743  38.525   6.350   0.000
 9350W        W77744  11.751  41.569  11.748
 9351W        W77745  23.431  42.017   3.494
 9352W        W77746  11.382  19.292  10.648
 9353W        W77747  10.664   5.469  12.525
 9354W        W77748  42.765  34.508  13.726
 9355W        W77749   8.542  18.908  12.409
 9356W        W77750  20.031  13.615   0.923
 9357W        W77751   0.382  31.868   3.650
 9358W        W77752   4.245  19.007  12.913
 9359W        W77753  28.761  17.320   3.144
 9360W        W77754  39.004  37.764  11.128
 9361W        W77755  22.508  15.675  11.632
 9362W        W77756  34.294  42.335   4.696
 9363W        W77757  34.613  43.429  12.189
 9364W        W77758  15.389   4.265   2.659
 9365W        W77759  18.548  12.830  12.182
 9366W        W77760  19.609   4.358  12.583
 9367W        W77761  26.208  37.479   1.339
 9368W        W77762   0.294  35.349  12.290
 9369W        W77763   7.911  11.960   0.989
 9370W        W77764  10.341  29.628   4.514
 9371W        W77765  36.859  43.533  11.681
 9372W        W77766  29.088  31.120  12.611
 9373W        W77767  42.308  12.162  11.537
 9374W        W77768  18.144  19.584  10.500
 9375W        W77769  33.062  28.700  13.418
 9376W        W77770  44.554   1.553  12.469
 9377W        W77771  29.373  11.200  13.946
 9378W        W77772   4.952   7.058  13.943
 9379W        W77773   3.418  30.151   2.651
 9380W        W77774  20.796  21.562   1.971
 9381W        W77775  27.596  23.075   1.804
 9382W        W77776  24.286  36.464  14.763
 9383W        W77777  31.053  43.094   0.332
 9384W        W77778  19.686  34.791  14.311
 9385W        W77779  30.047   3.147   3.297
 9386W        W77780  35.260  37.419  12.513
 9387W        W77781  40.092  29.179   4.485
 9388W        W77782  12.242  18.009   1.437
 9389W        W77783  14.231  32.483  13.500
 9390W        W77784  14.317  38.093   2.610
 9391W        W77785  24.221  25.723   1.516
 9392W        W77786  20.237  20.006  11.968
 9393W        W77787  18.017  12.167  12.981
 9394W        W77788  27.280  18.304  11.694
 9395W        W77789  11.638  21.671   2.412
 9396W        W77790  41.997  21.513   1.869
 9397W        W77791  44.369  33.495   1.248
 9398W        W77792   4.841  43.408   3.586
 9399W        W77793  22.922  10.150   2.214
 9400W        W77794   8.953  29.838  10.617
 9401W        W77795  32.594  14.675   0.949
 9402W        W77796   3.842   7.318  13.500
 9403W        W77797  31.404  23.281  13.557
 9404W        W77798  15.909  39.090  14.905
 9405W        W77799  25.293  43.980   3.716
 9406W        W77800  21.572  33.936   2.285
 9407W        W77801   8.951  27.895   1.547
 9408W        W77802  29.971   1.947  13.962
 9409W        W77803  22.639  10.222   2.636
 9410W        W77804  33.994  38.637   2.152
 9411W        W77805  36.194  32.484   2.731
 9412W        W77806   0.359  25.160   1.499
 9413W        W77807   1.122  10.341   3.207
 9414W        W77808  35.337  12.187   3.231
 9415W        W77809  10.983  13.145  10.691
 9416W        W77810  18.700  40.895   2.800
 9417W        W77811  26.541  11.149   3.258
 9418W        W77812  18.641  35.429   3.770
 9419W        W77813  31.415  29.861   2.798
 9420W        W77814  16.593  33.381  13.984
 9421W        W77815  14.166  28.225  12.259
 9422W        W77816  41.719   1.578  13.941
 9423W        W77817  35.590  38.045  11.163
 9424W        W77818   6.316  11.197  12.608
 9425W        W77819  27.509  16.038  14.982
 9426W        W77820  14.684  43.065   4.655
 9427W        W77821  21.043  41.972   4.176
 9428W        W77822   9.401  12.535   0.864
 9429W        W77823  39.829  41.899   2.308
 9430W        W77824  39.877  11.434  11.966
 9431W        W77825   4.487   9.315   0.315
 9432W        W77826  14.545  37.756   3.569
 9433W        W77827   6.453  41.848   3.253
 9434W        W77828  32.010  24.698  14.237
 9435W        W77829  34.825  27.052   4.097
 9436W        W77830  24.264  40.442  13.850
 9437W        W77831  20.597   5.873  11.193
 9438W        W77832  29.084  10.280   2.247
 9439W        W77833  11.927  10.306   0.668
 9440W        W77834   3.872  20.940  13.906
 9441W        W77835  22.422  29.236   3.260
 9442W        W77836  44.311   0.172  10.827
 9443W        W77837   4.802  42.784  14.921
 9444W        W77838  23.108  29.955   2.350
 9445W        W77839  13.128   2.207   3.415
 9446W        W77840  36.405  40.065   0.338
 9447W        W77841  22.633  13.639  14.799
 9448W        W77842  42.845  41.857   5.136
 9449W        W77843  14.283  19.617  14.326
 9450W        W77844  21.816  13.453  10.113
 9451W        W77845   6.373  12.842   4.971
 9452W        W77846   7.396  20.014   1.270
 9453W        W77847  23.712  18.576   0.052
 9454W        W77848  17.772   8.402  11.680
 9455W        W77849  17.444  24.046   0.748
 9456W        W77850  41.775  25.200  11.630
 9457W        W77851   2.429  12.799   1.242
 9458W        W77852   9.457  31.694  11.535
 9459W        W77853  44.004  28.533  11.065
 9460W        W77854  15.657   1.297   4.590
 9461W        W77855   9.430   4.594  12.507
 9462W        W77856  14.145   4.459  14.016
 9463W        W77857  33.936  30.257   4.147
 9464W        W77858  13.682  40.430   3.110
 9465W        W77859  16.592   1.291   1.469
 9466W        W77860  24.031   8.895  14.432
 9467W        W77861  12.643  14.169  11.118
 9468W        W77862  42.549  43.593   4.842
 9469W        W77863  15.368  38.439   1.842
 9470W        W77864  37.462  34.891   4.585
 9471W        W77865  16.482  38.165  12.878
 9472W        W77866  30.218   0.496  10.437
 9473W        W77867  34.889  34.314  13.917
 9474W        W77868   7.912  17.488  14.913
 9475W        W77869  15.169  15.391  12.427
 9476W        W77870  42.876  29.752  12.009
 9477W        W77871  41.889  43.732   3.882
 9478W        W77872   0.811  11.595  14.069
 9479W        W77873  32.166  43.393  14.420
 9480W        W77874  26.460  34.666  10.823
 9481W        W77875  13.884  18.038  12.069
 9482W        W77876  35.437   4.722  14.741
 9483W        W77877  35.448  26.224  10.897
 9484W        W77878   6.778  36.983   1.769
 9485W        W77879   9.968   4.426   3.327
 9486W        W77880  31.946   2.129   1.712
 9487W        W77881  15.519  28.939  13.534
 9488W        W77882  12.597   7.098  14.207
 9489W        W77883  12.697  21.804   4.899
 9490W        W77884  37.951  37.474   2.147
 9491W        W77885  24.715  30.404  12.739
 9492W        W77886   8.812   8.665   0.389
 9493W        W77887  43.933   4.468  12.491
 9494W        W77888  12.799  35.345   2.174
 9495W        W77889  42.795   1.716   0.958
 9496W        W77890  17.185  30.051  11.443
 9497W        W77891   4.746  30.369  14.972
 9498W        W77892  27.742  22.788   0.805
 9499W        W77893   8.903  43.206  12.653
 9500W        W77894  37.264  29.441  11.520
 9501W        W77895   3.193  15.811   3.148
 9502W        W77896  40.887  31.911   1.412
 9503W        W77897  33.970   4.689  13.319
 9504W        W77898  25.628   8.201  14.513
 9505W        W77899  21.385  42.855   2.593
 9506W        W77900  32.067  16.072  10.567
 9507W        W77901  34.628  44.895  13.587
 9508W        W77902  35.801   9.255   0.531
 9509W        W77903   2.174  27.908  11.968
 9510W        W77904  29.341  12.725  11.688
 9511W        W77905  27.141  37.124   0.399
 9512W        W77906  21.321  32.173  10.747
 9513W        W77907  29.604  20.735  12.923
 9514W        W77908  35.840   0.681   2.314
 9515W        W77909   1.477  14.608  11.460
 9516W        W77910  13.147  25.890  13.475
 9517W        W77911   1.860  35.823   0.832
 9518W        W77912  35.716   1.040   0.885
 9519W        W77913   4.858  12.395   1.682
 9520W        W77914  41.862  36.914  13.425
 9521W        W77915  35.588   5.117   0.408
 9522W        W77916  23.024  22.262   1.705
 9523W        W77917  14.165  22.632   1.448
 9524W        W77918  29.883  44.842   0.010
 9525W        W77919  12.927  40.659   2.934
 9526W        W77920  37.590   8.817  14.228
 9527W        W77921  28.447  37.606   0.891
 9528W        W77922  19.548   2.649  11.671
 9529W        W77923  31.506  17.516  14.849
 9530W        W77924  33.959  11.159   1.948
 9531W        W77925  25.672  28.103   2.450
 9532W        W77926  33.882  42.832  13.974
 9533W        W77927   5.982  34.346  12.046
 9534W        W77928  14.960   9.248   4.934
 9535W        W77929  32.100  26.629   0.234
 9536W        W77930  11.678  40.306   4.902
 9537W        W77931  13.723  10.875  13.502
 9538W        W77932  27.602  10.957   2.784
 9539W        W77933  25.467  29.623  13.578
 9540W        W77934  18.255   4.303  13.900
 9541W        W77935  42.800  22.239  11.572
 9542W        W77936   3.118   7.107  14.839
 9543W        W77937   4.333  37.346   4.157
 9544W        W77938  25.943  11.681  13.623
 9545W        W77939  13.089  10.373  11.130
 9546W        W77940  21.175  30.444   0.237
 9547W        W77941   3.831  42.515  13.067
 9548W        W77942  26.496  11.251  13.875
 9549W        W77943  20.157   5.291   4.803
 9550W        W77944   2.589  22.720  14.906
 9551W        W77945  27.109  22.512   2.591
 9552W        W77946  19.220  41.069  10.021
 9553W        W77947  25.658  30.474   4.135
 9554W        W77948  24.656  18.469   1.277
 9555W        W77949  44.862  34.872  11.126
 9556W        W77950   3.730  37.334  12.851
 9557W        W77951   3.351  12.239   3.255
 9558W        W77952  30.396  34.569  14.275
 9559W        W77953  26.308  21.192   0.840
 9560W        W77954  37.984  11.905   0.270
 9561W        W77955  15.993  10.793   3.761
 9562W        W77956  44.046  37.531   2.692
 9563W        W77957   0.887  23.552   2.925
 9564W        W77958   1.338   9.170  13.109
 9565W        W77959  39.944  27.425   0.459
 9566W        W77960  42.435  36.417  14.929
 9567W        W77961  18.552  40.439   3.679
 9568W        W77962  27.930  14.239  14.795
 9569W        W77963  36.425  44.925  10.681
 9570W        W77964   6.408   7.268   3.678
 9571W        W77965  39.759  14.741   3.607
 9572W        W77966  29.229  43.881   2.692
 9573W        W77967  38.078  22.781  10.022
 9574W        W77968  12.242  28.562   4.253
 9575W        W77969  29.684  30.970   3.569
 9576W        W77970  29.677  44.472   4.539
 9577W        W77971   1.793  14.846  12.599
 9578W        W77972  21.543  17.091  10.648
 9579W        W77973  40.565  31.413   0.814
 9580W        W77974  14.255   7.310  11.336
 9581W        W77975  19.741  38.179  13.434
 9582W        W77976  22.656  44.876   2.005
 9583W        W77977  22.566   4.238   0.969
 9584W        W77978  19.049   4.709  11.080
 9585W        W77979  32.078   4.905   0.617
 9586W        W77980  41.976  36.520  14.700
 9587W        W77981   0.217  26.617   0.947
 9588W        W77982   9.159  15.624  12.612
 9589W        W77983  16.243  29.360   4.440
 9590W        W77984  34.938  11.277   4.176
 9591W        W77985   7.845   8.371   0.760
 9592W        W77986  36.992  16.189   3.948
 9593W        W77987  34.924  13.439  14.109
 9594W        W77988  44.207   1.003  11.617
 9595W        W77989   7.932   2.275  13.592
 9596W        W77990  36.367   8.930   1.351
 9597W        W77991  23.199  42.560  13.422
 9598W        W77992   7.847  38.955  13.363
 9599W        W77993   1.240  15.328   0.873
 9600W        W77994   5.873  14.566   1.881
 9601W        W77995  40.678  15.943   0.778
 9602W        W77996  43.627   5.890   0.857
 9603W        W77997  38.292  10.833   1.708
 9604W        W77998   6.681  18.216  12.947
 9605W        W77999  28.050  19.428  13.152
 9606W        W78000  36.064  39.975  14.404
 9607W        W78001  34.562  20.611  14.359
 9608W        W78002  14.267  19.630   0.294
 9609W        W78003   4.904  43.228   0.854
 9610W        W78004  27.131   8.332  13.318
 9611W        W78005  18.852  14.837   3.208
 9612W        W78006  28.171  26.456  13.969
 9613W        W78007  18.628  13.064   4.770
 9614W        W78008  29.597  19.037   4.667
 9615W        W78009   2.076  22.081   3.645
 9616W        W78010  31.588   4.859   2.494
 9617W        W78011  40.604  42.709   5.203
 9618W        W78012   8.833  15.219  10.650
 9619W        W78013  29.303   3.084  13.924
 9620W        W78014  39.422  30.459   1.246
 9621W        W78015  42.184  33.858   1.429
 9622W        W78016  18.287  42.897  14.601
 9623W        W78017  28.241  41.290  13.916
 9624W        W78018  39.804  15.582  13.659
 9625W        W78019   1.330  39.321  12.982
 9626W        W78020  42.042  30.660  11.742
 9627W        W78021   6.095  36.721   2.774
 9628W        W78022  35.129  15.121  14.070
 9629W        W78023  11.390  40.846  14.340
 9630W        W78024  19.867   2.883   2.712
 9631W        W78025   2.720   9.932   1.191
 9632W        W78026  28.477  12.128   1.442
 9633W        W78027  29.199  10.901  11.641
 9634W        W78028  21.854  35.270   1.902
 9635W        W78029  43.828  29.973  12.055
 9636W        W78030  12.555   2.852   0.798
 9637W        W78031   6.380  43.477   1.225
 9638W        W78032  38.834   0.954   0.463
 9639W        W78033   3.295  10.626   2.435
 9640W        W78034  30.779  30.135   2.237
 9641W        W78035   3.722  21.683   3.339
 9642W        W78036  21.217  27.765   5.469
 9643W        W78037   9.491  13.357   1.535
 9644W        W78038   2.945  21.200   1.411
 9645W        W78039   3.871   0.782  13.521
 9646W        W78040  43.794  29.372   3.829
 9647W        W78041  30.241  17.368   1.800
 9648W        W78042  20.760  24.129  14.917
 9649W        W78043   3.473  35.260  10.606
 9650W        W78044   4.754  23.309  11.023
 9651W        W78045  38.885  22.635   4.990
 9652W        W78046  18.725  38.074  12.948
 9653W        W78047  41.263  23.342  13.648
 9654W        W78048  19.302   1.402  12.211
 9655W        W78049   7.589  24.725   2.822
 9656W        W78050  41.795   2.558   0.009
 9657W        W78051  34.924  26.531   4.276
 9658W        W78052  32.219  30.090  14.829
 9659W        W78053  37.849   6.704  13.470
 9660W        W78054  39.428  30.834  10.427
 9661W        W78055  22.647   6.406  11.437
 9662W        W78056  38.710  36.753   0.215
 9663W        W78057  32.851  42.103  12.036
 9664W        W78058  16.040  26.491   4.496
 9665W        W78059  28.000  35.914   2.890
 9666W        W78060  41.475  18.692   5.083
 9667W        W78061  37.898   1.386   4.594
 9668W        W78062  39.471  14.310   2.656
 9669W        W78063  12.327  38.059  11.921
 9670W        W78064  27.048  39.865   4.521
 9671W        W78065   3.197  33.518   4.604
 9672W        W78066  35.311  10.323  13.292
 9673W        W78067  26.973  34.020  12.440
 9674W        W78068  38.327  42.087  13.063
 9675W        W78069  31.077  17.239  10.372
 9676W        W78070  10.710  23.540  13.262
 9677W        W78071   0.086  16.443   0.916
 9678W        W78072   5.541  17.247   4.865
 9679W        W78073  31.509  31.035  12.237
 9680W        W78074  21.905  42.046   4.766
 9681W        W78075  39.909   9.146  13.809
 9682W        W78076  14.119  40.528   3.726
 9683W        W78077  41.378  41.017  12.817
 9684W        W78078  17.976  39.534   0.705
 9685W        W78079  11.071  26.736  12.330
 9686W        W78080   3.196  29.020  10.731
 9687W        W78081  16.528   6.509   2.053
 9688W        W78082   0.938  14.207  11.251
 9689W        W78083  21.781  42.502  14.002
 9690W        W78084  14.364  34.677  11.518
 9691W        W78085  44.540  33.044   4.119
 9692W        W78086  18.230  19.759  13.272
 9693W        W78087  21.863  31.789   3.106
 9694W        W78088  11.535  24.718  10.748
 9695W        W78089  16.315  29.154  11.044
 9696W        W78090  37.594   3.873   2.779
 9697W        W78091  17.605  20.326  11.961
 9698W        W78092   5.971  28.642   1.871
 9699W        W78093  42.967  23.139  10.595
 9700W        W78094  15.279  32.398  12.663
 9701W        W78095  31.898  28.401   0.249
 9702W        W78096  38.694  16.705   1.310
 9703W        W78097  13.603  23.226  12.135
 9704W        W78098   2.307  37.548  14.956
 9705W        W78099  23.230  27.505  14.248
 9706W        W78100   3.242  29.616  11.988
 9707W        W78101  27.938  32.401  13.663
 9708W        W78102   1.419  28.878  13.100
 9709W        W78103  28.395  35.181   0.162
 9710W        W78104  22.764  35.243  11.965
 9711W        W78105  22.309  34.604  13.885
 9712W        W78106   5.502   7.867  10.817
 9713W        W78107  36.358  32.155  11.073
 9714W        W78108  32.051  26.795  12.932
 9715W        W78109   5.998  20.103  14.184
 9716W        W78110   5.512  24.406   2.203
 9717W        W78111   6.360  28.037  14.601
 9718W        W78112  27.616  22.897  11.305
 9719W        W78113  37.101  21.614   2.829
 9720W        W78114  36.847   5.651  14.350
 9721W        W78115  21.451  21.071   1.839
 9722W        W78116  15.126   2.791  14.923
 9723W        W78117  23.310  21.599   2.689
 9724W        W78118   6.336   6.419  11.444
 9725W        W78119  20.019  13.369   4.236
 9726W        W78120  24.508  12.667  13.891
 9727W        W78121   8.858   2.497   3.405
 9728W        W78122  13.707  36.358  11.468
 9729W        W78123  19.048  29.634   3.205
 9730W        W78124   7.165   8.582   2.401
 9731W        W78125  21.152  21.656   4.453
 9732W        W78126  33.884   4.995  12.912
 9733W        W78127  44.758  35.950  14.182
 9734W        W78128  21.276  40.463   3.278
 9735W        W78129  21.230  40.804   0.821
 9736W        W78130  35.526  31.015   4.422
 9737W        W78131  41.335  36.451   4.520
 9738W        W78132  29.867  44.689   1.297
 9739W        W78133   6.645   4.020   2.430
 9740W        W78134  40.550   7.621  12.060
 9741W        W78135  42.051   3.949   2.763
 9742W        W78136  34.390   5.125   0.734
 9743W        W78137  17.706  35.438   0.485
 9744W        W78138  17.386  24.190  14.808
 9745W        W78139  22.246   9.258  14.442
 9746W        W78140  42.947  16.163   4.149
 9747W        W78141  27.043   4.970   4.589
 9748W        W78142  22.400  25.486  11.516
 9749W        W78143  37.322  15.300  14.797
 9750W        W78144  30.696   9.889   2.812
 9751W        W78145   1.025  13.671   1.100
 9752W        W78146  32.604  15.577   3.002
 9753W        W78147  23.030  26.061   1.857
 9754W        W78148  23.047   0.270   4.403
 9755W        W78149   6.718  18.512   2.869
 9756W        W78150  18.556  20.963   3.671
 9757W        W78151  26.958  37.953  14.740
 9758W        W78152  44.864  10.665   1.120
 9759W        W78153  44.453  36.752  12.726
 9760W        W78154  21.023  33.502  11.914
 9761W        W78155  34.567  15.908   1.653
 9762W        W78156   4.036  38.007   2.400
 9763W        W78157  16.091  14.204   4.192
 9764W        W78158   6.601  31.124   2.825
 9765W        W78159  17.637   7.983   2.739
 9766W        W78160  37.237  36.749  12.160
 9767W        W78161  39.057  15.190   1.074
 9768W        W78162  10.129  18.639   1.800
 9769W        W78163  41.834   1.866   4.502
 9770W        W78164  11.764  22.878   2.371
 9771W        W78165  14.701  39.059  14.447
 9772W        W78166  19.790  13.098  11.159
 9773W        W78167   4.177  22.535   1.263
 9774W        W78168  43.462  36.955   2.279
 9775W        W78169  19.443  40.506   3.113
 9776W        W78170  23.234  30.517  14.191
 9777W        W78171  23.495  43.313  13.046
 9778W        W78172  32.220  28.750   3.745
 9779W        W78173   5.541  10.253  10.453
 9780W        W78174   5.498  40.890   4.591
 9781W        W78175  29.179  22.091   2.581
 9782W        W78176  17.729  30.247   2.217
 9783W        W78177  40.454   8.269  13.841
 9784W        W78178  22.085  36.897   2.219
 9785W        W78179  12.647  44.689  11.967
 9786W        W78180  36.563  32.036   4.565
 9787W        W78181  38.309  16.358  14.079
 9788W        W78182  42.290  27.407  13.715
 9789W        W78183  36.886   9.626  11.188
 9790W        W78184  44.316  39.002   0.798
 9791W        W78185   2.119   8.396   2.416
 9792W        W78186  33.660  11.361   4.615
 9793W        W78187   7.039   7.642  14.428
 9794W        W78188  44.996  39.415  12.474
 9795W        W78189  32.325  42.231  13.366
 9796W        W78190  37.613  39.355  11.985
 9797W        W78191  37.318  23.220  11.302
 9798W        W78192  32.663   5.296   0.728
 9799W        W78193  34.772  37.939  12.112
 9800W        W78194  36.445  40.783   4.595
 9801W        W78195   5.986   9.851  13.557
 9802W        W78196   8.262  12.687   1.693
 9803W        W78197   9.326  33.114  10.736
 9804W        W78198   6.754   4.137   0.425
 9805W        W78199  11.149   6.261  11.476
 9806W        W78200  15.282  11.261  13.855
 9807W        W78201  36.558  44.790  14.762
 9808W        W78202  28.561  10.700  11.185
 9809W        W78203  10.581  32.668  11.631
 9810W        W78204  42.370  16.861  14.494
 9811W        W78205  27.779  34.482  10.678
 9812W        W78206   4.495   7.476  11.573
 9813W        W78207  15.232  16.150   3.155
 9814W        W78208  29.167  30.389  14.359
 9815W        W78209  17.664  15.077   2.181
 9816W        W78210  27.091  31.660  10.861
 9817W        W78211  43.020  11.824  13.832
 9818W        W78212  21.190  33.423   2.744
 9819W        W78213  36.957  23.237  11.662
 9820W        W78214  21.827   6.372  14.976
 9821W        W78215  15.158  20.602   0.596
 9822W        W78216  38.929  29.076  13.402
 9823W        W78217   3.851   6.759   2.198
 9824W        W78218  43.173  39.573   2.456
 9825W        W78219  38.805  34.380  14.390
 9826W        W78220  30.273  29.542  14.047
 9827W        W78221  44.275  40.835  13.370
 9828W        W78222  44.286  42.543  11.114
 9829W        W78223  25.692  40.917   1.188
 9830W        W78224  19.123  19.136   1.229
 9831W        W78225  17.588  27.196  11.837
 9832W        W78226   2.874  30.469  12.654
 9833W        W78227  36.193  33.421  14.042
 9834W        W78228  44.807  17.119   0.535
 9835W        W78229   4.739   1.958   4.094
 9836W        W78230  42.479  31.572   3.267
 9837W        W78231  38.662  33.037  14.101
 9838W        W78232  19.581  29.341   4.497
 9839W        W78233  41.479   2.478  11.963
 9840W        W78234  32.074  33.160  11.054
 9841W        W78235  14.353  30.420  13.938
 9842W        W78236  33.850   3.191  13.826
 9843W        W78237  30.150  21.069   0.540
 9844W        W78238  13.070  36.191   3.337
 9845W        W78239  16.235  36.648  13.598
 9846W        W78240  18.012  17.884  14.900
 9847W        W78241   3.846  37.414  13.817
 9848W        W78242  35.833   5.273  12.188
 9849W        W78243   8.403  37.506  11.623
 9850W        W78244  15.594  13.835   4.146
 9851W        W78245  33.572  32.453   0.827
 9852W        W78246  20.467  29.196  14.767
 9853W        W78247  24.186  12.581  13.479
 9854W        W78248   3.121  12.589   2.231
 9855W        W78249   6.122  28.218   4.957
 9856W        W78250  16.069  21.264   0.340
 9857W        W78251   2.181   7.368   1.297
 9858W        W78252  30.657  14.549   4.596
 9859W        W78253  24.683   4.484  13.910
 9860W        W78254   8.592   6.403   4.915
 9861W        W78255  44.804  10.285  12.043
 9862W        W78256  13.163   5.774  10.534
 9863W        W78257  25.697  41.475  14.898
 9864W        W78258  32.505  35.970   0.112
 9865W        W78259   5.556  11.725  14.652
 9866W        W78260  43.835  29.237  13.117
 9867W        W78261   8.440  23.071   0.331
 9868W        W78262  36.954   8.793  11.934
 9869W        W78263  36.516  13.846  11.599
 9870W        W78264  15.419  43.311  14.248
 9871W        W78265  31.358  40.839   1.267
 9872W        W78266  18.635   3.169  13.355
 9873W        W78267  25.067  39.391   4.074
 9874W        W78268  28.793   0.802   0.243
 9875W        W78269  40.077  21.826  13.417
 9876W        W78270  18.294  44.386  13.886
 9877W        W78271  14.397  23.121  14.364
 9878W        W78272  19.985  25.557   0.582
 9879W        W78273  35.438  20.826   3.309
 9880W        W78274  40.945  16.035   4.608
 9881W        W78275  38.828  38.751  13.422
 9882W        W78276   8.196  30.357   4.062
 9883W        W78277   8.946  37.520   2.774
 9884W        W78278  20.260  17.642   4.106
 9885W        W78279  14.832   8.221   3.192
 9886W        W78280   3.853   5.884   0.512
 9887W        W78281  25.977   5.314  12.184
 9888W        W78282  25.729   9.441  12.598
 9889W        W78283  31.228  27.243  12.175
 9890W        W78284  30.665   4.809  13.678
 9891W        W78285  25.661  21.633   3.449
 9892W        W78286   9.639  10.674   2.809
 9893W        W78287   0.818  29.592  11.796
 9894W        W78288  11.366  35.945   4.879
 9895W        W78289  44.849  39.917  14.398
 9896W        W78290  43.449   2.448   0.911
 9897W        W78291  10.871  18.219  13.425
 9898W        W78292   2.798  43.457  10.937
 9899W        W78293  34.887  35.822  13.839
 9900W        W78294  34.109   3.512  12.777
 9901W        W78295  40.605  41.810  11.360
 9902W        W78296  29.203   1.316   4.538
 9903W        W78297  36.592  10.955  11.172
 9904W        W78298  37.563  10.108  13.280
 9905W        W78299   1.871  41.286  11.623
 9906W        W78300  37.673   7.763   2.267
 9907W        W78301   2.003  19.930   4.181
 9908W        W78302  41.284  30.043   2.105
 9909W        W78303  36.974  28.533   2.745
 9910W        W78304  36.391  40.164  12.030
 9911W        W78305  15.414  36.460  12.805
 9912W        W78306  40.637  28.700   3.089
 9913W        W78307  36.097  30.498   1.685
 9914W        W78308  37.319   0.395  11.658
 9915W        W78309  32.404  44.141  11.896
 9916W        W78310  27.971  29.283  14.439
 9917W        W78311  26.074  26.952   0.305
 9918W        W78312   3.284  29.685  13.291
 9919W        W78313  10.739  29.874  14.887
 9920W        W78314  14.780  33.136  12.483
 9921W        W78315   5.168  39.565  10.989
 9922W        W78316   2.783  44.226  12.892
 9923W        W78317  38.534  33.607  10.679
 9924W        W78318   6.427   6.747  10.087
 9925W        W78319  35.955   1.753   3.518
 9926W        W78320  18.139  34.192   0.728
 9927W        W78321  31.161  17.788   2.607
 9928W        W78322   2.245  11.673   0.962
 9929W        W78323  30.446   0.287   1.765
 9930W        W78324   9.465  10.168  11.109
 9931W        W78325  25.558  27.027  14.313
 9932W        W78326   9.790  43.429   3.396
 9933W        W78327  20.134   4.496   4.907
 9934W        W78328  38.338  13.305   2.613
 9935W        W78329  29.293  29.034   4.055
 9936W        W78330  26.572  26.497  14.231
 9937W        W78331  29.779  38.999  13.470
 9938W        W78332  25.691  19.230  10.612
 9939W        W78333  20.294  28.552  13.516
 9940W        W78334  23.780   9.680   5.383
 9941W        W78335  36.145   7.323   1.422
 9942W        W78336  40.394  14.191   4.028
 9943W        W78337  43.550  37.781  12.008
 9944W        W78338  18.041   2.833   2.318
 9945W        W78339  41.322  40.507   3.234
 9946W        W78340  42.813   6.255   0.527
 9947W        W78341  28.519  37.286   1.324
 9948W        W78342  38.343   2.756  12.471
 9949W        W78343   1.677  34.897  12.762
 9950W        W78344   7.028  11.908   0.524
 9951W        W78345  34.978  13.243  13.200
 9952W        W78346  42.332   5.427   3.556
 9953W        W78347  11.607  27.957  13.932
 9954W        W78348   2.358  33.488   4.422
 9955W        W78349  38.757   1.999  13.840
 9956W        W78350  16.659  19.839   5.043
 9957W        W78351   1.076  32.066   2.286
 9958W        W78352  34.788  28.522   4.082
 9959W        W78353  14.147  43.935  10.639
 9960W        W78354  13.404  31.046   4.592
 9961W        W78355   6.876  25.154  12.525
 9962W        W78356   9.225  23.575  14.445
 9963W        W78357   7.699   6.833   5.613
 9964W        W78358  12.322  35.186  12.034
 9965W        W78359  29.459  10.837   1.799
 9966W        W78360  44.927  32.478  13.827
 9967W        W78361   3.992  20.708   3.357
 9968W        W78362  28.107  23.011   1.827
 9969W        W78363  18.739  21.218   0.074
 9970W        W78364  39.086   9.991   0.841
 9971W        W78365  31.079  17.454   1.237
 9972W        W78366  37.804   9.540   4.186
 9973W        W78367  37.379  35.471   1.550
 9974W        W78368  42.971   1.580  11.658
 9975W        W78369  40.499  38.449  12.949
 9976W        W78370  31.185   3.200   2.508
 9977W        W78371  26.965  33.421  11.673
 9978W        W78372  40.693  38.320  10.379
 9979W        W78373  44.978  15.818  11.605
 9980W        W78374  44.019  40.117  13.092
 9981W        W78375   8.226   6.156  12.879
 9982W        W78376   9.850  33.046  12.566
 9983W        W78377  10.410   9.686   0.544
 9984W        W78378  43.907  30.989   1.600
 9985W        W78379   2.264  22.194   0.677
 9986W        W78380  22.179  10.217  10.259
 9987W        W78381   6.269  36.837  11.444
 9988W        W78382  23.096  24.492   1.549
 9989W        W78383   1.580  26.974  14.823
 9990W        W78384  27.844   5.578   0.759
 9991W        W78385   0.924  21.494  14.710
 9992W        W78386  38.048  33.284  11.270
 9993W        W78387  40.689  37.778   4.862
 9994W        W78388  30.033  32.017  10.973
 9995W        W78389  17.564  21.717   2.230
 9996W        W78390  42.794   0.874  11.072
 9997W        W78391  10.338  13.872  13.043
 9998W        W78392   0.054  32.295   3.765
 9999W        W78393  16.398  28.018   1.563
10000W        W78394   7.170  11.756  10.575
10001W        W78395  14.172  10.631   2.421
10002W        W78396   1.002  41.861   2.202
10003W        W78397  19.720  12.619   3.278
10004W        W78398  40.386  33.400   0.073
10005W        W78399  13.149  32.565  10.799
10006W        W78400  20.694  12.233   2.395
10007W        W78401  26.171  13.642   4.437
10008W        W78402  27.533  38.220  11.246
10009W        W78403  29.403   8.118   0.530
10010W        W78404  42.069  27.388   3.364
10011W        W78405  39.400  24.516  13.046
10012W        W78406  25.126  43.415   2.238
10013W        W78407  41.987  21.705  11.277
10014W        W78408  10.725  31.276   4.455
10015W        W78409  21.110  30.047   3.144
10016W        W78410   4.350  17.079  11.804
10017W        W78411  21.168  10.365  11.892
10018W        W78412  12.354  43.008   2.934
10019W        W78413   7.348  39.272   1.396
10020W        W78414  15.195  35.145  11.839
10021W        W78415  25.172  36.278  13.073
10022W        W78416  21.723  44.505   0.659
10023W        W78417  23.047  11.205  11.553
10024W        W78418   8.812  38.843  13.098
10025W        W78419  23.303  18.057   1.219
10026W        W78420  29.518  40.555  12.038
10027W        W78421   7.015  21.016   2.091
10028W        W78422  33.132  38.674  10.400
10029W        W78423  31.339   3.855  13.117
10030W        W78424  25.986  15.244   2.421
10031W        W78425  19.104  28.443  11.163
10032W        W78426  23.117  29.940   0.872
10033W        W78427  27.974  38.856   0.358
10034W        W78428   1.224  12.623  14.654
10035W        W78429  21.038  17.203   0.062
10036W        W78430  42.152  18.742  13.414
10037W        W78431  11.770  19.586   1.885
10038W        W78432  39.633  27.052  14.333
10039W        W78433  26.915  39.597  12.864
10040W        W78434   5.008   8.963  12.059
10041W        W78435  25.213  10.639   2.304
10042W        W78436  40.865  11.063  12.812
10043W        W78437  40.691  39.910  10.990
10044W        W78438  22.617   0.039   2.838
10045W        W78439  24.518  29.205  14.329
10046W        W78440   5.703  23.593  12.046
10047W        W78441  43.620  22.514  11.817
10048W        W78442  36.903  22.930  11.145
10049W        W78443  24.903  40.524   1.879
10050W        W78444  26.252   0.815  10.710
10051W        W78445  42.508  22.283  13.973
10052W        W78446  38.080  17.265   4.972
10053W        W78447   0.290   6.704  14.334
10054W        W78448  40.914  20.753   4.380
10055W        W78449  21.816  42.750  13.518
10056W        W78450  42.404  19.168  13.617
10057W        W78451  33.583  44.520  12.921
10058W        W78452  37.016  23.271   4.385
10059W        W78453  26.282  24.618   3.822
10060W        W78454  18.053   5.725   4.514
10061W        W78455  43.978  15.646   3.209
10062W        W78456  17.871   9.414   0.738
10063W        W78457  11.638   8.907   0.493
10064W        W78458  23.022  44.569   2.204
10065W        W78459  24.948  19.173  13.352
10066W        W78460  40.004  20.000  11.633
10067W        W78461  34.949  19.289   2.382
10068W        W78462  14.892   2.930  11.556
10069W        W78463  37.084  23.230  12.174
10070W        W78464  36.521  36.671   1.722
10071W        W78465  37.131  35.446  14.248
10072W        W78466   3.859  13.689  11.368
10073W        W78467  23.111  25.944  12.031
10074W        W78468  11.515  44.473   5.077
10075W        W78469  38.026  17.613   3.652
10076W        W78470  11.134  15.810  14.071
10077W        W78471  15.271  10.154  13.098
10078W        W78472  21.513  38.419  13.229
10079W        W78473  29.148  44.713  12.537
10080W        W78474  13.666   8.165   2.613
10081W        W78475  22.675  43.995  14.422
10082W        W78476   2.044   0.086   2.416
10083W        W78477  33.837  44.324   3.161
10084W        W78478   3.885  32.664  13.949
10085W        W78479  29.891  31.392   3.788
10086W        W78480   3.227  32.815  14.813
10087W        W78481  34.745  39.508  11.787
10088W        W78482  15.078  21.712   2.570
10089W        W78483   2.334  28.721  12.223
10090W        W78484  36.470   4.203  12.167
10091W        W78485  40.549   2.400  12.992
10092W        W78486  16.605  43.386   0.610
10093W        W78487  11.654  39.955   0.100
10094W        W78488   3.164   5.315   2.156
10095W        W78489   5.720  33.550  12.445
10096W        W78490  14.574  16.500  10.904
10097W        W78491  35.114  27.666  11.542
10098W        W78492  11.101  37.509   0.953
10099W        W78493   1.212  26.277   4.540
10100W        W78494  39.029  18.638  10.648
10101W        W78495  28.608  18.002   0.931
10102W        W78496  33.150   0.044   0.427
10103W        W78497  19.149   1.812   1.380
10104W        W78498  35.924   1.965  13.595
10105W        W78499   9.700   6.657  13.584
10106W        W78500  22.533  20.054   0.925
10107W        W78501  42.910  24.520   3.594
10108W        W78502  42.332  13.098  14.022
10109W        W78503   8.052   7.346  12.453
10110W        W78504  28.507  18.088   4.048
10111W        W78505  27.340   0.382   0.468
10112W        W78506   2.867   6.992   0.292
10113W        W78507  11.404  20.580   2.808
10114W        W78508   1.666  35.294   0.056
10115W        W78509  28.129  28.904   4.303
10116W        W78510  28.114  17.642  14.465
10117W        W78511  10.807  32.674  14.386
10118W        W78512   3.279  11.596   1.700
10119W        W78513  40.106  27.068  12.590
10120W        W78514  14.401  34.743   1.670
10121W        W78515  19.626  34.620   4.590
10122W        W78516  42.232   4.288   0.952
10123W        W78517  10.704   1.946   3.637
10124W        W78518  30.676  29.110   0.652
10125W        W78519  40.437  23.289   2.320
10126W        W78520  12.713   8.694   1.913
10127W        W78521  32.719   0.513  14.586
10128W        W78522  31.542  14.762   0.810
10129W        W78523  18.694  38.092   2.269
10130W        W78524   6.217  41.472   2.629
10131W        W78525  31.463  19.283  14.366
10132W        W78526  40.286  44.709  14.846
10133W        W78527  28.474  43.665  13.985
10134W        W78528   5.681  37.862  13.502
10135W        W78529  37.347   3.955   2.299
10136W        W78530  32.480  41.976  10.790
10137W        W78531   1.707  10.212  13.028
10138W        W78532  32.846   4.214  11.256
10139W        W78533  42.896  35.322  10.726
10140W        W78534  35.444   1.807   4.113
10141W        W78535  26.134  40.613  11.280
10142W        W78536   0.904  23.727  12.114
10143W        W78537  13.549  30.161  13.418
10144W        W78538  30.113  30.061   0.101
10145W        W78539  24.062  42.522  10.260
10146W        W78540   1.392  11.914   0.804
10147W        W78541  24.523   0.322  10.538
10148W        W78542  35.048  19.944  14.826
10149W        W78543  42.153  26.312   5.116
10150W        W78544  36.925  18.810   3.202
10151W        W78545  12.986   7.432   4.057
10152W        W78546  32.915  26.498   2.667
10153W        W78547  33.486  23.881  12.467
10154W        W78548   9.811  28.145   1.239
10155W        W78549   3.908  31.150   2.915
10156W        W78550  36.979   4.428   3.817
10157W        W78551  28.036  21.306   3.780
10158W        W78552  28.720  44.783   3.316
10159W        W78553   8.488   1.660  13.389
10160W        W78554  30.614  37.200  11.358
10161W        W78555  43.821  26.702   2.234
10162W        W78556   4.172  27.655  13.010
10163W        W78557  26.652  26.887  14.563
10164W        W78558  12.354  27.114  12.626
10165W        W78559  41.529   3.431  10.426
10166W        W78560  25.168  44.442   2.095
10167W        W78561  16.053  30.187  13.036
10168W        W78562   6.620   9.413  14.905
10169W        W78563  25.749  26.085  12.017
10170W        W78564   8.999  12.876   0.900
10171W        W78565  37.487  12.286   4.126
10172W        W78566   3.490   4.248  12.180
10173W        W78567   4.792  25.041   2.157
10174W        W78568  25.665  35.307  14.053
10175W        W78569  22.233  34.510   1.322
10176W        W78570  38.612  43.051  13.967
10177W        W78571  35.918   1.330   0.306
10178W        W78572  41.329  27.481  11.454
10179W        W78573  15.803  16.803   2.695
10180W        W78574  10.281  34.070   2.854
10181W        W78575  40.926  24.801  14.689
10182W        W78576  15.220  41.585  11.050
10183W        W78577  44.407  34.041   2.678
10184W        W78578  16.790   8.474   0.355
10185W        W78579  36.472  31.989   1.292
10186W        W78580  43.348  10.781  10.996
10187W        W78581  20.691  30.591  10.533
10188W        W78582  23.468   8.888   4.520
10189W        W78583  28.906  22.423  12.799
10190W        W78584   1.655  25.574   0.952
10191W        W78585  33.463  11.602  10.625
10192W        W78586  36.993  14.787  13.456
10193W        W78587  40.916  23.542  12.398
10194W        W78588   9.512  35.548   1.356
10195W        W78589  31.430  29.144  14.277
10196W        W78590  16.531  14.498  12.843
10197W        W78591  41.531  22.785  11.120
10198W        W78592  37.710   9.896  10.993
10199W        W78593   5.160  28.137   3.103
10200W        W78594  23.726  44.811   1.787
10201W        W78595  28.144  14.092  12.353
10202W        W78596  29.643  35.065  14.053
10203W        W78597  32.205  28.637  13.013
10204W        W78598  26.414   0.384   1.407
10205W        W78599  43.424  39.837   3.252
10206W        W78600  21.580  28.852  11.124
10207W        W78601  13.652  34.800   0.052
10208W        W78602   4.543  15.232  14.732
10209W        W78603  23.071   8.760   2.785
10210W        W78604  10.655  11.076   0.529
10211W        W78605   4.264  18.041  12.997
10212W        W78606  15.188  26.705   1.674
10213W        W78607  41.983  41.431   3.666
10214W        W78608  15.622   2.458  11.097
10215W        W78609   9.440  41.468   4.502
10216W        W78610   2.765   6.538  14.087
10217W        W78611  16.433  15.492   0.393
10218W        W78612  28.657   3.449   0.541
10219W        W78613  14.083   6.235   0.577
10220W        W78614  43.828  18.698  13.058
10221W        W78615  38.016  15.161  13.543
10222W        W78616  36.072  25.494  14.539
10223W        W78617  13.546  20.288  14.348
10224W        W78618  39.088  16.115  11.251
10225W        W78619  26.750  31.034   2.349
10226W        W78620   3.238  41.533  11.619
10227W        W78621  40.323  30.275  10.956
10228W        W78622  29.877   3.695   4.208
10229W        W78623   4.679  24.589   0.926
10230W        W78624  17.267  10.831   2.184
10231W        W78625  40.750   2.210  12.546
10232W        W78626  13.335  19.262   1.328
10233W        W78627  16.502  25.009   4.229
10234W        W78628   6.766  19.216   0.394
10235W        W78629  18.305   2.378   2.241
10236W        W78630  37.953  44.825   2.781
10237W        W78631  33.172  22.137   2.210
10238W        W78632   6.234   4.731   1.097
10239W        W78633  19.827  20.941   5.041
10240W        W78634  21.225   5.890  12.413
10241W        W78635  25.668   4.982   0.962
10242W        W78636  24.647  42.990  14.403
10243W        W78637  44.741  32.514   4.142
10244W        W78638  31.559  44.379  12.888
10245W        W78639  33.843   6.123   3.711
10246W        W78640   0.785  17.110   3.748
10247W        W78641   9.298  43.941  12.526
10248W        W78642  44.807  38.451   3.639
10249W        W78643  43.990   2.149   2.183
10250W        W78644  30.516  43.208  14.842
10251W        W78645  36.747   2.490  14.951
10252W        W78646  37.960  35.042   4.541
10253W        W78647  39.979  40.369  10.710
10254W        W78648  22.263  42.515   4.006
10255W        W78649  40.014  25.530   3.623
10256W        W78650  17.205  15.840  13.247
10257W        W78651  23.956  14.821  14.091
10258W        W78652   0.958  43.241   3.377
10259W        W78653   2.830  23.324  14.460
10260W        W78654  25.757  19.811  10.513
10261W        W78655  38.443   2.977   2.922
10262W        W78656   4.471   1.401   3.626
10263W        W78657  42.693  42.269  13.907
10264W        W78658   4.344  41.475   2.914
10265W        W78659  18.138  35.956  12.288
10266W        W78660  36.579  27.176   1.700
10267W        W78661  20.032   8.282   4.524
10268W        W78662  19.158  21.013  12.935
10269W        W78663  30.464  10.254   2.533
10270W        W78664  41.347  37.757   0.312
10271W        W78665  26.622  20.951   3.095
10272W        W78666  22.722   8.679  11.940
10273W        W78667  36.534  15.051  13.214
10274W        W78668  20.251   1.467   0.710
10275W        W78669   5.792  23.116  12.284
10276W        W78670  20.986  18.630   2.325
10277W        W78671   3.690   8.089  13.952
10278W        W78672  10.170  16.499  10.493
10279W        W78673  27.827  16.732   2.682
10280W        W78674  11.969  25.354  11.194
10281W        W78675  34.117  17.558   1.209
10282W        W78676  11.698  24.194   0.524
10283W        W78677   5.019  28.250  12.993
10284W        W78678  12.120  32.397  13.973
10285W        W78679  29.955  17.158   1.410
10286W        W78680  13.074  42.064   0.984
10287W        W78681  19.069  43.391   4.626
10288W        W78682  36.949  41.414   9.895
10289W        W78683  14.123  21.057   0.361
10290W        W78684  16.251  14.088   0.181
10291W        W78685  36.546  28.928   0.277
10292W        W78686  34.393   8.221   1.246
10293W        W78687  31.125  41.998   0.102
10294W        W78688  18.091   0.931   3.513
10295W        W78689  26.472  39.852   0.846
10296W        W78690  29.445  35.966   3.097
10297W        W78691  14.796   3.258   3.792
10298W        W78692   9.646  14.627  14.047
10299W        W78693  30.637  10.328  14.130
10300W        W78694   1.799   9.100   0.929
10301W        W78695  13.865  33.679   2.201
10302W        W78696  18.307   6.165  12.170
10303W        W78697  32.576  35.474  13.877
10304W        W78698  11.791   6.667  12.049
10305W        W78699   2.473  34.973   1.483
10306W        W78700  21.186  26.787   2.726
10307W        W78701  44.922  17.843  13.502
10308W        W78702  29.135  25.503   3.659
10309W        W78703  16.310  26.320  14.961
10310W        W78704  25.921  15.111  11.514
10311W        W78705  38.665  38.778   2.303
10312W        W78706  39.430  22.001   4.536
10313W        W78707  43.919  18.741   2.172
10314W        W78708  15.565  37.414  12.842
10315W        W78709   2.904  14.635   2.274
10316W        W78710   1.247  21.543  10.809
10317W        W78711  13.693   3.811  14.372
10318W        W78712   6.993  40.288   4.153
10319W        W78713   8.391  16.311   0.296
10320W        W78714  37.658   8.722   1.992
10321W        W78715   8.166  40.906   1.191
10322W        W78716  15.360  44.448   2.438
10323W        W78717  16.725   6.713  14.622
10324W        W78718  39.132  36.144  14.660
10325W        W78719  38.351   9.825  10.770
10326W        W78720  43.587  39.717   0.457
10327W        W78721  38.161  25.257   4.821
10328W        W78722   7.918  22.755  10.344
10329W        W78723  11.941  35.921   2.272
10330W        W78724  31.637  20.268   2.855
10331W        W78725   1.386  33.121   4.062
10332W        W78726  10.448  33.176  10.207
10333W        W78727  44.937  41.433   0.726
10334W        W78728   9.311  38.149   4.886
10335W        W78729  36.920  12.037  13.904
10336W        W78730  11.781  31.742  14.455
10337W        W78731   5.730  31.732   3.601
10338W        W78732  25.679  10.883   4.183
10339W        W78733  18.440  29.356   1.343
10340W        W78734   7.785  21.212  14.516
10341W        W78735  33.978   0.688  12.569
10342W        W78736  18.086  24.394  10.837
10343W        W78737  32.146  42.784   4.221
10344W        W78738  29.078  15.579  14.317
10345W        W78739  38.043   2.463  14.592
10346W        W78740  16.790  16.088   4.206
10347W        W78741  26.512   0.768  14.075
10348W        W78742   5.839  10.646   1.244
10349W        W78743  13.305  24.402  13.853
10350W        W78744  23.012   1.986   0.359
10351W        W78745  18.275  37.206  13.979
10352W        W78746   7.149  38.002   1.147
10353W        W78747  13.281  41.839  13.947
10354W        W78748  21.729  27.398   5.463
10355W        W78749   0.241  29.382  12.992
10356W        W78750  14.655  22.977  11.577
10357W        W78751   8.167  11.697  13.371
10358W        W78752   6.759  36.533   4.684
10359W        W78753  17.785  29.989   1.749
10360W        W78754   2.429  26.447  14.188
10361W        W78755  43.578   8.200  10.675
10362W        W78756  43.382   8.219   2.392
10363W        W78757  33.429  13.094   4.369
10364W        W78758  35.987  12.771  10.836
10365W        W78759  23.538   2.408  12.073
10366W        W78760  15.658   7.270   2.428
10367W        W78761   3.510  36.990  14.462
10368W        W78762   7.716  44.032   1.339
10369W        W78763   7.678  24.593  13.148
10370W        W78764   7.728   9.883   0.158
10371W        W78765  36.561  20.097   1.300
10372W        W78766  14.822  33.288   0.759
10373W        W78767  23.808   9.312  13.553
10374W        W78768  25.651   4.834   1.857
10375W        W78769  14.771  18.234   4.262
10376W        W78770  27.116  26.074   1.196
10377W        W78771   0.430   3.340   2.830
10378W        W78772  43.302  22.726   0.823
10379W        W78773  26.082  28.407   3.245
10380W        W78774   0.177  17.157   1.930
10381W        W78775  13.199  23.000   0.808
10382W        W78776  14.539  28.522  13.954
10383W        W78777  22.075   1.110  12.311
10384W        W78778  25.559  39.606   3.743
10385W        W78779   9.510  27.303   2.236
10386W        W78780  29.472   6.096   3.223
10387W        W78781  41.356  41.771   2.724
10388W        W78782  32.426  21.513   4.238
10389W        W78783  43.956  40.527   2.578
10390W        W78784  18.333  11.337  10.630
10391W        W78785  11.616  25.616   3.375
10392W        W78786  41.379  31.394  12.414
10393W        W78787   8.437   2.171  13.502
10394W        W78788  32.163  30.432  10.591
10395W        W78789  12.861  37.603  13.376
10396W        W78790  26.647  35.061  13.925
10397W        W78791  22.598  37.386  14.058
10398W        W78792  42.787   7.605   3.191
10399W        W78793  20.526  31.904  14.278
10400W        W78794  19.808  41.793  14.616
10401W        W78795  43.036   1.286  14.703
10402W        W78796   7.394  26.601   4.109
10403W        W78797  42.895  44.865   2.897
10404W        W78798  26.499  23.563  13.924
10405W        W78799  30.040  32.892   2.347
10406W        W78800   4.675  30.380   3.373
10407W        W78801  12.455  14.569   4.269
10408W        W78802   5.285  17.069   1.148
10409W        W78803  25.309  41.113   2.697
10410W        W78804   6.953  29.237  13.973
10411W        W78805  16.264   7.247   3.259
10412W        W78806  12.103  43.508  12.426
10413W        W78807   2.431  15.652  12.607
10414W        W78808  43.235   9.659   0.255
10415W        W78809  19.136   1.926  12.517
10416W        W78810  42.840  36.842   1.359
10417W        W78811  13.178  33.250  14.579
10418W        W78812  18.228  24.434   0.294
10419W        W78813  10.059  44.761  13.134
10420W        W78814  13.219  14.909  11.859
10421W        W78815  20.341  18.094   3.221
10422W        W78816  29.036  34.622  11.935
10423W        W78817  34.468  28.144  14.930
10424W        W78818  31.869  18.130   4.253
10425W        W78819  40.071  14.415  11.513
10426W        W78820  28.653   8.257   4.109
10427W        W78821  19.942  29.093   3.174
10428W        W78822  30.503   1.567  12.524
10429W        W78823  32.053   8.958  13.875
10430W        W78824  14.726  23.148   2.715
10431W        W78825  22.663  40.141  13.504
10432W        W78826  19.388  31.103   1.787
10433W        W78827  12.565  13.724   3.309
10434W        W78828   5.416  26.613   0.263
10435W        W78829  10.224  41.055   1.315
10436W        W78830  14.072   5.452   1.076
10437W        W78831   4.362  38.507   0.354
10438W        W78832  23.830  19.572   0.859
10439W        W78833  16.769  41.434  13.336
10440W        W78834   3.019   1.499   1.153
10441W        W78835  20.681   5.264   1.851
10442W        W78836   5.310  21.505   4.144
10443W        W78837  32.670  43.799  11.627
10444W        W78838  43.025   9.214  11.383
10445W        W78839  20.464  24.679  10.496
10446W        W78840   4.293  27.012   3.273
10447W        W78841  23.303  22.852   0.777
10448W        W78842  16.882  18.279  14.104
10449W        W78843  19.736   5.304  12.584
10450W        W78844  25.654  29.950   4.188
10451W        W78845  10.301  28.659   4.861
10452W        W78846  24.332   9.673  10.655
10453W        W78847  15.677  34.523  14.896
10454W        W78848  42.444  35.066   2.038
10455W        W78849  25.115  26.588   3.848
10456W        W78850   5.727  19.842  10.664
10457W        W78851  32.784  28.034  14.280
10458W        W78852   1.210  10.839  13.974
10459W        W78853   2.770   0.806   0.419
10460W        W78854   4.247  29.132   0.822
10461W        W78855  26.714  30.624  14.003
10462W        W78856   6.427   8.953   3.445
10463W        W78857   8.794  12.924   1.388
10464W        W78858  13.799  40.099  11.626
10465W        W78859  17.840  39.141  13.413
10466W        W78860  34.931   2.919   1.214
10467W        W78861  19.333   2.393   1.214
10468W        W78862  10.403   6.543   4.039
10469W        W78863  32.088  24.533   2.258
10470W        W78864  25.304  31.447   0.892
10471W        W78865  37.910  42.472   4.862
10472W        W78866  43.998  31.137  12.954
10473W        W78867  28.386  40.570   2.376
10474W        W78868   8.465   3.379  11.014
10475W        W78869  19.147  32.464   2.283
10476W        W78870  16.729  25.073  14.800
10477W        W78871   0.279  12.552  14.496
10478W        W78872   3.896   0.376  13.845
10479W        W78873   7.864  42.359  11.069
10480W        W78874   3.289   2.193  14.227
10481W        W78875  17.545   5.076  10.324
10482W        W78876  14.907  18.450  13.628
10483W        W78877  15.547  36.939  11.078
10484W        W78878  10.148  19.786   2.624
10485W        W78879  23.797  40.967   0.946
10486W        W78880  33.994  25.049   0.215
10487W        W78881  13.035  36.346  12.973
10488W        W78882  28.775   6.737  11.500
10489W        W78883  23.982  39.621   0.363
10490W        W78884  25.616  34.936   2.609
10491W        W78885   7.858  40.478   4.485
10492W        W78886  32.776   2.585  11.058
10493W        W78887  25.881   5.097   1.429
10494W        W78888  11.572  22.290   4.615
10495W        W78889   0.246  16.043   4.445
10496W        W78890  21.813   0.363  12.948
10497W        W78891  32.043  42.456  14.263
10498W        W78892   1.794  12.669   2.426
10499W        W78893  34.714  23.243   1.829
10500W        W78894   2.422  42.419   3.361
10501W        W78895   9.370  21.585  11.532
10502W        W78896  30.745   0.751  12.093
10503W        W78897  14.267  10.696  13.417
10504W        W78898  23.947  17.345  11.247
10505W        W78899  27.292  14.049  11.724
10506W        W78900  36.338  29.667   2.606
10507W        W78901  35.677   6.728   3.722
10508W        W78902  18.681  32.994   2.886
10509W        W78903  24.245   4.031   4.641
10510W        W78904   3.412  40.967  10.768
10511W        W78905   5.254  27.141   3.219
10512W        W78906  39.476  37.984   3.353
10513W        W78907   8.723  12.560   3.252
10514W        W78908  11.922  15.783  11.110
10515W        W78909  27.138  29.310  13.009
10516W        W78910  13.741  20.731   0.821
10517W        W78911  32.983   2.883   3.423
10518W        W78912  40.432   4.190  13.474
10519W        W78913  36.061  26.867  12.700
10520W        W78914  19.088   0.825   4.475
10521W        W78915  12.163   2.602  12.557
10522W        W78916   4.898  17.264  11.150
10523W        W78917  20.696   9.379   4.808
10524W        W78918  12.311  10.883  13.803
10525W        W78919  28.637  27.645  14.052
10526W        W78920  19.216   6.249   0.105
10527W        W78921  22.455   2.403   4.137
10528W        W78922  44.757   7.656   1.398
10529W        W78923  38.669  28.887   5.089
10530W        W78924  15.784   4.712   0.886
10531W        W78925  16.676   3.144   5.005
10532W        W78926  10.839  41.845  13.222
10533W        W78927  36.008  32.032   4.600
10534W        W78928  29.243  42.861  11.638
10535W        W78929  21.537  39.735   1.016
10536W        W78930   8.177  17.492   2.906
10537W        W78931  20.311  12.868   4.144
10538W        W78932   3.469  22.956  12.382
10539W        W78933  14.023  42.312  10.685
10540W        W78934  39.724  12.855   2.787
10541W        W78935  24.246  19.109  14.422
10542W        W78936  38.375  24.094  14.324
10543W        W78937  32.367  16.168   3.321
10544W        W78938  44.650   3.322   2.736
10545W        W78939   3.831   6.751  10.761
10546W        W78940  44.728   3.813   2.593
10547W        W78941  29.223   3.631   3.651
10548W        W78942   1.582  15.277  12.802
10549W        W78943  23.456  38.329  11.594
10550W        W78944  20.916  29.361   2.149
10551W        W78945   8.148  32.292  13.497
10552W        W78946  11.917  27.630  11.073
10553W        W78947  42.368  34.053  11.669
10554W        W78948  42.871  34.389  11.067
10555W        W78949  23.429  40.250  12.065
10556W        W78950  21.213  31.264   3.092
10557W        W78951   3.465  27.550  11.255
10558W        W78952  27.163  10.206  11.010
10559W        W78953  36.684  41.520   4.498
10560W        W78954  29.878  12.174  12.013
10561W        W78955  25.721  38.339  10.668
10562W        W78956  16.274  24.965  11.626
10563W        W78957   0.332   0.864   0.037
10564W        W78958  31.889  31.639  14.104
10565W        W78959  44.765  25.539   4.705
10566W        W78960  44.987   4.397   0.478
10567W        W78961  33.507  15.762  10.994
10568W        W78962  43.121  38.409  14.027
10569W        W78963  22.453   7.250  10.381
10570W        W78964  36.447   0.835  13.705
10571W        W78965  43.956  12.616   0.294
10572W        W78966   4.678  32.979   2.347
10573W        W78967  21.299  19.434  10.195
10574W        W78968  42.866  37.146  12.103
10575W        W78969  29.467  27.972  14.331
10576W        W78970  38.605  11.791  12.521
10577W        W78971  23.229  19.518  14.936
10578W        W78972  15.359  10.342   1.262
10579W        W78973  40.577  40.598  13.387
10580W        W78974   7.807  10.110  13.925
10581W        W78975  22.112  25.202   3.637
10582W        W78976  39.937   7.601   1.406
10583W        W78977   3.827  30.602   3.758
10584W        W78978  10.024   0.846   2.015
10585W        W78979   9.154  20.038   4.019
10586W        W78980  31.872   7.395   1.273
10587W        W78981  11.433  31.980  11.859
10588W        W78982  14.060  10.809   1.314
10589W        W78983  24.653  24.465   4.143
10590W        W78984  28.921   2.192   0.826
10591W        W78985   2.775  32.546  12.137
10592W        W78986  43.146  31.153   2.873
10593W        W78987   5.069  37.538   4.710
10594W        W78988  42.276  18.403   0.308
10595W        W78989  32.106  16.565  10.751
10596W        W78990  26.075  40.463   2.136
10597W        W78991  41.111   7.713  13.909
10598W        W78992  35.943  36.796   3.714
10599W        W78993  17.084  11.700   1.181
10600W        W78994  44.885  44.038  10.996
10601W        W78995  39.305  24.032  13.948
10602W        W78996  28.173  29.180   0.483
10603W        W78997   6.600  10.255  10.792
10604W        W78998  27.833  28.444  11.094
10605W        W78999  11.575  43.378  10.396
10606W        W79000   7.016  20.017   3.700
10607W        W79001  22.765  27.111  12.737
10608W        W79002  11.368  21.493   3.415
10609W        W79003  30.230  40.909   1.904
10610W        W79004  20.572  13.625  11.123
10611W        W79005  16.740  24.306  12.027
10612W        W79006  32.362  43.263   0.822
10613W        W79007  14.635  15.656   2.673
10614W        W79008  44.305  16.038  13.526
10615W        W79009  15.494  40.057   3.436
10616W        W79010  41.931  41.582   4.949
10617W        W79011  44.245  17.651  11.930
10618W        W79012   0.391  32.505  13.104
10619W        W79013  19.832  33.260   3.647
10620W        W79014   3.325   2.041  11.116
10621W        W79015  24.596  44.678   3.120
10622W        W79016  11.396  10.277  12.344
10623W        W79017   7.526  12.037  12.944
10624W        W79018   7.817  40.143  14.885
10625W        W79019  33.015  21.980  13.883
10626W        W79020  11.873   5.786   0.835
10627W        W79021  12.341  23.099  13.027
10628W        W79022  33.541   7.265   5.368
10629W        W79023  27.635  16.308  11.089
10630W        W79024  11.097  28.648   0.428
10631W        W79025  37.872  32.957  14.898
10632W        W79026  23.855  25.520   4.364
10633W        W79027  16.150  37.549   4.144
10634W        W79028  18.052  34.454   1.929
10635W        W79029  20.551   4.295  11.899
10636W        W79030   0.452   6.317   1.333
10637W        W79031   0.313   2.655   3.259
10638W        W79032   8.898  18.348  11.676
10639W        W79033  17.672  17.326  12.428
10640W        W79034  32.431   8.301   2.188
10641W        W79035  10.562  21.163  12.882
10642W        W79036  44.821  21.123   2.727
10643W        W79037  37.510  30.817   3.585
10644W        W79038  15.079  31.745   1.361
10645W        W79039  20.626  32.348  11.204
10646W        W79040  10.443   0.321  12.497
10647W        W79041  32.676   7.630  14.520
10648W        W79042   3.467  35.571  11.430
10649W        W79043   6.207  15.295   3.693
10650W        W79044  31.811  19.519  14.680
10651W        W79045   3.278  39.430   3.481
10652W        W79046  37.384  36.526   0.466
10653W        W79047   3.900  38.751   0.373
10654W        W79048  15.853  43.948  14.753
10655W        W79049  29.109   4.518  14.834
10656W        W79050  28.284   9.933   2.329
10657W        W79051  31.108  17.093  12.149
10658W        W79052   7.905  15.634   0.634
10659W        W79053   9.355  30.657  10.691
10660W        W79054  37.210  12.771   1.426
10661W        W79055   1.015  32.558   2.169
10662W        W79056  33.099  37.476   4.695
10663W        W79057  12.392  28.294  13.549
10664W        W79058  42.028   1.730   0.366
10665W        W79059  16.621   7.739   0.694
10666W        W79060  36.700   8.616   5.423
10667W        W79061  21.090  19.034   1.365
10668W        W79062  33.174  20.475  12.860
10669W        W79063  28.409  44.802  11.546
10670W        W79064  32.228  42.541  10.133
10671W        W79065  10.873  24.881   0.967
10672W        W79066   7.788  41.076   3.636
10673W        W79067  34.182  37.665   4.398
10674W        W79068  34.338  22.415  12.549
10675W        W79069  16.149  39.056  13.966
10676W        W79070  41.594  23.219  13.291
10677W        W79071  22.157   9.543  11.883
10678W        W79072  24.464  39.047  10.620
10679W        W79073  38.008  33.556   1.923
10680W        W79074  10.010  35.489  14.425
10681W        W79075  38.035  21.918  11.681
10682W        W79076  41.457  13.654   2.134
10683W        W79077  12.100   7.630   2.270
10684W        W79078  17.335  29.133  13.400
10685W        W79079  13.320  10.721   3.186
10686W        W79080  28.051  18.063  11.331
10687W        W79081   0.171  12.927   3.768
10688W        W79082   8.883  37.044  14.345
10689W        W79083  18.441   3.467  14.350
10690W        W79084   2.254  18.518   5.046
10691W        W79085  17.123  37.594  10.324
10692W        W79086   8.264   5.925   4.293
10693W        W79087   6.538   8.321   1.472
10694W        W79088  34.360  14.971  14.746
10695W        W79089   6.718   8.684  14.391
10696W        W79090  34.035  37.910   2.655
10697W        W79091  40.098   2.293  12.158
10698W        W79092  13.313  42.489   3.559
10699W        W79093   1.477  32.324  14.994
10700W        W79094  36.470  14.365   3.703
10701W        W79095  42.905  35.620   1.013
10702W        W79096  43.270   7.680  11.373
10703W        W79097  14.138  32.027  10.214
10704W        W79098  25.284  34.023  14.902
10705W        W79099   5.479  29.349   2.824
10706W        W79100   5.573   5.738  12.755
10707W        W79101   7.086  31.579  12.965
10708W        W79102  34.083   3.465  10.544
10709W        W79103  21.689  14.813   2.879
10710W        W79104  33.772  18.604   0.791
10711W        W79105   9.601  29.578   0.353
10712W        W79106  40.419  34.410   3.142
10713W        W79107   9.941  20.157  11.520
10714W        W79108  42.800  26.707  12.408
10715W        W79109   9.367  23.435  14.927
10716W        W79110  19.718  35.643   4.602
10717W        W79111  17.976  40.943   3.323
10718W        W79112  10.807  32.149  12.457
10719W        W79113   8.618  41.402   0.157
10720W        W79114   1.769   3.039  11.604
10721W        W79115  29.973  41.554  14.236
10722W        W79116  10.038  36.422  12.551
10723W        W79117  24.138  44.806  14.582
10724W        W79118  17.308   3.791  11.531
10725W        W79119  21.460   0.921  12.209
10726W        W79120   7.833  26.028   0.278
10727W        W79121  13.349  25.441  14.211
10728W        W79122   5.952  33.148  14.078
10729W        W79123   6.910  36.988  12.062
10730W        W79124  22.550  30.620  11.909
10731W        W79125   6.851  42.834   1.365
10732W        W79126   9.401   8.711  13.437
10733W        W79127  19.226  41.251   4.553
10734W        W79128  39.622  16.107   3.260
10735W        W79129  34.875  39.388   0.270
10736W        W79130  44.948  19.613   5.043
10737W        W79131  15.607   8.869   0.966
10738W        W79132  29.478  16.112  10.702
10739W        W79133  24.045  42.077   4.585
10740W        W79134  35.726   6.267   5.036
10741W        W79135  41.237  26.163   4.345
10742W        W79136  29.587  24.660   2.807
10743W        W79137  14.355  25.536   2.868
10744W        W79138  37.394  26.112   2.698
10745W        W79139  37.303   8.754   1.024
10746W        W79140  18.577  17.393  13.374
10747W        W79141  11.110  26.224   0.237
10748W        W79142  42.200  37.995  11.365
10749W        W79143   4.332  16.970   9.960
10750W        W79144  40.538  34.380   2.643
10751W        W79145   7.725  41.371  12.759
10752W        W79146  30.026  12.382   0.343
10753W        W79147  42.047  19.523  10.892
10754W        W79148  16.368  43.561   4.401
10755W        W79149  37.187   8.649  10.981
10756W        W79150  16.972  35.087   1.407
10757W        W79151  39.837   1.489   4.090
10758W        W79152  41.755  11.192   4.038
10759W        W79153  36.326  30.533  13.076
10760W        W79154   0.248  25.960   3.684
10761W        W79155  15.598  12.323  12.914
10762W        W79156  33.352  38.976  10.782
10763W        W79157  33.454  22.814  11.626
10764W        W79158   8.684  24.645  12.552
10765W        W79159  33.668  40.282  14.939
10766W        W79160   2.536   3.788   3.329
10767W        W79161   0.771  39.101  14.995
10768W        W79162  39.052   8.964   4.284
10769W        W79163  13.273  10.426  12.037
10770W        W79164  34.369   6.212   2.936
10771W        W79165   3.174  15.361  13.810
10772W        W79166   9.192  25.454   9.987
10773W        W79167  18.807  12.851  13.920
10774W        W79168  21.598  12.801  12.518
10775W        W79169  11.845  37.467   1.197
10776W        W79170  40.896  10.126   4.648
10777W        W79171  34.760  44.079   2.715
10778W        W79172  29.938  26.494   4.550
10779W        W79173  24.639  19.204   3.282
10780W        W79174  26.145  11.965   0.752
10781W        W79175  44.989   8.374   4.413
10782W        W79176   6.698  31.555  11.270
10783W        W79177  15.220  42.406   4.393
10784W        W79178  31.787  44.060   0.377
10785W        W79179  25.033  30.414  14.342
10786W        W79180   0.183  39.916   1.249
10787W        W79181  33.951   2.351   0.571
10788W        W79182  19.657  37.753   9.807
10789W        W79183  25.005   0.735  13.353
10790W        W79184  31.559  28.010   0.206
10791W        W79185  38.028  27.477  10.872
10792W        W79186  25.759   4.381  11.966
10793W        W79187  43.378  11.293  14.490
10794W        W79188   0.697  37.018   0.770
10795W        W79189  12.632  35.916   4.066
10796W        W79190  25.134  26.657   2.918
10797W        W79191  37.431   2.990  13.015
10798W        W79192   6.426  10.883   3.715
10799W        W79193  17.742  15.677   0.801
10800W        W79194  42.373  19.540   3.704
10801W        W79195   6.531  15.716   5.011
10802W        W79196  11.716  17.660  14.176
10803W        W79197  29.112  21.184   3.573
10804W        W79198  11.058  26.060   0.733
10805W        W79199  11.638   1.823  14.244
10806W        W79200   8.806  20.134  10.769
10807W        W79201  25.650   3.684  11.354
10808W        W79202  23.987   3.257  11.129
10809W        W79203   6.379  35.665  11.204
10810W        W79204   7.164   9.297  10.807
10811W        W79205   6.855  19.078   1.434
10812W        W79206  23.747   7.976   1.237
10813W        W79207  13.003  12.337   0.634
10814W        W79208   9.218  29.277   0.136
10815W        W79209   6.462  18.772  12.871
10816W        W79210  32.939  39.510  12.072
10817W        W79211  36.053  28.867   3.633
10818W        W79212  38.329  35.976   1.358
10819W        W79213  34.028  27.609  12.508
10820W        W79214  42.394  35.551  10.938
10821W        W79215  21.536   1.516   5.049
10822W        W79216  17.139  38.449  14.592
10823W        W79217  22.264   5.342   2.345
10824W        W79218   2.908   2.999  12.468
10825W        W79219  26.192   2.460   4.607
10826W        W79220  13.183  29.542  14.562
10827W        W79221  40.470  35.135  10.621
10828W        W79222   4.373  43.798   1.460
10829W        W79223  10.915   8.569   0.850
10830W        W79224  16.717  22.691   2.711
10831W        W79225  37.094  15.145  10.678
10832W        W79226  26.377  29.424  10.776
10833W        W79227  11.796  19.718   3.724
10834W        W79228  42.292  35.933  14.807
10835W        W79229  39.476  23.438  14.498
10836W        W79230  42.851   9.678  14.287
10837W        W79231  16.768  38.434  12.539
10838W        W79232  27.229   6.931   1.361
10839W        W79233  33.463  21.941   4.560
10840W        W79234  42.474  36.146   5.388
10841W        W79235   0.583  14.134   2.918
10842W        W79236  29.544   0.466   3.178
10843W        W79237  19.618   4.386   0.749
10844W        W79238  18.556  30.049  12.398
10845W        W79239  19.547   5.743  14.037
10846W        W79240   5.395   5.881   2.257
10847W        W79241   0.023  24.439  14.281
10848W        W79242  25.990   4.361  13.615
10849W        W79243   0.308  42.332   2.163
10850W        W79244  26.637  10.769   2.954
10851W        W79245   4.399   3.495  14.455
10852W        W79246  44.836  37.105  13.035
10853W        W79247  25.165  44.581  11.621
10854W        W79248   0.653   2.282  11.190
10855W        W79249  17.757   3.786  10.675
10856W        W79250  25.255  14.564   0.215
10857W        W79251   0.325  14.190   1.183
10858W        W79252  39.899   0.153   3.835
10859W        W79253  37.679  26.560  12.903
10860W        W79254  16.797  23.292   3.565
10861W        W79255   3.786  13.242   4.398
10862W        W79256   3.222  24.262  11.944
10863W        W79257  42.415   4.244   4.444
10864W        W79258  22.410  31.571   2.695
10865W        W79259  30.493   9.709  12.761
10866W        W79260  33.393  36.868  11.014
10867W        W79261  15.626  26.666  14.485
10868W        W79262  20.159  39.859  12.967
10869W        W79263   4.439  11.384  12.514
10870W        W79264   4.144  15.549  14.878
10871W        W79265  37.905  20.849   0.975
10872W        W79266   2.843  36.768  12.524
10873W        W79267  25.408  26.576   1.678
10874W        W79268  23.971   7.273  10.382
10875W        W79269  37.344  43.988   1.733
10876W        W79270   2.320   5.325  10.505
10877W        W79271  37.241  20.231   4.235
10878W        W79272  28.379  19.741  14.327
10879W        W79273  43.665  17.871  11.216
10880W        W79274  43.793   2.346   2.684
10881W        W79275  41.598  32.387  11.246
10882W        W79276   6.379  14.691  13.528
10883W        W79277  38.347   2.178   3.516
10884W        W79278   1.986  35.033  10.621
10885W        W79279  33.564  32.156   3.252
10886W        W79280  34.023  28.462  14.829
10887W        W79281   7.606   9.913   0.674
10888W        W79282   8.233  42.201   1.393
10889W        W79283  39.749  18.428   2.422
10890W        W79284  15.950   6.850   3.143
10891W        W79285  27.126  28.869  12.282
10892W        W79286  42.113  36.069   0.280
10893W        W79287  18.676  21.957  10.699
10894W        W79288   5.178  18.137  13.171
10895W        W79289  31.639  14.516  13.444
10896W        W79290  11.172  27.130   2.108
10897W        W79291  20.840  25.472   0.414
10898W        W79292   8.870  22.465  14.420
10899W        W79293  23.434  24.019  14.087
10900W        W79294   8.397  22.739   3.565
10901W        W79295  38.377  21.940   3.552
10902W        W79296  14.100  19.955  13.954
10903W        W79297  32.952  12.635   3.685
10904W        W79298  22.287  26.903  14.275
10905W        W79299  21.497  34.526   4.332
10906W        W79300  37.667  37.063  10.793
10907W        W79301  44.655  29.215  13.745
10908W        W79302  38.487   2.756   1.505
10909W        W79303  18.362  30.005   3.663
10910W        W79304   0.134  20.787   1.312
10911W        W79305   6.644  20.520  11.501
10912W        W79306  19.249   9.754  14.978
10913W        W79307  21.231  44.188  11.256
10914W        W79308  35.379  16.632  11.126
10915W        W79309   9.116  24.786  13.537
10916W        W79310  34.629   7.828   0.844
10917W        W79311  21.111  10.667  14.859
10918W        W79312  39.066   1.978   3.957
10919W        W79313  12.843  20.612  13.556
10920W        W79314   5.738  38.417   4.580
10921W        W79315  21.700  26.503   0.598
10922W        W79316  43.274  21.186  12.541
10923W        W79317  42.841  32.008   0.837
10924W        W79318   2.872  23.631  12.097
10925W        W79319   8.379   5.720   0.305
10926W        W79320  30.964   9.789  12.475
10927W        W79321  23.285  13.646   2.768
10928W        W79322  35.060  11.336   0.991
10929W        W79323  25.538  32.575  13.927
10930W        W79324  37.374  41.940   1.965
10931W        W79325  26.006  37.025   1.766
10932W        W79326  21.162  31.734  10.968
10933W        W79327  30.958  40.086  13.064
10934W        W79328  26.916  12.208  12.823
10935W        W79329  32.517  39.765  11.915
10936W        W79330  17.566  16.184  14.339
10937W        W79331  43.779  26.464   1.790
10938W        W79332  40.212  37.539   4.106
10939W        W79333  33.596  21.518   2.438
10940W        W79334  20.258  18.726   0.870
10941W        W79335   9.425  13.365   3.960
10942W        W79336  18.488   6.178  11.667
10943W        W79337   2.981   9.678  11.925
10944W        W79338  11.498  12.519  14.937
10945W        W79339  20.750  18.727  11.986
10946W        W79340  31.996  32.498  10.472
10947W        W79341   4.030  43.381   3.355
10948W        W79342  24.927  12.791  10.676
10949W        W79343  14.335  11.931   3.669
10950W        W79344  26.652   0.546  12.943
10951W        W79345   1.233  25.712   0.519
10952W        W79346  35.594  11.150  10.719
10953W        W79347  33.565  10.236  12.146
10954W        W79348   8.265  36.563   2.734
10955W        W79349  13.072   1.675   2.088
10956W        W79350  34.113   4.710   4.060
10957W        W79351  13.125  24.015   0.062
10958W        W79352  43.496  23.451   2.870
10959W        W79353  19.700  25.143   2.325
10960W        W79354   6.179  21.628  10.926
10961W        W79355  13.391  24.313   4.365
10962W        W79356  32.024   5.485   2.844
10963W        W79357  25.995  38.335  14.069
10964W        W79358  36.938  16.140  14.879
10965W        W79359  14.236   2.108  12.404
10966W        W79360  17.372  17.095  14.887
10967W        W79361   2.742  37.898   2.680
10968W        W79362  14.046  29.367  10.577
10969W        W79363  35.682  10.352  12.928
10970W        W79364  32.322   7.055   3.413
10971W        W79365   9.643  29.597   1.316
10972W        W79366   1.823  22.861   0.525
10973W        W79367   4.167  22.106   2.573
10974W        W79368  16.260  20.269  11.663
10975W        W79369   4.709  26.832   1.840
10976W        W79370   2.633  20.768   2.133
10977W        W79371  30.906  16.207   4.118
10978W        W79372  33.010  37.167  13.474
10979W        W79373  21.574  27.661  14.433
10980W        W79374  18.711  15.625  10.765
10981W        W79375  10.816   0.980  12.889
10982W        W79376  16.798  29.576  12.974
10983W        W79377   8.079   5.302   0.264
10984W        W79378  34.692  18.227   2.154
10985W        W79379  38.977  11.345   4.824
10986W        W79380  27.941  27.122   3.579
10987W        W79381  30.865  35.562   0.292
10988W        W79382  44.670  18.086  14.219
10989W        W79383   4.432  38.519  11.621
10990W        W79384  41.573  18.470  14.341
10991W        W79385  25.512  37.809   1.697
10992W        W79386  25.193  33.392  12.909
10993W        W79387  16.136  26.936  14.370
10994W        W79388  39.802  38.867   2.864
10995W        W79389  32.137  10.078   3.142
10996W        W79390   9.853  10.712   3.307
10997W        W79391  15.689  14.864  14.922
10998W        W79392  19.267  32.890   0.733
10999W        W79393  13.439  12.161   5.023
11000W        W79394  12.485  37.365   5.203
11001W        W79395  26.235   4.162   2.834
11002W        W79396   7.168  34.881   1.496
11003W        W79397  20.732  31.013   2.865
11004W        W79398  19.970  19.726   0.390
11005W        W79399  16.835  37.279   4.384
11006W        W79400  28.911  42.823  14.862
11007W        W79401  13.394  44.974  12.298
11008W        W79402   2.791  23.259   2.734
11009W        W79403  35.577   7.132   0.192
11010W        W79404  31.889  22.763   0.971
11011W        W79405   5.710  38.354  14.866
11012W        W79406  22.526   9.721   4.978
11013W        W79407  23.475  40.269   1.909
11014W        W79408  14.160  16.660  13.888
11015W        W79409  27.515  37.992  11.704
11016W        W79410  24.000   5.806   2.394
11017W        W79411  44.284  39.976   1.756
11018W        W79412  35.066  25.017  12.624
11019W        W79413  19.238  13.379   2.834
11020W        W79414  32.589  37.959   2.601
11021W        W79415  20.859  12.089  14.989
11022W        W79416  22.947  10.621   2.420
11023W        W79417  18.239  34.948  12.416
11024W        W79418  26.651  32.609  11.148
11025W        W79419  40.479   4.939   2.878
11026W        W79420  35.894  27.470  10.420
11027W        W79421  26.924   5.691  12.421
11028W        W79422  25.113  35.431  14.872
11029W        W79423  40.754  29.556  12.627
11030W        W79424   0.081  28.666  10.761
11031W        W79425  31.007   2.344   2.349
11032W        W79426  29.969  14.748  10.774
11033W        W79427   4.244  24.796   0.402
11034W        W79428   2.514   0.489   1.757
11035W        W79429  43.432   3.714   1.419
11036W        W79430  30.210   3.995   0.384
11037W        W79431  12.859  15.141  13.965
11038W        W79432   1.441   4.813   0.365
11039W        W79433  30.936  19.085  11.616
11040W        W79434   1.866  44.240   4.057
11041W        W79435  11.172  31.345   1.290
11042W        W79436  16.208  29.708  10.695
11043W        W79437  22.507  28.563  13.710
11044W        W79438  18.684  30.257  10.921
11045W        W79439  30.497  40.415  14.805
11046W        W79440   7.485  38.080   0.729
11047W        W79441  10.302  40.232   0.839
11048W        W79442  37.788  11.397   4.056
11049W        W79443  12.679  11.860  11.241
11050W        W79444   3.028  37.782  11.105
11051W        W79445   2.816  36.009   4.689
11052W        W79446  36.177   9.868  13.355
11053W        W79447  26.023   0.856  14.780
11054W        W79448  14.197  29.144  11.800
11055W        W79449  42.040   4.866  10.857
11056W        W79450   1.769  16.563   4.162
11057W        W79451  28.590  16.860  14.556
11058W        W79452  26.002  26.699  12.133
11059W        W79453  14.040  18.518  13.842
11060W        W79454  21.231  24.535   1.081
11061W        W79455  29.409  11.279   4.283
11062W        W79456  38.433  40.252  14.278
11063W        W79457   8.692  42.542   4.157
11064W        W79458  16.453  30.979  10.573
11065W        W79459  23.938   4.466   2.246
11066W        W79460  36.456  18.218  11.138
11067W        W79461  10.693   9.366  14.901
11068W        W79462  18.796  44.333  13.933
11069W        W79463  25.808  31.402   3.092
11070W        W79464  32.839  18.772   1.611
11071W        W79465  37.435  38.302   4.124
11072W        W79466   2.479  33.094  14.399
11073W        W79467   1.999  29.162  12.012
11074W        W79468  27.466  34.984   3.384
11075W        W79469  30.193  39.029   0.812
11076W        W79470  43.097  35.027  14.366
11077W        W79471  27.081  40.796   1.326
11078W        W79472  24.229  25.329   3.660
11079W        W79473  10.335   0.892   9.954
11080W        W79474  17.177  20.462  13.501
11081W        W79475  43.323  20.432  14.873
11082W        W79476  15.493  44.761  10.735
11083W        W79477  38.945  36.756   4.590
11084W        W79478  39.911  28.778   2.681
11085W        W79479  24.548   5.332   0.777
11086W        W79480   6.573  16.343  12.554
11087W        W79481   0.280  16.253   2.186
11088W        W79482  25.525  35.144   3.560
11089W        W79483  34.376  24.581  14.489
11090W        W79484  39.805  42.840   1.897
11091W        W79485  19.939  28.637   5.079
11092W        W79486   4.830  30.816  13.537
11093W        W79487  18.949  12.739  12.608
11094W        W79488   4.364  39.909  12.165
11095W        W79489   3.343  27.288  12.915
11096W        W79490   2.718   3.182   1.913
11097W        W79491  34.861   5.329   3.233
11098W        W79492  40.350  38.639   0.972
11099W        W79493  18.752  17.638  14.009
11100W        W79494   4.489  40.972  11.174
11101W        W79495  12.402  10.916  14.969
11102W        W79496  38.820  29.412  13.005
11103W        W79497   3.329  20.618   4.704
11104W        W79498  33.912  20.569  14.796
11105W        W79499  10.868  12.906   0.620
11106W        W79500  32.126  18.163  14.937
11107W        W79501  36.347   0.406   0.501
11108W        W79502  44.022   6.836   0.852
11109W        W79503  35.559  34.461  11.671
11110W        W79504  21.240  43.028   4.298
11111W        W79505   5.129  22.230   1.396
11112W        W79506  31.921  13.228   0.757
11113W        W79507   8.889   2.947   4.096
11114W        W79508  33.287  17.893  13.078
11115W        W79509  21.493  19.194  11.025
11116W        W79510  29.512  10.208   2.996
11117W        W79511  20.654  37.771  14.808
11118W        W79512  15.387  39.915  12.420
11119W        W79513  15.210  39.281   4.187
11120W        W79514  15.644  22.149   4.211
11121W        W79515  28.099   8.702   0.698
11122W        W79516  12.701  25.470  12.052
11123W        W79517  27.186  29.624  14.827
11124W        W79518   5.268  30.031   2.189
11125W        W79519   7.232  34.949  13.486
11126W        W79520  41.499  23.235   1.469
11127W        W79521  18.768  28.664  12.902
11128W        W79522   0.318  37.582   1.722
11129W        W79523  13.810   2.291   0.819
11130W        W79524  33.199  38.641   4.130
11131W        W79525  22.979  20.498   3.606
11132W        W79526  19.254   3.221   0.286
11133W        W79527  10.781   5.920  11.187
11134W        W79528   9.873  29.936  13.435
11135W        W79529  27.619  39.585   0.695
11136W        W79530  24.024   2.510  14.901
11137W        W79531  33.396  15.118   1.477
11138W        W79532  13.262  20.263   1.327
11139W        W79533  35.417  19.529   4.833
11140W        W79534  31.157  18.748  11.994
11141W        W79535   6.738   8.717  13.848
11142W        W79536  32.898  35.597  11.575
11143W        W79537  29.261  40.130   1.292
11144W        W79538  33.474   7.790  14.162
11145W        W79539   8.222  29.707  12.774
11146W        W79540  22.345  25.243  11.963
11147W        W79541  20.470  13.831  12.842
11148W        W79542  38.287  42.626  11.891
11149W        W79543   2.432  23.832   5.259
11150W        W79544  24.778  40.835   1.028
11151W        W79545  21.999   0.442  11.625
11152W        W79546  36.619   1.516  14.432
11153W        W79547  28.386   6.229   4.944
11154W        W79548   1.812  35.396  11.593
11155W        W79549  42.970  36.116   2.769
11156W        W79550  39.350  31.374   4.330
11157W        W79551  42.866   1.749  14.456
11158W        W79552   6.873  20.048   1.787
11159W        W79553  40.300  15.089  12.928
11160W        W79554  16.665  22.599   0.999
11161W        W79555   0.704  12.941   0.250
11162W        W79556  36.122  38.099  13.367
11163W        W79557  22.117  30.073  13.117
11164W        W79558  13.308  37.499   4.509
11165W        W79559  34.669  28.206   0.427
11166W        W79560  41.071  35.420  13.204
11167W        W79561  22.309  39.024   0.824
11168W        W79562  30.048  38.597   0.528
11169W        W79563  18.963   6.404   3.751
11170W        W79564  41.954  11.913  12.574
11171W        W79565  12.400  30.914   1.322
11172W        W79566  33.545  30.262   3.367
11173W        W79567   4.888  41.439  14.474
11174W        W79568   1.037   8.279  12.910
11175W        W79569  36.333  26.176  13.347
11176W        W79570   8.136   8.301  10.588
11177W        W79571  27.145  26.664   0.513
11178W        W79572   6.692  22.940  11.960
11179W        W79573  30.626  23.029   3.796
11180W        W79574  35.874  30.914  12.202
11181W        W79575  29.134  38.712  14.449
11182W        W79576  39.096  35.829   1.720
11183W        W79577  29.062  15.674   3.112
11184W        W79578  14.646  30.731   4.587
11185W        W79579  34.328   5.666   1.777
11186W        W79580  22.064  19.838   2.656
11187W        W79581  11.085  41.428  13.434
11188W        W79582   7.190  29.473   0.857
11189W        W79583  31.514   6.191  11.932
11190W        W79584  42.007   8.638  14.045
11191W        W79585   9.150   2.825  14.899
11192W        W79586  34.849  23.540  13.615
11193W        W79587  43.087  11.362  10.608
11194W        W79588   5.675  31.891   1.883
11195W        W79589  23.774  11.742   1.284
11196W        W79590   5.718  43.500  11.637
11197W        W79591  17.164  32.407  13.813
11198W        W79592  27.602  26.058   1.449
11199W        W79593  15.474  17.063  13.998
11200W        W79594  24.023  23.931  13.591
11201W        W79595  34.834   0.784  12.546
11202W        W79596  21.284  32.516   0.196
11203W        W79597  29.155  17.559   1.417
11204W        W79598  20.116  32.195   3.714
11205W        W79599  30.126  27.648  11.591
11206W        W79600  10.197  39.972  10.819
11207W        W79601  18.781   9.363   0.279
11208W        W79602  37.214  16.097  12.681
11209W        W79603  42.482  38.787  14.772
11210W        W79604  39.340  43.266  11.473
11211W        W79605  34.909  15.821   4.605
11212W        W79606  15.716  22.103   0.878
11213W        W79607  10.730  13.922  10.773
11214W        W79608  16.751  42.331   3.863
11215W        W79609  28.933  30.489   1.729
11216W        W79610  25.376   4.746  11.977
11217W        W79611  37.308  23.634   4.636
11218W        W79612  33.173   7.038   3.330
11219W        W79613   3.145  30.856  10.862
11220W        W79614  25.994  21.274  12.655
11221W        W79615  33.982  12.193   3.917
11222W        W79616  22.006   1.656   0.224
11223W        W79617  30.710  37.833   1.292
11224W        W79618  10.722  27.588  11.625
11225W        W79619  43.615   0.909   4.269
11226W        W79620  42.784  44.400  13.394
11227W        W79621  28.591  37.905   4.539
11228W        W79622  21.031  27.872  11.726
11229W        W79623  11.255  31.819  14.013
11230W        W79624   2.179  11.820  14.031
11231W        W79625  25.669   8.077  12.910
11232W        W79626  18.559  43.249   3.665
11233W        W79627   4.296  41.093  12.987
11234W        W79628  40.721  14.704  14.926
11235W        W79629  10.023  37.096   2.399
11236W        W79630  20.297  37.986  14.096
11237W        W79631   2.422  26.987   1.429
11238W        W79632  38.542  29.019   1.485
11239W        W79633  10.136  22.749  14.011
11240W        W79634   5.668  12.029   2.260
11241W        W79635   0.442  42.266  13.924
11242W        W79636  43.313  19.841   0.502
11243W        W79637  20.738  32.025   3.781
11244W        W79638  15.814  18.648   4.410
11245W        W79639  11.407  43.708  12.587
11246W        W79640  31.490  34.051  11.213
11247W        W79641  37.684  34.593   1.095
11248W        W79642   5.293  17.272   1.632
11249W        W79643   0.280  17.821   3.724
11250W        W79644  42.838  38.929   4.471
11251W        W79645  31.260   0.256   3.133
11252W        W79646  17.412  13.302  11.544
11253W        W79647  22.203  28.017   4.043
11254W        W79648  33.578  19.321   1.217
11255W        W79649   3.690  21.100   2.768
11256W        W79650  12.305  20.256   2.254
11257W        W79651  36.553  37.543   2.373
11258W        W79652  16.179  39.730   2.148
11259W        W79653  33.087  23.375  12.704
11260W        W79654  30.627  33.143  11.610
11261W        W79655  41.388  10.709   0.063
11262W        W79656  17.386  27.966  14.782
11263W        W79657  31.146   9.309   0.800
11264W        W79658  35.398  32.413   3.839
11265W        W79659  17.678  26.907   4.120
11266W        W79660  31.693  36.128  12.342
11267W        W79661  36.186  35.059   4.616
11268W        W79662  15.331   7.461   4.528
11269W        W79663   8.343  21.515   4.648
11270W        W79664   5.165  27.139   0.828
11271W        W79665  38.268  20.807   1.406
11272W        W79666   7.381  27.575   4.859
11273W        W79667  39.977   2.656  11.070
11274W        W79668   8.745  25.942   0.229
11275W        W79669  34.927   5.899   0.035
11276W        W79670  30.161   9.242  11.144
11277W        W79671  15.215  30.092   3.848
11278W        W79672  24.738   9.716  12.900
11279W        W79673  18.210  14.944  11.699
11280W        W79674  26.795  32.656   1.701
11281W        W79675  33.566  26.078  12.815
11282W        W79676  42.334  41.812   4.718
11283W        W79677   0.276   1.497   1.983
11284W        W79678  14.865   7.229   0.279
11285W        W79679  38.868  24.276  12.176
11286W        W79680   7.801  20.237   0.960
11287W        W79681   4.445  23.416  10.614
11288W        W79682  25.022  35.414  13.842
11289W        W79683   3.434  22.395   4.571
11290W        W79684  44.016  34.015   4.403
11291W        W79685  39.807  31.352  12.075
11292W        W79686   0.014  30.042  14.315
11293W        W79687  11.518   7.550   5.118
11294W        W79688  23.087   7.494  12.921
11295W        W79689  17.103  33.898   1.357
11296W        W79690  21.624   8.611  12.768
11297W        W79691  19.233   4.913   4.533
11298W        W79692  22.589  43.759   2.789
11299W        W79693  29.365  44.933   1.279
11300W        W79694  38.522   4.525   2.336
11301W        W79695  14.224  39.062   0.930
11302W        W79696  17.028  32.383  11.659
11303W        W79697  36.581  16.739  10.716
11304W        W79698  34.540  22.259  13.361
11305W        W79699  26.968  15.357  14.033
11306W        W79700  32.434  21.598   2.025
11307W        W79701  14.984  33.585   0.367
11308W        W79702  12.064  16.349   2.736
11309W        W79703   6.950   5.157   4.113
11310W        W79704  12.263  11.393  14.872
11311W        W79705   1.352  18.073   1.819
11312W        W79706   9.780  36.350   1.642
11313W        W79707   1.395  15.519   4.544
11314W        W79708  33.722   6.818   1.366
11315W        W79709  10.251  34.180   1.791
11316W        W79710  18.024  16.976   1.849
11317W        W79711  29.434  27.014  13.831
11318W        W79712  29.595  10.868  11.047
11319W        W79713  39.118  32.490   1.712
11320W        W79714   1.896  30.310  12.748
11321W        W79715  31.498  26.112   1.675
11322W        W79716  19.321   1.014  12.624
11323W        W79717  42.766  14.175   1.277
11324W        W79718  43.913  13.828   4.600
11325W        W79719  16.600  38.407   1.386
11326W        W79720  39.491  31.954   0.487
11327W        W79721  31.830  18.827  13.517
11328W        W79722  37.522  17.597   3.444
11329W        W79723  33.933  25.507   2.430
11330W        W79724   7.250  19.938  13.612
11331W        W79725  35.903  32.988   4.839
11332W        W79726  19.188  32.344  12.489
11333W        W79727  43.347   1.651  10.197
11334W        W79728   6.407   4.995   0.700
11335W        W79729  17.102  30.924   0.244
11336W        W79730  16.327  32.912   4.916
11337W        W79731  44.431  25.145  13.945
11338W        W79732  17.203  16.322   4.999
11339W        W79733  39.116   0.370   4.503
11340W        W79734  15.693  13.348  14.242
11341W        W79735  24.249  27.534   0.457
11342W        W79736   5.403  34.466  10.913
11343W        W79737  21.423  13.666   0.815
11344W        W79738  23.507  15.964   2.225
11345W        W79739  35.899  20.590   3.196
11346W        W79740   8.701  10.828  11.190
11347W        W79741  20.997  23.831  10.210
11348W        W79742  23.036  42.003  14.696
11349W        W79743  42.947  43.092  14.095
11350W        W79744  33.409  13.138  11.032
11351W        W79745   0.005  15.260   3.935
11352W        W79746   8.255  29.418   0.474
11353W        W79747  36.923  25.566  13.149
11354W        W79748   5.402  36.215   0.948
11355W        W79749  20.781  14.210  13.114
11356W        W79750  13.796   1.854  14.916
11357W        W79751  21.720  11.890  10.628
11358W        W79752  39.954   6.841   3.615
11359W        W79753  19.114  21.698   4.067
11360W        W79754  39.932   6.429   2.623
11361W        W79755  26.793  20.906  14.483
11362W        W79756   2.423  36.447   2.828
11363W        W79757  17.114  43.362  12.877
11364W        W79758  14.642  30.817   1.767
11365W        W79759   7.733  12.737   2.278
11366W        W79760   4.324  17.222   2.657
11367W        W79761  34.841  27.847   1.670
11368W        W79762  27.219  21.551   3.547
11369W        W79763  24.065   9.375   2.839
11370W        W79764  27.729  24.288   2.121
11371W        W79765   8.535  13.281  14.924
11372W        W79766  38.281  22.131   0.029
11373W        W79767   7.134   8.101   2.150
11374W        W79768  42.339   8.245   4.354
11375W        W79769  31.092  35.399   2.584
11376W        W79770  21.215  14.683  11.858
11377W        W79771  35.047  43.269   2.283
11378W        W79772  23.240  40.290   3.787
11379W        W79773  11.029  35.059   3.582
11380W        W79774  14.690  34.082  10.451
11381W        W79775  20.084   8.151  13.898
11382W        W79776  42.173  10.159   0.034
11383W        W79777  30.262   2.460   0.269
11384W        W79778  39.462  21.025   3.083
11385W        W79779  15.314  22.115   2.823
11386W        W79780  21.676  30.611  14.338
11387W        W79781  14.632  24.441   1.301
11388W        W79782  29.042  21.483  12.695
11389W        W79783  30.643   4.536  11.552
11390W        W79784  28.773  15.627   0.306
11391W        W79785  31.208   8.003   1.800
11392W        W79786  44.863  26.464  10.629
11393W        W79787  28.286  33.859   1.967
11394W        W79788  42.027  25.274   0.490
11395W        W79789   3.499  39.664  12.035
11396W        W79790  32.330  15.823  13.001
11397W        W79791  29.396  32.546  13.742
11398W        W79792  18.184  36.449   3.321
11399W        W79793   9.163  43.667   0.287
11400W        W79794  38.542  28.386  11.155
11401W        W79795  23.110  15.327  13.125
11402W        W79796   4.611   2.889   5.020
11403W        W79797  41.372  10.379   4.223
11404W        W79798  11.136  11.135  12.326
11405W        W79799  37.543  37.665   3.254
11406W        W79800  15.628  13.713  11.679
11407W        W79801  13.642  40.763  13.586
11408W        W79802  30.082  18.121   3.497
11409W        W79803  23.548  26.239  12.091
11410W        W79804  10.501  28.082  13.391
11411W        W79805  42.015  30.501  13.088
11412W        W79806  44.663   2.058  14.444
11413W        W79807  42.820  10.546   0.370
11414W        W79808  28.079  38.613  13.535
11415W        W79809  14.293  26.605  12.831
11416W        W79810  35.550   5.146  14.419
11417W        W79811  26.530  23.644  14.818
11418W        W79812   0.461   3.273  13.478
11419W        W79813   3.211  20.279   1.732
11420W        W79814   0.891  26.486   2.879
11421W        W79815  32.510  37.872   4.065
11422W        W79816  25.517   9.889  12.460
11423W        W79817  38.637  10.102  14.043
11424W        W79818  28.441   8.158   4.573
11425W        W79819  41.440  25.636  13.397
11426W        W79820  15.195  37.424   4.132
11427W        W79821   8.080   0.436   1.042
11428W        W79822  33.595  36.369   1.173
11429W        W79823  30.485  30.013  11.877
11430W        W79824  21.660   1.217  13.518
11431W        W79825  13.661  37.773  10.928
11432W        W79826  13.227  43.947  12.863
11433W        W79827  38.574   9.407  11.293
11434W        W79828   4.493  32.142  10.575
11435W        W79829  24.021  10.732   0.694
11436W        W79830  36.026  35.355   2.796
11437W        W79831   5.959  17.544  12.910
11438W        W79832  25.488   5.840  14.303
11439W        W79833  42.821   5.898  14.886
11440W        W79834  12.809  41.496   4.561
11441W        W79835  44.550   3.458   2.177
11442W        W79836  40.886  37.401   1.779
11443W        W79837  36.946  16.891   2.377
11444W        W79838  35.689  35.049  14.261
11445W        W79839  20.177  14.752  14.497
11446W        W79840   8.206  15.038   0.015
11447W        W79841  23.688  11.786  11.214
11448W        W79842  33.341  43.538   1.735
11449W        W79843   8.753   5.333  10.336
11450W        W79844  39.494   6.328  14.001
11451W        W79845   6.062   6.842   1.736
11452W        W79846  32.608  19.936  11.587
11453W        W79847   3.170   1.288  13.559
11454W        W79848  40.423  24.710  14.419
11455W        W79849  16.001  36.938   1.185
11456W        W79850   6.706  34.374  14.240
11457W        W79851  15.337  42.443   0.700
11458W        W79852  40.363  11.935   4.121
11459W        W79853  34.471  23.724  12.333
11460W        W79854  34.616  10.604  14.837
11461W        W79855  23.062  36.946  13.540
11462W        W79856  13.680   5.896   0.278
11463W        W79857  19.389  11.081   1.268
11464W        W79858  41.223  35.119  13.601
11465W        W79859  38.409  18.769  13.853
11466W        W79860   7.692  14.280  14.109
11467W        W79861  44.607  44.798   1.379
11468W        W79862  30.834  23.760  12.497
11469W        W79863  20.747  18.741   5.065
11470W        W79864   6.292  34.611  13.474
11471W        W79865   7.554  14.102  10.762
11472W        W79866  26.404  30.357   3.679
11473W        W79867  40.890   3.977  14.953
11474W        W79868  28.834  29.912   3.753
11475W        W79869  21.073   7.881  11.205
11476W        W79870  21.994   3.401  11.126
11477W        W79871  42.256  17.285   4.205
11478W        W79872  36.249  16.206   0.878
11479W        W79873  37.493  19.014  14.801
11480W        W79874  42.817  38.083   3.774
11481W        W79875   8.405  40.927  12.643
11482W        W79876  12.853  14.373   4.567
11483W        W79877  23.122  42.485   0.020
11484W        W79878   8.303  22.306  11.050
11485W        W79879  22.828  28.632   3.746
11486W        W79880  21.193   9.213   0.377
11487W        W79881  15.499   3.158  11.701
11488W        W79882   4.971  42.817  12.539
11489W        W79883   9.568  12.624   3.009
11490W        W79884   9.987  13.512   1.655
11491W        W79885  34.898   4.022  14.846
11492W        W79886   5.722  11.300   4.543
11493W        W79887  42.824  11.184   2.340
11494W        W79888  27.713   3.403  11.162
11495W        W79889  31.737  16.864   2.301
11496W        W79890  33.122  30.343   0.249
11497W        W79891  36.574  35.996   2.957
11498W        W79892  27.222   4.736  12.475
11499W        W79893   4.298   9.607   1.897
11500W        W79894   9.411   7.012   2.225
11501W        W79895  27.195  14.115   3.580
11502W        W79896  42.178  18.033  13.960
11503W        W79897   6.472  28.480  14.365
11504W        W79898  17.327  37.733  10.774
11505W        W79899  30.937  12.934   3.899
11506W        W79900  25.239  31.925   0.705
11507W        W79901  42.506  39.261  13.369
11508W        W79902  31.845  43.381   3.113
11509W        W79903   7.387  44.770   0.792
11510W        W79904   5.633  39.819   1.998
11511W        W79905  43.355  34.899   0.909
11512W        W79906   9.908  14.121   0.472
11513W        W79907   3.850  37.967   4.649
11514W        W79908  19.580  22.620   1.232
11515W        W79909  21.024   3.319  14.293
11516W        W79910  39.960  15.700  11.754
11517W        W79911  39.401  28.513  13.848
11518W        W79912  15.236  16.906  12.293
11519W        W79913   0.420   4.836   1.132
11520W        W79914   9.694  22.993   2.402
11521W        W79915  20.718   9.593  13.025
11522W        W79916  41.912  22.356   2.370
11523W        W79917  39.781  23.925   3.653
11524W        W79918  37.745  39.541   2.412
11525W        W79919  35.973  10.334  14.987
11526W        W79920   9.772   0.405   4.137
11527W        W79921  17.177  42.929  11.100
11528W        W79922  16.042   2.968   1.435
11529W        W79923  38.356   6.276  14.272
11530W        W79924  39.802  16.291  13.979
11531W        W79925  10.377  10.338   4.509
11532W        W79926  11.094  38.928  10.720
11533W        W79927   1.890  25.282  13.367
11534W        W79928  40.996  14.622  14.030
11535W        W79929  24.134   5.522   1.073
11536W        W79930  11.661  41.708   3.741
11537W        W79931  12.067  36.520   3.118
11538W        W79932  19.014   2.507   2.841
11539W        W79933   4.449  39.964   3.304
11540W        W79934  14.261  39.069  11.088
11541W        W79935  41.899  22.017   0.884
11542W        W79936  39.808   4.405   2.307
11543W        W79937  24.021   1.195   2.692
11544W        W79938  16.951  16.985  11.646
11545W        W79939  10.329  34.453  12.644
11546W        W79940  29.435   4.566  11.955
11547W        W79941  18.965  35.299   2.107
11548W        W79942  44.015  19.265   1.223
11549W        W79943  41.273  33.412   1.553
11550W        W79944  25.613  11.706   1.969
11551W        W79945   2.031   2.257  12.361
11552W        W79946  23.120  26.473  12.937
11553W        W79947  44.093  31.691  11.583
11554W        W79948  10.857   8.202   2.723
11555W        W79949  42.098  26.218  10.690
11556W        W79950  18.548  21.488  12.552
11557W        W79951  12.631   4.912   4.958
11558W        W79952   6.766   2.518   2.356
11559W        W79953  20.132  36.565   1.325
11560W        W79954  39.740   4.224   4.322
11561W        W79955   5.978  37.449  12.420
11562W        W79956  22.704   9.155  10.597
11563W        W79957  10.218  16.366  12.153
11564W        W79958  39.055  10.862  14.148
11565W        W79959  29.816  13.723  13.296
11566W        W79960  34.556  10.588   1.325
11567W        W79961  38.295  40.459   3.866
11568W        W79962  27.932  24.382   4.513
11569W        W79963  44.776  35.409  12.436
11570W        W79964  38.775  14.570   0.810
11571W        W79965  17.570  12.294   2.770
11572W        W79966   4.806  28.968  11.784
11573W        W79967  12.410  21.671  12.656
11574W        W79968  18.101  11.410   0.794
11575W        W79969  18.619  41.493  12.386
11576W        W79970   1.597   3.551  13.505
11577W        W79971  25.727  40.357   2.920
11578W        W79972  23.770   4.143   1.142
11579W        W79973   1.316  41.103   4.699
11580W        W79974   0.467   3.725   0.054
11581W        W79975  37.965  10.323  13.566
11582W        W79976  37.369   1.991  13.982
11583W        W79977  26.649  38.828  11.599
11584W        W79978  40.529  29.420   1.316
11585W        W79979  36.066  41.961   1.315
11586W        W79980  36.044  41.906  12.858
11587W        W79981  13.154  11.741   0.924
11588W        W79982  11.911  28.145  10.691
11589W        W79983  15.136  17.516   0.384
11590W        W79984  11.088  39.494  13.452
11591W        W79985  38.848   0.421  11.679
11592W        W79986  34.722  14.907   5.130
11593W        W79987  38.820   7.293   1.924
11594W        W79988  43.824  23.026   0.909
11595W        W79989   8.755  10.741   3.677
11596W        W79990   2.207   1.890   1.383
11597W        W79991  35.592  14.504   1.389
11598W        W79992   7.900  44.299   3.161
11599W        W79993  43.301  15.341  13.108
11600W        W79994   8.172   1.371  12.497
11601W        W79995  20.786  38.148  11.948
11602W        W79996   9.851  34.629  12.838
11603W        W79997  29.104  43.268  10.029
11604W        W79998   7.912  35.607   2.008
11605W        W79999  36.911  41.958   1.075
11606W        W80000   5.390  42.973   3.267
11607W        W80001  29.086   4.111   3.737
11608W        W80002  37.034  12.270   4.345
11609W        W80003  23.254  42.855  13.004
11610W        W80004  43.819  43.412  10.697
11611W        W80005  22.170  42.779  12.422
11612W        W80006  27.809  36.106  11.320
11613W        W80007  10.753  32.000   3.336
11614W        W80008  34.432  30.142  13.952
11615W        W80009  37.982  24.363   0.207
11616W        W80010  39.286  24.530   2.686
11617W        W80011  42.424  41.318   2.760
11618W        W80012  22.570   9.975  14.906
11619W        W80013   4.511  12.104   4.626
11620W        W80014   8.685   8.255  11.966
11621W        W80015  42.613  31.247   2.885
11622W        W80016  26.277   5.854   3.786
11623W        W80017  17.674   5.544   5.115
11624W        W80018  42.174  32.830  11.186
11625W        W80019  27.500  26.044  12.360
11626W        W80020  11.304  37.028  12.110
11627W        W80021  13.153  43.378   4.325
11628W        W80022  34.104  10.658  14.797
11629W        W80023  22.229   0.417  11.176
11630W        W80024  43.499  11.232   3.044
11631W        W80025   2.520   4.236  14.375
11632W        W80026  44.743  30.992  13.554
11633W        W80027  21.614   3.518   2.903
11634W        W80028  24.136  43.686   1.184
11635W        W80029  32.415   2.755   4.384
11636W        W80030   8.382  20.836  13.850
11637W        W80031   6.621  39.510  12.859
11638W        W80032  19.011   0.018   4.098
11639W        W80033  23.126   4.483   1.812
11640W        W80034  13.747  33.432   1.227
11641W        W80035  22.703   8.431   0.713
11642W        W80036  40.478  10.839   4.197
11643W        W80037  42.887  20.599   3.099
11644W        W80038  39.006  17.695   4.621
11645W        W80039   1.860  35.168  11.098
11646W        W80040  11.839  15.710   2.424
11647W        W80041  21.620  26.962   0.776
11648W        W80042  24.217  44.933   3.366
11649W        W80043  43.745  18.481   1.768
11650W        W80044   3.974  42.267  11.468
11651W        W80045  14.052  41.004  12.839
11652W        W80046   4.777   9.342  12.439
11653W        W80047   9.064  36.928  11.370
11654W        W80048   4.052  26.724  10.058
11655W        W80049  40.933  26.480   2.242
11656W        W80050  24.394   9.782   2.752
11657W        W80051  32.107  44.346   1.492
11658W        W80052  21.095  14.658  13.013
11659W        W80053  38.199  37.903   3.899
11660W        W80054  13.732   1.253   3.842
11661W        W80055   4.214  22.116   2.000
11662W        W80056  31.316  26.696  10.037
11663W        W80057   4.693  20.824   2.706
11664W        W80058  12.800  34.483  11.627
11665W        W80059  21.628  41.296  10.422
11666W        W80060  17.184  38.640  10.677
11667W        W80061  27.067  30.700   2.702
11668W        W80062  31.565  26.004   2.693
11669W        W80063  23.606   9.300  14.042
11670W        W80064  24.225  30.124   1.824
11671W        W80065  26.107  24.499   4.395
11672W        W80066  26.547  24.775   4.292
11673W        W80067  30.428   0.238   0.673
11674W        W80068  17.600  29.563   4.650
11675W        W80069  11.028  25.573  11.072
11676W        W80070  19.727  11.483   4.602
11677W        W80071  27.006  16.142   2.916
11678W        W80072   4.672   1.982   3.214
11679W        W80073  18.577  37.056  12.866
11680W        W80074  32.706  39.739   3.529
11681W        W80075   2.461   2.728  10.805
11682W        W80076  34.127  40.058   2.260
11683W        W80077  41.635  25.088   0.143
11684W        W80078   8.203   5.151   3.105
11685W        W80079  31.333  44.818   1.644
11686W        W80080  20.634   9.995   2.304
11687W        W80081  18.522  41.999   3.113
11688W        W80082  29.494  22.324   5.178
11689W        W80083   9.704   3.928   1.235
11690W        W80084  30.621   0.211  13.224
11691W        W80085  15.786  24.148  10.709
11692W        W80086   2.067  16.091   0.723
11693W        W80087  29.714  20.987   4.709
11694W        W80088  19.834   2.275   3.208
11695W        W80089   8.706   8.236  13.540
11696W        W80090  23.742   6.946  12.600
11697W        W80091  40.771   9.813   1.303
11698W        W80092  32.530  33.091  11.293
11699W        W80093  36.323  37.541  12.674
11700W        W80094  42.708  41.838   2.884
11701W        W80095  38.026   4.937  13.390
11702W        W80096  31.016  15.607  13.059
11703W        W80097   2.913  10.408  14.296
11704W        W80098   2.859  44.932  14.605
11705W        W80099  23.999   7.757   3.568
11706W        W80100  14.824   9.770   0.493
11707W        W80101  41.029  25.658   1.832
11708W        W80102  34.366   5.645   3.808
11709W        W80103  15.425   6.432   3.622
11710W        W80104  12.669  27.765  10.833
11711W        W80105   4.359  25.000   3.634
11712W        W80106   2.165  35.408  14.990
11713W        W80107  21.442  14.525  11.435
11714W        W80108   6.729  23.384   3.692
11715W        W80109   4.305  18.105  13.958
11716W        W80110  42.223  30.713   5.040
11717W        W80111  28.851  38.111  13.809
11718W        W80112   0.239  20.064  12.539
11719W        W80113  26.706  26.002   2.507
11720W        W80114  29.252  25.100   2.836
11721W        W80115  23.253   1.167   3.441
11722W        W80116  35.456  25.071  13.988
11723W        W80117  32.948   0.720   3.210
11724W        W80118  17.714  28.492   0.345
11725W        W80119  15.804  17.733   3.671
11726W        W80120   6.748  29.982   4.373
11727W        W80121  42.865   7.945  14.939
11728W        W80122  24.926  25.609   3.200
11729W        W80123  24.620   9.746  11.154
11730W        W80124  41.306  30.496  13.520
11731W        W80125   0.490  39.357   2.210
11732W        W80126  10.749  17.761   2.690
11733W        W80127   9.813  14.603   4.386
11734W        W80128  33.357  31.407   4.588
11735W        W80129  35.293  12.196  13.670
11736W        W80130   5.130  28.913  10.523
11737W        W80131  17.620  19.104   0.507
11738W        W80132  44.530  28.621  12.146
11739W        W80133  11.319   4.803   3.726
11740W        W80134   9.677  10.090  12.008
11741W        W80135  18.758  10.988  14.448
11742W        W80136  33.497  35.428   2.298
11743W        W80137  12.818  44.372   4.580
11744W        W80138  25.693  39.812   4.468
11745W        W80139  11.003  38.500   1.197
11746W        W80140   5.608   6.567  14.433
11747W        W80141  42.489   0.503   0.051
11748W        W80142  41.475  18.363  11.684
11749W        W80143  18.110  24.073   4.635
11750W        W80144  21.223  30.136  11.112
11751W        W80145   9.714   5.749   4.054
11752W        W80146  32.528  10.184   0.812
11753W        W80147  35.833  13.914  12.581
11754W        W80148   4.669  21.225  10.105
11755W        W80149  31.504  44.277  11.162
11756W        W80150  17.367   5.855  10.213
11757W        W80151  38.009  41.800   3.257
11758W        W80152  28.430  41.100   4.755
11759W        W80153   0.501  37.804  12.926
11760W        W80154  32.905  26.019   4.677
11761W        W80155   3.321  19.327  13.356
11762W        W80156  29.843  20.075   1.400
11763W        W80157   7.332   9.873   1.540
11764W        W80158  12.360  28.982   3.301
11765W        W80159  28.819  41.846   1.721
11766W        W80160  22.922  19.606  14.437
11767W        W80161  29.346  15.587  13.830
11768W        W80162  11.070   6.690  12.976
11769W        W80163  11.720  38.206   0.576
11770W        W80164  21.352   6.264   4.155
11771W        W80165  24.641   7.860   4.857
11772W        W80166  25.897  23.909   0.698
11773W        W80167  19.491  17.315   2.700
11774W        W80168  29.181   3.304   2.282
11775W        W80169  16.315  28.628   4.042
11776W        W80170  43.358   1.475  11.979
11777W        W80171  36.368   8.573  10.668
11778W        W80172   7.386  28.588  12.901
11779W        W80173  15.694   7.490  13.884
11780W        W80174  27.546  28.268   4.563
11781W        W80175   9.852  15.754  13.313
11782W        W80176   1.960  41.537  12.489
11783W        W80177  11.646  16.489   0.268
11784W        W80178   8.080  27.603   3.649
11785W        W80179  43.989   1.643  11.457
11786W        W80180  26.044  13.510   2.293
11787W        W80181  40.243  28.176  14.306
11788W        W80182  29.719  15.229  13.754
11789W        W80183  17.235  42.330   3.606
11790W        W80184   5.568   5.305   1.775
11791W        W80185  13.848  39.583   4.233
11792W        W80186  26.177  42.311   0.009
11793W        W80187  10.793  24.636   4.083
11794W        W80188   7.289  14.990   2.802
11795W        W80189  15.399  19.209  13.061
11796W        W80190  27.876   0.498   2.714
11797W        W80191   0.792  29.660   1.729
11798W        W80192  27.503  23.253   3.702
11799W        W80193  33.495  21.006   3.186
11800W        W80194   2.783  38.789  14.973
11801W        W80195  11.183   5.673   1.219
11802W        W80196  24.825  14.480  11.436
11803W        W80197  40.974  27.621  14.532
11804W        W80198  21.637  13.842   2.591
11805W        W80199  26.960  12.371   3.817
11806W        W80200  14.110  39.400   5.096
11807W        W80201   0.745   2.174  12.219
11808W        W80202  14.405  21.715  13.367
11809W        W80203   1.263  25.805   4.024
11810W        W80204   8.836  31.462  13.972
11811W        W80205  39.929   9.744  10.795
11812W        W80206   0.406  42.398   1.565
11813W        W80207   3.436  36.825  11.173
11814W        W80208  16.043  25.208  13.415
11815W        W80209  12.233   9.891  14.910
11816W        W80210   0.874  36.071  12.161
11817W        W80211  19.704   0.464   5.079
11818W        W80212  14.275  27.478  11.504
11819W        W80213   0.333  34.479   4.307
11820W        W80214   5.270  21.000   3.543
11821W        W80215  15.492  35.340   1.785
11822W        W80216  34.087  26.594  11.510
11823W        W80217  24.640  28.740  11.602
11824W        W80218   3.150  41.994   2.928
11825W        W80219  44.563  12.719  11.305
11826W        W80220  22.819   5.456  10.686
11827W        W80221  14.703   0.965  13.462
11828W        W80222  44.738  15.266   4.850
11829W        W80223  30.796  34.367   3.995
11830W        W80224   2.231  21.067  14.624
11831W        W80225  38.131   9.347  13.297
11832W        W80226   9.878  33.451  14.059
11833W        W80227  15.916  33.474  12.909
11834W        W80228  37.086   7.766  12.084
11835W        W80229  12.550  44.517  14.058
11836W        W80230  30.111  40.538   4.251
11837W        W80231  29.647  12.425  13.543
11838W        W80232   1.513  34.621  11.616
11839W        W80233  33.653  20.634  12.920
11840W        W80234  12.032  33.584   4.357
11841W        W80235   9.168  44.399   2.873
11842W        W80236  37.062  13.820   3.165
11843W        W80237   6.134   9.037   2.574
11844W        W80238  29.599  11.536  13.609
11845W        W80239  11.814  11.566   0.925
11846W        W80240  17.215  42.108   0.880
11847W        W80241  11.266   0.194   0.135
11848W        W80242  22.826  13.214   3.660
11849W        W80243  17.676  37.393  14.434
11850W        W80244  42.984  40.845   2.689
11851W        W80245  15.329  11.308  11.612
11852W        W80246  24.589  15.598   2.782
11853W        W80247   6.177   4.723  12.222
11854W        W80248   6.278   0.892  11.787
11855W        W80249  14.712  38.868  12.167
11856W        W80250   7.302  30.414  11.987
11857W        W80251  42.593  39.761  14.738
11858W        W80252  33.451   7.231  10.771
11859W        W80253   1.013  11.686  12.903
11860W        W80254  19.947  33.058  10.939
11861W        W80255  35.637   4.350   2.663
11862W        W80256  24.634  16.637  13.298
11863W        W80257   3.292  13.016   1.215
11864W        W80258   9.062   5.192  13.785
11865W        W80259  12.640  17.256  14.027
11866W        W80260  30.861  30.064  14.441
11867W        W80261  44.511   4.399   3.115
11868W        W80262  18.298  13.765   2.427
11869W        W80263   3.022  15.809  11.660
11870W        W80264  20.150  31.459  13.250
11871W        W80265  11.838  24.300   4.122
11872W        W80266  40.065  43.996   2.811
11873W        W80267  40.390  43.847   0.575
11874W        W80268   0.855   6.234  13.652
11875W        W80269   2.782  35.471   4.567
11876W        W80270   1.840   7.721   4.027
11877W        W80271  12.681   7.710   9.910
11878W        W80272  34.402  16.177   2.335
11879W        W80273  18.644   1.913  12.865
11880W        W80274  10.442  28.136   1.838
11881W        W80275  19.513  29.182  10.830
11882W        W80276  24.871   8.888  14.428
11883W        W80277   3.957  17.540  14.706
11884W        W80278   4.367  10.739   0.503
11885W        W80279  13.640  26.575  13.455
11886W        W80280  12.831  20.373  11.902
11887W        W80281   7.741  21.148   0.967
11888W        W80282  37.494  13.326  13.963
11889W        W80283  31.600  35.558   4.409
11890W        W80284  17.370   5.406   4.154
11891W        W80285  23.266   3.417  10.522
11892W        W80286  18.203  40.516   2.684
11893W        W80287   0.978  24.280  13.305
11894W        W80288  31.933  19.060  11.999
11895W        W80289  21.092   3.490   0.313
11896W        W80290   1.212  22.321  14.121
11897W        W80291   2.183  11.757   2.396
11898W        W80292  44.176  22.348   1.690
11899W        W80293  33.890  12.696   3.837
11900W        W80294  13.258  30.176  12.857
11901W        W80295  38.278  21.010   2.710
11902W        W80296  16.840  18.683   3.109
11903W        W80297  10.060  24.061  13.358
11904W        W80298   2.902   8.589  13.770
11905W        W80299  11.096  39.058  11.356
11906W        W80300  31.877   4.535   1.410
11907W        W80301  10.176  22.233   0.954
11908W        W80302  44.287   6.986   0.431
11909W        W80303  23.758  33.584   2.654
11910W        W80304   8.453  12.676  13.128
11911W        W80305  14.633   8.934   1.936
11912W        W80306   0.694  44.960  11.021
11913W        W80307  42.856  35.351   5.416
11914W        W80308  18.659  34.126   3.417
11915W        W80309  27.203  34.947  12.036
11916W        W80310  42.129  28.455   4.180
11917W        W80311   2.860   3.444   0.455
11918W        W80312  41.520   7.837   2.050
11919W        W80313  29.757  40.278  12.405
11920W        W80314  22.476  41.510  13.968
11921W        W80315  30.024  26.060  11.455
11922W        W80316   3.962  17.340   9.987
11923W        W80317  22.791  36.582  12.522
11924W        W80318  36.900   3.415   0.396
11925W        W80319  38.153  44.973   2.328
11926W        W80320  22.287  19.526  13.764
11927W        W80321   0.998  15.736   0.658
11928W        W80322  43.473  26.826  10.679
11929W        W80323  38.147   3.484   1.105
11930W        W80324  39.777  44.943   4.905
11931W        W80325  11.290  17.637  10.934
11932W        W80326  32.856  34.885   1.862
11933W        W80327  10.127  11.116   4.075
11934W        W80328   6.363  12.593   1.435
11935W        W80329  18.304  43.485   2.316
11936W        W80330   7.055  37.057   3.813
11937W        W80331  41.979  33.844  12.344
11938W        W80332  17.237   1.698   2.807
11939W        W80333  41.752  26.917   4.273
11940W        W80334   5.997   5.414  14.850
11941W        W80335  21.152   5.416  12.178
11942W        W80336  11.220  25.508   4.133
11943W        W80337  16.625   3.754   4.560
11944W        W80338  34.490  26.480   4.591
11945W        W80339  19.847  29.507   5.314
11946W        W80340  37.565  32.257   2.933
11947W        W80341  37.400  20.594   3.568
11948W        W80342  14.862  14.829  13.058
11949W        W80343  21.528  25.985  12.925
11950W        W80344  39.846  19.498  13.888
11951W        W80345  28.157  16.699   1.220
11952W        W80346   5.268   6.577   3.689
11953W        W80347   0.746  34.554   4.624
11954W        W80348  24.269  33.187   3.317
11955W        W80349   9.054  18.603   4.257
11956W        W80350  11.751  31.066  13.863
11957W        W80351  35.470   6.161  14.497
11958W        W80352   4.385  35.354  11.880
11959W        W80353  25.950  11.304  11.636
11960W        W80354   7.383  36.439   1.296
11961W        W80355  37.299  12.338  10.815
11962W        W80356  23.832  12.196   2.577
11963W        W80357  15.499  16.153  11.182
11964W        W80358  42.250   0.009  12.923
11965W        W80359  19.393  38.209   9.813
11966W        W80360  41.129  18.202   4.318
11967W        W80361  36.531  10.797   3.310
11968W        W80362  13.911   9.409  10.293
11969W        W80363  24.048   3.448   0.997
11970W        W80364  43.525  42.808  11.530
11971W        W80365  13.097  26.976  14.762
11972W        W80366   9.376  28.724   2.357
11973W        W80367  18.063  19.789   0.318
11974W        W80368  41.966  26.267   0.374
11975W        W80369   4.173  44.947   3.492
11976W        W80370  29.833  26.138   2.519
11977W        W80371  18.989  44.393  11.705
11978W        W80372  40.342  38.091  11.649
11979W        W80373   9.884  40.531   3.267
11980W        W80374   1.749  32.146  13.552
11981W        W80375  10.578  43.372  12.826
11982W        W80376  32.689  39.843  11.164
11983W        W80377   6.010   1.931   3.326
11984W        W80378  34.957  22.471   4.560
11985W        W80379  41.393  31.046  14.723
11986W        W80380  34.828  17.016  13.035
11987W        W80381  21.729  42.513   0.800
11988W        W80382  13.295  12.801  11.079
11989W        W80383  44.435  19.310  12.097
11990W        W80384  20.102   7.183   1.757
11991W        W80385   7.931   8.749  13.435
11992W        W80386  22.663  42.798   4.171
11993W        W80387  14.201  12.077  13.098
11994W        W80388  35.982  15.451   3.548
11995W        W80389   5.239  16.064  11.165
11996W        W80390   1.766   8.966   4.985
11997W        W80391  16.758  26.910  14.266
11998W        W80392  14.290  44.424   5.057
11999W        W80393   1.670  34.610  14.933
12000W        W80394   5.181  21.346  12.135
12001W        W80395  27.934  40.259   2.771
12002W        W80396  27.954   3.385   3.746
12003W        W80397  30.436   2.841  11.031
12004W        W80398   1.725  40.355   4.090
12005W        W80399  36.437   5.984  13.536
12006W        W80400  20.737  10.149  13.921
12007W        W80401  29.140  33.981  11.128
12008W        W80402  26.451  18.581  11.610
12009W        W80403  35.536  42.774   0.482
12010W        W80404   5.626  41.463  11.485
12011W        W80405   2.341  44.494  13.488
12012W        W80406  18.288  43.003  13.049
12013W        W80407  17.012   8.713   4.133
12014W        W80408  10.381  34.237  14.883
12015W        W80409   6.716  12.614  14.313
12016W        W80410  20.487  43.993   2.340
12017W        W80411  16.537  42.699  13.824
12018W        W80412  25.668   9.977   2.835
12019W        W80413  39.935  30.656  13.406
12020W        W80414  42.300   5.526   0.302
12021W        W80415  24.817  20.031   0.297
12022W        W80416   1.465  27.691  11.462
12023W        W80417  43.324   6.359  14.341
12024W        W80418   4.946   3.724  14.328
12025W        W80419   8.987  20.333   3.582
12026W        W80420   0.011  20.221  13.993
12027W        W80421   1.504  12.207   3.370
12028W        W80422  35.932  15.006  12.946
12029W        W80423  22.698  25.195   0.418
12030W        W80424  33.640  40.035  11.998
12031W        W80425  37.647   8.999   3.281
12032W        W80426  22.114  29.639  11.197
12033W        W80427  25.435  42.497  14.363
12034W        W80428  14.797  29.346   1.203
12035W        W80429   3.710  30.432  14.833
12036W        W80430  13.144  34.288  14.416
12037W        W80431  44.439  25.522   0.145
12038W        W80432   6.687  22.934  12.789
12039W        W80433  39.277  21.995  13.411
12040W        W80434  42.972  30.558  11.585
12041W        W80435  29.658  21.572  13.514
12042W        W80436  21.022  27.655  12.239
12043W        W80437   7.660  14.780  12.849
12044W        W80438   5.321  16.866   4.551
12045W        W80439  19.238  25.254  11.174
12046W        W80440   8.441  16.849  11.501
12047W        W80441  42.849  35.413  12.198
12048W        W80442  22.285  26.090   5.063
12049W        W80443  17.680   6.624  11.544
12050W        W80444  14.864  40.317  13.773
12051W        W80445  30.450   9.345  14.142
12052W        W80446   3.747  10.281  14.215
12053W        W80447  23.166   0.379  10.968
12054W        W80448  40.386  32.457   3.269
12055W        W80449  44.327  22.013  12.448
12056W        W80450  28.155  15.562  13.476
12057W        W80451   3.390   2.439  13.001
12058W        W80452  13.167  14.216  12.963
12059W        W80453  31.986  10.677   4.493
12060W        W80454  29.525  34.611   4.614
12061W        W80455  21.848  24.541  10.434
12062W        W80456   2.869  10.125  13.858
12063W        W80457  13.740  22.197   1.903
12064W        W80458  28.241  17.243  13.899
12065W        W80459  44.460  28.466  11.652
12066W        W80460  26.169  38.271  11.660
12067W        W80461  15.250  17.973   4.102
12068W        W80462  41.227  26.133  13.402
12069W        W80463  30.753  18.098  10.795
12070W        W80464   4.362  34.855  14.442
12071W        W80465  25.288  14.339   3.918
12072W        W80466  36.230   1.833   4.352
12073W        W80467  31.391   5.701   1.996
12074W        W80468  23.274  38.765   0.951
12075W        W80469  18.222  19.699   5.111
12076W        W80470  12.893  14.222  11.576
12077W        W80471  27.213  18.782   3.572
12078W        W80472   5.952  22.632   2.145
12079W        W80473  11.458  34.631   3.225
12080W        W80474  17.725  13.719  11.530
12081W        W80475  43.811  18.997   1.677
12082W        W80476  33.068  35.538   1.031
12083W        W80477  43.226  28.630   4.062
12084W        W80478  10.564  25.906   0.879
12085W        W80479  42.698  22.962  14.362
12086W        W80480  36.656   3.726  11.968
12087W        W80481  29.493  39.844  13.798
12088W        W80482  22.194  25.951   0.284
12089W        W80483  20.035  12.246  11.004
12090W        W80484  40.633  12.259  11.427
12091W        W80485  41.529  20.959   1.165
12092W        W80486  19.824  31.350   2.029
12093W        W80487  42.382  16.852   4.468
12094W        W80488  21.875   0.736   1.184
12095W        W80489  33.114  35.936   5.099
12096W        W80490  29.205  39.077   2.723
12097W        W80491  13.749  42.913   4.691
12098W        W80492  36.908  28.077  10.367
12099W        W80493   2.887  32.638  11.207
12100W        W80494  32.383  35.994  14.597
12101W        W80495  38.276  31.578   0.430
12102W        W80496  43.266  34.965  10.776
12103W        W80497  37.396  25.105   2.299
12104W        W80498  32.176  13.420   4.640
12105W        W80499  13.505  40.009   0.072
12106W        W80500  31.487  36.310   1.772
12107W        W80501  15.133  29.853   0.967
12108W        W80502  43.559  40.570   3.733
12109W        W80503  21.117  35.448   0.291
12110W        W80504  11.289  23.291   4.776
12111W        W80505  29.081  29.139  14.888
12112W        W80506  12.152  44.599   4.501
12113W        W80507  36.596  34.201  14.771
12114W        W80508   4.005   0.853  11.057
12115W        W80509  23.986  42.785  10.712
12116W        W80510  32.429  20.756  12.902
12117W        W80511  22.816  27.953  13.596
12118W        W80512  16.962  16.102  14.293
12119W        W80513  24.537  42.587   4.131
12120W        W80514  21.916  44.434   3.724
12121W        W80515  17.828  21.045   1.452
12122W        W80516   0.114  32.207  12.367
12123W        W80517  30.988   7.316   3.125
12124W        W80518  17.700  11.219  14.471
12125W        W80519  37.934  33.196  13.508
12126W        W80520  39.164   1.562   4.238
12127W        W80521  39.715   5.943   4.039
12128W        W80522  31.868  12.762  11.635
12129W        W80523  32.471   0.218   0.933
12130W        W80524  42.995   7.908   2.784
12131W        W80525  35.434   9.362  13.377
12132W        W80526  39.814   9.386  12.930
12133W        W80527  17.342  38.950  13.343
12134W        W80528  11.197  22.129  12.100
12135W        W80529  35.349  30.958  10.649
12136W        W80530  41.659  19.842  10.747
12137W        W80531  13.309  21.486   0.989
12138W        W80532  41.029  19.292  11.147
12139W        W80533  42.355  29.355   1.786
12140W        W80534  42.833  27.187  12.125
12141W        W80535  22.054  10.913   3.188
12142W        W80536  33.270   6.720   0.337
12143W        W80537   6.476  18.274   4.489
12144W        W80538  39.716  42.733  12.943
12145W        W80539  12.765  39.702  12.651
12146W        W80540  18.958   6.312  11.520
12147W        W80541   0.879  16.838   1.341
12148W        W80542  12.962  34.356   4.644
12149W        W80543  14.631  33.626  11.019
12150W        W80544  22.656  32.655  13.270
12151W        W80545   6.772  37.063   4.773
12152W        W80546   0.550  29.971  14.329
12153W        W80547  31.720  27.887  13.333
12154W        W80548  35.095  27.176   2.943
12155W        W80549  32.781  11.288  13.050
12156W        W80550  34.207  42.544   2.094
12157W        W80551  31.966  22.650  13.114
12158W        W80552  12.257  31.106  11.962
12159W        W80553   7.883  11.806  13.872
12160W        W80554  23.678  16.783   0.264
12161W        W80555   5.537  15.376   0.430
12162W        W80556  18.470  28.446   1.351
12163W        W80557  17.586  33.527   4.231
12164W        W80558  22.248  27.675   1.731
12165W        W80559   8.349  44.753  10.687
12166W        W80560  32.284  23.176  13.142
12167W        W80561   4.423  31.385  11.622
12168W        W80562  14.028   7.985  12.557
12169W        W80563  40.838  33.247  12.321
12170W        W80564   2.782  42.059   1.413
12171W        W80565  30.658  19.600  10.494
12172W        W80566   9.274  39.804  10.901
12173W        W80567  18.253  32.253   4.193
12174W        W80568  24.182  37.889  11.921
12175W        W80569  32.356  17.580  13.490
12176W        W80570  14.687  13.364  11.696
12177W        W80571  36.952  29.356  10.668
12178W        W80572   6.378  40.272   3.121
12179W        W80573  23.170  38.076   1.448
12180W        W80574   6.731   5.854  10.341
12181W        W80575  28.765  33.420   4.396
12182W        W80576  10.198  24.967   0.103
12183W        W80577  37.078   0.288   0.748
12184W        W80578  32.686  32.775  13.808
12185W        W80579   5.365  38.783   3.848
12186W        W80580  37.543  33.044  14.503
12187W        W80581  14.761   9.242  12.454
12188W        W80582  24.773  33.969  14.935
12189W        W80583  13.305  16.483   3.091
12190W        W80584  26.446  15.696   3.107
12191W        W80585  35.344  35.100   3.101
12192W        W80586   5.952  17.634   2.330
12193W        W80587  25.109  17.836  13.736
12194W        W80588   5.371  12.904  11.632
12195W        W80589  18.185  15.051   3.799
12196W        W80590   9.897  26.013  10.525
12197W        W80591  24.473  16.151   1.489
12198W        W80592  39.571  13.747  10.417
12199W        W80593   4.229  29.406  11.385
12200W        W80594  16.016  34.671  10.920
12201W        W80595  18.060  16.619   2.245
12202W        W80596  10.581  27.722   0.294
12203W        W80597  43.997  25.640  14.362
12204W        W80598  22.939  42.999  13.398
12205W        W80599  19.105  37.400   1.035
12206W        W80600   0.840   1.207  11.997
12207W        W80601  20.166  17.083   0.015
12208W        W80602  44.714   0.738  14.407
12209W        W80603   1.462  42.778   2.141
12210W        W80604  39.996  20.296  11.238
12211W        W80605  44.504  38.366   2.716
12212W        W80606  44.358   1.342  11.251
12213W        W80607  29.858  16.383  13.182
12214W        W80608  42.020  28.596  10.527
12215W        W80609  36.420  17.970  12.497
12216W        W80610   4.750   3.053  12.336
12217W        W80611  10.245  34.620  14.074
12218W        W80612  31.851  27.346   1.157
12219W        W80613  33.075  19.046  13.890
12220W        W80614  41.002  24.097   2.410
12221W        W80615  10.548   2.539   0.892
12222W        W80616  18.465  11.182   1.500
12223W        W80617  26.984  31.481  12.088
12224W        W80618  43.867  26.225   2.430
12225W        W80619  30.706  22.412  13.855
12226W        W80620  18.595  22.072  13.379
12227W        W80621   8.370  44.001   3.117
12228W        W80622  10.265   6.017  10.596
12229W        W80623  18.764  44.301   0.336
12230W        W80624  41.344  13.792   0.713
12231W        W80625  41.969   5.197   2.009
12232W        W80626  18.541  43.945   2.421
12233W        W80627  34.613  11.240  13.071
12234W        W80628  25.737  32.404  12.477
12235W        W80629  19.392   4.887  13.328
12236W        W80630  21.650  20.002   3.832
12237W        W80631  16.058  24.540   4.121
12238W        W80632  27.012  12.288   4.327
12239W        W80633   9.340  38.885  11.973
12240W        W80634  39.764  12.372   4.239
12241W        W80635  17.537   6.584  14.564
12242W        W80636  44.408  13.739  12.969
12243W        W80637  30.880  29.523   0.927
12244W        W80638  14.517   3.290  11.458
12245W        W80639  32.003  23.410  13.515
12246W        W80640   2.768  39.098   3.721
12247W        W80641  27.317  26.781  11.081
12248W        W80642  24.034  23.517   1.867
12249W        W80643  15.736  19.106  10.444
12250W        W80644  43.268  30.262   0.833
12251W        W80645  24.918  33.508  13.387
12252W        W80646  39.559   1.713  11.947
12253W        W80647  19.763   3.768  13.565
12254W        W80648  29.258  33.404  12.626
12255W        W80649   1.568  14.643   2.392
12256W        W80650   9.337  24.633  12.091
12257W        W80651  13.302   8.352   3.265
12258W        W80652   9.515  23.598   4.996
12259W        W80653  17.607   6.775   3.856
12260W        W80654   0.188  10.484  11.175
12261W        W80655  25.224  14.778  11.219
12262W        W80656  38.554  41.829  14.289
12263W        W80657  13.167  26.621   1.193
12264W        W80658  41.966  24.727  14.406
12265W        W80659   2.667  19.678  12.449
12266W        W80660  30.481  29.140   5.047
12267W        W80661  42.221  10.393  11.182
12268W        W80662   6.844  21.951   3.644
12269W        W80663  38.453   8.639  13.855
12270W        W80664  43.108  40.800   4.076
12271W        W80665   9.155  22.057  11.594
12272W        W80666  41.547  14.571   0.775
12273W        W80667   0.231  41.225  13.468
12274W        W80668  30.634   4.170  14.898
12275W        W80669  36.383  15.585  10.593
12276W        W80670  29.280  36.963   0.271
12277W        W80671   1.225  35.058   1.582
12278W        W80672  18.022  16.146   0.813
12279W        W80673  17.095  36.365   4.289
12280W        W80674  28.536  12.163  14.485
12281W        W80675  25.173   8.396  13.586
12282W        W80676   5.377   1.175   1.810
12283W        W80677  26.486  16.574   2.793
12284W        W80678   3.219  33.608  14.236
12285W        W80679  14.700   5.222  11.130
12286W        W80680  21.278  39.623  13.483
12287W        W80681   6.005  20.161   1.297
12288W        W80682  13.858  30.829  12.093
12289W        W80683  23.181  29.986  12.898
12290W        W80684  36.828  21.278   3.171
12291W        W80685   7.152  40.104  13.519
12292W        W80686  17.634  19.582  12.910
12293W        W80687   6.541  38.146   0.265
12294W        W80688  11.239  40.993   4.768
12295W        W80689  36.922  28.184  13.841
12296W        W80690  29.092  20.485  13.863
12297W        W80691   4.855  13.209  14.067
12298W        W80692  35.642  38.570   0.838
12299W        W80693  19.674  35.318  14.256
12300W        W80694  40.395  29.160  12.587
12301W        W80695   6.373  36.487   2.397
12302W        W80696  29.210  26.413   0.496
12303W        W80697  43.552  33.895  13.943
12304W        W80698   7.743  27.961  11.955
12305W        W80699   9.235  27.684   4.804
12306W        W80700  18.001  26.473   3.330
12307W        W80701  20.183  20.650  10.645
12308W        W80702  30.423  19.744   4.336
12309W        W80703  12.566   4.936  14.875
12310W        W80704   1.808  38.821   1.868
12311W        W80705  39.526  15.892   1.226
12312W        W80706  30.346  40.067   1.807
12313W        W80707   2.447  19.858   3.796
12314W        W80708   7.322   1.474   1.184
12315W        W80709  32.844  28.213   2.583
12316W        W80710  28.085  11.803   0.062
12317W        W80711  30.060  11.381  11.581
12318W        W80712  23.115  26.558   2.861
12319W        W80713  28.877   6.688   2.388
12320W        W80714  29.848  29.656  13.773
12321W        W80715  30.577  43.522  14.418
12322W        W80716   3.813  12.642  13.783
12323W        W80717  37.493  10.671   3.413
12324W        W80718  26.933  32.976  11.411
12325W        W80719  24.900  41.741  14.987
12326W        W80720  41.446  14.641   2.323
12327W        W80721  12.912  34.107   3.104
12328W        W80722  10.628  30.588   5.068
12329W        W80723  19.738  18.127   2.407
12330W        W80724  17.641  35.412  13.986
12331W        W80725  32.944  39.515  10.695
12332W        W80726   3.979  28.119  13.118
12333W        W80727  32.124   7.759   2.911
12334W        W80728  19.274  20.804   4.128
12335W        W80729  24.711  11.825  14.397
12336W        W80730  10.058   2.935  12.545
12337W        W80731   1.006  19.729   3.611
12338W        W80732   6.153  28.408  11.653
12339W        W80733  25.582  12.238  14.321
12340W        W80734  28.254  24.975   3.734
12341W        W80735  10.813  44.472  11.048
12342W        W80736   4.213  28.491  13.406
12343W        W80737   3.767  27.217   0.825
12344W        W80738  44.952  11.085   0.303
12345W        W80739  20.544  20.144   1.024
12346W        W80740  19.940  33.491  11.221
12347W        W80741  43.240  16.134  11.792
12348W        W80742  32.427  16.985  11.058
12349W        W80743  40.665  31.618  11.507
12350W        W80744  10.380  42.869   4.045
12351W        W80745  22.969  36.979   2.740
12352W        W80746  25.507   9.147   3.212
12353W        W80747  25.198   5.838   1.255
12354W        W80748  34.008  34.301   0.104
12355W        W80749  37.929   4.222  13.157
12356W        W80750  36.824  32.359   2.185
12357W        W80751  19.672  26.073  14.274
12358W        W80752   9.052  27.298   0.923
12359W        W80753  40.438   4.088  14.725
12360W        W80754  32.168  32.103   4.929
12361W        W80755  25.325   9.626  12.034
12362W        W80756  33.414  39.895   0.900
12363W        W80757   4.901  16.521   3.686
12364W        W80758   5.987  39.556   1.720
12365W        W80759  10.500  17.996   4.193
12366W        W80760  10.280   7.811   4.643
12367W        W80761  25.088  32.100   1.739
12368W        W80762  34.565  38.320   4.053
12369W        W80763  11.742  23.571   0.185
12370W        W80764  39.851  25.234   3.230
12371W        W80765   9.287  24.572   4.522
12372W        W80766  14.645  27.486  12.690
12373W        W80767  14.820  41.500   2.169
12374W        W80768  21.098   9.198  13.866
12375W        W80769  34.309  37.282   2.501
12376W        W80770  18.253  34.184  13.440
12377W        W80771  11.681  36.805  12.977
12378W        W80772  40.959  26.163   4.812
12379W        W80773   4.225  37.674  14.564
12380W        W80774  22.589  29.578   9.870
12381W        W80775  27.084   4.045   0.304
12382W        W80776   5.257   7.336   0.434
12383W        W80777   1.017   0.234  14.361
12384W        W80778   8.555  17.601   0.926
12385W        W80779  37.572   5.643  10.484
12386W        W80780  18.243  44.551   2.378
12387W        W80781  36.975  13.316  14.408
12388W        W80782  42.481  38.572   4.615
12389W        W80783  40.938  44.326   0.521
12390W        W80784   5.326   0.283  13.798
12391W        W80785  25.001  27.606  14.916
12392W        W80786  25.723   5.003   0.398
12393W        W80787  17.284   5.833  11.195
12394W        W80788   8.214  27.138  11.525
12395W        W80789  27.777  32.572   1.569
12396W        W80790  21.068   2.211   1.841
12397W        W80791  35.526  15.464  13.951
12398W        W80792  38.715  17.814   0.908
12399W        W80793  16.925   8.534  11.969
12400W        W80794   7.345  44.354   0.422
12401W        W80795   7.184  24.491  12.948
12402W        W80796  28.658  22.714  14.078
12403W        W80797  16.094   9.750   0.994
12404W        W80798  29.667   1.493   4.624
12405W        W80799  39.214  12.790   2.679
12406W        W80800  25.652  23.788   4.552
12407W        W80801  19.560  35.823  13.392
12408W        W80802   1.244  21.197   4.404
12409W        W80803  21.652   1.205   3.180
12410W        W80804  10.235   5.306  11.011
12411W        W80805   9.937  18.711  13.444
12412W        W80806  17.137  31.541  10.869
12413W        W80807   8.259   9.152   5.042
12414W        W80808   4.803  34.375  13.419
12415W        W80809   7.526  30.380  11.020
12416W        W80810  15.602   0.971  14.779
12417W        W80811  24.039   0.966   1.958
12418W        W80812  42.776  40.555   1.697
12419W        W80813   7.750  38.569   2.351
12420W        W80814   3.987  22.590  11.795
12421W        W80815  17.076  24.145   2.462
12422W        W80816  42.647  22.184  14.936
12423W        W80817  34.475  31.796  11.228
12424W        W80818  11.580  35.126   1.433
12425W        W80819  30.726  35.757  14.799
12426W        W80820  23.619   2.264  11.097
12427W        W80821  22.516  27.944  11.589
12428W        W80822  33.197  12.990   2.073
12429W        W80823   5.375  32.983   0.383
12430W        W80824  43.899   6.048  13.909
12431W        W80825  15.535   2.990  10.410
12432W        W80826  10.208  34.554  10.314
12433W        W80827  29.595  28.076  13.839
12434W        W80828  17.343  29.478  12.035
12435W        W80829  44.527  21.999   1.258
12436W        W80830  13.183  26.455  14.332
12437W        W80831  10.716  31.613   1.292
12438W        W80832  20.749  17.099  14.323
12439W        W80833  30.481   0.683  13.455
12440W        W80834  16.307   1.333   2.821
12441W        W80835   1.848  43.686  11.188
12442W        W80836   9.265   9.149   1.549
12443W        W80837   0.060  42.959   0.922
12444W        W80838  22.547  36.898   1.921
12445W        W80839  37.435  22.612   4.534
12446W        W80840  10.638  19.089  13.925
12447W        W80841  22.574  26.221  11.061
12448W        W80842  37.461   2.909   2.231
12449W        W80843  39.569  13.189   0.760
12450W        W80844  26.468  12.362   0.717
12451W        W80845   0.927  15.318   4.843
12452W        W80846  44.793  43.224   4.209
12453W        W80847  17.033  21.845   1.421
12454W        W80848  29.974  22.245   1.304
12455W        W80849  13.876   4.488   2.310
12456W        W80850  28.587   2.934   0.685
12457W        W80851  11.084   2.202   3.881
12458W        W80852   4.321  41.424  10.918
12459W        W80853  35.983  39.720   2.199
12460W        W80854  44.303  33.481   0.726
12461W        W80855  22.630  30.891  12.944
12462W        W80856  38.733  32.679   3.131
12463W        W80857  30.028  15.179   1.271
12464W        W80858  14.862   7.340   3.762
12465W        W80859  31.375  34.929   0.878
12466W        W80860  31.306  35.043   4.292
12467W        W80861  32.811  34.041   0.463
12468W        W80862  43.342  29.176   0.333
12469W        W80863  17.107  15.289  13.039
12470W        W80864  21.765  17.250  13.338
12471W        W80865  26.138  12.724  12.975
12472W        W80866  35.379  43.927   4.936
12473W        W80867  41.852  11.872  11.522
12474W        W80868  43.371   4.730  13.638
12475W        W80869   0.195  36.025   4.732
12476W        W80870   4.386   5.950  14.560
12477W        W80871  11.667  30.602   9.909
12478W        W80872   5.902  31.247   2.335
12479W        W80873  14.107  41.836  13.516
12480W        W80874  43.913   3.761   1.612
12481W        W80875  24.604  14.103   4.569
12482W        W80876   8.627  30.987   4.778
12483W        W80877  19.708  39.339   0.756
12484W        W80878  32.668  16.734  11.449
12485W        W80879   9.199  28.952  11.076
12486W        W80880  27.614   6.162  10.291
12487W        W80881  44.986  13.244  14.967
12488W        W80882   1.316  22.195  14.660
12489W        W80883  13.750  27.003  12.644
12490W        W80884  16.163  44.895  14.943
12491W        W80885  42.601  11.482   0.640
12492W        W80886  22.494  10.236   5.034
12493W        W80887  28.724   8.300   1.410
12494W        W80888  21.168  27.689   3.124
12495W        W80889  18.644  13.370  13.378
12496W        W80890  23.651   0.029   4.121
12497W        W80891  34.038  29.375  14.022
12498W        W80892  44.041   5.073  13.985
12499W        W80893  43.323  35.895  10.730
12500W        W80894  29.439  29.902  13.546
12501W        W80895  10.669  25.094   1.432
12502W        W80896  11.856  37.060   3.247
12503W        W80897  22.116  13.005  14.395
12504W        W80898  44.253   8.253  12.476
12505W        W80899  17.886  26.970   3.218
12506W        W80900  34.957  36.123   2.158
12507W        W80901  25.255  18.865   4.236
12508W        W80902  26.223  40.532  12.543
12509W        W80903   0.431   4.415   3.404
12510W        W80904   6.287  10.081   1.750
12511W        W80905  30.581  16.682  10.915
12512W        W80906   6.419   5.443  12.914
12513W        W80907  34.668  42.453   2.829
12514W        W80908   0.100  34.077  14.860
12515W        W80909  25.518   1.271  11.208
12516W        W80910  31.859  17.047   1.798
12517W        W80911  12.517   4.417  14.897
12518W        W80912  32.743  19.004   4.543
12519W        W80913  10.389   9.502  13.743
12520W        W80914  34.151  43.417  14.957
12521W        W80915  17.356  20.182  10.655
12522W        W80916  27.503  18.868  10.665
12523W        W80917  42.337  17.685   3.102
12524W        W80918  33.074  30.700  13.950
12525W        W80919  38.500   4.801   2.777
12526W        W80920  13.227  44.722  13.332
12527W        W80921  13.336   9.894  14.067
12528W        W80922  21.200  15.595   3.014
12529W        W80923  11.659  37.041  14.779
12530W        W80924  29.485  35.993   3.623
12531W        W80925  17.139  25.149  10.283
12532W        W80926  17.307  26.142   3.803
12533W        W80927  20.491   7.439   3.777
12534W        W80928  43.754  10.920   1.701
12535W        W80929  44.876  29.686  12.799
12536W        W80930  18.075   4.323  12.475
12537W        W80931   0.314  35.308  11.784
12538W        W80932  13.195   3.029  12.318
12539W        W80933  28.555   1.704   4.059
12540W        W80934  30.360  17.260  14.012
12541W        W80935  21.716  20.596   1.628
12542W        W80936   4.852  18.283  10.696
12543W        W80937   1.546  17.507  12.939
12544W        W80938   4.159  41.370  12.503
12545W        W80939  11.957  14.579   4.763
12546W        W80940  41.860  32.637   2.098
12547W        W80941  38.860  37.538  13.920
12548W        W80942  27.652  12.198  13.917
12549W        W80943   3.554  36.740   2.650
12550W        W80944  43.782  19.583  13.963
12551W        W80945   8.580  35.388   3.210
12552W        W80946  14.636   3.563   2.726
12553W        W80947  25.149  14.143  14.362
12554W        W80948  35.889  28.918  12.823
12555W        W80949   0.986  19.052   4.938
12556W        W80950  28.810  40.422  11.174
12557W        W80951  38.404  30.987  10.776
12558W        W80952   5.236  15.231  14.452
12559W        W80953  38.887  44.872   0.679
12560W        W80954  28.023  36.165  14.462
12561W        W80955  34.630  23.243  14.999
12562W        W80956  26.998  17.378   3.479
12563W        W80957  21.998  15.708   0.745
12564W        W80958  42.756  17.298   4.161
12565W        W80959  15.121  34.009   2.949
12566W        W80960  43.487  33.939   4.021
12567W        W80961  24.091  31.914   2.264
12568W        W80962   5.710  40.609  11.634
12569W        W80963  20.139  15.719  10.211
12570W        W80964  12.151  23.600   2.673
12571W        W80965  31.900  15.161   0.828
12572W        W80966  35.035  42.227  12.828
12573W        W80967   0.979  41.572  13.827
12574W        W80968   7.182   7.370   1.424
12575W        W80969   4.373  38.096  13.009
12576W        W80970  30.577  37.780   2.195
12577W        W80971  32.128   3.468   0.794
12578W        W80972   0.303  42.996  14.467
12579W        W80973  15.183  26.144   4.451
12580W        W80974  23.175  12.811  14.057
12581W        W80975  44.876   3.986   4.525
12582W        W80976  32.864  23.612   1.845
12583W        W80977   8.887  12.998   4.039
12584W        W80978  36.688   8.188   3.783
12585W        W80979  10.598  19.854   2.354
12586W        W80980  37.365  34.222   0.269
12587W        W80981  13.670  40.847  11.996
12588W        W80982  17.655  12.056   4.902
12589W        W80983  27.482  22.642  14.543
12590W        W80984  39.271   3.195   3.524
12591W        W80985  25.419  28.498   2.187
12592W        W80986   0.463   4.045  14.587
12593W        W80987   7.222  43.852  13.830
12594W        W80988   4.396  32.512   3.490
12595W        W80989  25.659  33.564  11.694
12596W        W80990  32.554  22.638  14.266
12597W        W80991  40.261  22.474  11.593
12598W        W80992  12.051  20.235  11.635
12599W        W80993  23.336  15.618  13.485
12600W        W80994  39.291  33.119   0.866
12601W        W80995  21.494  33.962   3.731
12602W        W80996   3.159  25.511   1.888
12603W        W80997   1.500  44.904  13.170
12604W        W80998  43.492  30.982   3.215
12605W        W80999  34.005   7.089  10.821
12606W        W81000  13.429  44.398   0.718
12607W        W81001  38.330  11.620  13.915
12608W        W81002  30.927  35.356   5.251
12609W        W81003   0.852  43.541  11.954
12610W        W81004  13.157  40.108   3.651
12611W        W81005  32.455   2.544   0.943
12612W        W81006   5.175  39.937  12.497
12613W        W81007   3.256  32.436   0.258
12614W        W81008  14.985  33.971   3.865
12615W        W81009   6.239  12.668  14.090
12616W        W81010  24.087   1.700   1.826
12617W        W81011  29.562  12.199  10.366
12618W        W81012  13.364  29.609  12.082
12619W        W81013  44.770  34.972   4.906
12620W        W81014  26.141  36.369  11.507
12621W        W81015  34.998   0.505   4.011
12622W        W81016  21.679  22.035   4.420
12623W        W81017  33.801  15.634  10.591
12624W        W81018   5.471  10.578   2.757
12625W        W81019  14.258  23.448  11.110
12626W        W81020   6.011  28.834  12.596
12627W        W81021  28.040  40.382  12.400
12628W        W81022   6.759   5.825   1.979
12629W        W81023  14.564  25.145   3.108
12630W        W81024   2.185  16.209  11.582
12631W        W81025  42.332  43.455  13.545
12632W        W81026  41.454   7.265  14.886
12633W        W81027  13.853  36.587   3.558
12634W        W81028   1.888  12.987  12.039
12635W        W81029  12.248  40.070  14.785
12636W        W81030  29.594  29.009  14.903
12637W        W81031   5.853  43.529   4.644
12638W        W81032   9.239   6.184   2.034
12639W        W81033  30.464   0.157   3.732
12640W        W81034  37.127  30.538   3.778
12641W        W81035  36.893  12.936  11.177
12642W        W81036   6.734  27.500   4.112
12643W        W81037   1.675   5.798  12.095
12644W        W81038  19.285   4.013   4.668
12645W        W81039  14.164  28.524  13.589
12646W        W81040  16.053   3.964  13.836
12647W        W81041  12.045   2.954   2.800
12648W        W81042  35.842   8.229  11.825
12649W        W81043   4.902   4.918  14.028
12650W        W81044  29.917  38.634   1.041
12651W        W81045  11.582  43.066  13.008
12652W        W81046  14.202   9.652   4.119
12653W        W81047  34.400   1.869   1.794
12654W        W81048  32.615  36.849   3.264
12655W        W81049  10.891  12.381  11.688
12656W        W81050  37.312  29.145  14.048
12657W        W81051  22.982   8.256   0.287
12658W        W81052   8.383   0.239   4.450
12659W        W81053  13.379  29.128  10.786
12660W        W81054  21.199  42.359   2.249
12661W        W81055  10.802  21.954  11.781
12662W        W81056  16.450  42.059   4.845
12663W        W81057  24.029  27.629   2.325
12664W        W81058  26.703  44.469   3.319
12665W        W81059  24.957  10.944  12.534
12666W        W81060  31.908  10.030   5.009
12667W        W81061  16.155  32.304  11.057
12668W        W81062  24.762  11.274  12.146
12669W        W81063  36.423  25.478  12.300
12670W        W81064  16.845  11.741   1.872
12671W        W81065  44.331  36.118  11.717
12672W        W81066  34.750  37.505   1.755
12673W        W81067  24.885  36.401  13.519
12674W        W81068  20.373  18.350   5.035
12675W        W81069  21.520  16.627   4.842
12676W        W81070   0.402  18.678   2.399
12677W        W81071  11.397  44.843   2.786
12678W        W81072   9.369   1.889   4.509
12679W        W81073  18.147  42.480   0.979
12680W        W81074  42.503  21.176  11.988
12681W        W81075  40.030  24.937   2.844
12682W        W81076   2.872  42.131  11.185
12683W        W81077  10.554  24.197   3.279
12684W        W81078  30.391   6.195  14.961
12685W        W81079  12.338  33.694  14.442
12686W        W81080  14.541   6.363   2.348
12687W        W81081   4.953  30.680  10.736
12688W        W81082  24.968  15.901  13.888
12689W        W81083  34.018  25.515  10.537
12690W        W81084   6.208  23.767  13.582
12691W        W81085  34.177  27.522   1.443
12692W        W81086  16.529  29.069  11.501
12693W        W81087  19.812  25.455  10.731
12694W        W81088   0.824  44.976  10.511
12695W        W81089  32.052  44.182  13.957
12696W        W81090   7.238   5.327   5.080
12697W        W81091  44.350  18.586  11.545
12698W        W81092  38.002  41.304  11.980
12699W        W81093  25.741  14.545   3.136
12700W        W81094  28.676  15.580  12.515
12701W        W81095  40.790  11.681   4.626
12702W        W81096   1.508  12.318   0.002
12703W        W81097  19.566  25.648  11.156
12704W        W81098  15.270  28.467   1.542
12705W        W81099  30.917  11.702   1.385
12706W        W81100  31.088   4.507   1.411
12707W        W81101   5.176  15.180   0.853
12708W        W81102  29.930  11.766   4.570
12709W        W81103  25.233  43.486   4.590
12710W        W81104  27.759  23.564  14.361
12711W        W81105  19.172  37.900   0.798
12712W        W81106  10.671  28.025   2.293
12713W        W81107  34.791  26.979   0.745
12714W        W81108   8.182  24.371   2.270
12715W        W81109   9.137  38.934  10.489
12716W        W81110  38.908  10.642  11.057
12717W        W81111  40.861  43.013   1.393
12718W        W81112  25.768  31.794  13.549
12719W        W81113  15.188   5.921   0.674
12720W        W81114   7.191   0.677   0.799
12721W        W81115   9.653  35.181  14.207
12722W        W81116  26.888  12.719   4.901
12723W        W81117  21.696   7.558   0.949
12724W        W81118   4.188  17.484   4.915
12725W        W81119  19.451  12.613  12.503
12726W        W81120  28.902  14.642  10.969
12727W        W81121  43.777  29.546   4.348
12728W        W81122   5.492  39.370  14.903
12729W        W81123  26.662  23.698  10.771
12730W        W81124  10.487  30.785  13.473
12731W        W81125  16.771  41.384  14.343
12732W        W81126   7.743  39.994   5.395
12733W        W81127  42.305  13.777  14.314
12734W        W81128  19.131  15.653   0.821
12735W        W81129   8.357  18.685  13.938
12736W        W81130   5.286  38.588   2.392
12737W        W81131  12.713  13.723   1.733
12738W        W81132  41.928   7.784  11.559
12739W        W81133  10.338   9.647   1.445
12740W        W81134  21.120   6.381   1.556
12741W        W81135   3.466   9.303   0.267
12742W        W81136  36.006  35.168  13.330
12743W        W81137  24.562   9.163   4.000
12744W        W81138  15.624  24.139   2.837
12745W        W81139  39.633  34.018   1.367
12746W        W81140  31.386  14.154   1.239
12747W        W81141  32.700   1.456   2.606
12748W        W81142  18.493  10.558  14.295
12749W        W81143   4.931  25.501   1.392
12750W        W81144  23.912  34.140   0.375
12751W        W81145   7.685  32.632  13.582
12752W        W81146  21.762  31.042   4.676
12753W        W81147  25.015  15.181   3.888
12754W        W81148  34.073   5.360  12.592
12755W        W81149  13.802  35.797   0.828
12756W        W81150   6.600  22.582   1.371
12757W        W81151  16.650  39.958  14.647
12758W        W81152  40.687  41.388  11.662
12759W        W81153  18.012  17.326   0.203
12760W        W81154   4.278  33.021  10.661
12761W        W81155  34.936  44.378   1.033
12762W        W81156  38.824  33.437   3.646
12763W        W81157   8.365   7.376   2.398
12764W        W81158  21.991  12.477  14.373
12765W        W81159  21.092  14.652   5.194
12766W        W81160   2.830  29.274   1.500
12767W        W81161  14.787   5.469  12.403
12768W        W81162  20.873  42.845   2.649
12769W        W81163  22.683  42.538  13.810
12770W        W81164   3.759   2.394   4.791
12771W        W81165   2.177  14.208  14.517
12772W        W81166   7.957   4.513  12.421
12773W        W81167  12.578   6.155  10.962
12774W        W81168  24.543  11.149   2.903
12775W        W81169   0.604   5.047  14.314
12776W        W81170  22.573  43.732  10.995
12777W        W81171  31.388  29.799   0.300
12778W        W81172  44.616  16.686   0.805
12779W        W81173  10.486  17.393  12.810
12780W        W81174  36.368  27.631   1.893
12781W        W81175  21.788  41.681   2.356
12782W        W81176  12.727  41.548  11.636
12783W        W81177  21.607  41.416   0.067
12784W        W81178  17.340  31.375   2.799
12785W        W81179  22.937  26.574   4.616
12786W        W81180  33.892  11.201   1.432
12787W        W81181  42.504  15.836  11.576
12788W        W81182  37.518  19.747   3.854
12789W        W81183  14.895  36.595  11.378
12790W        W81184  40.854  36.909   3.830
12791W        W81185  23.168   6.440  13.019
12792W        W81186  20.332   6.421   2.831
12793W        W81187  29.569   6.781   0.328
12794W        W81188   5.869  33.556   0.867
12795W        W81189  40.051   8.116  12.589
12796W        W81190   2.884  13.068  12.045
12797W        W81191  16.176  28.726   3.159
12798W        W81192  12.161  14.428   1.382
12799W        W81193   8.915   3.266  12.793
12800W        W81194  23.592  25.766  11.194
12801W        W81195  36.559   4.201  11.635
12802W        W81196  13.720  29.514  11.695
12803W        W81197  32.857  20.781  12.599
12804W        W81198  33.492  26.849  14.564
12805W        W81199  11.221  27.703   1.229
12806W        W81200  19.853  23.912   4.854
12807W        W81201  25.916   4.028   2.437
12808W        W81202   1.718  15.748  13.259
12809W        W81203   8.330  14.190   3.966
12810W        W81204   1.829  33.412  11.612
12811W        W81205  37.544  13.857  13.999
12812W        W81206  23.336  13.739  13.403
12813W        W81207  27.744  38.578  12.247
12814W        W81208  24.560  25.753  11.956
12815W        W81209  21.017  17.758   3.456
12816W        W81210  23.519  42.835   0.640
12817W        W81211  20.543  33.655  12.074
12818W        W81212   0.881  40.571   0.478
12819W        W81213  43.273  34.507   5.400
12820W        W81214   8.167  29.048  11.122
12821W        W81215  42.649  20.998  14.291
12822W        W81216  29.818  22.262  11.132
12823W        W81217   7.288  41.040   1.855
12824W        W81218  29.505  16.332  12.440
12825W        W81219   7.385   1.260  11.984
12826W        W81220  38.601   1.403  10.762
12827W        W81221  14.652   2.545   2.847
12828W        W81222  19.471  20.043  13.083
12829W        W81223  11.885  28.047   4.966
12830W        W81224  29.626   8.820   1.496
12831W        W81225  42.501  11.899   2.739
12832W        W81226   0.801  43.961  12.570
12833W        W81227  38.239  44.508   1.767
12834W        W81228   2.968  20.516  13.057
12835W        W81229  13.267   7.218   0.777
12836W        W81230  23.593   1.016   2.222
12837W        W81231  11.086  43.435   2.759
12838W        W81232  15.728  32.400   2.866
12839W        W81233  28.500  29.238  11.178
12840W        W81234  41.051  39.387   0.800
12841W        W81235   5.460  26.689   0.782
12842W        W81236  34.605  12.363   1.772
12843W        W81237  23.164   1.106   1.661
12844W        W81238   8.485   8.214  14.247
12845W        W81239   8.239  38.892   3.131
12846W        W81240  38.685  10.160   3.926
12847W        W81241  42.070  25.961  13.761
12848W        W81242  33.326  14.801  12.971
12849W        W81243  22.589   8.300   3.601
12850W        W81244  29.668   9.335  11.957
12851W        W81245  33.102   5.975  14.964
12852W        W81246  35.460  42.550   0.955
12853W        W81247  41.855  17.369  13.069
12854W        W81248   0.599  44.831   4.863
12855W        W81249   2.057  19.075  12.177
12856W        W81250   8.831   8.164   4.350
12857W        W81251  27.116  10.124   2.784
12858W        W81252  22.953  25.722   3.394
12859W        W81253   3.470  40.712  11.986
12860W        W81254  11.081  23.514   3.578
12861W        W81255   4.452  18.555  14.122
12862W        W81256  16.200  10.750   4.228
12863W        W81257  38.149  19.573   1.334
12864W        W81258  15.229  21.375   4.132
12865W        W81259  26.178  40.724   1.383
12866W        W81260   2.666  36.325  14.795
12867W        W81261  22.602  43.279   0.973
12868W        W81262  11.274   3.161   2.245
12869W        W81263  10.165   4.138  11.574
12870W        W81264  22.085   7.869   0.423
12871W        W81265  12.657   8.199   5.035
12872W        W81266   4.561  35.547   4.997
12873W        W81267  13.107  10.393   4.308
12874W        W81268   2.310  18.962  14.817
12875W        W81269  32.956  42.490   4.033
12876W        W81270   5.710  17.478   1.891
12877W        W81271  33.592  14.096   0.382
12878W        W81272  35.141  19.568   3.679
12879W        W81273  33.469  28.064   4.425
12880W        W81274  34.210  25.016   3.297
12881W        W81275  39.011  38.824  10.378
12882W        W81276  36.337  18.549   2.449
12883W        W81277  38.772  28.058  13.770
12884W        W81278   5.726  37.005   0.983
12885W        W81279  39.313   7.545   0.002
12886W        W81280  34.634  43.504  13.837
12887W        W81281  19.051   1.817  10.987
12888W        W81282  32.106  24.147  11.591
12889W        W81283  30.529  22.975  12.599
12890W        W81284  20.173  24.035   2.844
12891W        W81285   6.702  38.856  11.596
12892W        W81286  24.184  14.293   3.712
12893W        W81287   2.281  15.767   4.132
12894W        W81288  35.967   7.025   4.196
12895W        W81289  38.922  44.935  11.525
12896W        W81290  33.008  24.505   3.321
12897W        W81291  27.455  36.642   1.429
12898W        W81292   7.172  22.279  11.563
12899W        W81293  31.499  26.302  10.450
12900W        W81294  34.041  35.824  13.560
12901W        W81295  40.659  32.896   1.223
12902W        W81296  29.346  16.245   0.967
12903W        W81297  38.176  16.508   1.697
12904W        W81298  36.992  35.735   4.513
12905W        W81299  24.531  42.241  13.007
12906W        W81300  10.925  34.952  12.847
12907W        W81301  17.217  23.993  13.355
12908W        W81302  39.301   5.227  13.446
12909W        W81303   6.745  21.099  10.969
12910W        W81304  14.549  37.940   9.842
12911W        W81305  30.587  15.281  13.023
12912W        W81306  13.753  44.815   2.974
12913W        W81307  36.896  12.758   0.340
12914W        W81308  12.036  40.112  10.307
12915W        W81309  27.569   9.670  10.537
12916W        W81310  40.975  19.675  12.637
12917W        W81311  32.442  41.959   2.828
12918W        W81312   0.251   6.803   1.365
12919W        W81313   9.425  34.948  13.348
12920W        W81314  25.135  30.410  10.604
12921W        W81315   7.339   0.372  11.208
12922W        W81316  33.889  32.233  10.038
12923W        W81317  18.701   8.597   0.782
12924W        W81318  43.975  37.216   2.232
12925W        W81319  24.969  28.634  12.545
12926W        W81320   6.338  40.109  14.487
12927W        W81321  13.064  30.482  11.080
12928W        W81322  38.821  32.428  14.460
12929W        W81323  26.758  19.081   4.282
12930W        W81324   0.390  17.408  13.837
12931W        W81325   3.657  11.724  10.965
12932W        W81326  25.972  13.714  14.325
12933W        W81327  13.242  24.001   1.746
12934W        W81328   0.735  33.603   4.705
12935W        W81329  29.394  24.501  12.958
12936W        W81330  22.029   9.576   2.613
12937W        W81331  10.820  26.618   0.835
12938W        W81332   1.613  29.276  10.757
12939W        W81333  17.385  13.581  14.970
12940W        W81334  27.241  28.428  13.081
12941W        W81335   6.509  41.104   4.755
12942W        W81336   3.927  13.388  13.598
12943W        W81337  19.272  31.968  14.032
12944W        W81338   5.950  31.407  14.353
12945W        W81339  13.267  33.086  10.795
12946W        W81340   0.821  38.347   1.930
12947W        W81341   3.881  27.380   4.706
12948W        W81342  16.266   4.679  13.582
12949W        W81343  12.626   8.748   2.762
12950W        W81344  34.315  42.520  10.617
12951W        W81345   8.938  35.950   0.803
12952W        W81346  14.037  11.834   4.518
12953W        W81347  18.823  40.805  12.895
12954W        W81348  37.490  43.048   0.968
12955W        W81349  36.361  31.326   4.158
12956W        W81350   1.334  13.339   0.825
12957W        W81351  12.374  11.390  13.924
12958W        W81352  23.430  13.379   4.341
12959W        W81353   2.064  22.139   1.945
12960W        W81354   2.969  38.511  11.496
12961W        W81355   0.866   3.235   3.684
12962W        W81356   9.596  14.847   0.809
12963W        W81357  26.679  20.815  13.029
12964W        W81358  22.804   8.699  11.054
12965W        W81359  23.125   0.239  14.601
12966W        W81360   6.623  18.558  13.320
12967W        W81361  26.632  39.110   0.271
12968W        W81362  21.194  31.978  13.038
12969W        W81363  26.868   2.754  13.471
12970W        W81364  33.693   4.140  14.202
12971W        W81365  33.685  36.013   0.394
12972W        W81366  18.503   2.385  11.661
12973W        W81367  36.875  31.402   0.936
12974W        W81368  23.980  40.379  11.133
12975W        W81369  33.050  38.863   2.745
12976W        W81370   7.731   1.812   1.921
12977W        W81371  42.810   0.818   4.666
12978W        W81372  22.194  26.056  11.366
12979W        W81373  34.857   0.805   2.307
12980W        W81374  22.681  24.829   0.008
12981W        W81375  28.592   1.802  13.356
12982W        W81376  33.019   1.833   2.383
12983W        W81377  16.650  19.527   4.635
12984W        W81378   6.673  32.514   4.111
12985W        W81379   0.330  26.593  13.927
12986W        W81380  42.015  39.419  13.527
12987W        W81381  20.912  11.060   4.275
12988W        W81382   0.396  21.905   0.931
12989W        W81383  12.685  18.724   1.051
12990W        W81384  18.578   1.943  11.160
12991W        W81385  26.071   2.182  12.094
12992W        W81386  22.594   2.635   1.753
12993W        W81387  40.588  12.380  13.857
12994W        W81388  41.782  28.879   1.743
12995W        W81389  18.857  20.158   3.578
12996W        W81390  42.329  23.097   3.985
12997W        W81391  24.067   7.560   3.063
12998W        W81392   5.920   3.669   0.381
12999W        W81393   7.898  21.186   2.376
13000W        W81394   7.258  36.924  14.090
13001W        W81395  18.342  19.709   4.622
13002W        W81396  25.664  13.622   4.361
13003W        W81397  28.842  23.169   0.678
13004W        W81398  41.029  36.641  12.905
13005W        W81399  11.266  35.114   0.987
13006W        W81400   5.462  42.582  14.300
13007W        W81401   3.986   0.799   4.696
13008W        W81402  13.529  10.795   1.358
13009W        W81403  32.386  35.808   3.234
13010W        W81404  28.663  17.700   1.352
13011W        W81405  26.627  37.394  13.634
13012W        W81406  12.175  32.515   2.352
13013W        W81407  18.227  39.478  11.312
13014W        W81408  29.991   2.462  12.998
13015W        W81409  24.114   5.714   4.144
13016W        W81410   3.372  37.528  13.301
13017W        W81411  38.251   9.669   2.256
13018W        W81412  41.792  32.617   2.615
13019W        W81413  40.000  12.745  11.095
13020W        W81414   6.057  41.204   1.772
13021W        W81415  24.624   4.805   3.673
13022W        W81416  28.217  27.639   0.838
13023W        W81417  41.448  17.358   4.531
13024W        W81418  22.005  38.866   2.187
13025W        W81419  30.216  11.267   4.803
13026W        W81420  25.598  27.452  10.391
13027W        W81421  44.016  13.115  11.617
13028W        W81422  30.140   4.160  14.464
13029W        W81423  18.809  19.777  13.825
13030W        W81424  14.053  41.625  11.462
13031W        W81425  24.554  36.685  14.382
13032W        W81426  33.740  15.110   0.216
13033W        W81427   2.930  13.882   4.353
13034W        W81428  12.285  23.033  11.571
13035W        W81429  21.501  44.471  13.817
13036W        W81430  22.791   5.242   2.316
13037W        W81431   1.372  40.881  12.155
13038W        W81432  27.886   4.832  14.684
13039W        W81433  42.362  10.455   1.755
13040W        W81434  44.158  26.391   5.059
13041W        W81435   9.242  26.135  13.596
13042W        W81436  39.296  35.474  14.414
13043W        W81437  34.381  36.794   3.211
13044W        W81438  42.718  14.799  12.138
13045W        W81439  43.713  33.011   3.687
13046W        W81440  21.756  38.072   3.778
13047W        W81441   8.283  28.063   3.811
13048W        W81442  44.462  33.916   3.615
13049W        W81443   1.879  12.558  11.060
13050W        W81444   2.129   6.470  12.467
13051W        W81445  25.653   2.236   1.379
13052W        W81446  28.100  41.951   0.664
13053W        W81447  11.947  33.960   2.197
13054W        W81448  11.904  44.818   2.607
13055W        W81449   6.071  35.997   0.508
13056W        W81450  30.928  20.343  11.477
13057W        W81451  42.485  28.294   2.825
13058W        W81452   3.250   1.966   2.251
13059W        W81453   8.229  38.128  12.038
13060W        W81454  13.219   6.336   0.216
13061W        W81455  33.081  29.453   3.134
13062W        W81456   8.695   6.984   3.675
13063W        W81457  36.002   0.934  13.443
13064W        W81458  10.952  12.384   2.829
13065W        W81459   3.017  34.016   4.651
13066W        W81460  42.276  31.329  14.842
13067W        W81461  29.063  34.970  11.001
13068W        W81462  21.009  19.322  11.154
13069W        W81463  10.806  42.990   2.753
13070W        W81464  22.174  42.397  11.557
13071W        W81465  34.541  29.916   4.231
13072W        W81466  43.942  43.507   0.069
13073W        W81467  12.174  41.690  11.095
13074W        W81468  27.804   7.754  12.424
13075W        W81469  33.612  38.271  13.354
13076W        W81470   5.850  29.732  13.978
13077W        W81471  21.136  14.923  13.461
13078W        W81472  41.046   2.968   2.261
13079W        W81473  37.333  20.745   4.067
13080W        W81474   0.377  16.144  13.261
13081W        W81475  24.956  41.841  11.078
13082W        W81476   4.909  13.241   2.153
13083W        W81477  36.095  36.444   0.785
13084W        W81478  42.231  17.198   3.275
13085W        W81479   8.120  34.251   2.744
13086W        W81480  36.862  17.068   3.147
13087W        W81481  26.158   3.031   2.162
13088W        W81482  24.259   2.279   3.474
13089W        W81483  26.156  15.358  12.330
13090W        W81484  42.936  39.251  11.575
13091W        W81485  17.120  40.949   0.940
13092W        W81486  15.307  40.258   4.059
13093W        W81487  35.494  30.263   2.151
13094W        W81488  15.634   2.349  14.883
13095W        W81489  18.807  43.573  14.838
13096W        W81490  23.080  30.213  10.327
13097W        W81491   2.245  12.909  13.335
13098W        W81492  31.604   3.200  14.238
13099W        W81493  35.865  30.577   4.454
13100W        W81494  27.142  27.661  12.081
13101W        W81495   3.295  31.030  13.851
13102W        W81496  27.131  40.903   4.204
13103W        W81497   9.608   8.415  11.461
13104W        W81498   2.495  29.644  10.639
13105W        W81499  14.222  35.909   1.307
13106W        W81500  10.007  39.227   1.171
13107W        W81501  21.227  29.689   1.741
13108W        W81502  14.860  18.213  11.909
13109W        W81503  27.168   4.216   1.337
13110W        W81504  22.490   0.793   2.419
13111W        W81505  21.955  31.922  14.443
13112W        W81506  13.952  24.895  11.252
13113W        W81507  22.525  15.773   3.518
13114W        W81508  33.076  14.173   1.446
13115W        W81509  12.835   5.140   4.548
13116W        W81510  21.590  24.271  14.940
13117W        W81511  23.926  23.746  14.531
13118W        W81512  19.775   0.782   3.193
13119W        W81513  28.917  28.202  10.583
13120W        W81514  27.014  41.328   1.266
13121W        W81515  34.407  35.113  14.932
13122W        W81516  42.046   9.061   3.301
13123W        W81517   7.713  43.296   0.988
13124W        W81518  29.401  31.334   2.172
13125W        W81519   2.418  25.610  11.162
13126W        W81520  42.340  41.760   1.795
13127W        W81521  17.595  19.576  10.688
13128W        W81522  27.647  11.682   4.782
13129W        W81523  22.541  16.455   2.277
13130W        W81524  16.540  33.136  12.292
13131W        W81525   2.730   4.144  13.253
13132W        W81526  30.428  32.611  13.008
13133W        W81527  24.977  38.489   2.860
13134W        W81528  44.955  34.133   4.341
13135W        W81529  25.633  25.124  14.811
13136W        W81530  30.901  15.703  13.921
13137W        W81531  30.140  37.990  12.983
13138W        W81532  10.685  27.002  11.994
13139W        W81533  19.595  44.467  14.980
13140W        W81534  22.769  20.490  11.911
13141W        W81535  21.752  12.982   1.180
13142W        W81536  29.017   1.834   3.877
13143W        W81537  17.472  41.322   0.898
13144W        W81538  43.298   7.449  13.865
13145W        W81539  22.345  23.107  13.966
13146W        W81540  16.584  30.949  11.521
13147W        W81541  35.265   9.625  11.867
13148W        W81542   8.747  22.216   0.038
13149W        W81543  10.148  15.315   0.295
13150W        W81544  36.471  40.249   0.835
13151W        W81545  39.249  29.166   3.839
13152W        W81546  42.433  21.265   3.860
13153W        W81547  23.986  30.127  11.495
13154W        W81548  32.624   8.766   2.260
13155W        W81549  15.133   2.284   0.021
13156W        W81550  34.337  42.903  14.839
13157W        W81551  10.026  18.159   4.274
13158W        W81552  16.609  34.166   0.483
13159W        W81553  30.957   7.555   2.659
13160W        W81554   6.909   4.948   0.742
13161W        W81555   7.618  21.123   2.818
13162W        W81556  34.025   8.936   3.285
13163W        W81557  37.962   7.606   0.046
13164W        W81558  16.740  31.982  13.807
13165W        W81559  16.780  31.971  11.537
13166W        W81560   9.889  10.220  11.441
13167W        W81561  20.464  35.517   3.782
13168W        W81562   8.271  12.106   0.014
13169W        W81563   8.859  43.279   1.623
13170W        W81564  13.328  21.234  11.144
13171W        W81565  37.492  27.251   4.306
13172W        W81566   3.663  13.132   3.423
13173W        W81567  25.000  23.396  10.940
13174W        W81568  34.157  16.131  11.699
13175W        W81569   6.571  21.252   2.289
13176W        W81570   7.266   5.390   2.637
13177W        W81571   0.598   9.226   0.260
13178W        W81572  39.987  32.025   0.727
13179W        W81573   7.874  31.368  13.764
13180W        W81574  37.454   5.406  14.956
13181W        W81575  41.765  18.008  10.971
13182W        W81576   8.127  41.596  13.015
13183W        W81577  36.899  10.112   2.900
13184W        W81578  35.305  19.010  14.426
13185W        W81579  27.184  33.393  11.197
13186W        W81580  17.693  18.099   0.411
13187W        W81581  33.502   5.872   2.693
13188W        W81582  29.959   6.932   4.993
13189W        W81583  40.646  39.061   0.888
13190W        W81584  33.494  26.942  11.555
13191W        W81585  26.207   6.713  11.097
13192W        W81586  43.017  34.089  14.793
13193W        W81587   2.323  25.325  11.616
13194W        W81588  34.099  21.685  12.087
13195W        W81589   1.319   5.256  12.856
13196W        W81590  34.771   2.478   0.272
13197W        W81591   8.494   9.258  14.309
13198W        W81592  25.604  24.261   0.431
13199W        W81593  15.784  35.146   3.504
13200W        W81594  22.251   3.936   0.669
13201W        W81595   2.648  22.558   2.412
13202W        W81596   4.839  31.716   0.383
13203W        W81597   9.595  16.226   0.832
13204W        W81598  15.293  36.389   0.902
13205W        W81599   1.094  44.967  13.493
13206W        W81600  27.141  26.127  13.245
13207W        W81601  38.316  26.388  11.729
13208W        W81602  20.686  30.030   4.365
13209W        W81603  28.636   9.929   3.165
13210W        W81604  33.412  33.521   1.512
13211W        W81605  38.329  15.866  14.256
13212W        W81606  34.653  25.317  11.142
13213W        W81607   0.432   3.000  13.014
13214W        W81608  10.389  12.507  11.582
13215W        W81609  40.432  23.402  10.004
13216W        W81610  34.969   2.032   0.004
13217W        W81611   0.696  20.323   2.926
13218W        W81612  20.522  35.236   4.200
13219W        W81613   0.674  34.057  13.066
13220W        W81614  34.348   8.348   4.085
13221W        W81615  14.233  38.353   0.271
13222W        W81616  20.247  16.819   2.678
13223W        W81617  43.468  23.152   2.434
13224W        W81618  41.904  25.228   4.574
13225W        W81619  17.063  20.606   3.448
13226W        W81620  10.330   0.447  10.401
13227W        W81621  16.532  10.975   1.414
13228W        W81622  26.556  33.623   1.927
13229W        W81623  42.341  13.535   2.171
13230W        W81624  20.646  27.472  11.956
13231W        W81625  27.875  10.956  10.408
13232W        W81626  25.683  38.406  13.397
13233W        W81627  23.576  36.224   3.870
13234W        W81628  26.959  37.703  12.926
13235W        W81629  29.018   2.918  14.526
13236W        W81630   7.877  10.662  11.013
13237W        W81631  38.852  43.280  11.665
13238W        W81632  43.257  27.146   4.595
13239W        W81633  28.376  13.689  13.436
13240W        W81634  11.586  44.995   0.484
13241W        W81635   6.703   3.798  13.293
13242W        W81636  34.375  26.193   3.646
13243W        W81637   8.170  33.919   0.469
13244W        W81638  21.245  10.679   4.205
13245W        W81639  24.179   8.474  11.084
13246W        W81640   5.456  19.830   2.022
13247W        W81641  39.017  39.748  10.744
13248W        W81642  40.452  18.529  11.162
13249W        W81643  17.858  44.879  12.520
13250W        W81644  29.320  20.156   1.305
13251W        W81645  11.370   0.685  11.033
13252W        W81646  30.499  32.777   4.048
13253W        W81647  34.905  40.998   1.454
13254W        W81648  14.074  15.923   0.430
13255W        W81649   2.537   5.384  13.419
13256W        W81650  40.895  38.886   1.845
13257W        W81651  27.732  11.230   0.253
13258W        W81652   7.911   7.728   3.822
13259W        W81653   8.706  27.633   4.730
13260W        W81654  41.241   5.334   2.196
13261W        W81655   4.369  25.546   4.678
13262W        W81656   4.713  17.534   2.793
13263W        W81657  13.810  25.529   4.194
13264W        W81658  12.921  13.408  10.814
13265W        W81659  27.304  31.175  12.440
13266W        W81660  37.821   7.738  14.559
13267W        W81661  37.710  12.609  14.729
13268W        W81662  38.451   1.932  10.601
13269W        W81663  36.407  13.215   2.780
13270W        W81664  19.280  31.562  13.017
13271W        W81665   0.443  26.081  11.716
13272W        W81666  11.751  19.119   0.472
13273W        W81667  30.090  40.514  10.749
13274W        W81668  41.352  17.535  11.196
13275W        W81669   6.424  26.575   2.206
13276W        W81670  17.694  10.510   2.226
13277W        W81671  35.295  35.258   2.122
13278W        W81672  20.805  29.624   3.318
13279W        W81673  36.428  18.694   1.945
13280W        W81674   0.497  23.539   4.130
13281W        W81675  27.167  30.614  13.757
13282W        W81676  11.401  28.972  10.614
13283W        W81677  42.035  24.509  10.778
13284W        W81678  12.293   9.569   2.306
13285W        W81679   0.965  20.809   0.295
13286W        W81680  10.978  29.055   3.631
13287W        W81681  27.776  13.951  11.553
13288W        W81682  37.082  11.075   0.945
13289W        W81683  10.123  17.634   4.230
13290W        W81684  30.724   3.811   1.982
13291W        W81685  37.694  19.221   1.405
13292W        W81686  25.167  20.974  12.883
13293W        W81687  31.142  10.616   4.144
13294W        W81688   7.620   1.721  12.947
13295W        W81689  31.960  44.086   3.690
13296W        W81690  24.653  23.714   1.937
13297W        W81691  30.233   1.279   2.387
13298W        W81692  36.416  33.830   0.894
13299W        W81693  20.714   5.956   4.184
13300W        W81694   6.452  38.066   3.918
13301W        W81695  10.535  26.771   0.333
13302W        W81696  20.814  19.167  14.333
13303W        W81697  10.524  15.671  10.547
13304W        W81698  24.665  13.342  13.412
13305W        W81699  37.487  15.040  13.510
13306W        W81700   2.530  15.153  12.411
13307W        W81701  14.674   3.363  12.400
13308W        W81702  23.538   7.639  11.028
13309W        W81703  39.065  33.874   0.060
13310W        W81704  28.103  23.319  13.611
13311W        W81705  37.914  35.824  11.112
13312W        W81706  35.037  12.396   2.453
13313W        W81707  28.737  13.124  10.468
13314W        W81708   0.580  36.044   3.592
13315W        W81709   9.379  33.980   1.736
13316W        W81710  34.923   6.917   1.121
13317W        W81711  31.634  35.609   4.942
13318W        W81712  44.991   1.978   4.723
13319W        W81713  24.290   8.809   1.273
13320W        W81714  42.993  24.707  13.420
13321W        W81715  24.759  43.178  11.186
13322W        W81716   8.995   4.754   4.118
13323W        W81717  34.917  11.124   0.536
13324W        W81718  21.611  10.246  13.680
13325W        W81719  26.206  21.082  13.089
13326W        W81720  27.160   2.003  10.593
13327W        W81721  25.631   1.504   0.922
13328W        W81722  38.460  21.866   2.947
13329W        W81723  33.619  35.969  14.324
13330W        W81724  12.521   5.212   3.722
13331W        W81725  44.387  44.961   0.517
13332W        W81726   6.727  17.211  10.760
13333W        W81727  24.777   3.264   2.722
13334W        W81728  19.050   9.151   3.676
13335W        W81729  44.291  28.439   0.800
13336W        W81730  33.948  14.862  14.399
13337W        W81731  29.128   3.492  12.900
13338W        W81732  15.849  18.706   2.905
13339W        W81733  21.953   1.924   1.864
13340W        W81734  13.798  24.220   2.504
13341W        W81735  22.858  43.846  13.028
13342W        W81736  20.060  40.044   2.588
13343W        W81737  34.390  14.828  13.937
13344W        W81738  38.528  26.450  14.916
13345W        W81739  17.030  26.120   1.887
13346W        W81740  16.678   8.258  14.257
13347W        W81741  38.843  43.394  13.149
13348W        W81742  39.971  38.822   4.952
13349W        W81743  27.934  15.274   2.337
13350W        W81744   4.007  25.697  12.441
13351W        W81745  29.722   6.016  11.368
13352W        W81746  13.663   3.848  13.334
13353W        W81747  17.972   0.379   4.641
13354W        W81748   7.425  12.089   0.806
13355W        W81749  20.923  12.539  10.509
13356W        W81750  29.608  25.763  12.363
13357W        W81751  20.656   2.215  11.580
13358W        W81752   5.024  21.817   3.606
13359W        W81753  42.010  11.791  14.021
13360W        W81754  39.609  25.207   2.133
13361W        W81755  25.612   6.219   2.356
13362W        W81756  28.063  29.479   1.763
13363W        W81757  41.363  29.733  12.978
13364W        W81758  13.850  33.056   3.861
13365W        W81759   3.372   7.831   3.037
13366W        W81760  42.804  27.857   4.618
13367W        W81761   9.095  15.011   0.331
13368W        W81762  41.984  31.803   0.743
13369W        W81763  28.141  29.897   3.159
13370W        W81764   3.389  39.350   1.377
13371W        W81765  30.138  17.055   0.933
13372W        W81766  34.593  35.853  14.375
13373W        W81767  31.111  34.428   0.728
13374W        W81768  23.179  43.918  14.337
13375W        W81769   5.273  19.372  12.064
13376W        W81770  37.987   7.882  12.554
13377W        W81771  14.286  35.812  13.563
13378W        W81772  21.220  14.057  11.574
13379W        W81773  30.166   6.211  13.221
13380W        W81774  28.573   7.158  13.525
13381W        W81775  32.911   2.560  13.331
13382W        W81776   4.913  25.682   3.680
13383W        W81777   4.673  20.788  10.860
13384W        W81778  23.755   7.836  11.454
13385W        W81779  27.926  14.815  13.879
13386W        W81780  37.362  14.194   3.350
13387W        W81781  22.737   8.665  14.313
13388W        W81782  11.180  31.173   0.807
13389W        W81783  11.640  34.739   2.736
13390W        W81784  12.877  28.948  11.547
13391W        W81785  31.070  27.293   4.635
13392W        W81786  42.855   7.887   1.885
13393W        W81787  14.516  27.620   2.587
13394W        W81788  10.825  11.524   1.390
13395W        W81789  30.576  39.104   2.889
13396W        W81790   5.670  22.811  10.921
13397W        W81791  40.938  23.065   4.664
13398W        W81792  24.547  42.189   0.779
13399W        W81793  35.106   0.295   0.782
13400W        W81794  26.812  17.357  13.368
13401W        W81795  40.559   1.727  14.783
13402W        W81796   7.261  33.359  14.368
13403W        W81797  33.374  24.222  12.100
13404W        W81798  26.043  29.663   0.768
13405W        W81799  18.488  11.863  11.085
13406W        W81800  36.154  40.539  14.013
13407W        W81801  37.500  32.805  12.462
13408W        W81802  28.478   4.297  10.925
13409W        W81803  37.668  19.494   3.391
13410W        W81804  27.508  18.220   2.004
13411W        W81805  13.109  22.739   3.423
13412W        W81806  31.213  23.144  13.091
13413W        W81807   1.068  15.041  10.604
13414W        W81808   0.721  20.710  10.477
13415W        W81809   0.336  24.250   1.653
13416W        W81810  15.030  37.631   0.413
13417W        W81811   2.860  42.808  13.438
13418W        W81812  37.221  25.547  12.548
13419W        W81813   5.843  34.636  10.700
13420W        W81814  34.656   2.844  14.039
13421W        W81815  32.423  18.167  12.524
13422W        W81816  40.432  23.041   1.486
13423W        W81817  23.226  22.793  12.088
13424W        W81818  16.676  17.492   2.737
13425W        W81819   9.063  22.506   3.568
13426W        W81820   7.846   4.582   0.452
13427W        W81821  42.226  20.996  11.584
13428W        W81822  10.358  15.853  12.057
13429W        W81823   5.701  16.373   3.259
13430W        W81824  34.895  18.961  14.038
13431W        W81825  10.319  43.446   4.728
13432W        W81826  13.898  43.977   0.330
13433W        W81827  24.717  43.229  13.951
13434W        W81828  25.040  37.207  12.024
13435W        W81829   9.294  17.118   4.630
13436W        W81830  28.372   1.436  10.387
13437W        W81831  36.076  17.692   3.818
13438W        W81832  41.189  14.955  12.124
13439W        W81833  27.506   3.803  13.047
13440W        W81834   9.052  35.207   0.262
13441W        W81835  12.917  31.664  14.386
13442W        W81836  34.820  30.642   4.540
13443W        W81837  30.908  12.212   3.194
13444W        W81838  25.663  36.073  12.885
13445W        W81839  10.210  25.079  14.122
13446W        W81840  23.910  13.105  11.357
13447W        W81841  30.425  37.998   3.292
13448W        W81842  31.987  38.555  11.869
13449W        W81843  32.138  38.744   2.140
13450W        W81844   9.459   6.969  13.121
13451W        W81845  23.550  30.999   4.217
13452W        W81846  38.436  13.747  12.149
13453W        W81847  20.628  16.284   9.854
13454W        W81848  30.714  14.165  10.840
13455W        W81849  10.474  29.557   1.639
13456W        W81850  37.196  11.537   1.178
13457W        W81851  13.576  40.803  13.070
13458W        W81852  40.976  11.583   3.655
13459W        W81853  17.223  22.335   5.282
13460W        W81854   6.047   8.399   1.684
13461W        W81855  42.808  42.891   3.170
13462W        W81856  32.912  42.801  10.653
13463W        W81857   2.269   7.463   3.846
13464W        W81858  32.116  33.151   4.094
13465W        W81859  17.179  18.777   4.900
13466W        W81860   4.109  26.335   5.555
13467W        W81861  43.391  20.639   1.137
13468W        W81862  32.353  42.468   3.390
13469W        W81863  15.292  18.055   5.045
13470W        W81864  10.431  31.978   3.747
13471W        W81865  38.098  19.019   4.107
13472W        W81866  39.541  30.134   3.686
13473W        W81867  39.296   2.316   4.565
13474W        W81868  12.391   3.830  13.896
13475W        W81869  28.009  14.576  14.341
13476W        W81870  41.400  18.898   3.239
13477W        W81871   7.698  25.710  11.553
13478W        W81872  11.149  28.546  10.703
13479W        W81873   5.880  35.588   1.290
13480W        W81874  27.361   5.944  12.476
13481W        W81875  25.230  16.355  13.809
13482W        W81876  37.591   1.815   1.377
13483W        W81877  29.454  19.184  12.862
13484W        W81878  32.965  19.481   2.107
13485W        W81879   9.142  20.543   4.144
13486W        W81880  19.168  38.495   2.340
13487W        W81881  10.696  19.497  14.816
13488W        W81882  12.242   1.907   4.091
13489W        W81883  11.365   6.838   0.381
13490W        W81884  40.608  43.445   1.263
13491W        W81885   2.306  25.526   2.416
13492W        W81886  25.707  30.479  11.692
13493W        W81887  11.120  32.376   3.071
13494W        W81888  20.099  22.061  11.690
13495W        W81889  12.339  36.733  14.957
13496W        W81890  34.608  15.698  11.032
13497W        W81891  19.158  42.947  11.933
13498W        W81892  25.856  32.287   0.181
13499W        W81893  28.074  32.655  11.978
13500W        W81894  18.822   2.325   4.312
13501W        W81895  41.517  11.612   0.078
13502W        W81896  20.526  21.095  13.785
13503W        W81897  12.378  14.093  11.530
13504W        W81898   4.681  39.441   0.455
13505W        W81899  41.276  42.421  11.692
13506W        W81900  24.139  18.129   4.591
13507W        W81901  38.311  42.100  14.789
13508W        W81902   7.699  36.540  12.073
13509W        W81903  40.970  37.565  12.990
13510W        W81904  40.377  11.396   1.369
13511W        W81905  16.780   2.756   4.592
13512W        W81906  26.662  19.551  13.378
13513W        W81907  40.384  11.921   1.397
13514W        W81908   2.558  32.582  13.571
13515W        W81909  27.232  38.534  12.387
13516W        W81910  38.338  25.032  11.853
13517W        W81911  39.576  20.228   4.068
13518W        W81912  32.409  14.672  11.856
13519W        W81913  39.229  27.191  14.635
13520W        W81914  17.112  39.725  11.667
13521W        W81915  22.606   0.397   1.274
13522W        W81916  28.885   8.458  13.943
13523W        W81917  38.200   4.676  12.594
13524W        W81918   1.939  14.758  10.651
13525W        W81919  38.417   3.336  14.700
13526W        W81920  23.632  25.663   0.341
13527W        W81921  28.014   8.090  12.839
13528W        W81922  24.228  13.093  13.557
13529W        W81923   7.883  44.943   0.886
13530W        W81924  17.053  38.499  13.515
13531W        W81925  34.451  11.881   1.647
13532W        W81926  36.831   7.307   3.772
13533W        W81927   2.099  22.363  13.045
13534W        W81928   7.409  41.738   3.137
13535W        W81929  33.944  10.323  13.507
13536W        W81930  32.956   2.916  12.918
13537W        W81931  33.498  23.744   4.225
13538W        W81932   8.484   0.469  13.061
13539W        W81933   9.133   6.304  13.009
13540W        W81934  44.512   7.174   0.009
13541W        W81935   8.922  33.082   0.832
13542W        W81936  36.580  15.533  12.402
13543W        W81937  44.552  36.167  10.191
13544W        W81938   0.803  25.098  13.515
13545W        W81939   6.391   1.273   2.003
13546W        W81940  30.678  33.455  11.183
13547W        W81941  23.997  39.373  13.045
13548W        W81942  30.215  20.071   0.343
13549W        W81943  21.363  15.373  13.391
13550W        W81944   1.769  15.553  12.084
13551W        W81945  41.653   3.840   1.510
13552W        W81946  22.728  33.467  11.639
13553W        W81947  39.470  23.469  13.106
13554W        W81948  13.159   2.394  12.855
13555W        W81949  13.633  25.257   2.285
13556W        W81950  27.493  41.259  13.379
13557W        W81951  22.150  44.761   0.351
13558W        W81952  29.473  26.641  12.019
13559W        W81953   1.790  18.503  10.539
13560W        W81954  35.390  29.444  13.422
13561W        W81955   2.572  44.265  11.527
13562W        W81956  17.956  37.604  14.035
13563W        W81957  14.227  34.187  11.647
13564W        W81958  37.463  27.133   1.689
13565W        W81959  42.577  32.972  14.054
13566W        W81960  37.580  41.804   4.545
13567W        W81961   1.941   8.450  14.922
13568W        W81962  38.544  22.190  12.988
13569W        W81963  36.926  27.496  12.472
13570W        W81964  15.208   3.530  13.564
13571W        W81965   4.011  20.010  14.926
13572W        W81966   7.133  15.132  11.508
13573W        W81967   4.034  20.169  11.183
13574W        W81968  37.032  33.610  14.764
13575W        W81969  39.441  27.039   2.730
13576W        W81970  35.597  27.576  12.681
13577W        W81971  43.265  21.592  12.084
13578W        W81972  36.870  35.049   3.326
13579W        W81973  30.134  20.017   3.818
13580W        W81974  31.370   6.282   1.376
13581W        W81975  36.665  30.303   3.925
13582W        W81976   3.798  30.617   5.069
13583W        W81977   5.907  10.444  14.420
13584W        W81978  14.857  18.407   0.745
13585W        W81979  41.304  23.684   0.731
13586W        W81980  34.589  18.531   1.313
13587W        W81981  39.744  20.052  10.837
13588W        W81982  42.171  25.020   4.175
13589W        W81983  44.972  37.907   1.971
13590W        W81984  21.077  25.007   4.466
13591W        W81985  38.394   5.781   2.903
13592W        W81986   5.510   3.939  12.950
13593W        W81987  20.745  11.708   0.361
13594W        W81988  32.060  37.952  11.713
13595W        W81989  34.649  10.300   4.087
13596W        W81990  23.005  25.109   4.187
13597W        W81991   0.259  26.754  10.497
13598W        W81992  11.438  12.864   3.554
13599W        W81993  22.306  13.611  10.149
13600W        W81994  20.448  39.411   1.823
13601W        W81995   2.355   2.650  13.821
13602W        W81996  44.908  24.670   1.244
13603W        W81997  30.700  30.575   0.303
13604W        W81998   5.574  11.222   1.898
13605W        W81999  19.840  24.419   2.842
13606W        W82000  16.717   6.491  11.348
13607W        W82001   6.857   4.961  14.874
13608W        W82002  22.691  22.717  13.966
13609W        W82003  33.604  41.468   0.613
13610W        W82004  17.652  25.214  12.338
13611W        W82005   4.438  35.788   0.703
13612W        W82006  17.416  23.938   5.119
13613W        W82007  11.707   0.790  12.004
13614W        W82008   4.757  36.517  12.331
13615W        W82009  15.246  44.646  13.773
13616W        W82010  13.879  32.828  14.873
13617W        W82011   0.081  37.328   5.141
13618W        W82012  20.738  35.851  12.319
13619W        W82013  21.116  11.421   3.840
13620W        W82014  23.468   2.530   3.207
13621W        W82015  13.689  14.501   3.499
13622W        W82016   9.299  35.466  13.954
13623W        W82017  44.286   3.242  10.589
13624W        W82018  38.657  27.081   3.678
13625W        W82019   0.937  41.440   2.982
13626W        W82020   4.349  15.071   4.100
13627W        W82021  14.823  11.061   4.423
13628W        W82022   7.095  21.288   1.665
13629W        W82023  40.824  23.144   4.156
13630W        W82024  26.579  18.678   4.014
13631W        W82025   1.793   8.077   2.699
13632W        W82026  20.103  20.994  13.455
13633W        W82027  14.936   8.718  14.974
13634W        W82028   3.382  29.146   2.633
13635W        W82029  42.324  41.442  12.844
13636W        W82030  17.324  14.885   0.316
13637W        W82031  27.346   6.480  14.353
13638W        W82032  36.634  32.793   3.722
13639W        W82033  16.964  17.222  12.856
13640W        W82034  28.578  24.225  14.308
13641W        W82035   8.805  30.938  14.060
13642W        W82036   3.329  30.460   3.609
13643W        W82037  21.824  44.970  11.514
13644W        W82038  39.772  19.592  14.976
13645W        W82039  39.745  13.183  11.086
13646W        W82040   1.155  16.749   3.095
13647W        W82041  10.186  17.810  12.955
13648W        W82042  26.512  36.850   1.816
13649W        W82043  29.443   2.786   2.196
13650W        W82044   6.406  23.140   4.855
13651W        W82045  13.245  25.202   1.038
13652W        W82046   3.881   6.827  13.359
13653W        W82047  18.769  20.162  11.506
13654W        W82048  33.304  21.541   0.384
13655W        W82049  17.797  18.222   1.326
13656W        W82050  10.837  36.900   0.349
13657W        W82051  13.034  36.787   4.012
13658W        W82052  42.944  17.651   0.463
13659W        W82053  25.996   0.919   0.294
13660W        W82054  38.005  27.763   3.088
13661W        W82055   7.166  40.553  11.618
13662W        W82056   1.378  28.499  10.554
13663W        W82057  36.609  30.646   1.631
13664W        W82058  41.743  20.831  14.331
13665W        W82059  23.526   2.413  14.855
13666W        W82060  20.554  42.838  12.397
13667W        W82061  34.164  24.255   1.812
13668W        W82062  21.117  44.455   4.644
13669W        W82063  39.801  34.562  14.409
13670W        W82064  32.412  20.886  14.055
13671W        W82065   8.371  27.195   3.788
13672W        W82066  11.703  10.372   4.511
13673W        W82067  44.737  42.974   1.369
13674W        W82068  27.335  41.722  13.536
13675W        W82069  41.532   5.963  11.737
13676W        W82070   5.408  35.006  11.614
13677W        W82071  42.851   6.504  12.796
13678W        W82072  28.072  22.186  12.995
13679W        W82073  43.481  27.686  11.044
13680W        W82074  24.467  16.323  12.528
13681W        W82075  13.179   9.588  12.343
13682W        W82076  42.528   5.650  11.771
13683W        W82077  26.655  18.266   3.750
13684W        W82078   3.958   1.288  14.221
13685W        W82079   7.776   6.383  11.150
13686W        W82080  24.945  25.239  12.623
13687W        W82081  12.892  41.621   2.525
13688W        W82082  35.146  25.140   2.116
13689W        W82083  42.485  24.239   3.666
13690W        W82084  27.409  21.718  13.796
13691W        W82085   3.791  18.196  11.142
13692W        W82086  44.272  37.979  11.109
13693W        W82087  11.904  20.480   1.983
13694W        W82088  43.374  17.741   3.537
13695W        W82089   0.701   9.118   4.209
13696W        W82090  43.880  27.024  10.381
13697W        W82091  17.046  40.466   3.662
13698W        W82092  43.309  18.552  12.345
13699W        W82093  20.157  15.541   4.094
13700W        W82094  35.175  21.560   2.212
13701W        W82095  36.946   4.944  13.079
13702W        W82096  15.528   1.064   2.805
13703W        W82097  24.121  13.247  10.906
13704W        W82098  21.679   6.846   1.988
13705W        W82099   1.643  39.283   4.548
13706W        W82100  35.435   4.252   3.126
13707W        W82101  29.797  27.648  11.168
13708W        W82102  17.726  15.570  14.910
13709W        W82103  28.178  28.386  10.733
13710W        W82104  31.825  37.511  11.528
13711W        W82105  11.365  22.165   3.515
13712W        W82106  28.098  25.864   3.374
13713W        W82107   7.380  21.322  12.379
13714W        W82108   7.192  29.864   2.334
13715W        W82109  27.995  13.268   4.372
13716W        W82110  37.543  36.787   3.443
13717W        W82111   4.150  11.975   3.765
13718W        W82112  38.850  37.890  11.973
13719W        W82113  20.233  23.178  13.133
13720W        W82114  40.970   4.878   2.181
13721W        W82115  35.172  33.506   3.744
13722W        W82116   2.822  22.766   2.872
13723W        W82117  17.119  25.987   0.685
13724W        W82118  14.255  28.060  13.837
13725W        W82119   1.383  42.026  14.963
13726W        W82120  43.918  39.533   1.672
13727W        W82121  17.268   1.698   9.995
13728W        W82122  23.187  39.192  12.163
13729W        W82123  39.038  34.043  14.037
13730W        W82124  14.727  22.324   0.457
13731W        W82125  22.128  10.783  13.825
13732W        W82126  22.246  14.283   1.395
13733W        W82127  12.121  15.646  12.060
13734W        W82128  15.593   5.710   3.213
13735W        W82129  25.533  21.129  11.054
13736W        W82130  42.346  11.835   0.390
13737W        W82131  34.341   1.627   3.210
13738W        W82132  36.912  21.612  10.703
13739W        W82133  30.146  22.513   2.703
13740W        W82134  25.044   5.185   2.819
13741W        W82135  20.839  18.673  10.464
13742W        W82136  20.963  44.184  13.063
13743W        W82137   4.205  19.595   1.316
13744W        W82138   4.580   2.957   0.560
13745W        W82139  35.630  16.624  11.588
13746W        W82140  38.438  19.328   0.127
13747W        W82141   1.958  22.863   1.033
13748W        W82142  15.001  21.820   4.137
13749W        W82143  17.204  32.126   4.975
13750W        W82144   1.932   5.666  14.844
13751W        W82145  41.219  38.051   2.220
13752W        W82146  16.427  19.861   1.683
13753W        W82147  39.038  22.326  10.296
13754W        W82148   8.722  17.702  13.533
13755W        W82149  30.634  32.866  12.056
13756W        W82150  11.703  24.702   0.394
13757W        W82151  39.476  32.915   1.856
13758W        W82152  39.502   3.888   1.468
13759W        W82153  33.212   6.910  12.051
13760W        W82154  26.674  23.464   1.455
13761W        W82155  14.315   9.095  11.651
13762W        W82156  19.729  12.250  14.967
13763W        W82157  36.097   6.520   3.155
13764W        W82158  24.019   2.700   1.626
13765W        W82159   5.675  26.977   1.872
13766W        W82160  43.816   0.050   3.788
13767W        W82161  39.509  11.960   1.482
13768W        W82162  17.082  20.958  11.074
13769W        W82163   6.181  20.292  12.340
13770W        W82164  26.503   3.273  12.527
13771W        W82165   7.624  13.824  13.278
13772W        W82166  16.187   2.811  14.568
13773W        W82167  16.378  29.080   4.898
13774W        W82168  16.768  17.045   3.130
13775W        W82169  24.715  18.912   2.851
13776W        W82170  18.254  10.344   0.946
13777W        W82171  30.480  20.146  11.723
13778W        W82172  38.472  27.960   2.830
13779W        W82173  12.169  31.089   3.336
13780W        W82174   7.389   2.776   4.529
13781W        W82175   7.206  27.417  13.853
13782W        W82176   7.749  31.182  14.524
13783W        W82177  32.182  26.140  11.162
13784W        W82178  16.610  37.786  13.763
13785W        W82179  38.341  39.064   1.329
13786W        W82180  13.417  31.830  14.413
13787W        W82181  28.054  33.406   1.887
13788W        W82182  10.892  22.328   3.336
13789W        W82183  26.665   1.032  13.069
13790W        W82184  10.270  44.884  10.571
13791W        W82185  15.924  29.551   1.921
13792W        W82186  26.186  12.774  13.864
13793W        W82187  13.583  26.690   3.317
13794W        W82188  14.264   9.619  11.481
13795W        W82189   9.929  25.998   3.628
13796W        W82190  31.735  27.066   3.183
13797W        W82191  12.911  17.032   0.881
13798W        W82192  20.243  32.148  13.904
13799W        W82193  12.862   4.851  10.682
13800W        W82194  23.615  25.188   3.199
13801W        W82195  24.513  40.645  11.274
13802W        W82196   3.114  17.115   4.272
13803W        W82197   7.385  27.915   0.924
13804W        W82198  11.798  14.947   2.797
13805W        W82199  16.287   0.234  13.478
13806W        W82200  11.597  21.049  12.515
13807W        W82201  10.612   3.432  14.255
13808W        W82202   1.178  15.770  10.237
13809W        W82203  16.699  22.817   4.833
13810W        W82204   9.272  22.684   4.442
13811W        W82205  36.858  10.623   2.892
13812W        W82206  27.645   9.761   3.345
13813W        W82207  36.423  19.086   3.273
13814W        W82208  21.148  20.516   0.396
13815W        W82209  12.668  18.746  13.592
13816W        W82210   3.254  34.868  14.757
13817W        W82211   2.067  22.824   4.191
13818W        W82212   8.821   5.116  11.452
13819W        W82213  10.259  21.423  13.888
13820W        W82214  43.250  21.082   0.927
13821W        W82215  15.636  15.120  14.453
13822W        W82216  19.865  14.454  10.615
13823W        W82217  41.407  10.439   3.226
13824W        W82218   2.703  30.521  14.937
13825W        W82219  14.202  11.141  12.669
13826W        W82220  11.845  12.851  10.695
13827W        W82221  44.284  35.424   0.887
13828W        W82222  27.736  29.915   3.805
13829W        W82223   5.720   7.639   2.689
13830W        W82224   4.835  27.509  10.958
13831W        W82225   1.258  38.932   0.153
13832W        W82226  14.804   4.327  14.914
13833W        W82227  25.632  30.644  12.669
13834W        W82228  25.592  18.007  10.316
13835W        W82229   0.221   3.457   1.037
13836W        W82230  43.364  36.053  14.375
13837W        W82231   9.631  29.866  14.456
13838W        W82232   2.400  22.767  11.571
13839W        W82233  17.171  40.842   1.926
13840W        W82234  20.642   5.813   3.636
13841W        W82235  13.326  33.478   2.364
13842W        W82236  29.157  41.749  14.964
13843W        W82237  23.769  38.897   0.282
13844W        W82238  36.488  39.958   4.224
13845W        W82239  27.690  34.548   3.226
13846W        W82240   3.652  17.671  11.295
13847W        W82241   0.012  40.543  13.067
13848W        W82242  17.805   1.048  11.807
13849W        W82243  12.206  42.898  13.132
13850W        W82244  38.570  36.930   0.683
13851W        W82245  22.184  44.068   2.813
13852W        W82246  19.035  33.182  13.103
13853W        W82247   6.264  32.945  11.893
13854W        W82248  14.085   2.722   0.752
13855W        W82249  14.649  19.965   5.087
13856W        W82250  24.695   1.231   0.875
13857W        W82251   1.261   4.088  11.940
13858W        W82252  21.164   9.871   3.579
13859W        W82253   6.276  41.290  12.223
13860W        W82254  16.909   5.977  14.226
13861W        W82255  32.927  20.957   0.989
13862W        W82256  32.606   0.449   2.830
13863W        W82257   6.456  31.182  11.577
13864W        W82258  44.963  12.520   1.810
13865W        W82259   2.307  24.808  12.534
13866W        W82260  19.608  24.807  13.912
13867W        W82261  33.609  12.837  14.807
13868W        W82262  10.893   3.452  14.713
13869W        W82263  23.548  36.499   2.706
13870W        W82264  18.691  32.388  14.815
13871W        W82265   1.761  19.934  13.208
13872W        W82266  10.685  36.821   3.380
13873W        W82267  20.373  25.170   0.941
13874W        W82268   5.898  28.203  13.962
13875W        W82269  19.636  20.670   1.003
13876W        W82270  15.804  18.679   0.248
13877W        W82271  40.122   5.964  11.415
13878W        W82272   1.406   0.924   2.618
13879W        W82273  30.157   6.971   3.973
13880W        W82274  11.896   3.575   2.792
13881W        W82275  18.653  41.952  11.458
13882W        W82276  43.852   8.730   4.393
13883W        W82277   6.280  22.481   0.423
13884W        W82278  27.481  41.289   4.330
13885W        W82279  39.788  22.104  11.632
13886W        W82280  25.705  32.735  14.917
13887W        W82281  22.707  12.231   1.599
13888W        W82282  31.092  41.281   1.289
13889W        W82283  21.104  34.627  13.218
13890W        W82284   9.143  32.431  11.068
13891W        W82285  35.697  26.834   1.774
13892W        W82286  44.295  28.961  14.051
13893W        W82287  21.490  43.737   1.973
13894W        W82288  29.854  35.701   0.268
13895W        W82289  30.967  23.265  12.588
13896W        W82290  32.021  25.766  14.402
13897W        W82291  10.242   5.881  11.912
13898W        W82292  24.066  11.047  11.694
13899W        W82293  15.440  15.259  11.076
13900W        W82294  26.552  24.365   0.490
13901W        W82295  43.460  18.460   3.406
13902W        W82296  13.084  35.743   0.498
13903W        W82297   4.230  20.589  12.560
13904W        W82298  16.802  12.621   3.652
13905W        W82299  41.543  41.881  14.322
13906W        W82300   2.788  37.433   2.393
13907W        W82301  27.586  34.409  12.841
13908W        W82302  27.180  44.529   3.616
13909W        W82303  38.477  30.470  14.080
13910W        W82304  27.242   3.626  14.896
13911W        W82305  21.521  10.239  14.188
13912W        W82306  17.289   5.272  12.890
13913W        W82307  38.338  11.325  11.321
13914W        W82308  24.743  29.052  12.772
13915W        W82309   0.804  38.949  10.181
13916W        W82310   9.200   3.654   4.788
13917W        W82311   7.796  22.775   0.393
13918W        W82312  10.773   3.970  11.224
13919W        W82313  31.964  12.246   2.694
13920W        W82314  27.044  39.269  10.669
13921W        W82315   1.266  25.755   4.541
13922W        W82316   6.210  21.196  14.767
13923W        W82317  13.805   5.692  13.805
13924W        W82318   8.747  16.237   3.546
13925W        W82319  32.653  19.128  14.897
13926W        W82320  16.194  20.827   1.451
13927W        W82321   8.895  13.763   4.706
13928W        W82322  25.546  10.350   1.774
13929W        W82323   5.346  38.284  12.021
13930W        W82324  26.678  38.325   3.246
13931W        W82325  17.469  19.988  14.880
13932W        W82326  20.769   2.393   3.503
13933W        W82327  32.184  18.610  11.895
13934W        W82328  18.184   1.481   2.264
13935W        W82329  44.077  25.715   2.398
13936W        W82330  17.638   8.465   4.594
13937W        W82331  35.226  29.124   4.825
13938W        W82332  44.986  43.280   2.463
13939W        W82333   6.742  41.919   0.995
13940W        W82334  14.085   9.139   0.129
13941W        W82335  22.054   7.374  13.748
13942W        W82336  40.869  27.781   2.864
13943W        W82337  20.025  17.002   1.526
13944W        W82338  33.475  42.888   2.950
13945W        W82339  27.494  12.388   4.174
13946W        W82340  24.266   4.026   2.261
13947W        W82341  43.869   6.897   2.805
13948W        W82342   1.694  33.016  12.760
13949W        W82343  35.545  36.330   0.453
13950W        W82344  24.843  33.960   3.771
13951W        W82345  16.802  20.501  11.431
13952W        W82346   5.967  43.983   2.817
13953W        W82347  12.575  25.000  14.230
13954W        W82348  10.368   9.676  12.822
13955W        W82349  12.830  26.580  13.823
13956W        W82350  28.913  12.920  14.566
13957W        W82351  30.834  10.317  11.649
13958W        W82352  39.984  37.084   9.465
13959W        W82353   8.824  33.625  11.656
13960W        W82354  17.550   4.420   1.099
13961W        W82355   9.220  22.373  12.335
13962W        W82356  19.143   2.783  14.321
13963W        W82357  34.007  29.471   4.511
13964W        W82358  29.476  25.375   2.441
13965W        W82359  16.184   9.146   0.241
13966W        W82360  39.547  28.096  12.935
13967W        W82361  37.524  38.405   0.293
13968W        W82362  31.058   5.231  10.535
13969W        W82363   4.299  28.681  14.790
13970W        W82364  21.723  29.093  12.378
13971W        W82365  15.122  26.040   3.950
13972W        W82366  26.197  37.643  13.406
13973W        W82367  26.457   3.181  11.696
13974W        W82368   1.483   9.674  13.088
13975W        W82369  19.243   3.329   1.185
13976W        W82370  32.541  32.090   1.883
13977W        W82371  32.865   4.682  14.471
13978W        W82372  41.506   9.453   2.246
13979W        W82373   3.618   9.768   4.767
13980W        W82374  25.776   6.651   3.301
13981W        W82375  20.056  41.955   1.923
13982W        W82376  43.332   0.242  10.566
13983W        W82377  27.519  15.579   2.401
13984W        W82378  31.597   5.573  12.780
13985W        W82379  20.482  29.202  12.449
13986W        W82380   6.890  17.707   2.611
13987W        W82381  37.777  39.735   0.259
13988W        W82382  33.661  10.867  11.209
13989W        W82383  24.545  29.164  13.561
13990W        W82384  32.068  42.583  12.925
13991W        W82385  27.476  21.593  13.283
13992W        W82386   5.305  31.897  12.874
13993W        W82387  21.655  18.124  12.776
13994W        W82388  29.888  43.080  10.749
13995W        W82389   3.097  13.419  13.029
13996W        W82390   0.242  26.718   1.799
13997W        W82391  22.037   9.458   4.917
13998W        W82392  15.183  40.546  14.771
13999W        W82393  43.509  41.361   4.665
14000W        W82394  28.103  44.356   3.978
14001W        W82395   9.387   1.938   3.108
14002W        W82396  44.294  25.696  12.969
14003W        W82397  24.620   1.043  10.711
14004W        W82398  37.241  43.415  11.376
14005W        W82399   3.904  14.583  14.564
14006W        W82400  36.597  43.378  14.032
14007W        W82401  41.844  41.445   9.798
14008W        W82402  41.968  40.794  14.404
14009W        W82403  37.020  31.671  14.461
14010W        W82404  19.285  35.389   4.718
14011W        W82405  34.316  33.849   0.379
14012W        W82406   0.178  41.027   1.799
14013W        W82407  34.900   2.944   3.944
14014W        W82408  36.588   9.692   0.790
14015W        W82409   9.736  24.349   4.706
14016W        W82410  37.818  29.570  14.826
14017W        W82411  18.843  17.431   0.028
14018W        W82412  23.577  29.446   1.533
14019W        W82413  31.127  29.586  10.652
14020W        W82414  37.915  21.436  11.603
14021W        W82415  20.068  40.371   3.758
14022W        W82416  16.236  27.258   1.441
14023W        W82417  38.296  37.434  14.591
14024W        W82418  15.448  16.770   3.517
14025W        W82419  43.000  14.886  13.085
14026W        W82420   2.263  15.017  13.840
14027W        W82421  24.498  12.967  12.206
14028W        W82422  26.530  32.527   2.112
14029W        W82423  17.788   0.857  13.851
14030W        W82424  39.938   9.828  12.042
14031W        W82425  40.212  36.361   1.489
14032W        W82426  35.896  32.666   1.837
14033W        W82427  32.562  15.619  11.226
14034W        W82428  44.291   5.663   3.627
14035W        W82429  38.300  41.443  12.639
14036W        W82430  36.997  18.500  14.974
14037W        W82431   9.709  34.639   3.555
14038W        W82432  33.289   8.572  13.572
14039W        W82433  30.964  44.865  14.926
14040W        W82434  32.117   9.141  12.121
14041W        W82435  28.001  23.512   2.760
14042W        W82436  26.909  22.466   0.734
14043W        W82437  18.265   2.283  14.493
14044W        W82438  28.574  43.291  13.041
14045W        W82439   0.288   9.736  13.347
14046W        W82440  32.601  43.645   0.051
14047W        W82441  37.865  34.521   4.680
14048W        W82442   8.353  24.762   0.861
14049W        W82443  24.705  43.981  13.104
14050W        W82444   5.158  26.236  11.597
14051W        W82445  14.207  43.958   1.912
14052W        W82446  17.215  26.976  14.031
14053W        W82447   4.335   6.738  10.892
14054W        W82448   5.806  23.137  12.796
14055W        W82449  22.265  31.431  10.760
14056W        W82450  37.925  23.018   1.697
14057W        W82451   5.080  22.946   3.272
14058W        W82452  41.876  21.169   0.438
14059W        W82453  41.041   5.008   0.016
14060W        W82454  31.365  37.947   1.758
14061W        W82455  28.670  20.321   4.069
14062W        W82456  29.271  44.029   0.376
14063W        W82457  37.239  21.081   2.862
14064W        W82458   9.574   9.887   2.119
14065W        W82459   4.496  24.615  12.904
14066W        W82460   1.740  28.992  11.623
14067W        W82461  24.363   0.920  12.119
14068W        W82462  39.124  30.415  10.308
14069W        W82463   4.923  31.067  13.077
14070W        W82464  33.494  39.369  10.421
14071W        W82465  36.989   0.286   1.828
14072W        W82466  20.819   3.816   1.695
14073W        W82467  26.399  40.349  11.642
14074W        W82468  24.187  34.148  12.424
14075W        W82469  13.579  13.302  11.937
14076W        W82470  38.977   3.768  11.846
14077W        W82471  41.759  30.352   4.232
14078W        W82472  16.604  27.156   4.112
14079W        W82473  19.919  11.127  12.356
14080W        W82474  18.794  11.237   3.821
14081W        W82475  27.945  15.793  11.239
14082W        W82476  10.140  13.592  12.553
14083W        W82477  18.008   8.273   1.708
14084W        W82478  18.086  23.767   1.408
14085W        W82479   9.808   2.529   0.960
14086W        W82480  21.618  23.257   3.178
14087W        W82481   7.735  43.421   0.480
14088W        W82482  28.996  11.313  10.740
14089W        W82483  24.867   9.960  11.574
14090W        W82484  11.254   4.978   3.251
14091W        W82485  42.657  10.134  14.108
14092W        W82486  21.113  32.519   1.775
14093W        W82487  12.691  32.944  12.028
14094W        W82488  28.258  31.887   1.950
14095W        W82489  10.660  13.195  11.107
14096W        W82490  30.882  19.190  10.757
14097W        W82491   8.734  13.204   4.581
14098W        W82492   0.035  24.655  13.378
14099W        W82493   9.716  39.018  11.614
14100W        W82494  13.932   2.820   2.291
14101W        W82495  43.320  38.214  14.473
14102W        W82496  13.455   0.239   0.736
14103W        W82497  14.153  34.331   4.224
14104W        W82498  29.436  15.006   4.239
14105W        W82499  37.358  31.900  11.485
14106W        W82500  11.958  43.747   4.553
14107W        W82501   5.348   2.453  13.101
14108W        W82502  34.309  24.148  14.843
14109W        W82503  37.577  26.120  14.819
14110W        W82504  26.887   1.910   1.747
14111W        W82505  35.370  43.004   3.373
14112W        W82506  44.935  36.067  12.975
14113W        W82507  33.700  10.905   2.321
14114W        W82508  31.880   1.802  11.148
14115W        W82509  15.392  24.477   3.187
14116W        W82510  13.384  20.778  14.394
14117W        W82511   0.846  22.832  13.904
14118W        W82512  23.311  25.905   3.771
14119W        W82513   9.566  21.275  13.184
14120W        W82514  16.135  36.534   2.678
14121W        W82515  29.698  25.548   0.542
14122W        W82516  40.816  15.709   2.960
14123W        W82517  32.974  15.654  14.030
14124W        W82518   2.911  11.165  11.693
14125W        W82519  40.271  42.944  10.689
14126W        W82520  11.178   4.956  12.133
14127W        W82521  34.913  41.673   4.514
14128W        W82522  32.858  35.336   2.751
14129W        W82523  33.965  15.710  14.931
14130W        W82524   6.348   6.685   4.298
14131W        W82525  31.379  23.049   4.065
14132W        W82526   6.434   4.387   3.802
14133W        W82527   3.502  32.026   0.883
14134W        W82528   4.371  27.265   4.097
14135W        W82529  42.848   6.287  14.543
14136W        W82530  29.122  39.562  12.540
14137W        W82531  30.939  35.864  11.963
14138W        W82532  35.383   4.366  12.197
14139W        W82533  23.594  26.721   0.942
14140W        W82534   8.954  18.366   4.686
14141W        W82535  28.840  27.972  14.897
14142W        W82536  22.554   5.160  12.123
14143W        W82537  20.152  22.019   1.453
14144W        W82538   6.679  29.182   0.908
14145W        W82539   4.989  22.629  13.381
14146W        W82540  10.209  17.732   1.795
14147W        W82541  15.155  14.306   4.153
14148W        W82542  33.554  20.372  11.521
14149W        W82543  35.369  32.981   0.938
14150W        W82544  25.425  24.020   4.135
14151W        W82545  21.736  36.047   3.669
14152W        W82546  10.771  27.834   3.114
14153W        W82547  40.352   5.735   3.257
14154W        W82548   3.231  34.176   0.754
14155W        W82549  17.114  33.313   4.286
14156W        W82550   9.835  33.063   0.899
14157W        W82551  27.410  39.908  13.667
14158W        W82552  37.243  34.712   0.343
14159W        W82553   3.078  28.592   3.744
14160W        W82554   6.136  42.934   2.834
14161W        W82555  37.720  25.517  12.393
14162W        W82556  23.311  19.073   2.940
14163W        W82557  19.139  10.626   1.302
14164W        W82558  25.066  20.796   4.817
14165W        W82559  18.252  14.922   4.377
14166W        W82560  34.374  41.167  12.455
14167W        W82561   4.362  40.012  10.605
14168W        W82562   6.161   3.902   2.205
14169W        W82563  33.900  27.448  14.018
14170W        W82564  21.139   1.250   0.752
14171W        W82565  40.560  22.705   0.594
14172W        W82566  31.690  28.038  12.440
14173W        W82567  15.805  44.967  12.920
14174W        W82568  16.035  38.010   3.881
14175W        W82569  14.720  16.199   3.295
14176W        W82570  21.917  43.268   3.199
14177W        W82571  39.927  23.133   3.192
14178W        W82572  26.499  35.574   2.255
14179W        W82573  12.282  12.280   2.624
14180W        W82574  25.634  44.892   2.580
14181W        W82575  29.866  31.657   5.195
14182W        W82576  13.691  16.832   3.204
14183W        W82577  19.850   5.239  11.559
14184W        W82578  13.533  31.587   2.468
14185W        W82579  37.032  25.821   3.178
14186W        W82580  39.552  10.674   4.339
14187W        W82581  31.561  35.013  12.514
14188W        W82582  17.257  11.855   5.177
14189W        W82583  31.502  22.701   2.205
14190W        W82584   9.862  15.408  14.355
14191W        W82585   4.327  40.039  13.004
14192W        W82586   3.444  12.966  13.013
14193W        W82587  42.865  27.589   2.035
14194W        W82588  32.527  29.155   3.721
14195W        W82589  33.379  37.245   1.667
14196W        W82590  18.342   3.751  11.488
14197W        W82591  29.119  37.884   0.217
14198W        W82592  30.144  11.161   0.380
14199W        W82593   1.412   0.992   1.675
14200W        W82594  30.042  27.489  10.728
14201W        W82595  35.431  41.469  10.726
14202W        W82596  38.014  40.775   1.520
14203W        W82597   0.271  38.939   2.911
14204W        W82598  32.927  33.824  12.609
14205W        W82599  18.275  44.595  11.081
14206W        W82600   0.638  38.806   3.821
14207W        W82601  39.935   1.438   1.276
14208W        W82602  25.050  27.699  12.049
14209W        W82603   2.437  10.350  14.023
14210W        W82604  19.247  25.492  10.728
14211W        W82605  22.416  39.332  12.304
14212W        W82606  17.352  12.358  13.818
14213W        W82607  34.500  14.188   0.948
14214W        W82608  43.029  42.877  11.433
14215W        W82609  12.859  17.262  12.447
14216W        W82610  31.427  19.213  10.749
14217W        W82611  44.513   6.345   3.328
14218W        W82612  44.986  26.063   3.237
14219W        W82613  24.059  27.718  11.553
14220W        W82614   3.281  19.680  11.294
14221W        W82615  14.696  23.998   2.861
14222W        W82616  32.624  22.112  13.041
14223W        W82617  30.876  39.890  14.101
14224W        W82618  38.502   6.002  12.890
14225W        W82619  14.177  11.648   1.051
14226W        W82620  38.790  26.654   3.385
14227W        W82621  22.057  13.641  12.995
14228W        W82622  37.048  40.798   2.854
14229W        W82623  29.612  22.442   4.087
14230W        W82624  18.815  14.430  13.877
14231W        W82625  34.604  16.392  11.566
14232W        W82626  16.583  10.350   0.729
14233W        W82627  27.147   8.500  14.082
14234W        W82628  13.328   1.729  13.541
14235W        W82629  23.791  24.467   5.079
14236W        W82630  37.078  21.731  13.864
14237W        W82631  33.011  30.586  13.427
14238W        W82632  30.249  23.250   3.248
14239W        W82633   6.947   6.888  12.878
14240W        W82634  44.793  40.085   4.514
14241W        W82635  14.970  35.591  14.380
14242W        W82636  13.785  29.171   2.388
14243W        W82637  16.353   1.468  11.889
14244W        W82638   3.718  28.725  11.922
14245W        W82639  28.031  44.264   1.706
14246W        W82640  37.768   4.528  13.563
14247W        W82641  29.507   4.875  13.040
14248W        W82642   5.461  18.983   4.030
14249W        W82643  28.125  41.971   2.908
14250W        W82644  14.311  33.100   0.737
14251W        W82645  10.744  41.316  10.911
14252W        W82646  36.311  29.450  12.924
14253W        W82647  42.421   6.781   0.759
14254W        W82648  42.107  13.794   4.197
14255W        W82649  22.442   8.904   0.727
14256W        W82650  20.017   0.766  11.621
14257W        W82651  16.540  37.308   1.338
14258W        W82652  35.176  25.967   2.715
14259W        W82653  13.107  10.313   2.888
14260W        W82654  43.067   6.532   2.210
14261W        W82655  27.421  19.741  13.367
14262W        W82656  10.185  31.331   0.556
14263W        W82657  33.457   9.486  11.556
14264W        W82658  28.602  26.838  13.870
14265W        W82659   2.235   5.935  12.501
14266W        W82660  20.627  22.960   0.922
14267W        W82661  17.110  41.332  13.703
14268W        W82662   5.882  11.315  12.325
14269W        W82663  25.103  25.169  10.459
14270W        W82664  22.591  40.245   4.056
14271W        W82665  25.611   2.254  14.934
14272W        W82666   5.979  11.164   4.118
14273W        W82667   7.064  15.658  12.701
14274W        W82668  34.373   2.944  14.490
14275W        W82669   8.630  40.399  11.592
14276W        W82670  44.419   3.620  11.750
14277W        W82671  13.929  30.193   1.025
14278W        W82672  23.557  41.288   2.881
14279W        W82673  44.065  21.467   4.666
14280W        W82674   6.088  30.017   0.403
14281W        W82675  36.070  13.714   4.212
14282W        W82676  29.617   2.346  12.015
14283W        W82677   9.075  18.905   4.701
14284W        W82678  42.278  40.247   3.297
14285W        W82679  34.620   4.564  14.340
14286W        W82680  18.596   3.697   3.285
14287W        W82681  19.166  28.919   3.715
14288W        W82682  33.934  34.424  10.552
14289W        W82683  25.132  28.524   4.628
14290W        W82684  11.355  23.119   1.875
14291W        W82685  21.888  40.508  12.097
14292W        W82686  43.926  34.024   2.434
14293W        W82687  27.609  32.172   1.881
14294W        W82688  25.446  43.489  13.107
14295W        W82689   3.361  44.982  11.886
14296W        W82690  40.686  38.065   2.467
14297W        W82691  23.744  23.148   0.654
14298W        W82692  28.454   9.908  13.757
14299W        W82693  40.419  22.631   3.250
14300W        W82694  35.945  30.596  11.760
14301W        W82695   6.492   8.845   0.809
14302W        W82696  27.907  14.812  12.562
14303W        W82697   8.161  41.280   4.204
14304W        W82698  30.216  23.958  12.618
14305W        W82699   4.544  14.540   1.208
14306W        W82700  15.798   4.700  14.418
14307W        W82701  31.095  20.846   1.697
14308W        W82702  26.499  20.587  13.491
14309W        W82703  22.097  32.975  14.846
14310W        W82704   7.708   7.738  12.494
14311W        W82705  32.935  33.857   1.878
14312W        W82706  34.438   3.622   3.435
14313W        W82707  11.922  16.236  14.889
14314W        W82708  24.618  25.884   2.836
14315W        W82709  37.896  12.676  11.947
14316W        W82710  39.386  26.443  12.626
14317W        W82711   2.827  23.845  14.472
14318W        W82712  18.579  43.007   4.592
14319W        W82713  23.214  39.764   4.681
14320W        W82714   6.684  33.911   1.404
14321W        W82715  14.709  22.482  10.609
14322W        W82716  25.547  33.612   3.370
14323W        W82717  19.741  43.994  14.671
14324W        W82718  34.619  27.679  11.661
14325W        W82719  24.118  44.006   0.761
14326W        W82720  26.180   7.639   2.903
14327W        W82721  41.301  29.223  14.316
14328W        W82722  12.876  31.913  12.129
14329W        W82723  34.119  27.655   4.126
14330W        W82724  11.124  17.201   0.322
14331W        W82725  32.715   8.279  13.880
14332W        W82726  17.247  10.541  13.997
14333W        W82727  38.840  14.389  12.959
14334W        W82728  13.731  31.398   3.889
14335W        W82729  36.173   0.918   1.982
14336W        W82730  28.618   0.325   0.422
14337W        W82731  42.247  27.737  11.698
14338W        W82732  38.591  34.333   4.169
14339W        W82733  10.012   7.471   4.276
14340W        W82734  28.782  35.865   1.837
14341W        W82735  33.876  34.514  12.019
14342W        W82736   8.135  31.774  13.382
14343W        W82737  20.547   1.221  12.627
14344W        W82738   6.427  29.468   3.187
14345W        W82739  30.861   6.302   1.374
14346W        W82740  36.286  37.070   0.524
14347W        W82741   5.531  13.755  12.067
14348W        W82742   0.812  24.261   0.361
14349W        W82743  12.917  15.698   4.048
14350W        W82744  29.942  38.458   2.429
14351W        W82745  17.130  27.308   0.462
14352W        W82746  23.614  13.262   1.227
14353W        W82747  28.986  34.623  14.722
14354W        W82748  38.981  36.751   5.103
14355W        W82749  42.133  14.701  11.990
14356W        W82750   0.525  19.940  13.525
14357W        W82751  41.488  35.275   2.386
14358W        W82752  23.578   4.812  10.694
14359W        W82753  37.339  16.479  11.982
14360W        W82754   7.236  26.744   5.465
14361W        W82755  43.170  19.931  14.920
14362W        W82756   7.430   1.871  10.776
14363W        W82757  17.139   4.751   2.742
14364W        W82758  17.317  15.806   2.904
14365W        W82759  33.009   7.211  14.616
14366W        W82760  39.540  10.617   0.397
14367W        W82761  35.167  33.541   2.755
14368W        W82762  23.225   3.180  11.436
14369W        W82763  41.828  42.328   2.171
14370W        W82764  23.928  23.172   1.162
14371W        W82765  12.222  31.681  12.057
14372W        W82766  12.044   2.393   4.055
14373W        W82767  29.450  27.022   3.635
14374W        W82768  39.297  14.256   0.384
14375W        W82769   9.943  31.008   2.915
14376W        W82770  38.165  33.456   0.410
14377W        W82771   8.832   3.382   0.202
14378W        W82772  42.740  34.423   1.319
14379W        W82773   5.682   7.474  12.124
14380W        W82774  13.384   5.829   2.794
14381W        W82775  43.517  20.301   0.339
14382W        W82776  10.228  22.318  12.531
14383W        W82777  28.143  32.465  10.958
14384W        W82778   0.751  21.117   3.080
14385W        W82779  21.807  34.257  11.092
14386W        W82780  34.607  30.649   3.590
14387W        W82781  24.417   7.448  12.724
14388W        W82782  29.471  38.835   1.280
14389W        W82783  29.985  20.034  12.603
14390W        W82784  11.316   8.959   3.285
14391W        W82785  20.685  18.250  12.152
14392W        W82786  18.472  31.920  14.941
14393W        W82787  22.087  22.226  10.637
14394W        W82788   6.292  19.311  12.607
14395W        W82789  13.709  39.399   3.763
14396W        W82790  44.825   5.419   2.458
14397W        W82791  30.069  40.835   3.513
14398W        W82792  40.610   6.209   1.076
14399W        W82793  21.563   9.143   2.115
14400W        W82794   8.815  25.461  14.301
14401W        W82795  17.759  31.537   3.736
14402W        W82796  32.020  27.693   4.789
14403W        W82797  35.647  18.647   3.659
14404W        W82798  24.647  17.238  10.700
14405W        W82799   8.278  14.910  11.069
14406W        W82800   2.661   6.290   1.305
14407W        W82801  14.896   6.866  14.043
14408W        W82802  32.701  39.480  13.373
14409W        W82803   3.025   4.241  14.176
14410W        W82804  28.902  15.739  14.792
14411W        W82805  24.057  24.956   3.369
14412W        W82806  18.669   2.021  14.251
14413W        W82807  40.112  34.125   2.391
14414W        W82808  24.087  19.930  13.968
14415W        W82809  36.603  30.527  10.386
14416W        W82810   5.612  33.467   2.222
14417W        W82811   6.945  41.780   3.424
14418W        W82812  20.481  14.323  12.712
14419W        W82813  22.139  39.645  12.011
14420W        W82814  35.641  19.219  11.534
14421W        W82815  26.666  15.346  11.335
14422W        W82816   8.697   7.832  11.659
14423W        W82817   5.200   4.305  13.115
14424W        W82818   3.909   6.249  10.601
14425W        W82819  21.568  44.971  11.954
14426W        W82820   2.810  21.677   0.219
14427W        W82821  12.842  29.715  12.162
14428W        W82822   9.556   6.003  13.039
14429W        W82823  30.755  14.991  13.448
14430W        W82824   5.025  17.264   3.256
14431W        W82825  21.381   4.789   4.392
14432W        W82826  16.980  20.953  13.403
14433W        W82827   8.834   0.878   5.247
14434W        W82828  34.570  41.027   3.233
14435W        W82829   0.322   5.288   1.454
14436W        W82830  33.013  22.232   2.881
14437W        W82831  15.212  30.942   1.678
14438W        W82832  34.709   7.623  11.602
14439W        W82833  26.780  23.838  12.451
14440W        W82834   8.454  32.508   4.514
14441W        W82835   7.215  10.615   0.930
14442W        W82836  21.642  17.050  12.865
14443W        W82837  36.478  26.597  13.042
14444W        W82838  11.328  33.686  14.884
14445W        W82839   0.555  20.210  13.990
14446W        W82840  12.579  11.575   0.332
14447W        W82841  39.485  20.266  13.320
14448W        W82842  13.376  34.406  11.234
14449W        W82843  33.091  35.354  14.622
14450W        W82844  27.172  25.176   0.635
14451W        W82845  28.265  20.864   0.748
14452W        W82846  20.346  34.552   1.507
14453W        W82847  16.544  30.440   2.750
14454W        W82848  34.147   4.292   3.701
14455W        W82849  17.601  14.315  14.010
14456W        W82850  38.927  29.741  10.971
14457W        W82851  11.933  44.560   1.769
14458W        W82852  32.410  41.827  11.293
14459W        W82853  41.741   9.099  14.089
14460W        W82854   8.899  22.613  10.442
14461W        W82855  27.078  42.118   3.602
14462W        W82856  10.495  29.272  10.431
14463W        W82857  29.175  21.463   0.837
14464W        W82858   0.399  13.524  10.771
14465W        W82859  21.212  25.480   4.589
14466W        W82860  20.985   7.175   1.702
14467W        W82861  39.083  13.771  11.562
14468W        W82862   4.792  37.813  12.943
14469W        W82863  20.402  10.749  11.994
14470W        W82864  18.218  28.973  11.528
14471W        W82865   1.968  10.068  13.972
14472W        W82866  40.870  21.963  11.053
14473W        W82867  37.171  14.085   4.393
14474W        W82868  39.486  23.201  12.164
14475W        W82869  44.885  20.654  10.901
14476W        W82870  31.161  32.572  12.520
14477W        W82871  42.523  15.198   3.404
14478W        W82872   2.498  29.892   3.837
14479W        W82873  43.341  15.867  13.373
14480W        W82874  14.315  10.776   0.864
14481W        W82875  43.184  29.412  14.829
14482W        W82876  15.114   4.930  11.169
14483W        W82877  18.927  21.170  13.808
14484W        W82878   9.944  32.040  13.010
14485W        W82879  10.577   6.142  11.584
14486W        W82880  11.263  13.242   3.244
14487W        W82881  14.873  24.714  10.824
14488W        W82882  11.666  13.045   2.669
14489W        W82883   9.891  24.186  13.852
14490W        W82884  15.703  31.678  11.262
14491W        W82885  11.628  34.307   2.434
14492W        W82886  36.112  15.759   3.147
14493W        W82887   4.277   9.161   2.177
14494W        W82888   4.650  29.249  10.548
14495W        W82889  40.478   9.247   4.640
14496W        W82890   1.708  32.182  12.473
14497W        W82891  41.517  24.002  12.967
14498W        W82892   2.232   6.268  13.397
14499W        W82893  24.038  24.967   9.802
14500W        W82894   8.901   3.693   2.269
14501W        W82895  11.143  28.882   2.016
14502W        W82896  30.650  15.736   0.552
14503W        W82897  19.770   8.839   0.385
14504W        W82898   0.843  22.481  13.264
14505W        W82899  11.403  26.004   3.915
14506W        W82900  38.927  24.487  11.698
14507W        W82901  42.466  44.332   1.404
14508W        W82902   3.733  41.551  14.278
14509W        W82903  10.950   0.848   1.793
14510W        W82904  28.938  21.659  12.197
14511W        W82905   5.210  36.507  14.605
14512W        W82906  12.797   9.098   0.992
14513W        W82907  32.579   8.895   2.751
14514W        W82908  26.222   7.779   0.408
14515W        W82909  12.389   9.274  14.416
14516W        W82910  26.774  34.646   3.707
14517W        W82911  32.897  32.439   1.408
14518W        W82912   4.076  38.577   3.065
14519W        W82913  13.781  29.206   3.530
14520W        W82914   9.302  43.839   0.998
14521W        W82915  18.914  31.374  12.570
14522W        W82916   9.872  18.102  13.302
14523W        W82917  44.293  34.603   1.849
14524W        W82918   2.408   9.788   2.600
14525W        W82919   2.308  21.628   0.315
14526W        W82920  16.275   2.795   0.860
14527W        W82921  44.338  23.286   4.520
14528W        W82922  18.099  13.306  14.227
14529W        W82923  34.741  22.194  14.161
14530W        W82924  28.625   3.849  10.717
14531W        W82925   7.377  22.361   4.092
14532W        W82926  30.494   1.947  10.900
14533W        W82927   8.402  43.377  11.893
14534W        W82928  23.734  39.907   4.196
14535W        W82929   3.960  13.596   2.264
14536W        W82930  38.261  38.536  10.670
14537W        W82931  14.371  31.982  11.989
14538W        W82932  25.119  33.868  13.077
14539W        W82933  41.257  15.082   1.698
14540W        W82934  14.722  23.472  12.332
14541W        W82935  14.034  27.058   2.226
14542W        W82936  10.752  42.862   2.255
14543W        W82937  14.124  21.524  11.678
14544W        W82938  24.394  39.503   1.196
14545W        W82939  10.400  11.437   1.653
14546W        W82940  42.270  15.136   4.355
14547W        W82941  39.088   5.307   4.093
14548W        W82942  37.427  29.156  10.688
14549W        W82943   5.673  33.139  10.694
14550W        W82944  25.177  38.488  11.504
14551W        W82945  24.765  39.097  13.924
14552W        W82946  21.404   1.407  11.553
14553W        W82947  11.296  16.698   3.675
14554W        W82948  38.490  32.981   3.467
14555W        W82949  27.182  19.171  12.550
14556W        W82950  23.604  36.081   0.375
14557W        W82951  28.436  37.408   0.390
14558W        W82952  38.023  43.526  10.864
14559W        W82953  10.803  43.989  11.282
14560W        W82954   3.387  28.878   4.125
14561W        W82955   1.350  21.141  13.500
14562W        W82956  32.112   2.674  12.373
14563W        W82957  41.066  36.701  14.377
14564W        W82958  28.296  21.183  11.035
14565W        W82959  16.988   5.842   0.820
14566W        W82960   7.505  32.043  11.041
14567W        W82961  33.091  12.819  14.822
14568W        W82962  22.222  38.817   4.489
14569W        W82963  20.627   7.605  11.077
14570W        W82964  28.914  20.011   2.821
14571W        W82965  11.913   5.567   4.542
14572W        W82966  23.555  24.730  13.422
14573W        W82967  36.887  22.215   2.006
14574W        W82968  19.272  31.189  13.492
14575W        W82969  37.820  24.909   3.135
14576W        W82970  19.612  37.996  12.968
14577W        W82971  20.419  35.758   1.297
14578W        W82972  24.766  40.421  13.739
14579W        W82973  16.463  40.596  10.996
14580W        W82974  24.286   6.649  13.070
14581W        W82975  20.291   8.624  13.918
14582W        W82976   3.177  35.445  12.989
14583W        W82977  26.115   2.034   2.225
14584W        W82978  19.858  26.025   5.531
14585W        W82979  32.288  23.078  11.929
14586W        W82980   7.265   3.842  13.380
14587W        W82981  33.187   1.132  11.129
14588W        W82982  37.104  41.397  12.894
14589W        W82983  44.041  25.777  12.522
14590W        W82984   6.144  38.635  12.427
14591W        W82985  28.935  19.192  13.799
14592W        W82986   6.015   6.328   1.904
14593W        W82987  31.655  17.729   0.413
14594W        W82988   3.786  30.499   4.556
14595W        W82989  19.391   4.420   3.262
14596W        W82990  31.564  42.445   4.890
14597W        W82991  25.051   2.722   3.606
14598W        W82992  27.080   4.622   1.006
14599W        W82993   8.120   9.082   1.469
14600W        W82994   0.123   4.397   4.751
14601W        W82995   4.218   5.291   3.681
14602W        W82996  40.657  30.517   2.826
14603W        W82997  36.668  36.035  11.631
14604W        W82998  40.578  41.470  13.514
14605W        W82999  31.628   4.007   3.851
14606W        W83000  20.703  27.503   2.311
14607W        W83001  17.129   2.294   0.321
14608W        W83002  38.974  30.919  10.191
14609W        W83003  42.531  35.891   4.118
14610W        W83004  37.681  37.388   4.958
14611W        W83005  13.822   4.826   0.519
14612W        W83006  21.141  43.533   4.263
14613W        W83007  24.754  28.368  14.031
14614W        W83008  28.638  35.603  12.479
14615W        W83009  20.182  35.427   4.530
14616W        W83010  24.068  35.896   3.231
14617W        W83011  21.767   7.843  14.979
14618W        W83012  35.400   5.828   0.919
14619W        W83013   1.154  17.796   3.634
14620W        W83014  28.116  28.177   0.875
14621W        W83015  32.715  22.084   1.959
14622W        W83016   6.215  38.437  13.986
14623W        W83017  31.920  24.961  12.010
14624W        W83018  43.872  37.289  14.278
14625W        W83019   1.673  37.048  13.126
14626W        W83020  43.401  16.237  12.938
14627W        W83021  14.542  25.686  13.572
14628W        W83022  18.556   2.941   1.486
14629W        W83023  14.157  25.698  13.223
14630W        W83024  23.601  18.678   2.339
14631W        W83025  18.793  30.175  12.841
14632W        W83026   1.350  37.424  12.937
14633W        W83027  21.807  26.989  12.975
14634W        W83028  40.919  25.017   3.638
14635W        W83029  31.102  17.348  10.872
14636W        W83030  24.137  24.224  12.613
14637W        W83031  14.170  16.813   3.002
14638W        W83032  19.182   9.884   0.881
14639W        W83033   9.557  29.915   1.704
14640W        W83034  38.568  18.647  14.324
14641W        W83035  42.953  11.621   2.678
14642W        W83036  31.685   7.318  11.202
14643W        W83037  35.514  13.600   1.848
14644W        W83038   9.822   1.968   3.901
14645W        W83039   7.836  43.297  14.446
14646W        W83040  21.180  43.310   1.185
14647W        W83041  44.763  24.185   2.812
14648W        W83042  35.121  31.428  14.801
14649W        W83043  42.442  41.780  11.462
14650W        W83044   0.747  41.738  13.402
14651W        W83045  25.009   5.349   1.166
14652W        W83046   2.634  24.592  11.231
14653W        W83047   6.694  37.126   0.275
14654W        W83048  22.011  11.113  12.849
14655W        W83049  42.571  18.200  10.670
14656W        W83050   9.950  40.382  11.648
14657W        W83051  37.536  42.744  14.995
14658W        W83052   1.843  10.152   1.749
14659W        W83053  38.279  32.637   1.746
14660W        W83054  37.450   8.003  14.293
14661W        W83055  18.747  27.109  13.782
14662W        W83056   7.385  10.042  11.172
14663W        W83057  40.303   6.369   3.640
14664W        W83058  32.909  41.345  13.522
14665W        W83059  26.673  43.727  13.011
14666W        W83060  43.214   7.942   4.129
14667W        W83061  16.470   7.176  10.858
14668W        W83062   6.305   4.963   1.549
14669W        W83063   7.338  42.238  11.171
14670W        W83064  42.346  31.608   4.191
14671W        W83065  31.333  22.139  12.061
14672W        W83066  20.227   7.628  13.004
14673W        W83067  27.719  42.210  14.863
14674W        W83068  42.045  24.986   0.921
14675W        W83069  31.136   9.612   2.225
14676W        W83070  37.375   2.798   0.887
14677W        W83071   0.598  15.255  10.719
14678W        W83072   0.281  31.762  13.399
14679W        W83073  13.267  18.119  10.798
14680W        W83074  44.170  23.663   2.111
14681W        W83075  21.607  43.539   0.930
14682W        W83076  21.778  42.295  12.031
14683W        W83077   1.671  22.013   2.812
14684W        W83078  13.239  44.907  12.813
14685W        W83079   9.911  43.336  10.752
14686W        W83080  41.909  42.583  10.702
14687W        W83081   0.670  43.484   4.061
14688W        W83082  32.088   4.767   2.368
14689W        W83083  17.535   6.491   3.059
14690W        W83084  32.166   8.715  11.865
14691W        W83085   6.401   4.463   2.395
14692W        W83086  41.521  36.373  10.711
14693W        W83087  32.933  40.227  11.687
14694W        W83088  28.237  40.431  11.521
14695W        W83089  10.676  18.206  11.954
14696W        W83090  41.628   8.404   3.694
14697W        W83091   8.851   9.348   3.718
14698W        W83092  14.740   1.034   2.109
14699W        W83093  28.642  22.084  14.768
14700W        W83094  14.065  33.243  14.602
14701W        W83095  22.746  41.609  12.546
14702W        W83096  21.265  14.157   2.818
14703W        W83097  41.551  36.926  14.431
14704W        W83098  20.604  13.815   3.592
14705W        W83099  22.341  13.393   0.910
14706W        W83100  27.089  24.005   2.769
14707W        W83101  30.657  41.234  12.534
14708W        W83102  41.653  35.119   1.631
14709W        W83103  36.180   8.882  11.085
14710W        W83104  33.952  27.508   0.022
14711W        W83105  10.666  43.768   3.235
14712W        W83106  23.421  30.452   1.577
14713W        W83107  41.964  25.495   3.655
14714W        W83108  17.229  33.096  11.174
14715W        W83109   8.446  17.538   4.820
14716W        W83110   9.841  27.203  12.506
14717W        W83111  23.892  26.994   2.641
14718W        W83112  43.237  10.838   4.216
14719W        W83113  24.614  41.677   4.409
14720W        W83114  43.894  14.615   0.390
14721W        W83115   2.531   8.089  12.506
14722W        W83116  44.981  31.227  14.010
14723W        W83117  14.874   3.130   5.249
14724W        W83118   3.180  14.553  12.553
14725W        W83119  17.298   8.748  14.743
14726W        W83120  36.330  31.460   2.186
14727W        W83121  27.950  40.922   4.891
14728W        W83122  24.164  16.098   4.248
14729W        W83123  20.761  11.234   0.522
14730W        W83124  32.048  39.769   0.514
14731W        W83125  40.924  20.202  14.561
14732W        W83126  18.531   9.781  13.006
14733W        W83127  27.994  23.240  13.114
14734W        W83128  33.079  13.042  14.341
14735W        W83129  41.266  16.349   3.256
14736W        W83130  36.828   1.831   2.720
14737W        W83131  24.139  39.318  12.147
14738W        W83132  24.593  11.646  13.911
14739W        W83133  34.079   2.819  11.558
14740W        W83134  29.910  12.138  11.160
14741W        W83135   9.309  39.936  14.743
14742W        W83136  16.622  29.605   1.345
14743W        W83137  29.608   0.501  11.065
14744W        W83138  37.783  18.172   4.172
14745W        W83139   0.980   0.275  13.025
14746W        W83140  35.380  44.850   3.731
14747W        W83141  25.147   8.776  12.893
14748W        W83142  34.086  42.088   2.278
14749W        W83143  36.768  19.378   3.741
14750W        W83144   8.308   0.805   0.376
14751W        W83145  36.323  10.862   4.320
14752W        W83146  41.313  13.300   1.425
14753W        W83147  16.253  15.086  14.145
14754W        W83148  42.238  29.892   1.808
14755W        W83149   6.694  42.000   4.727
14756W        W83150  43.205  44.230   2.276
14757W        W83151  15.542  31.582   1.520
14758W        W83152  36.297   7.516  12.419
14759W        W83153  17.147  12.930  13.390
14760W        W83154   7.865  25.402  13.918
14761W        W83155  10.857  22.972  11.981
14762W        W83156   2.457  44.263   3.325
14763W        W83157  41.471  22.576   0.251
14764W        W83158   1.584  19.543  14.893
14765W        W83159  23.088  38.628   3.867
14766W        W83160  14.860  11.845   2.757
14767W        W83161  12.974  24.176  11.428
14768W        W83162   1.437   4.850   0.880
14769W        W83163  42.945  43.750  11.202
14770W        W83164  22.054  40.468  12.943
14771W        W83165  34.439  15.600   4.691
14772W        W83166   6.330  14.421   1.614
14773W        W83167  36.673  18.111  14.760
14774W        W83168  39.320  39.223  11.295
14775W        W83169  16.227  39.880   3.679
14776W        W83170  13.110  34.839   1.522
14777W        W83171   2.755  22.068  14.796
14778W        W83172  12.717   1.415   3.771
14779W        W83173  40.472  29.879  10.622
14780W        W83174   2.793  41.768  11.541
14781W        W83175  25.257   8.856   2.372
14782W        W83176   5.216  29.678   3.144
14783W        W83177  27.664  24.963   1.447
14784W        W83178   1.004  33.393  13.864
14785W        W83179  44.545   6.763   0.847
14786W        W83180  33.614  31.921   4.311
14787W        W83181   0.334  43.380  13.524
14788W        W83182  35.374  39.841   1.455
14789W        W83183  26.751  32.566  14.862
14790W        W83184  26.202   9.957  13.970
14791W        W83185  21.219  33.040   4.150
14792W        W83186  25.547   5.405   0.686
14793W        W83187  42.994  25.415  10.916
14794W        W83188  25.781   9.939  14.773
14795W        W83189  16.697  23.254   1.640
14796W        W83190   2.389  26.762  10.390
14797W        W83191  26.609  12.267  12.092
14798W        W83192   0.880  19.202  13.818
14799W        W83193   6.746  29.696   1.011
14800W        W83194  22.708   0.907  14.928
14801W        W83195  41.048  36.141   2.535
14802W        W83196   0.512  36.691   1.653
14803W        W83197  11.215  16.209   4.505
14804W        W83198  37.795  18.635   3.323
14805W        W83199  24.063  20.205  11.655
14806W        W83200  42.078  15.566  11.640
14807W        W83201   7.791  37.507   1.934
14808W        W83202  34.053  12.286   4.925
14809W        W83203   5.886  19.704   4.056
14810W        W83204  19.169  29.693  13.340
14811W        W83205  38.874  39.472  11.166
14812W        W83206   8.346  34.147  10.902
14813W        W83207  26.043  38.597  11.295
14814W        W83208  39.290  29.650   2.778
14815W        W83209  43.698   6.924   1.269
14816W        W83210  24.587  25.393   1.219
14817W        W83211  14.230  23.557   1.056
14818W        W83212  36.606  23.562   1.366
14819W        W83213  28.989   6.259  13.085
14820W        W83214  22.747  31.585  12.054
14821W        W83215  27.917  36.478   1.255
14822W        W83216  32.932   8.101   2.248
14823W        W83217  26.156  30.634  13.299
14824W        W83218  25.615  42.162  10.358
14825W        W83219  29.421   8.996   3.071
14826W        W83220   9.639  22.271   0.908
14827W        W83221  28.007   7.225   4.540
14828W        W83222  13.963   4.374   0.262
14829W        W83223  19.500  26.093   3.681
14830W        W83224  30.049  11.295   2.923
14831W        W83225  37.111  37.335   3.240
14832W        W83226  18.185  17.871   1.378
14833W        W83227   7.669  17.240   1.378
14834W        W83228  37.440  10.407  14.282
14835W        W83229  18.269  28.637  13.312
14836W        W83230  28.933  40.878  12.468
14837W        W83231  36.022  13.822  13.422
14838W        W83232  18.058  30.073  13.260
14839W        W83233  28.511  28.841  11.569
14840W        W83234   9.446  39.902   2.229
14841W        W83235  25.666  36.385  14.821
14842W        W83236  40.247  41.017   4.628
14843W        W83237  16.124  11.533   1.313
14844W        W83238  35.347  13.241  14.336
14845W        W83239   0.827  37.573  10.205
14846W        W83240  14.837  14.111   2.894
14847W        W83241   5.993   6.931   0.757
14848W        W83242  41.060   6.949  14.767
14849W        W83243   8.653  15.691  12.287
14850W        W83244  16.090  27.149   3.283
14851W        W83245  26.172   8.792  14.495
14852W        W83246   9.250  35.883  14.810
14853W        W83247  33.437  18.136   4.230
14854W        W83248  32.088  39.600  11.599
14855W        W83249  14.368  41.629  11.076
14856W        W83250  32.598  22.173   0.935
14857W        W83251  26.043  14.080  14.753
14858W        W83252  33.942  36.414  11.446
14859W        W83253  40.536  32.564   0.013
14860W        W83254  37.909  40.757  12.105
14861W        W83255  26.912  25.383  11.566
14862W        W83256  37.300  11.268  14.739
14863W        W83257  44.599   1.823   0.310
14864W        W83258  19.781   9.893  13.486
14865W        W83259   8.526   5.113   4.910
14866W        W83260  42.567   0.333  11.133
14867W        W83261  35.553  37.160  12.960
14868W        W83262  42.492  25.146   0.693
14869W        W83263  31.062  44.834   4.356
14870W        W83264  32.687  12.559  13.010
14871W        W83265  39.184   3.511  13.101
14872W        W83266  10.182  24.079   0.426
14873W        W83267  39.162  24.210   0.920
14874W        W83268  25.015  22.251   4.856
14875W        W83269   1.884   9.661   3.614
14876W        W83270  31.583  24.567   3.411
14877W        W83271  22.556  31.565  11.172
14878W        W83272  41.265  28.220  13.941
14879W        W83273   3.884   6.284  12.101
14880W        W83274  14.367  15.641   2.239
14881W        W83275  23.537   3.407  10.951
14882W        W83276  28.627  31.444   1.242
14883W        W83277  18.554  14.812  13.512
14884W        W83278  16.811  39.689   0.721
14885W        W83279  29.638  22.247   1.753
14886W        W83280  36.043  26.296   0.707
14887W        W83281   3.147   4.842   4.633
14888W        W83282   6.723  20.160  10.729
14889W        W83283   2.815  20.073   2.721
14890W        W83284  35.480   5.661  14.318
14891W        W83285  32.471  19.095  14.401
14892W        W83286  20.635  15.892   2.883
14893W        W83287  36.469  28.853  12.524
14894W        W83288  19.010  11.196   0.427
14895W        W83289  27.130  36.338  12.075
14896W        W83290  15.254  16.117  10.676
14897W        W83291   5.763  14.693   0.413
14898W        W83292   1.054   5.095   0.610
14899W        W83293   7.675   0.686   2.835
14900W        W83294  17.069  21.288  14.324
14901W        W83295  17.759  26.620   0.931
14902W        W83296  17.275  27.418  10.046
14903W        W83297  31.373  11.861   1.215
14904W        W83298  12.670  29.007   1.925
14905W        W83299  26.900  32.447   3.755
14906W        W83300  30.399  21.448   1.370
14907W        W83301  21.873  27.608   4.134
14908W        W83302  40.799  24.072  13.070
14909W        W83303  41.710  10.691  10.966
14910W        W83304   7.449  34.436   4.762
14911W        W83305  17.235  25.630   1.930
14912W        W83306  23.545   3.162   1.844
14913W        W83307   3.756   2.778   0.329
14914W        W83308  15.503  20.128  14.026
14915W        W83309   9.647  20.614  11.433
14916W        W83310  10.400  36.382  14.825
14917W        W83311  21.987   3.870  11.614
14918W        W83312  42.113  34.119   2.384
14919W        W83313  24.129  32.831  11.846
14920W        W83314  28.373  21.529  13.556
14921W        W83315  36.575   7.984  14.825
14922W        W83316   6.745  27.712  13.874
14923W        W83317  31.068  32.130  14.410
14924W        W83318  38.045  21.581  12.105
14925W        W83319  31.499   4.384  12.026
14926W        W83320  13.401  43.307  13.665
14927W        W83321  14.916  14.887   4.215
14928W        W83322  37.054  24.687  14.888
14929W        W83323  43.481  29.038   4.356
14930W        W83324  31.217  43.447   2.804
14931W        W83325   8.198  42.631   4.306
14932W        W83326   1.406  18.188   0.769
14933W        W83327  12.177  28.640  12.562
14934W        W83328   7.901  21.293  12.403
14935W        W83329  21.622   9.575   3.502
14936W        W83330  23.454   7.957  14.407
14937W        W83331   8.994  28.669   0.732
14938W        W83332  26.955  14.567   0.778
14939W        W83333   0.205  22.595  14.963
14940W        W83334   3.960  40.893   1.774
14941W        W83335  31.434  15.802  11.980
14942W        W83336   5.082  25.148  10.560
14943W        W83337   9.193  11.685   9.825
14944W        W83338  32.929  12.656   4.224
14945W        W83339   0.551  31.555   2.661
14946W        W83340  20.863   7.691   1.560
14947W        W83341  42.934  15.229   3.813
14948W        W83342  41.201  11.974  14.804
14949W        W83343  17.121  14.093   3.273
14950W        W83344  14.591   5.101   4.094
14951W        W83345  23.865  16.556  11.615
14952W        W83346  26.012  17.764   4.565
14953W        W83347   2.949  13.008   2.838
14954W        W83348  31.408   3.181  12.348
14955W        W83349  36.666   9.799  12.473
14956W        W83350  38.271  25.156  13.555
14957W        W83351   0.171  41.628   2.953
14958W        W83352  39.900  30.519  10.485
14959W        W83353   7.186   2.311   4.364
14960W        W83354  13.555  17.366  13.758
14961W        W83355  34.979  15.387   4.328
14962W        W83356  33.103  21.040  10.447
14963W        W83357  42.043  27.939   1.777
14964W        W83358  31.669  33.299  10.781
14965W        W83359   3.679  31.397  13.792
14966W        W83360   5.893   5.688  10.807
14967W        W83361  44.616  14.283  10.491
14968W        W83362   6.636  13.693   0.471
14969W        W83363  15.358  41.415   3.537
14970W        W83364  12.365  34.924   1.926
14971W        W83365  29.171  41.467  13.097
14972W        W83366   2.657  41.482   1.908
14973W        W83367  27.691  19.305   0.654
14974W        W83368  32.395  11.788   4.242
14975W        W83369   1.504  22.250  11.225
14976W        W83370  30.843  16.107   4.655
14977W        W83371  19.639  24.003   2.620
14978W        W83372  31.906  31.998  10.357
14979W        W83373  33.316   8.490   1.352
14980W        W83374  41.906  38.124   2.203
14981W        W83375   4.276  39.679   3.717
14982W        W83376  32.041   5.364   3.844
14983W        W83377   8.540  43.126   0.684
14984W        W83378   0.934   4.251   2.288
14985W        W83379  17.664  18.987   4.530
14986W        W83380  27.501  39.597  14.082
14987W        W83381  25.575  37.620   0.671
14988W        W83382  11.404  12.688  11.511
14989W        W83383   2.260  10.758  12.085
14990W        W83384   7.994  32.899  14.540
14991W        W83385  14.546  19.746   2.704
14992W        W83386  14.497  12.569   5.074
14993W        W83387  26.455   2.064   0.774
14994W        W83388   9.547  23.681  12.026
14995W        W83389  20.526  36.123   3.152
14996W        W83390  44.856  33.814   2.759
14997W        W83391  15.669  28.468   3.248
14998W        W83392   4.131  36.568  13.995
14999W        W83393  17.104  20.597   1.956
15000W        W83394  43.483  12.669  11.194
15001W        W83395  19.075  21.827  10.376
15002W        W83396  18.859  15.805  14.181
15003W        W83397   7.104  13.834   0.696
15004W        W83398   3.509  20.777  11.836
15005W        W83399   4.170  40.605   1.361
15006W        W83400  40.083   4.731   2.579
15007W        W83401   5.517  32.851  11.117
15008W        W83402  25.326  15.735  11.618
15009W        W83403  25.010  41.803  11.969
15010W        W83404  30.048  15.324  10.750
15011W        W83405  30.074  35.512   3.144
15012W        W83406  38.418  21.099  14.841
15013W        W83407  42.347  40.408   2.366
15014W        W83408  22.161  37.278   4.733
15015W        W83409  15.319   5.961   2.379
15016W        W83410  33.916  15.439  12.497
15017W        W83411  17.840  39.167  12.009
15018W        W83412   2.744  28.924   1.953
15019W        W83413  20.820  28.676  10.729
15020W        W83414   4.779  16.256   4.888
15021W        W83415  25.036  11.405  14.319
15022W        W83416  20.772  44.364  10.540
15023W        W83417  36.431  21.172  10.259
15024W        W83418  38.426  44.386   3.822
15025W        W83419  20.615  21.058  11.415
15026W        W83420  12.214  17.659   0.983
15027W        W83421  18.752  22.762   3.997
15028W        W83422  22.549  22.029   4.130
15029W        W83423  34.593   9.828  11.616
15030W        W83424  14.351  37.861  12.436
15031W        W83425  29.978  27.172  11.164
15032W        W83426  32.971  30.626  12.034
15033W        W83427  31.567  42.974   0.427
15034W        W83428   8.335  19.278   0.328
15035W        W83429  21.503   4.717  14.762
15036W        W83430   5.344   7.115   2.290
15037W        W83431  44.819   5.691  12.240
15038W        W83432  43.265   7.170   4.786
15039W        W83433  30.931  18.668  14.603
15040W        W83434  44.104  30.784   3.625
15041W        W83435  17.110  19.791   2.940
15042W        W83436  12.399  35.342   3.175
15043W        W83437  27.639  25.460   2.692
15044W        W83438  13.871  10.439  13.146
15045W        W83439  37.293  36.106   4.214
15046W        W83440  10.468  11.170   2.374
15047W        W83441  39.827  19.769   3.392
15048W        W83442   5.813   6.202  10.703
15049W        W83443  33.432  33.004  11.191
15050W        W83444  40.523  35.374   2.290
15051W        W83445  39.607  41.481  11.651
15052W        W83446  12.069  12.868   1.463
15053W        W83447   8.818   6.189  14.954
15054W        W83448  25.803   1.972  13.053
15055W        W83449  35.546   4.127   4.077
15056W        W83450  32.525  26.986  12.196
15057W        W83451   1.965  35.699   2.595
15058W        W83452   7.729  36.109   4.788
15059W        W83453  23.540   3.201  14.354
15060W        W83454   6.914  32.758   0.477
15061W        W83455  17.307  33.723   0.874
15062W        W83456  20.008  39.659  12.487
15063W        W83457   9.534  38.252   2.629
15064W        W83458  26.421  20.106   2.873
15065W        W83459   3.472  11.307   4.730
15066W        W83460  15.365   4.396  14.444
15067W        W83461  43.790  33.968   0.311
15068W        W83462  17.249  37.520  14.039
15069W        W83463   7.077   6.245  10.649
15070W        W83464  31.938  12.701   4.062
15071W        W83465  38.781   0.546   0.079
15072W        W83466  42.733  10.174   0.003
15073W        W83467  25.692   1.684  11.434
15074W        W83468  12.478  17.781  14.168
15075W        W83469   3.920  27.514  11.525
15076W        W83470  15.312  43.438   3.336
15077W        W83471   4.849  28.440   4.238
15078W        W83472   7.168  15.733   3.159
15079W        W83473  16.125  19.575  11.162
15080W        W83474  25.626   0.485  14.742
15081W        W83475  34.113   3.324   2.166
15082W        W83476  15.833  24.607  12.210
15083W        W83477  43.043  30.675   2.300
15084W        W83478  21.514  37.047   4.516
15085W        W83479  34.118  23.148  12.176
15086W        W83480  33.954  38.258  11.258
15087W        W83481  21.158  11.221  10.800
15088W        W83482  24.304   5.821   1.467
15089W        W83483  20.094  19.525  13.103
15090W        W83484   7.020  38.798  11.996
15091W        W83485  38.781  11.649  11.206
15092W        W83486  38.130   1.170   2.649
15093W        W83487  40.975  43.389   2.219
15094W        W83488  27.921  39.658   1.440
15095W        W83489   5.587   3.554  11.204
15096W        W83490  20.026  32.606   0.392
15097W        W83491   2.171  14.629   1.377
15098W        W83492  11.041  12.378  12.953
15099W        W83493  15.105   0.723   2.882
15100W        W83494  19.623  32.000  13.010
15101W        W83495   9.845  29.482   4.645
15102W        W83496  39.377   7.684  11.961
15103W        W83497  28.476  40.813  13.898
15104W        W83498  19.745  22.341   1.671
15105W        W83499  13.712  33.353  10.646
15106W        W83500  29.391  21.447   5.016
15107W        W83501  25.163  13.453   4.285
15108W        W83502  33.616   0.546   2.017
15109W        W83503  23.527  20.078  12.514
15110W        W83504  10.644   2.520  12.903
15111W        W83505  43.387  34.165  14.395
15112W        W83506  11.246  13.834   3.362
15113W        W83507  32.939  31.829   2.096
15114W        W83508   8.399  31.946  11.027
15115W        W83509  35.387   7.248  13.535
15116W        W83510   6.617  18.695   9.788
15117W        W83511  44.070  27.255   1.351
15118W        W83512  16.268   3.448  12.941
15119W        W83513  32.320  44.319  14.388
15120W        W83514  41.927  25.739  12.908
15121W        W83515   5.399  19.325   1.872
15122W        W83516  11.626  14.649  12.568
15123W        W83517  25.823  11.581   3.173
15124W        W83518   9.891  37.869  13.779
15125W        W83519  25.041  31.419  10.732
15126W        W83520  35.049  27.981   0.786
15127W        W83521   0.196   3.322  14.766
15128W        W83522  15.132  34.824   1.393
15129W        W83523  12.957  12.388  11.182
15130W        W83524   8.335  39.696   2.469
15131W        W83525  38.592   8.980   3.117
15132W        W83526  21.826  43.654  12.402
15133W        W83527  25.028   6.794  14.383
15134W        W83528  40.055  36.804   0.989
15135W        W83529  17.476  25.166   0.970
15136W        W83530  10.448  15.665  11.061
15137W        W83531  36.278   3.522  14.695
15138W        W83532  38.455  17.213   2.808
15139W        W83533  18.342   8.829   2.884
15140W        W83534  16.094  29.982  11.937
15141W        W83535  16.852  30.122   4.229
15142W        W83536  26.457  16.447  14.321
15143W        W83537  26.081  17.844   2.888
15144W        W83538  23.617  34.374   3.662
15145W        W83539  23.175   8.245   0.764
15146W        W83540  14.214  11.147   2.714
15147W        W83541  42.253  23.240  10.942
15148W        W83542  14.025   6.447   2.498
15149W        W83543  31.014  30.169   0.309
15150W        W83544  14.410  32.349  12.600
15151W        W83545  38.916  40.856   2.724
15152W        W83546   1.127  10.067  11.612
15153W        W83547   1.800  17.043  13.013
15154W        W83548  15.410  36.836   4.197
15155W        W83549  35.172   1.603   2.887
15156W        W83550  44.999  33.534  13.900
15157W        W83551  40.002  14.170   2.628
15158W        W83552  43.707  32.374   4.044
15159W        W83553  23.524  27.032   1.854
15160W        W83554  34.205  37.874   0.519
15161W        W83555   5.890  15.780   0.392
15162W        W83556  27.824  24.679  12.806
15163W        W83557  12.262  33.411   2.921
15164W        W83558  38.430  20.775  11.957
15165W        W83559  13.042   2.537  12.390
15166W        W83560  43.406  35.403  10.541
15167W        W83561  10.754  43.935  13.507
15168W        W83562   7.983   3.195  11.182
15169W        W83563  10.640  22.073   0.280
15170W        W83564   9.315  29.912  13.960
15171W        W83565  23.576  32.518   3.170
15172W        W83566   4.986   5.620  10.582
15173W        W83567  22.800  40.475  14.292
15174W        W83568  18.070  12.542  12.595
15175W        W83569  21.144  22.910   2.587
15176W        W83570   9.326   2.511   3.099
15177W        W83571  35.385   0.862  11.632
15178W        W83572  39.392  22.333   4.125
15179W        W83573   7.866  34.352  14.043
15180W        W83574  33.239   0.989   0.491
15181W        W83575  34.997  26.458   4.796
15182W        W83576   4.194  33.501   2.091
15183W        W83577  16.468   4.177   2.728
15184W        W83578  18.657  20.599   3.309
15185W        W83579  19.484  11.226  12.650
15186W        W83580  22.139  16.604   3.382
15187W        W83581  41.288  16.548   4.140
15188W        W83582  13.309  26.728  12.903
15189W        W83583   0.939  27.914   1.855
15190W        W83584  24.678  26.083  13.190
15191W        W83585  29.110  20.753   4.376
15192W        W83586  20.921   1.859  14.161
15193W        W83587   9.848  13.235   0.205
15194W        W83588  11.404  30.291  13.998
15195W        W83589  40.602  34.865   2.365
15196W        W83590  29.097   2.366   3.063
15197W        W83591  39.696  12.783   3.656
15198W        W83592  18.737  17.747   0.550
15199W        W83593  24.495  23.651  13.652
15200W        W83594   1.827  25.653   3.180
15201W        W83595  10.436  28.756  10.431
15202W        W83596   8.213  44.380   0.291
15203W        W83597  28.240  26.779   2.751
15204W        W83598   2.486  17.942   2.408
15205W        W83599  42.253  38.101   3.705
15206W        W83600  19.055  15.669  14.958
15207W        W83601  33.387   9.597  13.486
15208W        W83602  37.179   4.940   4.675
15209W        W83603   3.339  25.619   4.705
15210W        W83604  44.277   0.980   1.895
15211W        W83605  18.667   0.368   0.933
15212W        W83606  38.372   7.085   2.993
15213W        W83607  39.979  12.917   1.444
15214W        W83608  33.493  32.878  13.405
15215W        W83609  17.267   0.067   3.260
15216W        W83610   9.667  22.330   4.427
15217W        W83611  26.911   8.805   3.177
15218W        W83612  13.678  32.681   2.389
15219W        W83613  29.678  39.047   0.806
15220W        W83614  29.122  10.664   0.503
15221W        W83615   9.513  26.027  11.468
15222W        W83616   0.886  27.683  14.418
15223W        W83617  25.598   8.879   4.522
15224W        W83618  30.283  26.871   4.490
15225W        W83619  28.930   2.872  13.570
15226W        W83620  31.543  42.293  11.250
15227W        W83621  13.372  26.135   0.456
15228W        W83622  13.693   6.501  12.534
15229W        W83623   7.059  12.606  13.346
15230W        W83624   7.210  39.254   0.364
15231W        W83625  16.295  26.676  12.600
15232W        W83626  36.963   3.759   4.193
15233W        W83627   9.903  15.000   4.028
15234W        W83628  37.912  43.451  13.064
15235W        W83629  40.699  18.594   1.219
15236W        W83630  39.974  23.143   1.241
15237W        W83631  44.669  31.513   0.846
15238W        W83632  15.143  28.030  12.311
15239W        W83633  21.593  27.464   3.435
15240W        W83634  30.660  42.587  11.201
15241W        W83635  34.194  20.013   4.476
15242W        W83636  18.030  32.097  13.551
15243W        W83637  28.780   1.443   5.556
15244W        W83638  27.405  37.981  13.055
15245W        W83639   1.512  33.637   4.140
15246W        W83640  32.889  40.559   3.815
15247W        W83641  32.526  14.860  10.536
15248W        W83642  35.932  34.577   0.870
15249W        W83643  40.416  11.359   2.834
15250W        W83644   8.960  10.228   4.426
15251W        W83645  33.412  37.790   0.819
15252W        W83646  42.187  24.815   2.855
15253W        W83647  18.689  36.965  10.929
15254W        W83648  11.586  27.123  13.412
15255W        W83649   5.353   8.615   2.710
15256W        W83650  18.601   0.993  14.484
15257W        W83651   0.290  18.118   0.094
15258W        W83652  15.549   9.443   2.728
15259W        W83653  25.212  22.055  10.308
15260W        W83654  27.947  32.147   2.319
15261W        W83655  32.927  42.837   4.652
15262W        W83656  16.315  42.510  10.722
15263W        W83657  37.351  29.559   3.889
15264W        W83658  40.833   9.065  13.986
15265W        W83659  12.191  35.860   3.126
15266W        W83660  13.730  28.402  13.335
15267W        W83661  24.557  25.547  14.390
15268W        W83662  44.665  27.562  14.950
15269W        W83663  42.494  38.367   3.353
15270W        W83664   8.098  40.479  11.015
15271W        W83665  22.537  35.565   2.291
15272W        W83666  31.123  27.101  10.900
15273W        W83667  41.320  30.010   2.615
15274W        W83668  30.168  15.781  12.694
15275W        W83669  19.979  41.156  12.559
15276W        W83670  11.173  10.506  14.828
15277W        W83671  13.477   6.992  11.197
15278W        W83672  29.510  28.834   3.629
15279W        W83673   1.218   2.732   3.299
15280W        W83674  35.393  41.635  14.164
15281W        W83675  12.708  24.243   3.690
15282W        W83676  21.685  18.261  10.961
15283W        W83677  35.710  19.036   4.928
15284W        W83678  29.345   1.495  14.437
15285W        W83679  14.443   4.341   2.439
15286W        W83680  31.621  44.764  11.083
15287W        W83681  41.911  22.000   2.815
15288W        W83682  10.562  31.086   0.333
15289W        W83683   1.996   6.827   4.541
15290W        W83684  11.818  23.772   4.054
15291W        W83685   3.466  28.211  13.028
15292W        W83686  26.019  34.350  13.470
15293W        W83687  42.789  30.319  14.600
15294W        W83688  17.404  13.334   0.450
15295W        W83689  19.818  10.441   3.765
15296W        W83690   1.783  37.532   3.271
15297W        W83691   7.151  40.605  10.741
15298W        W83692  11.698  24.411   1.386
15299W        W83693  27.484  12.052  10.577
15300W        W83694  21.645  30.784   2.925
15301W        W83695  24.915  16.968   1.468
15302W        W83696   7.848  44.866  14.882
15303W        W83697  15.099  44.787   0.190
15304W        W83698  30.848   5.759   0.685
15305W        W83699  43.839  34.897   4.346
15306W        W83700  43.985  42.461   0.042
15307W        W83701  21.219  17.237   1.937
15308W        W83702  41.614  12.152   4.451
15309W        W83703  28.159  32.160  11.889
15310W        W83704  18.026  17.567  12.087
15311W        W83705  42.329  26.810   1.663
15312W        W83706   0.333  12.335   2.637
15313W        W83707  19.251  37.399  10.655
15314W        W83708  28.374  40.515   5.055
15315W        W83709   3.672  10.774   2.806
15316W        W83710  17.175   0.847   4.460
15317W        W83711  33.579  12.887   2.426
15318W        W83712  29.815  42.043  11.555
15319W        W83713  27.102  35.671   2.558
15320W        W83714  26.621   3.377   2.795
15321W        W83715   5.552  16.553   5.459
15322W        W83716  28.333  30.374   4.798
15323W        W83717  19.044  11.650  13.709
15324W        W83718  44.480  29.576   2.782
15325W        W83719  41.232  34.000  10.614
15326W        W83720  35.832  17.077   4.004
15327W        W83721  43.112  13.693  14.473
15328W        W83722  25.019   7.615   1.060
15329W        W83723   1.614  41.345  14.703
15330W        W83724  18.266  32.097   0.442
15331W        W83725  11.916  22.683   4.619
15332W        W83726  30.078  36.169   4.351
15333W        W83727  44.796  12.067   3.763
15334W        W83728  35.907  23.174   1.375
15335W        W83729  34.588  37.751  11.140
15336W        W83730  21.624   2.568   2.840
15337W        W83731  32.632   9.064   4.139
15338W        W83732   5.961  39.968  11.463
15339W        W83733  29.429   0.507   1.676
15340W        W83734  29.987  32.670  14.470
15341W        W83735  27.151  37.780  14.285
15342W        W83736  32.250  26.018   2.104
15343W        W83737  15.948  26.205  10.373
15344W        W83738  20.702   2.801  12.078
15345W        W83739  19.860  15.320  12.567
15346W        W83740  29.738  17.628  11.466
15347W        W83741  39.829  28.688  11.441
15348W        W83742   2.691  19.000   1.903
15349W        W83743  44.326  38.505  10.835
15350W        W83744  35.589  12.324   3.677
15351W        W83745  35.160  25.369  14.916
15352W        W83746  19.586  26.581  11.145
15353W        W83747   9.516  42.321   4.879
15354W        W83748   9.451   7.202  14.345
15355W        W83749  22.783  30.548  14.426
15356W        W83750  43.453   7.794   3.712
15357W        W83751  30.873   5.121  11.477
15358W        W83752  31.723   1.707   1.912
15359W        W83753  30.832  44.328  14.184
15360W        W83754  10.752   0.379   1.918
15361W        W83755   9.714  19.579   0.825
15362W        W83756  30.053  12.659  14.007
15363W        W83757   2.742   1.046   4.082
15364W        W83758  26.010  15.759  13.089
15365W        W83759   5.235  33.410   4.585
15366W        W83760   0.510  23.023  12.575
15367W        W83761   2.234   5.747  12.011
15368W        W83762  35.111  44.199  12.976
15369W        W83763  15.366  23.677   2.696
15370W        W83764  23.687   2.841  13.994
15371W        W83765  20.800  30.162  13.853
15372W        W83766  39.073  44.399   0.795
15373W        W83767  31.378  19.458   2.679
15374W        W83768  32.833  21.321  10.079
15375W        W83769  25.999  16.860  14.948
15376W        W83770  24.412  17.463   3.632
15377W        W83771  15.686  22.210  14.050
15378W        W83772  39.556  25.688   3.108
15379W        W83773  15.514  26.247   1.872
15380W        W83774  21.136   9.012   1.845
15381W        W83775  22.501  39.940  14.044
15382W        W83776   7.666  36.003   2.310
15383W        W83777  20.293  34.640   3.272
15384W        W83778  34.348  33.127  13.992
15385W        W83779  38.424  36.062  13.001
15386W        W83780  14.417  38.163   0.891
15387W        W83781  27.700   5.211  14.363
15388W        W83782  39.283  27.105  11.998
15389W        W83783  34.042   0.307  13.878
15390W        W83784  44.449  28.018  14.821
15391W        W83785   7.541  25.762   4.051
15392W        W83786  18.985  44.004  14.263
15393W        W83787  14.749  14.669   4.671
15394W        W83788   7.367  23.869  10.893
15395W        W83789  39.568  38.083  11.751
15396W        W83790   8.872  30.104  12.171
15397W        W83791  41.237  34.509  14.870
15398W        W83792  17.636   0.736  10.742
15399W        W83793  20.235  35.829   1.798
15400W        W83794   3.191  34.624   4.102
15401W        W83795   1.878   2.676  13.612
15402W        W83796  18.437   7.792  14.487
15403W        W83797   7.378  24.980  12.946
15404W        W83798  36.116   6.286  14.892
15405W        W83799   0.213   4.325   1.873
15406W        W83800  31.068  19.105   2.343
15407W        W83801  37.420  35.781  11.009
15408W        W83802  20.525  37.602  13.043
15409W        W83803  25.514  34.443   0.797
15410W        W83804   3.748  23.493  14.419
15411W        W83805  23.622  15.069   0.251
15412W        W83806  18.333   3.949  13.290
15413W        W83807  31.966   8.219  14.314
15414W        W83808  32.178  26.708   4.527
15415W        W83809  36.320  16.689  11.981
15416W        W83810  34.904  41.734  14.328
15417W        W83811  38.020  43.692   0.409
15418W        W83812  23.545   4.827  13.412
15419W        W83813  29.218   7.900   2.733
15420W        W83814  34.938  13.723   3.158
15421W        W83815  22.159  38.537  12.063
15422W        W83816  43.981  16.779  12.458
15423W        W83817  39.312  12.606  13.897
15424W        W83818   7.149  14.804  13.621
15425W        W83819  27.911  28.747  14.389
15426W        W83820  18.039  35.913   1.226
15427W        W83821  14.341  27.700   1.713
15428W        W83822   3.934   1.649   2.937
15429W        W83823  27.595  44.892  12.837
15430W        W83824  34.379   9.743   0.377
15431W        W83825   0.190   8.922   0.982
15432W        W83826  26.175  42.574   9.672
15433W        W83827   6.122   5.838  13.816
15434W        W83828  38.080  37.162  14.140
15435W        W83829  25.273  16.735  12.560
15436W        W83830  14.276  19.901  10.597
15437W        W83831  42.427  35.030   3.070
15438W        W83832  20.057   9.068  14.024
15439W        W83833  12.794  28.586   1.645
15440W        W83834  19.501  16.846  14.962
15441W        W83835  34.092  36.505   0.250
15442W        W83836   8.477  33.131   4.230
15443W        W83837  20.368  29.306  11.557
15444W        W83838  36.942  13.513  13.485
15445W        W83839   6.246   1.484  14.583
15446W        W83840  41.938  23.113  12.296
15447W        W83841  28.580  10.364   2.314
15448W        W83842  32.389  12.140   2.362
15449W        W83843  44.542  34.572   0.441
15450W        W83844  12.674   8.759  13.822
15451W        W83845   3.747  25.189   2.228
15452W        W83846   6.686  23.552  10.334
15453W        W83847   4.818  22.197   1.804
15454W        W83848  36.523  12.867   2.394
15455W        W83849   2.239   0.953  14.565
15456W        W83850  26.025   6.168  13.773
15457W        W83851  39.478  14.709   2.286
15458W        W83852  16.505  30.718  11.983
15459W        W83853   6.629  22.244   0.793
15460W        W83854   3.491  32.042   3.790
15461W        W83855  22.348  16.265   0.284
15462W        W83856  13.108  38.650   3.322
15463W        W83857  21.324  26.948   3.728
15464W        W83858  40.944  10.702   1.416
15465W        W83859  14.613  38.372   3.488
15466W        W83860  44.710  19.207  12.535
15467W        W83861   3.002  17.677  12.638
15468W        W83862  16.998   6.141   0.357
15469W        W83863   0.441  20.738   0.359
15470W        W83864   1.486   6.803  13.962
15471W        W83865  36.524  31.842   4.069
15472W        W83866  31.970   2.704   4.080
15473W        W83867  26.926  34.933  12.603
15474W        W83868  25.523  13.373  12.112
15475W        W83869  13.482  25.398   5.156
15476W        W83870  28.997   6.388   3.677
15477W        W83871  34.061  18.860   3.322
15478W        W83872  36.818  14.208   4.039
15479W        W83873  29.725   5.040  12.072
15480W        W83874  37.333  30.899   4.103
15481W        W83875  37.876  23.478   1.944
15482W        W83876  13.096  13.720   3.346
15483W        W83877  41.492   3.372  13.970
15484W        W83878  18.902  44.516   0.811
15485W        W83879   3.174   1.343  12.103
15486W        W83880   3.470  20.370   2.204
15487W        W83881  38.426   2.053   4.039
15488W        W83882   2.712   1.754  14.772
15489W        W83883  37.346  31.156  10.643
15490W        W83884  37.990   9.328   1.018
15491W        W83885  27.045  18.248   0.888
15492W        W83886  28.599  23.625  11.066
15493W        W83887  23.246   0.518   2.384
15494W        W83888  43.542  34.979   1.467
15495W        W83889  11.559  29.310   3.396
15496W        W83890   0.763  17.836   4.468
15497W        W83891  35.521  44.893  10.723
15498W        W83892  36.086  35.837  14.871
15499W        W83893  36.608  19.970  11.227
15500W        W83894   7.041   1.902   3.081
15501W        W83895  12.371  10.348   0.931
15502W        W83896  12.707  18.415   1.913
15503W        W83897  20.191  13.371   0.490
15504W        W83898  35.189  29.402   4.310
15505W        W83899  35.389   1.767  14.869
15506W        W83900  13.343  19.887   5.235
15507W        W83901  26.861  25.040  11.180
15508W        W83902  22.991  29.593  13.148
15509W        W83903  16.244   3.262   4.113
15510W        W83904   8.486  41.811  14.347
15511W        W83905   8.653   9.169  12.031
15512W        W83906  37.002  11.733   0.391
15513W        W83907   8.643   8.348  14.888
15514W        W83908  39.886  23.971   2.267
15515W        W83909  35.491  32.614   3.339
15516W        W83910  41.894  22.530   0.871
15517W        W83911  25.894  29.620   3.802
15518W        W83912  22.258  39.035   1.716
15519W        W83913  30.671  29.589   4.778
15520W        W83914   0.202  37.121   0.909
15521W        W83915  26.738  28.932  13.057
15522W        W83916  42.105  19.042   2.730
15523W        W83917  16.170  20.251   2.911
15524W        W83918  26.550  43.986  12.534
15525W        W83919  12.195  20.769   2.299
15526W        W83920  35.493  31.165  11.093
15527W        W83921   2.740  22.697  10.826
15528W        W83922  12.377  11.373   4.019
15529W        W83923  23.638  36.881  11.623
15530W        W83924   2.749  34.681  12.996
15531W        W83925   5.419  27.000  13.460
15532W        W83926   7.736   9.417  14.928
15533W        W83927  19.196   3.488  14.820
15534W        W83928   1.260  27.156  10.753
15535W        W83929  14.611  22.553   2.361
15536W        W83930  33.118  29.696  13.741
15537W        W83931  40.133  44.954  13.540
15538W        W83932  13.239  13.177  14.401
15539W        W83933  35.481  23.683   3.131
15540W        W83934   0.824  16.372   3.033
15541W        W83935  34.673  24.211  11.517
15542W        W83936   3.185   1.560   3.427
15543W        W83937  19.845   2.236  14.800
15544W        W83938  38.028  34.236  11.086
15545W        W83939   9.150  24.253  12.463
15546W        W83940  26.829   9.251   9.949
15547W        W83941  15.181   4.664  12.491
15548W        W83942  10.330  15.606  14.505
15549W        W83943   9.266   3.014  10.525
15550W        W83944  42.354  10.372  12.015
15551W        W83945  28.466  27.981   3.641
15552W        W83946  42.447   8.277  14.887
15553W        W83947  10.819  42.473  12.112
15554W        W83948  18.103   9.855   3.716
15555W        W83949   4.173  27.688   0.770
15556W        W83950   0.239  21.669  11.729
15557W        W83951  38.270  10.261   2.709
15558W        W83952  30.907  29.847  13.593
15559W        W83953  22.083  30.701  11.219
15560W        W83954   2.035  13.096  13.763
15561W        W83955  20.819   7.126  11.926
15562W        W83956  13.344  20.129   4.366
15563W        W83957   1.685  40.910   2.743
15564W        W83958   7.169   6.927  13.769
15565W        W83959  40.668  41.905  11.854
15566W        W83960   5.262  24.574   1.782
15567W        W83961   3.607  42.908   2.563
15568W        W83962  36.925  27.205   3.324
15569W        W83963  32.158  23.802  13.798
15570W        W83964   3.081  10.177  11.528
15571W        W83965  29.213   7.887   1.801
15572W        W83966  22.093   8.923  10.641
15573W        W83967   9.821  35.557  13.890
15574W        W83968  11.327  21.161  12.055
15575W        W83969  35.253   8.125   0.500
15576W        W83970  41.582  24.896   4.158
15577W        W83971  16.398   0.230   4.723
15578W        W83972   7.147  19.088  12.300
15579W        W83973   4.346   4.777   0.734
15580W        W83974  14.585  15.171   2.461
15581W        W83975   3.634  44.923  13.868
15582W        W83976  30.645   7.883  14.742
15583W        W83977   1.883   7.729   0.319
15584W        W83978  29.834  29.695   3.612
15585W        W83979   4.446  38.879  12.062
15586W        W83980  36.096   6.154   1.708
15587W        W83981  10.314  36.541   3.175
15588W        W83982   6.641  32.085  13.542
15589W        W83983   6.702  44.341   4.919
15590W        W83984   8.331   6.127  10.283
15591W        W83985  40.636  10.344   1.213
15592W        W83986   4.268   4.176  14.826
15593W        W83987  19.589  24.154   1.119
15594W        W83988  17.801  18.642  13.793
15595W        W83989  12.786  39.881  13.662
15596W        W83990  10.692  34.530  13.034
15597W        W83991  12.035  13.726  11.619
15598W        W83992  22.545  31.867   0.210
15599W        W83993  18.201  15.812  14.848
15600W        W83994  35.037   2.448   1.424
15601W        W83995   0.226   4.901   3.682
15602W        W83996  36.951  41.253  13.767
15603W        W83997   7.147  16.203   3.873
15604W        W83998  37.856  29.585   2.565
15605W        W83999  19.863  23.130   3.263
15606W        W84000  41.253  30.114  11.228
15607W        W84001   8.955  36.985   2.733
15608W        W84002  33.320  14.234  14.963
15609W        W84003   9.612  35.223  12.914
15610W        W84004  39.863  40.559   2.323
15611W        W84005  34.835  43.898  12.135
15612W        W84006  25.310  28.215  11.307
15613W        W84007  28.222   6.822  12.381
15614W        W84008  40.821  18.108   1.456
15615W        W84009   9.916   2.898   0.382
15616W        W84010  28.278  23.383  10.696
15617W        W84011   4.324  14.308   1.780
15618W        W84012  14.148  37.374   1.444
15619W        W84013  23.548  11.885   0.260
15620W        W84014  12.313   4.772   3.193
15621W        W84015  22.026  38.874  14.000
15622W        W84016   5.674  26.246  11.631
15623W        W84017  22.065   5.938   1.635
15624W        W84018  34.826  24.341  11.996
15625W        W84019   5.676  15.909  14.349
15626W        W84020  23.730  37.124  12.076
15627W        W84021  16.024  28.613   2.213
15628W        W84022  31.002   3.394   0.263
15629W        W84023   6.205  31.515  12.858
15630W        W84024   1.689  13.788   0.013
15631W        W84025  43.421  23.056  13.931
15632W        W84026  34.236  44.692  12.075
15633W        W84027  36.299  18.146  14.416
15634W        W84028  11.412  41.931  11.574
15635W        W84029  24.372  44.856  10.712
15636W        W84030  38.065  29.554  14.373
15637W        W84031  42.310   3.146  10.657
15638W        W84032  44.793  14.683  12.515
15639W        W84033   1.301  35.638  14.910
15640W        W84034  21.253  24.168   2.585
15641W        W84035  37.656  16.553   1.838
15642W        W84036   7.852  34.604   2.416
15643W        W84037  39.782   0.003   1.282
15644W        W84038  31.360  28.175  10.743
15645W        W84039   6.488  30.409   3.340
15646W        W84040   7.933  27.875  11.081
15647W        W84041  18.040   3.158  14.449
15648W        W84042   6.432  31.318   4.660
15649W        W84043  27.518  12.891   0.973
15650W        W84044  42.589  23.973  11.231
15651W        W84045  27.583  10.698   2.333
15652W        W84046   5.619  14.567   3.316
15653W        W84047  41.269  19.247   0.744
15654W        W84048  11.824  37.590   1.708
15655W        W84049  32.550  34.540   0.331
15656W        W84050  16.546  33.105  12.857
15657W        W84051  20.510  22.016  11.368
15658W        W84052  40.298  40.191   4.991
15659W        W84053  16.132  28.506   0.734
15660W        W84054   7.190  15.316   4.702
15661W        W84055  12.689  18.280   1.309
15662W        W84056  28.580   3.845  13.122
15663W        W84057  23.159  12.507  11.902
15664W        W84058  33.883  16.318   5.119
15665W        W84059  40.866  12.902  10.569
15666W        W84060   9.716  24.749   2.732
15667W        W84061  41.185  41.271  11.642
15668W        W84062  43.531  37.464   2.227
15669W        W84063   4.261  25.160   2.174
15670W        W84064  34.977   7.512  13.987
15671W        W84065  42.800  17.005   1.465
15672W        W84066   0.287  20.652  13.923
15673W        W84067   0.673  35.887  13.982
15674W        W84068  41.829  35.628   0.190
15675W        W84069  11.439  12.369   4.037
15676W        W84070   9.886  31.651  12.624
15677W        W84071  36.150   1.731  14.442
15678W        W84072  28.932  28.678   2.395
15679W        W84073  21.203  18.718  14.937
15680W        W84074   2.750  41.278  13.642
15681W        W84075   1.264  26.495   0.916
15682W        W84076   0.885  25.934  12.501
15683W        W84077  40.755  42.766  14.977
15684W        W84078  10.243  32.149   3.299
15685W        W84079  18.217  20.127   0.667
15686W        W84080  38.640  17.271  13.656
15687W        W84081  32.443  34.106  10.932
15688W        W84082   2.784  28.647   2.860
15689W        W84083   4.277  18.282   4.083
15690W        W84084  25.124  13.590   0.546
15691W        W84085  34.432   6.666  13.801
15692W        W84086  17.870   1.145   0.784
15693W        W84087   4.943  27.251   2.184
15694W        W84088  32.169  41.282   4.068
15695W        W84089   6.210   0.474   3.224
15696W        W84090  37.275  24.615  10.588
15697W        W84091  19.112  17.407   1.215
15698W        W84092   2.237  13.296   1.244
15699W        W84093  35.652  32.946   0.498
15700W        W84094   3.491  35.355   2.786
15701W        W84095  32.506  15.814  13.490
15702W        W84096  32.878  41.408   0.834
15703W        W84097  38.413   3.136   3.896
15704W        W84098  37.510  44.187  14.808
15705W        W84099  22.550  19.883   5.163
15706W        W84100   5.131  32.987   9.861
15707W        W84101   4.215  33.804  11.036
15708W        W84102  34.036   9.749  14.924
15709W        W84103  30.505  25.237  12.553
15710W        W84104  15.720  24.946   4.638
15711W        W84105  37.386  17.000   1.268
15712W        W84106  18.240  11.556   3.605
15713W        W84107  28.694  26.312   4.513
15714W        W84108   2.470   5.877  13.643
15715W        W84109  14.322  26.347  14.726
15716W        W84110  24.976   9.822  13.360
15717W        W84111   3.903  30.675   0.238
15718W        W84112  43.507   7.379   1.509
15719W        W84113  44.991  37.772   0.897
15720W        W84114   2.275  24.555  14.453
15721W        W84115  18.699  28.465  12.435
15722W        W84116  33.515  22.667   1.391
15723W        W84117   7.483  24.081  13.068
15724W        W84118  13.291  30.929  10.907
15725W        W84119  13.790  12.261  12.846
15726W        W84120  38.540  32.041   5.191
15727W        W84121  32.449  41.771   3.860
15728W        W84122  31.723  40.771  11.925
15729W        W84123  44.356  21.485   1.305
15730W        W84124  42.282  31.055   0.322
15731W        W84125   9.537  43.354  11.122
15732W        W84126  40.003  11.305  13.763
15733W        W84127  39.996  11.452  10.680
15734W        W84128  30.448  40.636  13.885
15735W        W84129  39.265  13.087   3.581
15736W        W84130  34.148  31.301   0.255
15737W        W84131  14.144   2.959  11.266
15738W        W84132  44.605  42.022  11.215
15739W        W84133  38.461  25.996   1.773
15740W        W84134  23.658  43.858   3.396
15741W        W84135  40.965  18.526  12.000
15742W        W84136  10.367   8.822   0.562
15743W        W84137  27.200  38.381  10.469
15744W        W84138  34.504  42.551  14.073
15745W        W84139  33.002   8.368  10.903
15746W        W84140  21.984   8.904  11.414
15747W        W84141  29.587  26.799  11.159
15748W        W84142  30.580  27.356  14.743
15749W        W84143  43.404  18.382   0.400
15750W        W84144  31.893  35.983  10.973
15751W        W84145   5.525   7.233   4.855
15752W        W84146  11.785  20.967   5.075
15753W        W84147  36.482   5.699   4.195
15754W        W84148  11.761  28.367   4.105
15755W        W84149   9.475  11.652   3.797
15756W        W84150  44.496  17.471   1.435
15757W        W84151  19.441  21.179  13.914
15758W        W84152  15.976  21.525  12.822
15759W        W84153  40.360   6.391  13.527
15760W        W84154  13.189  24.450  10.659
15761W        W84155  16.815  35.189   1.885
15762W        W84156  35.038   9.826  14.377
15763W        W84157  44.950   4.157  12.310
15764W        W84158  27.876  38.357  13.966
15765W        W84159  43.847  16.782   1.277
15766W        W84160   4.881  44.204   0.788
15767W        W84161   3.949  43.995   3.136
15768W        W84162  20.844  21.664   2.487
15769W        W84163  14.801   1.200  12.968
15770W        W84164  13.352   0.994  14.268
15771W        W84165  34.206  38.803   1.342
15772W        W84166  37.076  31.422  14.931
15773W        W84167  32.759  44.290   4.884
15774W        W84168  42.484  20.695  14.738
15775W        W84169  40.608  14.204  10.801
15776W        W84170  43.230   7.173  11.231
15777W        W84171  35.000  41.810  10.649
15778W        W84172  19.147  13.993  13.194
15779W        W84173  20.564   3.834   0.003
15780W        W84174   0.611  33.765   0.850
15781W        W84175   3.871  40.335  11.313
15782W        W84176  35.464  17.173  11.031
15783W        W84177   8.132   8.902  14.208
15784W        W84178  30.038  39.093  14.724
15785W        W84179  11.200  15.564  11.945
15786W        W84180   8.936  12.310  11.518
15787W        W84181  37.363  33.908  10.655
15788W        W84182  31.155  27.147   1.492
15789W        W84183   8.786  25.168   0.744
15790W        W84184  32.865  34.528   4.043
15791W        W84185  17.502  44.074  12.171
15792W        W84186   3.877  14.063   1.570
15793W        W84187  33.515  24.262   0.351
15794W        W84188  23.017  35.912   1.680
15795W        W84189   7.237  37.964  12.972
15796W        W84190  35.096  17.232  14.723
15797W        W84191  43.769  40.869  14.018
15798W        W84192  26.758  22.556  13.907
15799W        W84193   0.406  24.215   3.335
15800W        W84194  42.032  25.231   1.415
15801W        W84195  38.382   3.425   3.259
15802W        W84196  23.600  44.759  10.249
15803W        W84197  30.712  14.631  14.309
15804W        W84198  15.267  27.802  11.478
15805W        W84199  20.981  14.375   4.125
15806W        W84200  23.190   5.188   3.792
15807W        W84201  41.457   9.215   1.280
15808W        W84202  44.254  44.776   2.715
15809W        W84203  22.136  41.475   1.918
15810W        W84204  12.459   7.430   4.157
15811W        W84205   1.391  15.667  12.426
15812W        W84206  17.120  39.348   1.833
15813W        W84207   9.077  14.483   0.316
15814W        W84208  41.199  36.548  11.121
15815W        W84209  20.041   4.854   4.560
15816W        W84210  13.892  37.824  13.478
15817W        W84211   8.113   1.845  10.842
15818W        W84212   4.411   9.982   1.228
15819W        W84213   2.657  38.852  14.131
15820W        W84214  16.081   8.651   0.913
15821W        W84215  32.555  19.288  10.683
15822W        W84216  15.072  30.365  14.228
15823W        W84217   7.775  21.545  14.073
15824W        W84218  25.626  17.100   2.726
15825W        W84219  13.423  26.596   0.748
15826W        W84220  32.713  18.935  13.535
15827W        W84221  37.666  22.376   4.141
15828W        W84222  18.991  32.156  13.649
15829W        W84223  27.249   3.114   0.014
15830W        W84224   4.645  25.414  10.557
15831W        W84225  13.776  38.432   4.686
15832W        W84226  27.744  33.240  13.551
15833W        W84227  23.931  10.172  13.050
15834W        W84228   7.233  14.101   1.311
15835W        W84229   5.653  44.285  12.505
15836W        W84230  39.149  21.325   2.812
15837W        W84231   0.869  44.587   1.830
15838W        W84232   8.594  13.278  13.912
15839W        W84233  12.387   6.302   4.923
15840W        W84234   7.931  42.331   0.969
15841W        W84235  31.315  24.339  11.166
15842W        W84236  22.469  27.467  10.670
15843W        W84237   4.033  19.111   1.203
15844W        W84238  26.018   3.513   2.303
15845W        W84239  43.550  41.480   0.747
15846W        W84240  28.707  33.617   2.223
15847W        W84241  42.978  23.195  12.505
15848W        W84242  34.022  21.104  10.559
15849W        W84243  12.115   8.955   4.044
15850W        W84244  25.277  41.165   3.205
15851W        W84245  38.096  44.152   2.796
15852W        W84246  33.132  39.551   1.788
15853W        W84247  21.112  35.913  10.836
15854W        W84248   6.794  37.800   2.101
15855W        W84249  38.328  34.002  11.968
15856W        W84250   2.628   6.344  12.587
15857W        W84251  43.923   5.392  13.590
15858W        W84252   6.421  33.637   3.051
15859W        W84253   1.022  35.459   1.243
15860W        W84254   9.037  23.529  12.119
15861W        W84255   1.575  28.949   3.898
15862W        W84256  14.161  11.377  14.023
15863W        W84257  18.570   1.690  12.407
15864W        W84258  22.696   6.512   2.871
15865W        W84259  28.482  41.637  10.636
15866W        W84260  39.618  13.775  13.572
15867W        W84261   0.330  32.091  10.941
15868W        W84262  10.008  11.567  14.529
15869W        W84263  22.093  28.919  10.924
15870W        W84264   3.978   1.351   1.246
15871W        W84265  17.130  24.851  11.565
15872W        W84266   5.286   5.666  12.063
15873W        W84267  35.015  14.914   1.963
15874W        W84268  25.148  26.048  10.728
15875W        W84269  28.918  29.583   0.418
15876W        W84270  22.296  22.044   2.336
15877W        W84271  18.758  29.985   4.612
15878W        W84272   9.269  34.367   3.421
15879W        W84273  33.144   5.657   2.338
15880W        W84274   7.475  17.358  11.265
15881W        W84275   8.273  21.126  14.330
15882W        W84276  37.826   2.730  12.802
15883W        W84277   4.803  29.378   1.023
15884W        W84278   0.464   7.338   0.304
15885W        W84279  36.245   1.765   1.492
15886W        W84280  21.756  35.314  13.395
15887W        W84281  38.905  38.564   4.246
15888W        W84282  36.786  22.985   4.005
15889W        W84283  11.668  40.541  13.300
15890W        W84284   8.799   9.394   5.086
15891W        W84285  15.301  40.921  11.507
15892W        W84286  17.295  30.506  11.208
15893W        W84287   0.943   4.698   0.274
15894W        W84288  22.520   8.208  11.840
15895W        W84289  19.832  38.170   5.012
15896W        W84290  31.000  42.952  14.824
15897W        W84291   0.826  40.051  10.980
15898W        W84292  27.999  15.809   2.289
15899W        W84293  14.527  33.025  14.339
15900W        W84294  27.752   7.789   0.716
15901W        W84295   7.891   8.694  10.826
15902W        W84296   7.708  20.026   0.482
15903W        W84297  21.680  41.553   0.984
15904W        W84298   9.756   6.962   3.589
15905W        W84299  32.948  11.837  11.630
15906W        W84300   1.121  14.545  10.081
15907W        W84301  32.894  43.395   4.082
15908W        W84302  30.517   8.380   2.631
15909W        W84303  30.547  29.424  12.240
15910W        W84304  11.650  19.455   4.175
15911W        W84305   1.755   5.822   3.233
15912W        W84306  33.959   6.489  11.893
15913W        W84307  15.810  20.815  13.512
15914W        W84308  15.626  32.360  13.421
15915W        W84309  40.626  10.253   5.112
15916W        W84310  16.673  11.317   1.057
15917W        W84311   0.388  21.264   4.951
15918W        W84312  27.907  20.180  10.417
15919W        W84313  21.644  31.825   1.736
15920W        W84314  29.210   8.810  10.725
15921W        W84315  24.172  17.322  14.371
15922W        W84316  16.679  24.351  11.145
15923W        W84317  37.907  44.994  14.208
15924W        W84318   8.322  26.487  10.494
15925W        W84319   7.458  11.365   3.202
15926W        W84320  16.435   1.123   0.266
15927W        W84321  22.474  32.358   0.252
15928W        W84322  37.298  23.620   2.780
15929W        W84323  29.999  21.497  12.529
15930W        W84324  32.125  41.538   4.524
15931W        W84325  17.005  20.707   0.464
15932W        W84326   3.877  31.486  10.485
15933W        W84327  30.354   6.962   2.719
15934W        W84328  38.023  26.973   1.162
15935W        W84329  27.800  22.582   1.742
15936W        W84330  29.446   6.625   3.153
15937W        W84331   2.912  29.137   3.773
15938W        W84332  14.755   0.761  10.769
15939W        W84333  20.820  42.922   0.205
15940W        W84334  36.794  23.717  14.713
15941W        W84335  14.676  38.506   0.511
15942W        W84336  19.734  24.405  11.469
15943W        W84337  30.351  34.606   4.070
15944W        W84338  22.110  28.608   0.466
15945W        W84339  33.069   7.581  11.480
15946W        W84340  19.308  36.058   3.681
15947W        W84341  19.573  12.776   1.749
15948W        W84342  10.786  34.425   4.960
15949W        W84343  31.120  34.850   3.837
15950W        W84344  22.044  13.274  11.771
15951W        W84345  10.935  14.769  10.994
15952W        W84346  21.843   6.270   2.704
15953W        W84347  23.468  16.875   2.381
15954W        W84348  15.562  33.128   2.319
15955W        W84349  28.162  24.685   4.161
15956W        W84350  24.562  38.903  11.109
15957W        W84351  43.822  13.340  11.167
15958W        W84352  28.681  10.162  11.073
15959W        W84353  10.938  33.943  10.528
15960W        W84354  23.481  23.832   0.868
15961W        W84355  24.077  34.385  11.899
15962W        W84356   4.991  14.271   1.211
15963W        W84357   0.665   0.956  10.687
15964W        W84358   8.921  20.978   0.453
15965W        W84359  34.465  22.628   0.688
15966W        W84360  36.962   1.475  14.873
15967W        W84361  40.757  26.888   1.354
15968W        W84362  32.895  13.398   0.914
15969W        W84363   1.718  28.252  13.662
15970W        W84364  15.242  30.798   0.127
15971W        W84365   2.432   7.234  13.077
15972W        W84366  14.799  38.283   2.713
15973W        W84367   2.481   4.277   4.714
15974W        W84368  24.193  32.888   4.210
15975W        W84369   0.260   9.081  12.093
15976W        W84370   2.672  20.627  14.854
15977W        W84371  18.045  38.780  11.204
15978W        W84372  11.819   8.817   3.166
15979W        W84373  38.661  42.007   2.699
15980W        W84374  37.499   7.432  14.841
15981W        W84375  36.647  13.887   2.800
15982W        W84376  36.039  34.369  10.370
15983W        W84377  31.450  40.279   3.640
15984W        W84378   0.001  23.049  14.785
15985W        W84379  10.102  17.601  14.217
15986W        W84380  19.234  24.972   4.768
15987W        W84381  26.011  29.146   0.706
15988W        W84382  44.370  24.193   4.510
15989W        W84383  29.343  31.394   1.668
15990W        W84384   9.840  33.643  11.689
15991W        W84385  43.150  43.737  13.542
15992W        W84386  29.034  40.843  13.969
15993W        W84387  38.512   6.409   4.478
15994W        W84388  27.051  29.210   3.935
15995W        W84389  17.244  39.863  13.916
15996W        W84390  11.388   4.764  10.763
15997W        W84391   1.089  28.061   2.839
15998W        W84392  39.037  29.064   1.283
15999W        W84393  20.748  20.569  12.910
16000W        W84394   2.267   3.223  11.589
16001W        W84395   0.958  11.138   0.285
16002W        W84396  30.730  10.199   4.644
16003W        W84397  24.179  34.592  14.405
16004W        W84398  12.577  37.012   4.147
16005W        W84399  15.562  41.803   2.734
16006W        W84400  43.923  23.946   0.386
16007W        W84401   0.023  19.508  12.897
16008W        W84402  36.572  36.054  14.103
16009W        W84403  43.983  30.883   3.116
16010W        W84404   9.159  21.476   0.249
16011W        W84405  23.167  35.832   3.170
16012W        W84406  30.555  28.881  10.954
16013W        W84407  41.092  15.726  13.043
16014W        W84408  29.718  20.709   3.963
16015W        W84409  29.950  23.133  13.823
16016W        W84410   4.366   4.875  14.070
16017W        W84411  23.739  39.881   2.740
16018W        W84412   7.778   9.191   1.853
16019W        W84413  24.759  17.503  13.916
16020W        W84414  34.918  23.425   1.390
16021W        W84415  10.641  23.481   0.813
16022W        W84416  31.950  20.601  13.003
16023W        W84417  39.511  24.968  12.331
16024W        W84418   3.896  16.097   5.411
16025W        W84419   0.861  22.602   2.437
16026W        W84420  31.844  43.744   2.710
16027W        W84421  30.629   0.293  14.705
16028W        W84422  41.936   5.149  13.432
16029W        W84423  36.431  12.221  14.699
16030W        W84424   5.386  18.741  12.088
16031W        W84425  35.279   2.877   2.689
16032W        W84426  38.929  34.985   0.962
16033W        W84427  21.348   6.234   2.784
16034W        W84428  29.610  32.888   1.190
16035W        W84429  12.422  16.031  12.314
16036W        W84430   0.972  44.831  14.893
16037W        W84431  15.333  12.904  12.494
16038W        W84432  37.736  22.782  11.738
16039W        W84433  23.578  38.390   3.777
16040W        W84434  31.586   8.779  12.929
16041W        W84435  38.069  12.207  13.071
16042W        W84436   7.567   7.864  12.993
16043W        W84437  31.322  12.364   4.702
16044W        W84438  26.391   2.924   3.819
16045W        W84439  25.656  19.115  12.359
16046W        W84440   9.744  21.549  12.452
16047W        W84441  39.558  19.874  14.602
16048W        W84442   0.435  36.243   0.855
16049W        W84443  16.081  14.863  12.588
16050W        W84444  26.669   5.230  10.754
16051W        W84445  18.554  19.877   2.826
16052W        W84446  31.565  31.860  11.195
16053W        W84447  10.662  21.871  11.296
16054W        W84448   1.514   7.247  11.175
16055W        W84449  28.327  26.118  14.476
16056W        W84450   4.654  29.179  13.102
16057W        W84451  25.091  15.010  14.940
16058W        W84452  29.594  35.547   3.375
16059W        W84453  15.609  14.432  13.092
16060W        W84454  34.427  14.312  13.981
16061W        W84455  32.093  29.214   1.335
16062W        W84456  43.340  29.026   1.325
16063W        W84457  34.908  42.792   2.194
16064W        W84458  38.069  37.578  12.455
16065W        W84459  42.550  19.322   1.258
16066W        W84460  29.581  19.745   1.096
16067W        W84461  40.516   9.910   4.351
16068W        W84462   6.354   4.237  10.908
16069W        W84463  42.874  12.780   1.783
16070W        W84464  21.188  42.536   0.185
16071W        W84465  42.240  11.065   0.539
16072W        W84466  34.895  28.590   2.751
16073W        W84467  20.220  36.268  12.806
16074W        W84468  40.281  44.482  11.451
16075W        W84469  13.227   5.924   0.539
16076W        W84470  36.412  31.651   1.696
16077W        W84471  37.411  39.799   3.106
16078W        W84472   6.100  23.125   0.868
16079W        W84473   4.520  44.912   1.216
16080W        W84474  11.363  21.557   0.177
16081W        W84475  15.295   0.602  11.722
16082W        W84476  25.777  17.100  11.477
16083W        W84477  16.771   5.342  14.972
16084W        W84478  30.190   6.689  13.443
16085W        W84479  22.727  40.881   0.454
16086W        W84480  40.582  17.553  12.859
16087W        W84481  15.318  36.360   3.664
16088W        W84482  33.268  32.224   4.087
16089W        W84483  38.973  12.875   2.169
16090W        W84484  18.881  17.885  12.036
16091W        W84485  12.084  33.360   0.752
16092W        W84486  37.209  44.476   1.584
16093W        W84487   4.498  44.736  11.528
16094W        W84488  15.666  20.498   3.207
16095W        W84489  38.080   1.796   3.721
16096W        W84490  35.143  21.070   4.589
16097W        W84491  15.293  39.361   2.100
16098W        W84492  27.092  36.448  13.484
16099W        W84493  19.286   7.925   4.151
16100W        W84494  33.648  16.598   1.375
16101W        W84495   6.200  19.299  14.899
16102W        W84496  24.605  39.519   3.759
16103W        W84497  18.411  34.570   0.955
16104W        W84498  27.273  12.697  11.155
16105W        W84499  36.072  11.139   1.401
16106W        W84500  20.068   5.272  10.570
16107W        W84501  12.371   7.691   3.628
16108W        W84502  20.295  26.885   3.603
16109W        W84503   6.430  36.927  11.924
16110W        W84504  24.881   4.866  11.117
16111W        W84505  13.817   9.595   2.751
16112W        W84506  43.460  10.183   4.747
16113W        W84507  32.380  42.741  13.300
16114W        W84508   2.900   8.965  14.309
16115W        W84509  13.301  38.189   3.755
16116W        W84510  27.558  17.049  11.641
16117W        W84511  19.165  16.156   1.864
16118W        W84512  31.862   6.254  14.918
16119W        W84513   8.787  34.042  14.799
16120W        W84514  28.689  40.139   2.377
16121W        W84515  13.421   5.336  10.629
16122W        W84516  12.709  11.465   0.824
16123W        W84517  40.530  41.970   2.304
16124W        W84518  20.147  19.794  14.059
16125W        W84519  42.918  25.499  13.015
16126W        W84520  38.946  10.223   1.733
16127W        W84521  37.254   4.835  13.888
16128W        W84522  32.686  29.941  11.173
16129W        W84523   5.111  16.122   2.446
16130W        W84524  43.065  30.404   3.121
16131W        W84525  23.027  15.808  12.513
16132W        W84526  25.499  42.569  12.063
16133W        W84527  31.193  16.008   1.428
16134W        W84528  19.469  21.605  10.641
16135W        W84529  40.051  18.449   2.839
16136W        W84530   7.302  39.101   2.770
16137W        W84531  24.191  24.004   2.014
16138W        W84532   6.767   7.356   0.465
16139W        W84533  25.072  29.909  14.400
16140W        W84534   3.225  11.984   4.138
16141W        W84535  24.644  40.217  11.608
16142W        W84536  12.179  27.705  10.637
16143W        W84537  33.417  12.606  14.370
16144W        W84538   5.466  35.029   2.520
16145W        W84539  13.638  43.498   1.398
16146W        W84540  19.129  37.737   3.324
16147W        W84541   3.944   7.904  10.750
16148W        W84542  31.112  39.746   4.298
16149W        W84543  16.733  28.867  14.248
16150W        W84544   7.941  29.140  11.611
16151W        W84545  25.176  24.731  14.231
16152W        W84546  31.134  12.255   3.991
16153W        W84547   1.287  12.852  14.202
16154W        W84548  36.299  11.772   4.228
16155W        W84549  23.063  42.220   2.302
16156W        W84550   6.985   0.021  11.875
16157W        W84551   1.030  40.542   1.975
16158W        W84552  19.126  20.901  10.083
16159W        W84553  13.052  15.200   4.130
16160W        W84554   4.939  41.052  11.863
16161W        W84555  12.721  42.398  10.952
16162W        W84556  30.799  22.735   1.885
16163W        W84557   0.237  36.944  13.334
16164W        W84558   4.754   2.448   1.861
16165W        W84559   5.673  17.410  14.048
16166W        W84560  29.876  26.966   1.880
16167W        W84561  43.485   6.171   4.563
16168W        W84562  20.841  18.034   1.367
16169W        W84563  34.024  29.889  12.826
16170W        W84564   0.318  19.734   0.363
16171W        W84565  27.034  19.048  10.726
16172W        W84566  17.153  31.488   4.321
16173W        W84567   7.283  44.860  13.008
16174W        W84568  18.484   3.238  12.587
16175W        W84569  15.859  37.974  13.358
16176W        W84570  15.313  18.094  13.724
16177W        W84571  22.729  21.576  11.651
16178W        W84572  41.780  10.103   0.993
16179W        W84573  25.707  17.812  12.555
16180W        W84574  33.131  12.688   0.442
16181W        W84575  30.438  17.255   4.607
16182W        W84576  19.795  35.426  13.115
16183W        W84577  11.025   3.468  10.672
16184W        W84578  22.314  41.898  10.663
16185W        W84579   1.398  37.041  10.412
16186W        W84580  20.008  34.387   1.865
16187W        W84581   2.860   0.522   2.619
16188W        W84582  39.557  32.153   1.000
16189W        W84583  37.507   3.385  14.006
16190W        W84584  15.214  21.691   3.656
16191W        W84585  16.578   3.063  10.745
16192W        W84586  27.984  16.660  11.649
16193W        W84587  14.985  20.491   2.299
16194W        W84588  27.702  40.993  14.395
16195W        W84589  17.736  32.044  14.416
16196W        W84590  28.225  42.880   1.930
16197W        W84591  13.107  20.236  11.420
16198W        W84592  31.127  41.357   3.397
16199W        W84593  44.807   5.244   3.838
16200W        W84594  37.685  29.179  11.615
16201W        W84595   8.977   5.985   3.588
16202W        W84596   5.875  14.586  13.076
16203W        W84597  20.995  12.867  14.796
16204W        W84598   1.006  24.825  11.785
16205W        W84599  36.382  13.215  14.582
16206W        W84600  24.247  22.022   4.389
16207W        W84601  26.114   0.356  14.831
16208W        W84602  41.404  27.533   4.652
16209W        W84603  17.475  39.894  12.467
16210W        W84604  23.267  27.535  13.720
16211W        W84605  27.651  44.021  12.986
16212W        W84606  31.055  13.665   3.400
16213W        W84607  17.560  41.077   4.091
16214W        W84608  32.698  15.705   1.475
16215W        W84609  41.442  39.161  12.592
16216W        W84610  40.819  12.816  12.604
16217W        W84611  28.894   7.351  10.793
16218W        W84612  28.434   7.380   1.815
16219W        W84613  21.065  11.944   3.963
16220W        W84614  12.563  29.024  14.967
16221W        W84615  32.635  40.660   2.745
16222W        W84616   2.295  42.759   1.249
16223W        W84617  43.954  28.388   3.598
16224W        W84618   5.236  22.752   1.335
16225W        W84619  35.411  34.083  10.496
16226W        W84620   4.573  35.298  14.226
16227W        W84621  15.257   2.468  14.530
16228W        W84622  36.900  34.204   1.162
16229W        W84623   0.470   8.286   3.620
16230W        W84624   4.135   9.070  13.996
16231W        W84625   0.560  31.220  14.715
16232W        W84626  42.764   8.799  11.166
16233W        W84627  41.618  39.287   2.917
16234W        W84628  21.938  10.577  12.854
16235W        W84629   3.524  33.917   4.446
16236W        W84630  25.368  43.938   2.147
16237W        W84631  28.180  38.373   0.283
16238W        W84632  11.542  35.568   0.857
16239W        W84633  28.032  29.008  13.960
16240W        W84634   6.081  12.405  10.685
16241W        W84635  32.986  10.603   2.338
16242W        W84636  12.782  22.962  14.408
16243W        W84637  42.867  33.602  10.428
16244W        W84638   4.443  35.481  14.701
16245W        W84639  15.608  27.110   0.903
16246W        W84640  35.172   2.863  11.584
16247W        W84641  20.892   4.619  11.688
16248W        W84642   3.356   1.383   2.448
16249W        W84643  42.227  44.833  14.339
16250W        W84644  27.059  40.952   0.841
16251W        W84645  13.780  24.064  11.746
16252W        W84646  12.782  25.453  14.938
16253W        W84647   4.856   6.049   4.677
16254W        W84648  24.560  34.196   1.000
16255W        W84649  35.006   2.015   4.311
16256W        W84650  42.826  16.093  13.339
16257W        W84651  28.985  29.475   3.390
16258W        W84652  31.148   7.830   1.048
16259W        W84653  36.769  15.793   0.955
16260W        W84654   1.411  40.180  11.951
16261W        W84655  41.456  44.928   3.887
16262W        W84656  22.285   4.049  12.087
16263W        W84657   8.220   2.369   5.032
16264W        W84658  27.937  38.353   4.852
16265W        W84659   3.017   8.309  14.878
16266W        W84660  39.114  18.691   4.625
16267W        W84661  32.315  23.049  14.023
16268W        W84662   8.689  15.102   3.770
16269W        W84663  21.398   6.921   1.486
16270W        W84664  36.896  25.994   2.712
16271W        W84665   8.700  26.629  10.830
16272W        W84666  25.090  43.479   1.195
16273W        W84667  28.700  31.477   0.386
16274W        W84668  25.519  35.078   1.329
16275W        W84669  23.764  21.667  11.608
16276W        W84670  30.071  35.876  12.533
16277W        W84671  36.345   7.349   0.907
16278W        W84672  35.097  38.454  14.524
16279W        W84673  13.131  40.549  14.276
16280W        W84674  25.998  31.448  11.153
16281W        W84675  44.717  31.047  14.447
16282W        W84676   6.791  39.007   1.978
16283W        W84677   0.758  11.073  12.371
16284W        W84678  29.165  33.704   4.633
16285W        W84679  35.216  23.518  14.376
16286W        W84680   9.269  41.812  11.708
16287W        W84681  35.440  25.053   1.695
16288W        W84682  39.105  28.613   3.811
16289W        W84683   9.620  27.960  12.064
16290W        W84684  32.116  14.791  14.667
16291W        W84685  36.964  35.494  12.441
16292W        W84686  32.114  34.995   3.866
16293W        W84687  11.890  18.447   1.700
16294W        W84688  18.312   2.446   4.177
16295W        W84689  31.606  27.231  10.743
16296W        W84690  44.223  39.464   3.257
16297W        W84691   2.932  21.027  11.163
16298W        W84692  33.061  36.640  13.489
16299W        W84693   8.104  31.090   3.001
16300W        W84694   8.371  25.265   2.671
16301W        W84695  33.862  20.469  12.477
16302W        W84696  11.693   9.241   4.041
16303W        W84697  35.465  37.639   0.774
16304W        W84698  36.450  43.256   0.456
16305W        W84699   5.822  24.609  12.787
16306W        W84700  31.550  31.015   2.884
16307W        W84701  15.638  39.341   4.539
16308W        W84702  10.589  42.096   1.936
16309W        W84703  21.934  26.064  13.942
16310W        W84704  32.102   9.659   2.679
16311W        W84705  12.609   8.354  11.032
16312W        W84706  17.442   6.260   9.863
16313W        W84707  26.232  43.768   3.632
16314W        W84708  16.145  20.200   1.957
16315W        W84709  38.497  35.615  14.985
16316W        W84710  32.121  10.962  12.771
16317W        W84711  23.602  20.768   0.683
16318W        W84712  39.335   2.742  14.338
16319W        W84713  34.874  14.965  11.475
16320W        W84714   4.750  26.704  11.995
16321W        W84715  18.727  29.391  10.339
16322W        W84716  34.883   0.390  14.333
16323W        W84717  15.058   1.526   3.382
16324W        W84718  34.926   9.229  14.935
16325W        W84719  34.043  40.493   4.329
16326W        W84720  17.476  40.135   1.390
16327W        W84721  23.282  16.642  13.807
16328W        W84722  15.065  19.920  11.155
16329W        W84723   1.042  32.147   4.809
16330W        W84724  29.263  43.166   3.675
16331W        W84725  29.085   1.789  12.032
16332W        W84726  18.960   3.454  14.307
16333W        W84727  33.445  37.187   3.806
16334W        W84728  31.348  32.151   2.778
16335W        W84729  28.070  21.638  10.962
16336W        W84730  31.833  19.782   1.371
16337W        W84731  29.395  18.506  14.002
16338W        W84732  44.074   1.414   1.720
16339W        W84733  21.576  16.172  11.611
16340W        W84734  42.544  31.045   0.779
16341W        W84735   7.270  34.409  13.382
16342W        W84736   3.773  39.490  13.430
16343W        W84737   2.796  12.345  12.594
16344W        W84738  39.312  42.829   1.701
16345W        W84739  14.385  18.116  12.026
16346W        W84740  31.370  27.447   1.009
16347W        W84741  27.679  29.448  14.863
16348W        W84742  15.106  17.246   2.183
16349W        W84743  17.231  10.372   2.428
16350W        W84744  21.197   3.395  12.704
16351W        W84745  34.534  21.264   1.385
16352W        W84746  12.909  19.777  12.655
16353W        W84747  21.237  18.863  11.990
16354W        W84748  29.409   3.523  12.048
16355W        W84749  37.421   5.028  12.874
16356W        W84750   4.582  29.033  14.385
16357W        W84751  44.790  22.785  12.099
16358W        W84752  20.106  20.954   1.006
16359W        W84753  44.816  25.647   1.402
16360W        W84754  25.559   1.369  12.141
16361W        W84755  21.052  40.858   1.319
16362W        W84756  34.463  39.136  13.821
16363W        W84757  29.479   1.364  11.042
16364W        W84758  20.009  36.052   1.366
16365W        W84759  43.457  25.730   4.863
16366W        W84760   5.496  39.368   1.752
16367W        W84761  26.753  29.047  14.954
16368W        W84762  42.345  19.699  14.329
16369W        W84763  40.957  42.488   0.455
16370W        W84764  44.885   6.759  13.051
16371W        W84765  24.135   5.824  14.062
16372W        W84766  26.014   5.619  12.587
16373W        W84767  37.095  11.148  11.985
16374W        W84768   6.547  32.939   0.932
16375W        W84769  18.127   8.143   0.316
16376W        W84770  13.067  26.884   3.276
16377W        W84771  16.549  10.420  11.340
16378W        W84772  15.781  43.429   3.121
16379W        W84773  16.340  11.346   2.248
16380W        W84774  22.795   2.807   4.244
16381W        W84775  44.721  43.776   0.216
16382W        W84776  26.595  42.353   1.794
16383W        W84777  20.008  33.912  12.902
16384W        W84778  28.917  25.688  12.080
16385W        W84779  44.500  43.843  12.026
16386W        W84780  24.652  11.697   3.096
16387W        W84781  26.912  27.985   1.434
16388W        W84782   9.384  17.274  12.918
16389W        W84783  15.159  19.636   2.139
16390W        W84784   3.366  42.078   4.323
16391W        W84785  29.509   5.126  11.212
16392W        W84786  34.620  38.483  14.290
16393W        W84787   4.813  10.523   2.286
16394W        W84788  38.909  27.179   4.626
16395W        W84789  31.680  25.051  13.046
16396W        W84790  38.138  31.931  14.241
16397W        W84791  39.920  11.003   0.619
16398W        W84792   1.665  22.060  11.663
16399W        W84793  27.178  21.755   4.030
16400W        W84794   1.811   0.116  14.621
16401W        W84795  16.959  40.479  11.134
16402W        W84796  16.802   0.366   1.714
16403W        W84797   5.710  23.684  13.449
16404W        W84798  16.720  37.362   2.694
16405W        W84799  17.484  17.088   2.742
16406W        W84800   5.818  37.213   3.366
16407W        W84801   8.206  16.343  11.244
16408W        W84802  15.837  31.423  12.164
16409W        W84803   4.901  33.281   4.958
16410W        W84804  22.060  35.889   4.071
16411W        W84805   1.987  12.280   4.571
16412W        W84806   0.219  22.068   1.799
16413W        W84807  25.699  27.586  14.348
16414W        W84808  24.949  13.235   4.708
16415W        W84809  17.728  31.833  13.908
16416W        W84810  42.931  32.616  10.725
16417W        W84811  40.390   1.992   3.727
16418W        W84812  30.978  18.536  11.554
16419W        W84813  30.903  37.324  13.406
16420W        W84814   1.396  43.853  11.389
16421W        W84815  44.981  18.753  12.532
16422W        W84816  31.468  25.121   3.581
16423W        W84817  10.906   7.695   3.980
16424W        W84818  31.490  16.329   4.175
16425W        W84819  38.851  34.610   2.293
16426W        W84820  28.667  28.691  13.847
16427W        W84821  36.559  10.334   4.140
16428W        W84822  17.614   7.695   4.059
16429W        W84823   8.101  16.461  12.324
16430W        W84824  36.822  42.504  14.281
16431W        W84825  26.311   2.435  11.665
16432W        W84826   1.418  26.115   2.225
16433W        W84827  29.993  13.948   0.523
16434W        W84828  27.457  36.441   4.298
16435W        W84829  11.704  41.785  14.896
16436W        W84830   8.259  29.385  13.570
16437W        W84831  41.950  35.406   0.856
16438W        W84832  15.831  17.226   0.760
16439W        W84833  18.818  20.625  13.043
16440W        W84834  28.654  32.598  14.855
16441W        W84835  10.074  32.114   0.888
16442W        W84836  34.443  36.293  13.453
16443W        W84837  20.036  33.341   2.704
16444W        W84838  34.428  35.375   2.131
16445W        W84839  32.657  13.040  12.821
16446W        W84840  20.651  34.947   4.696
16447W        W84841  25.915  43.378   3.575
16448W        W84842  39.029  31.261   2.197
16449W        W84843  33.785  43.572  13.335
16450W        W84844   9.828  37.446   1.930
16451W        W84845   7.683  27.851   4.465
16452W        W84846  18.371   0.104  11.067
16453W        W84847  42.221   5.912   2.640
16454W        W84848  41.090  22.521  13.115
16455W        W84849  12.928  28.102   3.257
16456W        W84850  37.135  15.864  14.074
16457W        W84851  17.281   2.290  13.753
16458W        W84852  18.692  30.680   0.462
16459W        W84853  33.833  24.659  13.323
16460W        W84854   6.360  22.112   1.421
16461W        W84855  38.001   5.668   1.628
16462W        W84856  25.065  20.216   0.951
16463W        W84857   3.102  43.440  10.504
16464W        W84858   3.314  19.286   3.879
16465W        W84859  27.175  41.100   1.735
16466W        W84860  44.192  25.821  14.812
16467W        W84861  28.603   4.804   1.884
16468W        W84862  18.491   7.859  13.420
16469W        W84863  15.622   4.209  11.164
16470W        W84864   6.283  34.373   4.184
16471W        W84865  36.654  25.788  11.513
16472W        W84866   2.448  38.093  11.905
16473W        W84867  30.005  27.608   3.212
16474W        W84868   3.437  11.218   1.997
16475W        W84869  28.075  16.781   4.857
16476W        W84870   8.404  41.612   4.538
16477W        W84871  11.636   0.387  13.927
16478W        W84872   4.293  21.757  13.988
16479W        W84873  43.886  28.192   4.488
16480W        W84874  15.159  15.205   4.532
16481W        W84875   8.113  41.335   0.024
16482W        W84876  17.160  36.068  13.563
16483W        W84877  19.639   3.708   3.397
16484W        W84878  15.597  30.381   3.680
16485W        W84879  22.723   3.325   4.539
16486W        W84880   6.196  11.235  13.996
16487W        W84881  34.482   9.221   0.247
16488W        W84882  33.474  22.923  12.165
16489W        W84883   8.188  28.090  14.763
16490W        W84884   0.123  41.842  11.166
16491W        W84885  25.314  34.049   3.569
16492W        W84886  17.012  37.591   1.423
16493W        W84887  41.439   4.890   3.201
16494W        W84888  17.264   6.950  11.509
16495W        W84889  44.940  28.103   4.344
16496W        W84890  44.896  28.725   2.247
16497W        W84891   8.345  20.255   2.664
16498W        W84892   4.937  39.067  12.193
16499W        W84893   3.743   8.238  11.594
16500W        W84894  27.318  22.595   2.068
16501W        W84895  41.923  12.899  14.811
16502W        W84896  15.659  31.472  14.121
16503W        W84897  16.464  15.278  10.728
16504W        W84898  38.089  29.105   1.861
16505W        W84899  12.059   7.851   1.790
16506W        W84900  17.337  42.936  13.068
16507W        W84901  36.087  44.020   4.170
16508W        W84902  23.725  42.251  12.260
16509W        W84903   9.726  21.106   1.424
16510W        W84904  39.883  29.546  13.789
16511W        W84905   1.978  17.604   0.171
16512W        W84906  41.952  30.120   0.087
16513W        W84907   0.904   3.392   1.472
16514W        W84908  29.471  40.048   0.813
16515W        W84909   7.905  26.728   3.199
16516W        W84910   5.401  18.296   4.573
16517W        W84911  13.032  19.144   1.707
16518W        W84912  32.007  14.276   4.266
16519W        W84913  26.688  18.737   2.710
16520W        W84914  33.868  32.083  10.940
16521W        W84915   4.992  31.830  10.103
16522W        W84916  20.090  44.887   2.983
16523W        W84917  39.780  43.198  11.212
16524W        W84918   2.942  32.368  14.849
16525W        W84919  25.219  20.080  11.235
16526W        W84920  11.937  23.575   1.190
16527W        W84921  27.729  26.141  10.613
16528W        W84922  15.542  14.677   3.112
16529W        W84923  37.493  12.703   4.422
16530W        W84924   4.934  37.983  12.482
16531W        W84925  18.105   8.254   2.667
16532W        W84926  10.331  29.858   2.046
16533W        W84927   5.426  14.873  12.961
16534W        W84928   0.884  33.763   4.231
16535W        W84929   3.919   0.268  12.149
16536W        W84930  19.580  18.823   4.157
16537W        W84931  34.320  26.236  12.454
16538W        W84932  13.826  39.460   0.474
16539W        W84933  37.141   5.446  13.211
16540W        W84934  27.547   2.236  10.268
16541W        W84935  12.747  41.575   3.035
16542W        W84936  20.641  14.167   3.220
16543W        W84937  43.404   5.367   3.397
16544W        W84938   9.602  36.897  14.793
16545W        W84939  31.032  20.802  11.112
16546W        W84940  40.543  31.452   3.019
16547W        W84941  23.679   9.723  12.856
16548W        W84942   0.804  17.503  13.532
16549W        W84943  38.920   3.504  14.055
16550W        W84944  13.940   4.937   3.627
16551W        W84945  44.994  30.741  10.715
16552W        W84946  23.429  22.154   4.583
16553W        W84947  10.328  14.573  11.642
16554W        W84948   9.648  37.235  12.495
16555W        W84949  15.028  37.946   3.609
16556W        W84950  26.987  20.058  11.629
16557W        W84951  15.570   0.681  13.178
16558W        W84952   5.895  25.528   0.046
16559W        W84953   5.959  33.180  11.552
16560W        W84954  20.054   9.319   0.966
16561W        W84955  28.633  23.481  11.995
16562W        W84956   5.740  12.177   1.337
16563W        W84957   9.732  42.978   3.692
16564W        W84958   1.619  32.963  11.465
16565W        W84959   0.225  36.871   4.012
16566W        W84960  25.615   1.954  11.837
16567W        W84961  37.406  35.010  13.054
16568W        W84962  36.363  38.529   3.218
16569W        W84963  15.559  24.516  13.854
16570W        W84964  24.055  31.016   0.796
16571W        W84965  24.482  11.106   2.392
16572W        W84966   6.757  24.151  12.687
16573W        W84967  37.088   3.899   0.547
16574W        W84968  38.373  23.033   1.357
16575W        W84969  11.152   5.149   2.758
16576W        W84970  44.944  22.782  13.941
16577W        W84971  31.833   5.462   1.801
16578W        W84972  17.759  36.025   3.680
16579W        W84973  18.012  19.160  12.420
16580W        W84974  33.394  23.145   3.871
16581W        W84975   0.071   0.781  11.508
16582W        W84976  18.128  44.891  13.925
16583W        W84977  16.899   0.894  13.056
16584W        W84978  11.105   0.327   3.231
16585W        W84979  40.121   7.306   2.246
16586W        W84980   7.463  39.032  11.152
16587W        W84981   9.432   8.205   1.441
16588W        W84982  42.144  27.143   1.302
16589W        W84983  11.365  43.739   3.527
16590W        W84984   5.644  30.044   3.122
16591W        W84985  38.470   6.577   3.138
16592W        W84986  32.167  14.293  11.106
16593W        W84987  12.603  22.522  14.159
16594W        W84988  23.287  33.108   4.600
16595W        W84989  24.092  13.146   1.392
16596W        W84990  40.075   5.176  13.999
16597W        W84991  34.954   3.000  14.907
16598W        W84992  26.599   3.742  13.127
16599W        W84993   6.645  33.799  11.064
16600W        W84994  17.771  11.821   1.867
16601W        W84995  30.507   2.949   1.508
16602W        W84996  36.013  35.273   4.166
16603W        W84997  36.682  36.624   2.222
16604W        W84998  26.642  29.476   3.717
16605W        W84999  21.267  25.843   0.362
16606W        W85000  13.273  29.023  13.804
16607W        W85001  15.731  44.767   2.200
16608W        W85002   3.239   5.543   4.144
16609W        W85003  23.811  43.445   2.884
16610W        W85004  44.313   0.635  13.556
16611W        W85005  18.654   5.501   0.340
16612W        W85006  21.595   9.143  12.819
16613W        W85007   8.763   6.238   1.801
16614W        W85008  42.808  30.515   0.911
16615W        W85009  44.741  41.504  11.206
16616W        W85010  10.465  24.662  13.988
16617W        W85011  43.899  28.318  12.874
16618W        W85012  26.492  14.311  11.544
16619W        W85013  10.779   1.798  11.287
16620W        W85014  24.755  20.244   3.228
16621W        W85015   7.967  22.644  10.854
16622W        W85016  23.534  37.409  13.934
16623W        W85017  37.378   6.367   2.947
16624W        W85018  41.360  33.119   4.330
16625W        W85019   3.638  19.982  14.019
16626W        W85020  31.162  37.181  12.956
16627W        W85021   3.412   4.830  13.165
16628W        W85022  36.471  40.684  12.003
16629W        W85023  13.250  20.944   4.509
16630W        W85024  28.466  14.613   2.016
16631W        W85025  40.851   9.931   2.677
16632W        W85026  44.635  44.641   5.114
16633W        W85027  44.543  38.507   3.207
16634W        W85028  35.164   4.257  13.025
16635W        W85029  21.641  40.520   3.687
16636W        W85030   7.649  23.202   4.593
16637W        W85031  42.494  19.529   4.551
16638W        W85032   4.201  19.133   2.350
16639W        W85033   4.470   8.052  12.389
16640W        W85034  41.787  16.749  11.543
16641W        W85035  34.966  22.425   3.994
16642W        W85036  43.874  12.301  12.510
16643W        W85037  27.279  20.635  13.866
16644W        W85038  17.947  16.038  14.006
16645W        W85039  24.036  29.738  13.803
16646W        W85040  41.562  36.355   1.298
16647W        W85041   5.519  36.164  11.652
16648W        W85042  15.590  32.896  11.965
16649W        W85043  33.058  35.836   3.635
16650W        W85044  18.180   6.273   3.791
16651W        W85045  14.431  24.357  11.963
16652W        W85046  40.014  10.785   3.251
16653W        W85047  38.903   2.238   2.263
16654W        W85048   2.883  43.914  12.483
16655W        W85049  10.637   6.844   3.203
16656W        W85050   6.040  33.033   0.806
16657W        W85051   7.677   6.208  11.948
16658W        W85052  20.568  37.072  10.642
16659W        W85053  21.712  16.639   4.339
16660W        W85054  34.541  41.833   4.181
16661W        W85055  30.701  36.472  10.775
16662W        W85056   8.820  19.715  13.502
16663W        W85057  28.205   5.274   0.272
16664W        W85058  37.347   8.973  14.696
16665W        W85059   7.356  43.958  14.365
16666W        W85060  38.256  21.009  12.390
16667W        W85061  16.780  44.282   0.224
16668W        W85062  16.242  27.782   2.755
16669W        W85063   0.529  19.681  14.902
16670W        W85064  14.349   5.221  13.569
16671W        W85065   8.483   6.823   0.732
16672W        W85066  28.617   9.255  11.142
16673W        W85067  42.007  26.924   0.834
16674W        W85068   3.049  10.425  10.692
16675W        W85069  40.392   4.789  13.830
16676W        W85070  15.594   7.404   1.479
16677W        W85071   1.769  15.028  14.009
16678W        W85072  10.605  10.708  14.566
16679W        W85073  44.256  19.571   1.533
16680W        W85074   7.280  38.826   0.079
16681W        W85075  17.672  11.949  13.860
16682W        W85076  39.029  39.767  11.611
16683W        W85077  20.183  20.750   3.338
16684W        W85078  42.102  19.268   2.245
16685W        W85079  14.732  10.174  14.808
16686W        W85080  44.023  20.938   0.471
16687W        W85081  43.800   7.522  13.964
16688W        W85082  11.195  36.307  11.415
16689W        W85083  11.124  42.270   3.267
16690W        W85084  28.143  42.427   4.228
16691W        W85085  24.491   5.169  14.772
16692W        W85086  27.270   8.861   2.357
16693W        W85087  38.025   2.538   1.461
16694W        W85088  18.109  17.591   5.001
16695W        W85089   4.028   7.186   2.443
16696W        W85090  22.476  23.085   1.234
16697W        W85091  21.767  17.676  13.026
16698W        W85092  20.761  11.527  14.502
16699W        W85093  32.101  20.700  13.487
16700W        W85094  29.195  33.070  12.020
16701W        W85095  31.205  30.571   1.551
16702W        W85096  24.565   3.272  14.715
16703W        W85097   4.998  32.941  11.131
16704W        W85098  10.891   2.325  10.745
16705W        W85099  41.919  16.315  14.895
16706W        W85100   2.455  19.571   5.133
16707W        W85101  25.437   4.538   4.210
16708W        W85102   3.878   4.178  14.481
16709W        W85103  35.579  33.003  13.540
16710W        W85104   4.461  33.928   2.811
16711W        W85105  10.612  33.956   4.799
16712W        W85106  19.734  39.791   0.398
16713W        W85107   3.950  22.567   1.814
16714W        W85108  25.196   5.434  10.657
16715W        W85109  17.115  36.464   2.582
16716W        W85110  39.366  34.603   2.207
16717W        W85111  39.362  14.073   3.510
16718W        W85112   5.954  33.644   3.284
16719W        W85113  15.787  17.109   5.082
16720W        W85114  18.665  38.769  11.607
16721W        W85115  19.648  14.880   1.726
16722W        W85116  13.671  44.337  11.058
16723W        W85117  30.266  37.122  14.240
16724W        W85118  32.039  13.242  11.580
16725W        W85119  44.243  19.183  13.515
16726W        W85120  14.203   4.926  10.273
16727W        W85121  37.381  31.402   0.727
16728W        W85122  28.168  27.411  13.921
16729W        W85123  17.503  23.729  11.737
16730W        W85124   9.923   6.939   2.165
16731W        W85125  13.657  40.344   3.619
16732W        W85126  28.612  14.787   3.123
16733W        W85127  11.878  41.041   1.207
16734W        W85128  22.129  39.839   4.099
16735W        W85129  20.180  23.257  10.674
16736W        W85130  18.654  25.982   0.953
16737W        W85131  31.390  44.277  14.828
16738W        W85132  38.903  28.865  12.915
16739W        W85133  28.067   6.970   1.779
16740W        W85134  39.792   5.470  14.291
16741W        W85135  18.110  29.035  10.629
16742W        W85136   5.676  33.687   1.374
16743W        W85137   6.807   0.188  14.586
16744W        W85138  41.154   5.096  11.457
16745W        W85139   9.280  18.785  12.913
16746W        W85140   5.638  20.210  12.288
16747W        W85141  17.070   4.462   4.126
16748W        W85142  42.940  34.737  12.407
16749W        W85143  38.074  23.852   0.248
16750W        W85144  43.374   2.621   4.589
16751W        W85145  16.544  14.648   1.411
16752W        W85146   9.679  42.905  13.114
16753W        W85147  44.314  44.729  12.287
16754W        W85148  35.653   5.755  11.223
16755W        W85149  13.677  30.127   3.001
16756W        W85150   5.237  13.711  13.508
16757W        W85151  43.276  24.219   1.127
16758W        W85152  25.931  31.949  14.351
16759W        W85153   5.224  19.646  12.952
16760W        W85154   1.829  28.419   2.393
16761W        W85155  13.241  25.002  14.826
16762W        W85156  17.546  11.415  14.001
16763W        W85157  29.558   3.966   3.890
16764W        W85158  25.373  22.132   0.474
16765W        W85159  25.801  34.083  14.824
16766W        W85160  32.067  25.642   3.600
16767W        W85161  25.004   6.850  11.713
16768W        W85162  30.051  34.081   1.367
16769W        W85163  14.619  16.077  14.287
16770W        W85164   4.852  26.076  13.824
16771W        W85165  38.455  15.705   3.903
16772W        W85166   4.897  39.910  10.624
16773W        W85167   1.240  33.428  13.389
16774W        W85168   8.365  36.580   4.147
16775W        W85169  24.250  17.611   3.132
16776W        W85170   9.653  19.305  13.832
16777W        W85171  22.650  28.618  10.500
16778W        W85172  18.368  34.497  10.656
16779W        W85173   4.166  11.265   5.472
16780W        W85174  37.445   0.913   2.951
16781W        W85175  10.952   6.701   2.215
16782W        W85176  15.383   8.444   0.792
16783W        W85177  24.054  17.641   1.202
16784W        W85178  25.021  35.068   1.369
16785W        W85179  42.938   8.460  13.037
16786W        W85180  41.609  43.175  13.989
16787W        W85181  17.320  19.975  13.608
16788W        W85182  36.093   1.958  11.553
16789W        W85183   7.993  19.033  11.719
16790W        W85184   2.476  21.135   0.467
16791W        W85185  36.020  12.426  11.208
16792W        W85186  12.991   9.544  11.427
16793W        W85187  15.600   9.647  12.428
16794W        W85188  14.082  40.786   4.516
16795W        W85189  16.109   1.994   0.493
16796W        W85190  13.184  44.205  13.345
16797W        W85191  41.113  34.921   2.314
16798W        W85192   8.424  14.200   3.476
16799W        W85193  24.116  40.304   0.784
16800W        W85194  29.587   2.894   3.088
16801W        W85195  26.208  23.938   2.634
16802W        W85196  22.466  12.219  11.755
16803W        W85197  29.882  38.624  11.215
16804W        W85198  36.411  41.102   5.010
16805W        W85199   6.319   3.625   2.723
16806W        W85200  20.544  32.981   0.657
16807W        W85201   5.896  41.722   4.262
16808W        W85202   3.497  26.594  13.903
16809W        W85203  27.480  21.909   0.259
16810W        W85204  31.119  36.321   2.871
16811W        W85205   6.251  39.042   4.161
16812W        W85206   0.056  39.842  14.855
16813W        W85207  17.472  32.688   0.560
16814W        W85208  43.544  29.572   2.138
16815W        W85209  26.718   5.163   4.233
16816W        W85210  38.591  16.730  12.434
16817W        W85211  10.955  24.288  12.385
16818W        W85212   3.754  17.174   0.962
16819W        W85213  41.850  28.238  11.529
16820W        W85214  14.768   0.015   1.399
16821W        W85215   9.828  17.580   0.493
16822W        W85216  30.763  23.178  10.722
16823W        W85217  28.197  12.873   4.093
16824W        W85218  22.047  29.730   1.247
16825W        W85219  43.886  35.410   1.593
16826W        W85220  15.168  38.122  12.019
16827W        W85221  27.492   0.594  13.989
16828W        W85222   1.773  26.283  13.509
16829W        W85223  20.168  39.317  11.082
16830W        W85224   7.993  44.703   2.753
16831W        W85225  15.187  26.972   0.250
16832W        W85226  16.936  40.852   2.408
16833W        W85227  10.405  35.475  14.782
16834W        W85228  15.118  37.429   4.981
16835W        W85229  39.375   1.950  12.620
16836W        W85230   6.596  41.971   3.774
16837W        W85231   9.526  36.967   2.369
16838W        W85232  14.806  35.450   3.826
16839W        W85233  37.801  20.674  13.511
16840W        W85234  20.007   6.577  12.974
16841W        W85235  17.466  13.087   3.182
16842W        W85236  12.926  44.778  13.797
16843W        W85237   8.071  23.267   4.888
16844W        W85238  11.828  33.512   0.328
16845W        W85239  25.868  41.467   0.438
16846W        W85240  25.938  25.348   5.116
16847W        W85241  14.073  40.158  12.422
16848W        W85242  13.243  10.254   3.447
16849W        W85243   9.409  12.496  11.416
16850W        W85244  23.150  22.843  13.760
16851W        W85245  13.717   6.108   4.278
16852W        W85246  34.062  11.898  14.962
16853W        W85247  34.357  30.224  10.722
16854W        W85248  41.441  39.123   3.734
16855W        W85249   4.669  38.979  11.593
16856W        W85250   4.442  42.846   1.626
16857W        W85251  24.792   6.337  14.934
16858W        W85252  43.993   0.675   2.195
16859W        W85253  17.972  29.693   0.888
16860W        W85254  37.311  25.921  13.332
16861W        W85255  34.955  17.282   5.158
16862W        W85256  39.973  28.936   3.583
16863W        W85257  42.995  13.621   4.350
16864W        W85258   7.961  15.526   2.811
16865W        W85259  10.356  30.078   0.311
16866W        W85260  15.872  23.753   2.592
16867W        W85261   9.740   5.413   1.243
16868W        W85262  26.210  21.240   4.103
16869W        W85263   4.700   9.854  12.433
16870W        W85264  30.484  43.963   2.839
16871W        W85265  40.469  34.682   4.083
16872W        W85266  31.450  12.487   1.835
16873W        W85267  31.672  29.059   2.163
16874W        W85268  42.264  44.240  11.890
16875W        W85269   5.339   1.268   3.941
16876W        W85270   5.089  22.449  11.666
16877W        W85271   8.840  11.103  10.762
16878W        W85272   1.978  27.007   3.701
16879W        W85273  27.528  37.524   0.394
16880W        W85274  13.994  21.105  12.527
16881W        W85275  15.833  35.970   4.615
16882W        W85276  27.116   2.883   1.778
16883W        W85277  26.835   0.181   2.799
16884W        W85278  44.779  36.641  12.100
16885W        W85279   1.164   2.189  11.104
16886W        W85280  24.000   0.484   1.708
16887W        W85281  27.954  17.667  13.964
16888W        W85282  34.164  27.016  10.469
16889W        W85283  19.548   7.308  14.725
16890W        W85284  37.020  18.760  12.410
16891W        W85285  37.112  44.837  13.075
16892W        W85286  42.873  20.700   4.488
16893W        W85287  20.460   7.316   2.921
16894W        W85288  22.269  15.555   2.623
16895W        W85289  40.611   8.650   0.772
16896W        W85290  39.830  32.581   4.573
16897W        W85291  19.228  20.792  14.919
16898W        W85292  12.333   9.418   4.163
16899W        W85293   3.350   4.896  14.562
16900W        W85294  12.735  36.222   1.980
16901W        W85295  12.782   3.232  14.443
16902W        W85296   3.012   8.820  11.541
16903W        W85297  40.486  18.397   3.158
16904W        W85298  41.433  36.707  13.221
16905W        W85299  27.175  18.102   4.628
16906W        W85300  16.948  37.475  11.176
16907W        W85301   9.544  15.807  12.925
16908W        W85302  16.697  32.880  13.833
16909W        W85303  40.027  20.103   1.642
16910W        W85304  34.629  40.531   4.130
16911W        W85305  29.478   7.314  11.597
16912W        W85306   2.111  14.527  12.856
16913W        W85307  11.953  38.613   3.133
16914W        W85308   7.725   7.114   4.995
16915W        W85309  26.571  12.096   3.622
16916W        W85310  10.256  23.323  11.424
16917W        W85311  27.377  16.466   2.746
16918W        W85312  39.010  34.888  10.480
16919W        W85313  12.289  18.729   3.359
16920W        W85314  19.130   6.079   2.840
16921W        W85315  40.484  24.963   4.896
16922W        W85316  18.222  21.931  12.588
16923W        W85317  36.611  35.036   0.475
16924W        W85318   0.175  40.018   1.834
16925W        W85319  16.271  18.012   2.242
16926W        W85320  43.104  21.577  14.509
16927W        W85321  20.663  36.702  12.105
16928W        W85322  34.758  14.532   1.219
16929W        W85323  35.365  30.977  14.858
16930W        W85324  20.022  11.421   4.175
16931W        W85325  18.337  41.814  10.697
16932W        W85326  15.861  17.965   4.992
16933W        W85327  18.806  44.249   4.560
16934W        W85328  27.970  22.126   0.260
16935W        W85329  34.375  22.691   3.121
16936W        W85330  13.695  19.048   3.809
16937W        W85331  43.572   0.805  12.491
16938W        W85332   2.706  27.955  11.776
16939W        W85333  27.249   3.724  11.901
16940W        W85334  23.975  35.446   3.482
16941W        W85335  14.109  31.999  13.461
16942W        W85336  27.447  22.510  12.674
16943W        W85337  23.568  11.152  11.605
16944W        W85338   3.054  17.186   2.869
16945W        W85339  38.687  15.909   0.552
16946W        W85340   4.751  10.219  11.987
16947W        W85341  28.855   6.310  11.192
16948W        W85342  13.286  21.502   0.470
16949W        W85343  41.804   6.011   1.796
16950W        W85344  43.415  10.214  13.117
16951W        W85345  33.006  37.105   2.481
16952W        W85346   7.293  14.354  13.802
16953W        W85347   7.426  30.593   1.931
16954W        W85348  15.526  25.113  14.671
16955W        W85349  18.593  21.492   3.748
16956W        W85350  25.793  13.723  12.456
16957W        W85351  14.999  30.235   2.878
16958W        W85352  42.723   9.662   0.348
16959W        W85353  10.962   2.685  11.136
16960W        W85354   2.436  10.102  12.522
16961W        W85355   5.383  34.884   0.500
16962W        W85356  40.473   2.707  11.617
16963W        W85357  11.212  43.885   2.525
16964W        W85358  32.336  31.283   4.108
16965W        W85359   6.955  20.180  11.748
16966W        W85360  32.097  38.599   0.665
16967W        W85361  18.078  18.377   2.245
16968W        W85362  34.924   4.915   0.529
16969W        W85363  42.904  11.961   2.164
16970W        W85364  27.559   8.660  10.725
16971W        W85365  22.293  31.926   3.615
16972W        W85366  38.467  39.440   1.708
16973W        W85367  44.250  30.765  13.542
16974W        W85368  27.375  25.154   1.838
16975W        W85369   6.738   9.345   0.875
16976W        W85370   4.418   3.966   9.896
16977W        W85371  19.287  26.249   2.832
16978W        W85372  13.314  22.610  13.449
16979W        W85373   4.800  18.349   4.111
16980W        W85374  26.095  32.795   2.153
16981W        W85375  10.642  39.125  11.082
16982W        W85376   5.870  38.651   3.160
16983W        W85377  33.755  40.586   0.356
16984W        W85378  25.233  32.747  13.149
16985W        W85379  24.530   2.767  14.894
16986W        W85380  32.019  20.542   1.700
16987W        W85381   1.029  31.567  13.982
16988W        W85382  29.543   7.857  14.292
16989W        W85383  12.849  22.752  14.954
16990W        W85384  12.551   5.393   2.797
16991W        W85385  21.303  18.530   0.413
16992W        W85386  36.789   8.297   0.878
16993W        W85387  22.781  36.988   4.274
16994W        W85388   6.439  44.740   4.666
16995W        W85389   2.444  12.177  12.935
16996W        W85390  40.907   3.440   2.453
16997W        W85391   9.141  22.807  14.129
16998W        W85392   5.877  36.043   3.683
16999W        W85393   8.109  43.356   2.777
17000W        W85394  20.842  30.313  10.104
17001W        W85395  35.036  18.645  11.672
17002W        W85396  23.623   5.155   2.850
17003W        W85397   4.357  43.718  10.603
17004W        W85398  37.023   2.872  11.639
17005W        W85399   0.858   2.517   4.840
17006W        W85400  33.375  37.440   4.250
17007W        W85401  34.112  39.142   0.955
17008W        W85402  11.201  38.203  13.945
17009W        W85403   9.467  44.530  13.096
17010W        W85404  26.345  36.449  13.124
17011W        W85405  41.477  17.366  13.472
17012W        W85406  36.149  26.324  12.115
17013W        W85407  28.704  38.306   0.259
17014W        W85408   3.147  26.661  14.884
17015W        W85409  16.531  39.425  13.372
17016W        W85410  17.057  19.279   3.141
17017W        W85411  27.974   3.040  13.937
17018W        W85412  10.886  37.018  11.332
17019W        W85413  22.631  17.577  11.628
17020W        W85414   7.816  28.392   1.992
17021W        W85415  44.566  10.301   0.381
17022W        W85416  24.313   6.757  13.971
17023W        W85417  19.538  21.525  11.156
17024W        W85418  34.401  44.892   2.238
17025W        W85419  17.316  17.649   0.810
17026W        W85420  41.861  17.495  11.042
17027W        W85421  27.089  11.592   4.157
17028W        W85422  26.068  32.487  12.061
17029W        W85423  38.942  44.837   9.904
17030W        W85424   9.182  22.642   1.440
17031W        W85425  12.775  11.547  13.489
17032W        W85426  34.531  20.783   3.945
17033W        W85427  16.277  15.711  12.901
17034W        W85428  12.665  33.913  13.728
17035W        W85429  19.181  17.861  14.311
17036W        W85430  34.336  27.235  11.758
17037W        W85431  26.920   4.305  12.621
17038W        W85432   9.274  17.001  11.279
17039W        W85433  16.476   6.304   2.538
17040W        W85434  26.499  13.782   2.275
17041W        W85435  20.030  31.947   2.417
17042W        W85436   4.268  26.838   3.768
17043W        W85437   1.996  20.024  14.831
17044W        W85438   9.903  28.022  11.629
17045W        W85439  22.587  22.955  13.510
17046W        W85440  42.999   3.214   2.236
17047W        W85441   4.913  24.533   2.380
17048W        W85442  32.694  38.426  14.370
17049W        W85443   0.227  40.437   0.981
17050W        W85444  29.383   7.402  11.087
17051W        W85445  32.446  20.486  12.472
17052W        W85446  38.345   2.039   2.750
17053W        W85447  10.781  25.094  11.017
17054W        W85448   1.916  27.845  13.926
17055W        W85449  14.107  10.874  13.858
17056W        W85450  18.270   5.923   3.392
17057W        W85451  20.890  38.540  14.445
17058W        W85452  28.483   4.830  11.142
17059W        W85453  23.073  12.424  11.097
17060W        W85454  21.941  34.382  13.501
17061W        W85455   0.758  27.445   1.692
17062W        W85456   5.958  30.500   0.205
17063W        W85457  42.287  12.224  13.790
17064W        W85458  14.826  28.430   1.280
17065W        W85459  40.360  38.650  14.400
17066W        W85460   7.668   8.788  14.426
17067W        W85461  25.947  38.921  13.403
17068W        W85462  16.202  38.214   1.647
17069W        W85463  14.267  28.970  10.850
17070W        W85464  15.103  40.833   0.379
17071W        W85465  39.094  18.453   5.091
17072W        W85466   5.170  31.535   2.377
17073W        W85467  19.261  42.446  12.027
17074W        W85468  32.491  37.095   4.596
17075W        W85469  21.123  13.739   3.726
17076W        W85470  44.288  20.228   3.700
17077W        W85471   0.951  31.938   0.758
17078W        W85472  38.690  29.411   1.169
17079W        W85473  28.588  28.958   0.726
17080W        W85474  37.506  37.988  13.833
17081W        W85475   7.105   3.818   1.711
17082W        W85476   1.561  24.595  11.591
17083W        W85477  13.189  20.834  14.872
17084W        W85478  23.202  42.571  13.978
17085W        W85479  36.995  37.478  13.289
17086W        W85480  15.324  15.667  13.993
17087W        W85481  36.995  36.309   2.859
17088W        W85482  39.886  12.618   1.892
17089W        W85483  18.603  10.295  13.102
17090W        W85484   8.435   9.047  11.411
17091W        W85485  44.919  25.724  14.297
17092W        W85486  42.393  12.415   2.767
17093W        W85487  26.686   2.295  13.543
17094W        W85488  21.775  29.129  11.502
17095W        W85489  36.254  16.867   2.243
17096W        W85490  27.480  37.090  10.701
17097W        W85491  39.853   9.662   1.369
17098W        W85492  11.699  16.934   2.638
17099W        W85493  19.669  25.319   1.390
17100W        W85494  22.705   7.650  14.017
17101W        W85495  42.261   5.139  14.777
17102W        W85496  34.947  39.947  11.984
17103W        W85497  15.276   5.891  14.255
17104W        W85498   9.917  35.953   2.840
17105W        W85499  43.823  25.514  12.941
17106W        W85500  13.349   8.981  13.454
17107W        W85501   7.370  19.048  10.537
17108W        W85502  37.991  44.359  13.016
17109W        W85503  25.025  28.138  14.911
17110W        W85504   1.215  37.259   1.448
17111W        W85505  10.771  19.676  11.643
17112W        W85506   8.448   9.694  10.607
17113W        W85507  31.987  26.855   1.874
17114W        W85508  37.609   2.494   4.123
17115W        W85509   1.945   2.428  14.075
17116W        W85510   9.671  33.003  13.866
17117W        W85511  44.343   2.430  10.496
17118W        W85512  28.699  24.730  12.420
17119W        W85513  29.992  11.674  12.011
17120W        W85514  40.299  42.913  14.735
17121W        W85515  19.138  22.213  10.702
17122W        W85516   0.881   0.274  12.112
17123W        W85517  15.171  18.799   0.846
17124W        W85518  32.624  17.958   0.568
17125W        W85519  37.050  33.051  14.333
17126W        W85520  35.852  35.129  13.798
17127W        W85521   2.476   4.281   2.325
17128W        W85522  11.264  42.739   4.160
17129W        W85523  19.550  41.843  14.120
17130W        W85524  42.263   2.098  11.527
17131W        W85525   6.168  41.006   3.819
17132W        W85526  28.981  31.441   0.853
17133W        W85527  30.443  12.320   2.323
17134W        W85528  41.371  13.183   3.153
17135W        W85529  12.047  10.223   3.655
17136W        W85530  16.104   6.460   1.247
17137W        W85531  28.031  43.934   1.309
17138W        W85532  19.661  35.696  13.896
17139W        W85533  44.533  24.860  11.104
17140W        W85534  22.518   0.252   2.357
17141W        W85535   8.624   4.555  14.332
17142W        W85536  24.159  28.487  10.809
17143W        W85537  25.409  32.940   1.801
17144W        W85538   0.574   9.676   0.001
17145W        W85539  42.246  37.281  13.382
17146W        W85540  23.056  28.492  14.985
17147W        W85541  18.181   1.439  13.465
17148W        W85542  12.940  22.491  10.970
17149W        W85543  41.003  14.539  10.500
17150W        W85544  27.587  27.604  10.858
17151W        W85545  21.120  39.302  11.564
17152W        W85546   1.669   6.727   4.142
17153W        W85547  26.428  27.511   3.201
17154W        W85548  19.177   3.016  11.571
17155W        W85549  30.994  29.718   2.549
17156W        W85550  22.162  40.554  11.652
17157W        W85551  43.826  29.191   4.720
17158W        W85552  18.890   4.073   1.197
17159W        W85553  15.257  33.012   2.737
17160W        W85554  31.846  27.707   4.279
17161W        W85555  29.169  40.856   1.785
17162W        W85556  27.921  26.480  13.016
17163W        W85557  32.889  37.482   2.819
17164W        W85558  21.302  41.456  11.240
17165W        W85559   8.259   0.286  11.781
17166W        W85560  13.720  28.833  14.266
17167W        W85561  13.307  28.285  11.781
17168W        W85562  23.026   4.956  12.053
17169W        W85563  25.392  29.462   3.788
17170W        W85564  29.466   0.724  13.996
17171W        W85565  24.089   0.208   2.899
17172W        W85566  40.411  28.529  13.934
17173W        W85567   0.540  34.806  12.574
17174W        W85568   2.323  10.182  10.326
17175W        W85569  19.801  44.462   3.070
17176W        W85570  29.439  27.628   4.221
17177W        W85571  43.769  27.061  14.998
17178W        W85572  26.614  25.620   1.704
17179W        W85573  12.270  18.062  10.989
17180W        W85574  44.193  38.238  12.899
17181W        W85575  24.545   4.492   2.339
17182W        W85576  15.352  27.471   1.486
17183W        W85577  29.981   1.722  12.490
17184W        W85578  23.668   8.180  14.921
17185W        W85579  19.554   2.724  13.505
17186W        W85580  40.568  27.187  12.359
17187W        W85581  16.246  25.197   3.795
17188W        W85582  39.216  22.564  13.772
17189W        W85583  23.557  14.898   2.189
17190W        W85584  23.130  32.390   2.408
17191W        W85585  11.407  20.516   0.381
17192W        W85586  34.492  19.722  13.007
17193W        W85587  41.085  28.966   4.938
17194W        W85588  12.582  25.980  11.990
17195W        W85589  13.389   0.411  12.628
17196W        W85590  24.689  26.053  14.273
17197W        W85591   9.344  20.154  10.681
17198W        W85592  31.136   6.883  14.371
17199W        W85593  28.565  36.217   4.152
17200W        W85594  35.884  15.513  12.950
17201W        W85595  26.118  16.816  10.708
17202W        W85596  19.543   5.826   2.293
17203W        W85597  42.735  31.391  11.735
17204W        W85598  11.372   6.140   2.527
17205W        W85599  41.026  27.989   2.400
17206W        W85600   3.875  28.107  13.958
17207W        W85601  13.614  28.241  13.887
17208W        W85602  44.696   4.424  11.941
17209W        W85603  41.244  24.302  11.652
17210W        W85604  27.022  30.232  10.837
17211W        W85605   0.995  41.067  13.934
17212W        W85606  26.003  16.277   1.468
17213W        W85607  29.671  34.104   1.921
17214W        W85608  32.640  42.437   4.883
17215W        W85609  37.048  14.158  12.160
17216W        W85610   2.161  22.403   1.134
17217W        W85611  26.138  18.313   3.742
17218W        W85612   5.325  40.931   4.103
17219W        W85613  24.551  40.898  14.046
17220W        W85614  18.352  29.469  11.559
17221W        W85615   4.642  15.154   2.377
17222W        W85616  23.094  19.029  14.055
17223W        W85617  36.652  23.178   3.502
17224W        W85618  36.955   8.686  12.920
17225W        W85619  15.670  10.739   1.183
17226W        W85620  22.527  40.455   1.739
17227W        W85621   6.819  16.848  14.550
17228W        W85622  30.996  34.117  10.796
17229W        W85623   3.696   9.159   0.761
17230W        W85624  14.361  14.358  13.537
17231W        W85625  19.079   9.279   2.669
17232W        W85626  12.249  19.102   0.216
17233W        W85627  39.503  35.215  12.529
17234W        W85628  37.025  41.829   2.916
17235W        W85629  40.319  36.412   2.993
17236W        W85630  33.368  18.238  10.841
17237W        W85631  25.613  36.785   0.804
17238W        W85632  26.581  44.401   1.325
17239W        W85633  14.187  16.153  14.002
17240W        W85634   4.770  14.616   1.689
17241W        W85635   4.578  41.008   2.910
17242W        W85636  19.790  15.345  10.279
17243W        W85637   7.868  24.187   0.975
17244W        W85638   3.917   8.474   4.344
17245W        W85639  17.098  29.395  12.481
17246W        W85640  36.930  38.393   0.978
17247W        W85641  25.753  41.381   2.830
17248W        W85642  26.516  38.239  14.801
17249W        W85643  27.148  27.726  10.602
17250W        W85644  24.520  24.704   3.318
17251W        W85645   4.344  35.563  12.354
17252W        W85646  44.430  10.726   4.705
17253W        W85647  26.521   7.780  13.613
17254W        W85648  30.479  36.618   3.296
17255W        W85649  24.450  26.664  12.073
17256W        W85650   4.212   1.266   3.219
17257W        W85651  37.878   5.802  10.859
17258W        W85652   1.029  38.888  13.580
17259W        W85653   3.745  24.002  14.318
17260W        W85654   4.451  30.174   3.799
17261W        W85655  43.250  20.315   4.563
17262W        W85656  24.873  30.027   2.783
17263W        W85657   6.236  18.799   1.745
17264W        W85658  37.339   4.707   5.100
17265W        W85659   9.168  43.809   4.489
17266W        W85660  23.459  10.465   3.597
17267W        W85661  18.285  38.468   3.664
17268W        W85662   2.528  27.495   1.314
17269W        W85663  19.912  14.533   3.070
17270W        W85664  26.245  34.228  11.063
17271W        W85665  34.771  14.189  13.229
17272W        W85666   7.316   8.640   3.178
17273W        W85667  17.462   2.258   3.981
17274W        W85668   4.750  44.636   2.807
17275W        W85669  15.580   5.198  12.933
17276W        W85670  24.526  12.834   5.032
17277W        W85671  10.684   8.520   0.275
17278W        W85672  12.233  40.008  11.808
17279W        W85673  16.303   5.072  10.721
17280W        W85674  33.584  15.388  14.401
17281W        W85675  39.791  32.078  12.421
17282W        W85676   7.626  28.519   0.370
17283W        W85677  16.378  38.744  12.849
17284W        W85678  32.891   2.433  11.533
17285W        W85679   6.784  11.411  10.449
17286W        W85680  43.397  12.348  14.529
17287W        W85681  13.653  25.749   0.009
17288W        W85682  34.594   3.814  14.041
17289W        W85683  26.710  28.973   3.601
17290W        W85684  44.800  37.356  13.851
17291W        W85685  14.616  10.352   2.621
17292W        W85686  20.975  35.840  11.660
17293W        W85687   4.951  17.703  13.393
17294W        W85688   7.147  27.439  12.023
17295W        W85689   9.334  20.731  12.424
17296W        W85690  10.382  44.521  12.831
17297W        W85691  17.238  40.982  10.998
17298W        W85692  32.965  25.929   3.845
17299W        W85693  30.621  34.854  13.809
17300W        W85694  23.257  34.986   4.249
17301W        W85695  14.262  28.295  11.765
17302W        W85696  29.247   3.795   3.149
17303W        W85697  35.593  34.223  10.949
17304W        W85698  16.838  30.948   3.588
17305W        W85699  44.873  17.793   0.836
17306W        W85700  21.765  20.656   2.573
17307W        W85701  33.975  29.176  10.528
17308W        W85702   7.712   0.795   0.806
17309W        W85703  40.836   6.654   1.257
17310W        W85704  31.182  26.943   4.263
17311W        W85705  19.522  41.912  11.238
17312W        W85706  28.000  41.969  14.350
17313W        W85707  25.132   6.698  12.995
17314W        W85708   4.447  32.775  14.710
17315W        W85709  12.795  14.026  12.241
17316W        W85710  42.290  21.620   4.882
17317W        W85711  23.039   8.327  12.161
17318W        W85712  27.667  36.355  13.023
17319W        W85713  41.880  22.529   1.782
17320W        W85714  19.001  26.773  14.678
17321W        W85715  15.111  38.370  13.352
17322W        W85716  29.087  24.184   4.014
17323W        W85717  10.338  24.142  11.104
17324W        W85718  16.893  27.430  14.011
17325W        W85719  18.217   9.818   0.929
17326W        W85720  31.985   3.118   1.447
17327W        W85721  42.061  33.696  11.450
17328W        W85722   4.641   6.918   0.897
17329W        W85723  21.976   2.957  11.434
17330W        W85724  41.515  27.790  12.959
17331W        W85725   0.783   0.572   2.200
17332W        W85726  43.795  35.304  13.638
17333W        W85727  37.622   7.780   0.776
17334W        W85728  25.050  27.029   0.398
17335W        W85729  44.505  27.109  14.773
17336W        W85730  10.332   9.560  11.202
17337W        W85731   2.368  42.246  11.069
17338W        W85732  37.041  36.091   0.426
17339W        W85733   8.100  30.565  14.077
17340W        W85734  34.486   4.956  11.201
17341W        W85735  17.708  11.051   0.799
17342W        W85736  24.763  16.487   0.776
17343W        W85737  30.523  15.092  11.600
17344W        W85738   3.398   6.038   4.965
17345W        W85739  30.592   5.314  10.775
17346W        W85740  35.404  35.244   0.235
17347W        W85741   0.583  10.302   1.203
17348W        W85742  30.409  37.966  11.894
17349W        W85743  40.521  38.940  14.915
17350W        W85744  26.281  34.686  14.439
17351W        W85745   8.771  19.106   0.136
17352W        W85746   1.148   7.498   9.907
17353W        W85747   3.897  17.779  13.274
17354W        W85748   3.854  18.065   2.247
17355W        W85749  29.227  31.705   4.499
17356W        W85750  25.673  37.986  14.346
17357W        W85751  35.042  20.293   2.561
17358W        W85752  31.375  23.608  14.966
17359W        W85753  10.247  14.599   4.109
17360W        W85754   8.536  28.959   3.561
17361W        W85755  40.283   9.872   3.014
17362W        W85756  10.394  10.351  12.470
17363W        W85757   4.327  31.813  13.867
17364W        W85758  43.131   7.059   2.125
17365W        W85759  43.095  15.827  14.863
17366W        W85760  17.976  32.534   0.508
17367W        W85761  20.368  43.939  11.212
17368W        W85762  44.295  39.499  12.610
17369W        W85763  35.566  10.761  13.333
17370W        W85764  12.532  34.868  10.727
17371W        W85765  28.234  42.767   3.665
17372W        W85766  12.058  44.332   3.187
17373W        W85767  15.371   2.015  14.295
17374W        W85768  19.356  26.290   1.252
17375W        W85769  28.409  29.901   4.573
17376W        W85770  17.136   6.315  11.091
17377W        W85771  18.048  39.380   3.142
17378W        W85772  32.101   9.939   1.761
17379W        W85773  36.507  34.375   2.892
17380W        W85774  30.521  10.658  11.438
17381W        W85775   4.473  28.925  13.516
17382W        W85776  43.666  13.367   4.807
17383W        W85777  24.090  34.336   1.744
17384W        W85778  14.121  26.316  12.427
17385W        W85779  21.984   0.541  13.387
17386W        W85780  10.674  28.543  11.476
17387W        W85781  22.970  10.039   4.917
17388W        W85782  21.854   7.692  12.496
17389W        W85783  28.409  15.021  14.025
17390W        W85784  42.770  40.044  14.315
17391W        W85785  26.917  42.104  14.446
17392W        W85786  22.108   1.497  14.749
17393W        W85787   2.905  30.448  14.440
17394W        W85788  27.218  16.380   3.351
17395W        W85789   2.384  12.324   3.647
17396W        W85790  34.354   6.729  13.029
17397W        W85791  21.955  33.546   0.484
17398W        W85792  35.663  34.529   1.740
17399W        W85793  30.390  10.984   4.371
17400W        W85794  22.753  42.774   2.773
17401W        W85795   2.282   6.475   3.550
17402W        W85796  11.749  27.130  11.164
17403W        W85797   2.807   6.772   1.431
17404W        W85798  39.939  12.225  14.930
17405W        W85799   8.233  20.034   0.763
17406W        W85800  32.682  32.691   0.557
17407W        W85801   7.362  27.019   4.598
17408W        W85802  28.177   2.091  11.095
17409W        W85803   0.001   9.466   1.711
17410W        W85804  24.257  13.831   1.785
17411W        W85805   7.180  33.210   4.469
17412W        W85806  18.560  24.533   3.822
17413W        W85807  14.281  26.856  14.640
17414W        W85808  12.024  15.156  12.362
17415W        W85809  37.426  28.014   0.922
17416W        W85810  24.143  36.553  12.493
17417W        W85811   7.517   3.122   4.093
17418W        W85812   9.300  21.853  12.451
17419W        W85813   3.221  12.567   0.759
17420W        W85814   0.851   0.461  13.924
17421W        W85815  18.781  43.290   4.190
17422W        W85816  36.825  28.011  12.449
17423W        W85817  26.962  13.513   2.294
17424W        W85818  36.053  22.360   3.709
17425W        W85819  23.017   2.546  12.081
17426W        W85820  41.983  14.942   3.146
17427W        W85821  16.984   6.750   1.853
17428W        W85822  37.490  17.098   0.760
17429W        W85823  12.372  18.104  11.990
17430W        W85824  29.249  28.727   2.813
17431W        W85825  23.748   1.230   0.325
17432W        W85826  11.821  19.440   1.049
17433W        W85827   7.663  16.669   4.117
17434W        W85828  44.718  26.871  10.970
17435W        W85829  15.813   9.372   3.204
17436W        W85830  11.546  25.654  11.112
17437W        W85831  29.606  30.076   3.127
17438W        W85832  13.340  33.878  11.248
17439W        W85833   8.045  27.250   5.371
17440W        W85834  11.524  18.131   0.781
17441W        W85835  44.519  28.043   1.813
17442W        W85836   8.252   6.045  14.920
17443W        W85837  23.584   7.773   3.136
17444W        W85838   8.335  40.683   4.413
17445W        W85839  33.408  34.881  13.165
17446W        W85840  13.556   1.908   3.586
17447W        W85841  30.219   8.329   0.214
17448W        W85842  21.247   1.043  14.773
17449W        W85843  29.673   0.006  14.539
17450W        W85844  18.840  23.846  14.256
17451W        W85845  43.022   3.787   0.882
17452W        W85846  39.941  31.747   2.227
17453W        W85847  39.577  37.020   0.081
17454W        W85848  31.153  14.620  12.181
17455W        W85849   6.370   0.134   2.202
17456W        W85850  39.838  12.004  14.444
17457W        W85851  41.981   2.448  11.927
17458W        W85852  33.125  19.777  13.399
17459W        W85853  17.201  33.526  12.833
17460W        W85854  28.929  38.325  14.795
17461W        W85855  10.691   5.325   3.908
17462W        W85856   2.945  20.758   4.386
17463W        W85857  36.130   3.838  12.000
17464W        W85858  27.981  34.143   3.257
17465W        W85859  40.032   6.182  14.941
17466W        W85860  12.383  11.138   2.164
17467W        W85861  37.119  28.703  13.774
17468W        W85862   8.270  22.469   4.557
17469W        W85863   1.009   4.609  11.066
17470W        W85864  27.623  28.146  12.866
17471W        W85865  40.827  25.168   1.774
17472W        W85866  42.345  16.812   1.341
17473W        W85867  29.891  26.360  12.961
17474W        W85868  33.698  31.597  13.470
17475W        W85869  21.981  19.700  14.124
17476W        W85870  21.682  13.308   2.810
17477W        W85871  16.667  18.751  12.883
17478W        W85872  38.105  27.257  11.630
17479W        W85873  20.195  15.412  10.598
17480W        W85874  24.549  23.176  13.358
17481W        W85875  19.576  12.562  14.531
17482W        W85876  22.493  25.710  11.028
17483W        W85877  26.356  37.640  11.165
17484W        W85878  41.830  10.081  13.079
17485W        W85879   8.697  38.101   3.686
17486W        W85880  38.310  27.943  14.049
17487W        W85881   8.269  16.578   1.895
17488W        W85882  33.634  10.653  13.807
17489W        W85883  14.174  39.557  11.021
17490W        W85884   4.961  20.000   2.546
17491W        W85885  42.032  37.433  14.823
17492W        W85886   4.841  12.360   2.711
17493W        W85887  36.962   6.961  13.325
17494W        W85888  38.149  37.621   1.317
17495W        W85889  34.364  37.381   9.877
17496W        W85890  13.057   1.024  12.951
17497W        W85891  32.857  15.273  11.618
17498W        W85892   4.374  28.378   2.736
17499W        W85893  10.611  28.532   2.842
17500W        W85894  12.347  17.130  13.611
17501W        W85895  25.048  44.935   3.018
17502W        W85896   3.836  16.529  14.369
17503W        W85897  21.573   1.942   3.718
17504W        W85898   5.663  10.711   1.837
17505W        W85899   3.202  21.482  12.594
17506W        W85900   9.315   1.220  13.404
17507W        W85901  12.616   0.401  12.487
17508W        W85902  44.100  12.636   1.193
17509W        W85903  13.163  22.531  12.964
17510W        W85904  39.438  37.507   4.558
17511W        W85905  20.872  40.283   4.136
17512W        W85906  25.923  26.662  12.626
17513W        W85907  39.586   2.036  11.546
17514W        W85908  42.815   0.828   0.989
17515W        W85909  20.537  24.105  12.474
17516W        W85910  19.608   4.295   4.101
17517W        W85911   0.164  31.409   3.525
17518W        W85912   4.450   1.235  12.508
17519W        W85913  11.624  13.684  12.544
17520W        W85914  24.777  15.862  11.648
17521W        W85915  41.796  17.531  13.932
17522W        W85916  10.562   9.373   4.248
17523W        W85917  30.034  32.398   0.014
17524W        W85918  34.668   0.015   1.302
17525W        W85919   8.656  30.935   2.208
17526W        W85920   3.927   6.738   2.730
17527W        W85921   5.430  12.574  12.011
17528W        W85922  10.800  15.865  11.827
17529W        W85923  43.748  27.634  12.401
17530W        W85924  21.824  22.134  12.810
17531W        W85925  27.716   1.666   1.457
17532W        W85926  36.186  13.697  13.883
17533W        W85927   7.368   3.876   3.521
17534W        W85928  22.880   1.988   1.757
17535W        W85929  29.391  11.602  13.143
17536W        W85930   4.019  36.325  12.804
17537W        W85931  38.307  37.571   2.665
17538W        W85932  12.698  11.997   1.413
17539W        W85933   8.225  41.121   4.691
17540W        W85934  21.556  19.722  13.804
17541W        W85935  12.161  25.160   2.787
17542W        W85936  30.003   7.625  12.889
17543W        W85937  38.143  19.127   2.263
17544W        W85938  35.882  18.058   0.454
17545W        W85939  37.059   1.034   3.270
17546W        W85940   1.673  17.084   4.189
17547W        W85941  25.775  29.450   4.263
17548W        W85942  35.445  20.568  14.403
17549W        W85943  10.883  16.059  14.964
17550W        W85944  10.890  19.173  14.394
17551W        W85945  41.656  20.728   0.167
17552W        W85946  43.312  38.666   5.074
17553W        W85947   6.711  12.762  10.128
17554W        W85948  29.950  41.547   1.887
17555W        W85949  22.540  38.552  14.511
17556W        W85950   3.223  30.508   3.079
17557W        W85951  17.630  30.426  10.606
17558W        W85952  31.980  42.846  12.414
17559W        W85953  26.885  36.681   0.216
17560W        W85954  20.060  43.186  12.342
17561W        W85955  41.398   8.741  11.019
17562W        W85956  37.562   4.761  12.042
17563W        W85957  27.037  12.902  14.327
17564W        W85958  30.055  25.278  12.949
17565W        W85959  19.557   0.782  13.393
17566W        W85960  28.218   7.025   4.094
17567W        W85961  43.737   9.153  14.926
17568W        W85962  29.920  10.667  14.635
17569W        W85963  36.572  12.374  14.179
17570W        W85964  42.480  19.803  14.825
17571W        W85965  36.833  37.437   2.804
17572W        W85966  17.326  27.015   4.472
17573W        W85967  15.637   6.227  13.074
17574W        W85968  14.879  34.578   3.310
17575W        W85969  23.629   3.731   0.875
17576W        W85970  32.541   8.942  12.601
17577W        W85971  11.194   1.454   1.269
17578W        W85972   3.173  26.537  10.098
17579W        W85973  10.427  41.823   1.512
17580W        W85974  34.018  27.042   2.410
17581W        W85975  32.408  24.627  14.904
17582W        W85976   3.964  24.121   1.712
17583W        W85977  19.974   5.705  12.942
17584W        W85978  13.538  39.541   2.266
17585W        W85979  12.082   4.162   0.809
17586W        W85980  15.111  30.961   4.705
17587W        W85981   0.957   9.131  12.526
17588W        W85982  42.080   6.848  14.432
17589W        W85983  34.397   9.099  12.460
17590W        W85984  26.966  23.735  13.900
17591W        W85985  40.827  40.110  12.137
17592W        W85986  31.553  17.647   1.294
17593W        W85987  17.562  15.364   0.385
17594W        W85988  25.985  15.505   3.214
17595W        W85989  31.050  17.738  10.527
17596W        W85990  36.747  17.331  13.025
17597W        W85991  32.136  30.660   3.671
17598W        W85992  29.383  19.215   3.330
17599W        W85993  39.467  21.485  11.247
17600W        W85994  40.975   9.088  12.037
17601W        W85995   4.875  21.299   2.791
17602W        W85996   9.230   8.675   1.766
17603W        W85997  43.366  41.293   0.294
17604W        W85998  16.984  20.767  10.133
17605W        W85999  36.750  22.845  14.811
17606W        W86000  18.338  36.653   4.147
17607W        W86001  26.641  39.651   0.396
17608W        W86002  27.859  24.906   1.932
17609W        W86003   7.468  13.323   3.124
17610W        W86004  19.360  29.455   1.117
17611W        W86005  34.555  21.728   3.081
17612W        W86006  27.490   9.675  14.427
17613W        W86007   8.245  36.818  14.057
17614W        W86008  22.544  29.902   1.942
17615W        W86009  13.170  28.105  14.836
17616W        W86010  11.252  30.879  10.766
17617W        W86011  27.057   0.387   2.351
17618W        W86012   8.333  43.674   2.117
17619W        W86013  12.198   1.305   1.495
17620W        W86014  23.536  27.386  12.820
17621W        W86015  43.597  14.376  12.033
17622W        W86016   2.671  32.948  13.931
17623W        W86017  15.649  10.230   2.777
17624W        W86018  34.544  23.699  14.726
17625W        W86019  24.062  13.328   0.909
17626W        W86020  12.187  42.879  13.657
17627W        W86021  31.066  35.417   2.062
17628W        W86022   6.201  43.362  12.517
17629W        W86023  39.408  44.953  12.993
17630W        W86024   1.369  25.759   2.655
17631W        W86025  17.308  23.311  14.067
17632W        W86026  19.165  15.975   0.352
17633W        W86027  36.519  26.028  10.654
17634W        W86028  12.217   0.459   1.746
17635W        W86029  27.549  36.328   3.149
17636W        W86030  29.778   4.182   3.381
17637W        W86031   0.958   2.213  11.698
17638W        W86032  17.056  26.234  10.465
17639W        W86033  21.100   5.585   4.808
17640W        W86034  38.633   1.028  14.965
17641W        W86035  17.950   9.077  13.510
17642W        W86036  36.397  37.573   3.806
17643W        W86037  26.266  38.866   0.572
17644W        W86038  18.134   6.327  10.881
17645W        W86039  21.566  29.989   3.348
17646W        W86040  31.652  13.079  14.420
17647W        W86041  29.080   6.815  14.934
17648W        W86042   4.641   1.461  13.360
17649W        W86043  30.945  30.588   3.131
17650W        W86044  10.137  44.925  12.633
17651W        W86045  28.018   2.409   2.340
17652W        W86046  38.836  38.507  14.585
17653W        W86047  17.816   6.323   0.776
17654W        W86048  43.042  11.448  11.449
17655W        W86049   4.571  10.640   4.035
17656W        W86050  25.985   8.204   0.219
17657W        W86051  25.212  37.849   4.179
17658W        W86052   6.237  19.507   2.272
17659W        W86053   1.687  17.426  14.739
17660W        W86054  41.261  42.542  12.174
17661W        W86055   9.181   9.130   0.975
17662W        W86056  40.859   9.685  10.914
17663W        W86057  32.401  29.477  11.002
17664W        W86058  19.134  43.124   0.297
17665W        W86059  24.073  36.035  14.539
17666W        W86060  28.175  29.594   4.948
17667W        W86061  19.051  19.615  14.315
17668W        W86062   9.387  31.411  11.966
17669W        W86063  16.482  33.687   0.344
17670W        W86064   2.530  17.119  14.687
17671W        W86065  20.759  35.393  11.527
17672W        W86066   9.972   1.788  10.186
17673W        W86067  39.284  32.578   4.259
17674W        W86068  38.108   6.891   3.888
17675W        W86069   2.281   6.859   0.387
17676W        W86070   0.910  24.933   2.712
17677W        W86071  30.060  10.042   1.203
17678W        W86072  13.781  17.262   1.594
17679W        W86073  19.641  15.604   4.616
17680W        W86074   7.178  28.982   3.166
17681W        W86075   2.168  24.475   0.364
17682W        W86076  22.450  41.033  13.090
17683W        W86077  14.197  12.055  12.576
17684W        W86078  32.201   3.755  11.612
17685W        W86079  30.097  30.569  12.142
17686W        W86080  32.524  44.391  13.877
17687W        W86081  11.636   5.236  14.062
17688W        W86082  32.598  26.019  13.101
17689W        W86083  42.004  35.422  13.651
17690W        W86084   0.465   2.530   2.379
17691W        W86085  22.421  42.024   4.736
17692W        W86086  41.326  20.757   4.064
17693W        W86087  40.922  16.568   2.248
17694W        W86088   1.966  38.041   3.930
17695W        W86089   8.350  33.390  11.420
17696W        W86090   6.212  14.720   0.721
17697W        W86091  39.833  30.401  12.978
17698W        W86092  15.004   8.190  10.950
17699W        W86093   7.433  43.737  11.047
17700W        W86094  22.128  31.970   0.999
17701W        W86095  40.299  24.187  10.917
17702W        W86096  15.569  32.951  10.656
17703W        W86097  30.496   7.431   2.896
17704W        W86098  28.971  21.188   4.141
17705W        W86099  35.458   4.916  11.396
17706W        W86100   9.296  36.099  14.331
17707W        W86101  10.347  33.065  12.382
17708W        W86102  15.042  41.830   2.679
17709W        W86103   9.451  27.010   5.049
17710W        W86104   8.125  27.677  12.113
17711W        W86105  20.207  15.535   2.008
17712W        W86106  18.526  26.015   1.774
17713W        W86107  18.518  10.306   1.371
17714W        W86108   7.285  35.525   3.795
17715W        W86109  14.531  17.666   1.814
17716W        W86110  35.478  36.823  11.717
17717W        W86111  36.622   7.707   2.523
17718W        W86112  38.399   7.402   4.672
17719W        W86113  36.066   3.416  10.516
17720W        W86114  41.065  28.561   0.737
17721W        W86115  24.969  12.604   2.703
17722W        W86116   2.421   2.304   2.192
17723W        W86117   2.921   5.344   1.707
17724W        W86118  31.935  30.519  14.968
17725W        W86119   1.892  17.131  13.950
17726W        W86120  11.280  33.203   3.285
17727W        W86121  34.436  33.086  11.476
17728W        W86122  25.974  12.769   2.730
17729W        W86123  37.515  21.667   1.456
17730W        W86124   8.619  38.452   2.775
17731W        W86125  22.040   2.094   3.975
17732W        W86126  41.991   5.245  11.218
17733W        W86127   8.944  25.795  10.310
17734W        W86128   5.970  13.799  14.628
17735W        W86129  23.130  37.335   3.150
17736W        W86130  43.848  10.284   4.428
17737W        W86131  33.976  32.881  13.236
17738W        W86132  39.426  16.568   3.410
17739W        W86133  29.206  15.626   2.616
17740W        W86134  19.853  41.578   1.650
17741W        W86135  16.853   8.763  14.132
17742W        W86136  13.847   3.277   3.724
17743W        W86137  44.863  44.546   2.003
17744W        W86138  15.807  39.461   1.332
17745W        W86139  18.216  25.030  10.254
17746W        W86140  11.194   3.790   0.883
17747W        W86141  12.789  29.594  14.001
17748W        W86142  25.061  23.705   3.963
17749W        W86143   5.860  44.041  11.625
17750W        W86144  44.239  10.777   3.332
17751W        W86145   6.137   5.416   5.537
17752W        W86146  18.369  19.008  12.741
17753W        W86147   1.369  35.140  11.647
17754W        W86148  22.633   3.255   2.767
17755W        W86149  40.839  34.994  11.871
17756W        W86150  35.319  33.610  12.933
17757W        W86151  10.519  23.648  11.125
17758W        W86152   0.481  30.712  10.937
17759W        W86153  29.988   8.433  10.381
17760W        W86154  23.960  16.647  14.768
17761W        W86155  42.002  41.295  12.119
17762W        W86156  30.589  28.401   4.096
17763W        W86157  42.336  16.324  10.707
17764W        W86158  35.205  32.581   1.550
17765W        W86159  42.898  15.186   1.290
17766W        W86160   3.468  44.718  13.261
17767W        W86161  27.050  41.864   0.989
17768W        W86162   7.644  39.070   2.340
17769W        W86163  33.971   8.425   3.279
17770W        W86164  18.608  43.492  11.416
17771W        W86165  25.513  15.744  11.094
17772W        W86166  34.238  15.224   1.806
17773W        W86167   1.623  11.034   0.737
17774W        W86168  44.297  23.526   0.306
17775W        W86169  39.632  44.863  12.003
17776W        W86170  33.714  18.752  13.315
17777W        W86171   1.235  12.420   1.003
17778W        W86172   1.193  12.725   0.150
17779W        W86173  16.994  16.093   1.679
17780W        W86174  32.130   6.020  13.903
17781W        W86175  10.498  32.406  14.728
17782W        W86176   5.353  34.899  14.060
17783W        W86177   4.438   6.217   3.672
17784W        W86178  39.878  25.546  11.609
17785W        W86179  24.316  28.876   2.724
17786W        W86180  25.110  32.538   4.205
17787W        W86181  19.295   2.206   4.117
17788W        W86182  29.949   7.293  14.600
17789W        W86183   0.341   7.355   3.355
17790W        W86184  33.400   2.847   3.095
17791W        W86185  13.170   0.278   4.685
17792W        W86186  44.634   2.299  12.932
17793W        W86187  16.143  21.331   1.470
17794W        W86188  31.995   5.884  10.268
17795W        W86189  12.348  31.549   0.286
17796W        W86190  44.529  29.495  12.415
17797W        W86191  37.954  42.360  12.175
17798W        W86192  40.344   4.358  12.956
17799W        W86193   7.278  37.979   3.932
17800W        W86194  15.644   9.887   0.069
17801W        W86195  13.358  36.100   0.897
17802W        W86196   3.968   4.508  13.401
17803W        W86197   4.269  29.473  11.937
17804W        W86198   0.334   3.543   0.545
17805W        W86199  39.043  24.122   5.284
17806W        W86200  21.511  39.084  12.135
17807W        W86201  43.763  33.002  12.226
17808W        W86202  30.304   4.936  13.304
17809W        W86203  24.701  41.710   3.239
17810W        W86204  18.743  42.041   4.651
17811W        W86205   3.307  28.357   4.143
17812W        W86206   3.125   6.230  12.470
17813W        W86207  10.660  22.886  13.817
17814W        W86208  18.221  34.998   0.711
17815W        W86209   9.910  22.266  11.831
17816W        W86210  44.894  42.511   3.622
17817W        W86211  32.226  38.690   9.733
17818W        W86212  22.697  11.234  14.506
17819W        W86213  11.858   4.709  10.977
17820W        W86214  17.121  20.584   0.974
17821W        W86215  40.127  28.584   3.177
17822W        W86216   8.628  14.348   0.545
17823W        W86217  18.737  44.413  10.378
17824W        W86218   8.830  18.722  12.020
17825W        W86219  35.386   9.841   3.704
17826W        W86220   2.031  37.323  13.433
17827W        W86221  13.252  15.818  11.670
17828W        W86222  25.009   4.197   1.275
17829W        W86223  26.002  37.570   3.298
17830W        W86224   8.447  16.665  10.521
17831W        W86225   7.312  41.981  10.715
17832W        W86226  19.573  40.875   4.443
17833W        W86227   7.950   9.175   2.835
17834W        W86228  16.819  31.098   1.822
17835W        W86229  16.225  41.177   4.627
17836W        W86230  35.829  33.014  14.978
17837W        W86231  30.721  21.214  11.249
17838W        W86232  36.428   9.911  14.354
17839W        W86233   8.300   1.227  14.310
17840W        W86234   8.843  20.369   1.197
17841W        W86235  27.315  11.838  10.142
17842W        W86236  36.614  41.746  13.782
17843W        W86237  11.720  17.091  13.835
17844W        W86238   0.477  17.987   2.952
17845W        W86239  17.311  14.121   1.273
17846W        W86240   0.227  37.759   0.423
17847W        W86241  39.850  21.099   0.482
17848W        W86242   1.590  15.662  14.869
17849W        W86243  18.309  21.224   1.741
17850W        W86244  13.734  36.209   4.470
17851W        W86245   4.902   3.718   3.643
17852W        W86246  18.262  39.627  13.762
17853W        W86247  34.869  21.587  11.688
17854W        W86248   4.686   2.560  10.545
17855W        W86249  29.017   6.649   1.425
17856W        W86250  43.495  25.526  10.804
17857W        W86251   2.906  25.999  13.800
17858W        W86252   7.892   9.132   3.663
17859W        W86253  37.661  44.426   2.605
17860W        W86254  25.619  35.952  10.717
17861W        W86255   3.924  31.758  11.327
17862W        W86256  33.910  36.366   2.740
17863W        W86257  39.093  29.680   1.370
17864W        W86258  28.174  39.198   1.423
17865W        W86259  19.213  13.724   4.106
17866W        W86260  39.080  44.839  12.012
17867W        W86261  23.402  41.309  12.872
17868W        W86262  32.152  35.903  11.438
17869W        W86263   7.605  32.579  14.939
17870W        W86264  12.385   7.300  12.870
17871W        W86265  25.289  38.976   0.315
17872W        W86266  22.637   5.112   0.991
17873W        W86267  22.723  22.278   2.151
17874W        W86268   1.999  33.900   4.411
17875W        W86269  10.304  11.991  11.596
17876W        W86270  11.213  16.042  13.598
17877W        W86271  42.101  40.454   0.956
17878W        W86272  41.250  24.600  11.220
17879W        W86273  24.762  16.001   1.077
17880W        W86274  30.758  27.271   1.950
17881W        W86275  40.454  12.424   1.319
17882W        W86276   6.258  32.448  14.517
17883W        W86277  29.550  34.183   1.266
17884W        W86278   0.490  10.859   3.811
17885W        W86279  30.737  23.924   4.667
17886W        W86280  31.460  24.203  14.827
17887W        W86281   6.321  25.780  14.759
17888W        W86282   5.507  20.741  11.106
17889W        W86283  24.263   0.776  10.442
17890W        W86284  28.132  14.610   4.424
17891W        W86285   9.528  39.638   2.721
17892W        W86286  13.809  38.578   1.967
17893W        W86287  26.910  29.300  12.547
17894W        W86288  19.793  38.907   4.992
17895W        W86289   0.585  24.647  13.397
17896W        W86290  28.166  18.727  13.467
17897W        W86291  20.545  29.813  13.482
17898W        W86292  29.720  25.048   1.532
17899W        W86293  37.439  37.517   0.129
17900W        W86294  18.748  24.059   3.831
17901W        W86295  31.446  29.735   1.388
17902W        W86296  24.711  10.794   3.240
17903W        W86297  13.286  40.461   0.295
17904W        W86298  40.876  39.851   1.002
17905W        W86299  34.164  39.780  10.872
17906W        W86300  12.574   0.873   4.457
17907W        W86301  34.609  18.850  10.930
17908W        W86302  33.674   3.710  11.797
17909W        W86303  25.625   0.402   4.702
17910W        W86304  18.716  18.589   3.869
17911W        W86305  28.690  22.219   3.514
17912W        W86306  21.625  11.353  11.403
17913W        W86307   4.932   8.646  13.996
17914W        W86308  20.996  25.241   2.701
17915W        W86309  32.406   1.384   0.456
17916W        W86310  10.172  25.980  13.601
17917W        W86311   8.375  13.843  11.136
17918W        W86312  13.500   0.005   3.711
17919W        W86313  15.554   4.729   4.369
17920W        W86314  12.247  22.673  11.969
17921W        W86315   8.538   1.997  11.810
17922W        W86316  30.347   8.862  14.715
17923W        W86317   9.477  38.510   3.111
17924W        W86318  20.060  10.432   0.539
17925W        W86319  31.003  43.959  14.977
17926W        W86320  19.236  21.550   1.819
17927W        W86321  17.779  22.454   3.163
17928W        W86322  29.550  30.831   2.119
17929W        W86323  42.078  23.869   2.620
17930W        W86324   7.674  32.887   2.639
17931W        W86325  33.077  14.693   1.497
17932W        W86326  36.851   2.744  13.645
17933W        W86327   9.245  44.772   4.578
17934W        W86328  36.073  11.891  12.526
17935W        W86329  43.268  20.767  13.473
17936W        W86330   4.450  38.262  11.151
17937W        W86331  19.170  38.608   3.735
17938W        W86332  29.591  33.517   2.686
17939W        W86333  42.326  22.410  10.693
17940W        W86334  15.741  22.102  12.060
17941W        W86335  39.790  20.670  12.154
17942W        W86336  18.276   3.782  10.603
17943W        W86337   9.785  44.867   4.537
17944W        W86338   0.723  29.245   4.968
17945W        W86339  10.458  33.361   2.701
17946W        W86340  26.573  42.268  13.616
17947W        W86341  20.060   2.805  13.367
17948W        W86342  38.596  10.732  12.915
17949W        W86343  13.388  19.155  11.099
17950W        W86344   1.470  20.049   0.054
17951W        W86345  11.312  31.400  13.051
17952W        W86346  44.567  17.140  14.578
17953W        W86347  20.862   4.190  12.885
17954W        W86348   4.482   2.197  10.238
17955W        W86349  15.066  21.943  14.418
17956W        W86350  32.805  34.684  14.896
17957W        W86351  27.183  22.888  11.039
17958W        W86352   0.643  41.908  11.114
17959W        W86353  33.422  22.504   3.114
17960W        W86354  11.684  37.322  12.879
17961W        W86355  24.195  32.568   0.198
17962W        W86356  25.905  25.559  10.694
17963W        W86357  30.524  34.542   3.574
17964W        W86358  42.413   5.904  13.884
17965W        W86359  12.072  40.904   4.513
17966W        W86360  27.135  26.059   1.704
17967W        W86361  22.187  21.324   0.693
17968W        W86362  42.208  10.694  10.743
17969W        W86363  18.992  43.592   1.005
17970W        W86364  35.322  44.510  12.552
17971W        W86365  28.389  20.255  14.236
17972W        W86366  20.748  14.894   2.666
17973W        W86367  40.025  16.163  11.525
17974W        W86368   8.117  30.177  12.591
17975W        W86369  26.969  15.841  13.248
17976W        W86370   7.146  18.601  11.524
17977W        W86371  41.371  18.835  10.752
17978W        W86372  33.440  16.311   4.846
17979W        W86373   5.012  44.425  11.137
17980W        W86374  31.619   1.060  11.757
17981W        W86375  15.394  13.178  14.752
17982W        W86376  38.056  41.368   0.702
17983W        W86377  13.330  39.624   3.505
17984W        W86378  43.729  10.190   2.164
17985W        W86379  35.022  24.636   2.376
17986W        W86380   8.325  34.103   0.017
17987W        W86381  34.955  18.193   3.483
17988W        W86382   7.392  38.485   1.055
17989W        W86383  35.395  10.146  13.761
17990W        W86384  28.601  42.164  13.800
17991W        W86385  11.084  21.346  14.307
17992W        W86386  24.038   8.227   3.754
17993W        W86387  23.117  20.514   1.485
17994W        W86388  12.556  33.083   0.838
17995W        W86389  37.599   4.827   2.710
17996W        W86390  15.111  10.315   4.527
17997W        W86391  17.606  43.369  13.595
17998W        W86392  21.250   2.031   0.008
17999W        W86393   4.124  37.066  10.795
18000W        W86394   0.296  38.360  13.721
18001W        W86395  17.536   7.975   3.606
18002W        W86396  26.157  41.224   3.339
18003W        W86397   2.366   8.850   3.746
18004W        W86398  25.941  43.515  12.115
18005W        W86399  16.990   4.158   2.690
18006W        W86400  16.114   4.867   2.818
18007W        W86401  16.590  13.867  10.774
18008W        W86402  44.809  16.756   4.248
18009W        W86403  36.057  41.421   0.303
18010W        W86404  11.744  16.993  12.917
18011W        W86405  11.363  10.572   1.842
18012W        W86406   6.523  22.600   2.180
18013W        W86407  20.960  11.763   1.694
18014W        W86408  34.367  21.084  12.400
18015W        W86409   4.815  20.636   4.612
18016W        W86410   0.137  28.905  12.855
18017W        W86411  43.314  38.677   2.571
18018W        W86412  30.307   2.491   2.736
18019W        W86413   8.804  35.592   2.353
18020W        W86414  18.958  15.179  12.022
18021W        W86415  38.506  33.855   3.946
18022W        W86416  19.281   5.891  11.429
18023W        W86417  36.557   6.368   9.763
18024W        W86418  35.308  38.617   0.428
18025W        W86419  27.061   7.504  11.754
18026W        W86420  36.063  26.228  13.805
18027W        W86421   0.840   7.203   2.123
18028W        W86422  30.014  34.422  10.740
18029W        W86423  38.971  22.901  13.332
18030W        W86424  40.755   8.107  11.999
18031W        W86425  21.022  27.394   3.785
18032W        W86426   7.085  21.225  11.943
18033W        W86427   8.227  26.656  12.021
18034W        W86428  31.089  28.957   4.225
18035W        W86429  27.949   3.808   1.299
18036W        W86430  11.324  39.447  14.349
18037W        W86431  35.574  42.851  11.895
18038W        W86432  33.837  43.337   1.709
18039W        W86433   2.399  36.521   0.513
18040W        W86434  44.124  32.699  12.423
18041W        W86435  19.193  30.159  10.741
18042W        W86436  40.965  30.451   4.611
18043W        W86437  19.206  38.357  14.248
18044W        W86438   0.016  31.943   0.553
18045W        W86439  28.417  44.690   1.224
18046W        W86440  26.022   9.257  13.017
18047W        W86441   1.671  12.721   4.502
18048W        W86442   5.467  21.320   4.589
18049W        W86443  37.477  11.194   3.161
18050W        W86444  22.233  17.160   1.656
18051W        W86445   0.986  24.609   3.559
18052W        W86446  29.491  43.511   2.390
18053W        W86447  31.847  33.917   4.537
18054W        W86448  33.428  32.659   3.239
18055W        W86449  11.897  37.450   4.581
18056W        W86450   0.690  32.384   2.521
18057W        W86451   2.376   0.260   1.306
18058W        W86452   8.685  31.583  10.741
18059W        W86453  34.402  28.090   3.313
18060W        W86454   6.179   9.554  14.687
18061W        W86455  31.095  10.840   0.045
18062W        W86456  12.833  16.706   3.212
18063W        W86457   1.923  44.054   1.421
18064W        W86458  10.163  17.914  11.581
18065W        W86459  19.418  28.645  10.795
18066W        W86460   7.974  13.333   3.204
18067W        W86461  18.229   6.176  13.138
18068W        W86462   0.375  44.838   1.964
18069W        W86463   7.909  16.842   3.641
18070W        W86464  24.614  30.492  10.380
18071W        W86465  35.302  42.122   4.539
18072W        W86466  19.575   0.216   4.632
18073W        W86467  30.589   5.145   1.734
18074W        W86468   4.192  41.659   3.769
18075W        W86469  32.163  41.779   2.287
18076W        W86470  39.323   3.975  10.555
18077W        W86471  34.177  22.701  11.088
18078W        W86472  34.419  33.857  12.177
18079W        W86473  20.773   7.278   2.475
18080W        W86474  44.020   1.571  10.946
18081W        W86475  43.620  28.128   0.321
18082W        W86476  21.736  38.997  14.431
18083W        W86477  33.973  14.263  14.356
18084W        W86478  33.489  31.929   3.725
18085W        W86479  10.128  22.208  10.742
18086W        W86480  15.516  28.851  11.478
18087W        W86481  36.542  14.875   3.744
18088W        W86482  38.790   1.539   3.231
18089W        W86483  16.144  14.576   3.820
18090W        W86484  35.329  11.104  11.151
18091W        W86485   5.212  41.777  10.715
18092W        W86486  33.009  37.521   2.138
18093W        W86487   4.587   7.956   4.014
18094W        W86488  39.002   4.781  10.937
18095W        W86489  20.657   2.480  14.578
18096W        W86490  10.632  35.013  11.843
18097W        W86491  42.555  19.828  13.450
18098W        W86492  34.500  26.141   0.802
18099W        W86493  13.724  26.862  12.109
18100W        W86494   2.249  11.812   4.569
18101W        W86495   4.960  10.719  11.066
18102W        W86496  25.100  24.927  13.538
18103W        W86497  23.471   6.184   1.688
18104W        W86498  39.493  27.526  14.101
18105W        W86499   5.691  41.030   2.193
18106W        W86500  30.919  21.366  14.771
18107W        W86501  18.131   9.783  12.028
18108W        W86502   1.393   7.471   3.446
18109W        W86503  16.268  44.400   2.476
18110W        W86504  31.039  31.067   2.866
18111W        W86505  30.420  10.317   1.498
18112W        W86506  42.209   9.688   2.406
18113W        W86507   9.760   3.740  13.968
18114W        W86508  33.860  21.766   1.749
18115W        W86509  21.484  35.926   1.400
18116W        W86510  21.253  26.084  11.446
18117W        W86511  20.489  39.723  11.028
18118W        W86512  32.107  31.313   2.174
18119W        W86513   0.014   9.594   3.787
18120W        W86514  10.145  36.153  10.876
18121W        W86515   5.348   7.694   2.316
18122W        W86516  18.593  37.591   3.226
18123W        W86517  15.812  41.945  13.863
18124W        W86518  17.196  35.101  10.478
18125W        W86519  40.368  40.453   2.264
18126W        W86520  38.337  29.622  13.895
18127W        W86521  23.974  39.902  12.855
18128W        W86522  14.207  35.348  12.670
18129W        W86523  29.657  32.622   0.768
18130W        W86524  12.161  20.592  14.757
18131W        W86525  13.579  17.717  14.405
18132W        W86526  12.165  37.583  11.256
18133W        W86527  19.160  12.222   2.709
18134W        W86528   8.166   4.862   2.678
18135W        W86529  34.459  22.569  11.522
18136W        W86530  23.141  16.894   0.362
18137W        W86531  25.896  36.100  10.301
18138W        W86532  19.186  17.702   3.919
18139W        W86533  14.727  31.807   0.170
18140W        W86534  19.107   8.563   0.450
18141W        W86535  10.933  26.537  12.776
18142W        W86536  36.191   6.736   3.664
18143W        W86537  14.127  15.375   2.639
18144W        W86538  16.087   1.488   1.410
18145W        W86539  14.879  16.239   9.914
18146W        W86540  21.138  22.558   3.937
18147W        W86541  43.989   7.750  14.393
18148W        W86542  19.503  19.036   2.618
18149W        W86543  22.179  18.704  12.272
18150W        W86544  34.865   5.668   3.714
18151W        W86545   3.584  15.774  10.271
18152W        W86546  24.223  37.064  13.385
18153W        W86547   4.792  13.577   3.919
18154W        W86548  16.720  13.371  10.752
18155W        W86549  42.607  18.331  13.803
18156W        W86550  30.128   7.317  14.096
18157W        W86551  16.682  18.067   0.470
18158W        W86552  19.212   6.302   3.297
18159W        W86553  24.075  19.866  12.621
18160W        W86554  17.256   2.516   0.831
18161W        W86555  39.790   5.894  13.792
18162W        W86556  14.542  39.779  12.964
18163W        W86557  17.103   3.833   4.320
18164W        W86558   7.402  20.051  14.504
18165W        W86559  22.220  12.588   2.901
18166W        W86560  21.716  32.665   1.343
18167W        W86561  22.051  32.656  11.415
18168W        W86562  41.761  28.526  12.399
18169W        W86563  17.205  38.792   1.790
18170W        W86564  30.104  42.495   3.635
18171W        W86565  14.772  29.924  14.821
18172W        W86566  31.399  43.081   3.169
18173W        W86567   2.342  37.677  13.134
18174W        W86568   1.442  17.307  11.399
18175W        W86569  28.004  22.622   0.380
18176W        W86570  21.515  22.198  11.923
18177W        W86571  20.422  19.319   1.727
18178W        W86572   1.517  43.027  13.490
18179W        W86573  16.342  36.084  10.932
18180W        W86574  18.794   3.113   0.753
18181W        W86575  35.288  30.572  14.362
18182W        W86576  43.290  15.586   2.583
18183W        W86577  27.957  17.239   5.108
18184W        W86578  19.195  21.253   1.380
18185W        W86579  18.667  19.290   1.434
18186W        W86580  15.037  16.416   3.647
18187W        W86581  38.223  12.269   2.894
18188W        W86582   3.699  44.221  11.155
18189W        W86583  39.363  27.096  11.100
18190W        W86584   8.966  21.713  14.310
18191W        W86585  10.168  41.509  10.216
18192W        W86586  36.092  40.740  12.397
18193W        W86587  38.104   0.748  12.750
18194W        W86588  26.968  33.791   2.248
18195W        W86589  44.413  23.507   3.565
18196W        W86590  24.560  36.016   0.332
18197W        W86591   8.877  28.570   2.292
18198W        W86592  33.414  43.082  13.907
18199W        W86593   7.113   8.596  12.958
18200W        W86594   9.366  11.599  11.022
18201W        W86595  27.418   1.430   2.827
18202W        W86596  17.206  37.992  14.855
18203W        W86597  34.313   8.117  12.298
18204W        W86598  42.399  32.577   0.353
18205W        W86599  15.363   9.244   2.272
18206W        W86600   2.710  37.089  11.565
18207W        W86601  43.275   3.037  14.957
18208W        W86602  24.149   7.331   4.806
18209W        W86603   2.597  28.740   3.801
18210W        W86604  41.947  34.871   0.783
18211W        W86605  38.324  10.527  13.938
18212W        W86606  30.010   4.493   0.471
18213W        W86607  31.459  34.085   0.441
18214W        W86608  11.054  34.383  14.458
18215W        W86609  10.306   2.487  12.427
18216W        W86610  20.538  33.564   2.705
18217W        W86611  31.439  20.580  13.038
18218W        W86612  14.249  17.054  10.683
18219W        W86613  32.918  33.371   0.075
18220W        W86614  12.071  30.466   2.896
18221W        W86615   8.312   0.776   4.558
18222W        W86616  17.739   6.137  14.847
18223W        W86617  35.143  42.466   0.281
18224W        W86618  15.633  44.826   4.907
18225W        W86619  12.351   8.815  11.123
18226W        W86620  34.509  25.230   2.502
18227W        W86621  35.961   0.322  12.025
18228W        W86622  30.135  42.602  10.669
18229W        W86623  28.497  43.592  12.150
18230W        W86624  33.889   2.188   4.344
18231W        W86625  15.880  12.257   0.353
18232W        W86626  16.794  10.529   2.198
18233W        W86627  16.265  19.540   3.570
18234W        W86628  34.549   3.046   2.256
18235W        W86629   8.814  43.420   4.524
18236W        W86630  14.349  21.872  12.018
18237W        W86631  32.714   0.467  12.423
18238W        W86632  31.870  13.943   2.813
18239W        W86633  41.252   5.062   4.555
18240W        W86634  36.033  43.056  12.065
18241W        W86635  32.132   1.977  14.438
18242W        W86636  31.826  20.089  11.126
18243W        W86637  21.865  13.266   0.731
18244W        W86638  30.712  11.163  13.081
18245W        W86639   9.685   1.730  10.621
18246W        W86640   8.223   3.715  14.359
18247W        W86641  34.483  38.497   0.200
18248W        W86642  44.242  11.821  14.449
18249W        W86643  42.503  22.600   4.124
18250W        W86644  20.661   7.363   4.829
18251W        W86645  19.029  29.076  10.027
18252W        W86646  16.359   7.752   4.977
18253W        W86647   4.270  38.742  14.907
18254W        W86648   3.518  17.201  11.071
18255W        W86649  28.153  22.020   2.627
18256W        W86650   3.272  28.972  14.245
18257W        W86651  38.048  33.541  13.129
18258W        W86652  25.775  30.152  12.090
18259W        W86653  40.108   7.141   4.031
18260W        W86654   4.456  19.232  14.486
18261W        W86655   8.922  33.149   3.317
18262W        W86656  38.320  15.132  13.966
18263W        W86657  19.594   3.755   3.949
18264W        W86658  23.569   5.074   0.896
18265W        W86659  19.259  25.160  13.198
18266W        W86660  27.594  15.784   4.496
18267W        W86661  24.599  23.091   4.547
18268W        W86662  42.034  20.157   3.330
18269W        W86663  19.497  28.622   3.969
18270W        W86664  24.920   8.093  13.925
18271W        W86665  34.070  29.398  10.988
18272W        W86666  32.726  41.691  11.703
18273W        W86667  39.327  39.965  11.988
18274W        W86668  36.958   9.599   2.887
18275W        W86669   0.913  31.937   5.285
18276W        W86670  24.637  43.747  13.864
18277W        W86671  23.830  26.125   0.212
18278W        W86672  18.838  29.991  13.732
18279W        W86673   0.460  16.981  12.084
18280W        W86674   9.189  15.067   2.663
18281W        W86675   3.191  32.878   3.363
18282W        W86676  20.790   6.629  10.780
18283W        W86677   6.300  18.266   9.965
18284W        W86678  34.455   4.745   0.340
18285W        W86679   3.143  43.018   2.876
18286W        W86680  18.020  34.037   3.181
18287W        W86681  31.995  20.643   2.835
18288W        W86682   7.540  16.435  12.566
18289W        W86683  41.934  40.363  14.092
18290W        W86684  10.772  33.156   4.192
18291W        W86685  11.768  18.792   0.064
18292W        W86686  20.611  12.855   3.077
18293W        W86687  13.541  23.032   1.451
18294W        W86688  19.801  28.955  12.990
18295W        W86689  34.693  35.990  10.762
18296W        W86690  41.182   5.322  13.022
18297W        W86691   8.178   4.813   9.725
18298W        W86692   1.500  10.262   0.271
18299W        W86693  38.364  13.352   1.584
18300W        W86694  27.105  20.506  11.895
18301W        W86695  44.113   9.781  12.436
18302W        W86696  33.996  38.402   1.670
18303W        W86697   6.024  28.869   2.350
18304W        W86698  22.542  33.953   1.659
18305W        W86699  39.344  24.436  14.413
18306W        W86700  16.797  44.367   3.718
18307W        W86701  39.072  20.574  12.584
18308W        W86702  30.269  20.910   4.806
18309W        W86703   6.344  12.227  13.768
18310W        W86704   7.718  18.242   4.641
18311W        W86705  13.867  32.601  13.832
18312W        W86706  27.583  38.552   1.673
18313W        W86707   6.992  39.903   2.454
18314W        W86708   6.333  38.560   3.979
18315W        W86709  39.893  28.455  12.797
18316W        W86710   2.765   7.222   3.643
18317W        W86711  29.993  19.479  11.488
18318W        W86712  22.030  19.493  13.335
18319W        W86713  31.609  35.918  11.387
18320W        W86714  33.442   8.486  11.659
18321W        W86715  15.422  38.392   0.978
18322W        W86716   3.791  24.216  12.569
18323W        W86717  30.510  20.064  12.730
18324W        W86718  13.032  17.700  14.405
18325W        W86719  30.916   7.646   1.490
18326W        W86720  31.672  30.445   1.920
18327W        W86721  33.337  25.000   3.745
18328W        W86722  42.076  23.289   0.443
18329W        W86723  32.785  43.839   2.459
18330W        W86724   2.407  33.612   2.805
18331W        W86725  33.974  12.012  11.391
18332W        W86726  29.115  38.201  14.307
18333W        W86727  23.944   6.289  12.355
18334W        W86728   4.544  16.574  12.626
18335W        W86729  41.476   1.980  12.041
18336W        W86730  10.210  15.820  14.061
18337W        W86731  12.181  38.778   1.324
18338W        W86732  15.294  39.086  13.865
18339W        W86733  21.622   2.187  13.599
18340W        W86734  11.435  16.806   1.564
18341W        W86735  18.735  19.834  13.309
18342W        W86736   1.365  43.302   1.259
18343W        W86737  11.572  12.633   3.126
18344W        W86738  19.300   6.246   1.979
18345W        W86739  31.564  21.227   4.445
18346W        W86740  16.218  34.121   2.287
18347W        W86741  28.263  28.784  11.092
18348W        W86742  23.287  19.543   2.727
18349W        W86743  19.252  33.586  12.791
18350W        W86744  42.602  39.469   2.714
18351W        W86745  34.437  36.465   2.747
18352W        W86746  37.508  36.495  10.796
18353W        W86747  27.646  34.651   3.737
18354W        W86748  38.115  39.281   0.276
18355W        W86749  17.314  44.285   2.934
18356W        W86750   2.039  26.439   0.494
18357W        W86751  19.655  41.288   4.159
18358W        W86752  35.868  40.467  13.553
18359W        W86753  43.302  35.313  12.442
18360W        W86754  44.545  10.189  10.685
18361W        W86755  16.222  28.486   1.738
18362W        W86756  44.367  38.359   0.926
18363W        W86757  24.629  40.424  14.230
18364W        W86758  41.949  26.264  12.903
18365W        W86759  21.053  13.575   1.802
18366W        W86760  38.430   7.906  12.221
18367W        W86761   5.513  25.938  13.328
18368W        W86762  20.238  40.832   1.762
18369W        W86763   6.923  16.415  14.277
18370W        W86764  41.306   6.683   3.403
18371W        W86765  42.099   2.097  12.319
18372W        W86766   1.304  36.427   0.421
18373W        W86767   0.446   2.886   1.662
18374W        W86768  39.980  37.865   3.760
18375W        W86769   1.465  31.723  12.547
18376W        W86770   9.891  35.577   0.405
18377W        W86771  14.694  27.165  14.435
18378W        W86772   6.145  38.364   3.514
18379W        W86773  29.212   5.925  11.379
18380W        W86774  36.032   7.639   1.905
18381W        W86775  23.805  44.098   3.829
18382W        W86776  25.730  35.072   2.141
18383W        W86777  19.220  24.309   0.785
18384W        W86778  23.765   3.901   2.381
18385W        W86779  22.431  32.865   0.238
18386W        W86780   6.080   9.138   3.770
18387W        W86781  27.181  30.128  13.592
18388W        W86782  41.809  39.697   2.519
18389W        W86783  38.492   5.810   0.876
18390W        W86784   3.583  17.583   2.284
18391W        W86785  40.177  24.556  13.437
18392W        W86786  12.920  28.448  11.472
18393W        W86787   6.492   8.387   4.222
18394W        W86788   7.932  15.269  14.364
18395W        W86789  15.196  17.829   3.582
18396W        W86790  36.169   0.740  10.421
18397W        W86791  39.520  37.020  12.185
18398W        W86792  10.155  17.193   0.431
18399W        W86793  26.474   0.239  13.360
18400W        W86794  19.179   7.345  11.176
18401W        W86795  11.740  20.960  13.857
18402W        W86796  25.167   3.084  10.961
18403W        W86797  10.895  15.713   1.743
18404W        W86798  10.722  14.166   1.346
18405W        W86799  21.944  18.579  12.714
18406W        W86800   6.479  16.763   0.831
18407W        W86801  30.895  16.589   3.634
18408W        W86802  12.648  42.561  11.430
18409W        W86803  42.570  18.222  11.980
18410W        W86804  15.935   2.754   3.272
18411W        W86805  40.443  39.477  11.461
18412W        W86806  30.132   8.316  12.370
18413W        W86807  10.150  37.402  14.270
18414W        W86808  19.157  42.987  14.427
18415W        W86809   0.610  24.934   4.552
18416W        W86810  11.404  14.237   0.541
18417W        W86811  12.261   6.285  10.220
18418W        W86812   9.657  24.822   0.723
18419W        W86813  21.140  22.775   1.877
18420W        W86814  13.890  14.771  13.868
18421W        W86815  33.096  31.414   0.287
18422W        W86816  33.351  18.720  10.615
18423W        W86817  41.253  15.484   2.743
18424W        W86818  38.784  23.689  10.705
18425W        W86819  35.834   4.974   0.857
18426W        W86820  39.759   8.917  14.913
18427W        W86821  14.104  25.933  13.713
18428W        W86822  44.808  16.063  11.186
18429W        W86823  23.281  37.733  11.922
18430W        W86824   5.329  30.605   0.978
18431W        W86825  27.980  36.962  13.820
18432W        W86826  13.887  21.825   3.659
18433W        W86827  18.668  29.017   4.431
18434W        W86828   5.724  26.242  10.714
18435W        W86829  35.091   0.510  11.097
18436W        W86830  16.223   2.771   3.871
18437W        W86831  35.796  32.505   4.643
18438W        W86832  34.094  44.033  13.195
18439W        W86833  35.200  15.898  11.576
18440W        W86834  37.579  40.906  13.165
18441W        W86835  30.521  34.502  12.955
18442W        W86836  41.290  27.995   3.316
18443W        W86837  17.952   2.754  14.760
18444W        W86838  44.456   1.248   2.303
18445W        W86839  19.210  20.159   0.330
18446W        W86840   7.625  40.125   1.766
18447W        W86841   4.342   2.485   0.605
18448W        W86842  33.427   5.802   3.581
18449W        W86843  38.308  36.501   1.509
18450W        W86844  15.993  39.092   4.227
18451W        W86845  21.638   0.790   4.182
18452W        W86846  34.074  14.062  11.412
18453W        W86847   6.679  14.851  11.596
18454W        W86848   5.185  41.817   0.597
18455W        W86849  38.818   4.620   4.633
18456W        W86850   3.704  14.256  12.113
18457W        W86851   4.236  22.543   2.285
18458W        W86852  17.146  44.181   0.715
18459W        W86853  32.788  24.550  11.531
18460W        W86854  25.573  42.807  12.539
18461W        W86855  26.092   4.021   4.537
18462W        W86856  26.277  27.652   1.792
18463W        W86857  28.074   5.736   3.807
18464W        W86858  30.880  23.768   4.178
18465W        W86859   3.557   7.227  12.106
18466W        W86860  12.274  37.685   2.100
18467W        W86861  39.997   9.680  13.962
18468W        W86862  29.833  23.570   3.198
18469W        W86863  30.180  44.937  14.541
18470W        W86864  42.347  26.448   3.303
18471W        W86865  15.707  36.655   3.490
18472W        W86866  41.425  14.800   1.285
18473W        W86867  42.227   2.845  14.899
18474W        W86868  37.502  42.720   5.027
18475W        W86869   4.932   5.621  12.989
18476W        W86870  20.228  12.842   0.460
18477W        W86871   8.891  37.247   0.988
18478W        W86872  15.358  30.542  13.815
18479W        W86873  37.395  16.275  11.313
18480W        W86874  12.624  39.015  14.266
18481W        W86875  14.415  29.177   2.844
18482W        W86876  15.152  11.723   3.219
18483W        W86877  21.201  19.042  12.477
18484W        W86878   0.505   7.615   2.342
18485W        W86879  24.296  19.798   1.938
18486W        W86880  40.806  15.548   2.473
18487W        W86881  12.587   7.644  14.909
18488W        W86882  34.665  27.683  12.505
18489W        W86883  26.193  18.738   1.778
18490W        W86884  30.112  25.977   0.400
18491W        W86885   8.727  18.235   3.770
18492W        W86886  23.651  11.233   2.678
18493W        W86887  32.385  37.783   0.848
18494W        W86888  27.509  42.948  14.285
18495W        W86889  18.569   8.076   0.869
18496W        W86890  31.743  24.676  11.062
18497W        W86891  39.655  42.767   4.892
18498W        W86892  36.335  22.488   4.594
18499W        W86893  41.954  10.007  14.570
18500W        W86894  17.358  25.093   4.605
18501W        W86895  44.012  35.139  10.903
18502W        W86896  43.661  37.006  14.836
18503W        W86897  44.941   5.150   3.332
18504W        W86898  30.115  30.377   2.509
18505W        W86899   1.947  36.513  10.492
18506W        W86900  37.226  29.834   2.203
18507W        W86901   5.397  26.131  12.055
18508W        W86902  43.918  30.905  13.924
18509W        W86903  18.676  15.816   1.046
18510W        W86904  35.636   2.451   4.815
18511W        W86905  24.282  11.807   1.389
18512W        W86906   3.705  13.342   3.901
18513W        W86907  36.861   5.386  10.719
18514W        W86908   7.914  17.644   0.409
18515W        W86909  16.753  41.489  11.219
18516W        W86910  35.104  19.141  11.556
18517W        W86911  44.766  34.451  14.979
18518W        W86912   2.788  24.089  11.194
18519W        W86913  20.734   8.621  14.708
18520W        W86914  17.291  23.790  12.455
18521W        W86915  22.590   2.804  12.091
18522W        W86916   7.872  14.586  14.917
18523W        W86917  23.636  42.938  11.682
18524W        W86918  19.498  29.179  10.300
18525W        W86919  16.820   7.779   1.698
18526W        W86920   2.770  44.819  11.939
18527W        W86921   6.370  33.436   0.820
18528W        W86922   2.685   2.185   2.733
18529W        W86923  12.497   1.418  12.507
18530W        W86924  20.581  36.037  10.787
18531W        W86925  22.810  25.235   2.227
18532W        W86926  39.911  17.080   0.785
18533W        W86927  16.116  41.010   2.119
18534W        W86928  11.430  38.460  14.347
18535W        W86929   8.747  39.992   4.946
18536W        W86930  19.125  33.101   0.293
18537W        W86931  21.742  38.325  11.038
18538W        W86932  24.698   7.816  13.500
18539W        W86933  24.015  32.068   0.290
18540W        W86934   9.323  38.894   1.397
18541W        W86935  28.653  44.474   0.819
18542W        W86936  40.143  17.236  13.503
18543W        W86937  20.625  28.593  12.891
18544W        W86938  34.813   2.665  14.518
18545W        W86939   4.911   4.793  14.982
18546W        W86940  18.476   1.854   3.170
18547W        W86941  44.504  27.961   0.841
18548W        W86942  44.474   3.221  13.866
18549W        W86943  18.131  18.221  13.311
18550W        W86944  38.884  37.123   1.306
18551W        W86945  41.031  41.925  11.093
18552W        W86946   8.014  17.268  11.458
18553W        W86947  19.537  35.072   2.736
18554W        W86948  23.468  33.904  11.470
18555W        W86949  18.258   8.264  14.396
18556W        W86950   0.237   5.233   2.741
18557W        W86951  43.773  22.695   0.100
18558W        W86952   1.581   1.810  11.793
18559W        W86953   9.861  18.346  14.724
18560W        W86954  37.839  14.523   3.495
18561W        W86955  14.526  12.010   1.801
18562W        W86956   9.172  17.769  13.783
18563W        W86957  11.681   1.964   0.773
18564W        W86958  29.747   6.521   0.756
18565W        W86959  34.296  27.118  14.003
18566W        W86960  42.483  17.324  12.220
18567W        W86961  19.639  36.981   2.749
18568W        W86962  21.091   9.390   0.877
18569W        W86963  30.455  16.442   1.830
18570W        W86964  42.269  16.136   3.257
18571W        W86965   3.873  15.583  12.493
18572W        W86966   3.631  43.412   0.047
18573W        W86967   0.941  14.640  10.903
18574W        W86968   4.413   0.567   1.738
18575W        W86969  17.790  28.165   2.286
18576W        W86970   5.386  44.442  12.937
18577W        W86971  44.887  24.165   4.600
18578W        W86972   1.246  21.692   1.785
18579W        W86973  29.907  27.905   0.395
18580W        W86974  24.454  13.819  12.520
18581W        W86975  12.577  14.784  10.536
18582W        W86976  28.528  43.984   0.947
18583W        W86977  31.087  22.624   0.509
18584W        W86978   6.941  23.871   4.538
18585W        W86979   9.365  34.490   1.936
18586W        W86980  25.895   1.227  12.974
18587W        W86981  44.753   4.317   0.933
18588W        W86982  37.965  22.052   3.271
18589W        W86983   8.985   9.751   0.847
18590W        W86984   6.649  30.659   5.043
18591W        W86985  16.096   7.459   1.459
18592W        W86986  14.100   6.287   3.000
18593W        W86987  23.844  23.615  11.936
18594W        W86988  28.372   5.838  12.443
18595W        W86989   1.666  23.541   2.757
18596W        W86990  38.866  27.568  12.849
18597W        W86991   7.185  37.743   2.446
18598W        W86992  32.953   8.329  10.377
18599W        W86993  43.062   5.978   2.324
18600W        W86994  31.902  20.964  13.902
18601W        W86995   3.017  12.158   2.474
18602W        W86996  37.612   0.101   4.204
18603W        W86997  13.813  42.873   2.808
18604W        W86998  33.438  19.986  10.181
18605W        W86999   9.463   8.353  13.081
18606W        W87000   3.677  26.960  12.171
18607W        W87001  27.312  16.053   3.782
18608W        W87002  33.890   8.378   0.687
18609W        W87003  20.101   2.672  12.335
18610W        W87004   0.920  15.566  12.632
18611W        W87005  15.848   5.311   1.797
18612W        W87006  21.436  34.222   1.490
18613W        W87007  11.136  33.416   1.303
18614W        W87008  37.153  24.173  14.789
18615W        W87009  44.754  32.504  11.413
18616W        W87010  36.366   9.315   1.684
18617W        W87011   6.924  20.783  10.544
18618W        W87012  12.373  25.125  10.775
18619W        W87013   0.800  29.094   4.449
18620W        W87014   4.426  27.592  11.662
18621W        W87015   4.766  30.922  14.979
18622W        W87016  39.157   1.721  14.011
18623W        W87017  39.025  20.291  13.042
18624W        W87018  34.078  36.569   1.168
18625W        W87019  25.959   7.555   1.285
18626W        W87020   2.088  29.680   1.307
18627W        W87021  28.159   1.764  10.724
18628W        W87022  41.350   8.683   1.480
18629W        W87023  22.842  40.138   4.560
18630W        W87024  11.291  27.213   3.056
18631W        W87025  25.497   9.139   4.083
18632W        W87026  27.466  33.730  14.524
18633W        W87027   2.654  35.938   2.096
18634W        W87028  43.004   8.842  14.745
18635W        W87029   9.047  20.987  11.089
18636W        W87030   1.669   0.473   2.504
18637W        W87031  36.580  33.487   2.706
18638W        W87032  25.661  42.686  10.287
18639W        W87033  38.442   0.545   0.481
18640W        W87034  31.966  42.799  14.934
18641W        W87035  29.917  20.428   3.568
18642W        W87036  37.388  29.660  10.662
18643W        W87037  33.928   5.896  13.670
18644W        W87038  25.814   5.642   0.288
18645W        W87039  35.841  19.008   1.898
18646W        W87040  18.362   9.436  14.965
18647W        W87041  30.430  11.835   3.253
18648W        W87042  36.105  36.858   1.964
18649W        W87043   2.259  33.714   3.622
18650W        W87044  36.901  15.817   4.304
18651W        W87045  14.956  16.121  13.851
18652W        W87046  13.577  34.235   2.877
18653W        W87047  10.053  17.769   3.209
18654W        W87048  30.036  44.519  13.797
18655W        W87049  10.626   7.801   2.442
18656W        W87050  40.560   9.190   3.235
18657W        W87051  11.536  13.261   0.824
18658W        W87052  27.508  14.033  13.859
18659W        W87053  44.926   6.378   1.000
18660W        W87054  12.992  25.733  13.946
18661W        W87055  37.317  32.876   1.779
18662W        W87056   1.795  10.360   2.209
18663W        W87057  24.145  21.863   0.475
18664W        W87058  37.838  10.740  13.851
18665W        W87059   7.736   9.646  11.134
18666W        W87060  20.032  38.836   0.126
18667W        W87061   5.430  44.210   0.736
18668W        W87062  44.760  35.006   3.286
18669W        W87063  21.294   4.862  10.911
18670W        W87064   8.833  35.950  13.306
18671W        W87065  17.521  15.714  14.076
18672W        W87066  29.144  29.967   3.338
18673W        W87067   7.246  38.336  14.847
18674W        W87068  38.017  33.611  12.619
18675W        W87069  15.059  38.141   0.473
18676W        W87070  34.119  37.457   3.599
18677W        W87071  18.019   8.281  12.508
18678W        W87072   7.754   2.956   1.716
18679W        W87073  31.479  17.134   1.065
18680W        W87074  18.755  44.196   3.658
18681W        W87075  30.628  25.152  13.462
18682W        W87076  22.794  40.127   2.185
18683W        W87077   4.725   9.294   0.961
18684W        W87078  44.011   7.138  12.974
18685W        W87079  28.506   3.263   4.499
18686W        W87080  16.655  11.224   0.544
18687W        W87081  27.908  35.037  14.996
18688W        W87082  44.007  42.580  13.495
18689W        W87083  12.179  40.431  13.832
18690W        W87084   2.457   0.046   0.855
18691W        W87085  10.302  42.512  11.849
18692W        W87086  44.841  33.294   2.450
18693W        W87087   9.136   2.861   5.482
18694W        W87088   8.268  13.405  12.456
18695W        W87089  44.003  21.488   2.043
18696W        W87090  32.636   2.506   3.937
18697W        W87091   0.790  19.714  13.974
18698W        W87092  22.002  29.029   0.064
18699W        W87093  33.137  26.566   2.219
18700W        W87094  27.476  35.930  14.746
18701W        W87095  37.992  18.676  14.655
18702W        W87096   7.712  15.136   4.677
18703W        W87097  44.242  11.546  12.553
18704W        W87098  27.066  14.361  13.855
18705W        W87099  22.767   8.358   2.722
18706W        W87100  41.529  11.147  14.840
18707W        W87101   2.584  43.366  10.463
18708W        W87102  16.628  17.283   3.595
18709W        W87103   8.012   9.319  14.508
18710W        W87104  44.844  35.588   9.786
18711W        W87105  25.554  34.170   0.307
18712W        W87106   6.226  26.749   0.112
18713W        W87107  25.903  40.983   0.185
18714W        W87108   7.967   0.397   0.545
18715W        W87109  32.388   2.210  10.767
18716W        W87110  42.637  15.334  11.562
18717W        W87111  32.522   0.140  10.760
18718W        W87112  34.261  29.029   4.637
18719W        W87113  23.203  28.881  11.889
18720W        W87114  23.630  28.099   4.527
18721W        W87115  36.496  15.442   2.908
18722W        W87116  42.439   5.436   1.947
18723W        W87117  10.274  29.880  11.002
18724W        W87118  16.631  35.812  12.734
18725W        W87119  14.152  23.541  12.978
18726W        W87120   3.481  37.525   4.287
18727W        W87121   7.039  12.215  12.939
18728W        W87122  34.378  36.423  12.947
18729W        W87123   0.711  43.692   1.390
18730W        W87124  43.400   9.273   4.173
18731W        W87125   3.022   2.937  11.651
18732W        W87126   9.369  42.502  12.588
18733W        W87127  30.097   9.353  12.901
18734W        W87128  23.678  29.727  14.306
18735W        W87129  12.195  41.881  13.924
18736W        W87130  39.107  43.943  11.980
18737W        W87131  25.128  26.109  14.005
18738W        W87132  20.462  35.407   3.286
18739W        W87133  20.771  41.335   3.352
18740W        W87134  28.687  15.408   0.788
18741W        W87135   8.307  27.467   2.738
18742W        W87136  25.005  21.475  12.913
18743W        W87137   5.044  34.928  12.625
18744W        W87138  17.874  33.996  10.461
18745W        W87139  40.493  20.530  11.233
18746W        W87140  24.454   0.452   2.619
18747W        W87141  25.484  30.932  13.271
18748W        W87142  13.558   8.828   3.159
18749W        W87143  39.479  37.992   3.881
18750W        W87144   6.900  12.948   0.586
18751W        W87145  26.651  34.493  13.011
18752W        W87146  23.180  16.107   4.202
18753W        W87147  24.750  26.075  14.815
18754W        W87148   6.263  23.221  13.534
18755W        W87149  44.881  11.630   1.810
18756W        W87150   3.315  19.828   2.875
18757W        W87151  25.075  43.619  11.712
18758W        W87152  18.100  36.458   2.336
18759W        W87153  44.818   9.287  13.007
18760W        W87154  27.058  21.547  10.256
18761W        W87155  41.460  36.800  12.161
18762W        W87156  15.664  38.814   0.833
18763W        W87157  42.893   5.288   3.563
18764W        W87158  31.163  39.310   4.585
18765W        W87159   0.441   5.177  11.237
18766W        W87160  25.260  14.911  13.919
18767W        W87161   0.004  41.057   3.578
18768W        W87162  27.369  20.112  11.262
18769W        W87163  42.281  27.956   3.169
18770W        W87164   3.791  36.387   3.796
18771W        W87165   9.673  18.829   3.520
18772W        W87166  40.824  30.183  12.132
18773W        W87167  40.998   3.803  13.390
18774W        W87168  42.974  42.673  14.456
18775W        W87169  14.959  38.338   4.296
18776W        W87170   4.376   0.081  14.917
18777W        W87171  14.887  43.432   3.039
18778W        W87172  28.203  26.214   4.323
18779W        W87173  24.215  20.180  13.505
18780W        W87174  33.575  41.459   1.182
18781W        W87175   8.879   5.607   0.297
18782W        W87176  27.272  34.273   1.353
18783W        W87177  31.599  42.352  14.545
18784W        W87178   4.702   4.557   9.777
18785W        W87179  37.845  20.800  12.612
18786W        W87180  12.299  11.335   3.511
18787W        W87181  25.646   0.255  13.788
18788W        W87182   1.510  42.512   4.529
18789W        W87183  24.262  38.589  10.460
18790W        W87184  25.829  41.665  13.519
18791W        W87185  43.279  36.909  11.803
18792W        W87186  22.791  44.287  14.962
18793W        W87187  36.988  18.694  13.555
18794W        W87188  26.784  29.329   1.729
18795W        W87189  40.953  42.439   4.790
18796W        W87190  39.287  37.538   3.199
18797W        W87191  12.088  38.505  13.549
18798W        W87192  37.335  21.393   3.242
18799W        W87193   9.076  18.296  12.988
18800W        W87194  22.582   7.032   2.774
18801W        W87195  10.719   0.477  12.998
18802W        W87196  20.608  25.957  12.969
18803W        W87197  41.955  28.221   4.595
18804W        W87198  13.458   7.872   2.244
18805W        W87199   2.512  23.737  14.867
18806W        W87200  15.213  16.436  10.271
18807W        W87201  22.238  25.417   0.351
18808W        W87202  41.890  11.863  13.522
18809W        W87203  25.101  40.529  13.365
18810W        W87204   0.928  39.157   3.547
18811W        W87205  25.962  37.552   1.787
18812W        W87206  38.428   6.450   3.660
18813W        W87207  24.484  25.687   0.776
18814W        W87208  30.321   4.636   0.859
18815W        W87209  23.726  25.774  13.468
18816W        W87210  11.180  32.995  11.406
18817W        W87211  15.168   1.055  10.684
18818W        W87212  38.325  13.168  14.300
18819W        W87213   9.711  17.830   4.515
18820W        W87214  25.843  35.492   0.526
18821W        W87215  28.561  15.716   4.141
18822W        W87216  24.545  38.749   2.741
18823W        W87217  20.783  15.582  10.582
18824W        W87218  44.435   4.912   4.168
18825W        W87219   9.610   6.910  11.229
18826W        W87220  26.947   6.808  13.591
18827W        W87221  30.175  41.967   4.839
18828W        W87222  40.877  39.329  10.524
18829W        W87223   1.575  33.033  13.287
18830W        W87224  44.471  13.340  11.651
18831W        W87225  15.714  43.277   5.016
18832W        W87226  18.772  36.520  12.163
18833W        W87227  15.164  13.475   0.482
18834W        W87228   0.979  42.804   2.646
18835W        W87229  31.542  38.450  11.632
18836W        W87230  10.690  34.088  12.787
18837W        W87231  30.057  16.574   3.327
18838W        W87232  22.566  27.036   3.350
18839W        W87233  36.338  19.728   4.551
18840W        W87234  38.302  23.678  11.966
18841W        W87235  39.058  16.346   1.281
18842W        W87236   8.692  42.362   3.143
18843W        W87237  30.034  25.150   3.902
18844W        W87238  40.276  43.249  11.101
18845W        W87239  32.619  32.029  12.832
18846W        W87240  15.368  19.445   3.015
18847W        W87241  23.429  44.974   2.188
18848W        W87242   6.492  37.507   4.055
18849W        W87243  34.696   3.784  13.500
18850W        W87244  22.205  37.307   0.269
18851W        W87245   3.763  29.902   1.657
18852W        W87246  22.063  37.959   0.020
18853W        W87247  24.910  34.051   3.253
18854W        W87248  33.099  44.362  14.878
18855W        W87249  18.774   8.319   2.393
18856W        W87250  33.861   8.208  11.441
18857W        W87251  19.977  26.631   2.311
18858W        W87252  44.265  22.756  10.822
18859W        W87253  38.488  38.263  14.257
18860W        W87254  21.809  23.917  12.206
18861W        W87255  35.331   7.610  13.188
18862W        W87256  34.531  33.961  13.974
18863W        W87257  36.476  34.494  12.940
18864W        W87258  40.799  12.306  14.749
18865W        W87259   5.183  27.165   4.488
18866W        W87260  24.224  13.635  11.224
18867W        W87261  39.290  37.911   2.842
18868W        W87262   7.883  28.548   3.266
18869W        W87263  30.661  37.014   0.190
18870W        W87264   3.253  32.552  14.359
18871W        W87265  24.145   8.582   3.168
18872W        W87266  19.674   9.947  11.642
18873W        W87267  34.324  23.087   2.776
18874W        W87268  33.427  37.034   1.185
18875W        W87269  25.678  12.327   4.149
18876W        W87270  26.886   5.848   0.374
18877W        W87271  18.748  21.112  13.288
18878W        W87272  19.064   8.696  14.924
18879W        W87273   5.768  23.651   3.431
18880W        W87274   0.429  35.692   1.777
18881W        W87275  17.098  21.357  14.834
18882W        W87276   0.623  41.819   1.261
18883W        W87277  39.692  27.382   3.657
18884W        W87278  14.224  39.388  10.169
18885W        W87279  41.108   5.310  13.893
18886W        W87280  30.326  33.428   3.232
18887W        W87281  31.394  12.359  12.011
18888W        W87282  44.939  18.502   0.137
18889W        W87283  17.171  26.104  14.827
18890W        W87284  11.821  15.798  13.349
18891W        W87285  36.094  16.256  13.272
18892W        W87286  34.256  35.564  11.933
18893W        W87287  23.064  18.769  12.646
18894W        W87288  41.297   6.929  10.691
18895W        W87289  10.150   1.559  14.976
18896W        W87290  23.819   3.236   1.415
18897W        W87291   2.879  43.300   0.755
18898W        W87292  36.093  14.595   5.090
18899W        W87293  22.145   4.815  11.456
18900W        W87294  28.040  37.537  11.195
18901W        W87295   3.231   9.751   3.376
18902W        W87296  23.986  28.064  12.523
18903W        W87297  28.560  34.767   1.154
18904W        W87298  40.865  15.003  11.678
18905W        W87299  27.171  39.253   1.524
18906W        W87300   0.675  39.300  14.478
18907W        W87301  22.201  38.482   3.210
18908W        W87302  15.911  22.020  11.575
18909W        W87303  41.494  36.790  12.697
18910W        W87304  28.598  11.412   3.379
18911W        W87305   5.298   2.166   0.819
18912W        W87306   9.659  43.028  13.615
18913W        W87307  38.408   8.823   3.571
18914W        W87308  22.051  15.113  13.994
18915W        W87309  31.310  28.195  13.409
18916W        W87310  38.504  34.673   2.715
18917W        W87311  27.126  21.147  13.806
18918W        W87312  39.162  19.073   2.195
18919W        W87313  15.481   8.652   3.919
18920W        W87314  18.773   4.678   4.615
18921W        W87315  34.407  30.969  13.541
18922W        W87316   2.728  15.714  12.084
18923W        W87317  40.313  22.675  14.634
18924W        W87318  28.497  36.040  14.815
18925W        W87319  12.794  28.529  13.865
18926W        W87320  38.671  43.416   1.751
18927W        W87321   1.348  38.849   3.640
18928W        W87322  16.710  26.591  13.460
18929W        W87323  25.994  29.406  11.153
18930W        W87324  34.011  33.449   2.203
18931W        W87325  35.610  24.112   4.404
18932W        W87326  24.789  15.617   4.649
18933W        W87327   8.687  13.931   2.802
18934W        W87328  23.058  41.499   2.838
18935W        W87329   3.196  10.892  12.099
18936W        W87330  36.168   4.669   4.401
18937W        W87331   6.290  36.431   0.996
18938W        W87332   1.309  27.722   2.176
18939W        W87333  44.907  15.855  14.675
18940W        W87334   2.017   8.237  12.423
18941W        W87335  30.416  44.747  13.052
18942W        W87336  44.531   1.085  13.603
18943W        W87337  35.919  44.856  14.078
18944W        W87338  23.403  12.673  10.731
18945W        W87339  10.542  34.157   3.845
18946W        W87340   9.744  10.012  13.246
18947W        W87341  41.526   6.437  11.549
18948W        W87342  39.249  12.303   4.193
18949W        W87343  41.075  35.926   4.221
18950W        W87344  36.518   7.298  10.320
18951W        W87345  43.415  20.209   1.479
18952W        W87346  30.110  24.188  11.307
18953W        W87347   5.803  29.202  13.989
18954W        W87348  20.143   7.784   4.358
18955W        W87349  11.315  37.000  12.645
18956W        W87350   0.308  15.187  11.930
18957W        W87351  29.626  39.493   1.900
18958W        W87352  37.404  13.060  12.926
18959W        W87353  24.957  16.734   1.941
18960W        W87354  40.911  29.634  13.470
18961W        W87355  26.672   1.864   4.930
18962W        W87356  43.808  24.512  14.003
18963W        W87357   3.305   2.428   5.000
18964W        W87358  25.092  36.405   0.989
18965W        W87359   8.162   2.383   3.611
18966W        W87360   5.252  11.634   1.889
18967W        W87361  17.230  31.588  12.355
18968W        W87362  42.924  30.120   4.644
18969W        W87363   7.204   4.244  11.479
18970W        W87364  33.075  11.273  10.671
18971W        W87365   5.222  42.186   0.209
18972W        W87366   0.711   8.840   9.964
18973W        W87367   3.767  23.643   1.875
18974W        W87368   7.318  37.263   2.593
18975W        W87369  39.831  27.986  12.446
18976W        W87370  32.906   5.678   0.395
18977W        W87371  25.983  42.557   4.979
18978W        W87372  13.907   0.139   3.397
18979W        W87373  19.354  33.809  14.592
18980W        W87374  19.149  14.084  13.706
18981W        W87375  43.318   1.716   2.739
18982W        W87376  23.906  12.794  10.722
18983W        W87377   9.742  31.548   3.708
18984W        W87378  20.063  23.951   3.987
18985W        W87379  40.315  18.279   1.401
18986W        W87380   1.371  20.732   2.975
18987W        W87381   1.176  23.716  13.845
18988W        W87382  18.718  15.743   0.518
18989W        W87383  17.161   9.666   1.764
18990W        W87384  16.121   1.060  12.120
18991W        W87385  23.204  27.202  11.548
18992W        W87386  27.665  38.918  13.059
18993W        W87387   0.442   4.252  12.518
18994W        W87388  23.992  24.719   1.356
18995W        W87389   8.357  10.890  13.785
18996W        W87390  34.374  25.682  10.906
18997W        W87391  44.413  26.882   1.267
18998W        W87392  16.710  33.290  13.501
18999W        W87393  22.990   6.845   4.491
19000W        W87394  21.880  24.724   2.729
19001W        W87395  26.492  14.663   1.965
19002W        W87396   1.967  44.491  10.760
19003W        W87397  15.542  15.627  14.458
19004W        W87398  18.953   7.745  14.376
19005W        W87399   3.735  42.333   0.855
19006W        W87400   2.813  35.560  10.708
19007W        W87401   1.727  31.069   1.193
19008W        W87402  24.410  36.293   3.356
19009W        W87403   1.475   5.754  12.975
19010W        W87404  42.857  21.002  12.910
19011W        W87405  36.459  41.230  10.919
19012W        W87406   7.391  27.039   1.410
19013W        W87407  14.383  31.098   4.246
19014W        W87408  44.951  30.086   4.117
19015W        W87409  10.841  32.144  14.445
19016W        W87410  35.605  21.565  12.178
19017W        W87411   1.175  26.176  12.835
19018W        W87412  24.154  41.830   0.863
19019W        W87413   0.881   0.411  14.853
19020W        W87414  25.423  19.096  11.890
19021W        W87415  20.598  33.996  14.885
19022W        W87416   0.243  30.871   2.863
19023W        W87417  40.058  26.273   3.424
19024W        W87418  25.451  28.042   1.935
19025W        W87419  26.514  32.377   2.631
19026W        W87420  41.973  43.744  13.025
19027W        W87421  18.561  43.505   4.760
19028W        W87422  41.192  34.835   1.318
19029W        W87423  31.515  32.722  13.487
19030W        W87424  26.500  28.638  14.780
19031W        W87425  43.360   4.625  14.126
19032W        W87426  27.482   3.813   4.534
19033W        W87427   8.325  43.538   1.609
19034W        W87428  15.606  28.650   1.912
19035W        W87429  30.506  20.190   2.943
19036W        W87430  23.762  17.692  12.327
19037W        W87431  18.310  10.081   0.496
19038W        W87432  28.457  31.363   4.661
19039W        W87433  41.817  30.984   3.135
19040W        W87434   6.723  12.716  11.062
19041W        W87435  27.628  41.042  12.905
19042W        W87436  28.381  34.138  13.103
19043W        W87437  36.943  12.569   2.375
19044W        W87438  28.369   3.881   0.404
19045W        W87439  42.570  28.357   0.954
19046W        W87440  29.060   8.228  11.325
19047W        W87441   4.373  23.134   0.424
19048W        W87442   7.546  15.159  10.569
19049W        W87443   7.875  41.926   2.807
19050W        W87444  21.083  27.571  11.076
19051W        W87445  41.290   2.778  12.316
19052W        W87446  42.701  13.208  12.044
19053W        W87447  16.258   6.750   4.055
19054W        W87448  40.042  11.004   2.799
19055W        W87449  29.960   5.959  12.346
19056W        W87450  36.358  30.771   4.194
19057W        W87451  34.102  24.145   0.753
19058W        W87452  17.247   5.269  14.802
19059W        W87453  13.588  24.999  14.415
19060W        W87454  43.976  15.514  13.091
19061W        W87455  18.636  19.208   3.194
19062W        W87456  15.186  10.672   3.181
19063W        W87457  43.047  12.138   4.891
19064W        W87458  41.495  18.023  14.641
19065W        W87459  30.819  15.224  14.924
19066W        W87460  22.656  15.496   2.174
19067W        W87461   5.295  38.491  11.038
19068W        W87462  24.032  34.020  11.510
19069W        W87463  18.880  18.999   4.615
19070W        W87464  19.734  42.790   0.878
19071W        W87465  16.805  15.733   1.334
19072W        W87466   1.257  16.528   2.257
19073W        W87467   0.733  21.792   1.829
19074W        W87468  44.108  15.310   4.166
19075W        W87469   4.486   8.237  12.869
19076W        W87470  26.788   3.082  12.978
19077W        W87471   6.411   4.641  11.241
19078W        W87472  28.899  41.612   1.264
19079W        W87473   4.772   2.252   1.357
19080W        W87474  25.645   6.312   4.850
19081W        W87475   9.610  44.741  13.835
19082W        W87476  13.627  30.435  14.472
19083W        W87477  36.451  22.363  14.825
19084W        W87478  24.518  24.083   1.354
19085W        W87479  15.069  28.586  13.148
19086W        W87480   6.648  34.379  10.224
19087W        W87481  25.469  23.097   1.407
19088W        W87482  38.884  42.104  10.028
19089W        W87483  17.184  44.774   2.844
19090W        W87484  29.597  19.725  11.748
19091W        W87485  25.527  29.413   2.776
19092W        W87486  27.805  37.033   4.919
19093W        W87487  15.636   1.212   2.293
19094W        W87488  14.268   1.841  10.449
19095W        W87489  44.502   4.881  10.223
19096W        W87490  24.656   8.575   9.693
19097W        W87491  20.792  10.361   3.121
19098W        W87492  44.119  19.035   0.373
19099W        W87493  39.769  21.538  14.070
19100W        W87494  12.303  23.810   0.837
19101W        W87495  42.945   3.993  12.525
19102W        W87496  23.187   1.911   1.260
19103W        W87497   2.873   2.815   4.395
19104W        W87498  22.991  13.861   0.122
19105W        W87499  38.039  35.131   2.189
19106W        W87500  41.291  35.089  12.160
19107W        W87501   4.391  13.629   3.539
19108W        W87502   8.314   0.581  13.900
19109W        W87503  20.992  38.468   9.957
19110W        W87504   4.811  22.216  10.676
19111W        W87505  17.936  36.935  14.331
19112W        W87506  11.788  21.716  11.360
19113W        W87507   0.781  12.606  10.199
19114W        W87508  13.289   6.700   3.170
19115W        W87509  31.132  24.031   2.294
19116W        W87510  13.768  25.519  14.533
19117W        W87511  21.621  21.472  12.591
19118W        W87512  33.057  27.933  13.842
19119W        W87513  22.505  15.031   2.045
19120W        W87514  31.567  37.479   4.164
19121W        W87515  10.899  17.942  12.375
19122W        W87516  29.425   1.723  12.819
19123W        W87517   9.129  29.121   0.980
19124W        W87518  37.436  36.752   1.769
19125W        W87519  19.319   1.411   2.280
19126W        W87520  20.236  38.904   1.779
19127W        W87521   7.037  34.465   3.646
19128W        W87522  39.327   4.282   2.628
19129W        W87523  14.229   8.422   1.275
19130W        W87524   5.808  36.505  11.386
19131W        W87525  24.174  31.507  14.734
19132W        W87526   2.168  25.716   1.894
19133W        W87527  30.459  14.557   2.205
19134W        W87528  19.203  40.283   4.538
19135W        W87529  14.985  44.250  12.883
19136W        W87530  11.546  37.555  14.420
19137W        W87531  25.912  39.532   0.068
19138W        W87532  20.310  20.636   4.240
19139W        W87533  26.985   6.118   1.742
19140W        W87534  19.967  33.531   0.406
19141W        W87535  21.188   9.729  13.629
19142W        W87536  20.757  44.246   1.896
19143W        W87537  38.395  41.031  13.834
19144W        W87538  17.677  32.613   2.962
19145W        W87539  27.154   0.216  13.804
19146W        W87540  41.513  11.648  12.613
19147W        W87541  38.575  34.484   0.731
19148W        W87542   9.666  42.273  10.730
19149W        W87543  14.927  37.012   4.054
19150W        W87544  11.209  32.525  14.760
19151W        W87545   3.278  38.649  10.777
19152W        W87546  14.397  29.531   1.490
19153W        W87547   7.176  11.621  11.930
19154W        W87548  43.327  23.236   0.933
19155W        W87549  39.897  22.172   1.966
19156W        W87550   9.436  40.801   0.912
19157W        W87551  43.757  19.145  10.701
19158W        W87552  20.798  30.872  11.032
19159W        W87553  37.404  18.141   0.783
19160W        W87554  35.482  27.125  13.483
19161W        W87555   8.837  29.552   0.808
19162W        W87556  19.221   2.697  11.173
19163W        W87557  40.277  33.814  11.971
19164W        W87558  41.636  14.434  14.526
19165W        W87559   8.719  23.086  13.889
19166W        W87560  24.201   7.037   0.833
19167W        W87561  19.051   0.516  12.542
19168W        W87562   6.221  43.265   1.669
19169W        W87563  40.295  36.568   3.924
19170W        W87564  30.076  21.963  10.786
19171W        W87565  24.153  18.138   4.057
19172W        W87566  11.296  31.945   4.344
19173W        W87567   3.269  26.118  10.414
19174W        W87568   1.488  41.242  12.485
19175W        W87569  44.455   2.359  11.011
19176W        W87570  21.981  43.205  12.190
19177W        W87571  33.635  37.486   3.421
19178W        W87572  33.110  17.664   1.362
19179W        W87573  21.594  26.479   2.067
19180W        W87574  42.118  32.585   3.228
19181W        W87575  13.921  16.221  14.949
19182W        W87576  37.480   2.415  12.576
19183W        W87577   2.408   5.190   4.654
19184W        W87578   8.830  13.985  12.843
19185W        W87579   8.468  10.410   3.158
19186W        W87580  28.437  15.527  13.937
19187W        W87581  24.249  14.683   1.280
19188W        W87582   1.065  11.922  13.361
19189W        W87583   8.866   0.482   0.309
19190W        W87584  36.948  15.674   3.781
19191W        W87585  11.726  26.908   2.698
19192W        W87586  12.059  24.479   2.272
19193W        W87587  23.982  20.071   4.511
19194W        W87588  19.074  43.553  11.210
19195W        W87589  40.945  29.122  11.123
19196W        W87590   8.660  29.152  14.840
19197W        W87591  38.599  40.822   1.102
19198W        W87592  22.045  38.306  13.943
19199W        W87593  38.983  23.347   3.592
19200W        W87594  20.338  44.386  14.266
19201W        W87595  35.996   8.702  11.948
19202W        W87596  25.706  41.910   0.224
19203W        W87597  32.498  44.280  11.256
19204W        W87598  13.233  29.657  11.504
19205W        W87599  16.820  24.963   3.021
19206W        W87600  20.123  37.828   0.964
19207W        W87601   2.530  41.045  14.753
19208W        W87602  22.046  41.032   4.284
19209W        W87603  13.047  11.736   3.189
19210W        W87604   1.194  15.860  11.090
19211W        W87605   0.529  29.497   1.271
19212W        W87606  19.213  23.566   1.641
19213W        W87607  10.355   7.059   0.884
19214W        W87608  13.918   2.713   1.252
19215W        W87609  15.777  11.658   2.861
19216W        W87610  43.493  21.193   2.903
19217W        W87611  35.435  11.857   4.513
19218W        W87612  19.111  27.939   3.091
19219W        W87613  26.460  23.132   1.099
19220W        W87614  16.626   8.899   0.072
19221W        W87615  15.102  13.418  14.335
19222W        W87616   4.227  11.857   3.263
19223W        W87617  13.759   4.725   1.621
19224W        W87618  41.811  32.247  13.359
19225W        W87619   7.971  29.598   4.491
19226W        W87620  23.968  21.193  12.918
19227W        W87621   4.879  11.107   3.098
19228W        W87622   4.946  42.902   1.751
19229W        W87623  28.168  44.891   4.086
19230W        W87624  42.281  31.416  12.463
19231W        W87625  28.347  33.855  14.086
19232W        W87626  13.204  31.592  14.804
19233W        W87627   7.148  34.010   4.856
19234W        W87628  44.522  28.191  10.102
19235W        W87629  19.283  19.509   2.633
19236W        W87630  14.216   3.489   0.438
19237W        W87631   4.287  26.457   3.392
19238W        W87632  35.621  18.314   0.821
19239W        W87633  11.296   2.138   1.912
19240W        W87634  12.920  20.941  11.049
19241W        W87635   4.139  17.985  14.938
19242W        W87636  20.498  27.207  14.428
19243W        W87637  27.051  17.155  12.553
19244W        W87638   4.019  42.358  10.469
19245W        W87639  19.057   8.335   1.020
19246W        W87640  40.801  26.362  14.151
19247W        W87641   8.225  32.226   0.770
19248W        W87642  13.603  32.442   4.756
19249W        W87643  44.886  38.589   0.421
19250W        W87644  40.282  11.766   4.609
19251W        W87645  25.803   4.422   2.777
19252W        W87646   5.708  43.054  12.984
19253W        W87647  40.357  24.861  12.991
19254W        W87648   0.490  43.129  14.958
19255W        W87649  42.813  38.237   4.982
19256W        W87650  34.998  11.850  13.031
19257W        W87651  26.954   1.411  12.409
19258W        W87652  35.116  13.788   2.668
19259W        W87653   0.139  12.745  13.978
19260W        W87654  11.848  31.759  10.655
19261W        W87655  32.178  18.446  13.457
19262W        W87656  13.730  37.249   2.150
19263W        W87657  25.616  27.199   2.187
19264W        W87658   3.752   5.167   3.504
19265W        W87659  19.333   7.740   1.814
19266W        W87660  16.670   9.198  13.808
19267W        W87661   1.384  10.452   1.861
19268W        W87662  34.359  26.115  11.615
19269W        W87663  19.820  40.979   4.937
19270W        W87664  40.227  40.943   2.410
19271W        W87665  40.349  37.006   3.671
19272W        W87666  33.476  19.203  14.402
19273W        W87667   1.507  32.621  13.621
19274W        W87668  22.618  25.196  13.381
19275W        W87669  13.819  14.911   3.802
19276W        W87670  15.059  33.107   3.210
19277W        W87671  36.482   8.654  13.086
19278W        W87672  36.288  11.786   0.935
19279W        W87673  24.245  23.088   0.749
19280W        W87674  36.959   0.803   2.794
19281W        W87675  13.313  39.525   0.246
19282W        W87676   0.511  14.346   1.937
19283W        W87677  22.170  13.097   2.841
19284W        W87678   9.268  12.612   4.115
19285W        W87679  36.135  30.019  11.146
19286W        W87680   2.047   8.240   0.806
19287W        W87681  39.915  35.480   1.904
19288W        W87682   8.590  41.589  12.757
19289W        W87683   1.533  11.626  13.350
19290W        W87684   3.698  32.159   1.417
19291W        W87685  14.084  25.012   2.176
19292W        W87686  12.266  44.989  13.865
19293W        W87687  33.112  29.855  11.523
19294W        W87688  20.654  23.516   0.668
19295W        W87689   0.125  30.100  12.555
19296W        W87690  29.421  44.371   2.744
19297W        W87691   3.748  43.766   0.792
19298W        W87692  28.444  36.531   0.410
19299W        W87693  24.895  26.929  13.734
19300W        W87694  27.246  25.221  12.423
19301W        W87695   9.283  15.089  10.939
19302W        W87696  44.152   2.106  14.430
19303W        W87697  26.503  20.048  13.510
19304W        W87698  11.661  26.018  11.907
19305W        W87699   3.655  29.963  11.051
19306W        W87700  35.237  32.983  12.396
19307W        W87701  13.312  15.073   3.706
19308W        W87702  15.059   4.397  12.044
19309W        W87703  44.188  28.590  12.538
19310W        W87704  37.793  35.912   5.014
19311W        W87705  31.605  29.695   4.415
19312W        W87706   8.958  22.020  12.066
19313W        W87707   3.864  17.192   0.076
19314W        W87708  17.616  32.569   0.095
19315W        W87709  28.198  35.508   3.132
19316W        W87710  14.320  33.379  12.544
19317W        W87711  14.287  20.830  12.191
19318W        W87712  32.690  35.448   0.730
19319W        W87713   2.623   6.904  14.446
19320W        W87714  32.157  16.187  13.976
19321W        W87715  16.576   0.952   0.759
19322W        W87716  28.387  21.795   2.223
19323W        W87717  12.155  42.921   1.565
19324W        W87718  16.198  35.628   0.227
19325W        W87719  28.042  41.108   2.775
19326W        W87720  38.437   3.637   3.830
19327W        W87721   6.317   2.597   9.682
19328W        W87722  22.730   3.753  12.015
19329W        W87723  23.576  17.074   4.467
19330W        W87724  13.366  38.748  10.221
19331W        W87725  25.504  12.778   2.988
19332W        W87726   1.753  27.979  14.432
19333W        W87727  15.744  36.495   3.969
19334W        W87728  44.233  34.982   3.288
19335W        W87729  32.580  40.848   0.606
19336W        W87730   7.102  23.206  10.108
19337W        W87731  44.954   6.903   2.185
19338W        W87732  10.339  11.673  12.013
19339W        W87733  31.463   7.749  12.078
19340W        W87734  42.257  19.792   0.284
19341W        W87735  13.076  40.468  12.217
19342W        W87736   8.118  18.393   4.352
19343W        W87737   1.939   2.985   0.805
19344W        W87738  16.337  35.177  11.530
19345W        W87739   3.748   9.607  11.531
19346W        W87740  18.273  26.525  11.859
19347W        W87741  21.610  39.896   2.405
19348W        W87742  31.290   1.707  11.240
19349W        W87743   4.644  26.008   4.564
19350W        W87744  35.420   3.156  11.128
19351W        W87745   8.274  37.581   4.067
19352W        W87746  12.243  30.018  13.047
19353W        W87747   8.916   0.352   4.573
19354W        W87748  37.882  33.025  13.020
19355W        W87749  17.988  23.665   3.423
19356W        W87750   3.051  11.989   1.420
19357W        W87751  19.365  20.513   2.820
19358W        W87752  32.119  27.671   3.790
19359W        W87753   8.398  17.098   3.126
19360W        W87754  26.948  14.277   1.426
19361W        W87755  36.027   6.197  13.778
19362W        W87756  11.766   4.582   0.781
19363W        W87757  31.910   0.690  13.977
19364W        W87758  32.745  24.083  12.903
19365W        W87759  26.457  35.100   2.057
19366W        W87760  24.009  40.353   2.620
19367W        W87761  17.691  28.934   1.704
19368W        W87762   3.262  11.406  13.906
19369W        W87763  18.210   8.970  14.813
19370W        W87764  23.128   6.570  11.221
19371W        W87765  20.256   1.761   5.220
19372W        W87766   8.241  36.327  10.413
19373W        W87767  25.737  26.163   2.344
19374W        W87768  24.624   8.231  11.077
19375W        W87769  11.200  39.275  12.585
19376W        W87770  14.187  17.677   2.917
19377W        W87771   6.292  18.127  10.710
19378W        W87772  16.366  40.432   0.457
19379W        W87773  38.538   0.757   4.196
19380W        W87774   5.185  27.488  13.863
19381W        W87775  28.837  11.788  14.731
19382W        W87776  40.870   4.718   4.549
19383W        W87777  44.858  13.623  12.674
19384W        W87778   5.508  38.788  14.341
19385W        W87779  23.280  41.526   3.328
19386W        W87780  15.234  41.143   4.830
19387W        W87781  31.436  22.448   0.905
19388W        W87782   8.300  40.540  13.934
19389W        W87783   3.835   0.949   4.211
19390W        W87784  29.375  38.785  11.670
19391W        W87785  37.460  18.524  13.836
19392W        W87786  39.533  32.498  13.184
19393W        W87787  34.215  17.720  12.103
19394W        W87788  41.356   4.472   3.671
19395W        W87789  28.697  13.798  13.019
19396W        W87790  33.046  13.219   0.439
19397W        W87791  40.555  25.448   1.372
19398W        W87792  17.552  11.273  12.893
19399W        W87793  30.521  16.215   0.325
19400W        W87794  14.698  42.994  10.444
19401W        W87795   5.243  38.140  10.671
19402W        W87796  38.868  44.026  14.426
19403W        W87797  43.975  41.437   0.409
19404W        W87798  33.272  19.503   3.887
19405W        W87799  17.723  27.203   2.164
19406W        W87800  24.476  20.252  12.549
19407W        W87801  41.366  16.214   2.311
19408W        W87802  39.100  44.497  13.954
19409W        W87803  27.017   0.430   3.227
19410W        W87804  16.266   0.030   1.328
19411W        W87805  28.579  25.068   1.472
19412W        W87806  41.823  44.797  11.233
19413W        W87807  15.344  21.231  11.985
19414W        W87808  20.043  11.082  11.869
19415W        W87809   7.526   3.762  11.444
19416W        W87810  28.129  17.813  13.495
19417W        W87811  12.779  27.526  11.269
19418W        W87812  36.473  31.186  13.829
19419W        W87813  24.530  35.441  11.626
19420W        W87814  21.820  18.112   4.752
19421W        W87815   1.808  19.744  11.054
19422W        W87816  41.599  42.418   1.305
19423W        W87817  25.556  13.314  13.465
19424W        W87818   7.446   2.859   3.651
19425W        W87819  18.995   6.207  13.573
19426W        W87820  33.486  17.838  11.143
19427W        W87821  43.888  21.013  12.940
19428W        W87822  31.882  11.074  14.940
19429W        W87823  37.985   9.707  12.918
19430W        W87824  31.759  40.566   0.880
19431W        W87825  32.737  40.432  13.466
19432W        W87826   6.960  34.612  11.907
19433W        W87827  21.631   1.103  14.428
19434W        W87828   9.743  29.098  13.809
19435W        W87829  19.580   4.866   4.160
19436W        W87830   5.243  23.253   3.742
19437W        W87831  17.241  41.300   0.439
19438W        W87832  32.115  33.525   3.667
19439W        W87833  28.762  31.422  13.313
19440W        W87834  21.932   8.381   1.177
19441W        W87835   1.286  37.356  11.910
19442W        W87836  18.356  22.799   0.117
19443W        W87837  12.265  21.762   4.570
19444W        W87838  27.663  39.070   1.461
19445W        W87839  43.992  44.218  12.867
19446W        W87840  26.656  29.906  13.245
19447W        W87841   0.972   2.236  13.431
19448W        W87842   7.583  35.716  10.599
19449W        W87843  38.468  11.331  12.186
19450W        W87844  34.407  16.163   2.880
19451W        W87845  43.330  40.061  13.840
19452W        W87846  27.547  22.052  11.528
19453W        W87847  14.134   7.422   0.251
19454W        W87848   5.576  20.663   0.864
19455W        W87849  41.871  44.293   2.139
19456W        W87850   1.345  27.336  11.802
19457W        W87851  37.395   1.298  12.788
19458W        W87852   6.795  17.570   1.137
19459W        W87853  15.145   8.640  10.734
19460W        W87854  17.017   7.330   4.544
19461W        W87855  31.706  33.458  12.402
19462W        W87856   8.400  14.070  11.584
19463W        W87857   1.463   4.830  11.194
19464W        W87858   9.231  36.446  11.168
19465W        W87859  44.259  28.200   0.291
19466W        W87860  30.195  35.564   0.629
19467W        W87861  17.835   5.905   3.655
19468W        W87862   4.220  26.468  13.411
19469W        W87863  11.139   9.298   3.944
19470W        W87864  26.310  16.250   2.326
19471W        W87865   4.738  19.230  13.535
19472W        W87866  44.696  17.833  11.046
19473W        W87867  17.202   9.714   0.890
19474W        W87868  13.026  31.756  10.355
19475W        W87869  21.376  34.541  11.157
19476W        W87870  42.995  32.566   2.857
19477W        W87871   2.314  34.923   1.970
19478W        W87872  29.966  34.467  14.994
19479W        W87873  44.820  21.064   4.221
19480W        W87874  30.474  23.483   4.024
19481W        W87875   7.323  29.547  10.578
19482W        W87876  40.720  43.817   3.832
19483W        W87877   5.923  43.438   2.343
19484W        W87878  22.957  16.540  14.765
19485W        W87879   1.389   1.528   0.312
19486W        W87880  20.828  26.209  12.002
19487W        W87881  35.801   5.218  11.189
19488W        W87882  22.529  19.716   1.318
19489W        W87883  35.361   3.340  11.594
19490W        W87884  29.422  33.029  12.949
19491W        W87885  11.706   6.770   0.800
19492W        W87886  30.972   4.110   2.853
19493W        W87887  15.532  28.552  13.876
19494W        W87888   3.817   7.621  12.978
19495W        W87889  39.904  12.443  10.708
19496W        W87890   2.710   4.589   1.947
19497W        W87891  34.433  32.860  12.443
19498W        W87892  11.453  24.305  12.471
19499W        W87893  18.749  26.626   0.560
19500W        W87894  26.206  10.628   3.199
19501W        W87895   7.737  22.013   4.223
19502W        W87896  22.559  12.333  11.215
19503W        W87897   2.743  35.716  13.062
19504W        W87898  10.556  31.921   0.908
19505W        W87899   5.023  34.125  13.031
19506W        W87900  20.761   3.277   0.880
19507W        W87901   9.559  34.338   0.734
19508W        W87902  30.990  15.129   2.696
19509W        W87903   8.266  14.218  12.043
19510W        W87904  44.606  30.023  12.535
19511W        W87905  16.021  22.175  14.440
19512W        W87906  27.054  18.259  14.886
19513W        W87907  44.342  20.423  13.989
19514W        W87908  19.667   4.730   1.760
19515W        W87909  10.299  26.538  13.458
19516W        W87910  27.951   6.106   2.830
19517W        W87911  20.530   3.893   3.645
19518W        W87912  13.291  39.064  12.040
19519W        W87913   8.628   2.945   9.797
19520W        W87914   7.840  10.707   3.684
19521W        W87915  28.873   2.504  12.334
19522W        W87916   7.469  16.731   3.240
19523W        W87917  43.743  13.925  13.852
19524W        W87918  19.143  20.519  11.484
19525W        W87919  35.951  40.133   3.146
19526W        W87920  31.628  21.351  12.136
19527W        W87921  16.863  29.652  12.043
19528W        W87922  20.523   8.222   4.835
19529W        W87923  36.348  17.294   9.885
19530W        W87924   3.760  27.303   1.925
19531W        W87925  17.629  33.475   4.750
19532W        W87926  19.103   0.968  13.548
19533W        W87927  20.125  32.538  13.564
19534W        W87928  36.421  24.750   2.059
19535W        W87929  27.594  26.453  11.487
19536W        W87930  36.095   1.761  10.737
19537W        W87931  22.199  16.714   1.400
19538W        W87932  13.834   8.214   0.733
19539W        W87933  18.766  36.708  13.202
19540W        W87934  16.013  18.741  12.526
19541W        W87935  34.313  19.986  12.606
19542W        W87936  38.415  23.679   4.687
19543W        W87937  43.381  19.722  11.710
19544W        W87938  27.606  36.738   3.440
19545W        W87939  30.730  17.568   4.977
19546W        W87940  10.761  38.000  14.129
19547W        W87941  37.872  43.076  10.639
19548W        W87942  37.026  15.836  13.556
19549W        W87943  18.866  37.145   3.126
19550W        W87944  10.161  26.423   2.691
19551W        W87945  44.436  18.782   0.871
19552W        W87946  34.155  17.678  13.936
19553W        W87947  44.268  13.118   3.330
19554W        W87948  22.780  36.797  12.070
19555W        W87949  43.888  11.574  10.459
19556W        W87950  35.573  12.680   0.242
19557W        W87951  44.771  32.052  14.588
19558W        W87952  33.836   7.142   0.825
19559W        W87953   8.352  39.919   1.494
19560W        W87954  42.780  42.163  11.649
19561W        W87955  44.769  12.447   4.120
19562W        W87956  38.897   7.702  12.117
19563W        W87957   4.443  29.170  14.881
19564W        W87958  40.125   4.346   0.486
19565W        W87959  24.248  44.867  13.001
19566W        W87960  20.254  10.164   3.752
19567W        W87961  23.577  12.697   3.752
19568W        W87962  11.406  30.083   2.821
19569W        W87963  26.925  12.578   0.638
19570W        W87964  26.704   0.500   1.921
19571W        W87965  37.042  42.980   4.125
19572W        W87966   9.223  14.882  13.856
19573W        W87967  41.855  11.406  11.796
19574W        W87968  25.784  17.301  11.949
19575W        W87969  31.122  25.646  14.028
19576W        W87970  33.449  25.031   4.676
19577W        W87971  15.127  27.437   4.938
19578W        W87972  26.624  39.151  12.831
19579W        W87973  33.656  13.442  10.694
19580W        W87974  42.792   6.367  13.335
19581W        W87975  23.640  27.971  14.834
19582W        W87976  28.793  41.185  13.667
19583W        W87977   9.192  15.218  12.943
19584W        W87978  38.078   0.062   1.320
19585W        W87979  10.689  18.462   3.602
19586W        W87980  14.785  17.681   3.206
19587W        W87981  40.913  37.914   1.799
19588W        W87982  39.193   2.195   5.079
19589W        W87983   8.502  29.580   3.196
19590W        W87984  28.536  10.691   2.748
19591W        W87985   4.453   6.757   0.426
19592W        W87986  25.804  27.146  11.971
19593W        W87987   2.843   7.719   3.733
19594W        W87988  24.211   5.792  12.472
19595W        W87989  34.393   6.180  12.361
19596W        W87990  29.158  24.992   3.632
19597W        W87991  31.680  33.096  14.996
19598W        W87992  34.727  44.721  11.245
19599W        W87993  14.422  44.329   1.001
19600W        W87994   9.412  25.952   3.938
19601W        W87995  20.768  28.542   4.600
19602W        W87996   1.779  36.475   2.135
19603W        W87997  11.630  41.864   0.821
19604W        W87998  27.008  15.842  14.184
19605W        W87999  35.946   1.741  12.092
19606W        W88000   9.841  27.705   3.464
19607W        W88001  18.428  24.636   4.296
19608W        W88002   0.885  38.673   4.258
19609W        W88003   9.097  44.054   2.042
19610W        W88004  34.631  40.713  11.948
19611W        W88005  30.058   2.615  14.388
19612W        W88006  18.080  16.203  14.483
19613W        W88007  25.058  23.166   4.247
19614W        W88008  43.280   9.192   5.177
19615W        W88009  43.904  35.738  14.400
19616W        W88010  17.729   3.730   0.800
19617W        W88011  34.365  10.456  14.370
19618W        W88012  23.224  19.891  13.551
19619W        W88013  11.472  18.710  13.109
19620W        W88014   7.784  42.384  14.498
19621W        W88015   9.146  15.486   5.037
19622W        W88016  38.578  22.306  12.088
19623W        W88017   9.256  41.311   3.683
19624W        W88018  35.319  38.978  12.062
19625W        W88019   9.624  39.317   1.524
19626W        W88020  34.479  39.270   3.734
19627W        W88021  24.774  43.293   9.875
19628W        W88022  35.997   0.742  10.906
19629W        W88023   1.469  14.871  14.415
19630W        W88024  33.069  42.972   0.413
19631W        W88025   2.594  12.369   2.280
19632W        W88026  11.355  40.470  14.976
19633W        W88027   5.141  32.948  14.933
19634W        W88028  28.460  27.942   4.574
19635W        W88029  37.809  19.600   1.724
19636W        W88030  17.374  27.653   0.742
19637W        W88031  14.878  27.018  12.519
19638W        W88032  42.335  22.206   4.535
19639W        W88033  28.464  20.856   3.224
19640W        W88034  21.440  42.423   1.242
19641W        W88035  26.387  38.080  13.795
19642W        W88036   1.783  29.961   4.738
19643W        W88037  17.444  24.799   2.757
19644W        W88038  30.070  33.882  12.449
19645W        W88039  13.356  12.641   0.851
19646W        W88040  35.788  43.252   2.625
19647W        W88041   9.852  11.592  11.146
19648W        W88042  42.823   1.878   2.610
19649W        W88043  22.624   9.878   1.883
19650W        W88044   5.255  15.757  13.486
19651W        W88045   9.936  12.548  12.137
19652W        W88046  21.711  26.082  11.165
19653W        W88047  16.281  39.606  12.233
19654W        W88048  33.076   1.922   1.318
19655W        W88049  30.238  38.247  11.277
19656W        W88050   6.390  18.092  12.551
19657W        W88051  39.515  24.118  11.933
19658W        W88052  16.120  14.552   3.308
19659W        W88053  23.182  29.145   2.113
19660W        W88054  40.001  31.432  13.815
19661W        W88055  30.216   7.571  13.370
19662W        W88056  23.212  23.592   1.421
19663W        W88057  10.323  37.551  12.028
19664W        W88058  20.112  43.785  13.456
19665W        W88059  30.592  43.814  12.688
19666W        W88060  30.439  17.079  14.976
19667W        W88061   5.739  44.150   1.653
19668W        W88062   2.291  36.032  11.140
19669W        W88063  26.984  39.880   0.902
19670W        W88064  32.155  20.904  12.427
19671W        W88065  40.252  13.152   3.150
19672W        W88066   1.050  33.467  12.511
19673W        W88067  17.977  18.214   0.829
19674W        W88068  34.580  31.183  14.473
19675W        W88069  10.798  16.982  12.660
19676W        W88070  12.566   4.460   0.797
19677W        W88071   1.146  38.409  13.508
19678W        W88072  35.882   4.740  14.481
19679W        W88073  29.914  16.956   0.479
19680W        W88074  36.623  32.845   2.343
19681W        W88075  20.061   0.936  13.145
19682W        W88076  33.175   7.782  14.594
19683W        W88077  23.481   9.989   3.172
19684W        W88078  20.716  24.202   2.626
19685W        W88079  27.991  27.425   1.666
19686W        W88080  44.217  10.846  11.473
19687W        W88081  41.928  43.686   3.359
19688W        W88082  30.490  29.547   2.824
19689W        W88083   0.038   5.670   1.204
19690W        W88084  35.903  43.837  12.839
19691W        W88085  28.173  44.013  12.084
19692W        W88086  29.073  35.542  14.767
19693W        W88087  44.985  13.409  14.460
19694W        W88088  43.024  20.649   3.593
19695W        W88089  21.644  41.296   2.006
19696W        W88090  38.215  19.595   3.318
19697W        W88091  35.741  18.054  11.459
19698W        W88092  24.734  38.361  11.194
19699W        W88093  30.693  25.602  13.687
19700W        W88094   8.653  14.568   3.807
19701W        W88095   4.990   5.410  11.095
19702W        W88096   7.149  31.815   2.019
19703W        W88097  27.117   9.728   0.006
19704W        W88098   3.862  35.026  10.823
19705W        W88099  19.337   8.299  11.240
19706W        W88100   2.663  22.205   2.793
19707W        W88101   3.964   3.765  12.942
19708W        W88102  39.305   2.192  13.865
19709W        W88103  40.954   4.823  14.544
19710W        W88104  32.165   2.789  14.980
19711W        W88105  10.724  43.749   4.838
19712W        W88106  41.369  32.607   3.619
19713W        W88107  43.703  40.915  12.782
19714W        W88108  41.287  13.466  12.126
19715W        W88109  41.668  32.883  11.153
19716W        W88110  15.400  38.630   3.404
19717W        W88111  14.743  21.283   3.759
19718W        W88112  22.196  31.187   1.185
19719W        W88113  37.043  33.053  13.345
19720W        W88114  26.154  14.368  13.808
19721W        W88115  16.160   7.222   3.778
19722W        W88116   6.836  25.470   1.735
19723W        W88117  11.289  15.762  11.439
19724W        W88118  29.959   0.616   2.628
19725W        W88119   5.428  27.956   2.696
19726W        W88120  29.982  10.362   3.245
19727W        W88121  37.615   6.412  14.914
19728W        W88122  21.534   0.230   3.254
19729W        W88123  22.398  36.571  14.468
19730W        W88124  12.313  33.663   0.345
19731W        W88125  44.784  35.479   2.776
19732W        W88126  15.046   2.489   1.516
19733W        W88127  43.217   7.063  13.490
19734W        W88128   5.826   7.117  12.680
19735W        W88129  23.958  28.921   1.442
19736W        W88130  19.648  22.093   3.239
19737W        W88131  44.236  34.894  13.034
19738W        W88132   8.215  39.374   3.416
19739W        W88133  34.527  41.387   0.112
19740W        W88134  39.423  22.605  10.534
19741W        W88135  38.482   5.885  11.613
19742W        W88136  41.536  12.997   1.050
19743W        W88137  12.737  33.201   2.963
19744W        W88138  29.953  41.489  12.036
19745W        W88139  40.473   6.292  11.733
19746W        W88140   3.814   7.585  13.937
19747W        W88141  33.347  17.070   1.260
19748W        W88142  18.162  21.942  13.149
19749W        W88143   1.623   1.009   3.667
19750W        W88144  13.404  21.272  13.502
19751W        W88145  33.393  24.598  11.070
19752W        W88146   6.275  11.229   1.219
19753W        W88147   0.321  35.022  10.812
19754W        W88148  22.040   4.982   1.154
19755W        W88149  11.368  24.057   1.888
19756W        W88150  24.217   1.744  11.746
19757W        W88151   2.436  36.499   4.601
19758W        W88152  38.914  22.969   1.296
19759W        W88153  36.345   9.468  11.003
19760W        W88154  16.742  14.570  12.017
19761W        W88155  11.841  36.031   1.308
19762W        W88156  40.787  35.848  12.408
19763W        W88157  43.215  36.207  14.852
19764W        W88158  27.004  12.771   1.131
19765W        W88159  24.084  21.501   3.097
19766W        W88160  22.007   3.914   4.159
19767W        W88161  35.351   0.564   1.583
19768W        W88162   4.209  15.843   0.735
19769W        W88163  42.434  33.075   1.729
19770W        W88164  23.171  31.860  10.685
19771W        W88165  24.479  35.993   1.453
19772W        W88166   1.428   4.265  11.198
19773W        W88167  33.246   8.180  13.916
19774W        W88168  30.783  28.346   0.148
19775W        W88169  28.097  21.351   2.066
19776W        W88170  11.700   9.625   0.687
19777W        W88171   7.673  17.042  10.507
19778W        W88172  29.506  19.317  11.057
19779W        W88173  33.381  21.776  11.535
19780W        W88174  15.732  38.006   4.587
19781W        W88175  11.785  36.443   4.556
19782W        W88176  24.277  12.083  11.690
19783W        W88177  16.853  28.380  13.528
19784W        W88178   0.475  30.107   4.127
19785W        W88179  26.410  39.657  12.915
19786W        W88180   7.902  39.865   0.779
19787W        W88181  30.645  38.573  13.913
19788W        W88182  17.766  25.993   1.234
19789W        W88183   5.689  43.991  13.812
19790W        W88184   0.371   0.193  10.689
19791W        W88185  24.515   0.415  11.929
19792W        W88186  42.342  34.634   1.059
19793W        W88187  31.662  36.539  14.918
19794W        W88188  16.223  16.537   2.520
19795W        W88189   3.328   5.589  13.775
19796W        W88190  20.536  38.415   2.677
19797W        W88191  32.618  25.770   2.391
19798W        W88192  37.897  30.332   1.808
19799W        W88193  10.541  36.527   1.266
19800W        W88194  26.166   1.792   2.715
19801W        W88195  11.224  33.984   2.738
19802W        W88196  40.916  38.186  14.363
19803W        W88197  21.841  18.102   1.852
19804W        W88198  38.564  15.221   2.183
19805W        W88199  32.219  35.396  11.426
19806W        W88200  25.695  13.682  14.779
19807W        W88201  11.399  13.420   1.848
19808W        W88202  23.100  26.196   3.256
19809W        W88203  38.602  11.587   4.513
19810W        W88204  12.204  24.649  10.829
19811W        W88205  37.443   0.775   4.841
19812W        W88206  15.132  34.407   4.198
19813W        W88207  39.928  11.282   3.723
19814W        W88208  30.178  44.415  12.416
19815W        W88209   7.770   7.827   4.309
19816W        W88210  28.226  19.449   1.429
19817W        W88211  27.544   9.885  11.122
19818W        W88212  19.747  38.111   0.031
19819W        W88213  36.528  14.677   2.758
19820W        W88214  10.076  40.584  11.167
19821W        W88215  28.450  39.039   0.384
19822W        W88216  10.639  15.781   4.657
19823W        W88217  43.923  19.719  11.372
19824W        W88218  34.649  31.098   4.705
19825W        W88219  33.579  26.468   3.598
19826W        W88220  38.740  32.034  12.408
19827W        W88221  41.293   4.220  14.494
19828W        W88222   8.622  33.334   0.383
19829W        W88223  28.978   6.148   1.220
19830W        W88224  12.204  43.359   2.404
19831W        W88225  35.712  27.641   0.337
19832W        W88226  24.827  12.457   5.197
19833W        W88227  28.401  26.579  12.881
19834W        W88228  11.177  40.766   1.358
19835W        W88229   5.418  12.886  10.710
19836W        W88230  11.088  25.000   2.712
19837W        W88231   5.471   6.156  12.476
19838W        W88232  13.045  44.938  14.492
19839W        W88233  41.820   1.377  11.806
19840W        W88234  15.069  33.947   1.883
19841W        W88235  20.079  14.589   1.735
19842W        W88236  42.392  13.063   0.842
19843W        W88237  24.573  24.539  14.324
19844W        W88238  10.606   2.043   4.955
19845W        W88239  37.896  29.618   4.143
19846W        W88240  35.899  14.107   2.302
19847W        W88241  39.307  17.497  13.625
19848W        W88242  16.082  10.237   3.079
19849W        W88243  18.664  33.866   2.360
19850W        W88244   0.865  16.175   2.536
19851W        W88245  29.222   1.449   1.415
19852W        W88246  28.381   0.437   2.751
19853W        W88247  27.664  35.111  11.461
19854W        W88248  24.483   1.911   3.170
19855W        W88249  42.532  23.471  11.352
19856W        W88250  33.028  30.377  14.378
19857W        W88251   0.538  28.642  14.584
19858W        W88252  44.576  25.949  10.975
19859W        W88253  36.482  14.229   5.026
19860W        W88254   3.480  28.901  13.715
19861W        W88255   0.930  26.831   2.508
19862W        W88256  14.685  39.546  13.421
19863W        W88257   9.771  28.340   0.778
19864W        W88258  11.868  13.160   3.669
19865W        W88259   2.401   9.263  10.692
19866W        W88260  44.253  20.263   0.927
19867W        W88261  42.510  25.646   0.510
19868W        W88262  20.787  14.172  10.353
19869W        W88263   2.214  16.911   2.239
19870W        W88264   9.927  34.962  13.233
19871W        W88265  30.848  30.484   3.656
19872W        W88266  37.409  17.865   3.896
19873W        W88267  14.521  16.972   0.331
19874W        W88268  17.303  19.483  14.870
19875W        W88269  33.412   9.949   2.728
19876W        W88270  16.757  43.705   3.391
19877W        W88271  16.604  38.520  13.258
19878W        W88272  17.139   8.475   1.296
19879W        W88273   3.773   7.831  13.470
19880W        W88274   7.314  30.485  11.475
19881W        W88275   5.277  39.504   2.195
19882W        W88276  40.791  40.436  11.187
19883W        W88277  40.369  18.054   2.712
19884W        W88278  39.589  24.133   4.426
19885W        W88279  12.938  12.284  12.011
19886W        W88280  32.648   3.775  13.880
19887W        W88281  32.516  18.094   5.285
19888W        W88282  36.942  24.240   3.321
19889W        W88283   5.519  36.811  12.043
19890W        W88284  41.531   6.886  14.472
19891W        W88285  13.591  41.270  12.854
19892W        W88286  29.580  20.009  14.820
19893W        W88287   2.216  13.601   5.297
19894W        W88288  38.239  12.595  14.778
19895W        W88289  28.063  40.884  12.582
19896W        W88290  22.293  42.392  12.097
19897W        W88291  20.738  22.448   1.836
19898W        W88292  32.377   5.097  11.689
19899W        W88293   1.376  17.197   3.593
19900W        W88294  42.739  20.205   4.689
19901W        W88295   2.394  23.085   3.016
19902W        W88296   2.938  35.796  13.956
19903W        W88297  37.489  40.957  12.653
19904W        W88298  16.740  13.693   3.205
19905W        W88299  12.144  40.847  11.431
19906W        W88300  21.208  44.314  14.477
19907W        W88301   9.289  41.005   0.404
19908W        W88302   6.896   6.935   0.182
19909W        W88303  27.039   1.577   2.510
19910W        W88304  33.700  44.044  10.783
19911W        W88305  29.551   9.064   4.500
19912W        W88306  14.517   3.036   0.641
19913W        W88307   1.337  32.087   4.034
19914W        W88308   7.771  19.736  13.772
19915W        W88309  36.961   5.117   3.026
19916W        W88310  22.753  26.923  11.521
19917W        W88311  29.571  38.029  14.514
19918W        W88312  17.875  34.478   2.955
19919W        W88313  43.842  21.536  12.994
19920W        W88314  43.787  31.394   4.114
19921W        W88315  11.759  18.747   3.581
19922W        W88316  37.755  26.086   3.726
19923W        W88317  15.987  18.985   1.418
19924W        W88318  29.604  17.889  11.951
19925W        W88319  13.153  15.801  14.463
19926W        W88320  10.190   8.613   2.887
19927W        W88321  32.773  27.460  12.071
19928W        W88322  33.991  15.553  11.972
19929W        W88323  21.509  26.974   9.472
19930W        W88324  19.569  20.882  13.419
19931W        W88325  21.019  33.060  11.073
19932W        W88326   0.192  36.154   3.273
19933W        W88327  44.741  13.266   2.277
19934W        W88328  13.812  30.002  14.880
19935W        W88329  39.888  28.959  12.667
19936W        W88330  16.704  35.335  14.509
19937W        W88331  43.332  29.909   4.923
19938W        W88332  37.526  26.669  14.874
19939W        W88333  24.094  43.591  12.421
19940W        W88334  27.124  40.398  14.928
19941W        W88335  10.142  23.967   2.297
19942W        W88336   7.040  30.776  14.877
19943W        W88337  31.646  11.302  14.527
19944W        W88338  30.838  17.734  14.414
19945W        W88339   7.397  25.598   0.005
19946W        W88340  11.382   5.530   1.716
19947W        W88341  20.051  12.023  12.270
19948W        W88342  14.766  29.086  11.056
19949W        W88343  13.395   8.794  11.178
19950W        W88344  26.674  34.993  12.156
19951W        W88345  12.540  11.828  14.875
19952W        W88346   7.333  18.356  13.800
19953W        W88347  11.443   7.748  11.087
19954W        W88348  11.937  22.162   3.761
19955W        W88349  39.052  28.090   1.861
19956W        W88350  18.033  40.304  12.803
19957W        W88351   4.655  38.852  12.578
19958W        W88352  29.225  33.040  13.412
19959W        W88353   4.969  25.039   1.686
19960W        W88354  42.838  26.699   1.821
19961W        W88355  40.545  15.531  13.925
19962W        W88356  36.975   6.306  12.591
19963W        W88357  14.291  39.243  12.473
19964W        W88358  11.553  31.556   0.732
19965W        W88359  44.529  11.099  12.123
19966W        W88360  20.840  37.466   2.637
19967W        W88361  20.232   1.749  13.026
19968W        W88362  28.108  43.763   0.279
19969W        W88363   8.667  17.701   3.624
19970W        W88364  24.735  29.193   2.580
19971W        W88365  18.740   3.210  14.720
19972W        W88366  42.292  43.755  14.460
19973W        W88367  39.664   6.057  11.653
19974W        W88368  25.903   7.846  12.084
19975W        W88369  29.556  31.822   1.419
19976W        W88370   3.446  12.086   2.772
19977W        W88371   9.207   1.246  12.072
19978W        W88372   6.872  16.123  13.536
19979W        W88373   8.661  22.178   4.387
19980W        W88374  39.021  41.082   0.844
19981W        W88375  17.551  29.991  13.134
19982W        W88376   9.372  24.665   0.311
19983W        W88377  27.004  20.814  11.496
19984W        W88378  24.290  13.176   4.753
19985W        W88379  29.102  34.461  10.920
19986W        W88380  11.152   4.270  12.940
19987W        W88381  29.639   8.770   3.826
19988W        W88382  11.219  18.809  10.731
19989W        W88383  44.934   5.901  12.688
19990W        W88384  17.202  41.898   9.841
19991W        W88385  31.042   2.465  14.527
19992W        W88386  14.125  27.568   2.182
19993W        W88387  16.461  41.123   4.139
19994W        W88388   3.298  14.272   2.346
19995W        W88389   2.530  39.026  10.708
19996W        W88390  27.956  31.434   4.675
19997W        W88391   5.822   3.710   2.650
19998W        W88392  21.322  15.532  10.637
19999W        W88393  28.435  12.285  12.585
20000W        W88394  33.514  35.978   4.497
20001W        W88395  38.589  27.733   0.423
20002W        W88396  36.141   0.859  12.094
20003W        W88397  40.113  39.249  12.315
20004W        W88398   8.444   8.713  10.698
20005W        W88399   4.811  20.448  14.877
20006W        W88400  25.949   7.314   0.484
20007W        W88401   7.192  29.580   5.069
20008W        W88402   1.691  18.651   0.843
20009W        W88403  29.508  42.406  10.112
20010W        W88404  11.397  29.401   4.691
20011W        W88405   4.411  17.338  11.360
20012W        W88406  26.050   6.912  14.895
20013W        W88407  36.998  32.028   4.257
20014W        W88408  15.954  40.921   4.155
20015W        W88409  15.293   6.562   1.959
20016W        W88410  34.086  18.184   0.885
20017W        W88411   4.707  40.800  13.287
20018W        W88412   8.301  35.309   2.265
20019W        W88413  34.451  28.570  11.650
20020W        W88414  12.411  35.116   3.672
20021W        W88415  26.861   4.194   4.154
20022W        W88416  14.607   5.489  11.535
20023W        W88417   9.977  24.223  12.324
20024W        W88418  11.140  22.655   3.650
20025W        W88419  26.272  16.447  12.346
20026W        W88420   6.753   1.299  10.658
20027W        W88421  34.808  17.803   3.170
20028W        W88422   3.389  21.100   0.513
20029W        W88423  42.375  23.803   0.930
20030W        W88424  10.713  26.797   1.408
20031W        W88425  38.795  10.260   1.232
20032W        W88426  12.414   6.821   5.003
20033W        W88427  18.316   4.471  11.099
20034W        W88428  33.985  32.404  13.021
20035W        W88429   7.640  39.982  13.578
20036W        W88430  17.820  36.947  12.899
20037W        W88431   0.708  21.724   0.236
20038W        W88432  36.662  29.344  11.086
20039W        W88433  29.557  22.647  12.446
20040W        W88434  28.111  19.791   1.955
20041W        W88435  20.255  43.057   4.052
20042W        W88436  14.130  20.850   2.207
20043W        W88437   1.473  37.955   0.909
20044W        W88438  42.343  43.813   1.355
20045W        W88439  44.068  41.220  12.592
20046W        W88440  35.374  40.349   1.523
20047W        W88441  15.416   5.394  13.379
20048W        W88442  17.828  40.456  13.476
20049W        W88443  27.543  33.784  11.084
20050W        W88444   0.960  30.388   3.235
20051W        W88445  22.257  44.026   3.693
20052W        W88446   0.876  10.839   4.167
20053W        W88447  38.579  16.297   3.127
20054W        W88448  38.870  12.715   4.998
20055W        W88449  39.116  14.160   3.055
20056W        W88450   5.280  37.808   0.724
20057W        W88451  37.051  10.729  14.415
20058W        W88452  28.683  39.527  11.576
20059W        W88453   7.363  11.577   0.847
20060W        W88454  34.875  26.074   1.699
20061W        W88455  28.460   7.873   1.276
20062W        W88456  21.230  25.494   3.124
20063W        W88457   8.104  27.718   0.941
20064W        W88458  37.976  13.065  14.677
20065W        W88459   3.329  25.030   3.983
20066W        W88460  14.287   3.688   0.989
20067W        W88461  21.689  25.594   2.583
20068W        W88462   7.402  19.171   3.686
20069W        W88463  20.738  18.899  14.800
20070W        W88464  25.678   2.701  12.507
20071W        W88465   1.806  21.671   1.869
20072W        W88466  35.886  40.754  11.574
20073W        W88467   3.315  15.630  14.507
20074W        W88468  10.302  21.566   1.986
20075W        W88469  43.925  33.452  12.941
20076W        W88470  16.282  26.572   0.827
20077W        W88471  16.395  44.003  14.929
20078W        W88472  32.751   1.477   3.628
20079W        W88473  42.493  15.740  14.802
20080W        W88474   2.626  14.417  12.145
20081W        W88475   9.461  13.642  11.212
20082W        W88476  32.957   5.425  13.137
20083W        W88477   8.859  42.727   5.310
20084W        W88478  25.696  13.571  13.896
20085W        W88479  16.042  14.740   1.438
20086W        W88480  15.693  18.940   0.996
20087W        W88481  17.547   7.802  12.477
20088W        W88482   5.891  35.900  12.524
20089W        W88483   1.330  38.572  14.778
20090W        W88484  11.151  14.332  13.120
20091W        W88485  19.820  41.506  13.798
20092W        W88486   8.246  34.862  11.324
20093W        W88487  14.657  40.088   0.382
20094W        W88488  35.527  41.431   2.385
20095W        W88489   0.680  11.443  14.964
20096W        W88490  18.243  13.570  10.695
20097W        W88491  34.896   4.453   1.697
20098W        W88492  23.566  38.401  10.778
20099W        W88493  15.901  20.030   0.819
20100W        W88494  26.104  15.847  13.862
20101W        W88495  27.709  33.595   2.478
20102W        W88496  36.518  38.129   4.981
20103W        W88497   0.612  11.920   2.489
20104W        W88498   9.866  28.278   4.092
20105W        W88499  42.725   0.913   3.705
20106W        W88500  22.183  40.252  12.476
20107W        W88501  25.520  13.870   3.079
20108W        W88502  21.699  36.938  13.531
20109W        W88503   8.607  20.035   0.248
20110W        W88504  31.108  44.788   3.109
20111W        W88505  18.527  17.187   1.837
20112W        W88506   8.810  28.001  13.112
20113W        W88507  22.915  18.508  13.074
20114W        W88508   9.804   4.520   1.496
20115W        W88509  30.660  38.321  11.587
20116W        W88510  41.495   8.906  12.817
20117W        W88511  17.766  33.885  12.380
20118W        W88512  25.581  24.954  13.342
20119W        W88513  17.987  21.223  13.525
20120W        W88514  41.921  24.974   3.749
20121W        W88515  25.810  31.487   4.521
20122W        W88516  22.305   6.174   4.311
20123W        W88517   2.283   5.324  12.964
20124W        W88518  26.705   0.977   5.424
20125W        W88519  22.187  11.334   0.873
20126W        W88520  40.483  17.830  12.419
20127W        W88521  23.664  13.086   1.728
20128W        W88522  26.688  22.755  14.829
20129W        W88523  43.757  42.499  11.127
20130W        W88524   0.957  11.974  12.169
20131W        W88525  22.832  19.213   3.236
20132W        W88526  19.967  13.798  14.555
20133W        W88527   6.127  17.588  11.018
20134W        W88528  39.302  18.571   0.503
20135W        W88529   0.218  17.789  11.735
20136W        W88530  29.621  10.804   1.283
20137W        W88531  19.939  18.814   4.554
20138W        W88532   6.911  13.265  10.088
20139W        W88533  44.890   9.913  14.487
20140W        W88534  15.878  18.543   3.917
20141W        W88535   3.767  19.044   3.681
20142W        W88536  23.041  43.120   4.256
20143W        W88537   9.107  35.127  14.357
20144W        W88538   5.323  27.456  12.548
20145W        W88539  31.647  11.131   1.486
20146W        W88540  35.644  41.898  13.795
20147W        W88541  10.926  24.338   1.033
20148W        W88542  21.041  42.457  13.439
20149W        W88543   7.224   1.386  14.725
20150W        W88544  35.903  13.260   0.747
20151W        W88545   6.669  27.999   0.231
20152W        W88546  37.907  14.813  14.030
20153W        W88547  16.031  30.033   3.673
20154W        W88548  34.544  12.942  10.712
20155W        W88549  30.757  44.474  13.325
20156W        W88550   5.859  36.113   4.328
20157W        W88551  15.469  21.418  12.927
20158W        W88552  35.966   8.130   1.713
20159W        W88553   2.635  20.815  13.426
20160W        W88554   3.681  22.402   5.055
20161W        W88555   8.818   2.057  11.052
20162W        W88556   8.744   1.369  14.091
20163W        W88557  28.896  43.825  13.573
20164W        W88558  38.393  12.652   3.278
20165W        W88559   5.981  35.424   4.884
20166W        W88560   0.177   1.533  12.780
20167W        W88561  17.498  38.304  12.962
20168W        W88562  21.756  24.633  10.926
20169W        W88563   1.250   6.481  13.341
20170W        W88564  13.615   8.656  12.029
20171W        W88565  19.280  40.317  13.509
20172W        W88566  12.307  30.093   4.158
20173W        W88567  37.806  36.508  11.576
20174W        W88568  17.787  33.444  13.566
20175W        W88569  17.134  30.600  12.536
20176W        W88570  17.574  36.467   5.559
20177W        W88571  22.508  26.459  11.512
20178W        W88572  11.852  24.491  12.986
20179W        W88573  12.657  33.871  12.332
20180W        W88574  27.039  21.086   2.841
20181W        W88575   2.783  23.789  13.563
20182W        W88576  28.355  13.984  13.871
20183W        W88577  20.225  16.653  11.877
20184W        W88578   1.993  13.151   2.347
20185W        W88579  37.496  35.092   2.851
20186W        W88580   6.007  29.913  13.384
20187W        W88581   3.766  19.569  11.170
20188W        W88582  39.845   3.330  14.048
20189W        W88583   4.322  36.828  14.855
20190W        W88584  35.842  10.685  10.748
20191W        W88585  27.543   6.467  13.874
20192W        W88586  40.363  31.223  10.608
20193W        W88587   1.816  42.883  10.757
20194W        W88588  36.549  18.123  12.019
20195W        W88589  19.463  27.021  14.423
20196W        W88590  34.372   6.334  10.985
20197W        W88591  15.845  25.793  14.252
20198W        W88592  31.062  16.426  14.260
20199W        W88593  21.472   6.038  14.769
20200W        W88594   6.130   2.238   3.713
20201W        W88595  34.405  38.643  12.391
20202W        W88596  19.314  25.656  12.513
20203W        W88597  43.834  26.201   0.520
20204W        W88598  36.795  33.989   4.059
20205W        W88599   5.873   1.113   4.994
20206W        W88600  36.469  15.928   2.785
20207W        W88601  11.929  39.369  11.250
20208W        W88602   1.408  24.454   3.810
20209W        W88603   0.231  23.194  14.348
20210W        W88604  16.737  33.497   3.364
20211W        W88605  26.582  34.806   5.007
20212W        W88606  33.497  43.254  11.327
20213W        W88607  23.164   9.855  12.667
20214W        W88608   8.393  20.833  10.754
20215W        W88609  20.226   3.424   3.338
20216W        W88610  35.618  37.749   1.280
20217W        W88611  43.543  37.442  11.623
20218W        W88612  12.000  21.494   1.185
20219W        W88613  13.159  34.070   1.426
20220W        W88614  32.049  25.946  12.210
20221W        W88615  16.812  38.923   0.850
20222W        W88616  36.005  33.339   2.483
20223W        W88617  39.895  19.045  12.816
20224W        W88618  44.452  15.595  14.556
20225W        W88619  33.813  26.221  12.372
20226W        W88620  35.446  44.795   2.337
20227W        W88621  27.678  32.758  13.406
20228W        W88622  37.598  11.788  12.502
20229W        W88623   1.633  31.143  12.995
20230W        W88624   7.797  42.823   1.156
20231W        W88625  20.654  44.537   4.333
20232W        W88626  14.760   0.263  10.573
20233W        W88627   6.126   2.775   3.096
20234W        W88628   2.388  15.592  14.470
20235W        W88629   6.509  30.055   0.721
20236W        W88630  32.384  35.738  13.083
20237W        W88631   7.796  35.640  14.751
20238W        W88632  33.527  30.953  14.041
20239W        W88633  22.702   9.387   1.706
20240W        W88634  30.941   1.173   4.084
20241W        W88635  24.300  44.485  14.952
20242W        W88636  18.333  30.968   1.931
20243W        W88637  31.167   1.065  12.034
20244W        W88638  35.458  38.099   1.652
20245W        W88639  11.044  10.176   4.526
20246W        W88640  17.624  44.692   3.121
20247W        W88641  31.482  42.470   0.476
20248W        W88642  30.982  36.190  14.880
20249W        W88643  19.829  15.753   1.722
20250W        W88644  40.541   1.178  10.773
20251W        W88645  31.433  39.896  12.270
20252W        W88646   0.997   9.045   0.571
20253W        W88647   8.329   6.947  12.253
20254W        W88648  41.522  17.153  11.704
20255W        W88649  14.807  44.499  13.521
20256W        W88650  16.906  23.618  14.270
20257W        W88651  13.433  35.960  12.165
20258W        W88652   4.914  35.045   0.142
20259W        W88653  35.459  21.729   3.590
20260W        W88654  23.864   1.454  13.046
20261W        W88655  35.025  23.668  13.125
20262W        W88656  36.019  36.940   0.971
20263W        W88657  30.690  35.673   4.882
20264W        W88658   7.270  23.077   1.161
20265W        W88659  40.947  13.571  11.419
20266W        W88660  11.110  36.678  14.087
20267W        W88661   1.019   0.173   1.192
20268W        W88662  13.742  35.728  12.532
20269W        W88663  38.476   6.942   3.518
20270W        W88664  32.493   6.320  13.571
20271W        W88665  39.536  10.878  13.447
20272W        W88666  34.515  36.853   4.596
20273W        W88667  41.295  23.674   1.719
20274W        W88668  13.254  39.591  12.038
20275W        W88669  26.282   8.880   2.235
20276W        W88670  33.628  18.141   3.287
20277W        W88671   2.337  37.848   2.351
20278W        W88672  25.352  18.422   3.298
20279W        W88673   6.041  27.681   2.960
20280W        W88674   8.202   4.942  13.884
20281W        W88675  32.024  30.369   3.243
20282W        W88676   2.110   0.828   3.682
20283W        W88677  10.840  30.695  12.341
20284W        W88678  41.049   1.019  14.076
20285W        W88679  11.620   1.829  14.767
20286W        W88680  40.793  30.920  10.682
20287W        W88681  42.215   6.562   1.347
20288W        W88682  36.951   5.311  11.596
20289W        W88683  18.110  28.066  14.484
20290W        W88684  37.542   7.342   3.419
20291W        W88685  15.901  27.491  12.129
20292W        W88686  36.271  13.696  12.438
20293W        W88687  35.874  40.354  10.668
20294W        W88688  21.292   3.672   4.643
20295W        W88689  23.495  29.960   2.707
20296W        W88690  27.226  30.881   1.286
20297W        W88691  19.460  23.531  12.113
20298W        W88692  24.656  41.162   4.592
20299W        W88693  17.694   2.206   0.913
20300W        W88694   8.690  29.196  13.847
20301W        W88695  29.009  23.090  12.144
20302W        W88696  32.543   9.360   4.570
20303W        W88697  43.433  32.084  14.501
20304W        W88698   7.840   0.449   2.184
20305W        W88699  32.615  18.500  12.153
20306W        W88700  17.525  34.432   1.480
20307W        W88701  22.241  12.241  14.797
20308W        W88702  10.975   7.965  11.098
20309W        W88703   1.772  42.959  14.487
20310W        W88704   7.772   6.813  12.480
20311W        W88705  16.202  20.453  13.412
20312W        W88706  13.743  21.520   2.256
20313W        W88707  40.474  11.331  12.597
20314W        W88708  43.668   6.691  14.882
20315W        W88709  35.669  37.929  14.284
20316W        W88710  31.622  32.554   1.894
20317W        W88711  37.572  15.579   1.856
20318W        W88712  40.918  34.378   3.197
20319W        W88713  25.912   0.403   4.244
20320W        W88714   1.106  23.843  12.977
20321W        W88715   9.241  14.641  11.181
20322W        W88716  38.848  29.842   3.488
20323W        W88717  41.802   0.011   1.327
20324W        W88718  29.877   9.096  11.548
20325W        W88719  35.883   2.091   4.071
20326W        W88720  16.702  37.376   5.376
20327W        W88721  20.104  15.900   4.482
20328W        W88722  13.554   1.181   1.552
20329W        W88723  33.465  18.138  12.642
20330W        W88724  43.746  41.920   2.648
20331W        W88725   6.776  11.342  12.822
20332W        W88726  36.886  36.944  11.803
20333W        W88727   3.371  23.121  13.383
20334W        W88728  33.429  14.362  11.689
20335W        W88729  16.335   4.347   0.422
20336W        W88730  17.568  25.670  12.950
20337W        W88731  44.915  36.919   2.086
20338W        W88732  41.841  31.281  14.501
20339W        W88733  25.134  43.781   2.805
20340W        W88734  37.034   2.942   4.184
20341W        W88735  13.255  33.925   4.669
20342W        W88736  19.234   3.025  12.525
20343W        W88737  33.270  39.495  13.238
20344W        W88738  11.163  33.897  12.830
20345W        W88739   8.240  28.901  14.630
20346W        W88740  34.254  31.632  11.673
20347W        W88741  27.242  11.373  13.438
20348W        W88742  39.039  40.576   0.975
20349W        W88743  39.911  30.687   2.223
20350W        W88744  39.509  25.461   3.575
20351W        W88745  38.927  28.059   1.296
20352W        W88746  26.249  16.820   3.720
20353W        W88747  29.231  25.184   1.488
20354W        W88748  12.391   1.933  11.851
20355W        W88749  21.669  31.843  14.871
20356W        W88750  16.004  37.242  13.110
20357W        W88751  26.502  14.836   2.958
20358W        W88752  22.633   1.261  14.554
20359W        W88753   3.954  36.845  12.929
20360W        W88754  27.475  14.561   3.645
20361W        W88755  36.020  42.986   0.555
20362W        W88756  15.459   7.942  10.294
20363W        W88757  40.026  39.849  13.173
20364W        W88758  37.979  21.174   5.077
20365W        W88759   6.222  18.615  12.451
20366W        W88760  39.900  28.158  11.913
20367W        W88761   6.722  23.018  13.306
20368W        W88762  41.741   0.643   3.788
20369W        W88763  28.492  38.076   3.565
20370W        W88764  19.130  14.067   0.738
20371W        W88765  13.725   2.387  11.226
20372W        W88766  32.602  40.099  14.825
20373W        W88767  19.790  43.274   2.396
20374W        W88768  15.324  44.583  11.979
20375W        W88769  27.421  20.081   2.817
20376W        W88770   6.620  11.089   0.740
20377W        W88771  19.525  43.349  12.979
20378W        W88772   6.437  39.959   1.048
20379W        W88773  22.754  39.133  14.520
20380W        W88774  25.371  38.625  11.953
20381W        W88775  32.414  33.910   2.797
20382W        W88776  25.674  16.118  14.010
20383W        W88777  21.733   4.204   1.832
20384W        W88778  23.527  43.530  13.510
20385W        W88779  18.988  38.399   2.812
20386W        W88780  26.185  14.280  12.920
20387W        W88781  36.541   7.717  12.003
20388W        W88782  27.291   1.095  14.076
20389W        W88783  40.831  12.409  10.439
20390W        W88784  31.519  42.836  12.631
20391W        W88785   7.677  21.697   2.157
20392W        W88786  40.532  42.925  12.848
20393W        W88787  17.071  39.531   0.301
20394W        W88788  25.773  35.503   3.230
20395W        W88789  27.822  20.638   0.898
20396W        W88790   1.442   9.758   2.618
20397W        W88791  39.468  35.908  11.244
20398W        W88792  44.895  28.078   3.838
20399W        W88793   8.915  29.007  10.225
20400W        W88794  44.813  13.544   0.818
20401W        W88795  24.795  35.665  14.500
20402W        W88796  32.465  34.481   3.107
20403W        W88797   8.764   1.977   1.798
20404W        W88798  40.432  37.055   9.716
20405W        W88799   6.087   9.891   0.900
20406W        W88800   2.806  11.726  10.939
20407W        W88801  40.849  20.666   3.858
20408W        W88802  36.846  44.282   1.928
20409W        W88803  31.644  37.478   3.309
20410W        W88804  12.699  37.911   3.580
20411W        W88805  29.181  20.750   2.482
20412W        W88806  39.813   8.191  11.153
20413W        W88807  28.237  34.583   3.162
20414W        W88808  43.851   3.392   2.646
20415W        W88809  13.171  37.102  11.445
20416W        W88810  35.096  36.791   0.901
20417W        W88811  25.618   5.273  10.892
20418W        W88812  43.763  42.814   4.446
20419W        W88813  13.262  34.532  12.134
20420W        W88814  40.696  34.789  13.925
20421W        W88815  16.403  23.131   1.219
20422W        W88816   7.884   8.911   0.764
20423W        W88817  20.038  26.758  11.657
20424W        W88818  20.606  39.072  12.933
20425W        W88819  11.309  38.486  10.552
20426W        W88820  31.543  25.576   4.876
20427W        W88821  11.111   5.185  10.738
20428W        W88822  15.344   9.214   3.975
20429W        W88823  39.931  26.938   3.764
20430W        W88824  17.387  35.500   2.895
20431W        W88825  25.023  40.936  14.869
20432W        W88826   6.338  29.883  11.084
20433W        W88827  25.493  23.579  14.812
20434W        W88828  39.977   0.779  11.363
20435W        W88829  16.611  44.846   1.698
20436W        W88830  38.293  37.064   0.181
20437W        W88831   1.614  35.971   4.554
20438W        W88832  42.898  39.273   9.845
20439W        W88833   9.109   4.411  14.256
20440W        W88834  12.730  43.916   3.376
20441W        W88835  38.547  29.983   2.179
20442W        W88836  41.818  25.937  14.996
20443W        W88837  13.482   4.758   3.795
20444W        W88838  33.158  29.363  11.392
20445W        W88839  33.287  38.141   4.225
20446W        W88840  39.914  24.605  12.951
20447W        W88841  17.832  11.758   4.469
20448W        W88842  38.323   7.754   2.321
20449W        W88843   8.779  32.190  12.673
20450W        W88844  10.236   8.422   3.577
20451W        W88845  23.556   8.792  14.267
20452W        W88846   6.736  31.460   0.280
20453W        W88847   0.255  13.225   2.271
20454W        W88848  21.077  41.003  11.130
20455W        W88849  41.876  14.117  10.115
20456W        W88850  31.359  34.917   1.805
20457W        W88851  15.251  13.620   2.393
20458W        W88852  24.664  14.137   3.818
20459W        W88853  32.990   6.503   2.989
20460W        W88854  38.616  38.737  13.891
20461W        W88855   3.378  33.135   1.741
20462W        W88856  33.048   9.376   1.813
20463W        W88857   7.077  10.246  12.941
20464W        W88858  10.845  20.012   3.696
20465W        W88859   9.421   7.894   5.058
20466W        W88860  28.181  19.655   3.679
20467W        W88861   8.754   2.311  13.890
20468W        W88862  14.715  26.963  14.948
20469W        W88863  18.312  16.513   0.461
20470W        W88864  37.474  43.174   2.296
20471W        W88865  11.321   3.870  13.833
20472W        W88866   7.671  25.190  11.555
20473W        W88867  11.244  10.402  10.858
20474W        W88868   0.278  15.542  14.516
20475W        W88869  25.659   8.968  11.251
20476W        W88870  41.397  26.919   4.657
20477W        W88871  21.901  17.478   2.563
20478W        W88872  37.384  39.988   4.463
20479W        W88873  32.866  19.567   4.196
20480W        W88874  18.209  30.990  11.112
20481W        W88875   6.621  36.916   2.283
20482W        W88876  28.954  26.663   2.307
20483W        W88877  40.277   3.442  14.327
20484W        W88878  18.048  15.369  10.221
20485W        W88879  36.395  17.807  10.786
20486W        W88880   6.700  13.511   4.037
20487W        W88881   1.550  32.580   1.300
20488W        W88882  19.219  21.125  11.891
20489W        W88883  12.141   7.824   4.579
20490W        W88884  42.665  31.243  13.456
20491W        W88885   5.474  39.015   1.184
20492W        W88886  31.423  20.800   3.268
20493W        W88887  11.660  25.594   4.402
20494W        W88888   8.626  30.740   1.346
20495W        W88889   6.463  42.999  14.369
20496W        W88890   3.210  13.177  14.397
20497W        W88891  18.052  23.136   2.686
20498W        W88892   1.215  34.890   3.663
20499W        W88893  39.201  14.113  12.637
20500W        W88894  40.201  34.093  11.540
20501W        W88895  38.367  26.943  11.329
20502W        W88896   8.573  15.576  14.861
20503W        W88897  25.285  41.104  10.820
20504W        W88898  25.969  12.447   0.769
20505W        W88899  25.110  29.606  13.983
20506W        W88900   9.436  17.469  11.171
20507W        W88901   5.722   7.640   0.286
20508W        W88902  30.348  25.232  13.886
20509W        W88903  22.120  12.825  12.506
20510W        W88904  22.247  35.031  10.929
20511W        W88905  32.085  14.131  12.908
20512W        W88906  41.301   0.056  13.941
20513W        W88907  15.031   1.613  11.690
20514W        W88908   9.284  23.492   4.557
20515W        W88909   0.188  26.646   3.707
20516W        W88910  35.852   6.789  11.965
20517W        W88911  39.710  20.123   0.032
20518W        W88912  42.953   9.388  10.369
20519W        W88913  36.580   8.963  14.940
20520W        W88914  36.619  40.538   0.402
20521W        W88915  29.577  38.465   1.634
20522W        W88916  31.395  18.851  11.557
20523W        W88917  26.710  11.206  12.044
20524W        W88918  38.347   3.515  12.902
20525W        W88919   4.818  35.728  14.448
20526W        W88920   8.997  15.256  13.510
20527W        W88921   3.038  22.942  11.665
20528W        W88922  29.482  38.010   1.903
20529W        W88923  34.892  11.000  12.706
20530W        W88924  32.029  32.905  14.305
20531W        W88925  31.965   6.280  12.148
20532W        W88926   4.328   6.831   1.305
20533W        W88927  34.133   2.512   1.035
20534W        W88928   3.943  19.074  11.189
20535W        W88929  15.260   0.403  11.209
20536W        W88930  41.967  39.969   2.929
20537W        W88931  14.183  39.711  13.348
20538W        W88932  24.042  10.274  12.170
20539W        W88933  11.723  17.957  11.582
20540W        W88934  40.990  20.576  14.947
20541W        W88935  19.103  35.927   5.433
20542W        W88936  32.697   7.552   1.635
20543W        W88937  26.092  40.955   4.625
20544W        W88938  10.356  10.255  10.629
20545W        W88939   8.694   5.480  13.544
20546W        W88940  42.728  20.787   2.650
20547W        W88941  33.562  28.732  14.661
20548W        W88942  29.232  15.347   0.883
20549W        W88943  24.472   7.074  11.093
20550W        W88944   0.196   6.369   2.771
20551W        W88945  26.526  15.521   0.840
20552W        W88946  36.853   2.959   4.684
20553W        W88947  24.669  44.852   4.640
20554W        W88948  24.728  30.881   4.300
20555W        W88949  40.950  27.370  11.135
20556W        W88950   2.276  16.134  12.479
20557W        W88951  29.005  19.140  10.889
20558W        W88952  37.597  41.287   4.561
20559W        W88953  20.221  23.815   0.708
20560W        W88954   5.375   2.396  12.079
20561W        W88955  31.866  23.233   1.814
20562W        W88956  27.935  24.621  13.935
20563W        W88957  26.598  28.353  11.504
20564W        W88958  20.621  29.478  12.034
20565W        W88959  30.566  40.062  11.277
20566W        W88960  24.627   5.788   1.039
20567W        W88961   0.462   2.018   0.746
20568W        W88962   3.907  34.149   0.313
20569W        W88963   4.378   3.194  14.875
20570W        W88964  35.038   5.097  10.661
20571W        W88965  21.967  23.026   1.361
20572W        W88966  20.489  19.874  14.478
20573W        W88967  42.283  19.594   2.792
20574W        W88968  36.887   5.846  12.912
20575W        W88969  34.673  25.935   3.207
20576W        W88970  44.500  18.233   0.026
20577W        W88971  10.971  42.434   0.244
20578W        W88972  23.228  19.110   2.425
20579W        W88973  38.872  25.387   1.454
20580W        W88974  35.113   6.965  11.249
20581W        W88975  15.255  40.098  12.953
20582W        W88976  15.805  21.716   2.834
20583W        W88977  43.597   4.518  12.065
20584W        W88978  16.613   9.817   0.850
20585W        W88979  39.747   0.403   3.397
20586W        W88980  23.756   7.343   3.420
20587W        W88981   6.210   4.452   1.905
20588W        W88982  32.528  30.733   2.231
20589W        W88983  40.732   9.320  12.479
20590W        W88984  10.756  10.234   0.894
20591W        W88985   0.326  41.374  11.657
20592W        W88986   4.448  11.888   4.172
20593W        W88987  18.315  27.165   1.440
20594W        W88988  21.299  14.172  13.042
20595W        W88989   5.674   1.929   2.947
20596W        W88990  35.471  13.633   3.188
20597W        W88991  33.182  35.608  13.596
20598W        W88992  31.808  39.223   3.379
20599W        W88993   6.885  25.495   4.112
20600W        W88994  23.809  28.782   3.547
20601W        W88995   4.208   8.520  10.914
20602W        W88996  18.597  34.052  14.391
20603W        W88997  39.530  31.927  11.999
20604W        W88998  28.181  31.053   3.397
20605W        W88999  30.995  24.474   4.671
20606W        W89000  40.354  12.248  10.536
20607W        W89001  23.813  21.170   1.682
20608W        W89002  29.635  31.020   4.073
20609W        W89003   5.705  17.623   2.800
20610W        W89004  14.373  21.589  10.704
20611W        W89005  21.151  26.672   0.780
20612W        W89006   4.814  37.470  13.354
20613W        W89007   3.949  29.280  10.451
20614W        W89008   6.837   8.215  13.764
20615W        W89009  44.470  16.564  14.394
20616W        W89010  29.536  28.428   1.635
20617W        W89011  39.387  39.815   0.761
20618W        W89012  42.956  36.934  13.791
20619W        W89013  11.666  38.958   4.601
20620W        W89014  29.098  25.376  14.160
20621W        W89015  28.643  43.344   4.116
20622W        W89016  43.249  28.255   0.666
20623W        W89017  38.419  21.108   2.200
20624W        W89018  42.834  18.889  11.658
20625W        W89019  21.301   3.938   1.782
20626W        W89020  21.886  24.110   0.346
20627W        W89021   7.524   2.038   0.334
20628W        W89022  14.320  11.189   3.209
20629W        W89023   9.131  27.316   0.005
20630W        W89024  38.250   0.270  10.628
20631W        W89025  32.868  22.077  12.601
20632W        W89026  15.482  17.822   4.621
20633W        W89027  23.609  13.156  12.997
20634W        W89028  16.753  43.776   1.424
20635W        W89029  23.430  38.512  14.310
20636W        W89030   2.727   1.564   0.721
20637W        W89031   3.097  21.051  13.512
20638W        W89032  36.373  11.168   2.729
20639W        W89033  14.965   7.637  11.615
20640W        W89034  44.816  38.914   3.422
20641W        W89035   5.370  18.371   3.143
20642W        W89036  22.500  13.659  10.623
20643W        W89037   8.627  16.182  12.107
20644W        W89038  25.712  20.816   2.380
20645W        W89039  39.677   3.373  11.438
20646W        W89040   0.465  26.889  11.592
20647W        W89041  35.416  24.627   3.289
20648W        W89042   3.619  24.865  13.116
20649W        W89043  35.889  38.871   1.809
20650W        W89044  10.965  15.674  11.012
20651W        W89045   7.835  38.347   2.803
20652W        W89046  27.396  28.161   1.379
20653W        W89047  19.269  11.647   0.410
20654W        W89048  20.043  24.813   5.031
20655W        W89049  18.625   9.040   4.267
20656W        W89050   9.769  25.205  13.858
20657W        W89051  14.594   8.313  12.316
20658W        W89052   6.319  14.023   9.944
20659W        W89053  26.435  40.382  14.488
20660W        W89054  21.937  36.962  14.936
20661W        W89055  37.899   4.410  12.227
20662W        W89056  24.087  13.388  13.005
20663W        W89057  41.047  42.887  11.182
20664W        W89058  29.431  36.724   2.390
20665W        W89059  37.567  20.425  13.911
20666W        W89060  33.070   9.268   0.344
20667W        W89061  23.074  20.697  12.514
20668W        W89062  22.214  44.916   1.704
20669W        W89063  30.602  43.372  13.919
20670W        W89064  21.172  34.425  14.575
20671W        W89065   5.454  21.499   0.868
20672W        W89066  34.352  32.678  14.800
20673W        W89067  14.572  16.073   0.293
20674W        W89068  44.382  41.237   2.934
20675W        W89069  31.873  38.838  12.674
20676W        W89070  17.241  28.087   1.848
20677W        W89071   9.019  30.665   4.576
20678W        W89072  19.135  13.409  11.582
20679W        W89073  11.386  20.602   3.858
20680W        W89074  32.736   3.814  11.547
20681W        W89075  25.063  43.521   3.684
20682W        W89076  23.609   3.551   4.083
20683W        W89077   8.535  28.986   2.301
20684W        W89078  34.751  30.492   5.027
20685W        W89079  40.840  17.655  13.365
20686W        W89080   7.285  30.664   2.616
20687W        W89081  15.660   0.774  13.723
20688W        W89082  19.692  22.244  14.293
20689W        W89083   0.841   7.724   1.959
20690W        W89084  17.846  36.889   2.228
20691W        W89085  30.588  35.015  12.770
20692W        W89086   0.343  34.115   0.334
20693W        W89087   3.521  10.262   0.238
20694W        W89088  14.769  25.142  12.815
20695W        W89089  40.488  13.600  11.228
20696W        W89090  22.760  38.925   2.568
20697W        W89091  19.744  16.699  14.026
20698W        W89092   0.038  25.561  12.500
20699W        W89093  35.856   9.324  11.122
20700W        W89094  14.779   8.727  12.555
20701W        W89095  24.531  28.461   2.407
20702W        W89096   2.833  24.644  12.567
20703W        W89097  17.942   6.268   5.420
20704W        W89098  38.364  33.043   2.397
20705W        W89099   8.952   8.993  14.355
20706W        W89100  40.322  17.726  13.319
20707W        W89101  28.424   9.622   4.443
20708W        W89102  15.974  17.302   2.732
20709W        W89103   8.228  25.269   0.732
20710W        W89104   0.238  40.988  12.973
20711W        W89105  37.638  20.130  10.778
20712W        W89106  38.294  12.597  13.888
20713W        W89107  21.749   2.784   1.728
20714W        W89108  23.023  13.219  12.461
20715W        W89109  21.117  16.602  14.219
20716W        W89110   7.205   9.263  13.384
20717W        W89111  26.951   2.714   0.258
20718W        W89112  35.511  23.840   2.626
20719W        W89113  40.923  18.023  10.563
20720W        W89114  12.553  28.648   1.178
20721W        W89115  35.285  43.296   2.774
20722W        W89116  23.265  21.202  11.111
20723W        W89117  43.948  21.997   3.198
20724W        W89118  10.859  37.020  12.348
20725W        W89119  44.007  37.655  11.537
20726W        W89120  22.435  41.161   2.227
20727W        W89121  43.925  19.390   4.857
20728W        W89122  40.647  23.991   4.600
20729W        W89123  19.825  41.995   0.113
20730W        W89124  19.219  32.619   1.149
20731W        W89125  40.865  21.209   0.707
20732W        W89126  24.503  24.678  11.196
20733W        W89127  13.147   3.133  13.624
20734W        W89128   2.019  20.252  11.045
20735W        W89129  37.152  26.600  13.623
20736W        W89130  33.480  28.013   1.830
20737W        W89131  34.848  29.726  12.522
20738W        W89132  23.734  20.110   3.407
20739W        W89133   0.067   9.953  12.430
20740W        W89134  34.434  44.896  11.630
20741W        W89135  30.541  15.799  13.042
20742W        W89136  30.143   7.665  11.570
20743W        W89137   3.748  14.116  14.323
20744W        W89138   5.232  32.657  12.398
20745W        W89139   2.371   5.671  11.502
20746W        W89140  31.395  11.253  14.972
20747W        W89141  14.597   7.346  10.933
20748W        W89142  35.834   9.699   0.272
20749W        W89143  25.048   7.913   2.204
20750W        W89144   0.528  42.755  14.040
20751W        W89145   8.696   7.785   1.895
20752W        W89146  31.928   6.797   0.398
20753W        W89147  40.395  27.571   2.716
20754W        W89148  34.079   0.327   4.226
20755W        W89149  22.432  33.454  10.354
20756W        W89150  11.256  29.994   1.828
20757W        W89151  23.064   6.144   0.261
20758W        W89152  38.835   2.649  14.345
20759W        W89153  25.470  12.484   2.012
20760W        W89154   8.731  22.765   1.767
20761W        W89155  41.035  35.104   0.373
20762W        W89156  15.437  30.428  12.073
20763W        W89157  14.570  13.285  14.323
20764W        W89158  34.504   4.348  14.914
20765W        W89159  17.311  34.946   0.472
20766W        W89160  21.668  38.008   4.706
20767W        W89161  21.478  20.931  13.379
20768W        W89162   5.981  34.634  13.870
20769W        W89163  32.036  29.437   4.486
20770W        W89164  20.345   9.637  14.656
20771W        W89165  27.868  21.542  13.615
20772W        W89166   2.174  14.073   3.295
20773W        W89167   8.359  37.238   1.022
20774W        W89168  33.106  16.733  10.722
20775W        W89169  21.226  42.997  10.744
20776W        W89170  19.558  32.956  10.620
20777W        W89171  36.418  43.950   2.808
20778W        W89172  23.216  34.698  11.473
20779W        W89173  20.799  30.003  13.059
20780W        W89174   9.764  31.262   4.134
20781W        W89175  24.660  18.597   4.994
20782W        W89176  12.906  23.686   1.473
20783W        W89177  31.368  40.409  12.989
20784W        W89178  34.002  32.596  12.293
20785W        W89179   5.689  30.909   0.043
20786W        W89180   4.303   4.509   1.233
20787W        W89181   8.216  24.106  14.342
20788W        W89182  35.509  37.095   3.653
20789W        W89183  44.703  37.945  11.429
20790W        W89184   3.820   4.671   1.382
20791W        W89185  24.993  34.855   4.550
20792W        W89186  13.189   9.262  11.034
20793W        W89187  16.938  34.631  11.198
20794W        W89188  37.261   6.608   0.274
20795W        W89189  31.969  21.204  13.444
20796W        W89190   3.605  24.268   4.788
20797W        W89191  20.549  17.268  12.504
20798W        W89192   3.877  25.096   9.944
20799W        W89193  19.184  42.787  14.912
20800W        W89194  24.587  28.601   1.121
20801W        W89195  27.635  44.520  14.509
20802W        W89196  39.924  27.648  12.046
20803W        W89197   6.375  30.925   0.697
20804W        W89198  31.305  18.810  14.284
20805W        W89199  42.538  12.326   0.462
20806W        W89200   9.437  11.211   4.520
20807W        W89201  14.580  42.479  13.026
20808W        W89202   1.953  19.100   0.852
20809W        W89203  37.912  10.422   0.183
20810W        W89204  28.737   3.215  12.763
20811W        W89205  11.074  25.162  13.516
20812W        W89206  43.944  36.351  13.836
20813W        W89207   9.222  21.962  10.970
20814W        W89208  15.182   2.232   2.762
20815W        W89209  18.063  11.332   4.680
20816W        W89210  29.598  28.655  13.794
20817W        W89211   2.016  24.800   3.255
20818W        W89212   2.544  21.309  14.948
20819W        W89213   5.280  34.124  11.651
20820W        W89214   6.986  24.443   1.647
20821W        W89215  18.335   8.270   2.112
20822W        W89216   1.345  11.637  12.036
20823W        W89217  12.875  42.978   0.806
20824W        W89218  21.756  31.449   1.035
20825W        W89219  28.214   5.710  10.006
20826W        W89220  22.828  10.874   1.091
20827W        W89221   6.799   9.846   1.690
20828W        W89222  38.620  21.217  11.119
20829W        W89223  16.627   5.221   4.561
20830W        W89224  41.138   2.335  14.469
20831W        W89225  11.066  23.026  14.761
20832W        W89226  39.683  22.874   2.802
20833W        W89227  36.592  37.392  11.999
20834W        W89228  26.909  11.167   2.705
20835W        W89229  32.965  37.163  13.985
20836W        W89230   7.849  30.582   3.312
20837W        W89231  10.688  25.382   0.758
20838W        W89232  41.325  34.626   0.359
20839W        W89233  36.109   7.362  14.700
20840W        W89234   8.792   2.295   0.511
20841W        W89235  18.078   7.765  12.556
20842W        W89236  37.655  36.405   5.207
20843W        W89237  21.028  33.380   1.757
20844W        W89238  43.227  39.842  11.046
20845W        W89239  12.464  43.828  11.447
20846W        W89240   8.428   2.434   1.952
20847W        W89241  19.485  30.957  13.917
20848W        W89242  26.291  42.502   5.385
20849W        W89243  44.554  32.002   2.253
20850W        W89244  24.019  22.835   0.358
20851W        W89245  37.782  31.016  13.864
20852W        W89246  26.673  28.040   4.575
20853W        W89247   0.357  42.369  12.937
20854W        W89248  14.312   9.284   2.162
20855W        W89249  22.206  14.001  11.515
20856W        W89250   0.313  13.038  14.392
20857W        W89251  22.709   4.167  12.411
20858W        W89252  23.011  36.150  12.653
20859W        W89253  41.279  20.024   4.523
20860W        W89254   9.209  42.654   0.071
20861W        W89255   0.740   6.267  10.160
20862W        W89256  25.259  14.387  13.902
20863W        W89257  12.721  24.093   1.221
20864W        W89258   1.577  16.219   3.740
20865W        W89259  30.916  26.172   0.843
20866W        W89260  22.729  11.386   1.778
20867W        W89261   7.844  31.076  10.999
20868W        W89262  38.527   6.842  11.163
20869W        W89263   1.440   6.978  12.450
20870W        W89264  10.242  39.576   3.879
20871W        W89265  19.473  10.871   2.242
20872W        W89266  13.709   3.516  10.404
20873W        W89267  37.820  13.676   0.789
20874W        W89268  27.136  28.123  10.260
20875W        W89269  16.602  10.322   3.548
20876W        W89270  19.364  16.384  12.429
20877W        W89271   5.352  32.545   3.595
20878W        W89272  42.749  20.247  11.732
20879W        W89273  20.908  12.870   3.582
20880W        W89274  40.141  36.790   5.515
20881W        W89275  14.776  22.190  13.969
20882W        W89276  15.354  24.438   1.693
20883W        W89277  29.212   1.742   2.398
20884W        W89278  26.339  28.110   2.039
20885W        W89279   9.745  16.346   4.328
20886W        W89280  43.245  37.112  11.308
20887W        W89281   7.141  16.022   2.324
20888W        W89282   9.354  44.464  12.578
20889W        W89283  15.495  10.306  10.270
20890W        W89284  35.553  37.054  10.780
20891W        W89285   4.716  40.411  10.693
20892W        W89286  10.255  18.602  14.990
20893W        W89287   1.757  42.524   0.401
20894W        W89288  19.660  35.298  13.583
20895W        W89289   8.389   4.385   2.780
20896W        W89290   7.238   6.622   2.438
20897W        W89291  34.677   2.006  11.704
20898W        W89292  26.526  30.720  12.164
20899W        W89293  28.753  13.811  11.729
20900W        W89294  34.008  19.160  14.541
20901W        W89295   1.974  41.697  12.983
20902W        W89296  25.518  34.607   4.348
20903W        W89297  15.560  25.491   4.709
20904W        W89298  29.404  43.907   1.260
20905W        W89299  19.044  35.828   3.292
20906W        W89300  26.002  18.611  14.278
20907W        W89301   3.239   4.300  13.198
20908W        W89302   9.467  14.736   2.939
20909W        W89303  18.184   6.906  13.617
20910W        W89304   8.448  34.903   3.346
20911W        W89305   9.280  41.092   2.751
20912W        W89306  15.737   8.250  12.929
20913W        W89307  28.156   2.474   0.480
20914W        W89308  11.443   4.542  11.224
20915W        W89309   7.126  33.530   0.313
20916W        W89310  43.134  36.449  13.743
20917W        W89311   0.426  21.568   3.202
20918W        W89312  42.550  14.802   4.646
20919W        W89313  25.046  21.196   2.623
20920W        W89314  19.776  14.840  13.341
20921W        W89315   1.000  24.447   3.063
20922W        W89316  44.038   5.400   4.730
20923W        W89317  16.698  35.522   4.616
20924W        W89318  19.830  15.654  12.104
20925W        W89319  31.417  16.440   0.511
20926W        W89320  39.505   0.536  12.810
20927W        W89321  39.453  10.661  13.902
20928W        W89322  38.954  30.517  12.968
20929W        W89323  29.866   6.598  13.064
20930W        W89324  42.915  12.967   3.137
20931W        W89325  13.500   5.738   1.650
20932W        W89326  12.223  15.785   1.412
20933W        W89327  32.351  18.275   2.191
20934W        W89328   6.967  19.155  10.838
20935W        W89329  12.677  35.355  14.428
20936W        W89330  40.532  16.153  10.598
20937W        W89331   2.364  15.266   3.931
20938W        W89332  18.271  26.550  12.878
20939W        W89333  14.605   2.791   4.578
20940W        W89334  12.704  22.617   1.500
20941W        W89335  40.324  36.016  11.154
20942W        W89336  32.513  37.173  11.165
20943W        W89337   8.588  23.837  10.767
20944W        W89338  43.944  41.388  11.647
20945W        W89339  14.630  26.586   2.896
20946W        W89340   1.225  33.821   2.341
20947W        W89341  32.183  14.103   0.944
20948W        W89342  28.666  20.177  13.823
20949W        W89343   9.737  18.691   4.674
20950W        W89344  34.979  17.569  14.329
20951W        W89345  12.370  28.978  14.465
20952W        W89346  43.797  42.100  14.339
20953W        W89347  38.585  39.958  13.465
20954W        W89348  18.267  17.794   0.338
20955W        W89349  16.961   1.943   2.440
20956W        W89350  40.430  36.169  12.969
20957W        W89351  25.300   1.855   1.249
20958W        W89352  31.164  33.558  14.345
20959W        W89353  36.072  18.096   1.907
20960W        W89354  22.288  20.230   1.350
20961W        W89355   8.751  38.033  10.721
20962W        W89356  23.099   1.826  10.701
20963W        W89357  39.684  14.572  13.766
20964W        W89358   9.227  26.898  13.044
20965W        W89359  25.630  26.600  13.054
20966W        W89360  28.179  10.678  12.693
20967W        W89361   4.117  13.174   3.644
20968W        W89362   1.993  26.688   4.653
20969W        W89363   3.351  12.564  11.560
20970W        W89364  34.552  14.694   4.650
20971W        W89365   7.928  38.129   0.440
20972W        W89366  24.983   8.851   1.925
20973W        W89367  24.435  23.971   2.738
20974W        W89368  39.315  20.713  13.037
20975W        W89369   0.455  33.424  12.862
20976W        W89370  41.590   3.298   0.663
20977W        W89371  43.459  21.648   0.712
20978W        W89372  37.438  39.491   3.864
20979W        W89373   9.738  39.521   3.213
20980W        W89374  27.129  41.847  14.049
20981W        W89375  30.959   0.060  11.958
20982W        W89376  36.893   1.984  12.699
20983W        W89377   2.458  42.567   0.783
20984W        W89378   3.908  29.142   0.422
20985W        W89379  21.286  33.371   1.263
20986W        W89380   8.739   4.880  12.200
20987W        W89381   4.044   2.329   0.124
20988W        W89382  32.037  35.369   4.701
20989W        W89383  24.191  24.990   0.424
20990W        W89384  16.478   6.875  12.119
20991W        W89385  25.295   3.255   2.672
20992W        W89386   9.860  44.426   4.823
20993W        W89387   2.697   8.404  11.510
20994W        W89388  25.085  44.360  13.083
20995W        W89389  40.451  43.680   4.342
20996W        W89390  38.359  40.918   3.647
20997W        W89391  21.707  10.731   1.321
20998W        W89392  10.360   9.104   2.266
20999W        W89393   8.847  19.627   1.920
21000W        W89394  16.613  22.731  13.002
21001W        W89395  20.686  16.143  12.662
21002W        W89396  34.981  10.322   1.468
21003W        W89397  23.720  43.866  12.158
21004W        W89398  29.003  44.395  14.104
21005W        W89399  34.433  12.770   0.992
21006W        W89400  27.170  21.023  11.944
21007W        W89401  37.975  44.239   4.155
21008W        W89402   7.908  28.156  11.516
21009W        W89403  37.603  15.704  11.589
21010W        W89404   9.227   0.543   4.177
21011W        W89405  35.613  35.344  12.579
21012W        W89406  36.818  40.970  12.864
21013W        W89407   1.604  27.227   2.853
21014W        W89408   9.093  14.226   2.644
21015W        W89409  16.657  34.397   0.960
21016W        W89410  42.241  42.065  14.714
21017W        W89411  20.166   7.745   0.772
21018W        W89412   9.582   4.901   0.192
21019W        W89413   1.431  36.670   3.202
21020W        W89414  41.536  20.320   3.316
21021W        W89415   4.840  32.339  12.626
21022W        W89416  31.927  35.104   3.394
21023W        W89417   4.413   5.715  13.056
21024W        W89418   4.293  16.664  13.138
21025W        W89419  10.109  36.424  14.380
21026W        W89420  34.603   1.156   4.086
21027W        W89421  34.095  22.211  14.783
21028W        W89422  21.898   1.760  13.709
21029W        W89423  35.247   1.684  10.438
21030W        W89424  18.637   9.435   3.888
21031W        W89425  24.105   3.392  14.441
21032W        W89426   8.746  34.339   0.299
21033W        W89427  42.984  21.165   2.882
21034W        W89428  32.892  34.068  13.415
21035W        W89429  26.488   8.746  11.952
21036W        W89430  14.244  26.082  12.865
21037W        W89431  22.882  41.291  12.939
21038W        W89432  28.137  12.778   2.178
21039W        W89433  36.075   1.427  11.586
21040W        W89434   3.264   4.434   3.663
21041W        W89435   3.457  29.700  12.566
21042W        W89436   7.350   3.539   2.792
21043W        W89437  34.438  18.125  13.692
21044W        W89438  19.255  11.353   3.660
21045W        W89439  43.412   1.735   5.286
21046W        W89440  20.247   9.708  13.327
21047W        W89441   7.033  34.602   4.488
21048W        W89442  37.319  39.952  12.905
21049W        W89443  25.185   3.697  10.756
21050W        W89444  13.686  40.897   0.860
21051W        W89445  32.437  16.082  11.494
21052W        W89446   3.751   8.805  13.768
21053W        W89447  18.241  33.097   2.347
21054W        W89448   8.753  14.243   1.427
21055W        W89449  32.626  17.020   4.823
21056W        W89450  25.938  15.065   0.003
21057W        W89451  20.888  32.210   3.303
21058W        W89452  16.700  18.419  10.659
21059W        W89453  18.995  37.838   4.156
21060W        W89454   5.730  15.409  14.452
21061W        W89455  11.647  20.737  12.118
21062W        W89456  11.360  20.120  11.601
21063W        W89457  16.640  27.929  10.679
21064W        W89458  14.697   6.429  14.933
21065W        W89459   9.644  37.278  10.759
21066W        W89460   9.684  28.095  10.727
21067W        W89461  11.729  19.308  14.991
21068W        W89462  27.901  28.945  13.343
21069W        W89463  40.527  26.408   1.200
21070W        W89464  40.552  42.595   1.409
21071W        W89465  23.828  21.516   2.631
21072W        W89466  14.645   8.026  11.504
21073W        W89467  20.688  31.439  14.901
21074W        W89468  13.149  21.502   1.809
21075W        W89469  19.616  33.693   2.271
21076W        W89470  27.775  16.063  12.191
21077W        W89471  26.079  24.773   2.716
21078W        W89472   2.035  25.986   0.251
21079W        W89473  33.336  40.289   1.648
21080W        W89474  29.618  15.562  13.355
21081W        W89475  43.390  30.732   1.006
21082W        W89476  15.906   3.839  12.052
21083W        W89477  29.879  18.980   4.180
21084W        W89478  44.225  43.447  11.032
21085W        W89479  14.645  34.785  14.914
21086W        W89480  32.995  42.928   2.374
21087W        W89481  33.502  23.477   3.137
21088W        W89482   8.937  26.633   2.311
21089W        W89483  27.975  10.652  11.374
21090W        W89484   0.441   7.756   1.362
21091W        W89485   9.284  35.344  14.791
21092W        W89486  30.472  12.345   0.910
21093W        W89487   1.889  11.953  14.878
21094W        W89488  17.248  14.585   4.689
21095W        W89489  39.643  12.104  12.140
21096W        W89490  33.156   0.488  12.178
21097W        W89491   0.716   9.606   2.863
21098W        W89492  35.792  41.480   4.231
21099W        W89493  24.720  26.982  13.018
21100W        W89494  31.152  30.155  12.659
21101W        W89495  32.383  29.597   0.430
21102W        W89496   7.223   4.762  12.388
21103W        W89497  36.526  39.878  12.435
21104W        W89498  36.070  26.019  12.918
21105W        W89499  44.766  25.020  13.115
21106W        W89500  41.480  13.125  14.627
21107W        W89501  15.151   8.280   5.373
21108W        W89502   4.262  30.710  14.822
21109W        W89503  31.024  29.456   0.420
21110W        W89504  14.712  37.471  12.456
21111W        W89505  17.659   0.524  14.455
21112W        W89506  38.010  40.368   1.837
21113W        W89507  33.402  44.759   0.991
21114W        W89508  41.758  42.678  12.145
21115W        W89509  29.114   6.481   0.352
21116W        W89510  17.942  11.260   1.276
21117W        W89511  14.741  21.039  14.934
21118W        W89512  11.605  11.089  14.312
21119W        W89513  11.051  38.828   3.896
21120W        W89514  25.040  26.291   1.406
21121W        W89515  23.895   9.410   0.508
21122W        W89516  34.847  17.177  12.141
21123W        W89517  19.888   5.187  14.892
21124W        W89518  12.757  30.617   1.526
21125W        W89519  31.146  20.339  14.772
21126W        W89520  13.889  22.752   3.669
21127W        W89521  23.790  26.591   1.819
21128W        W89522  11.302   1.676  11.266
21129W        W89523  11.329  12.314   0.405
21130W        W89524   8.821  39.477   2.778
21131W        W89525  16.571  17.957   1.819
21132W        W89526  26.733  39.975  14.472
21133W        W89527  26.111  10.350  12.094
21134W        W89528  11.889  27.924   0.297
21135W        W89529  36.497  41.862  12.561
21136W        W89530  23.090  22.999   4.215
21137W        W89531   4.919  29.966   4.659
21138W        W89532  21.087  15.867   3.483
21139W        W89533  15.341   6.828   9.969
21140W        W89534  33.150  32.804  14.030
21141W        W89535  18.781   4.369  13.907
21142W        W89536  36.171  44.695   1.456
21143W        W89537  26.197   8.636   3.653
21144W        W89538  11.155   8.129   0.016
21145W        W89539  32.413  29.599   1.444
21146W        W89540   7.463  41.556  14.353
21147W        W89541   5.922  10.252   4.339
21148W        W89542  17.854  35.894   4.601
21149W        W89543  27.689   9.636  12.467
21150W        W89544  36.335  38.593   4.830
21151W        W89545  21.239  27.151  14.847
21152W        W89546  37.383  24.154   2.739
21153W        W89547  36.090  19.785   2.900
21154W        W89548  20.138  44.793   2.306
21155W        W89549  11.198  32.874   2.889
21156W        W89550  41.172   7.942  12.702
21157W        W89551  44.856  40.309   1.360
21158W        W89552   9.095  32.695  10.522
21159W        W89553   7.425  18.196   3.287
21160W        W89554  14.905  42.162   0.519
21161W        W89555  34.112   5.382   4.615
21162W        W89556  37.318   7.259   3.907
21163W        W89557  21.753  38.317   1.287
21164W        W89558  27.010  10.921   0.825
21165W        W89559  18.214   0.281   2.903
21166W        W89560   8.768  40.464   0.044
21167W        W89561  28.684  21.290  11.968
21168W        W89562  30.275  24.203   4.695
21169W        W89563  14.809  41.897  11.117
21170W        W89564  21.708  17.939   3.463
21171W        W89565  18.290  19.961  10.788
21172W        W89566  11.609  21.273   1.481
21173W        W89567  20.401  26.476  14.505
21174W        W89568   9.440  31.066   2.844
21175W        W89569   5.379  15.163   2.697
21176W        W89570  44.182  34.917  13.846
21177W        W89571  36.505  23.964   4.214
21178W        W89572  40.691   9.153  10.433
21179W        W89573  21.217  12.647   1.674
21180W        W89574  19.649  35.423   3.142
21181W        W89575   5.282  30.589  12.389
21182W        W89576  35.092  28.398   2.308
21183W        W89577  33.260  25.410  14.604
21184W        W89578  20.126  27.910  14.843
21185W        W89579  21.641  39.552  11.972
21186W        W89580  36.596  15.752  11.521
21187W        W89581  19.791  10.642   3.278
21188W        W89582  42.617  40.553   1.040
21189W        W89583  40.410  38.397   1.410
21190W        W89584   1.993   5.800  12.998
21191W        W89585   7.265  14.981  13.107
21192W        W89586  44.368  17.637   4.014
21193W        W89587  13.873  21.045  13.458
21194W        W89588  18.577   3.822  11.016
21195W        W89589   1.144  35.973   1.323
21196W        W89590   5.966   3.736  12.846
21197W        W89591  17.602  13.119  11.083
21198W        W89592  26.627  15.612   2.622
21199W        W89593  26.132  33.331   0.222
21200W        W89594   4.538   5.156  14.864
21201W        W89595  21.631   1.363  14.967
21202W        W89596   6.720  29.910  11.439
21203W        W89597   8.945   0.495  12.352
21204W        W89598   2.936  31.054   0.068
21205W        W89599  15.294   5.707  12.491
21206W        W89600  32.424  36.446   1.851
21207W        W89601  26.264  14.197   4.529
21208W        W89602  27.872  35.550  11.969
21209W        W89603  33.407  41.549  10.803
21210W        W89604  37.434   2.385   2.111
21211W        W89605  43.945   2.680   3.111
21212W        W89606  43.331  43.685  12.427
21213W        W89607  19.727  25.951   2.842
21214W        W89608  30.858   8.706   3.374
21215W        W89609  29.745  31.822   4.577
21216W        W89610  29.803   9.465   1.681
21217W        W89611  18.121  38.996   3.872
21218W        W89612   5.604   9.022   5.004
21219W        W89613  29.298   3.844   1.988
21220W        W89614  22.824  14.648  14.887
21221W        W89615   5.658  17.153   0.370
21222W        W89616  26.623  40.539  10.704
21223W        W89617  42.210  25.189  14.318
21224W        W89618   3.297  30.177   0.769
21225W        W89619  34.032  27.015   1.429
21226W        W89620   6.293  17.939   0.384
21227W        W89621  10.631   3.212  13.471
21228W        W89622  33.880   8.225  14.863
21229W        W89623  27.026   2.318  13.955
21230W        W89624  38.435  12.901   2.272
21231W        W89625   9.421  32.891   1.186
21232W        W89626   3.146  12.683  12.403
21233W        W89627  12.531  24.489  14.269
21234W        W89628  17.694   4.304  14.777
21235W        W89629  35.111  23.207   0.937
21236W        W89630  15.634  41.726   4.152
21237W        W89631   0.120  25.125   3.314
21238W        W89632   3.696   3.789  12.097
21239W        W89633  21.731  13.137   3.627
21240W        W89634  28.914  34.875   4.228
21241W        W89635  23.003  41.032  10.779
21242W        W89636  11.293  27.497  13.741
21243W        W89637  12.302  34.481   4.023
21244W        W89638   5.809  17.660  11.407
21245W        W89639  20.017  30.686  11.565
21246W        W89640  12.761  40.304   3.313
21247W        W89641  13.273  19.885   2.802
21248W        W89642  11.355  10.510  13.604
21249W        W89643   4.267  39.862   0.354
21250W        W89644  24.049  40.961  12.664
21251W        W89645  29.919  30.107  13.518
21252W        W89646   6.130  16.662  14.865
21253W        W89647   8.449  43.453  12.869
21254W        W89648  20.299   1.444  14.788
21255W        W89649  15.526   8.792  12.093
21256W        W89650  10.595  34.064  10.908
21257W        W89651  33.651  29.373  12.151
21258W        W89652  18.810  37.957  13.989
21259W        W89653  29.944   1.310   2.817
21260W        W89654  41.435  40.480   2.209
21261W        W89655   0.586  32.332   4.574
21262W        W89656  13.764  21.068   4.198
21263W        W89657   9.717  34.963  11.988
21264W        W89658   5.639   3.157   3.796
21265W        W89659  28.332   9.378   2.361
21266W        W89660  35.528  30.063   3.161
21267W        W89661  22.129  18.032  12.523
21268W        W89662  22.713   1.869   4.219
21269W        W89663   8.977  25.267  10.995
21270W        W89664  35.770  27.157   0.520
21271W        W89665  39.731  32.413   0.493
21272W        W89666  31.509  43.790   4.344
21273W        W89667   3.708  24.713  12.612
21274W        W89668  14.080  22.796   4.159
21275W        W89669  11.061  16.785  14.533
21276W        W89670  39.947  10.760  14.622
21277W        W89671  40.344   9.101   3.731
21278W        W89672  21.687  23.783  11.403
21279W        W89673  38.261   0.647   1.245
21280W        W89674  31.210  28.339   4.747
21281W        W89675  16.175  14.786  13.095
21282W        W89676   4.287  43.850  14.473
21283W        W89677   0.502  29.479   3.714
21284W        W89678  21.577   2.401  14.518
21285W        W89679  16.156  21.468   0.830
21286W        W89680  12.259  12.309   3.697
21287W        W89681   0.755  34.891   1.418
21288W        W89682  10.555  23.680   0.317
21289W        W89683  19.997  35.172   4.068
21290W        W89684  37.863  38.410  14.857
21291W        W89685  19.500  21.809  14.979
21292W        W89686   5.661  40.870   3.717
21293W        W89687  33.398  31.672   1.310
21294W        W89688   7.637  30.097  14.673
21295W        W89689  39.916  40.471   0.939
21296W        W89690  42.776  18.166   0.814
21297W        W89691  25.719  42.941  14.392
21298W        W89692  24.556  15.163   4.618
21299W        W89693  14.263   5.767   3.284
21300W        W89694  21.475  37.472   0.746
21301W        W89695  11.964  28.152  12.353
21302W        W89696  35.395  29.905  11.659
21303W        W89697   5.381  30.335   2.785
21304W        W89698  24.773  40.865  13.138
21305W        W89699  31.509  30.491   0.702
21306W        W89700  37.290  39.688   0.472
21307W        W89701  31.936  24.692  12.772
21308W        W89702  12.089  16.704   0.067
21309W        W89703   3.882  42.802  10.759
21310W        W89704  21.154  40.877  13.056
21311W        W89705  14.961  24.039  11.204
21312W        W89706   0.091  12.096  13.389
21313W        W89707   2.736  24.132   1.732
21314W        W89708  36.576  12.873   4.423
21315W        W89709   0.779  20.091  12.559
21316W        W89710   6.257  17.488   1.371
21317W        W89711   3.419  19.568  13.808
21318W        W89712  29.026  39.121   1.280
21319W        W89713   8.177  21.573  13.367
21320W        W89714  42.764  43.138  12.725
21321W        W89715  17.354  34.862  12.532
21322W        W89716  22.636  30.905   0.307
21323W        W89717  24.055  34.732   4.556
21324W        W89718  13.739  12.680   3.798
21325W        W89719   2.309  26.833   0.274
21326W        W89720  30.101  40.394   2.787
21327W        W89721  30.870   0.865   1.005
21328W        W89722  23.976   7.639  10.756
21329W        W89723  27.641  31.624  14.505
21330W        W89724  42.480   1.958  12.860
21331W        W89725  14.421  42.934   0.054
21332W        W89726   8.269   4.674  13.429
21333W        W89727  43.362  39.467  12.181
21334W        W89728  44.939  22.542   4.641
21335W        W89729  43.120   4.347  10.224
21336W        W89730  19.655   2.920   0.399
21337W        W89731  17.669  15.335   1.737
21338W        W89732  30.322  37.507  11.645
21339W        W89733  18.775  42.223   2.690
21340W        W89734  26.470  19.979  12.446
21341W        W89735   3.904  14.497  11.686
21342W        W89736  27.729  15.868   1.266
21343W        W89737  30.877   1.187  12.453
21344W        W89738  32.568  37.300   1.916
21345W        W89739  37.027   9.466  12.627
21346W        W89740  26.329  37.318  11.560
21347W        W89741   9.149  21.536  10.553
21348W        W89742  26.595  12.327   4.658
21349W        W89743  16.778   8.412   4.499
21350W        W89744  42.126   6.988   1.893
21351W        W89745   8.683  27.006   3.423
21352W        W89746  40.961  36.907   3.334
21353W        W89747  17.125  20.337   0.066
21354W        W89748  21.507  15.660  14.375
21355W        W89749   4.770  32.882  13.497
21356W        W89750   8.690   3.946   1.306
21357W        W89751  26.739  34.936   0.682
21358W        W89752  36.010  25.923  10.840
21359W        W89753  36.452  20.633   1.215
21360W        W89754  19.015  18.877   2.480
21361W        W89755  27.678  31.283   3.366
21362W        W89756  15.717  43.193  11.421
21363W        W89757   8.810   3.983  10.826
21364W        W89758   5.491  25.002   0.812
21365W        W89759  44.945  35.602  14.553
21366W        W89760   7.062  32.939   0.993
21367W        W89761  17.257   4.026   0.897
21368W        W89762  19.598  27.652   4.038
21369W        W89763   9.839  17.123   4.752
21370W        W89764  11.074  10.782   4.134
21371W        W89765  17.639   9.320   3.091
21372W        W89766   1.854  36.560  13.029
21373W        W89767  11.749   8.905  12.665
21374W        W89768  38.658  35.931   5.008
21375W        W89769  20.303   7.671   3.344
21376W        W89770  32.046  16.303   1.478
21377W        W89771  24.872  35.978   3.822
21378W        W89772   5.428  38.039  13.949
21379W        W89773  20.961  31.049  10.559
21380W        W89774  44.523   0.188  11.789
21381W        W89775  16.543   3.813  12.594
21382W        W89776  29.299   9.290   3.475
21383W        W89777  43.653  39.982  10.642
21384W        W89778   0.093  21.126  13.845
21385W        W89779   5.455  21.916  12.893
21386W        W89780  19.103   0.515   2.250
21387W        W89781  25.014  32.049   4.137
21388W        W89782  28.124   1.384   4.565
21389W        W89783   9.894  15.113   1.194
21390W        W89784  10.171  20.585   2.276
21391W        W89785  33.431  36.496  10.650
21392W        W89786  41.710  43.989   0.109
21393W        W89787  13.138  35.990  12.581
21394W        W89788  38.294  32.616  14.984
21395W        W89789  18.168  14.787   2.459
21396W        W89790   3.653  23.699   0.959
21397W        W89791  37.699   0.293   2.841
21398W        W89792  13.687  14.279  13.826
21399W        W89793  34.591  41.581  10.448
21400W        W89794   7.157   6.240   4.614
21401W        W89795  18.499  40.984   4.606
21402W        W89796  21.167  30.171   2.642
21403W        W89797   2.179   1.324   2.852
21404W        W89798   5.444  15.638   1.355
21405W        W89799  37.425  21.636  13.330
21406W        W89800  30.214  16.594   4.191
21407W        W89801  41.943  32.011  12.900
21408W        W89802  19.250  32.568   3.371
21409W        W89803  41.876  22.081   4.835
21410W        W89804  24.525   5.925   3.216
21411W        W89805  18.296   4.334   1.855
21412W        W89806  13.691  10.148  12.224
21413W        W89807  27.579  42.982   0.199
21414W        W89808  37.498  43.769   3.779
21415W        W89809  27.645   6.160   3.420
21416W        W89810   0.362   7.816   4.942
21417W        W89811  44.683  26.741   3.535
21418W        W89812  20.572   7.976   4.143
21419W        W89813   9.998  35.055  12.601
21420W        W89814  43.908  44.757  13.789
21421W        W89815  34.152  20.111  14.915
21422W        W89816  31.717   8.404   0.453
21423W        W89817  33.935  32.822   3.282
21424W        W89818  14.155  19.740   0.881
21425W        W89819  23.028  38.027  11.527
21426W        W89820  12.344  23.059   3.439
21427W        W89821  14.653  17.729  12.673
21428W        W89822   4.785  43.915   4.086
21429W        W89823  40.763  15.581  13.452
21430W        W89824  36.609  38.506  12.361
21431W        W89825  35.516  24.228  10.690
21432W        W89826  44.608  31.560  13.903
21433W        W89827  41.880  12.358   3.126
21434W        W89828  33.602  32.436   3.691
21435W        W89829  30.933  17.090   2.399
21436W        W89830  23.648  44.398   4.905
21437W        W89831   6.233  21.335   2.681
21438W        W89832  20.132  15.126   1.696
21439W        W89833   4.255  10.005  11.010
21440W        W89834  32.617  44.998   1.409
21441W        W89835  32.727  21.474   0.296
21442W        W89836   7.786  18.076  10.847
21443W        W89837   0.244  13.777   2.726
21444W        W89838  40.681   6.837  13.847
21445W        W89839  28.680   4.236   1.189
21446W        W89840   4.972  13.250   1.652
21447W        W89841  34.073  18.664  12.076
21448W        W89842  19.801   6.663  12.476
21449W        W89843   2.546  11.297  13.129
21450W        W89844  10.608  30.687  14.410
21451W        W89845  10.699  24.238  14.690
21452W        W89846  20.952  28.710   0.831
21453W        W89847  34.595  42.534  14.585
21454W        W89848  14.178  12.557  10.672
21455W        W89849  31.451  23.908  11.889
21456W        W89850   4.543  29.624  13.871
21457W        W89851   4.783  16.554  14.375
21458W        W89852   8.258  39.271  12.639
21459W        W89853  19.596  23.725   0.342
21460W        W89854  36.681  29.904  14.318
21461W        W89855  31.952  29.412   3.122
21462W        W89856  16.291  19.118  12.900
21463W        W89857  14.994  27.369   2.454
21464W        W89858  20.308  36.890   3.623
21465W        W89859  40.093  18.826  13.333
21466W        W89860  13.627  43.552   2.399
21467W        W89861  17.252  17.212   2.260
21468W        W89862   8.712  28.935  13.348
21469W        W89863  12.648   1.890  11.253
21470W        W89864  36.968   2.846  13.175
21471W        W89865  38.513  24.131  11.836
21472W        W89866  42.552   3.932   2.242
21473W        W89867  25.730  34.944  14.963
21474W        W89868  22.167  37.091  12.819
21475W        W89869  44.945  30.361   3.693
21476W        W89870  44.713  20.243   3.157
21477W        W89871   8.336  23.147  10.446
21478W        W89872   6.194  32.890  13.376
21479W        W89873  42.480  30.338   0.031
21480W        W89874   8.415  23.685  14.110
21481W        W89875  15.528  15.066  12.200
21482W        W89876  20.860  38.717   1.389
21483W        W89877  10.911  39.687  12.680
21484W        W89878  21.735  36.713  12.032
21485W        W89879  32.766   6.699   0.479
21486W        W89880  23.580  18.637   3.662
21487W        W89881  26.142  10.886  13.863
21488W        W89882  15.417  33.525  11.228
21489W        W89883  26.754   6.825   1.212
21490W        W89884  12.917   7.916   1.225
21491W        W89885  14.371  17.363  12.445
21492W        W89886   3.271   9.300   2.611
21493W        W89887  32.586  26.621  14.974
21494W        W89888  16.528  28.577   2.244
21495W        W89889  21.723  15.714   2.792
21496W        W89890   1.589  24.580   4.852
21497W        W89891  42.791  42.610   4.626
21498W        W89892  11.930  36.955   1.291
21499W        W89893   8.485  10.353  12.900
21500W        W89894  24.018  27.939   2.722
21501W        W89895  14.720  26.510   5.066
21502W        W89896  20.648  20.974   3.308
21503W        W89897  36.659  43.205  12.996
21504W        W89898  28.698   7.235   2.254
21505W        W89899  43.030   1.392  11.187
21506W        W89900  17.018   4.869   0.015
21507W        W89901  39.978  31.976   4.122
21508W        W89902   2.417  38.806  11.144
21509W        W89903  23.713  40.356  11.612
21510W        W89904  29.237  26.694   1.440
21511W        W89905  15.643  20.531  13.113
21512W        W89906  44.346  37.671  13.759
21513W        W89907  41.369  27.584  11.948
21514W        W89908   4.913  18.412  13.896
21515W        W89909  14.775  24.802   0.935
21516W        W89910  41.265  38.189   4.084
21517W        W89911  29.496  19.116   1.834
21518W        W89912   8.864  31.817   3.197
21519W        W89913   4.502  25.990   9.769
21520W        W89914  39.488  10.124   1.695
21521W        W89915  38.735  38.273   0.039
21522W        W89916  14.215   3.264   2.454
21523W        W89917  15.303   5.786   1.220
21524W        W89918  44.917  33.514   1.414
21525W        W89919  27.849   6.571  14.438
21526W        W89920  41.111   8.465   3.644
21527W        W89921  38.608  37.864   2.264
21528W        W89922  44.699   9.839   4.116
21529W        W89923  27.134  37.476  12.503
21530W        W89924  28.766  35.113  14.735
21531W        W89925  25.007  31.387  12.121
21532W        W89926  22.933  18.231   0.218
21533W        W89927   3.545  37.961   2.292
21534W        W89928  22.042   9.979   5.046
21535W        W89929   2.800  43.537   3.704
21536W        W89930  13.052  42.924   3.681
21537W        W89931  17.087  14.628  11.113
21538W        W89932  22.466  14.331  11.160
21539W        W89933  21.264  19.769   0.804
21540W        W89934  38.641   1.942  12.084
21541W        W89935  43.254  42.467  11.210
21542W        W89936   8.470  35.961   3.206
21543W        W89937   8.494  24.599   1.893
21544W        W89938  41.987   7.868   4.447
21545W        W89939   9.840  33.678   3.346
21546W        W89940  14.049  22.481  12.952
21547W        W89941  23.251   5.694   2.960
21548W        W89942  21.716  32.320   0.947
21549W        W89943  22.487  17.727   4.242
21550W        W89944  33.051  32.168   4.560
21551W        W89945  17.767  22.043   0.743
21552W        W89946  29.092  19.317   4.870
21553W        W89947  23.991  44.460  10.403
21554W        W89948  35.570  15.192   3.132
21555W        W89949   9.197  43.002   2.821
21556W        W89950   1.871  27.985  11.545
21557W        W89951  22.171   2.035   2.332
21558W        W89952  44.126   2.698   0.254
21559W        W89953  36.576   3.252   3.217
21560W        W89954  15.278  20.056   2.411
21561W        W89955  16.543  18.206   3.309
21562W        W89956   5.463  12.896   2.374
21563W        W89957  22.503  25.293   0.891
21564W        W89958   6.235   6.810  14.804
21565W        W89959   8.550  38.276  14.476
21566W        W89960   7.438  20.735  13.839
21567W        W89961   4.366  41.161   1.961
21568W        W89962  17.233  31.244  13.303
21569W        W89963   0.926  15.397   3.424
21570W        W89964  37.832  44.856  10.618
21571W        W89965  42.814  24.395  14.803
21572W        W89966  19.601  22.805   3.817
21573W        W89967  26.462   1.922   4.033
21574W        W89968   5.818   3.393  13.768
21575W        W89969  38.074   6.748   4.390
21576W        W89970  38.718   4.102  12.140
21577W        W89971  36.008  10.435   3.263
21578W        W89972  32.906  14.278  11.605
21579W        W89973  12.826  13.766   0.760
21580W        W89974   7.157  18.079  12.849
21581W        W89975  26.428  42.200  14.571
21582W        W89976   6.733  17.438   3.591
21583W        W89977  15.614   3.371   2.659
21584W        W89978  16.713   5.726  12.484
21585W        W89979  14.559  18.104  13.429
21586W        W89980  36.795   1.982   9.821
21587W        W89981  13.515  27.942   4.131
21588W        W89982  34.045  30.123  13.298
21589W        W89983  38.269  32.148  11.064
21590W        W89984  35.146   9.353   4.787
21591W        W89985  17.585  10.301   9.992
21592W        W89986  20.618  34.623   0.747
21593W        W89987  36.539   8.176   2.741
21594W        W89988   1.320  36.270   2.283
21595W        W89989  19.011  23.032  13.380
21596W        W89990  42.567  37.310   1.303
21597W        W89991  27.877  30.526  12.653
21598W        W89992  24.460  11.163  12.545
21599W        W89993  36.044  35.086   1.475
21600W        W89994  18.532  28.202  11.999
21601W        W89995  21.803  28.488  10.227
21602W        W89996  33.506  30.590   0.507
21603W        W89997   9.253  18.372  14.891
21604W        W89998  15.555  43.990  14.317
21605W        W89999  32.848  18.268  10.729
21606W        W90000  12.274  19.993   0.410
21607W        W90001  17.183  40.981   3.722
21608W        W90002  11.338  14.645   0.853
21609W        W90003  27.687   4.956  12.532
21610W        W90004   6.256  35.529   3.332
21611W        W90005  34.927  36.667   2.129
21612W        W90006   5.278  37.244   0.704
21613W        W90007   3.251  42.057  11.562
21614W        W90008  36.656  18.219  10.643
21615W        W90009  25.704  14.811  10.577
21616W        W90010  21.663  26.516   5.387
21617W        W90011  19.702   7.571   4.178
21618W        W90012  11.311  44.473  11.778
21619W        W90013  15.776  41.677   3.255
21620W        W90014  44.370  24.099   5.011
21621W        W90015  15.550  17.642  14.448
21622W        W90016  16.373   0.957  13.012
21623W        W90017  36.383   1.364   4.153
21624W        W90018  23.094   7.806   3.386
21625W        W90019  40.309  29.345   0.032
21626W        W90020  33.179   1.358   2.712
21627W        W90021  21.454  33.501  11.096
21628W        W90022  34.445  11.649  10.480
21629W        W90023   5.976  42.217   0.810
21630W        W90024  30.967   6.726   2.269
21631W        W90025  19.126  41.717  11.605
21632W        W90026  41.539  30.621  11.643
21633W        W90027  17.716   1.419   1.230
21634W        W90028   8.662  38.887  12.597
21635W        W90029  20.675  23.529  13.820
21636W        W90030   5.423  37.642   0.265
21637W        W90031  14.724   6.120   4.137
21638W        W90032  16.626   8.639  10.657
21639W        W90033  43.698  13.517  12.757
21640W        W90034  37.112  17.745   4.800
21641W        W90035   5.229  37.034  14.717
21642W        W90036  16.061  20.442   3.868
21643W        W90037  40.384  31.423  14.927
21644W        W90038  18.243  10.016  13.362
21645W        W90039  24.184  21.727  14.519
21646W        W90040  14.791  32.417  12.963
21647W        W90041  33.460  22.585  12.567
21648W        W90042  33.558   9.248   1.797
21649W        W90043  14.743   6.924   3.020
21650W        W90044  34.467  19.244   2.146
21651W        W90045  28.052  18.757   1.956
21652W        W90046  28.535  43.095  10.636
21653W        W90047  31.821  25.941  14.864
21654W        W90048   6.116  17.150   1.750
21655W        W90049  38.080   5.795  11.321
21656W        W90050  44.332   9.852   1.474
21657W        W90051  40.021  42.024   2.776
21658W        W90052  42.409  30.924   2.276
21659W        W90053  33.200  16.158  13.810
21660W        W90054  11.786  14.737   3.285
21661W        W90055  38.025  38.294  11.170
21662W        W90056  27.179  35.610   0.962
21663W        W90057  40.354  12.131   2.330
21664W        W90058   7.332  18.963   2.174
21665W        W90059  24.758  30.379   4.064
21666W        W90060  28.137  38.100  14.351
21667W        W90061  43.276  43.822  11.588
21668W        W90062   2.651  27.673   3.819
21669W        W90063  30.381  17.741  12.262
21670W        W90064  16.574  21.566  12.665
21671W        W90065   9.773  12.935   3.392
21672W        W90066   7.475  36.016   0.997
21673W        W90067   7.969   8.888   4.695
21674W        W90068  22.345  44.989  11.519
21675W        W90069  20.853   7.822   1.025
21676W        W90070  30.060   5.192   2.433
21677W        W90071  14.081  23.004  12.988
21678W        W90072   7.812  17.099  13.581
21679W        W90073  40.537  22.008   2.336
21680W        W90074  18.151  11.097   0.401
21681W        W90075  42.375  12.158   2.291
21682W        W90076   5.834  26.846  14.194
21683W        W90077   3.113   3.795  14.656
21684W        W90078  41.047  18.757   0.687
21685W        W90079  23.024  23.573   0.938
21686W        W90080   7.740   8.642   3.729
21687W        W90081   8.127  42.852  12.208
21688W        W90082  33.110  41.817  13.395
21689W        W90083  32.602  12.193   1.337
21690W        W90084  38.429  39.228   0.801
21691W        W90085  10.336   6.266  11.082
21692W        W90086  18.605  21.032   4.557
21693W        W90087  18.247  33.685  13.538
21694W        W90088  16.193  20.765   2.883
21695W        W90089  40.581   6.972   4.243
21696W        W90090  29.759   0.732   1.331
21697W        W90091  14.640  18.474   1.222
21698W        W90092  11.800   6.499  10.273
21699W        W90093  26.400   8.876   3.221
21700W        W90094  33.437  13.675   5.061
21701W        W90095   8.520  31.424   3.393
21702W        W90096  36.885  38.748  14.519
21703W        W90097  33.738  33.839   3.336
21704W        W90098  35.941  25.451   0.984
21705W        W90099  16.674  44.781   2.609
21706W        W90100  35.572  14.243   3.646
21707W        W90101  42.328  40.331  14.414
21708W        W90102  19.245   2.962  14.816
21709W        W90103  39.245   0.993   1.361
21710W        W90104  20.056  11.578  11.989
21711W        W90105  32.924  27.297   2.842
21712W        W90106  40.371  38.323  11.191
21713W        W90107  40.510  13.198  14.998
21714W        W90108  33.848  28.968  12.416
21715W        W90109  12.510   9.156   3.734
21716W        W90110   1.876  39.623  11.840
21717W        W90111  40.456  10.858  11.735
21718W        W90112  43.643  29.661  14.923
21719W        W90113  23.309   1.194  13.767
21720W        W90114  27.417  12.373  11.515
21721W        W90115  38.157  27.463  13.908
21722W        W90116  15.594   8.416   1.282
21723W        W90117  35.794  18.043   4.272
21724W        W90118  13.730   1.792   4.059
21725W        W90119  14.778   5.027   0.741
21726W        W90120  14.668  27.191   3.384
21727W        W90121  41.294  42.888   0.377
21728W        W90122  21.671  40.016   3.889
21729W        W90123  17.246   5.830   5.064
21730W        W90124  33.432  33.603  12.877
21731W        W90125  28.221   3.394  11.099
21732W        W90126   9.379  19.539   1.911
21733W        W90127   0.529   6.316   3.743
21734W        W90128   0.806  35.343  14.749
21735W        W90129  33.362  17.903   2.247
21736W        W90130  21.257  27.682   2.600
21737W        W90131  32.299  13.810   0.371
21738W        W90132   5.062   9.018  11.050
21739W        W90133   6.773   7.156  11.703
21740W        W90134  14.092   9.393  14.317
21741W        W90135  12.852  30.662  14.911
21742W        W90136  39.295  23.925   3.412
21743W        W90137  29.071  18.150   1.851
21744W        W90138  36.483  44.306   2.377
21745W        W90139  36.097  37.200   2.379
21746W        W90140  27.672  37.624   1.374
21747W        W90141  10.106  40.955   4.982
21748W        W90142  43.349  28.449  12.868
21749W        W90143  31.342  11.417   2.925
21750W        W90144  26.891   8.215   3.882
21751W        W90145  42.095   1.943  13.826
21752W        W90146   6.826  40.048  12.863
21753W        W90147  35.803  39.292  14.369
21754W        W90148   7.152  33.469   3.707
21755W        W90149  38.628  20.007   3.693
21756W        W90150  26.607   3.657   3.265
21757W        W90151  12.037  23.589   2.179
21758W        W90152  21.483  18.504   4.592
21759W        W90153  44.978   1.717   4.225
21760W        W90154  36.052  26.548  11.224
21761W        W90155   5.372   6.224   2.830
21762W        W90156  39.175   7.922   1.778
21763W        W90157  21.025  18.507   1.394
21764W        W90158  30.691  24.602  14.460
21765W        W90159  15.122   9.348   4.455
21766W        W90160  38.880  21.265  13.098
21767W        W90161  23.263  11.728  13.448
21768W        W90162  41.234  16.608   2.686
21769W        W90163  32.390  30.609  12.520
21770W        W90164  27.674  20.347  12.892
21771W        W90165  24.807  30.427  11.846
21772W        W90166  34.612  39.949  10.694
21773W        W90167  22.088  26.526   2.712
21774W        W90168  26.252  20.810  14.020
21775W        W90169  32.349  23.437   1.871
21776W        W90170  27.925   0.257  13.396
21777W        W90171  41.408   7.028   0.893
21778W        W90172   7.237   6.452  11.116
21779W        W90173  37.577  22.956  12.210
21780W        W90174  40.004  40.888   1.928
21781W        W90175  26.342  13.990  12.499
21782W        W90176  22.809  32.877  12.832
21783W        W90177  21.281   6.637  13.765
21784W        W90178  26.126   6.239  14.265
21785W        W90179  43.410  36.951  12.837
21786W        W90180  33.861  27.011  13.738
21787W        W90181  18.285  36.017  13.867
21788W        W90182  12.751   8.196  13.847
21789W        W90183  16.978  20.420   9.728
21790W        W90184  34.370  42.354   4.170
21791W        W90185  33.242  10.602  12.013
21792W        W90186  30.591   3.437  11.786
21793W        W90187  38.592  38.652  12.954
21794W        W90188  21.179  26.270   2.864
21795W        W90189  40.090  25.065   0.263
21796W        W90190  32.101  37.061  14.002
21797W        W90191  31.403  15.437  11.604
21798W        W90192  25.644   9.947  11.113
21799W        W90193  15.041  34.164  12.007
21800W        W90194  42.039   5.705   2.174
21801W        W90195  10.351  36.928  14.395
21802W        W90196   9.605  20.983  14.571
21803W        W90197  15.175  29.933   4.340
21804W        W90198  36.002  35.324   1.944
21805W        W90199  39.303  25.661   4.334
21806W        W90200  26.437   9.669  10.615
21807W        W90201  12.820  39.512   3.686
21808W        W90202  20.767   9.771  11.174
21809W        W90203  22.006  10.837  13.311
21810W        W90204  29.472  14.560  11.593
21811W        W90205  41.928  12.625   2.650
21812W        W90206  36.915  16.836  13.224
21813W        W90207  40.808  25.293   3.166
21814W        W90208  29.326  39.017  12.137
21815W        W90209  14.737   3.400   2.251
21816W        W90210   4.313  44.044   0.950
21817W        W90211   9.746  29.480   3.755
21818W        W90212  18.160   6.381   4.955
21819W        W90213  44.855  20.651  11.919
21820W        W90214  18.205  23.813  10.712
21821W        W90215  19.043  22.704  11.976
21822W        W90216   2.686  12.522   2.788
21823W        W90217  19.087  32.740   3.841
21824W        W90218  15.987  40.888  14.417
21825W        W90219  40.029  33.521  13.016
21826W        W90220  20.315  41.416  12.866
21827W        W90221   9.872   4.883  13.969
21828W        W90222  13.351  29.882   0.662
21829W        W90223  35.228  25.517  13.885
21830W        W90224  30.233   3.429   2.271
21831W        W90225  29.342  42.599   0.065
21832W        W90226  32.610  24.095  11.691
21833W        W90227  29.071  36.361   2.555
21834W        W90228  27.206  43.914  11.054
21835W        W90229   3.314  24.909   2.788
21836W        W90230  33.944   1.700  14.052
21837W        W90231  19.670   3.293   4.687
21838W        W90232  41.809   4.364  10.699
21839W        W90233  33.437  32.303   5.076
21840W        W90234   8.117   9.239  13.371
21841W        W90235  21.466  17.521  14.418
21842W        W90236  10.133  34.209  12.069
21843W        W90237   6.271  24.288  13.411
21844W        W90238   9.337  39.894   3.123
21845W        W90239  31.153  22.523  14.116
21846W        W90240  36.546   9.790   3.112
21847W        W90241  35.750   1.878   4.523
21848W        W90242  22.207  36.007  13.921
21849W        W90243  28.035  41.432   4.723
21850W        W90244  20.706  20.867  12.061
21851W        W90245  25.731  25.715   1.951
21852W        W90246  39.024  14.411  10.593
21853W        W90247  38.699  23.835   3.435
21854W        W90248   9.306   0.835  12.386
21855W        W90249  29.332  44.844  14.894
21856W        W90250  18.586  13.323   0.739
21857W        W90251   5.886  26.012   2.795
21858W        W90252  25.252   4.009  11.189
21859W        W90253  28.033   5.889  13.886
21860W        W90254   5.782  12.290  14.828
21861W        W90255  11.879   3.821   4.301
21862W        W90256  25.031   3.369  14.961
21863W        W90257  37.831  33.510   5.101
21864W        W90258  26.337  34.605   0.473
21865W        W90259  33.115  37.106  10.634
21866W        W90260  22.923  39.575  12.422
21867W        W90261  17.130   9.333   2.838
21868W        W90262  19.913  26.102   2.384
21869W        W90263   0.948  23.711  10.709
21870W        W90264  24.282  35.552  14.478
21871W        W90265  13.414  10.274  14.493
21872W        W90266  17.337  14.842  14.713
21873W        W90267  17.340  20.201   3.254
21874W        W90268  32.251   4.408  13.633
21875W        W90269   7.127  44.305   2.871
21876W        W90270  35.994  16.772   3.269
21877W        W90271  19.042  37.228  13.061
21878W        W90272  10.235  41.629   3.681
21879W        W90273  37.887  13.126  11.197
21880W        W90274  31.006  16.123   0.489
21881W        W90275   7.230  22.967  14.282
21882W        W90276  17.605  13.932  14.435
21883W        W90277  22.577   6.375  10.440
21884W        W90278   8.585   5.794   2.658
21885W        W90279   7.877  21.745  12.070
21886W        W90280   5.453   5.250  13.904
21887W        W90281   2.352  34.571  13.291
21888W        W90282   3.321  32.532   2.119
21889W        W90283   6.341  28.512  13.862
21890W        W90284  28.699  43.567   4.912
21891W        W90285  32.506  20.514  14.406
21892W        W90286  29.371  28.628   0.141
21893W        W90287  15.627  22.952   0.520
21894W        W90288  19.821  26.007  10.282
21895W        W90289  43.429  18.697  13.373
21896W        W90290  39.840  42.033  13.914
21897W        W90291   4.441   4.479   5.174
21898W        W90292  23.084  27.026  14.040
21899W        W90293  34.433  18.088   3.596
21900W        W90294  19.522  25.737  13.867
21901W        W90295  20.073  21.154   0.307
21902W        W90296  40.291  42.291  12.101
21903W        W90297  25.204   6.356   4.525
21904W        W90298  11.907   8.918   0.048
21905W        W90299  43.954  10.469   4.889
21906W        W90300  16.795  18.167  11.991
21907W        W90301  13.832  22.722  10.529
21908W        W90302  17.799  26.400  11.666
21909W        W90303  40.929  23.000  12.541
21910W        W90304   0.208  25.209  12.184
21911W        W90305   2.446  17.601  11.437
21912W        W90306  28.071  38.369  10.654
21913W        W90307  24.071  22.057   1.690
21914W        W90308  26.259  28.947   2.787
21915W        W90309  40.496   7.704   2.293
21916W        W90310  16.320   1.772  11.455
21917W        W90311   6.141   0.688   3.733
21918W        W90312  30.704   6.089   9.710
21919W        W90313  14.321  17.216   4.189
21920W        W90314   4.773   7.283   2.970
21921W        W90315  39.041  22.111  12.962
21922W        W90316  42.831  32.603  14.958
21923W        W90317  27.630  17.617   1.230
21924W        W90318   0.715  39.123   3.101
21925W        W90319   0.832  12.915  13.515
21926W        W90320  19.275  40.721  11.669
21927W        W90321  28.150  30.033   0.128
21928W        W90322  42.280  12.890   4.669
21929W        W90323  16.678   5.957   1.770
21930W        W90324   9.687  40.548   1.889
21931W        W90325  37.043  32.745   1.255
21932W        W90326  28.460   6.455  10.892
21933W        W90327  17.153  32.642   3.788
21934W        W90328  40.420  16.069   4.401
21935W        W90329   3.051   7.969  12.457
21936W        W90330  21.010   8.202   4.327
21937W        W90331  28.640  16.166  11.689
21938W        W90332   8.081  33.933   1.331
21939W        W90333   5.059   1.161  13.477
21940W        W90334  14.662   7.905   1.729
21941W        W90335  13.259   2.327   0.341
21942W        W90336  19.722  35.369   5.051
21943W        W90337  33.598  18.587   3.567
21944W        W90338  29.620  17.064   0.958
21945W        W90339  21.579  18.309   0.807
21946W        W90340  34.114  29.134  14.576
21947W        W90341   8.921  33.665   3.151
21948W        W90342  17.498  19.220   4.996
21949W        W90343  16.170  33.368  11.863
21950W        W90344   1.449   8.861   2.626
21951W        W90345  41.492  10.594  11.493
21952W        W90346  41.520  17.566   2.735
21953W        W90347  19.060  12.094  12.921
21954W        W90348  24.143  18.063   2.733
21955W        W90349  38.927  31.482   0.819
21956W        W90350  20.425   4.732  11.417
21957W        W90351  14.570  44.343   2.729
21958W        W90352  38.250  37.103   2.862
21959W        W90353   7.784  39.675  10.318
21960W        W90354  30.397  22.124   4.823
21961W        W90355  18.781  40.351  10.608
21962W        W90356  13.967  35.877  14.419
21963W        W90357  39.533  29.964   1.293
21964W        W90358   6.421   9.105  14.491
21965W        W90359  21.508  42.040   0.861
21966W        W90360  27.027  14.437  12.496
21967W        W90361  35.992   6.633  14.173
21968W        W90362   4.429  44.992   2.571
21969W        W90363  24.623   8.870  10.452
21970W        W90364  28.569  24.620  14.729
21971W        W90365   0.480  44.873  14.764
21972W        W90366  33.303  36.288   9.920
21973W        W90367  11.860   5.227   0.006
21974W        W90368   2.669  33.372  11.767
21975W        W90369  37.488   9.285  11.615
21976W        W90370  31.165  36.073   2.388
21977W        W90371  44.572  25.043   4.530
21978W        W90372  42.715  20.844  11.498
21979W        W90373   7.581   9.064   4.056
21980W        W90374  32.546  13.838   4.744
21981W        W90375  40.265  21.210  11.166
21982W        W90376   8.191   4.032  12.142
21983W        W90377  20.337   2.376   3.193
21984W        W90378  42.415  24.704  14.158
21985W        W90379  15.322   4.286   4.164
21986W        W90380  24.904  29.988  12.451
21987W        W90381  23.112   0.615   1.875
21988W        W90382  24.469   4.807  14.358
21989W        W90383  30.187  33.067   2.827
21990W        W90384  39.816  35.875  12.471
21991W        W90385   6.122   7.226  13.096
21992W        W90386   1.465  36.612   1.767
21993W        W90387  22.269  30.647   0.915
21994W        W90388  16.042  41.424   4.216
21995W        W90389   7.919  43.816  14.375
21996W        W90390   3.521  13.351  12.672
21997W        W90391  26.530  26.025  14.033
21998W        W90392  11.310   2.657   2.059
21999W        W90393  37.865  42.893  11.813
22000W        W90394  37.505  34.810  10.577
22001W        W90395  13.615   6.306   2.820
22002W        W90396  14.242  30.526   1.926
22003W        W90397  25.086  36.338   4.579
22004W        W90398   9.938  10.993  13.128
22005W        W90399  14.622  34.522  13.575
22006W        W90400  12.649  17.552  12.828
22007W        W90401   4.677   2.229   4.589
22008W        W90402  12.863  16.158  11.508
22009W        W90403  35.329  36.403  13.612
22010W        W90404  24.186  28.266  12.957
22011W        W90405  13.592   6.782  12.121
22012W        W90406  40.796  37.871  14.775
22013W        W90407   3.685  10.717  13.868
22014W        W90408  21.526  10.446  12.521
22015W        W90409  39.607  41.471  13.105
22016W        W90410  21.462  42.873  11.193
22017W        W90411   1.231  10.333  12.908
22018W        W90412  37.045  38.493  12.080
22019W        W90413  40.119  16.000  14.485
22020W        W90414  41.904   2.456  13.846
22021W        W90415  30.535   4.169   0.773
22022W        W90416   1.936  42.328  11.416
22023W        W90417   5.390  43.359   0.928
22024W        W90418  12.545   4.220   3.289
22025W        W90419  18.576  40.318  14.843
22026W        W90420   9.664   3.662   2.846
22027W        W90421  31.591  19.762  14.248
22028W        W90422  36.308  39.266   2.929
22029W        W90423  32.080  19.862   2.281
22030W        W90424  35.041  20.649  14.119
22031W        W90425  31.075   6.942   0.871
22032W        W90426  33.469   8.587  10.240
22033W        W90427  24.158  12.675  12.592
22034W        W90428  27.078  14.077   5.044
22035W        W90429  26.580  10.393  13.377
22036W        W90430  30.620   0.459   3.234
22037W        W90431  13.251   6.146   1.892
22038W        W90432  28.931  40.964   3.418
22039W        W90433  37.574  38.653  12.966
22040W        W90434  31.141  38.646   1.416
22041W        W90435   0.837  21.656  12.967
22042W        W90436  43.093  25.701   0.595
22043W        W90437  38.196  16.569   1.184
22044W        W90438  20.614   3.123   3.188
22045W        W90439  37.046  41.004  12.400
22046W        W90440   6.533  28.263   1.076
22047W        W90441   7.209  35.395   1.437
22048W        W90442  35.631  27.598  13.714
22049W        W90443  10.924  24.096   4.186
22050W        W90444   4.005   4.835  11.548
22051W        W90445  26.576  27.334  11.439
22052W        W90446  24.929  20.502  11.154
22053W        W90447   2.254  35.701  11.631
22054W        W90448  34.827  25.990   1.173
22055W        W90449   3.928  13.167  12.905
22056W        W90450  26.032  41.024  14.691
22057W        W90451   9.566  10.410   4.247
22058W        W90452  41.048  24.677  13.676
22059W        W90453  13.203  17.199   1.401
22060W        W90454  19.530   8.922  10.774
22061W        W90455  34.314  44.018  14.479
22062W        W90456  41.927   7.827  14.315
22063W        W90457  36.687  19.903   3.606
22064W        W90458   6.272  38.596   0.420
22065W        W90459   4.677  28.985   2.793
22066W        W90460  36.264   6.501  10.775
22067W        W90461  15.153  10.709  10.738
22068W        W90462  43.982  40.215  12.222
22069W        W90463   4.899  22.977   0.089
22070W        W90464  34.854  41.341   3.551
22071W        W90465  21.371  17.085   3.601
22072W        W90466  13.621  13.290   2.595
22073W        W90467   0.654  38.551  13.417
22074W        W90468  31.889   7.423  13.002
22075W        W90469  23.020  18.705  14.455
22076W        W90470  41.247   1.138   2.615
22077W        W90471   3.697   8.545  12.898
22078W        W90472  11.140  34.172  12.379
22079W        W90473  44.731   3.673   4.111
22080W        W90474   0.796  25.826  12.996
22081W        W90475  28.931  23.695   0.914
22082W        W90476  44.002  14.686   1.731
22083W        W90477  42.839  17.095   4.623
22084W        W90478  21.666  28.112  12.278
22085W        W90479  39.545  33.323   0.434
22086W        W90480  42.821  19.528   3.086
22087W        W90481  43.547   7.192  10.710
22088W        W90482   2.728  16.235   2.782
22089W        W90483   1.783  38.666   0.903
22090W        W90484   9.680  10.321   0.912
22091W        W90485  20.842  35.008  13.529
22092W        W90486  39.224  20.648   4.821
22093W        W90487  27.103  35.590  11.512
22094W        W90488  32.656  27.434  14.596
22095W        W90489   0.558  17.655   0.263
22096W        W90490  16.137  12.034   1.318
22097W        W90491  43.470  43.550   4.958
22098W        W90492  17.972  35.174  10.570
22099W        W90493  36.583  37.162  12.465
22100W        W90494  43.862  28.152  13.942
22101W        W90495  32.538  12.380   3.850
22102W        W90496  18.696  23.710   0.285
22103W        W90497  35.117  38.657  13.337
22104W        W90498  34.039  14.559  11.255
22105W        W90499  43.833  18.584   0.186
22106W        W90500  28.906  29.662   2.081
22107W        W90501  26.122  34.153   0.240
22108W        W90502  36.525  14.201  14.859
22109W        W90503  24.811  15.285  10.803
22110W        W90504  22.661  36.907  13.871
22111W        W90505   1.369  32.470  12.182
22112W        W90506  31.144   2.858  11.404
22113W        W90507  19.490   3.461   0.708
22114W        W90508  12.293  10.330   3.198
22115W        W90509   8.863  35.596  10.873
22116W        W90510  39.543  33.465  11.575
22117W        W90511   1.162  11.371  12.479
22118W        W90512  21.256  30.398  11.647
22119W        W90513  10.505  32.907   3.802
22120W        W90514  22.986  18.244  12.592
22121W        W90515   6.352  23.227   9.622
22122W        W90516   2.871  18.156  14.786
22123W        W90517  26.351  25.648  13.232
22124W        W90518  31.157  23.548  12.160
22125W        W90519  43.446  32.516  10.616
22126W        W90520   4.837  21.166   3.330
22127W        W90521  21.741  38.841  11.093
22128W        W90522  36.546  12.598   4.905
22129W        W90523  26.495   8.914  11.185
22130W        W90524  31.410  23.101   4.585
22131W        W90525  14.764  10.685  14.919
22132W        W90526   4.960  19.076  11.256
22133W        W90527   8.610  18.745   1.990
22134W        W90528  39.467   4.858  10.712
22135W        W90529   2.422   9.080  11.173
22136W        W90530  25.113  35.818  10.724
22137W        W90531  32.409   3.745   2.944
22138W        W90532  11.816  38.693   0.781
22139W        W90533   6.212  15.355   2.340
22140W        W90534   3.568  44.416   2.685
22141W        W90535  19.405   6.370  11.273
22142W        W90536   2.994   8.960  12.487
22143W        W90537  23.399  19.932  13.030
22144W        W90538  44.400  38.746   1.278
22145W        W90539  20.731  18.728   4.241
22146W        W90540  37.609  19.679   4.852
22147W        W90541  33.378  27.015   0.059
22148W        W90542  29.835   2.699   2.657
22149W        W90543  18.613   1.878  10.646
22150W        W90544  23.545  25.051  10.700
22151W        W90545  20.969  22.515   3.459
22152W        W90546  17.303  13.324   2.278
22153W        W90547  35.315  27.658   3.749
22154W        W90548  23.191  24.092  12.908
22155W        W90549   6.436  37.735  12.444
22156W        W90550  29.860  26.017   1.755
22157W        W90551   8.643  12.388  14.739
22158W        W90552  36.809  44.319   0.855
22159W        W90553  21.754  30.140  14.125
22160W        W90554   6.628  18.745   0.585
22161W        W90555  19.856  20.063  13.428
22162W        W90556   0.726  24.129  11.319
22163W        W90557   7.360   2.425   3.329
22164W        W90558  29.164  19.686   3.574
22165W        W90559  25.098  13.394  13.001
22166W        W90560  20.326   2.956   0.738
22167W        W90561   9.237  26.770   4.571
22168W        W90562  12.689  23.290  11.331
22169W        W90563  11.322  18.542  13.593
22170W        W90564  19.143  15.007   4.068
22171W        W90565  24.623  25.658   3.691
22172W        W90566  43.597  25.758   0.689
22173W        W90567   2.035  33.728  13.828
22174W        W90568  29.140  12.404  12.908
22175W        W90569  20.794  40.320   3.195
22176W        W90570  11.836  20.758   3.678
22177W        W90571  29.014   7.824  10.611
22178W        W90572   3.880  35.821  14.511
22179W        W90573  36.282  25.759   2.707
22180W        W90574  15.446  43.325  10.965
22181W        W90575   6.115  42.213   0.286
22182W        W90576  17.076   0.378  12.430
22183W        W90577  19.656  20.623  10.527
22184W        W90578   3.282  17.677   0.401
22185W        W90579  33.944  41.055   5.019
22186W        W90580  16.994  33.144  13.114
22187W        W90581   2.515   3.906  12.331
22188W        W90582   8.085  27.832  10.549
22189W        W90583   1.209  19.286   3.409
22190W        W90584  21.630   1.185  11.134
22191W        W90585  22.176   5.572   0.331
22192W        W90586   8.520  40.291   3.123
22193W        W90587  22.003  38.295  11.631
22194W        W90588   5.427  19.093  12.918
22195W        W90589   0.705   6.318   2.775
22196W        W90590  15.884  37.043  13.571
22197W        W90591  28.201   6.229  13.491
22198W        W90592  39.385  35.992  10.731
22199W        W90593  43.463  37.619  12.510
22200W        W90594  44.575  38.573   4.071
22201W        W90595   1.430  21.487   3.566
22202W        W90596  25.512  29.623  14.440
22203W        W90597  12.379  18.325   2.877
22204W        W90598   3.448  16.280  10.992
22205W        W90599  34.345  12.448  10.712
22206W        W90600  29.195  18.711   4.762
22207W        W90601  44.044  12.496   1.680
22208W        W90602  44.340   7.116   2.688
22209W        W90603  27.136  19.586   2.252
22210W        W90604  29.675   6.897   2.278
22211W        W90605  38.253  16.274   2.152
22212W        W90606  43.763  28.078  11.260
22213W        W90607  24.748   5.130  13.031
22214W        W90608  35.003  33.797  14.832
22215W        W90609   4.910  16.880  10.812
22216W        W90610  16.561  31.590   0.347
22217W        W90611  18.275   8.082  13.872
22218W        W90612  18.207  20.777  11.727
22219W        W90613  33.393  42.435   0.862
22220W        W90614  37.520  37.531   9.955
22221W        W90615  41.872  28.831  12.008
22222W        W90616  42.776  18.130  12.474
22223W        W90617   3.893   2.472   2.528
22224W        W90618  15.348  16.040  13.054
22225W        W90619   6.026  19.034  14.490
22226W        W90620  37.378  38.296  14.796
22227W        W90621  34.517  22.657  12.991
22228W        W90622  19.023   8.186  12.498
22229W        W90623  27.093  13.207   2.696
22230W        W90624  42.437   0.852  11.815
22231W        W90625  30.475   6.722   3.571
22232W        W90626   5.211  26.119  10.708
22233W        W90627  29.127  43.893  14.032
22234W        W90628  38.623   3.976  10.810
22235W        W90629  22.217  12.804   5.159
22236W        W90630   2.263  26.022  14.785
22237W        W90631  23.071  33.581  13.556
22238W        W90632  31.929  19.037   1.985
22239W        W90633   6.367   5.124  12.518
22240W        W90634   9.122  39.941   4.592
22241W        W90635  38.252  17.501  10.580
22242W        W90636  31.089  31.031   3.401
22243W        W90637  24.051  18.840   3.604
22244W        W90638  44.328  26.069   3.747
22245W        W90639  43.805   1.765  11.939
22246W        W90640  23.260   9.267  11.462
22247W        W90641  37.806  16.229   3.466
22248W        W90642  35.945  27.598  14.855
22249W        W90643   1.729  31.704   1.699
22250W        W90644  22.132  44.351  12.170
22251W        W90645   1.533  15.166  12.313
22252W        W90646  22.333   2.936   0.736
22253W        W90647  26.434   2.926  12.127
22254W        W90648  21.150  41.517  14.855
22255W        W90649  43.390  31.898  11.998
22256W        W90650   4.871  38.411   4.303
22257W        W90651  34.332  23.213   0.438
22258W        W90652  16.874  32.492   3.360
22259W        W90653  31.650   8.672   2.280
22260W        W90654  20.248  44.349   0.694
22261W        W90655   2.278   0.718   0.355
22262W        W90656  32.497   6.198   1.370
22263W        W90657   9.337  17.981  13.319
22264W        W90658   8.350   4.153  13.425
22265W        W90659   2.948  35.421   2.859
22266W        W90660   8.607  40.462   5.131
22267W        W90661  29.663  21.707   0.832
22268W        W90662  40.322  43.600   2.457
22269W        W90663  21.290  34.549  11.688
22270W        W90664  16.644  31.349  14.427
22271W        W90665  29.022  25.096   2.372
22272W        W90666  34.642  24.416   2.919
22273W        W90667  21.170  10.769  10.289
22274W        W90668  24.712  38.594  10.727
22275W        W90669  39.530  13.181  12.667
22276W        W90670  33.823  10.745   0.254
22277W        W90671  29.683  11.000  11.940
22278W        W90672   8.917  23.534  14.030
22279W        W90673  20.637   7.814   0.551
22280W        W90674  23.571  37.512  11.025
22281W        W90675   4.319  30.725  13.855
22282W        W90676   5.513  31.393   1.995
22283W        W90677  43.905  17.292  14.446
22284W        W90678  34.914   2.235   3.411
22285W        W90679   8.782   2.359   2.394
22286W        W90680  19.114   0.371   3.721
22287W        W90681   9.793  24.225   3.611
22288W        W90682  22.761   4.742   2.339
22289W        W90683  15.574  17.994   3.243
22290W        W90684  23.227  25.720  13.504
22291W        W90685  17.841  39.337  12.936
22292W        W90686  17.796  42.079  12.435
22293W        W90687   0.523   1.391  12.366
22294W        W90688  11.696  44.318  12.116
22295W        W90689  42.642  24.553   1.259
22296W        W90690  43.229   0.603   4.446
22297W        W90691  15.116  21.056   5.146
22298W        W90692  29.058  16.613  12.068
22299W        W90693  42.345  37.848  11.945
22300W        W90694  16.257  29.680  13.126
22301W        W90695  37.025   0.493   5.008
22302W        W90696   7.203  13.030   3.708
22303W        W90697  26.973  40.085   0.431
22304W        W90698  37.340   4.520  13.066
22305W        W90699   5.847  21.360   3.880
22306W        W90700  31.655   6.893  14.250
22307W        W90701  38.943   3.725  14.522
22308W        W90702  20.843  42.951  11.105
22309W        W90703  27.097  28.871   2.202
22310W        W90704  12.392  16.743  11.664
22311W        W90705  24.590  16.831   2.821
22312W        W90706   7.897  22.912   2.567
22313W        W90707  30.911  29.181  14.146
22314W        W90708  44.578  41.922   0.380
22315W        W90709  13.872  44.048   4.896
22316W        W90710  18.144  42.508   4.024
22317W        W90711   6.716   6.938   4.920
22318W        W90712   8.713  44.478   0.360
22319W        W90713  35.305  28.588   4.112
22320W        W90714  44.888  11.870  12.117
22321W        W90715  12.329  40.070   4.095
22322W        W90716  19.070  23.008   4.347
22323W        W90717  15.722   5.754  14.477
22324W        W90718   5.641  39.576   3.624
22325W        W90719  11.038  44.891  13.258
22326W        W90720   3.403  38.894   0.467
22327W        W90721  29.135  32.563   0.056
22328W        W90722  23.540  44.556   3.962
22329W        W90723  14.809  22.816  14.557
22330W        W90724   4.163  31.104   3.785
22331W        W90725  17.313   1.220  11.564
22332W        W90726  29.153  11.308   2.656
22333W        W90727  37.025  36.477  11.046
22334W        W90728  36.956  25.333   0.823
22335W        W90729  32.604  22.389   4.244
22336W        W90730   0.067   1.613  12.305
22337W        W90731  29.069  33.593   2.750
22338W        W90732   5.864  36.497   2.377
22339W        W90733  13.260  28.572   0.055
22340W        W90734  26.500   6.428   3.529
22341W        W90735  18.217  43.828  11.511
22342W        W90736  23.841  39.914   1.732
22343W        W90737  26.108  38.936  13.992
22344W        W90738  34.694  29.635   0.262
22345W        W90739  20.049   7.763   2.169
22346W        W90740  11.215  22.310   1.389
22347W        W90741   1.340  15.014   4.540
22348W        W90742   6.911  31.066  10.526
22349W        W90743   3.750  27.026  11.659
22350W        W90744  12.909  13.117  11.239
22351W        W90745  17.553  19.772   4.147
22352W        W90746  42.339  22.280   0.729
22353W        W90747  22.280  37.093   4.267
22354W        W90748  35.046  10.061  11.688
22355W        W90749  27.503  25.898   0.067
22356W        W90750  32.963  26.258  11.533
22357W        W90751  16.065  37.458   0.393
22358W        W90752  20.613   5.969   0.780
22359W        W90753   5.783  33.843   1.862
22360W        W90754  40.799   4.189   1.279
22361W        W90755  28.861  16.013   2.773
22362W        W90756   2.982  39.850  11.157
22363W        W90757  11.302  26.560   2.016
22364W        W90758  36.688  42.611   4.133
22365W        W90759  18.015  21.055  14.547
22366W        W90760  23.026   6.962  12.996
22367W        W90761   7.299  25.879   5.438
22368W        W90762  38.761  34.572   4.740
22369W        W90763  25.091  26.329   2.002
22370W        W90764  11.183  16.045  12.104
22371W        W90765  41.526  21.818  13.574
22372W        W90766  18.293  23.085  11.562
22373W        W90767  44.414   9.453  13.286
22374W        W90768   6.166  21.120  12.836
22375W        W90769   8.051   2.840   0.698
22376W        W90770  33.868  34.895  10.886
22377W        W90771  39.907  12.852   0.494
22378W        W90772   8.203  23.263  12.962
22379W        W90773  44.433  37.939   2.202
22380W        W90774  15.583  16.320   2.616
22381W        W90775  14.344  36.648  14.743
22382W        W90776  32.076   5.650  12.474
22383W        W90777  16.716  11.775  13.724
22384W        W90778  19.520  27.210   1.632
22385W        W90779  39.397  33.904   3.153
22386W        W90780   6.463   8.250   0.055
22387W        W90781  16.661  41.587   3.254
22388W        W90782  41.233  42.927  14.836
22389W        W90783  14.317   2.322  12.886
22390W        W90784  14.634  20.822  13.915
22391W        W90785  17.086   1.715  10.699
22392W        W90786  40.275  31.944  11.591
22393W        W90787  37.116  33.343   3.466
22394W        W90788   8.757   9.278  10.663
22395W        W90789  41.780  18.234   1.020
22396W        W90790  29.078  41.323   2.272
22397W        W90791   8.776  30.322   0.408
22398W        W90792  13.952   2.788  14.020
22399W        W90793  29.212  30.211  10.725
22400W        W90794   7.799  40.941  13.436
22401W        W90795  24.488  10.736  13.397
22402W        W90796  38.510  34.381   3.167
22403W        W90797  29.963  26.932  11.607
22404W        W90798   8.564  42.768  14.435
22405W        W90799  13.725  44.604   3.445
22406W        W90800   1.838  42.083   3.647
22407W        W90801   9.331   2.213   4.930
22408W        W90802  16.816  34.467  13.042
22409W        W90803   2.904  27.026   1.612
22410W        W90804   5.756  35.420  14.780
22411W        W90805  31.992  26.466   2.244
22412W        W90806  25.223  27.028  14.898
22413W        W90807  36.991  13.607   3.697
22414W        W90808  36.345  39.512  11.385
22415W        W90809  24.167  16.210  14.973
22416W        W90810   5.030  43.902  11.209
22417W        W90811  28.463   7.821  14.939
22418W        W90812  33.483   7.456  11.220
22419W        W90813  13.672   5.263  11.134
22420W        W90814   9.306   4.868   3.217
22421W        W90815   6.238  11.085   0.276
22422W        W90816   5.625  27.986   1.284
22423W        W90817  31.321  13.651   4.547
22424W        W90818  35.814   7.599   2.375
22425W        W90819   0.044  35.975   2.667
22426W        W90820  14.750  22.065  12.614
22427W        W90821  35.625   7.181  13.030
22428W        W90822  35.294  17.716  14.710
22429W        W90823  39.037   4.650   1.717
22430W        W90824  11.204  44.213  10.799
22431W        W90825  13.431  13.502   4.481
22432W        W90826  19.039  22.659   3.129
22433W        W90827  32.940  35.099   3.209
22434W        W90828  32.314  35.419   3.606
22435W        W90829  30.610  44.905   4.603
22436W        W90830   0.872   8.617   1.944
22437W        W90831  32.481  25.418   4.753
22438W        W90832   9.810   2.217  13.067
22439W        W90833  33.953  25.996  10.688
22440W        W90834   1.393   4.423   2.300
22441W        W90835  41.290  25.096   3.125
22442W        W90836  21.813   9.416   0.372
22443W        W90837  10.775  15.218   1.901
22444W        W90838  32.684  31.625  13.503
22445W        W90839   2.889  38.354  13.890
22446W        W90840  13.517   6.536  11.664
22447W        W90841  13.639  27.004  11.085
22448W        W90842  37.109  39.343   3.213
22449W        W90843  11.397  43.528  13.069
22450W        W90844  33.399   6.574   3.301
22451W        W90845  18.812   6.132  12.124
22452W        W90846  11.724   7.484   1.410
22453W        W90847  43.484  44.529  13.955
22454W        W90848  12.822  34.546   4.173
22455W        W90849  35.318  39.271   3.534
22456W        W90850   8.196  14.634   3.544
22457W        W90851  19.323  26.271  13.855
22458W        W90852  37.874   7.402   1.022
22459W        W90853  31.857  10.902  13.210
22460W        W90854  28.896  32.083  14.354
22461W        W90855  38.844  27.689   0.899
22462W        W90856   2.794  17.312   1.001
22463W        W90857   2.199  31.293   3.588
22464W        W90858  27.081  22.556  10.669
22465W        W90859  29.214  29.474   2.461
22466W        W90860  24.305   2.892  14.401
22467W        W90861  40.588   5.690   4.766
22468W        W90862   8.812  22.983  14.507
22469W        W90863  37.869  27.412   4.009
22470W        W90864  20.568  25.990  14.424
22471W        W90865  44.343  36.942  13.205
22472W        W90866  15.346   9.517  14.825
22473W        W90867  20.524  30.970  14.711
22474W        W90868  28.423  38.365  13.056
22475W        W90869   5.216   1.273  12.154
22476W        W90870  13.297   7.834  11.059
22477W        W90871  43.551  35.296   4.145
22478W        W90872  32.315  30.074   4.646
22479W        W90873  27.595   6.321   4.367
22480W        W90874  41.236   7.799   1.614
22481W        W90875   1.409  34.272  12.379
22482W        W90876   1.825  20.895   5.023
22483W        W90877  12.651   7.197   9.725
22484W        W90878  22.330  43.341   2.232
22485W        W90879  34.179  27.999  11.085
22486W        W90880  11.462  42.186   2.434
22487W        W90881  36.126  30.927   2.919
22488W        W90882  22.497  13.750   0.297
22489W        W90883  31.365  21.241  12.565
22490W        W90884   9.637  39.238  14.425
22491W        W90885  31.194  11.373   3.661
22492W        W90886  27.670  17.793  12.155
22493W        W90887   9.851  33.085  10.797
22494W        W90888  19.985  20.024   9.768
22495W        W90889  42.827  26.225   3.431
22496W        W90890  44.500   7.699  14.444
22497W        W90891   8.004  29.497   4.003
22498W        W90892   8.643  39.516  12.401
22499W        W90893   4.659   6.472   3.282
22500W        W90894  39.467  14.124   1.724
22501W        W90895  13.209   9.851   3.113
22502W        W90896  44.423   1.788   2.992
22503W        W90897   9.371  10.399  12.336
22504W        W90898  16.781  36.312  13.833
22505W        W90899  30.938  21.864  11.871
22506W        W90900  36.516  14.739  13.655
22507W        W90901   7.351  44.695  12.041
22508W        W90902  14.840  13.438   3.187
22509W        W90903  21.728  36.357   2.866
22510W        W90904  31.916  43.683   4.640
22511W        W90905  37.841  28.215  14.208
22512W        W90906  38.469   2.076  11.616
22513W        W90907   4.728  35.711  13.944
22514W        W90908   4.754  10.701  13.286
22515W        W90909  26.410   5.879  13.440
22516W        W90910  32.236  21.251  14.361
22517W        W90911  21.288   7.846  11.675
22518W        W90912  35.475  20.498  10.818
22519W        W90913  19.190  40.525   2.246
22520W        W90914   9.695  37.730  14.826
22521W        W90915  17.548  18.712  14.671
22522W        W90916  30.877  40.530   4.648
22523W        W90917   4.372  35.358   4.554
22524W        W90918  35.484  40.712   3.656
22525W        W90919  20.724   9.884  13.454
22526W        W90920  13.238  27.683   2.184
22527W        W90921  17.165   6.921   4.081
22528W        W90922  15.667  16.045   0.386
22529W        W90923  30.092  18.034   4.004
22530W        W90924  25.134  38.264   2.429
22531W        W90925  40.894  36.999   1.458
22532W        W90926  40.854   4.221  12.199
22533W        W90927  21.626  44.869   3.598
22534W        W90928  13.367  29.463   0.948
22535W        W90929   3.259   4.125  13.729
22536W        W90930   3.729   9.257   2.306
22537W        W90931   8.637  21.455   2.759
22538W        W90932  25.196  25.728   2.743
22539W        W90933  10.803  21.552   1.752
22540W        W90934  28.743  34.669   3.297
22541W        W90935  33.995  34.950  11.408
22542W        W90936  29.830  33.933  13.931
22543W        W90937  40.893  11.760  11.026
22544W        W90938  37.032   9.750  13.084
22545W        W90939  16.664  29.599   4.221
22546W        W90940  43.204  25.028  14.406
22547W        W90941  43.451  10.536   1.866
22548W        W90942  20.994  32.017  13.515
22549W        W90943   3.958  16.171  13.381
22550W        W90944  34.051  38.549  13.333
22551W        W90945  26.474  36.360  12.628
22552W        W90946  34.998  36.624  14.387
22553W        W90947   3.326  33.934   3.529
22554W        W90948  35.166  23.100  14.993
22555W        W90949  11.591  32.254   3.253
22556W        W90950  40.282   0.926   0.216
22557W        W90951  33.987   2.043   3.473
22558W        W90952  12.020  11.511  14.279
22559W        W90953   7.161   2.414  14.393
22560W        W90954  40.990  19.125   0.202
22561W        W90955  42.140  32.276   2.818
22562W        W90956  44.994  19.532  14.962
22563W        W90957  35.941  23.184  10.734
22564W        W90958   3.413  26.621  11.669
22565W        W90959   1.315  44.941   0.246
22566W        W90960  35.561  20.658  13.901
22567W        W90961  29.116  22.737   2.452
22568W        W90962  37.331  38.924   0.401
22569W        W90963  15.696   9.026   1.892
22570W        W90964   5.216   7.677  11.768
22571W        W90965   0.151   8.585  10.666
22572W        W90966  28.047   6.286  11.633
22573W        W90967  27.943  34.291  12.476
22574W        W90968   9.067  17.155  12.077
22575W        W90969  20.155  22.618   2.682
22576W        W90970  32.709   1.340   4.200
22577W        W90971  14.593  12.616   4.505
22578W        W90972  38.037  24.865   0.252
22579W        W90973  11.220   8.768   3.829
22580W        W90974  33.133  19.788   3.005
22581W        W90975   5.381  41.577  14.579
22582W        W90976   1.705   0.049   1.964
22583W        W90977  27.715   4.470  12.369
22584W        W90978  26.206   8.612  11.509
22585W        W90979  33.760  21.124   2.746
22586W        W90980  44.031  38.146   1.896
22587W        W90981  26.686  35.120  10.698
22588W        W90982  25.400  35.617  12.880
22589W        W90983  10.934   6.307  14.250
22590W        W90984  43.735   5.880   2.919
22591W        W90985  19.058   6.145  10.981
22592W        W90986  38.884  36.381  10.072
22593W        W90987   5.748  41.542  12.865
22594W        W90988  33.122  30.087   0.696
22595W        W90989   7.952  18.153   3.284
22596W        W90990  30.861  14.863  12.516
22597W        W90991  40.803  25.916   1.401
22598W        W90992  23.098  37.551  13.679
22599W        W90993  34.886   5.892   1.016
22600W        W90994  33.876   7.310  14.913
22601W        W90995   6.164  20.976   3.070
22602W        W90996  33.152  25.231   3.062
22603W        W90997   5.696   8.249   0.262
22604W        W90998   5.273  15.801  12.147
22605W        W90999  21.984  11.736  11.126
22606W        W91000  32.434  17.653  12.450
22607W        W91001  39.582  19.255   3.170
22608W        W91002  32.197   4.892  13.785
22609W        W91003  32.963  41.708   1.851
22610W        W91004  25.277  36.265   0.122
22611W        W91005  39.780   0.943   2.773
22612W        W91006  16.608   0.257   0.293
22613W        W91007   3.461   8.688  13.336
22614W        W91008  27.614  25.541   2.146
22615W        W91009  38.931  21.676   3.120
22616W        W91010  12.561  41.300  13.426
22617W        W91011  28.453  28.435   2.387
22618W        W91012  17.062   6.460  14.323
22619W        W91013   6.709  43.412   4.960
22620W        W91014  17.339  31.109   3.584
22621W        W91015  21.785  34.133   4.162
22622W        W91016  14.923   1.401  13.995
22623W        W91017  33.501  38.405   0.451
22624W        W91018  22.515   1.268  12.688
22625W        W91019  44.373   9.715  14.533
22626W        W91020  23.510   3.860  10.660
22627W        W91021  33.402  12.917  11.565
22628W        W91022  12.916  21.232   1.251
22629W        W91023   0.407   0.822   0.960
22630W        W91024  22.778   0.739   4.628
22631W        W91025  32.576  13.707  14.942
22632W        W91026  44.757  33.276  13.507
22633W        W91027   5.809  36.509   0.798
22634W        W91028  31.011  32.557  13.555
22635W        W91029  16.088  19.024   3.326
22636W        W91030  25.466  14.875   0.841
22637W        W91031   5.865  43.258   3.203
22638W        W91032  40.243  33.521  11.128
22639W        W91033  28.467  15.905   0.682
22640W        W91034   8.280   2.948   1.835
22641W        W91035  22.906  19.056  10.662
22642W        W91036   4.380  11.268   2.399
22643W        W91037  19.814  38.502   1.440
22644W        W91038  43.489  14.764  13.231
22645W        W91039   5.774  20.302   3.749
22646W        W91040  12.119  29.412  10.740
22647W        W91041  16.533  15.231  12.107
22648W        W91042  15.651  24.555  14.728
22649W        W91043  13.884  11.549   2.812
22650W        W91044  22.418  16.305  12.322
22651W        W91045   6.898  25.953   1.925
22652W        W91046  26.753  26.960  13.706
22653W        W91047  26.982   0.835  14.381
22654W        W91048  44.116  39.316   2.388
22655W        W91049   2.950  17.240  13.753
22656W        W91050  10.175  40.598   3.690
22657W        W91051   7.718  25.229   0.724
22658W        W91052  40.890  40.510  14.950
22659W        W91053  25.602  14.422  12.068
22660W        W91054  34.755  29.188  11.984
22661W        W91055   6.954  10.827   3.710
22662W        W91056   2.752  29.702   4.255
22663W        W91057  24.955  41.965   3.617
22664W        W91058   8.322  29.076  10.635
22665W        W91059   9.268  39.207   2.860
22666W        W91060  14.628  25.080  10.491
22667W        W91061  29.134  43.521   0.419
22668W        W91062  31.709  28.468   4.702
22669W        W91063  10.227  39.068   4.589
22670W        W91064  37.052  27.509   1.219
22671W        W91065  23.070  18.195  11.247
22672W        W91066  29.365  27.614  12.672
22673W        W91067  35.354  35.754   2.279
22674W        W91068   7.458  32.856   3.118
22675W        W91069   8.191  39.900   3.076
22676W        W91070  43.900  26.863  12.571
22677W        W91071   6.651  17.146   1.381
22678W        W91072  32.430  31.830  11.482
22679W        W91073  40.924  39.719  13.063
22680W        W91074  37.891  41.905  11.568
22681W        W91075  29.161  42.424  11.982
22682W        W91076  23.697  25.523   1.434
22683W        W91077  42.012  31.388  10.630
22684W        W91078  15.806  14.368  14.962
22685W        W91079  16.821  17.192   0.758
22686W        W91080  18.681   7.195  11.119
22687W        W91081   3.745   2.434  14.312
22688W        W91082  32.622  23.654  11.027
22689W        W91083  33.416   2.501   4.385
22690W        W91084  29.808  35.893   5.126
22691W        W91085  37.315  30.904  14.065
22692W        W91086  36.167  27.491   1.280
22693W        W91087  28.060  39.508   0.969
22694W        W91088  31.639   8.779  11.181
22695W        W91089  27.883  28.462   4.126
22696W        W91090  25.511  20.505  12.468
22697W        W91091  38.345  16.835  12.876
22698W        W91092   2.275  35.277  11.346
22699W        W91093  30.675  33.989  13.520
22700W        W91094  17.098  28.620   0.961
22701W        W91095  33.334  35.843   3.195
22702W        W91096  23.117  21.522  10.720
22703W        W91097  19.961   9.203   3.619
22704W        W91098   3.800  34.447   1.821
22705W        W91099  18.631  30.414  11.600
22706W        W91100  25.054  26.879  10.379
22707W        W91101  13.393  23.729   1.276
22708W        W91102  17.974  12.589   4.211
22709W        W91103  27.229  40.272  14.043
22710W        W91104  22.475  41.352   0.475
22711W        W91105  28.023   1.949  11.560
22712W        W91106  31.870  27.033  13.888
22713W        W91107  35.437  38.435  10.587
22714W        W91108   0.018  18.297  11.155
22715W        W91109  31.525  39.199  14.402
22716W        W91110  42.944   4.887   0.033
22717W        W91111  41.905   1.275   4.663
22718W        W91112   6.153  11.319   0.732
22719W        W91113  12.247   7.387   0.693
22720W        W91114  10.861  44.974   3.577
22721W        W91115  35.334  33.412  14.729
22722W        W91116   3.804  23.491   4.905
22723W        W91117  34.901  42.538   4.831
22724W        W91118  26.735  37.871   1.810
22725W        W91119  38.443  21.564  11.554
22726W        W91120   9.950   7.065  14.359
22727W        W91121  10.604   9.306   3.230
22728W        W91122  17.274  37.852  13.014
22729W        W91123   8.896   1.984  14.273
22730W        W91124  23.891   5.618  11.142
22731W        W91125  18.797  17.896  10.910
22732W        W91126   6.659  24.389  10.784
22733W        W91127   9.017   0.601  14.446
22734W        W91128   7.210  26.175   2.431
22735W        W91129  22.084   3.420   0.722
22736W        W91130  31.973  39.719   3.203
22737W        W91131   8.238  29.031  14.127
22738W        W91132  28.670   3.961  11.695
22739W        W91133   0.246  15.905   1.801
22740W        W91134   5.374   6.302   4.622
22741W        W91135  18.738   1.642   0.315
22742W        W91136  12.743   1.275   2.247
22743W        W91137   0.393   8.876   1.932
22744W        W91138  44.217  32.635  13.316
22745W        W91139  10.915  43.533   3.631
22746W        W91140  14.643  27.170   0.962
22747W        W91141  41.720  20.141   1.333
22748W        W91142   8.150  25.043   3.099
22749W        W91143  37.501   1.360   1.622
22750W        W91144  13.151   2.605  13.698
22751W        W91145  19.756   8.930   1.248
22752W        W91146  25.667  11.983   4.981
22753W        W91147  40.411  25.403   0.017
22754W        W91148  10.266  37.821  12.494
22755W        W91149   9.236   0.719  10.089
22756W        W91150   0.040  39.453   5.035
22757W        W91151  13.185  15.389  13.068
22758W        W91152   1.045  23.446  10.136
22759W        W91153  27.889  30.467   5.088
22760W        W91154  27.988  20.534  14.387
22761W        W91155  33.650  22.143   0.682
22762W        W91156  42.532  11.822  14.009
22763W        W91157   3.263  42.861  11.905
22764W        W91158  16.239  37.341  14.898
22765W        W91159  23.135  37.241  11.188
22766W        W91160  42.769  18.996  14.896
22767W        W91161  32.367  39.343   1.342
22768W        W91162   1.803   2.752  13.102
22769W        W91163  18.749   6.241  13.090
22770W        W91164  17.706  42.046  14.170
22771W        W91165  35.619  15.447   0.318
22772W        W91166  11.597   6.455   1.238
22773W        W91167  27.554   3.715   0.908
22774W        W91168   9.181  23.161   0.912
22775W        W91169  20.130   3.757   0.350
22776W        W91170  26.434  17.270  14.391
22777W        W91171  31.365   8.769   0.742
22778W        W91172  14.862  44.127   1.213
22779W        W91173  26.457  37.121  12.050
22780W        W91174  14.321  22.298  14.787
22781W        W91175  32.368  43.778   2.774
22782W        W91176  29.632  34.105   4.784
22783W        W91177  33.137  35.142  11.416
22784W        W91178  36.953  26.726   0.503
22785W        W91179  11.870   8.406   1.792
22786W        W91180  12.104  21.637   2.612
22787W        W91181  30.978  12.694   4.903
22788W        W91182   2.520  31.758   3.650
22789W        W91183  16.691  40.271  12.879
22790W        W91184   7.239  36.169  12.971
22791W        W91185   5.066  12.996   4.537
22792W        W91186  39.323  42.028  14.945
22793W        W91187   9.654  12.494   3.616
22794W        W91188  34.234   1.201  14.394
22795W        W91189  44.543  35.806  12.643
22796W        W91190  21.409   1.260   4.143
22797W        W91191  24.508   0.702   0.037
22798W        W91192  13.335  24.150  12.578
22799W        W91193  18.296   2.733   1.874
22800W        W91194  32.469  35.012  13.610
22801W        W91195  34.627  20.094   4.187
22802W        W91196  14.750  22.849   3.598
22803W        W91197  10.267  27.402   3.355
22804W        W91198   0.039  38.830  13.815
22805W        W91199   7.572   2.257  12.677
22806W        W91200  41.418  16.356   1.421
22807W        W91201  14.309  21.397   0.028
22808W        W91202  36.139  39.914  10.776
22809W        W91203   5.714   5.935   0.762
22810W        W91204  38.657  19.783  11.220
22811W        W91205  37.314  31.818   3.136
22812W        W91206  18.475  20.458   3.777
22813W        W91207  15.167  29.600   3.656
22814W        W91208  11.979  42.418  13.797
22815W        W91209   6.675   6.732   2.611
22816W        W91210  15.064   2.164  13.894
22817W        W91211  19.527  33.743   0.877
22818W        W91212   3.925  28.527  12.813
22819W        W91213  29.969  44.956   2.323
22820W        W91214  11.243   2.765   3.082
22821W        W91215  19.132   2.778   3.271
22822W        W91216  33.573   9.187   3.606
22823W        W91217  41.362  17.771  10.743
22824W        W91218  33.103  44.485   3.719
22825W        W91219   6.386  37.345   3.268
22826W        W91220   0.767  40.099   1.816
22827W        W91221  38.074  13.935   2.218
22828W        W91222  31.173  13.200   4.291
22829W        W91223  32.511  41.970   3.360
22830W        W91224  29.047  40.872   0.820
22831W        W91225  20.091  41.898  12.909
22832W        W91226  20.435  19.315  11.031
22833W        W91227  22.572  19.015  12.760
22834W        W91228  38.979   7.980  10.690
22835W        W91229  44.268   3.115   2.450
22836W        W91230  39.612  32.829  14.021
22837W        W91231  12.533   4.666   3.655
22838W        W91232  18.087  29.058   0.120
22839W        W91233  31.971  12.157  13.491
22840W        W91234  18.476  33.740   0.378
22841W        W91235  19.622  30.388   3.702
22842W        W91236   8.103   1.729   1.131
22843W        W91237  43.677  33.514   3.786
22844W        W91238  22.512  33.637   3.737
22845W        W91239  36.080   5.351   4.928
22846W        W91240  44.966   4.807   4.134
22847W        W91241  39.762  27.174   1.065
22848W        W91242  10.109   6.805   4.875
22849W        W91243  37.938  11.073   0.844
22850W        W91244  42.787  42.318  10.779
22851W        W91245   2.188   3.640  10.463
22852W        W91246  33.321   4.203   3.263
22853W        W91247  10.350  14.544   2.460
22854W        W91248  17.543   7.918  11.655
22855W        W91249   7.566   2.551   4.070
22856W        W91250  20.680  16.473  14.960
22857W        W91251  40.513  40.003  11.514
22858W        W91252  17.227   2.003   1.002
22859W        W91253  44.047  20.001  12.926
22860W        W91254  32.266   1.532   3.494
22861W        W91255   6.891  22.203   0.310
22862W        W91256  15.053  28.913   1.390
22863W        W91257  23.471  42.986   3.585
22864W        W91258  32.438  23.221   4.961
22865W        W91259  10.081   9.162   4.190
22866W        W91260  29.065  18.306  14.870
22867W        W91261   2.285  11.877  11.705
22868W        W91262  10.402  17.415  11.552
22869W        W91263  42.927  28.823   4.607
22870W        W91264  26.205  35.498   2.958
22871W        W91265  17.610  37.578  14.943
22872W        W91266  25.509   3.498   3.374
22873W        W91267  11.337  28.529   0.889
22874W        W91268  38.807  20.681   4.170
22875W        W91269  43.276   4.939  12.028
22876W        W91270  37.606  23.507   1.483
22877W        W91271  31.427  21.763  12.417
22878W        W91272  29.098  17.177  12.125
22879W        W91273  40.351   8.413   2.764
22880W        W91274  11.346  44.894   3.330
22881W        W91275   4.933   2.382  13.415
22882W        W91276  10.226   8.132   1.425
22883W        W91277  35.055  44.457   3.712
22884W        W91278  11.235  13.338   2.753
22885W        W91279  19.828  12.021  10.593
22886W        W91280   6.197   4.696   0.331
22887W        W91281   2.407  34.118   2.692
22888W        W91282   3.805   9.600  13.059
22889W        W91283  17.145   4.391   3.118
22890W        W91284   4.029  15.188   4.525
22891W        W91285  25.257  36.103   1.894
22892W        W91286   9.540   4.469  10.254
22893W        W91287  20.984  13.751  14.507
22894W        W91288  16.133  25.001   5.101
22895W        W91289  26.214  26.687  11.661
22896W        W91290  22.016  40.836   1.230
22897W        W91291  22.138  16.756   2.380
22898W        W91292   4.253  44.717   4.163
22899W        W91293  18.658  21.035  12.772
22900W        W91294  13.302   2.420   0.905
22901W        W91295  29.396  25.873   2.385
22902W        W91296  11.844  30.414   2.447
22903W        W91297  43.045  36.377  11.670
22904W        W91298  35.356  44.401   3.287
22905W        W91299   3.691  28.997   1.352
22906W        W91300  12.901   0.917   3.713
22907W        W91301   4.793   2.544  12.486
22908W        W91302   1.995  19.089   4.057
22909W        W91303  29.378  36.459  12.403
22910W        W91304  36.184  35.835  14.350
22911W        W91305  17.732  41.346  11.927
22912W        W91306  16.147  24.145   0.430
22913W        W91307  35.978  12.346  14.931
22914W        W91308  41.085  42.529   1.343
22915W        W91309  17.121  10.274  14.434
22916W        W91310  15.187  38.967   1.735
22917W        W91311  18.886  11.244   1.151
22918W        W91312  10.717  23.813   3.768
22919W        W91313  37.541  15.275   0.870
22920W        W91314  27.622  25.160  14.405
22921W        W91315  42.850   6.141   3.732
22922W        W91316   3.320  14.580   1.923
22923W        W91317  37.452  35.871   1.223
22924W        W91318   2.244  11.707  13.109
22925W        W91319  28.329   0.735   3.164
22926W        W91320  41.411  26.087  11.949
22927W        W91321  28.209  11.397  12.128
22928W        W91322  32.816  27.459   4.583
22929W        W91323  20.281  42.936  11.949
22930W        W91324  26.696   6.508  11.087
22931W        W91325  31.971  24.876  10.628
22932W        W91326  25.920  27.485  13.552
22933W        W91327  32.007   3.495  13.534
22934W        W91328  43.340  29.379  13.061
22935W        W91329   2.352   0.376   2.772
22936W        W91330   6.016  14.321  10.995
22937W        W91331   6.040   5.800  11.588
22938W        W91332  34.083  44.400  13.834
22939W        W91333  13.245  27.311   3.567
22940W        W91334  24.100   9.399   9.542
22941W        W91335  31.775  22.024   2.412
22942W        W91336  12.154  36.310   0.299
22943W        W91337  24.424  24.067  10.430
22944W        W91338  22.497   0.603  13.347
22945W        W91339   2.152   7.727  12.505
22946W        W91340  41.065  21.522   2.871
22947W        W91341  15.111  13.252   2.743
22948W        W91342  11.587  11.615   9.992
22949W        W91343  37.625  26.088   2.167
22950W        W91344  19.106  31.089  14.869
22951W        W91345  43.350  31.058  14.766
22952W        W91346  40.009   4.244  14.981
22953W        W91347   5.509   2.995   0.968
22954W        W91348  13.777   2.314   4.585
22955W        W91349   9.429   6.321  12.094
22956W        W91350  22.751  41.735  14.338
22957W        W91351  14.886   7.790  14.247
22958W        W91352   8.633   3.411   3.384
22959W        W91353  36.547   5.795   3.129
22960W        W91354   2.335  12.286  10.993
22961W        W91355  18.676  35.242   1.698
22962W        W91356   9.632  21.803   3.166
22963W        W91357  29.427  29.119  14.292
22964W        W91358  40.273   8.108  12.126
22965W        W91359   5.339  36.602   2.258
22966W        W91360  38.504  20.139   3.214
22967W        W91361  14.834  23.803   0.681
22968W        W91362   8.662  22.206  10.664
22969W        W91363  18.812   2.736  14.981
22970W        W91364  15.756  22.401  13.038
22971W        W91365   2.763  40.821   3.198
22972W        W91366  30.742   0.429   2.321
22973W        W91367  24.980  33.599  12.447
22974W        W91368   2.038  25.722  13.570
22975W        W91369  40.337   5.902  13.808
22976W        W91370  42.032  44.553   1.268
22977W        W91371  18.812  23.541   3.756
22978W        W91372  32.035  39.661   4.068
22979W        W91373  22.855  27.486  13.402
22980W        W91374  31.371  25.736   0.033
22981W        W91375   6.274  22.530  10.788
22982W        W91376  40.871  44.993   2.219
22983W        W91377   8.268  25.754  13.910
22984W        W91378  24.240  36.299  12.952
22985W        W91379   4.328   0.940  10.651
22986W        W91380  12.687  29.959   2.333
22987W        W91381  24.928  12.173  14.852
22988W        W91382   5.180  14.126  14.353
22989W        W91383   3.378  21.742  13.885
22990W        W91384  25.223  35.462  13.368
22991W        W91385  41.292  38.351  13.511
22992W        W91386  20.371  29.140   2.846
22993W        W91387  20.572  16.646   5.150
22994W        W91388  23.708  30.622   1.014
22995W        W91389  43.266  28.650   3.529
22996W        W91390  25.654  40.497   3.792
22997W        W91391  26.581  41.326   1.858
22998W        W91392  38.607  42.347  14.421
22999W        W91393  35.130  10.894  14.116
23000W        W91394  10.295  10.697   0.397
23001W        W91395   9.793  12.521  14.933
23002W        W91396  20.986   6.731   3.240
23003W        W91397  35.418  24.514   4.118
23004W        W91398   0.893  38.589   1.444
23005W        W91399  40.065   5.498  13.575
23006W        W91400  17.659  13.005   4.506
23007W        W91401  41.010  19.933   1.860
23008W        W91402  18.350  36.544   1.896
23009W        W91403  13.212  43.295  13.000
23010W        W91404   4.695  29.877   3.241
23011W        W91405  37.507  39.425  10.997
23012W        W91406   2.994  20.223   2.246
23013W        W91407  43.658   8.860   4.915
23014W        W91408  34.475   8.669   3.096
23015W        W91409  22.604   0.752  11.233
23016W        W91410  24.054   0.172  12.572
23017W        W91411  23.042  34.455  12.812
23018W        W91412  37.859  38.212  12.889
23019W        W91413   3.907  43.566   2.894
23020W        W91414  26.153  25.604   4.734
23021W        W91415  29.256   1.877   2.898
23022W        W91416  38.573   6.349  13.796
23023W        W91417  37.376   3.702  13.597
23024W        W91418  13.289  28.042   1.779
23025W        W91419  35.638  23.767  13.892
23026W        W91420  28.416  37.563  12.976
23027W        W91421  42.070  32.323  11.049
23028W        W91422  16.600  40.852   1.177
23029W        W91423  17.712  25.258  10.932
23030W        W91424  36.713   3.325   4.325
23031W        W91425  35.962  18.557   2.119
23032W        W91426  21.690   6.980  13.706
23033W        W91427  10.290  22.764   1.284
23034W        W91428  39.081  28.544   3.297
23035W        W91429  18.743   6.223  14.014
23036W        W91430  38.126  17.334  12.952
23037W        W91431  21.288  43.758   3.837
23038W        W91432  32.613  26.729  10.498
23039W        W91433  16.247  18.801   0.522
23040W        W91434  41.245  30.224  13.077
23041W        W91435   0.737  17.047   2.264
23042W        W91436   9.583   5.775   0.876
23043W        W91437  32.482  35.086  13.100
23044W        W91438   4.396  27.687  11.163
23045W        W91439  44.108  33.984  13.975
23046W        W91440  12.439  40.289   0.220
23047W        W91441  32.465  12.276  14.910
23048W        W91442   7.402  24.496  13.934
23049W        W91443   5.794  23.506   2.413
23050W        W91444  27.424  29.853  13.956
23051W        W91445  36.324  18.113  13.909
23052W        W91446  37.278  14.348   0.304
23053W        W91447  31.671  12.251   3.969
23054W        W91448  28.710   5.880   1.782
23055W        W91449   2.943  40.701  11.651
23056W        W91450  13.223  33.931  13.980
23057W        W91451   5.742  40.540  13.071
23058W        W91452  23.572  33.923  10.960
23059W        W91453  23.547  17.048  11.091
23060W        W91454   7.729   0.961  10.709
23061W        W91455  20.629  14.619   3.577
23062W        W91456   4.413   7.723   1.425
23063W        W91457  14.263   7.189  12.706
23064W        W91458  12.220  41.394  11.590
23065W        W91459  17.208  39.621   1.379
23066W        W91460   3.930  27.581  12.547
23067W        W91461  30.238   4.463  13.484
23068W        W91462  29.462  36.793   0.814
23069W        W91463  10.387  14.909   3.315
23070W        W91464  19.058  39.387  11.885
23071W        W91465  37.589   8.116  12.891
23072W        W91466   8.321  35.358  11.197
23073W        W91467  13.296  14.570   1.757
23074W        W91468  37.961  12.201   4.282
23075W        W91469  12.479   5.698  11.247
23076W        W91470  13.114   7.126  10.478
23077W        W91471  29.752  30.352   2.145
23078W        W91472   5.825  38.724   4.111
23079W        W91473  30.456  21.019   3.964
23080W        W91474  16.804  30.471  11.576
23081W        W91475  35.461  10.367  11.594
23082W        W91476  10.602  41.454   0.234
23083W        W91477  37.000  40.995   3.900
23084W        W91478  25.979  34.678  10.970
23085W        W91479  42.394  29.902   0.309
23086W        W91480  21.492  26.508   1.139
23087W        W91481  44.290   4.089   1.664
23088W        W91482  14.839  42.348   1.880
23089W        W91483  44.065   4.172  13.806
23090W        W91484  43.300   3.763   3.206
23091W        W91485   8.853  26.523  13.023
23092W        W91486  37.791  37.043  11.585
23093W        W91487  29.573  42.541   3.233
23094W        W91488  26.890  30.884  12.508
23095W        W91489   4.883  35.629   3.993
23096W        W91490  30.329  28.044   3.274
23097W        W91491   5.116  27.326   3.669
23098W        W91492  37.240  23.699  12.891
23099W        W91493  43.344  26.036  13.657
23100W        W91494  12.218   2.419  13.952
23101W        W91495  10.189  42.850   0.376
23102W        W91496  20.646  11.116  10.682
23103W        W91497  32.989   9.958   1.507
23104W        W91498  36.292  38.916  10.220
23105W        W91499  42.755   6.425   0.043
23106W        W91500  36.078  25.417  10.985
23107W        W91501  39.293  15.051  14.974
23108W        W91502   9.129  10.342   1.669
23109W        W91503  20.290   3.372   1.138
23110W        W91504  43.414  44.267   3.862
23111W        W91505  30.670   7.431   0.005
23112W        W91506  13.396  27.248  13.685
23113W        W91507  34.134   1.911  12.535
23114W        W91508  42.573   8.358  12.219
23115W        W91509   4.854  15.245   4.129
23116W        W91510  20.971  39.284  11.041
23117W        W91511  23.525  31.159   3.289
23118W        W91512  34.019  32.331  10.526
23119W        W91513  19.159  35.974  10.121
23120W        W91514  15.370  25.056  10.224
23121W        W91515  37.284  39.088  12.869
23122W        W91516   8.285   5.020  11.560
23123W        W91517   7.155  27.588   3.843
23124W        W91518  20.726   5.675  14.477
23125W        W91519  37.138  22.396   4.168
23126W        W91520   6.900  30.489   4.589
23127W        W91521   3.407  44.937   4.851
23128W        W91522  28.886  44.847   2.118
23129W        W91523  33.647  44.325   3.653
23130W        W91524   6.864  35.445  11.860
23131W        W91525   7.304  24.125   4.249
23132W        W91526   2.360  35.342  12.323
23133W        W91527  37.288  13.113  13.445
23134W        W91528  18.159  34.349  11.097
23135W        W91529  28.316   0.058   0.026
23136W        W91530   1.151  35.632  11.555
23137W        W91531  41.293  34.076   1.765
23138W        W91532  36.911   0.495   2.303
23139W        W91533  32.347  38.207  13.095
23140W        W91534  16.591   3.860  13.097
23141W        W91535   2.818  26.623  11.883
23142W        W91536  40.120   0.624   3.759
23143W        W91537   0.723  17.619   0.781
23144W        W91538   6.011   9.225  11.679
23145W        W91539   7.309  17.493   2.415
23146W        W91540  14.813  11.907   4.019
23147W        W91541   9.816   6.885   1.642
23148W        W91542  21.628  20.877  10.340
23149W        W91543  23.990  21.672  13.104
23150W        W91544  44.545  21.519   4.304
23151W        W91545  12.211   6.831  10.354
23152W        W91546  37.974  39.831   1.137
23153W        W91547  35.104  37.577  12.034
23154W        W91548  34.568  37.091  11.528
23155W        W91549  30.579  18.258  12.575
23156W        W91550   0.901  35.925  10.227
23157W        W91551  31.915  28.476  11.141
23158W        W91552  35.631  13.371  11.698
23159W        W91553  31.349   5.355   1.601
23160W        W91554  23.861   6.627   2.690
23161W        W91555  37.677  19.082  13.975
23162W        W91556  37.067  14.162  14.847
23163W        W91557  14.311  21.313   4.512
23164W        W91558   7.592  34.329  14.489
23165W        W91559  27.474  26.022   3.842
23166W        W91560  30.135  38.611  12.254
23167W        W91561  32.419  39.983   4.351
23168W        W91562  24.507   8.094   2.312
23169W        W91563  17.609  19.574   0.282
23170W        W91564  41.277  43.816  14.536
23171W        W91565  13.044  38.096   1.875
23172W        W91566  23.578   6.412  13.360
23173W        W91567  22.547  43.983   3.260
23174W        W91568  18.562   2.842   2.316
23175W        W91569  37.129  10.219   4.097
23176W        W91570  26.546  26.965   4.840
23177W        W91571  29.665  26.791  12.490
23178W        W91572  11.675   6.626   3.273
23179W        W91573  25.725  10.726   3.365
23180W        W91574  18.551   4.242  10.704
23181W        W91575  40.844  11.219   1.219
23182W        W91576  36.678   9.840  13.482
23183W        W91577   4.782  43.903  14.258
23184W        W91578   6.525   2.441   4.938
23185W        W91579  19.890  35.604   1.123
23186W        W91580  14.288  24.926  10.853
23187W        W91581  11.315   0.950   1.439
23188W        W91582  19.311  31.571  11.019
23189W        W91583  23.529   2.134   0.352
23190W        W91584  39.421  35.648   4.230
23191W        W91585  33.023  24.071   1.649
23192W        W91586  24.470   7.972  12.057
23193W        W91587  38.104  18.650  11.626
23194W        W91588  28.188   0.369  10.758
23195W        W91589  10.628  30.972  13.948
23196W        W91590  27.427  43.680  14.810
23197W        W91591  20.112  21.251   3.087
23198W        W91592  29.709   3.503   2.345
23199W        W91593   1.662   7.900  14.118
23200W        W91594  35.253  41.245   4.359
23201W        W91595  43.871  35.318  13.124
23202W        W91596  10.930  41.307  11.383
23203W        W91597  15.603  15.298   2.843
23204W        W91598  22.406  33.146   0.674
23205W        W91599  42.579  34.262  14.469
23206W        W91600  10.181  18.219  12.101
23207W        W91601  16.947  17.638  13.473
23208W        W91602  29.628   1.882   3.270
23209W        W91603  22.631  40.614   4.574
23210W        W91604  19.069  22.628  10.403
23211W        W91605  21.182  18.333  13.500
23212W        W91606  43.343  29.432  11.498
23213W        W91607  40.521   2.655   2.136
23214W        W91608  43.029  20.776   1.461
23215W        W91609   7.381  26.482   1.496
23216W        W91610  33.379  33.369  13.330
23217W        W91611  19.650  11.867   3.688
23218W        W91612  13.086   2.185   2.204
23219W        W91613  38.458  26.677  13.119
23220W        W91614  39.564  14.460  12.463
23221W        W91615  42.102  23.990   3.440
23222W        W91616  12.754  18.305  13.338
23223W        W91617  12.234  16.689   0.554
23224W        W91618  27.764   7.211  14.908
23225W        W91619  12.514  28.092  11.581
23226W        W91620  38.006  35.563  14.785
23227W        W91621  39.044  29.607  13.469
23228W        W91622  30.090  31.821   1.258
23229W        W91623  15.116   0.780  14.789
23230W        W91624  33.112  16.865   4.697
23231W        W91625  12.876  24.716  13.853
23232W        W91626  15.479  17.227   2.577
23233W        W91627  35.010  12.789   0.964
23234W        W91628  15.031  31.072   2.694
23235W        W91629  13.752  25.749  14.059
23236W        W91630  11.444   2.297  14.577
23237W        W91631   6.435   6.820  12.974
23238W        W91632  18.953   6.488   0.554
23239W        W91633  40.573  24.209  14.349
23240W        W91634   9.809  44.650  11.433
23241W        W91635  39.605  41.766  12.668
23242W        W91636  26.557   5.727  10.723
23243W        W91637  31.856  26.842   0.975
23244W        W91638  41.283  17.564  14.860
23245W        W91639  32.506  19.288   0.789
23246W        W91640  20.094   3.512  11.925
23247W        W91641  22.538  25.134   1.801
23248W        W91642  13.315  11.698  12.417
23249W        W91643  14.869   6.923  11.112
23250W        W91644  41.432   1.372   3.495
23251W        W91645  42.317  37.364   0.826
23252W        W91646  30.003   5.373  13.364
23253W        W91647  22.559  32.388  12.409
23254W        W91648  17.710  40.337   4.617
23255W        W91649  17.462  10.367   0.224
23256W        W91650  16.224  38.443  11.347
23257W        W91651   3.656  35.823  10.642
23258W        W91652  38.753   2.329  10.775
23259W        W91653  10.757   9.229   1.774
23260W        W91654   8.349  34.324  11.904
23261W        W91655   0.726  18.379   1.302
23262W        W91656  13.347  44.817   0.433
23263W        W91657  25.190   5.321  11.169
23264W        W91658   7.573  30.439  10.510
23265W        W91659   7.306   3.361  12.037
23266W        W91660  40.580  43.646  11.187
23267W        W91661  15.044  25.237  14.860
23268W        W91662  21.181  25.453   0.011
23269W        W91663  28.431  33.306  10.779
23270W        W91664  32.941  31.388   2.383
23271W        W91665  15.761  23.228   2.690
23272W        W91666  24.968  29.465  13.493
23273W        W91667  41.284  35.872  12.611
23274W        W91668   9.908   0.467  11.734
23275W        W91669  25.101  24.133   0.560
23276W        W91670   4.045  14.538  10.818
23277W        W91671   1.432   4.936   2.372
23278W        W91672  38.913  41.622  12.007
23279W        W91673  17.177  36.071   1.033
23280W        W91674  21.816  33.346   9.791
23281W        W91675  43.760  34.368  14.102
23282W        W91676  44.314  13.152  11.193
23283W        W91677  37.804  28.642  11.597
23284W        W91678  34.243   7.407  11.667
23285W        W91679   5.353   4.281  11.646
23286W        W91680  22.594  29.656  10.920
23287W        W91681  31.857  25.984  12.696
23288W        W91682  21.150  10.242   3.936
23289W        W91683  10.841  34.481  14.919
23290W        W91684  35.692  41.467   3.415
23291W        W91685   6.036  13.663   3.268
23292W        W91686  12.067  13.637  14.851
23293W        W91687   7.363  42.466   0.445
23294W        W91688  21.812   7.777  11.640
23295W        W91689  29.833  35.316  11.192
23296W        W91690  37.044  17.030   0.470
23297W        W91691  17.537  31.239   2.324
23298W        W91692  33.441  16.504  11.955
23299W        W91693  24.180  42.213  12.622
23300W        W91694   0.504  36.481  11.435
23301W        W91695  38.078  28.137  11.869
23302W        W91696  37.036  41.938   1.582
23303W        W91697   1.003   8.895  14.459
23304W        W91698  10.976  21.194   0.315
23305W        W91699  25.769   1.620  12.652
23306W        W91700   3.263  30.021   3.198
23307W        W91701  32.867  16.914   1.592
23308W        W91702  16.021  26.593   2.539
23309W        W91703  37.179  14.578   4.527
23310W        W91704  20.103   5.706  11.435
23311W        W91705   5.792  28.694  13.987
23312W        W91706   3.970  12.537   4.985
23313W        W91707  16.374  33.168  10.863
23314W        W91708  25.625  39.186  13.843
23315W        W91709  42.232   7.465  11.190
23316W        W91710   1.515  18.836   2.150
23317W        W91711  30.563  34.406  10.733
23318W        W91712  37.507  30.191   3.590
23319W        W91713  42.424  40.434  10.129
23320W        W91714  41.277   3.738   4.134
23321W        W91715   0.597  36.848  10.650
23322W        W91716  34.997  14.927   4.545
23323W        W91717  37.063  28.751  12.009
23324W        W91718  43.410  23.020  11.703
23325W        W91719   5.679  21.017  12.917
23326W        W91720  16.872  14.516   2.060
23327W        W91721  27.707  28.490   2.770
23328W        W91722   8.321  16.229   3.204
23329W        W91723  31.018   6.876  13.837
23330W        W91724  41.315   6.427  14.322
23331W        W91725   3.889  14.045   2.584
23332W        W91726   7.708  16.787  12.198
23333W        W91727  43.396   2.670   1.380
23334W        W91728   9.218  43.731  12.044
23335W        W91729  29.678  32.989  14.968
23336W        W91730  16.807  18.028  14.557
23337W        W91731  37.454  36.131  13.858
23338W        W91732  36.303  14.224   2.633
23339W        W91733  44.542   9.559  14.999
23340W        W91734  19.957   8.617  11.636
23341W        W91735  16.130  29.602   2.440
23342W        W91736  21.472  30.604   4.741
23343W        W91737  32.616  29.175   1.188
23344W        W91738  18.236  30.175   0.899
23345W        W91739   5.254   9.459   1.723
23346W        W91740  17.232  39.593   2.845
23347W        W91741  24.367  38.752   3.242
23348W        W91742   0.274  39.408   3.257
23349W        W91743   4.871  43.096  13.375
23350W        W91744  43.893   5.709  12.379
23351W        W91745  13.515   7.821  12.362
23352W        W91746  31.457  12.196  13.345
23353W        W91747  28.224   3.985  14.013
23354W        W91748   1.710  24.982   1.694
23355W        W91749  34.469  32.022   3.619
23356W        W91750  35.873  44.393  10.648
23357W        W91751  13.347  11.983   3.576
23358W        W91752   2.460  11.338   1.606
23359W        W91753  28.646  42.399  10.226
23360W        W91754   5.008  32.179   2.880
23361W        W91755  15.893  35.155   2.159
23362W        W91756  38.357  29.403   3.216
23363W        W91757  37.799  12.490   2.706
23364W        W91758   7.247   6.750  12.469
23365W        W91759  26.139  38.375   1.227
23366W        W91760  25.693   0.858  14.379
23367W        W91761  22.179   6.209  10.775
23368W        W91762  18.350  10.410  11.064
23369W        W91763   7.211  40.112  12.549
23370W        W91764  16.257  26.410   1.332
23371W        W91765  36.268   9.995  10.026
23372W        W91766  34.513   7.200  12.042
23373W        W91767   8.083  15.627  12.603
23374W        W91768  25.603  13.174   4.080
23375W        W91769   4.405  17.106  13.854
23376W        W91770  20.194  14.536  13.144
23377W        W91771  42.393  41.603  14.854
23378W        W91772   4.745  17.247   2.327
23379W        W91773   1.051  16.754   0.860
23380W        W91774  42.566  25.961  10.769
23381W        W91775  31.119  42.805   0.742
23382W        W91776  22.114   3.037  14.002
23383W        W91777  27.776   5.479   1.592
23384W        W91778  29.105  44.828  13.860
23385W        W91779   6.179  39.993   3.818
23386W        W91780  19.249  22.550   4.123
23387W        W91781  35.037  13.148   1.349
23388W        W91782   2.950  16.152   2.312
23389W        W91783  36.404  34.559   0.434
23390W        W91784  39.354  37.996  12.205
23391W        W91785  39.342  41.979   2.205
23392W        W91786  41.124  39.097   4.152
23393W        W91787  37.427  11.468  10.228
23394W        W91788   7.400   0.042   1.245
23395W        W91789  38.909  21.257  14.987
23396W        W91790   9.949  44.311  11.065
23397W        W91791   7.293  18.982   4.528
23398W        W91792  43.037  24.971  11.166
23399W        W91793   4.573   9.049   3.298
23400W        W91794  17.407  34.523  12.971
23401W        W91795   2.322   8.363   1.775
23402W        W91796  35.994  17.607  11.633
23403W        W91797  12.091  23.525   1.686
23404W        W91798  41.802  10.709   0.396
23405W        W91799   1.519  36.924   1.210
23406W        W91800  40.526  16.694  13.363
23407W        W91801  22.256  13.226   4.561
23408W        W91802  36.876  10.899  11.596
23409W        W91803   7.269  22.855  12.544
23410W        W91804   1.273  23.497  11.037
23411W        W91805   6.834  44.514   3.896
23412W        W91806   6.563  42.270   0.043
23413W        W91807  23.598   1.544  10.566
23414W        W91808  31.936   3.684   3.608
23415W        W91809  33.645   1.384   1.809
23416W        W91810   3.666  35.933  11.754
23417W        W91811  22.850  37.338   0.844
23418W        W91812  15.867  22.850   2.321
23419W        W91813   0.004  29.479   2.778
23420W        W91814  25.528  44.561   0.274
23421W        W91815  18.753  25.858  11.578
23422W        W91816  28.006  35.832  10.927
23423W        W91817   0.697  12.656  13.080
23424W        W91818  17.533  15.769   3.729
23425W        W91819  37.626   7.985  11.352
23426W        W91820  28.431  27.518  11.942
23427W        W91821  22.148  13.264  12.250
23428W        W91822  17.545  44.639   0.712
23429W        W91823  31.960  30.371  13.300
23430W        W91824  10.601   4.190  10.765
23431W        W91825  26.925  21.786  13.050
23432W        W91826  26.479  30.654   0.284
23433W        W91827  10.681  17.857  11.556
23434W        W91828  29.553   8.556   4.492
23435W        W91829  24.098  15.405   1.903
23436W        W91830  33.371  12.445   2.214
23437W        W91831  24.033  39.977  11.434
23438W        W91832  38.514   5.301   0.557
23439W        W91833  20.239  21.607   1.766
23440W        W91834   6.058   1.881   0.042
23441W        W91835  23.751  39.745   4.687
23442W        W91836  12.849   6.502   5.028
23443W        W91837  24.162   8.672   5.089
23444W        W91838  44.085  17.161  11.913
23445W        W91839  27.431   2.070  12.874
23446W        W91840  18.260  41.500  13.022
23447W        W91841  40.783  13.209  10.982
23448W        W91842  39.085  18.340   3.231
23449W        W91843   0.369  23.082  13.864
23450W        W91844  22.442  10.443  10.644
23451W        W91845  21.122  37.559  14.791
23452W        W91846   5.618   1.596  12.061
23453W        W91847  24.578  43.003  12.490
23454W        W91848  34.518  42.026  14.543
23455W        W91849   4.427  12.103   2.404
23456W        W91850  30.456  37.604  10.924
23457W        W91851  22.440  26.225  13.837
23458W        W91852  35.626  20.603  12.232
23459W        W91853  14.197  44.276  14.414
23460W        W91854  41.246  19.234  14.022
23461W        W91855  18.791  11.107  10.743
23462W        W91856  31.929  20.098  10.592
23463W        W91857   6.588   2.737  11.406
23464W        W91858  29.190  17.707   4.341
23465W        W91859  22.266  42.368  14.120
23466W        W91860  37.500  18.044  13.602
23467W        W91861  12.297  14.119  12.444
23468W        W91862  22.780  30.070   4.710
23469W        W91863   3.280  10.374  13.056
23470W        W91864   1.227  20.029  11.612
23471W        W91865   3.692  34.483   3.734
23472W        W91866  24.164  39.992   1.327
23473W        W91867  23.828  12.081   0.768
23474W        W91868  15.105   5.728  11.615
23475W        W91869  30.433  35.981   2.696
23476W        W91870  23.038  25.417  13.146
23477W        W91871  27.748  15.174   0.931
23478W        W91872  33.996   7.256   2.338
23479W        W91873  14.464  30.835  12.967
23480W        W91874  44.804  19.944  14.526
23481W        W91875  24.608  22.831   4.098
23482W        W91876  22.772  19.983  11.974
23483W        W91877  44.645  29.494   0.092
23484W        W91878   6.990   9.409   2.864
23485W        W91879  18.545  24.645  10.696
23486W        W91880  40.823   2.792   0.371
23487W        W91881  39.861  37.539  11.027
23488W        W91882  16.706  32.590   2.877
23489W        W91883  34.150   2.926   4.665
23490W        W91884  10.303   3.331   3.989
23491W        W91885  40.622  44.898   2.654
23492W        W91886  34.525  40.634   1.409
23493W        W91887   4.677  19.054   3.710
23494W        W91888  41.982  31.392   1.999
23495W        W91889   9.225  41.023  11.633
23496W        W91890  42.082  31.291   0.790
23497W        W91891  22.599  36.089   3.018
23498W        W91892  26.627  18.134  12.489
23499W        W91893  14.379  35.112  11.814
23500W        W91894  13.984   8.687  14.895
23501W        W91895   9.765  33.582  12.497
23502W        W91896  15.533  14.872   1.301
23503W        W91897  27.253   8.802   0.413
23504W        W91898  25.735  20.466   4.666
23505W        W91899  38.456   6.271  11.950
23506W        W91900  14.799  18.312   0.228
23507W        W91901  19.859  27.412  11.653
23508W        W91902   3.941   0.001  14.280
23509W        W91903  40.121  30.296   0.376
23510W        W91904  29.141  28.429  11.129
23511W        W91905  29.309   0.344  10.230
23512W        W91906  22.211  43.972  12.505
23513W        W91907  44.847   9.327   3.381
23514W        W91908  30.353  26.496   2.301
23515W        W91909   2.309  18.314  14.548
23516W        W91910   1.463  40.879  13.953
23517W        W91911  18.153  16.306   3.693
23518W        W91912  25.111  17.047   0.114
23519W        W91913  31.197  32.906  13.120
23520W        W91914  19.752  23.019  10.461
23521W        W91915  21.819   4.375  10.377
23522W        W91916   1.769  24.109   5.003
23523W        W91917  37.061  35.353   4.171
23524W        W91918  12.763  35.022   1.186
23525W        W91919  40.299  40.915   1.511
23526W        W91920  29.693   6.359   2.337
23527W        W91921   1.243   9.538  11.066
23528W        W91922  20.427  30.992   3.332
23529W        W91923  44.338  33.175  11.390
23530W        W91924  16.303  33.923  10.718
23531W        W91925  26.551  27.420   4.582
23532W        W91926  12.429  29.018  10.782
23533W        W91927  44.805  21.924  10.673
23534W        W91928   5.373   2.701  11.122
23535W        W91929   1.222  43.843  13.823
23536W        W91930  32.020   8.462  12.968
23537W        W91931   3.891  39.369  10.389
23538W        W91932  34.102   1.767  13.554
23539W        W91933  29.215  25.724  14.925
23540W        W91934   9.114  13.338  13.970
23541W        W91935  30.569   4.954  11.127
23542W        W91936  37.493  28.534   3.333
23543W        W91937   2.505  42.102   4.354
23544W        W91938  33.479  35.223   0.003
23545W        W91939  20.371   2.738   2.664
23546W        W91940  25.229  28.181   4.252
23547W        W91941  17.110   2.276  11.501
23548W        W91942  14.146  44.334   1.482
23549W        W91943  13.862  27.041  11.572
23550W        W91944  26.438  25.572  10.693
23551W        W91945  27.516  42.523   1.494
23552W        W91946  12.430  29.924   0.360
23553W        W91947   4.974   7.312  11.495
23554W        W91948  24.908  27.634   3.282
23555W        W91949  12.904   5.191  14.593
23556W        W91950  16.424  37.538   4.586
23557W        W91951  20.012  13.481   3.252
23558W        W91952  29.664  30.999   4.583
23559W        W91953  36.393   4.963   2.155
23560W        W91954  20.442  43.043  10.770
23561W        W91955  39.971  29.097  13.539
23562W        W91956   8.563  24.962  14.407
23563W        W91957  39.837  11.272   3.186
23564W        W91958   0.928  20.871   0.806
23565W        W91959  42.359  21.462   4.359
23566W        W91960  11.400  22.693   4.131
23567W        W91961   5.892   1.735  13.574
23568W        W91962  11.707  39.944  11.576
23569W        W91963  30.029   0.012  12.889
23570W        W91964  41.029  29.099   3.914
23571W        W91965   5.899  14.794  10.270
23572W        W91966  35.845  39.305  12.537
23573W        W91967  18.022  38.882   2.266
23574W        W91968  36.437  24.779  13.364
23575W        W91969  35.472  23.970  14.360
23576W        W91970  33.117  11.827   1.677
23577W        W91971  31.446  34.549   0.192
23578W        W91972  20.631  12.848  11.210
23579W        W91973  19.365   8.879   1.809
23580W        W91974  31.630  44.066   1.450
23581W        W91975  11.138  28.411  12.684
23582W        W91976  20.629  23.119  14.780
23583W        W91977  34.434  24.786   0.340
23584W        W91978  19.226  44.368  10.165
23585W        W91979  32.696  17.983  12.124
23586W        W91980  13.826   0.767   1.703
23587W        W91981  27.197  39.029   2.412
23588W        W91982  27.088   5.967   1.080
23589W        W91983   3.901  42.001   0.471
23590W        W91984  25.149  37.723   0.961
23591W        W91985  21.577  30.062   1.972
23592W        W91986  28.057  19.587   0.930
23593W        W91987  41.240   6.155  11.207
23594W        W91988   8.609  27.705   0.027
23595W        W91989  31.396   7.091   3.828
23596W        W91990  20.936  24.227  14.008
23597W        W91991  29.082  25.187   4.235
23598W        W91992  11.368   3.268   4.561
23599W        W91993  34.480  12.390   2.682
23600W        W91994  11.681  12.955   1.801
23601W        W91995  40.027   6.466  11.528
23602W        W91996   7.871  37.634  14.905
23603W        W91997  22.755   5.300   3.533
23604W        W91998  41.180  14.532   0.127
23605W        W91999   3.701  11.677  11.512
23606W        W92000  16.764  37.879   2.695
23607W        W92001   9.805  39.773   1.737
23608W        W92002  13.799   4.090   2.641
23609W        W92003  41.958  36.497   3.836
23610W        W92004   0.926  35.478   0.227
23611W        W92005  21.635  12.215   0.443
23612W        W92006   7.885  40.516   0.331
23613W        W92007  17.637   0.517   0.417
23614W        W92008   9.630  37.523   2.407
23615W        W92009  18.868   3.839  10.583
23616W        W92010   5.791  39.648  12.092
23617W        W92011  24.659  12.318  13.489
23618W        W92012   6.493   9.271   2.970
23619W        W92013   2.670  21.157   4.540
23620W        W92014   5.977  39.786   2.452
23621W        W92015  37.045  43.946   3.972
23622W        W92016  15.341  42.759   2.758
23623W        W92017  37.147   9.949  12.581
23624W        W92018  39.898  17.812   0.172
23625W        W92019   6.434   5.831  12.542
23626W        W92020   2.181   8.785  10.795
23627W        W92021  20.248  14.797  13.611
23628W        W92022  38.092  25.673  13.737
23629W        W92023  21.063  20.564   2.275
23630W        W92024  38.357  12.517   4.329
23631W        W92025  38.292  31.440   4.616
23632W        W92026   5.235  11.890   0.513
23633W        W92027   0.234  27.522   4.513
23634W        W92028  18.991  26.932  14.198
23635W        W92029  32.309   8.737  13.477
23636W        W92030  25.022  17.383   3.283
23637W        W92031  24.514  42.199   3.186
23638W        W92032   1.952  36.592   1.200
23639W        W92033   2.167  32.557   4.231
23640W        W92034  41.049   0.215   0.926
23641W        W92035  17.471  16.429   4.567
23642W        W92036  15.045  37.393   1.337
23643W        W92037  14.683   1.959  13.570
23644W        W92038   8.846  29.692  13.924
23645W        W92039   1.776  32.547   1.906
23646W        W92040  10.919  21.523  12.106
23647W        W92041  11.918   9.652  10.634
23648W        W92042  30.035  12.740   3.359
23649W        W92043  30.511  18.741   3.563
23650W        W92044   8.092  27.654   0.045
23651W        W92045  15.146  12.304  13.484
23652W        W92046   3.954  44.729   2.609
23653W        W92047   8.178  12.260  10.750
23654W        W92048  40.979   4.727  12.194
23655W        W92049  35.068   8.797   2.350
23656W        W92050  25.989  19.712   4.193
23657W        W92051   1.746  10.874   3.329
23658W        W92052  11.821  35.925   4.608
23659W        W92053  29.435  27.012   2.737
23660W        W92054  26.979  28.079  11.763
23661W        W92055   1.445  15.558   2.311
23662W        W92056  24.436  43.438   4.925
23663W        W92057   9.320  37.909  14.509
23664W        W92058  12.809  21.391  11.971
23665W        W92059  20.933  35.856   1.422
23666W        W92060  17.576   3.921  12.919
23667W        W92061  40.974  20.569  13.932
23668W        W92062  21.486   7.100  10.795
23669W        W92063  38.188   1.885  12.987
23670W        W92064  39.814  31.271   4.121
23671W        W92065   0.224  19.211  12.513
23672W        W92066   3.845  35.504   3.878
23673W        W92067  31.181  40.995   1.724
23674W        W92068  17.996   6.273   0.293
23675W        W92069  35.453   1.037   4.489
23676W        W92070   2.200  25.532  14.032
23677W        W92071  38.122  21.483   2.833
23678W        W92072  11.700  17.034   3.626
23679W        W92073  13.624  17.396  12.833
23680W        W92074  19.390  37.167  10.218
23681W        W92075  31.805  15.147  14.869
23682W        W92076  21.699  26.967  10.638
23683W        W92077  18.406  27.771  11.212
23684W        W92078   3.951   5.261  11.188
23685W        W92079  10.761   9.033   0.296
23686W        W92080  27.236  22.043  13.403
23687W        W92081  30.175  40.056  10.486
23688W        W92082  24.708  34.918   3.306
23689W        W92083  23.376  21.138   0.404
23690W        W92084  34.291  26.894   2.842
23691W        W92085  39.016  36.044  11.421
23692W        W92086   5.913   0.406   1.978
23693W        W92087  42.303  10.600   0.313
23694W        W92088  40.120  23.188  10.989
23695W        W92089   3.709  16.157  13.868
23696W        W92090   3.175  17.541  12.106
23697W        W92091  15.215  21.709  10.620
23698W        W92092   4.433  40.515   4.172
23699W        W92093   9.897  30.744   4.118
23700W        W92094  38.913  27.706  14.997
23701W        W92095  11.286  12.443   0.969
23702W        W92096   4.477   7.158  13.496
23703W        W92097  19.613  41.499   4.792
23704W        W92098  15.211  38.629  12.921
23705W        W92099   5.712  16.414  14.060
23706W        W92100  25.160   4.908  10.657
23707W        W92101   7.281  19.567  10.587
23708W        W92102  33.489  34.149  11.947
23709W        W92103  42.822  10.143   3.114
23710W        W92104   3.375   8.171  10.793
23711W        W92105   0.982   5.709   4.855
23712W        W92106  22.605  36.419   1.702
23713W        W92107   2.281  35.945  13.017
23714W        W92108  22.283  13.280   3.647
23715W        W92109  21.163  38.289   3.491
23716W        W92110  14.344  25.563   4.283
23717W        W92111  40.046  33.463   4.397
23718W        W92112  10.962  36.922  10.811
23719W        W92113  31.081  25.730  14.572
23720W        W92114  42.657  42.970  13.201
23721W        W92115  13.502  16.545  13.344
23722W        W92116  17.345   1.473  11.116
23723W        W92117  33.360  11.785   4.553
23724W        W92118  32.938  28.053  10.517
23725W        W92119  20.775   9.837  12.580
23726W        W92120   4.364   7.000   2.824
23727W        W92121  19.876   5.335   0.888
23728W        W92122  20.072  14.678   0.864
23729W        W92123  43.879  31.617  12.826
23730W        W92124   0.679   2.995   1.222
23731W        W92125   3.706  41.448   1.842
23732W        W92126   4.162  28.255   0.064
23733W        W92127   5.114  19.322  12.567
23734W        W92128  15.312  20.105  10.731
23735W        W92129  33.855   4.478  11.036
23736W        W92130  14.866   4.639   0.397
23737W        W92131  19.549  27.557   2.471
23738W        W92132  37.870  26.993  12.612
23739W        W92133  31.371  31.485   3.108
23740W        W92134  12.675  26.686  13.336
23741W        W92135  11.878   4.310   4.159
23742W        W92136   1.459  24.045   0.531
23743W        W92137   1.234   8.113  14.319
23744W        W92138  32.973  22.672   3.407
23745W        W92139  13.619  38.546   1.497
23746W        W92140  38.053  26.076   3.321
23747W        W92141  37.333  30.521   0.909
23748W        W92142   2.753  25.966   1.360
23749W        W92143  42.956  14.047  12.550
23750W        W92144  42.025  20.714  10.750
23751W        W92145   3.388  42.449   4.767
23752W        W92146  21.583   1.878   4.605
23753W        W92147  33.111  41.978  12.474
23754W        W92148  42.977   8.402  13.547
23755W        W92149  23.871  18.838  11.315
23756W        W92150  34.838  22.709  14.257
23757W        W92151   6.916  19.034   3.707
23758W        W92152  32.032  32.570   3.600
23759W        W92153  23.607  20.917   1.181
23760W        W92154  13.216  18.943  10.661
23761W        W92155  42.381  35.387  12.379
23762W        W92156  23.420  10.171  12.981
23763W        W92157  36.161  40.389   4.912
23764W        W92158  31.322  29.010  11.598
23765W        W92159  18.836   5.292  14.909
23766W        W92160  25.189  33.358   2.034
23767W        W92161  24.588  29.916   4.298
23768W        W92162  44.299  36.456  12.098
23769W        W92163   9.738  32.318   1.702
23770W        W92164  24.478   3.196   0.200
23771W        W92165   7.246   2.375   0.771
23772W        W92166   9.775   3.154   1.763
23773W        W92167  13.847   8.376   1.644
23774W        W92168   9.163  22.276  14.021
23775W        W92169  25.440   9.685   4.096
23776W        W92170   9.355  16.347   3.679
23777W        W92171  33.157  22.150   3.366
23778W        W92172  15.587  27.462   4.465
23779W        W92173   2.768  23.491   4.583
23780W        W92174  13.819   8.805  13.611
23781W        W92175   2.718   9.134  12.886
23782W        W92176  23.047  43.930   5.017
23783W        W92177  37.919  20.585  10.703
23784W        W92178  34.740  43.720   0.770
23785W        W92179  21.062   5.897  11.465
23786W        W92180  41.106  37.327   3.645
23787W        W92181  35.632  32.575  14.772
23788W        W92182   1.050   0.091   0.678
23789W        W92183  27.664  21.390   4.135
23790W        W92184  22.790  10.764  12.653
23791W        W92185  35.619  18.599   1.264
23792W        W92186  41.271  29.393   0.907
23793W        W92187  29.841  44.654   2.737
23794W        W92188  37.862  26.147   1.670
23795W        W92189  10.559  14.107   4.207
23796W        W92190  19.318   4.711   2.782
23797W        W92191  17.125  22.701   0.770
23798W        W92192  13.839  13.022  12.732
23799W        W92193  37.114  32.498   3.031
23800W        W92194  35.124  10.102   4.151
23801W        W92195  17.855   7.307  12.413
23802W        W92196  40.838   2.946  10.836
23803W        W92197  41.592  25.688  12.505
23804W        W92198  31.046  16.399  12.563
23805W        W92199  19.139  33.663  13.272
23806W        W92200  19.579  31.804   1.129
23807W        W92201  12.214  26.170   1.826
23808W        W92202  43.348  21.680  11.557
23809W        W92203  30.805  39.627   1.196
23810W        W92204  17.607  12.586   3.197
23811W        W92205  41.782   7.974   3.981
23812W        W92206  30.010  42.846  13.403
23813W        W92207   9.178  19.975   3.179
23814W        W92208  13.304  28.301  11.144
23815W        W92209  11.757   5.298  13.169
23816W        W92210  12.728  36.830  11.565
23817W        W92211  21.294  12.853   4.401
23818W        W92212  20.833  31.672   2.229
23819W        W92213  27.991  38.578   2.323
23820W        W92214  43.049  40.515  10.326
23821W        W92215   1.284  10.897   4.706
23822W        W92216  23.108  25.453  12.149
23823W        W92217  29.230  34.794  10.538
23824W        W92218   2.959   4.171   3.998
23825W        W92219   6.339  29.065   4.778
23826W        W92220  23.698  41.078   2.308
23827W        W92221  41.360  30.415  12.623
23828W        W92222  27.165  30.638   0.819
23829W        W92223  10.421  29.076   4.512
23830W        W92224   1.444  28.236   4.441
23831W        W92225  28.525   5.404   1.242
23832W        W92226   3.369  29.685   1.900
23833W        W92227  30.541   3.342  12.832
23834W        W92228  40.707  14.758  12.985
23835W        W92229  13.294   3.481  13.981
23836W        W92230  39.463  27.074  13.843
23837W        W92231   3.914  16.828  10.251
23838W        W92232  40.443  25.648  12.466
23839W        W92233  39.294  31.600   2.988
23840W        W92234  19.751   2.930  14.369
23841W        W92235  29.657  34.804  13.064
23842W        W92236  30.475  21.985  12.106
23843W        W92237  28.534  24.713   0.443
23844W        W92238  40.454   1.276   1.995
23845W        W92239  22.563  23.459  13.489
23846W        W92240  32.838  42.461  12.434
23847W        W92241  25.814  28.422  12.903
23848W        W92242  20.309  44.346  10.835
23849W        W92243  11.695  12.885  12.887
23850W        W92244  11.167  19.548   2.796
23851W        W92245  39.352  20.067   0.398
23852W        W92246  42.997  23.435   3.689
23853W        W92247  17.253  26.686   2.678
23854W        W92248  12.777  19.876   2.738
23855W        W92249   3.847  19.754   0.945
23856W        W92250  19.426  24.704   2.889
23857W        W92251  26.886   3.304  10.775
23858W        W92252  42.477  30.339  12.497
23859W        W92253  11.712  28.512  14.000
23860W        W92254  40.262  15.605  12.946
23861W        W92255  17.141  21.960   1.948
23862W        W92256  30.671  21.677  14.094
23863W        W92257  17.683  10.309   3.647
23864W        W92258  12.806  33.764   1.241
23865W        W92259   5.269  42.584  14.787
23866W        W92260  39.640  37.591  10.456
23867W        W92261  44.022  27.532  13.245
23868W        W92262  30.714  35.155   4.695
23869W        W92263   1.932   9.826   4.407
23870W        W92264  35.027  41.779   3.305
23871W        W92265  32.067  25.059   2.233
23872W        W92266  29.948  20.973  11.614
23873W        W92267  27.783  39.342   4.650
23874W        W92268   1.286  29.922   0.987
23875W        W92269  23.520  25.478   0.837
23876W        W92270  18.366  30.003   2.770
23877W        W92271  15.852  10.605  14.177
23878W        W92272  12.878   0.477  11.657
23879W        W92273  32.958  26.726   5.073
23880W        W92274  14.396  14.388   3.033
23881W        W92275  22.948  26.737  12.451
23882W        W92276  17.742  41.364   0.396
23883W        W92277  26.458  15.270   0.401
23884W        W92278  15.556  14.716  12.658
23885W        W92279  35.468  40.793  14.434
23886W        W92280  28.648  40.350   1.023
23887W        W92281   4.410   8.292   3.239
23888W        W92282  33.576  18.902  13.811
23889W        W92283   5.746  31.399  12.587
23890W        W92284  10.377  12.786   0.755
23891W        W92285   2.237   6.327  10.782
23892W        W92286  10.873  35.495   0.118
23893W        W92287  13.369  43.926   4.595
23894W        W92288   9.225  34.882   2.233
23895W        W92289  42.086   0.069  12.444
23896W        W92290  15.208  43.397   0.222
23897W        W92291   1.710  19.511   4.183
23898W        W92292   9.932  21.688   4.210
23899W        W92293   2.649  21.814  14.354
23900W        W92294  25.940  43.153   2.577
23901W        W92295  27.266  23.328  11.335
23902W        W92296  14.387   9.540  10.969
23903W        W92297  28.965  12.067   3.192
23904W        W92298  30.634  14.067  13.407
23905W        W92299  26.461  15.210  12.784
23906W        W92300  12.206  26.862  11.099
23907W        W92301  28.913  17.362   2.284
23908W        W92302  12.516  21.198  12.444
23909W        W92303   5.269   2.513  14.201
23910W        W92304   3.678  36.109   0.313
23911W        W92305  22.557   3.812   1.248
23912W        W92306  39.906  38.585   1.302
23913W        W92307  34.550   1.860  13.806
23914W        W92308  12.743  39.530  10.538
23915W        W92309   3.498  32.152   2.864
23916W        W92310   7.744   2.583  14.549
23917W        W92311  17.670  26.060  13.545
23918W        W92312  12.289  36.137   4.400
23919W        W92313  32.994  17.285   2.602
23920W        W92314  29.094  39.821   2.309
23921W        W92315  44.047  35.837  12.048
23922W        W92316   9.386  16.653   9.871
23923W        W92317  31.819  11.589   1.303
23924W        W92318  16.668  29.435   3.718
23925W        W92319  20.916  10.817  11.903
23926W        W92320  38.262  39.751   0.095
23927W        W92321  19.323   2.286   3.202
23928W        W92322  37.259   1.051   4.216
23929W        W92323  26.567  33.172   0.459
23930W        W92324  16.787  14.188   1.258
23931W        W92325  21.386  22.816  11.658
23932W        W92326  25.670  13.068  13.012
23933W        W92327  42.291  38.095  10.856
23934W        W92328  24.473  23.221   1.172
23935W        W92329  10.412  34.001  11.697
23936W        W92330  11.831  22.758   1.271
23937W        W92331   0.970  10.158  13.761
23938W        W92332  44.874  13.143  12.459
23939W        W92333  42.355  32.016   1.780
23940W        W92334   8.795  30.572  14.916
23941W        W92335  40.512  21.940  12.983
23942W        W92336  31.160   8.678   2.419
23943W        W92337  15.725  35.088  12.074
23944W        W92338  23.216  18.192   4.138
23945W        W92339  14.746  15.552  12.018
23946W        W92340   7.132   4.421  14.439
23947W        W92341  40.304  32.443  11.563
23948W        W92342   7.268  11.096   4.614
23949W        W92343   7.290  21.547  14.983
23950W        W92344   2.118   3.031   4.290
23951W        W92345  35.613  17.797   3.623
23952W        W92346   7.900  20.676  10.821
23953W        W92347  34.101  41.558   0.434
23954W        W92348  28.758  20.664   0.870
23955W        W92349  33.002   0.258  14.968
23956W        W92350   4.574  29.631  12.905
23957W        W92351  27.371   5.905  13.265
23958W        W92352  33.378  30.392  12.292
23959W        W92353  33.944  28.139   4.199
23960W        W92354  13.627  41.813  11.725
23961W        W92355  32.615  24.681  14.053
23962W        W92356   2.580  44.951   2.300
23963W        W92357  19.635  13.876  11.914
23964W        W92358  31.785  16.695   0.245
23965W        W92359  13.884  20.156   4.327
23966W        W92360  13.772  26.704  10.681
23967W        W92361  16.309  28.857   2.619
23968W        W92362  14.856  32.110  12.506
23969W        W92363  24.500  34.663   1.713
23970W        W92364   6.282  18.979   0.311
23971W        W92365  23.945   4.718  14.254
23972W        W92366   3.492  29.663   2.417
23973W        W92367  44.998  36.419  10.287
23974W        W92368   5.817  12.777   2.791
23975W        W92369  32.250  35.360  14.295
23976W        W92370   9.108  23.555  13.503
23977W        W92371  11.446  35.369  13.913
23978W        W92372  27.395  32.028  10.626
23979W        W92373  34.807   6.076  11.535
23980W        W92374  26.759  40.526   3.181
23981W        W92375  40.718  37.740  11.617
23982W        W92376  21.248  41.439   2.354
23983W        W92377  15.103  44.295   2.875
23984W        W92378  22.789   7.695   4.338
23985W        W92379  15.912  41.299  12.182
23986W        W92380  14.635   2.705  14.327
23987W        W92381   6.375  17.678  14.787
23988W        W92382  35.589  33.511  11.628
23989W        W92383  11.206   6.914   1.759
23990W        W92384  18.643  23.595  14.748
23991W        W92385  20.725   9.416   2.901
23992W        W92386  14.596  29.964   3.089
23993W        W92387  33.760   1.137  12.490
23994W        W92388  30.851  43.346   0.757
23995W        W92389   4.443  19.716   1.820
23996W        W92390  10.850  14.754  13.381
23997W        W92391  11.778   3.868   1.964
23998W        W92392  36.040   4.224   2.385
23999W        W92393  36.089  18.677   4.875
24000W        W92394  12.701  41.771   0.781
24001W        W92395  25.177  23.228  12.978
24002W        W92396  30.698   5.693  13.883
24003W        W92397  18.068  10.058   1.383
24004W        W92398   5.423  31.747   0.619
24005W        W92399  28.210  11.394   2.335
24006W        W92400  12.112  43.274   0.279
24007W        W92401  38.417  17.480   4.607
24008W        W92402   5.922  44.424  12.933
24009W        W92403  28.575  29.555   3.080
24010W        W92404  29.350  23.498  14.300
24011W        W92405   4.900  16.034  11.654
24012W        W92406   4.854  44.827   0.718
24013W        W92407   3.465  23.256   2.175
24014W        W92408  41.986  20.671   1.309
24015W        W92409  14.784  10.353  13.861
24016W        W92410  36.679   3.478  14.350
24017W        W92411   7.736   8.630  11.311
24018W        W92412  31.910   1.014   2.569
24019W        W92413   8.424  12.740   4.544
24020W        W92414  28.512  11.749   4.353
24021W        W92415   0.274  17.483   1.003
24022W        W92416  44.480  40.424  13.099
24023W        W92417  41.461   7.970   2.550
24024W        W92418   8.345   9.604   1.451
24025W        W92419  39.015  36.303   2.292
24026W        W92420  10.630   5.737  13.553
24027W        W92421  35.513  17.332   0.034
24028W        W92422  15.840   2.913  14.197
24029W        W92423  14.181  30.993   4.707
24030W        W92424  41.467   1.842  11.116
24031W        W92425  43.728  38.592  11.628
24032W        W92426  15.593  26.166   4.108
24033W        W92427  28.298   3.400  12.911
24034W        W92428   1.476  28.488   1.715
24035W        W92429  26.745  28.820   2.626
24036W        W92430  43.634  32.579   0.297
24037W        W92431  31.169  42.794   1.261
24038W        W92432  28.631  16.155   0.269
24039W        W92433  18.712  43.473  10.874
24040W        W92434   4.158  19.750  11.451
24041W        W92435  25.518  36.281  12.454
24042W        W92436  27.040  27.564   4.549
24043W        W92437  17.857  43.839  13.035
24044W        W92438  11.135  13.589  12.505
24045W        W92439  26.980  29.907   1.121
24046W        W92440  12.273   7.333   3.244
24047W        W92441  31.179  25.264  13.497
24048W        W92442  27.745  29.565   1.358
24049W        W92443  40.516   1.746   2.234
24050W        W92444  35.350  31.223  12.975
24051W        W92445   0.365  16.405  12.378
24052W        W92446  26.253   9.941   0.820
24053W        W92447  41.979  13.550  10.971
24054W        W92448  38.844  44.326   3.075
24055W        W92449  40.575   2.932  12.963
24056W        W92450  43.060  19.822  13.550
24057W        W92451   0.901  43.878  11.582
24058W        W92452   6.831  22.421   3.848
24059W        W92453   4.063   3.153   0.511
24060W        W92454   8.841   0.286  11.909
24061W        W92455  29.610  44.963  12.134
24062W        W92456  38.660  35.456   3.370
24063W        W92457  13.121  41.873   5.062
24064W        W92458  18.731  24.706   2.223
24065W        W92459  42.559  43.888  12.148
24066W        W92460   5.400  15.402  13.111
24067W        W92461  29.741  12.540  13.022
24068W        W92462   1.747  44.003   0.923
24069W        W92463  44.254   8.814   0.528
24070W        W92464  33.567  26.248   2.212
24071W        W92465  42.531  38.553  10.272
24072W        W92466  30.394  20.406  13.676
24073W        W92467  36.023  29.987   1.923
24074W        W92468  40.210  36.085  10.653
24075W        W92469  23.765   4.787   3.217
24076W        W92470  18.440   6.572   1.825
24077W        W92471  17.759  42.223  11.030
24078W        W92472  32.207  37.190  14.489
24079W        W92473  28.878   2.069  14.897
24080W        W92474   7.147  33.003   2.698
24081W        W92475  26.444  43.312   1.853
24082W        W92476   5.136  29.167   3.207
24083W        W92477  30.400  31.006  14.130
24084W        W92478  11.225  15.334   0.723
24085W        W92479  30.677   7.684   3.855
24086W        W92480  34.837  24.495  13.488
24087W        W92481  39.268  33.655   1.402
24088W        W92482   9.270  43.227   3.707
24089W        W92483  22.548  19.907  10.606
24090W        W92484  22.663   5.418   4.042
24091W        W92485   0.795  30.672   1.983
24092W        W92486  34.861  20.138   1.707
24093W        W92487  38.316   2.295   0.037
24094W        W92488  38.467  41.536   2.558
24095W        W92489  20.697  26.599  14.086
24096W        W92490   3.282  37.938  14.236
24097W        W92491   0.996  29.123  13.326
24098W        W92492  22.091  24.996   0.847
24099W        W92493  21.977  38.269  13.385
24100W        W92494  32.513  36.596   3.688
24101W        W92495  35.521  23.928   1.609
24102W        W92496  11.262   1.464  14.113
24103W        W92497  42.019  18.815  12.516
24104W        W92498  29.437  10.645  13.896
24105W        W92499  17.197  33.133   1.949
24106W        W92500  30.940  44.531  12.022
24107W        W92501  23.632   5.442   2.382
24108W        W92502   2.998  23.052   0.426
24109W        W92503  37.415   7.720  13.857
24110W        W92504  24.751  21.143  12.144
24111W        W92505  44.885  20.012   1.100
24112W        W92506  41.197  33.432   3.586
24113W        W92507   6.687  44.035  12.057
24114W        W92508  41.149   1.344  11.189
24115W        W92509  32.155  35.022   0.472
24116W        W92510  29.770   2.134   4.219
24117W        W92511  42.100  28.993  11.220
24118W        W92512  24.161  30.927  14.275
24119W        W92513  44.520  18.776  14.983
24120W        W92514   8.864   7.481   3.758
24121W        W92515  33.377  23.655  10.574
24122W        W92516  18.849  35.434  12.849
24123W        W92517  31.060  34.938   2.303
24124W        W92518  12.555  36.424   3.352
24125W        W92519  29.023  30.035  11.180
24126W        W92520  14.549  32.558  11.617
24127W        W92521  30.515   6.210   3.590
24128W        W92522   2.222  12.340  11.475
24129W        W92523  36.280  17.730  14.715
24130W        W92524  18.557   2.734   1.012
24131W        W92525   5.148  10.948   1.807
24132W        W92526  16.062  11.823   2.314
24133W        W92527   8.942  35.062   0.737
24134W        W92528  32.399  20.597   0.453
24135W        W92529   9.120  12.801  12.402
24136W        W92530  40.871  23.625   0.413
24137W        W92531  10.301  42.633   2.236
24138W        W92532  21.741  14.726   2.372
24139W        W92533  42.940  41.356   2.828
24140W        W92534  34.130   1.255   0.466
24141W        W92535  39.481  31.830  10.628
24142W        W92536   3.875  31.106   0.496
24143W        W92537  21.773  18.636  10.417
24144W        W92538  38.400  18.503   4.728
24145W        W92539  41.246  22.191   3.450
24146W        W92540  44.243  39.530  13.898
24147W        W92541  11.622  41.531  10.791
24148W        W92542  24.047  20.709  11.626
24149W        W92543   1.416  39.621   1.596
24150W        W92544  33.587  17.268  14.504
24151W        W92545   8.603  33.859  11.230
24152W        W92546   0.357   1.274  14.204
24153W        W92547  20.168  19.597  10.661
24154W        W92548  13.544  18.357   1.956
24155W        W92549  37.409  12.787  11.222
24156W        W92550  24.793  42.644   1.708
24157W        W92551  31.008  33.580   1.928
24158W        W92552  31.414  42.473  13.576
24159W        W92553  14.368  19.770  12.456
24160W        W92554  10.741  34.790   2.657
24161W        W92555  34.973  21.707  10.806
24162W        W92556  40.549   1.738  11.671
24163W        W92557   5.131   9.769   3.236
24164W        W92558   4.444   3.125   4.573
24165W        W92559   3.038   6.263   0.961
24166W        W92560  14.943  36.183  12.974
24167W        W92561  11.104   1.967   1.377
24168W        W92562   9.742  20.155  14.300
24169W        W92563  15.790  29.531   4.214
24170W        W92564  13.898   9.569  14.885
24171W        W92565   8.236  13.559   2.783
24172W        W92566  40.393  35.888  13.554
24173W        W92567   0.394  23.801   1.308
24174W        W92568   7.241  22.346  12.479
24175W        W92569  43.060  18.862   2.773
24176W        W92570  22.745  33.501   0.300
24177W        W92571  12.345   5.863   2.802
24178W        W92572  34.086   1.515   0.901
24179W        W92573  29.490  22.416  14.028
24180W        W92574  21.806  40.340  14.449
24181W        W92575  10.158  28.180  14.279
24182W        W92576   2.122  31.424   0.408
24183W        W92577  11.845  17.171  14.338
24184W        W92578   9.243  14.056   1.705
24185W        W92579  29.287  30.678   4.313
24186W        W92580  28.980   5.453  14.979
24187W        W92581  44.872  41.145  11.619
24188W        W92582   4.936  42.223  13.130
24189W        W92583  11.260  21.170  14.817
24190W        W92584  22.661   4.436  12.858
24191W        W92585  13.348  28.892  10.322
24192W        W92586  29.184   4.394   0.347
24193W        W92587   7.943  16.560   0.204
24194W        W92588   1.329   8.355   1.899
24195W        W92589  35.836   5.665  12.887
24196W        W92590  12.371  44.091   4.595
24197W        W92591  30.257  25.591  11.552
24198W        W92592  20.569  23.282   4.351
24199W        W92593  38.537  12.689  14.341
24200W        W92594   7.849  25.431  14.824
24201W        W92595  26.558  13.704  11.256
24202W        W92596  23.253  14.122  10.759
24203W        W92597  44.597  24.995  10.223
24204W        W92598  39.838  35.118  12.915
24205W        W92599  36.369  35.168   3.250
24206W        W92600  18.885  28.590  14.891
24207W        W92601  25.852  33.771  14.399
24208W        W92602  15.116  16.747   0.796
24209W        W92603   9.973  38.300   1.348
24210W        W92604  27.195  19.224   4.481
24211W        W92605  35.827  15.341  12.084
24212W        W92606  34.391  19.130   1.189
24213W        W92607  34.083  29.767   4.075
24214W        W92608  40.883   5.813  13.030
24215W        W92609  11.756   0.875   0.110
24216W        W92610  27.017  30.833  11.474
24217W        W92611  24.115  15.847   0.664
24218W        W92612  44.301  34.264   9.965
24219W        W92613   3.347  37.498  14.562
24220W        W92614   2.282  25.765   2.889
24221W        W92615  33.119  31.638  12.044
24222W        W92616  35.358  27.985  13.961
24223W        W92617   7.597  34.066  11.236
24224W        W92618  14.633  39.902  13.974
24225W        W92619  35.900  17.247   3.515
24226W        W92620   9.692  41.502  11.858
24227W        W92621  40.277  37.372  14.277
24228W        W92622   1.692   1.986   4.643
24229W        W92623  25.620   9.437  14.744
24230W        W92624  38.614  17.843  11.266
24231W        W92625  12.210  24.967   2.291
24232W        W92626  39.582  22.995   4.446
24233W        W92627   4.794  44.777   1.636
24234W        W92628  27.893   4.395  13.895
24235W        W92629   2.261  40.494   1.926
24236W        W92630  44.433  17.004  12.575
24237W        W92631  11.672  33.165  12.940
24238W        W92632  30.620   7.098   0.408
24239W        W92633  11.211  30.100  14.931
24240W        W92634  17.648   3.988  14.367
24241W        W92635   4.873  25.482  11.830
24242W        W92636  30.379  36.335  12.525
24243W        W92637  14.394  30.110  11.042
24244W        W92638  28.284   7.217   4.998
24245W        W92639  34.998  18.610  10.682
24246W        W92640   3.431  31.580  14.478
24247W        W92641  44.820  23.287   4.305
24248W        W92642  12.809   3.680  10.334
24249W        W92643  28.915  44.432  12.161
24250W        W92644  25.214  35.629  11.454
24251W        W92645  29.907  34.111   4.133
24252W        W92646  43.060   5.962  13.542
24253W        W92647  25.053  22.107  13.052
24254W        W92648  42.989  31.264  12.490
24255W        W92649  26.024   0.022   1.378
24256W        W92650  28.562  37.483   1.823
24257W        W92651  15.648  32.060   3.250
24258W        W92652  22.600  16.569  13.060
24259W        W92653  31.121  36.172  13.954
24260W        W92654  37.881  40.754   3.978
24261W        W92655  31.313  32.554   1.277
24262W        W92656  34.881  27.569  10.670
24263W        W92657  13.072  32.876   0.789
24264W        W92658  14.701  23.713  13.798
24265W        W92659   3.468   8.348  12.024
24266W        W92660  29.003  11.062   0.790
24267W        W92661   0.285  37.554  10.068
24268W        W92662   5.799   3.419   2.203
24269W        W92663  17.789   2.720   1.840
24270W        W92664  12.453  40.498   3.844
24271W        W92665  20.444   8.831  11.630
24272W        W92666   8.758  13.541  11.042
24273W        W92667  11.190  23.474   2.592
24274W        W92668   6.672  34.107   2.765
24275W        W92669  34.089  17.220  14.578
24276W        W92670  10.904  27.533   0.821
24277W        W92671   4.757  15.800   1.211
24278W        W92672  21.198  36.472   0.807
24279W        W92673  16.492  28.229  11.922
24280W        W92674  15.552  21.468   3.216
24281W        W92675  35.302  17.810   4.061
24282W        W92676   3.970  24.099   0.791
24283W        W92677  30.471  17.303   3.620
24284W        W92678  44.383  44.553  12.824
24285W        W92679  27.981  43.266   2.715
24286W        W92680  13.803  35.027  13.131
24287W        W92681   6.759  19.766   0.257
24288W        W92682  13.585   5.337   2.841
24289W        W92683  34.204   0.383  12.957
24290W        W92684  12.858  41.109   3.213
24291W        W92685  19.676   2.332   4.491
24292W        W92686   9.273  42.984  10.806
24293W        W92687  14.198  39.780  11.486
24294W        W92688  14.905  21.044  13.497
24295W        W92689  19.788   6.956   3.528
24296W        W92690   2.005  42.844   4.640
24297W        W92691  38.851   6.506   0.421
24298W        W92692   9.200  11.283   3.541
24299W        W92693  39.965  23.411   2.185
24300W        W92694   5.350  38.450   2.883
24301W        W92695  35.457   9.536  12.893
24302W        W92696   0.020  15.753   4.078
24303W        W92697  17.534  20.654   1.299
24304W        W92698  29.020  15.816   0.822
24305W        W92699  11.907  33.863   0.723
24306W        W92700  31.585  37.269  11.108
24307W        W92701  26.675  18.735  12.054
24308W        W92702  31.184   2.895   3.489
24309W        W92703  15.369   1.367  14.272
24310W        W92704   7.482  12.619   3.573
24311W        W92705   4.378  16.614   1.412
24312W        W92706  14.790  13.701  12.088
24313W        W92707  36.072  26.991  10.655
24314W        W92708   2.418  40.085  14.354
24315W        W92709  25.964  17.081  14.439
24316W        W92710   1.208  23.633   2.544
24317W        W92711  13.730  40.575   4.164
24318W        W92712  43.877  30.086   1.450
24319W        W92713  42.680  20.642   0.224
24320W        W92714  21.322  16.241   3.213
24321W        W92715  40.218   9.808  14.449
24322W        W92716  29.281   4.744  13.509
24323W        W92717  34.087   0.354   2.721
24324W        W92718  22.528  37.352   3.912
24325W        W92719  15.317  30.576  12.912
24326W        W92720  31.530  13.204  13.898
24327W        W92721   4.986  29.692   1.402
24328W        W92722  41.847  32.529  12.909
24329W        W92723  44.331  21.454  13.829
24330W        W92724  28.993  32.549  14.044
24331W        W92725   7.782  23.071   3.065
24332W        W92726  32.111   8.574   4.685
24333W        W92727  27.823  37.546  11.652
24334W        W92728  42.881  33.273   1.908
24335W        W92729  24.313  25.219  14.052
24336W        W92730  19.541   7.200   1.089
24337W        W92731   6.917  30.649   1.772
24338W        W92732  35.456  17.351   3.804
24339W        W92733  38.415  24.040  10.846
24340W        W92734   7.464   5.105  13.159
24341W        W92735  12.381  14.404   2.187
24342W        W92736  30.066  16.650   0.035
24343W        W92737  32.893  40.021  13.071
24344W        W92738  21.629  41.041  11.295
24345W        W92739  24.474  25.364  10.663
24346W        W92740  31.449  21.728   0.375
24347W        W92741  28.496  15.701   3.615
24348W        W92742   9.313   3.387   0.482
24349W        W92743  10.889  40.033  11.813
24350W        W92744   0.615  20.552   4.128
24351W        W92745  43.455  27.611  11.945
24352W        W92746  30.284  16.835  12.199
24353W        W92747  25.566  24.767   4.842
24354W        W92748  29.552  37.744   2.817
24355W        W92749  14.167  32.727   1.076
24356W        W92750  11.870  11.759  13.284
24357W        W92751   8.721   9.908  14.999
24358W        W92752  43.027  10.083   0.426
24359W        W92753  29.047   7.927  13.844
24360W        W92754  11.890  24.007   4.558
24361W        W92755   0.968  39.578  12.620
24362W        W92756  38.644  34.348   1.247
24363W        W92757  13.245  10.889  13.918
24364W        W92758  17.768  11.531   2.350
24365W        W92759  31.194  13.302  14.483
24366W        W92760  37.027  21.581   2.245
24367W        W92761  12.921  26.483   0.708
24368W        W92762   3.959  35.026  12.943
24369W        W92763  37.299  19.172   2.779
24370W        W92764  26.156  17.510   1.196
24371W        W92765  14.285  36.003   0.807
24372W        W92766  20.682   4.269  11.403
24373W        W92767  23.684  19.197   3.718
24374W        W92768   9.040  16.429  12.281
24375W        W92769  42.045   6.842   2.726
24376W        W92770  28.976  38.346   4.551
24377W        W92771  17.787  27.887   1.519
24378W        W92772  33.858  15.876  10.101
24379W        W92773  13.365  14.129  13.451
24380W        W92774   6.726  23.405   4.530
24381W        W92775  25.947  42.407  14.517
24382W        W92776  27.057  35.142   4.885
24383W        W92777   5.674  24.467   3.737
24384W        W92778   4.387  21.228  14.878
24385W        W92779   2.507  23.230  13.977
24386W        W92780  27.170  15.657  10.592
24387W        W92781  20.917  15.018   3.757
24388W        W92782   9.728  33.571  14.590
24389W        W92783  26.236  41.248  11.866
24390W        W92784  10.561  36.047   1.855
24391W        W92785  20.214   7.355   2.438
24392W        W92786  41.323   4.658   0.745
24393W        W92787  39.271   0.366  10.709
24394W        W92788  44.504   4.850   2.154
24395W        W92789   8.661  42.676  14.930
24396W        W92790  13.807  21.035  14.912
24397W        W92791  23.159  14.658  13.429
24398W        W92792   8.155  35.128   4.171
24399W        W92793  17.578   9.329  14.063
24400W        W92794   4.140  41.526  13.946
24401W        W92795  23.030  42.589   0.515
24402W        W92796  19.589  10.175   0.693
24403W        W92797  23.510   1.306   2.652
24404W        W92798  18.257  15.534  12.487
24405W        W92799  36.897  11.133   2.808
24406W        W92800  28.864  23.017   4.579
24407W        W92801  37.553   7.708  12.312
24408W        W92802  17.147  43.354  11.957
24409W        W92803  35.807  19.437  12.613
24410W        W92804  13.601  39.908   1.902
24411W        W92805  13.318  29.049   1.712
24412W        W92806  13.703  35.380  13.921
24413W        W92807  30.672   3.088  11.412
24414W        W92808  19.553   3.273  13.504
24415W        W92809  39.358  38.871   1.040
24416W        W92810  13.300   1.471   4.040
24417W        W92811   8.280   9.333   1.890
24418W        W92812  17.063  20.792  13.897
24419W        W92813  32.969  38.501   3.680
24420W        W92814  34.347   4.452   2.313
24421W        W92815  14.169  27.270  14.336
24422W        W92816  11.658  12.130   9.995
24423W        W92817  43.373  14.312  13.043
24424W        W92818  44.729  41.530   2.666
24425W        W92819  18.827   5.054   1.377
24426W        W92820   9.233  37.351  11.087
24427W        W92821  18.629   1.628  13.279
24428W        W92822   0.481  23.450  12.282
24429W        W92823  38.538  22.923  10.279
24430W        W92824   0.017  19.321  13.833
24431W        W92825  30.134  24.145  14.697
24432W        W92826  10.855  22.743   4.588
24433W        W92827   2.665  27.128  12.661
24434W        W92828  34.617  42.532  12.897
24435W        W92829  33.082  39.428   3.295
24436W        W92830  20.283  28.090   1.345
24437W        W92831  42.254  15.038   3.828
24438W        W92832  24.886  12.433  10.307
24439W        W92833  18.742  32.817   4.766
24440W        W92834  36.807  38.458   1.832
24441W        W92835  43.428  18.945   4.957
24442W        W92836  26.586  23.768   2.265
24443W        W92837  14.014  11.782  14.510
24444W        W92838  24.178  24.847  12.062
24445W        W92839  34.831  40.885  12.416
24446W        W92840  15.279  10.862  12.529
24447W        W92841  15.306  34.615  14.282
24448W        W92842  33.785   6.901   3.288
24449W        W92843  18.047   8.469  14.819
24450W        W92844   0.927   6.687   3.748
24451W        W92845  40.359  31.798  13.983
24452W        W92846  34.393  41.114   2.318
24453W        W92847  40.633   3.353   0.695
24454W        W92848  14.224  20.641  11.239
24455W        W92849   9.485   3.594   4.146
24456W        W92850   8.379  27.986  13.383
24457W        W92851  14.541  27.151  12.159
24458W        W92852  25.260   2.674  14.274
24459W        W92853   6.711   0.588  11.723
24460W        W92854   6.723  39.273   4.209
24461W        W92855  36.520  24.454  11.642
24462W        W92856  15.831   9.865   4.982
24463W        W92857  26.071  34.860   1.810
24464W        W92858  34.057  44.286   2.100
24465W        W92859   6.273  36.295   4.661
24466W        W92860  40.632  43.364   4.758
24467W        W92861   4.443   6.358   2.025
24468W        W92862   1.904  29.202   2.374
24469W        W92863  22.311  17.364  13.361
24470W        W92864  16.201  24.153   2.366
24471W        W92865   4.823  42.371  11.588
24472W        W92866  25.270  16.999   3.744
24473W        W92867  33.847   6.325   4.661
24474W        W92868   0.671  35.978  10.698
24475W        W92869  40.259  16.041  11.036
24476W        W92870  21.480   8.769  11.444
24477W        W92871   8.918  36.862  12.931
24478W        W92872  34.919  20.214   3.059
24479W        W92873  33.355   1.787  12.107
24480W        W92874  25.678  12.285  10.918
24481W        W92875   4.698  25.072  11.538
24482W        W92876  10.577  43.013   1.784
24483W        W92877   2.989  24.403   1.360
24484W        W92878   5.912  14.297   2.914
24485W        W92879  39.530   8.972  12.958
24486W        W92880  41.701  36.678  11.125
24487W        W92881   3.215  30.487  12.135
24488W        W92882  30.538  18.463   0.871
24489W        W92883  18.255  10.593  12.134
24490W        W92884  12.833   6.439   3.270
24491W        W92885   4.714  35.566   2.935
24492W        W92886  26.566  27.398  14.518
24493W        W92887   1.790  18.219   4.200
24494W        W92888  20.240  16.632  14.761
24495W        W92889   1.955  40.502   1.477
24496W        W92890   6.246  27.516   4.923
24497W        W92891  26.864   8.646   4.157
24498W        W92892  16.623  13.818  11.635
24499W        W92893  11.637  26.515  11.690
24500W        W92894  32.579  28.673  12.558
24501W        W92895  24.633  23.626  10.660
24502W        W92896  17.099  39.334   0.959
24503W        W92897   2.334  31.367   2.603
24504W        W92898  42.795   0.992  14.024
24505W        W92899  13.971  38.966  14.781
24506W        W92900  30.190  13.763   2.434
24507W        W92901  32.604  40.889  10.746
24508W        W92902  42.253   4.541   1.803
24509W        W92903  21.604  23.771   2.666
24510W        W92904  32.347  20.098   3.224
24511W        W92905  41.233  24.483   4.151
24512W        W92906  37.273  14.172   2.249
24513W        W92907  13.992  17.018   1.152
24514W        W92908  18.192  38.139  11.998
24515W        W92909  13.042  41.282  10.656
24516W        W92910  19.102  21.269   2.250
24517W        W92911  15.935  33.688  11.088
24518W        W92912  32.862  10.837  13.344
24519W        W92913  11.141   4.147  12.423
24520W        W92914   1.722  30.596  13.577
24521W        W92915  37.635  44.557  13.961
24522W        W92916  25.181  26.941   1.949
24523W        W92917  23.307  18.008  13.905
24524W        W92918   4.543  15.229   3.247
24525W        W92919  30.668  35.847  14.089
24526W        W92920   1.934  29.018  11.114
24527W        W92921   9.721  39.564  14.839
24528W        W92922  40.843  16.825   4.055
24529W        W92923  40.664  35.936   0.873
24530W        W92924  32.563  37.401   2.413
24531W        W92925  32.899   6.589  12.372
24532W        W92926  25.286  10.319  10.960
24533W        W92927  33.908  34.875  14.008
24534W        W92928  14.309   3.691  12.623
24535W        W92929  20.898   7.190   4.037
24536W        W92930  26.575  22.740   4.610
24537W        W92931  35.550  20.024   1.105
24538W        W92932  40.406   4.678  13.337
24539W        W92933  12.890  22.651   5.161
24540W        W92934  20.632  34.903   1.205
24541W        W92935  39.548  28.635  11.872
24542W        W92936  17.856  30.038   0.472
24543W        W92937   4.039  30.991   0.988
24544W        W92938  11.597   0.275   2.999
24545W        W92939  20.564  19.134  10.581
24546W        W92940  10.727  28.875  13.384
24547W        W92941  12.203   1.652  12.975
24548W        W92942  26.934  33.234  13.336
24549W        W92943   7.423   2.301  10.504
24550W        W92944  22.472  38.013  11.602
24551W        W92945  16.669  26.483  10.198
24552W        W92946  31.314  11.770   0.709
24553W        W92947  25.661  44.321   1.857
24554W        W92948  12.318  30.509   0.568
24555W        W92949  18.059  38.090   2.635
24556W        W92950  43.488  40.145   0.175
24557W        W92951  30.359  18.720   5.045
24558W        W92952  17.109  43.383   2.969
24559W        W92953   5.125  37.453   3.813
24560W        W92954  38.464   5.319   4.651
24561W        W92955   6.094  31.113   2.795
24562W        W92956  37.946  10.337  10.179
24563W        W92957  29.364   6.574  10.722
24564W        W92958  24.286  31.994   5.062
24565W        W92959   1.649  42.608  13.023
24566W        W92960  18.891   9.736  13.401
24567W        W92961  37.966  30.042   3.384
24568W        W92962  12.825   7.987   0.348
24569W        W92963  10.630  27.079   0.946
24570W        W92964  36.056  19.459   4.183
24571W        W92965   5.401  21.201  11.270
24572W        W92966  15.617  40.347   1.105
24573W        W92967  17.487  33.342   3.407
24574W        W92968  20.025   3.946  12.876
24575W        W92969  24.029  24.118   2.495
24576W        W92970  27.091  33.950  13.635
24577W        W92971  17.755  42.350  11.945
24578W        W92972  21.434  14.668   4.643
24579W        W92973   7.363   5.128   2.224
24580W        W92974  16.314  10.738   2.331
24581W        W92975  18.133  43.246   4.485
24582W        W92976  11.104  44.962  11.729
24583W        W92977  40.232  15.979  13.961
24584W        W92978   5.818  41.101  12.027
24585W        W92979   2.711  20.670   0.395
24586W        W92980  34.374  11.339  12.608
24587W        W92981  36.442   8.741  11.511
24588W        W92982  15.210  15.930  12.422
24589W        W92983  10.137  35.869   0.037
24590W        W92984  44.572   8.494  10.601
24591W        W92985  24.105  26.684   1.272
24592W        W92986  40.681  11.051   1.676
24593W        W92987  26.615  18.357  11.144
24594W        W92988  19.310  11.198   4.710
24595W        W92989  37.109   4.875  10.075
24596W        W92990  10.934   5.876  13.154
24597W        W92991  43.346  28.890  14.898
24598W        W92992  17.182  42.543   5.013
24599W        W92993  31.548  10.699   0.847
24600W        W92994  34.159   0.001   1.374
24601W        W92995   9.362  16.139  14.410
24602W        W92996  25.493  25.695  13.976
24603W        W92997  13.078  40.066  11.887
24604W        W92998  38.332  19.066   4.584
24605W        W92999   4.145  38.597  12.539
24606W        W93000  10.235   2.104  12.774
24607W        W93001  36.481  19.874  12.985
24608W        W93002  29.134  38.066   2.738
24609W        W93003   9.298  28.962  12.412
24610W        W93004  19.214  20.267   4.405
24611W        W93005  20.665  39.878  14.829
24612W        W93006  14.720  37.596  10.196
24613W        W93007   7.101  27.431   3.283
24614W        W93008  21.173   2.112  11.612
24615W        W93009  36.378  43.842  14.251
24616W        W93010   4.388   6.462   2.805
24617W        W93011  18.747  15.053   1.327
24618W        W93012  16.668  27.944   3.728
24619W        W93013  15.046  16.676   3.206
24620W        W93014  38.389  31.629  11.526
24621W        W93015  13.551  32.544  11.611
24622W        W93016  15.279  19.695   3.460
24623W        W93017   5.466  22.446  10.289
24624W        W93018  21.960  27.402  10.645
24625W        W93019  42.706  40.615  13.043
24626W        W93020  39.828   1.900   1.481
24627W        W93021  15.793  17.474  14.022
24628W        W93022  22.405  18.599  13.001
24629W        W93023  24.607  36.795  12.593
24630W        W93024  44.868  20.246   2.132
24631W        W93025  20.313  43.474   1.294
24632W        W93026  39.385  10.609   4.850
24633W        W93027  21.209  40.012   1.827
24634W        W93028  31.395  31.717  13.390
24635W        W93029  16.300  26.723   4.133
24636W        W93030  19.664  12.130   2.399
24637W        W93031  39.177  41.662   9.872
24638W        W93032  32.716  35.807  10.703
24639W        W93033  38.091   3.377  11.994
24640W        W93034  39.948  33.480  10.652
24641W        W93035  30.485  28.728   2.931
24642W        W93036  26.557  34.257  13.452
24643W        W93037  36.518  23.466  11.555
24644W        W93038   0.276  11.145  14.886
24645W        W93039  27.939  18.633  12.520
24646W        W93040  28.008  34.052   2.374
24647W        W93041  35.983   8.393  10.943
24648W        W93042  36.857  29.219  14.442
24649W        W93043   5.042  42.971  14.495
24650W        W93044  44.517  10.799   3.757
24651W        W93045  40.954   5.003   4.115
24652W        W93046  41.028  14.970  10.786
24653W        W93047  41.414   5.821  13.027
24654W        W93048   6.343   9.151   2.097
24655W        W93049  36.070  31.884   2.344
24656W        W93050  19.792  29.858   3.706
24657W        W93051  11.013  23.787  11.148
24658W        W93052  11.805  21.211  12.951
24659W        W93053  12.679  36.019   3.023
24660W        W93054  44.863  39.794   3.585
24661W        W93055  18.346  23.235  13.895
24662W        W93056  37.841   6.286  12.032
24663W        W93057  40.210  43.777   3.784
24664W        W93058  32.512  26.028  11.554
24665W        W93059  41.496  28.447   3.121
24666W        W93060  31.096  18.571   4.550
24667W        W93061  21.444  13.142  11.014
24668W        W93062  18.557  44.797  10.694
24669W        W93063   3.555   7.313  11.185
24670W        W93064  11.531   7.329  11.606
24671W        W93065  32.120  18.519  11.151
24672W        W93066  43.048  15.838  13.837
24673W        W93067  13.077  25.026  14.351
24674W        W93068   0.772  24.014   2.724
24675W        W93069  34.511  30.508   1.533
24676W        W93070  15.560  33.579  13.893
24677W        W93071   2.713  42.016  10.716
24678W        W93072  38.859   5.519  13.538
24679W        W93073  44.478   4.375  14.556
24680W        W93074  39.554  26.950  12.434
24681W        W93075  24.227  23.081   2.095
24682W        W93076  32.926  25.758  11.641
24683W        W93077  17.618  19.216  13.851
24684W        W93078  29.958  34.729  12.028
24685W        W93079  14.101   8.499  12.187
24686W        W93080  38.996  11.333  12.095
24687W        W93081  12.455  33.046   2.050
24688W        W93082   0.931  38.735   0.516
24689W        W93083  15.810  39.880  11.653
24690W        W93084   6.526  27.059   4.994
24691W        W93085  37.097   5.104   1.334
24692W        W93086  41.850  15.981  12.489
24693W        W93087  18.939  40.808  12.026
24694W        W93088  17.581  28.410   0.847
24695W        W93089  20.063  19.362   5.110
24696W        W93090   2.247  15.669  10.426
24697W        W93091  23.521  33.438   1.353
24698W        W93092  33.901  14.113   2.415
24699W        W93093  42.872  29.034  13.995
24700W        W93094  12.044  10.701   0.274
24701W        W93095   3.362  40.418   0.520
24702W        W93096   2.347  16.616  14.856
24703W        W93097  11.432  26.064   1.079
24704W        W93098  36.116  36.677   5.105
24705W        W93099  42.276  10.986  13.018
24706W        W93100   3.352  40.960   2.302
24707W        W93101  43.288  30.067  12.074
24708W        W93102  24.924  20.440   1.968
24709W        W93103  11.881  23.184  13.795
24710W        W93104  40.842  14.675   0.494
24711W        W93105  38.600  31.554  13.529
24712W        W93106  28.326  21.659   1.719
24713W        W93107  28.924  14.652  13.365
24714W        W93108   9.061  19.519  14.006
24715W        W93109  22.604  24.123   2.925
24716W        W93110  19.357  15.648  13.255
24717W        W93111   4.807  41.382   3.727
24718W        W93112  28.957   2.358   3.701
24719W        W93113  10.154  28.097  13.778
24720W        W93114  43.011  30.229  12.490
24721W        W93115  22.597  14.819  14.367
24722W        W93116  32.296  22.381   1.818
24723W        W93117  21.709  30.195   3.798
24724W        W93118  44.053  10.235   0.353
24725W        W93119  20.089   9.643  11.529
24726W        W93120  40.365  11.667  13.651
24727W        W93121  32.042  14.395  14.985
24728W        W93122   8.065  41.104   3.139
24729W        W93123  35.380   4.516   2.240
24730W        W93124  23.352  43.227  12.137
24731W        W93125  11.610  27.649  10.671
24732W        W93126   6.599  10.116  12.060
24733W        W93127   8.936   5.917  10.781
24734W        W93128  43.915  23.418  11.009
24735W        W93129   4.314  17.108   1.238
24736W        W93130   4.725  29.135  13.900
24737W        W93131  28.928   6.771  13.117
24738W        W93132  38.100  40.184   0.467
24739W        W93133  34.449  23.939   2.112
24740W        W93134   1.395  19.382   4.772
24741W        W93135  26.739   1.754   4.434
24742W        W93136  11.727  35.246   2.782
24743W        W93137  31.911   0.914  10.914
24744W        W93138  32.825  21.659   1.631
24745W        W93139  41.916  17.095   4.564
24746W        W93140  28.706  34.018   4.526
24747W        W93141   2.344  12.166   0.225
24748W        W93142  17.734  26.579   2.865
24749W        W93143   8.865  39.526   4.751
24750W        W93144  44.448   2.394  13.417
24751W        W93145  30.103  10.680   0.585
24752W        W93146  34.423   2.564  13.280
24753W        W93147  28.989  44.960  10.751
24754W        W93148   7.800  30.991   4.791
24755W        W93149  25.109  14.239  12.096
24756W        W93150  11.175  26.713   1.193
24757W        W93151   3.973   2.812  14.029
24758W        W93152   3.739  27.096  11.141
24759W        W93153  25.519  37.794  12.572
24760W        W93154  16.261  10.087  11.608
24761W        W93155  11.566  41.800   4.641
24762W        W93156  16.016   3.227   3.010
24763W        W93157   4.670  21.645  12.510
24764W        W93158  27.736  38.512   4.145
24765W        W93159  39.950  28.342  11.103
24766W        W93160  35.557   0.230  14.904
24767W        W93161   4.284  39.629   1.210
24768W        W93162   8.661  34.840   0.296
24769W        W93163  26.368   3.263   1.750
24770W        W93164  29.898  43.807  13.495
24771W        W93165  31.947  36.860  11.141
24772W        W93166  26.609  35.423   4.869
24773W        W93167  15.339   2.851   3.334
24774W        W93168   3.519   0.300  14.519
24775W        W93169   4.690  39.476   3.334
24776W        W93170  17.296   2.825   4.516
24777W        W93171  32.940   3.828  14.750
24778W        W93172  31.174  30.962  14.840
24779W        W93173   1.887   6.327   3.848
24780W        W93174  34.455  43.781   3.798
24781W        W93175   3.711  25.741  12.906
24782W        W93176  30.594  44.694  12.550
24783W        W93177  35.974  40.944  14.282
24784W        W93178  31.075  42.367  11.466
24785W        W93179  39.334  41.549  13.530
24786W        W93180  10.285   3.144   2.221
24787W        W93181  43.391  29.379  10.448
24788W        W93182  32.936  36.035  14.821
24789W        W93183  18.291  44.255   4.610
24790W        W93184  44.131  24.545   2.569
24791W        W93185  36.923  24.440  14.396
24792W        W93186  25.033  14.899   0.577
24793W        W93187  28.693  37.094   4.560
24794W        W93188  38.997   1.450   2.768
24795W        W93189  31.308  12.522  12.967
24796W        W93190  15.347  23.771   0.086
24797W        W93191  40.900  40.752   3.318
24798W        W93192  32.699  21.154  13.087
24799W        W93193  27.672  25.522   1.630
24800W        W93194  33.128  32.133  14.047
24801W        W93195   9.756  41.322  10.485
24802W        W93196  20.465   0.709   3.725
24803W        W93197  16.668  16.814  14.998
24804W        W93198  43.466  40.605   0.425
24805W        W93199  20.039  22.759  11.831
24806W        W93200  16.428  43.312   2.150
24807W        W93201  41.475  43.662  14.092
24808W        W93202  15.839  36.972  14.826
24809W        W93203  15.808  32.575  12.932
24810W        W93204  20.652   7.878  11.507
24811W        W93205  15.269  15.661  11.965
24812W        W93206   7.185  18.420  12.013
24813W        W93207  29.849  23.290  14.843
24814W        W93208  13.811  41.417   4.575
24815W        W93209  39.830  40.938   2.740
24816W        W93210  10.168  16.612  14.783
24817W        W93211  23.113  27.967  14.037
24818W        W93212  11.208  43.196  10.718
24819W        W93213  33.115  41.420  13.010
24820W        W93214  21.794  41.355  12.508
24821W        W93215  22.202  29.201   2.580
24822W        W93216  25.655  12.158   0.237
24823W        W93217  32.049  44.604  13.018
24824W        W93218   5.039   9.262   3.207
24825W        W93219  32.616  31.609   1.712
24826W        W93220  36.466   4.237   2.644
24827W        W93221  41.280  12.728   2.885
24828W        W93222  38.979  23.766   0.118
24829W        W93223  15.606  39.757   0.528
24830W        W93224   4.966  21.518   1.010
24831W        W93225  39.150  43.674   1.874
24832W        W93226   3.269  39.465   2.259
24833W        W93227  41.321  24.134   2.021
24834W        W93228  27.385   0.903   0.853
24835W        W93229  10.140  37.454  10.794
24836W        W93230   3.429  41.002  12.385
24837W        W93231  33.420  13.439   0.938
24838W        W93232  15.724  10.366  14.832
24839W        W93233  37.553  14.232   4.704
24840W        W93234  38.818  37.495  14.568
24841W        W93235  34.340   3.901  10.655
24842W        W93236  21.940  15.767   2.263
24843W        W93237  30.125  30.947   3.890
24844W        W93238   3.805   2.695  14.798
24845W        W93239  18.087   8.773   4.750
24846W        W93240  39.785  25.533   1.140
24847W        W93241   5.754   3.153  14.736
24848W        W93242  26.640  21.183  14.054
24849W        W93243  37.260  10.349   2.619
24850W        W93244  23.192  27.187   1.271
24851W        W93245  20.101  21.530  12.045
24852W        W93246  24.970   1.490  10.137
24853W        W93247  33.550  28.394  10.719
24854W        W93248   7.915  30.418   2.037
24855W        W93249  27.201  14.126   4.536
24856W        W93250  22.527   1.749  14.500
24857W        W93251   0.964  27.575  11.550
24858W        W93252  28.518   9.148   2.808
24859W        W93253  20.127  35.960   4.528
24860W        W93254  32.109  41.986   0.533
24861W        W93255  33.950  15.851  14.358
24862W        W93256   6.803  22.335  14.624
24863W        W93257  12.837  30.710  12.986
24864W        W93258  16.211  11.286   4.524
24865W        W93259  28.905  41.517   2.794
24866W        W93260   3.797  15.466  10.721
24867W        W93261  21.431  27.834  11.385
24868W        W93262   4.556  35.824  12.765
24869W        W93263  40.418  10.840   1.297
24870W        W93264  23.082  43.811   2.654
24871W        W93265  15.210  39.627   4.581
24872W        W93266  26.649  17.521   1.223
24873W        W93267  30.562  15.650  12.422
24874W        W93268  19.278  33.431  14.934
24875W        W93269  14.874  10.582  12.345
24876W        W93270  23.321  34.440   2.257
24877W        W93271  42.933  32.049  11.137
24878W        W93272  27.870  33.834  14.859
24879W        W93273  10.258  37.613   3.191
24880W        W93274   6.685   7.941  10.685
24881W        W93275   3.712  33.557   1.889
24882W        W93276  38.473   0.170  14.861
24883W        W93277  17.137  39.918   2.457
24884W        W93278  13.960   4.212  11.798
24885W        W93279  21.998  11.165   1.338
24886W        W93280  22.878  19.958  13.162
24887W        W93281  22.732   6.863  10.593
24888W        W93282   8.417   6.527  14.862
24889W        W93283   3.357  19.617   4.318
24890W        W93284  22.095  25.551  12.757
24891W        W93285  42.130  29.730   2.664
24892W        W93286  27.311  44.186  14.803
24893W        W93287  27.051  35.554  10.732
24894W        W93288   9.325  37.516   1.006
24895W        W93289  11.888  34.912   3.196
24896W        W93290  33.124  15.696  13.519
24897W        W93291  42.804  36.686   3.551
24898W        W93292   0.971  38.090   4.207
24899W        W93293   5.538   8.620   0.948
24900W        W93294  41.871  11.113  10.362
24901W        W93295   2.528  35.962  13.493
24902W        W93296  44.327  11.632   4.997
24903W        W93297  18.332   9.081   1.451
24904W        W93298  41.915   1.464   2.738
24905W        W93299  28.476   9.652   1.934
24906W        W93300  31.527  41.873  14.781
24907W        W93301  17.583  44.756   1.797
24908W        W93302  40.916  15.619   0.438
24909W        W93303  38.498  21.220   5.201
24910W        W93304  40.168  44.034  13.554
24911W        W93305  27.210  33.326  12.183
24912W        W93306  17.650  40.400  12.444
24913W        W93307  30.351  43.459   0.792
24914W        W93308  14.883  10.694   1.707
24915W        W93309  23.375   1.599   0.358
24916W        W93310  26.639  10.320   2.724
24917W        W93311  28.249   5.900   0.814
24918W        W93312   7.568   3.271   2.358
24919W        W93313   6.868  20.585   1.746
24920W        W93314  36.151  11.654   1.444
24921W        W93315  31.413   4.443   0.212
24922W        W93316  34.591  44.857   3.240
24923W        W93317  32.427  31.910   3.685
24924W        W93318   1.408   3.340  12.430
24925W        W93319  13.122  17.164   3.677
24926W        W93320  15.167  18.533   2.907
24927W        W93321  42.062  17.691   0.433
24928W        W93322  10.726   9.691  12.435
24929W        W93323  16.170  44.558  12.898
24930W        W93324  30.008  25.943  13.492
24931W        W93325  28.749   6.903   3.712
24932W        W93326   7.769  12.499   1.748
24933W        W93327  15.260  30.915  12.491
24934W        W93328  20.618  10.206  10.777
24935W        W93329  31.399  15.271   0.872
24936W        W93330  35.874  34.382   3.705
24937W        W93331  13.417  22.254  11.153
24938W        W93332  13.133   0.437   3.703
24939W        W93333  33.126  30.170  11.126
24940W        W93334  26.472  11.538   5.189
24941W        W93335  43.416  12.093  14.046
24942W        W93336  39.985   8.595  13.966
24943W        W93337   1.938  10.175   4.021
24944W        W93338   8.668  38.091   3.163
24945W        W93339  42.980   9.537   4.910
24946W        W93340   0.692  18.774   3.730
24947W        W93341  18.708  24.724   3.383
24948W        W93342   7.515  42.025  14.788
24949W        W93343  39.452  24.237   3.924
24950W        W93344  44.352  16.835   4.478
24951W        W93345  39.956  39.516   4.178
24952W        W93346  17.138  32.570  11.198
24953W        W93347  35.278  13.436   2.289
24954W        W93348   3.192  34.937   2.258
24955W        W93349  39.402  20.072   3.023
24956W        W93350  24.902  26.487   3.373
24957W        W93351   3.777   4.028  12.549
24958W        W93352  19.003  24.448  12.088
24959W        W93353  20.757  36.001   1.883
24960W        W93354  42.643   5.209  11.509
24961W        W93355  41.072   7.181   3.120
24962W        W93356  34.388   0.338  13.439
24963W        W93357  13.825   4.470   3.339
24964W        W93358  23.064  20.474  14.919
24965W        W93359  40.347  38.713  10.278
24966W        W93360  12.418   7.920   2.567
24967W        W93361  42.907   3.793  11.909
24968W        W93362  24.244   1.500  14.761
24969W        W93363  27.506   5.839   3.035
24970W        W93364  21.540  37.362  13.936
24971W        W93365  32.591  21.385  14.810
24972W        W93366  21.059  19.760  14.826
24973W        W93367  34.700  42.291   0.526
24974W        W93368  33.990  38.330   0.297
24975W        W93369  30.684   9.422   0.173
24976W        W93370  34.474  15.252  10.793
24977W        W93371  14.251  43.349  14.786
24978W        W93372  20.086  15.878   2.408
24979W        W93373  37.348  19.632  11.623
24980W        W93374   6.125  16.130  14.226
24981W        W93375  43.457  39.691   5.098
24982W        W93376  44.846  32.331   2.819
24983W        W93377  38.463  19.681  12.940
24984W        W93378   1.726  18.306   1.515
24985W        W93379  14.181  11.246  12.156
24986W        W93380  39.290   6.964  10.673
24987W        W93381  29.314   1.479   0.411
24988W        W93382  15.558  18.186   3.730
24989W        W93383  10.110  30.969  12.387
24990W        W93384   3.930   5.966   1.447
24991W        W93385  37.005  13.849  13.097
24992W        W93386   1.650  16.715   3.206
24993W        W93387  13.352  14.108   1.307
24994W        W93388  39.384  36.548   3.602
24995W        W93389  21.183  44.973  10.990
24996W        W93390  34.454  37.723  12.839
24997W        W93391  33.584  38.627  14.490
24998W        W93392  19.606  40.893  10.766
24999W        W93393  41.904  31.614   2.462
25000W        W93394   0.527  44.007   0.294
25001W        W93395  35.918  10.418   2.365
25002W        W93396  32.583  23.281   0.169
25003W        W93397   2.847  23.060   3.781
25004W        W93398  39.412  17.642   0.056
25005W        W93399  29.977  15.167   4.167
25006W        W93400  21.122  36.321   3.709
25007W        W93401  32.648  10.413   4.433
25008W        W93402  31.827  35.465   3.777
25009W        W93403   9.800   7.691  12.022
25010W        W93404  33.389  20.040   3.377
25011W        W93405   4.426  21.782  14.918
25012W        W93406   0.362  24.895  11.172
25013W        W93407  41.615  41.098   0.396
25014W        W93408  39.246  35.851   2.195
25015W        W93409  42.544  23.703   2.749
25016W        W93410  39.687  27.566   2.199
25017W        W93411   4.225  42.579  14.851
25018W        W93412  25.655   5.675  10.576
25019W        W93413   1.650  34.560   3.743
25020W        W93414  35.856  13.218   1.918
25021W        W93415  15.099  40.326  12.534
25022W        W93416   3.854  44.935   4.558
25023W        W93417  36.277  12.293   0.796
25024W        W93418  42.963  12.141  14.300
25025W        W93419  18.644  36.567   2.318
25026W        W93420  42.221  26.100  14.245
25027W        W93421   9.935  14.180   2.286
25028W        W93422  15.850  40.634   3.319
25029W        W93423  32.663  26.993  13.602
25030W        W93424  22.540   6.753   3.310
25031W        W93425  19.813   5.580  14.485
25032W        W93426  41.288  15.273   0.351
25033W        W93427  26.126  31.704  13.171
25034W        W93428  41.600  29.712  14.445
25035W        W93429  43.001  15.170   0.293
25036W        W93430   1.971  36.992  12.686
25037W        W93431  37.098  36.016  14.914
25038W        W93432  31.512  13.842   3.182
25039W        W93433  13.900  29.568  12.169
25040W        W93434  41.572  33.436   0.028
25041W        W93435  21.755  20.802  12.966
25042W        W93436  16.606   2.994  13.471
25043W        W93437  38.351  28.711   2.320
25044W        W93438   2.785  15.600   0.762
25045W        W93439  31.165  21.794  11.403
25046W        W93440  18.702  17.527  11.251
25047W        W93441   6.759  18.104   4.085
25048W        W93442  43.102  18.968  14.475
25049W        W93443  30.343  39.596  11.211
25050W        W93444  39.252   4.238   4.727
25051W        W93445   0.473  30.438   4.536
25052W        W93446  19.024   9.775  13.928
25053W        W93447  17.825  39.646  14.713
25054W        W93448  18.755  14.768  13.027
25055W        W93449  12.295  14.085   0.038
25056W        W93450  42.323  18.630   1.702
25057W        W93451  15.859  10.150   1.250
25058W        W93452  32.633  29.174   1.713
25059W        W93453  16.452   2.200   3.763
25060W        W93454   1.525  28.472  14.328
25061W        W93455  37.843  17.556  11.026
25062W        W93456  25.215   1.469   3.209
25063W        W93457  41.495   2.914  14.250
25064W        W93458  31.372  36.940   0.743
25065W        W93459  31.013   2.245   4.122
25066W        W93460  28.192  10.347   0.974
25067W        W93461  17.245  42.881   2.180
25068W        W93462  38.724   3.744   1.684
25069W        W93463   1.134  12.721   9.821
25070W        W93464  40.855  17.540   3.216
25071W        W93465   7.357  16.144   2.821
25072W        W93466  44.602  22.283  12.815
25073W        W93467  19.891  12.104   3.301
25074W        W93468  33.098  11.438   2.005
25075W        W93469  24.050  27.190   1.176
25076W        W93470  33.525  28.114  13.978
25077W        W93471  28.046   7.362   0.918
25078W        W93472   5.897  11.558  13.659
25079W        W93473  35.697  27.963   2.940
25080W        W93474  28.049  20.064  14.597
25081W        W93475   3.515  31.066   0.887
25082W        W93476   5.442  40.864  11.105
25083W        W93477  12.718  32.014  13.448
25084W        W93478  32.048  30.274  12.787
25085W        W93479   3.124  27.917  11.438
25086W        W93480   5.884  19.701   0.574
25087W        W93481  44.326  24.992  14.441
25088W        W93482   4.359   4.003   0.328
25089W        W93483  42.397  17.743  11.922
25090W        W93484  42.263  43.280  11.564
25091W        W93485  14.113   7.872   4.331
25092W        W93486  25.702  13.089   1.269
25093W        W93487  27.928  17.571   0.825
25094W        W93488  28.152  32.900   1.860
25095W        W93489  17.789   6.197  10.535
25096W        W93490  22.258   6.232  12.909
25097W        W93491   7.885  11.951  11.025
25098W        W93492  19.169   8.834   0.906
25099W        W93493  37.963  33.462   2.431
25100W        W93494  13.151  42.955  13.391
25101W        W93495  34.462   4.691   3.670
25102W        W93496  14.935   1.820  11.237
25103W        W93497  38.676  17.773  13.737
25104W        W93498   6.174   2.906  14.947
25105W        W93499   2.641  16.559   2.313
25106W        W93500   6.812  16.179   4.967
25107W        W93501  29.086  21.980  12.586
25108W        W93502  19.111  29.229   1.669
25109W        W93503  36.500  42.722   1.410
25110W        W93504  24.078  15.334  13.987
25111W        W93505  27.468  30.575  12.944
25112W        W93506  41.759  11.236   0.342
25113W        W93507   3.474  11.887  12.055
25114W        W93508   5.809  16.886  12.087
25115W        W93509  22.552  38.492   0.894
25116W        W93510   3.353   6.897   4.556
25117W        W93511  35.304  17.244  12.975
25118W        W93512  21.695  32.364  14.821
25119W        W93513  22.127  41.849   3.387
25120W        W93514  25.121  12.378  12.336
25121W        W93515  27.849  25.012   2.866
25122W        W93516  16.253   3.154  14.978
25123W        W93517  30.835  34.800   4.284
25124W        W93518  29.663   9.238  14.778
25125W        W93519  36.474  44.763  10.187
25126W        W93520  10.457  43.502   0.839
25127W        W93521  20.773  43.259  13.029
25128W        W93522   4.826   2.761   1.454
25129W        W93523  24.549  40.861   0.059
25130W        W93524  14.836  20.654   1.824
25131W        W93525  44.589   9.642  10.079
25132W        W93526  28.554   8.170  12.563
25133W        W93527   3.828   3.855   2.564
25134W        W93528   8.830   9.877   1.324
25135W        W93529  19.813   9.668  12.470
25136W        W93530  44.299  20.719   3.148
25137W        W93531  19.389  17.233   4.030
25138W        W93532  33.315  22.383  14.439
25139W        W93533  35.259  10.834   0.244
25140W        W93534  36.835   2.754   2.609
25141W        W93535   4.904  30.477  10.232
25142W        W93536   3.757  39.210   2.333
25143W        W93537  10.438  32.693  13.320
25144W        W93538  20.010   0.915   4.300
25145W        W93539  28.744   7.691   3.599
25146W        W93540   2.871  37.328   1.118
25147W        W93541   6.304  36.945  10.744
25148W        W93542  44.059  26.580  13.023
25149W        W93543  24.674  25.194   3.431
25150W        W93544  27.097   7.493   4.553
25151W        W93545  42.843  22.709  11.343
25152W        W93546  14.759   9.278  12.972
25153W        W93547  24.667  17.748  14.907
25154W        W93548  29.502  22.008   1.301
25155W        W93549  35.661  28.060  12.481
25156W        W93550  44.924   0.639  12.416
25157W        W93551  24.740  13.624  11.237
25158W        W93552  41.445   6.244   0.267
25159W        W93553  23.878  10.170  11.544
25160W        W93554  40.385   2.196   4.217
25161W        W93555  37.340  39.812   2.215
25162W        W93556  18.843  10.243  13.549
25163W        W93557  20.786  20.109   2.381
25164W        W93558   1.163   1.332  12.998
25165W        W93559   7.087  30.049  14.932
25166W        W93560  39.160  29.412   3.372
25167W        W93561  35.311   2.007   3.193
25168W        W93562  12.576  14.192   0.952
25169W        W93563  13.122  25.279  11.761
25170W        W93564   6.999   1.845  14.373
25171W        W93565  24.023  33.648  11.142
25172W        W93566   7.742  17.766   2.196
25173W        W93567  24.694  43.526   4.483
25174W        W93568  28.316   1.468   5.033
25175W        W93569  24.256  15.066  11.210
25176W        W93570  40.646  27.642   2.168
25177W        W93571   3.059  44.419  13.975
25178W        W93572  14.196  23.094   1.693
25179W        W93573  44.966  35.859  10.260
25180W        W93574  33.689  25.212   3.221
25181W        W93575   0.320  27.201  14.389
25182W        W93576  38.385  26.078   4.472
25183W        W93577   0.659   4.872  13.821
25184W        W93578  32.169  44.364   2.028
25185W        W93579  14.628  10.923  11.995
25186W        W93580   2.739  32.978  12.575
25187W        W93581   7.939  16.585  14.412
25188W        W93582  14.837   4.283   1.287
25189W        W93583  27.713  25.006  12.406
25190W        W93584  24.558  18.942   3.711
25191W        W93585  17.298   3.380  12.018
25192W        W93586  29.945  18.469   0.432
25193W        W93587  16.829   2.271  14.842
25194W        W93588  11.918  13.559   1.788
25195W        W93589   6.651  29.497   3.661
25196W        W93590  17.424  43.472   1.980
25197W        W93591  16.488  36.791   1.359
25198W        W93592  24.512  20.669  10.228
25199W        W93593  15.405   0.740  14.354
25200W        W93594  33.115  43.777   0.780
25201W        W93595  32.906  36.576   1.740
25202W        W93596  14.064  43.415  12.907
25203W        W93597  13.323  27.148   1.286
25204W        W93598  34.394  41.285   4.934
25205W        W93599   1.465  15.151  14.918
25206W        W93600  23.480  24.991   2.745
25207W        W93601   6.220  33.880   2.637
25208W        W93602   3.688  31.585  13.277
25209W        W93603  41.308   9.900   2.410
25210W        W93604  28.608  14.312   3.348
25211W        W93605  12.879   7.947  14.568
25212W        W93606  40.313   3.654   2.218
25213W        W93607  17.316   8.851   2.897
25214W        W93608  39.930  30.141  14.908
25215W        W93609   1.853   5.453  10.681
25216W        W93610  35.803  18.549   4.149
25217W        W93611  39.022   7.087  11.096
25218W        W93612  30.997   1.329  13.920
25219W        W93613  22.942  21.458   3.559
25220W        W93614  21.667  36.836   3.052
25221W        W93615  10.798   8.296  10.738
25222W        W93616  43.408  31.574   0.505
25223W        W93617  10.942   4.443  11.200
25224W        W93618  25.321  13.220  12.567
25225W        W93619  34.861   4.711   4.579
25226W        W93620   7.073  35.198   1.911
25227W        W93621   5.361  26.472   3.210
25228W        W93622  11.635  36.523   1.217
25229W        W93623  40.812   4.273   2.798
25230W        W93624   2.434  23.750  13.970
25231W        W93625   5.986   8.886   0.862
25232W        W93626  15.378  27.090  12.510
25233W        W93627  44.224  43.181  11.466
25234W        W93628  34.139  20.619   3.626
25235W        W93629   9.544  23.779  10.112
25236W        W93630  35.327  34.679   4.130
25237W        W93631  19.218  38.307   4.191
25238W        W93632  28.581  29.535  13.412
25239W        W93633  24.079  37.079   1.895
25240W        W93634  31.440  35.000  14.884
25241W        W93635  20.530  34.087   2.754
25242W        W93636  12.354  29.601  14.938
25243W        W93637  31.081  43.220  13.800
25244W        W93638  40.112  38.468  11.927
25245W        W93639  21.492  26.551  10.425
25246W        W93640  13.127   8.591  12.950
25247W        W93641  10.187  41.317   2.792
25248W        W93642  17.821   2.330   3.135
25249W        W93643  35.296  30.462  13.576
25250W        W93644   3.098  29.109   0.675
25251W        W93645   4.853  17.130   4.529
25252W        W93646   2.291  24.002  13.538
25253W        W93647  10.357  13.583  10.931
25254W        W93648   6.792  13.541   1.433
25255W        W93649  42.352  39.046  13.829
25256W        W93650   1.015  44.427   3.517
25257W        W93651  21.300  37.150  14.357
25258W        W93652  22.027  23.701  12.640
25259W        W93653  12.874   5.314  10.489
25260W        W93654   5.087  42.496  13.908
25261W        W93655  20.072  20.425  10.108
25262W        W93656   1.224  26.945   1.798
25263W        W93657  23.785   5.905   1.352
25264W        W93658  35.364  40.561  13.538
25265W        W93659  36.330  15.292  12.803
25266W        W93660   9.841  25.149   4.108
25267W        W93661  17.717  43.492  11.230
25268W        W93662  15.845   4.923  13.402
25269W        W93663   1.741  22.926  10.771
25270W        W93664  28.502  18.252   0.468
25271W        W93665  19.237   6.827   0.858
25272W        W93666  29.845  21.564   2.245
25273W        W93667   7.108  30.009  12.581
25274W        W93668  19.306  21.277   3.144
25275W        W93669   1.326  34.596   3.280
25276W        W93670   6.240  36.627  12.297
25277W        W93671   1.760   1.369  11.164
25278W        W93672  32.399  11.881  11.590
25279W        W93673  26.088  35.365  11.583
25280W        W93674  19.186  18.357   0.163
25281W        W93675   4.321  36.586  10.717
25282W        W93676  43.801  43.400  11.709
25283W        W93677  34.492   4.317   4.089
25284W        W93678  28.063  43.461  11.915
25285W        W93679   5.645  32.660   0.751
25286W        W93680  43.776  22.651  10.595
25287W        W93681  32.663  22.537  12.447
25288W        W93682  38.483  24.967  10.343
25289W        W93683  27.033  10.908  11.359
25290W        W93684  31.337  32.612  13.965
25291W        W93685  21.371  14.720  12.337
25292W        W93686  25.037   4.032  14.973
25293W        W93687   5.242  38.558   4.659
25294W        W93688  21.971  34.587   3.098
25295W        W93689   8.983  27.243   4.953
25296W        W93690  35.202   6.680   1.492
25297W        W93691  16.548   3.891  12.078
25298W        W93692  42.366  30.385  14.320
25299W        W93693  44.578  23.062   3.318
25300W        W93694   4.367  44.247  10.519
25301W        W93695  32.503  25.946  14.492
25302W        W93696   5.913  11.378   2.788
25303W        W93697   5.358   5.632   3.928
25304W        W93698  10.707  27.146   1.834
25305W        W93699  31.600  36.491  11.967
25306W        W93700  20.285  18.021  14.426
25307W        W93701   3.610  27.906  11.631
25308W        W93702  18.801   8.837   4.998
25309W        W93703   1.887   4.952   3.436
25310W        W93704  32.314  43.205  14.927
25311W        W93705  35.110  28.051  10.734
25312W        W93706  15.059  38.571  10.249
25313W        W93707  29.589  42.260   2.789
25314W        W93708  36.219  20.306  11.191
25315W        W93709   3.763  38.438   2.231
25316W        W93710  36.125  20.993  14.929
25317W        W93711  16.653  22.282  11.105
25318W        W93712   4.481  40.667   1.788
25319W        W93713  43.821  34.386   2.084
25320W        W93714  15.103  27.151  12.062
25321W        W93715  24.427  24.526  14.834
25322W        W93716  16.759  30.653   4.280
25323W        W93717  43.825  44.941  12.391
25324W        W93718  42.414  42.737   0.385
25325W        W93719   1.202   4.161   1.870
25326W        W93720  16.030  23.681   4.029
25327W        W93721  32.867  20.155   3.264
25328W        W93722  34.618  22.033  11.414
25329W        W93723  42.069  14.197   2.764
25330W        W93724  33.539  20.636  13.419
25331W        W93725  41.366  18.867  11.601
25332W        W93726   9.612  36.146  12.676
25333W        W93727  38.351  19.538  11.573
25334W        W93728  10.108  30.622   3.341
25335W        W93729  20.628  10.848   2.942
25336W        W93730  35.431  18.447  11.138
25337W        W93731  21.505  22.681  12.130
25338W        W93732  33.877  21.327  10.086
25339W        W93733  24.625  16.284  14.665
25340W        W93734   5.730   6.593  12.609
25341W        W93735  17.719  12.979   2.228
25342W        W93736   8.581  16.109   0.740
25343W        W93737  23.642  21.085  14.241
25344W        W93738   5.609  42.239   3.338
25345W        W93739  29.891  33.179  14.525
25346W        W93740  24.503   8.405  12.363
25347W        W93741  32.089  21.605   2.466
25348W        W93742  44.207  40.326   2.167
25349W        W93743   9.289   3.305   3.744
25350W        W93744  44.114   4.499  11.068
25351W        W93745  37.439  22.634   3.670
25352W        W93746  44.730  20.835  14.910
25353W        W93747   2.645  42.188  12.433
25354W        W93748  33.552   5.979  12.097
25355W        W93749   3.815  29.566   5.170
25356W        W93750   2.763  16.309   1.852
25357W        W93751  25.440  16.531  14.247
25358W        W93752   4.911   7.621   0.155
25359W        W93753  40.959  41.288   3.821
25360W        W93754  35.164  22.087  10.441
25361W        W93755  39.814  22.600   3.283
25362W        W93756  42.404   7.813   2.173
25363W        W93757  14.163  26.679  13.330
25364W        W93758  17.804  41.261  12.922
25365W        W93759   8.960   6.467  12.539
25366W        W93760  36.839  26.893   2.942
25367W        W93761  41.414   8.235   4.247
25368W        W93762  20.806   6.801  11.268
25369W        W93763  39.943  31.229   2.249
25370W        W93764  22.126  15.120   2.911
25371W        W93765  24.698  32.428  12.380
25372W        W93766  16.853   3.671   0.849
25373W        W93767  32.248  28.258  12.417
25374W        W93768  43.796  18.673  12.559
25375W        W93769  42.625  39.720   9.840
25376W        W93770  31.681   0.926   0.448
25377W        W93771  42.273  33.198   4.944
25378W        W93772  44.300   6.912   4.631
25379W        W93773   7.737  17.328   3.721
25380W        W93774   5.909  13.404  12.150
25381W        W93775  21.648   1.847   2.306
25382W        W93776  12.617  33.270  12.903
25383W        W93777  41.212  42.043   0.393
25384W        W93778   2.971  21.023  14.727
25385W        W93779   5.572   5.196   4.066
25386W        W93780  36.747  12.891  10.254
25387W        W93781  11.225   4.188   1.349
25388W        W93782  26.445  44.593  12.680
25389W        W93783  32.371   9.195  14.397
25390W        W93784  23.739  35.997   0.883
25391W        W93785  38.967  34.302  11.619
25392W        W93786  14.235  36.557   0.631
25393W        W93787  31.142  39.886  11.612
25394W        W93788  31.184  17.443  12.532
25395W        W93789   2.771   3.760   2.116
25396W        W93790   3.397  18.316  10.755
25397W        W93791   1.770  37.324  13.888
25398W        W93792  44.943   6.620  12.480
25399W        W93793  43.460  30.424  11.671
25400W        W93794  40.857  16.725  14.396
25401W        W93795  13.781  18.103  14.729
25402W        W93796  12.952  29.879   0.294
25403W        W93797  21.240  29.478  10.735
25404W        W93798  36.927  40.475  10.609
25405W        W93799  34.333  44.487  14.288
25406W        W93800   9.876   5.532   2.307
25407W        W93801  22.592  21.121   1.463
25408W        W93802  22.379  42.985   1.361
25409W        W93803  34.377   0.826  14.036
25410W        W93804  30.369   5.703   0.933
25411W        W93805   6.183  22.255   4.259
25412W        W93806  19.518   5.896  12.723
25413W        W93807   1.505   6.747   2.529
25414W        W93808  15.750  13.681  12.576
25415W        W93809  12.432  21.382  13.491
25416W        W93810  25.115  28.929   0.412
25417W        W93811  13.009  19.565  10.210
25418W        W93812  29.826  23.007   2.791
25419W        W93813  14.142   6.503  13.823
25420W        W93814  18.025  16.156   2.753
25421W        W93815  43.240  19.622  13.087
25422W        W93816   2.819   4.808   3.290
25423W        W93817  15.216  30.863   1.148
25424W        W93818  34.644   3.816   0.843
25425W        W93819  20.359  28.865   2.404
25426W        W93820   7.807  34.197   0.247
25427W        W93821  25.456   1.250   3.760
25428W        W93822  18.276  31.511  11.010
25429W        W93823  24.580  10.318  12.052
25430W        W93824  23.787   2.353  13.841
25431W        W93825  35.993  12.511  14.429
25432W        W93826  29.681  14.353   3.377
25433W        W93827  43.601   7.288   2.002
25434W        W93828  23.573   5.776   4.239
25435W        W93829  16.110  27.035  12.950
25436W        W93830  22.630   9.828  11.974
25437W        W93831   2.211  20.632   2.411
25438W        W93832  14.254   1.297  12.004
25439W        W93833   0.813   1.502   2.219
25440W        W93834  10.454  14.352  10.806
25441W        W93835   2.838   5.918   2.611
25442W        W93836  29.905   9.691   0.812
25443W        W93837  35.903  13.311   2.798
25444W        W93838  25.318  36.988  10.564
25445W        W93839  37.738  13.075   1.462
25446W        W93840  42.891  31.812  10.258
25447W        W93841  29.484  27.977   4.598
25448W        W93842  23.624   7.185  11.635
25449W        W93843   7.686  31.512   2.925
25450W        W93844  39.720   2.871   4.174
25451W        W93845  26.395  15.935  12.222
25452W        W93846  33.368  29.139  12.542
25453W        W93847  22.545  11.191  12.849
25454W        W93848   6.132  17.061   0.559
25455W        W93849  12.578  25.640   1.397
25456W        W93850  28.507  13.272   4.508
25457W        W93851  36.067   3.966   0.986
25458W        W93852  20.975  44.093  12.535
25459W        W93853  11.127  34.966  14.066
25460W        W93854   9.152  10.221  10.711
25461W        W93855   6.800  10.616   0.639
25462W        W93856  10.087  32.597  12.465
25463W        W93857   0.196  10.732  13.433
25464W        W93858  43.793  19.648   4.174
25465W        W93859  44.848  42.240   4.556
25466W        W93860  39.410  23.230  13.594
25467W        W93861  16.868  36.901   5.507
25468W        W93862  15.827   0.693  12.354
25469W        W93863   5.862  15.325   1.412
25470W        W93864  33.459  32.954  12.883
25471W        W93865  35.996  42.519  12.006
25472W        W93866  25.439  29.582   3.260
25473W        W93867  26.674   6.973   3.351
25474W        W93868  39.979  19.618   1.881
25475W        W93869  32.139  24.429   3.607
25476W        W93870  41.019  10.866   2.474
25477W        W93871   2.324  12.633  13.836
25478W        W93872  35.868  19.087   2.944
25479W        W93873  13.279  13.676   1.009
25480W        W93874  38.827   2.411  12.011
25481W        W93875   9.814  34.498   4.647
25482W        W93876  25.975  17.732   0.769
25483W        W93877  37.449  23.130   0.492
25484W        W93878  39.915  29.411  12.434
25485W        W93879  25.763   4.860   4.457
25486W        W93880  37.738  12.558   1.507
25487W        W93881  38.060  34.557  12.593
25488W        W93882  31.935  34.932  14.965
25489W        W93883  16.580  44.578  11.338
25490W        W93884  19.351   9.799   4.108
25491W        W93885  30.362  15.762   1.596
25492W        W93886  22.808  19.587   4.820
25493W        W93887  14.209  34.083   1.002
25494W        W93888  16.311  14.022  14.223
25495W        W93889  17.627  28.414   4.141
25496W        W93890   6.313   6.676  13.452
25497W        W93891  10.086  17.003   2.425
25498W        W93892  28.038  10.532   5.158
25499W        W93893  44.131   6.261  12.795
25500W        W93894  23.134   4.650  14.318
25501W        W93895  18.102  25.043   3.156
25502W        W93896  31.441  15.712  13.901
25503W        W93897   0.949  39.662   2.249
25504W        W93898  31.897  35.597   3.258
25505W        W93899  39.576   3.837   4.618
25506W        W93900  22.624  40.325   2.641
25507W        W93901   4.145  24.684  10.136
25508W        W93902  23.056  35.063   1.706
25509W        W93903  38.337  15.299   2.648
25510W        W93904  31.826  29.168  12.905
25511W        W93905  21.290  43.154  12.951
25512W        W93906  11.368  17.082   4.058
25513W        W93907   2.965  35.234   1.445
25514W        W93908  36.083  42.722  12.475
25515W        W93909   7.276  10.156  13.401
25516W        W93910  39.085   8.638  12.111
25517W        W93911  39.510  15.997  13.584
25518W        W93912  19.785  34.451  13.929
25519W        W93913  31.188  11.631  13.974
25520W        W93914   3.679  13.074   2.885
25521W        W93915   4.605  43.239  10.479
25522W        W93916  11.841  43.397  11.981
25523W        W93917  24.179  40.714  14.347
25524W        W93918  41.809   3.853  11.594
25525W        W93919  28.750   5.731   0.891
25526W        W93920  21.533  21.749  13.025
25527W        W93921  12.632  39.825   1.904
25528W        W93922  31.087   3.888  14.033
25529W        W93923  36.846  14.303   3.049
25530W        W93924  30.037  21.716  14.255
25531W        W93925  11.217  18.107  10.734
25532W        W93926  44.838  19.055  10.609
25533W        W93927   0.308  14.653   2.342
25534W        W93928  35.499  38.965   3.112
25535W        W93929  28.049  44.208  13.276
25536W        W93930  29.670  30.477  10.687
25537W        W93931  14.254  37.255  12.437
25538W        W93932  40.517  28.979  10.867
25539W        W93933   1.479   9.163   4.609
25540W        W93934  11.530   0.728   2.481
25541W        W93935  20.889  43.756  11.175
25542W        W93936  42.936  17.689   4.877
25543W        W93937  39.145  40.907  13.505
25544W        W93938   1.464  23.940   1.044
25545W        W93939  29.789  34.402  11.637
25546W        W93940  24.998  15.352   0.347
25547W        W93941   7.797  44.978  11.928
25548W        W93942  13.328  13.259   3.286
25549W        W93943  22.022  44.043   1.269
25550W        W93944  27.939   7.258   0.415
25551W        W93945   5.453  43.952  14.508
25552W        W93946  28.280  38.920   4.838
25553W        W93947  24.247  16.323   2.808
25554W        W93948  42.873  26.112  13.430
25555W        W93949   1.462   3.398  11.409
25556W        W93950  23.072  25.058   4.689
25557W        W93951  32.231   7.767  13.366
25558W        W93952  38.123  30.985   4.406
25559W        W93953  38.454  36.997  12.187
25560W        W93954  17.253  18.244   2.092
25561W        W93955  42.246  43.764  11.702
25562W        W93956  38.150  32.351   1.302
25563W        W93957  15.587  39.690  13.521
25564W        W93958   5.231  13.639  14.024
25565W        W93959   1.675  28.998   0.872
25566W        W93960  15.892   9.799   2.841
25567W        W93961  10.655  18.692   1.846
25568W        W93962  43.870  42.412   2.764
25569W        W93963  17.901  17.370  14.152
25570W        W93964  44.476   4.944   1.119
25571W        W93965  29.619  10.324  14.357
25572W        W93966  44.603   2.919   3.869
25573W        W93967   3.503  34.856   2.682
25574W        W93968   3.638  43.451  10.562
25575W        W93969   4.513  16.541   4.529
25576W        W93970  21.942  37.566  12.970
25577W        W93971  10.748   6.675   4.753
25578W        W93972  35.876  27.879   1.856
25579W        W93973  38.982  24.093   2.756
25580W        W93974   8.124  20.514  12.593
25581W        W93975   2.713  13.389   5.468
25582W        W93976  18.400  41.698   3.492
25583W        W93977   2.627  37.951  13.473
25584W        W93978  31.971  38.196  10.860
25585W        W93979   9.716  39.775  14.368
25586W        W93980  29.644  40.895  11.110
25587W        W93981  33.082   6.937  14.053
25588W        W93982  37.097  16.720  10.697
25589W        W93983  20.645  31.202   2.388
25590W        W93984  36.085  22.926   2.879
25591W        W93985  14.980   6.830  10.358
25592W        W93986  15.322  19.107   0.257
25593W        W93987  27.048   4.433   4.573
25594W        W93988  29.803  43.295  13.596
25595W        W93989   4.815  35.503   0.467
25596W        W93990  16.807   9.911   3.778
25597W        W93991   4.792  40.935  14.428
25598W        W93992  29.783  18.293   3.123
25599W        W93993  38.265  40.265   2.277
25600W        W93994  22.906  31.629  14.924
25601W        W93995  33.669  34.935   1.366
25602W        W93996  39.392  41.267  12.619
25603W        W93997  30.589  15.330  12.044
25604W        W93998  30.927  33.717  12.863
25605W        W93999  21.274  22.656   3.053
25606W        W94000  43.029   1.044   4.243
25607W        W94001   3.440  42.234  12.924
25608W        W94002  19.806   4.130   3.660
25609W        W94003  23.127  19.119   4.878
25610W        W94004  31.563  43.405  12.906
25611W        W94005  23.427  11.073   2.241
25612W        W94006  34.588  30.173   4.671
25613W        W94007  14.817  30.418  14.715
25614W        W94008  42.919  41.346  12.013
25615W        W94009  36.203  20.692   3.604
25616W        W94010  23.846  21.278   3.809
25617W        W94011  42.457  15.478   1.354
25618W        W94012  19.731  30.132  14.869
25619W        W94013  35.587  31.711   1.192
25620W        W94014  38.447  27.691  14.537
25621W        W94015   4.000  34.144  13.803
25622W        W94016  44.779  17.780   4.772
25623W        W94017  13.610  14.986   3.301
25624W        W94018   9.753  44.791  10.407
25625W        W94019   0.962   1.756   0.709
25626W        W94020  36.161  39.532  12.175
25627W        W94021   3.256  39.334  14.436
25628W        W94022  16.378  26.603  14.049
25629W        W94023  23.581  14.190  13.056
25630W        W94024  12.262  37.991  12.420
25631W        W94025  41.113  19.794  11.281
25632W        W94026  16.322  17.072  13.640
25633W        W94027   3.316   1.974   3.139
25634W        W94028  38.934  10.450   2.250
25635W        W94029  18.492  17.892  13.474
25636W        W94030  30.586  31.380  10.655
25637W        W94031   6.711  25.217  10.730
25638W        W94032   5.426  19.582   2.738
25639W        W94033  32.187  29.775  12.319
25640W        W94034   8.280  34.993  13.198
25641W        W94035   3.113  20.019  13.870
25642W        W94036  40.782  16.547  13.876
25643W        W94037  44.466  24.023   3.643
25644W        W94038  30.988  36.615   0.724
25645W        W94039  23.728   5.203   0.007
25646W        W94040  33.000  36.685  14.189
25647W        W94041  19.130   2.256  14.354
25648W        W94042   9.249  20.805  10.162
25649W        W94043  38.499  20.664   0.959
25650W        W94044  10.318  36.857   0.934
25651W        W94045  22.776  15.150  12.221
25652W        W94046   6.958  43.513  12.957
25653W        W94047   6.792  43.406   4.294
25654W        W94048  21.563   5.280  11.859
25655W        W94049   7.700  29.782   2.172
25656W        W94050  28.474  44.938  10.789
25657W        W94051  16.325  41.301   1.075
25658W        W94052   1.680  30.394  12.275
25659W        W94053  11.256   8.232  11.513
25660W        W94054  39.248  42.887  14.717
25661W        W94055  17.669  14.181  10.364
25662W        W94056  30.566  24.628   1.977
25663W        W94057   9.914  29.247   2.201
25664W        W94058  23.757  15.849   1.217
25665W        W94059   5.677  19.104  11.860
25666W        W94060  13.757  25.110  12.643
25667W        W94061   7.658   3.002  13.875
25668W        W94062  24.056   0.963   3.350
25669W        W94063  43.307  15.532  14.483
25670W        W94064  19.341  16.743   4.211
25671W        W94065  16.274   7.951  12.949
25672W        W94066  33.545   4.977   2.252
25673W        W94067  16.217   5.685  12.345
25674W        W94068  39.430  36.481   2.718
25675W        W94069   3.723  31.003   1.790
25676W        W94070  35.020  17.365  12.583
25677W        W94071  34.430   9.623   4.540
25678W        W94072  43.396   2.932  12.828
25679W        W94073  31.040  18.127  13.368
25680W        W94074  42.828   6.782  10.435
25681W        W94075  40.208   7.679   1.839
25682W        W94076  24.596  37.814  11.151
25683W        W94077  33.687  30.222   0.109
25684W        W94078  22.034  41.373  13.173
25685W        W94079  26.761  13.329   3.640
25686W        W94080  15.621  20.975   0.326
25687W        W94081  36.110  11.140  10.575
25688W        W94082  21.733   5.849   0.173
25689W        W94083  24.461  21.006  11.502
25690W        W94084  34.542   8.690  11.039
25691W        W94085  17.641  31.214   1.314
25692W        W94086  25.611  35.520   2.374
25693W        W94087  44.458  40.382  10.602
25694W        W94088  17.534  26.120  10.326
25695W        W94089   2.331  30.868  11.195
25696W        W94090  35.885   4.712   2.267
25697W        W94091  25.736  31.488   1.816
25698W        W94092  42.031  39.115   0.915
25699W        W94093  27.435  42.967  12.066
25700W        W94094  33.663  40.270  13.695
25701W        W94095  22.499  18.960  10.962
25702W        W94096  43.917  11.813   1.739
25703W        W94097  34.478  19.497  12.503
25704W        W94098  34.790  19.752  14.419
25705W        W94099   4.855  24.691  11.208
25706W        W94100   1.354  41.919  13.541
25707W        W94101   7.221   6.615   0.994
25708W        W94102  30.944  10.559   2.286
25709W        W94103  11.806  15.529  11.584
25710W        W94104  30.051  27.412   0.420
25711W        W94105   2.211  31.862   1.685
25712W        W94106   3.289   0.166   3.118
25713W        W94107   8.797  26.286   4.334
25714W        W94108  40.954  10.908  11.575
25715W        W94109  27.276  42.441  12.906
25716W        W94110  30.409   7.097   0.886
25717W        W94111  17.667  41.458   1.363
25718W        W94112  30.148  18.298   1.743
25719W        W94113  17.841  16.103   2.179
25720W        W94114  30.724  40.426  12.707
25721W        W94115   4.933   9.776  14.731
25722W        W94116   5.167  11.164  10.855
25723W        W94117   5.794  31.345   0.313
25724W        W94118  19.360  44.294  14.495
25725W        W94119  16.734   4.802  13.391
25726W        W94120   5.412  24.058  14.798
25727W        W94121  42.504  21.611   2.117
25728W        W94122   4.846   9.302   3.681
25729W        W94123  38.059  32.015  14.764
25730W        W94124  42.485  16.812   3.788
25731W        W94125  35.702  26.161   3.344
25732W        W94126  37.510   5.914  14.920
25733W        W94127  41.619  17.769   1.239
25734W        W94128   4.193  19.234   3.969
25735W        W94129   9.316   9.972   2.840
25736W        W94130  24.696  18.272  14.790
25737W        W94131   7.317  21.974  13.795
25738W        W94132  26.228  28.109  14.120
25739W        W94133   8.726  42.817   1.422
25740W        W94134   8.201  10.315   2.703
25741W        W94135  31.814  11.610   3.031
25742W        W94136   2.951  43.059  11.228
25743W        W94137  25.019  42.363  11.044
25744W        W94138   5.426   6.699   3.060
25745W        W94139  27.147  17.048   3.837
25746W        W94140  11.701   4.416  12.501
25747W        W94141   8.301  35.834   0.562
25748W        W94142  38.077  20.580  11.643
25749W        W94143  44.658  20.043   4.904
25750W        W94144  26.679  15.684   4.053
25751W        W94145   5.882  25.214  11.145
25752W        W94146  24.707  38.389  12.492
25753W        W94147  29.469  23.789   0.995
25754W        W94148  39.501   8.241   0.431
25755W        W94149  22.102  11.293  11.601
25756W        W94150  26.647  10.293   1.662
25757W        W94151  32.064  20.213   3.666
25758W        W94152  29.787  39.942   0.332
25759W        W94153  43.918   9.211   4.219
25760W        W94154  44.415  14.299   0.755
25761W        W94155  29.172  25.471  12.499
25762W        W94156  11.168  24.041  14.864
25763W        W94157  42.302   0.946   4.727
25764W        W94158  29.013   3.361  14.260
25765W        W94159  11.352  31.862  12.847
25766W        W94160  30.021  18.475  11.666
25767W        W94161  15.224  14.366  12.358
25768W        W94162  44.083   7.471   2.113
25769W        W94163  15.608  29.139  12.610
25770W        W94164  23.600  39.911   3.674
25771W        W94165  35.382  37.487  10.483
25772W        W94166  20.549  23.733   3.195
25773W        W94167  16.008  25.679   3.800
25774W        W94168  18.534   8.188   3.353
25775W        W94169  27.008  37.952  11.611
25776W        W94170  33.418  26.492   1.802
25777W        W94171  30.239  19.816  14.884
25778W        W94172  33.753  13.064   0.753
25779W        W94173  21.800  25.068   2.336
25780W        W94174  18.039  42.041  10.216
25781W        W94175  29.937  31.955   2.687
25782W        W94176  17.655   1.702   0.807
25783W        W94177   3.201  16.256  13.820
25784W        W94178  38.252  26.547   3.286
25785W        W94179  17.543  38.041   3.825
25786W        W94180   5.653  17.218   2.337
25787W        W94181   2.495  20.615  12.909
25788W        W94182  19.280   3.207  11.080
25789W        W94183  14.174  31.609   1.837
25790W        W94184  24.358  26.290  12.424
25791W        W94185  23.510  32.201   0.340
25792W        W94186  43.079  40.816   1.337
25793W        W94187  27.241  21.752   1.164
25794W        W94188  35.866  18.948  14.892
25795W        W94189  44.360  16.802   2.172
25796W        W94190   3.383  28.979   3.628
25797W        W94191  28.006   7.280  12.424
25798W        W94192  27.758  41.530  12.972
25799W        W94193   9.003  40.971   4.015
25800W        W94194  11.674  11.841   1.894
25801W        W94195   3.464  26.599   3.166
25802W        W94196  38.538  22.774  11.902
25803W        W94197  31.128  29.801   2.057
25804W        W94198  42.958  36.804   2.271
25805W        W94199   4.621  18.400  11.544
25806W        W94200  21.088  21.699   3.369
25807W        W94201  14.280  42.294   4.492
25808W        W94202  31.838  28.377  13.300
25809W        W94203  39.105   0.135   2.703
25810W        W94204  41.185  27.037  13.080
25811W        W94205  10.065  23.118   4.226
25812W        W94206  17.339  25.643  12.488
25813W        W94207  17.324   9.149   0.061
25814W        W94208  16.143   3.972  12.898
25815W        W94209  17.227   7.965   1.382
25816W        W94210  37.471  34.597   2.705
25817W        W94211   6.946  34.518   2.224
25818W        W94212   4.107  37.372   3.649
25819W        W94213  14.247   3.437   4.599
25820W        W94214   1.101   6.734   4.256
25821W        W94215  39.007  44.250   1.310
25822W        W94216  41.251   9.225  12.463
25823W        W94217  31.996  31.184   3.721
25824W        W94218  27.559  29.511  11.243
25825W        W94219  22.602  33.782  13.442
25826W        W94220  14.184  18.345  14.487
25827W        W94221  15.894  27.540  12.969
25828W        W94222  20.981  26.551   3.712
25829W        W94223  18.732  38.827   2.716
25830W        W94224  22.548  17.220  10.661
25831W        W94225  39.111  21.506  13.518
25832W        W94226   8.218  34.103   4.247
25833W        W94227  28.056  27.488  10.640
25834W        W94228  26.168  44.404   3.272
25835W        W94229   5.841  19.639   0.062
25836W        W94230  36.938   9.227   1.355
25837W        W94231  18.078  20.651   2.887
25838W        W94232  29.005   7.272  13.239
25839W        W94233  32.330   3.050  11.069
25840W        W94234  13.617  42.895  11.229
25841W        W94235  34.968  16.867   4.292
25842W        W94236   1.769   7.264   3.780
25843W        W94237  29.062  21.249   0.343
25844W        W94238   0.577   5.154   2.366
25845W        W94239  16.757  18.674   4.581
25846W        W94240   9.147  16.167  11.327
25847W        W94241  39.685  39.396   0.917
25848W        W94242  37.611  42.319  14.459
25849W        W94243   2.208  44.574   2.378
25850W        W94244  18.168  34.113   3.658
25851W        W94245   1.527  42.262   4.057
25852W        W94246  29.829   4.759   0.921
25853W        W94247   3.994   5.742   9.838
25854W        W94248  10.680  27.634   3.594
25855W        W94249  21.758   9.922  10.169
25856W        W94250  29.479  16.863  14.231
25857W        W94251  20.169  20.525  11.591
25858W        W94252   4.403  36.910   1.786
25859W        W94253  13.209  19.526   3.181
25860W        W94254  42.049  36.529   1.254
25861W        W94255   1.985  19.043   2.887
25862W        W94256   2.249  25.356  12.574
25863W        W94257  31.040  25.248  14.392
25864W        W94258  20.125  33.783   2.413
25865W        W94259  18.424  20.257  13.093
25866W        W94260  32.928   6.977  10.737
25867W        W94261  17.833  21.423   1.829
25868W        W94262  31.120  42.912  10.729
25869W        W94263  42.069  34.864  11.940
25870W        W94264  19.766   3.215   2.115
25871W        W94265   0.431  13.279   4.695
25872W        W94266  14.553  28.019  14.826
25873W        W94267  10.579  11.562  14.506
25874W        W94268   3.899  30.187  11.605
25875W        W94269  16.772  26.963   2.415
25876W        W94270  34.978   1.371   3.774
25877W        W94271  17.477  26.035   1.657
25878W        W94272  40.748  30.391  10.680
25879W        W94273   8.779  17.092  11.185
25880W        W94274  36.772  11.612   0.878
25881W        W94275  29.072  27.531   1.865
25882W        W94276  14.925  36.585  12.623
25883W        W94277   5.879  19.132   1.898
25884W        W94278  10.037  21.221   3.707
25885W        W94279  40.769  22.095   4.953
25886W        W94280  18.159   6.159   2.623
25887W        W94281  36.825  34.861  11.953
25888W        W94282   0.280  12.422   0.850
25889W        W94283   7.458  43.011  11.533
25890W        W94284   8.300   6.761   1.203
25891W        W94285  26.217  21.689   3.604
25892W        W94286  25.498  22.802  12.455
25893W        W94287  23.413  43.454   4.211
25894W        W94288  29.652  12.721  10.682
25895W        W94289   2.793  41.600  14.099
25896W        W94290  22.578  39.657   0.372
25897W        W94291   2.010   8.379   4.795
25898W        W94292  35.166  40.813  10.659
25899W        W94293  35.493  22.250  13.574
25900W        W94294  19.473  26.644   2.400
25901W        W94295   9.988   4.871  11.081
25902W        W94296  26.911  16.337  11.605
25903W        W94297  14.763  24.454  13.218
25904W        W94298  31.647  28.147   0.707
25905W        W94299  11.939  23.116  11.939
25906W        W94300  42.903  19.373  11.953
25907W        W94301  19.620  27.447   0.282
25908W        W94302   2.512  11.833   1.390
25909W        W94303  13.302  28.035   0.354
25910W        W94304  30.450   8.437  11.224
25911W        W94305  36.913  44.052   2.683
25912W        W94306  25.985  13.614  11.983
25913W        W94307  24.299  15.713  11.608
25914W        W94308   7.715  10.116   2.799
25915W        W94309  44.187  16.544   4.875
25916W        W94310   6.622  17.797   1.583
25917W        W94311  28.865  42.875   1.216
25918W        W94312  26.151  10.394  13.646
25919W        W94313  15.379   8.729   9.896
25920W        W94314  24.312  25.317  11.955
25921W        W94315  34.251  38.178  14.083
25922W        W94316  20.443  25.975   1.757
25923W        W94317  13.412  14.122   3.223
25924W        W94318   7.297  37.415   2.068
25925W        W94319  37.065  27.882   2.758
25926W        W94320  14.869   7.004   0.738
25927W        W94321  23.511  30.822   1.959
25928W        W94322  19.117  32.493  11.200
25929W        W94323   3.327  17.884   4.812
25930W        W94324  17.409  32.911  12.934
25931W        W94325  16.079  26.696  10.185
25932W        W94326  34.263   5.445  11.169
25933W        W94327  29.527  20.647  11.270
25934W        W94328  37.299   0.870   0.074
25935W        W94329   6.700   0.538   3.357
25936W        W94330  35.366  19.235  11.102
25937W        W94331  38.019  11.566   0.681
25938W        W94332  21.519  30.960   5.138
25939W        W94333  11.221  15.645  14.852
25940W        W94334  34.536  30.909   1.169
25941W        W94335  44.314   2.245   0.419
25942W        W94336   5.120  25.463   2.741
25943W        W94337  20.534  12.583   0.784
25944W        W94338  36.796   3.332   1.878
25945W        W94339   5.431  29.286  13.345
25946W        W94340  41.636   9.079   1.775
25947W        W94341   8.663  23.135   2.428
25948W        W94342  17.194  10.475   1.388
25949W        W94343  19.564  18.550   1.902
25950W        W94344  12.785  39.798  11.012
25951W        W94345   9.445  10.380   3.229
25952W        W94346  40.985  33.092  14.207
25953W        W94347  20.967  44.782  13.121
25954W        W94348  20.637  15.802   1.946
25955W        W94349  28.609  41.960   2.761
25956W        W94350   3.310  41.210  10.335
25957W        W94351  30.518  36.078   4.584
25958W        W94352  33.102  37.994  12.140
25959W        W94353  11.135  44.414   3.273
25960W        W94354  41.107  11.849  12.076
25961W        W94355  19.107  31.489   1.511
25962W        W94356  25.388  41.518  11.158
25963W        W94357  10.065  11.884  12.947
25964W        W94358  26.149   0.344  12.064
25965W        W94359   4.955   7.264   1.981
25966W        W94360  27.153  31.584  14.555
25967W        W94361  24.953   1.173  14.589
25968W        W94362  25.630  22.915  13.493
25969W        W94363  25.577   5.931   0.692
25970W        W94364  37.614  17.173  14.772
25971W        W94365   7.088  29.516  11.435
25972W        W94366  27.071   9.161  13.152
25973W        W94367  25.399  31.123   3.190
25974W        W94368  14.847  37.383  10.661
25975W        W94369  13.883  36.039   2.202
25976W        W94370   5.380  29.110   5.017
25977W        W94371  12.139   8.445  14.950
25978W        W94372  18.917  33.603  12.399
25979W        W94373   4.727  14.486  14.253
25980W        W94374  24.246   7.482   2.512
25981W        W94375  19.627   0.280   3.714
25982W        W94376  23.734  10.228   1.844
25983W        W94377   1.012  24.027   0.809
25984W        W94378  32.844  37.073   0.975
25985W        W94379  41.618   2.478   0.746
25986W        W94380  35.620  24.931  13.300
25987W        W94381  28.448   0.928   0.681
25988W        W94382   7.850  24.245   2.847
25989W        W94383  19.195   0.001   2.447
25990W        W94384   2.527  22.976  13.494
25991W        W94385   8.056   2.173   0.268
25992W        W94386  32.050  13.502  10.724
25993W        W94387  29.508  33.801   3.935
25994W        W94388  34.267  40.064   3.259
25995W        W94389  10.238  43.101  12.442
25996W        W94390  28.617  14.833   2.574
25997W        W94391   2.474  22.246  11.631
25998W        W94392  24.055  38.865  12.975
25999W        W94393  40.280  16.558   4.953
26000W        W94394  11.548   3.299  10.592
26001W        W94395  12.209  40.327   3.438
26002W        W94396  13.449  16.168  12.396
26003W        W94397   2.028  13.698   0.385
26004W        W94398  31.385   4.181   2.190
26005W        W94399   2.576  38.256   0.405
26006W        W94400   8.508  11.417   4.701
26007W        W94401  44.118  37.095   1.604
26008W        W94402  19.473   7.340  10.584
26009W        W94403  17.615  39.382  12.471
26010W        W94404  16.625  19.606  11.005
26011W        W94405   0.156  21.434  10.674
26012W        W94406   5.763  17.820   1.505
26013W        W94407  27.928  39.170  13.418
26014W        W94408  28.554  22.598  12.203
26015W        W94409  28.665  38.501  11.885
26016W        W94410  38.517   8.461  14.531
26017W        W94411  12.450  25.863   0.859
26018W        W94412  27.766  41.897   0.267
26019W        W94413  12.610  32.376   0.054
26020W        W94414  13.034  25.766   1.709
26021W        W94415  28.603  33.809   2.883
26022W        W94416   4.874  35.108  11.694
26023W        W94417  10.791   8.876  12.378
26024W        W94418  31.442  33.643   4.383
26025W        W94419   8.640  34.343  12.492
26026W        W94420   1.317  43.952   4.076
26027W        W94421  28.408  35.091  13.491
26028W        W94422  26.355   5.769   0.305
26029W        W94423   7.807  29.183  13.867
26030W        W94424  21.641  44.482  12.868
26031W        W94425   8.775  35.461  13.471
26032W        W94426  23.216  19.772  12.144
26033W        W94427  43.365   1.035   4.716
26034W        W94428  18.776  35.613   0.149
26035W        W94429  30.568  42.572  12.802
26036W        W94430  25.655  34.378  11.228
26037W        W94431  13.719  29.090  12.025
26038W        W94432  37.805  25.244   1.660
26039W        W94433   8.657   9.727   3.392
26040W        W94434  34.898  12.296   2.944
26041W        W94435  36.593  23.961  11.600
26042W        W94436  22.252  19.270   1.317
26043W        W94437  25.727  35.109  11.926
26044W        W94438  23.123  25.003  12.387
26045W        W94439   4.368  29.982  12.609
26046W        W94440  41.795  18.517  10.731
26047W        W94441  16.288  18.859   1.815
26048W        W94442  24.961   0.721   1.805
26049W        W94443  36.496  41.801  13.089
26050W        W94444  32.488  22.440  14.730
26051W        W94445  19.944  20.112  11.397
26052W        W94446   8.127  43.750   1.182
26053W        W94447  40.949  27.056  11.538
26054W        W94448  36.565  12.507  13.674
26055W        W94449  17.163   1.838   4.622
26056W        W94450  33.914  34.435  12.584
26057W        W94451  30.369  20.103  14.468
26058W        W94452  18.671  25.022   0.038
26059W        W94453  40.188  21.275   0.149
26060W        W94454  42.894   4.974   3.963
26061W        W94455  25.143  37.582  14.911
26062W        W94456  28.084  19.025   2.394
26063W        W94457   1.775  35.486   4.595
26064W        W94458  33.819  19.067   2.839
26065W        W94459  23.581   1.963  11.793
26066W        W94460  16.535   1.851  14.835
26067W        W94461   9.953  13.424   3.283
26068W        W94462  23.253  37.201  11.705
26069W        W94463  38.096  26.630   1.651
26070W        W94464  13.275  25.520  14.738
26071W        W94465  32.339  44.784  12.129
26072W        W94466  27.100  13.638   4.371
26073W        W94467   9.284  18.123   2.817
26074W        W94468  16.434  42.851  13.199
26075W        W94469  32.870  24.249  12.142
26076W        W94470  24.079   0.778   0.398
26077W        W94471   0.535  42.492   4.376
26078W        W94472   9.347  35.322   3.351
26079W        W94473   6.918  18.566  14.709
26080W        W94474  39.124  15.750  13.870
26081W        W94475   4.904   3.342  13.254
26082W        W94476  38.246  28.156  14.522
26083W        W94477  32.754  21.095  14.385
26084W        W94478  35.497  12.134  14.127
26085W        W94479   0.848  15.184   1.910
26086W        W94480  30.648   8.968   3.756
26087W        W94481   7.577   6.231  10.702
26088W        W94482  28.383  42.225   1.015
26089W        W94483  21.058  28.805  13.508
26090W        W94484  25.485  24.538   3.239
26091W        W94485   6.381  21.163   4.917
26092W        W94486  30.347  24.085  10.481
26093W        W94487  32.077  37.397  11.103
26094W        W94488  19.705  29.899   2.785
26095W        W94489  38.093  39.537   4.422
26096W        W94490   3.855  36.030  13.547
26097W        W94491  13.616   3.463   1.849
26098W        W94492  12.040   6.723   1.440
26099W        W94493  20.849   9.355  14.333
26100W        W94494  12.275  37.413   4.215
26101W        W94495   6.806  14.814   0.951
26102W        W94496  10.453  14.233  14.813
26103W        W94497  32.580   2.091   4.249
26104W        W94498  33.833   5.810   4.524
26105W        W94499  13.185  21.725   4.082
26106W        W94500  42.477  17.858  14.353
26107W        W94501  43.519   5.755   2.471
26108W        W94502  24.299  33.472  11.554
26109W        W94503   9.767  23.113   0.262
26110W        W94504  40.292  17.084  12.872
26111W        W94505  37.808  32.632   0.721
26112W        W94506   8.121  25.996   2.118
26113W        W94507   3.677  24.416   2.653
26114W        W94508  11.849  27.517   3.745
26115W        W94509   7.764  30.533   1.532
26116W        W94510   0.461  21.265  13.040
26117W        W94511   0.035  35.843  12.494
26118W        W94512  33.386   1.731  11.212
26119W        W94513  23.715  35.900  13.809
26120W        W94514  35.359   6.773  14.874
26121W        W94515  17.813   8.203   4.109
26122W        W94516   4.718   6.616  10.569
26123W        W94517   2.699   9.579   1.596
26124W        W94518  34.403  43.428   3.026
26125W        W94519  36.825  22.475  12.366
26126W        W94520   1.967  26.713   2.019
26127W        W94521  38.003  32.589  12.444
26128W        W94522  22.208  40.295   4.385
26129W        W94523  27.988  29.511   3.619
26130W        W94524  30.495  12.959   3.142
26131W        W94525   0.454  36.414   2.438
26132W        W94526  14.176  37.306   2.413
26133W        W94527  24.549  36.799   4.915
26134W        W94528   4.104  26.130   3.797
26135W        W94529  22.919  29.558   4.760
26136W        W94530  15.984   4.853  12.034
26137W        W94531   4.686   0.646  11.597
26138W        W94532  19.134  44.453   2.177
26139W        W94533  39.764   7.165  10.798
26140W        W94534  14.762  23.565   4.581
26141W        W94535  18.858  32.892  14.852
26142W        W94536  21.750   5.891  12.450
26143W        W94537  30.917  30.503  14.822
26144W        W94538  42.262   7.627   3.157
26145W        W94539   8.213   6.996  14.887
26146W        W94540  43.239  24.583   4.307
26147W        W94541   2.821  25.289  13.325
26148W        W94542  43.818  18.168  12.561
26149W        W94543   1.156   8.809   4.762
26150W        W94544  16.312  23.523   1.923
26151W        W94545  17.095  10.332   2.908
26152W        W94546  38.418  20.143   0.824
26153W        W94547  21.752  32.584   2.612
26154W        W94548  19.588   4.736  11.072
26155W        W94549  12.707  12.252  13.935
26156W        W94550  24.293  14.545  11.116
26157W        W94551  15.304   1.708  13.846
26158W        W94552  26.325  24.522   0.005
26159W        W94553  13.863  10.681   4.644
26160W        W94554  22.272  31.922   2.342
26161W        W94555   8.346   2.908   4.171
26162W        W94556  13.607  18.236  13.736
26163W        W94557   6.980   8.342   2.860
26164W        W94558  11.882  17.063   1.656
26165W        W94559  15.396  27.732  13.045
26166W        W94560  29.011  24.709  14.978
26167W        W94561  23.277  38.595   1.430
26168W        W94562   5.390  22.931  10.486
26169W        W94563  43.900  11.329  13.889
26170W        W94564  18.731  42.283   0.944
26171W        W94565  17.475   7.242  10.743
26172W        W94566  39.838   3.027   3.239
26173W        W94567  39.025   3.674  10.870
26174W        W94568  41.489  14.338  11.482
26175W        W94569   5.661   3.885   3.121
26176W        W94570  30.889  11.812   0.417
26177W        W94571  13.902   1.146  12.505
26178W        W94572  15.034   7.981  12.583
26179W        W94573   0.322  38.896  11.026
26180W        W94574  12.466  34.337  12.514
26181W        W94575  24.680  15.408   4.169
26182W        W94576  40.890  16.033   2.332
26183W        W94577  37.071  20.146  10.780
26184W        W94578   3.843  37.466   0.303
26185W        W94579   1.881   5.918   4.651
26186W        W94580  28.626  42.375   4.100
26187W        W94581  21.370  25.650   5.100
26188W        W94582   0.737  17.181   4.837
26189W        W94583  21.695  17.202   1.722
26190W        W94584   5.610   8.314   2.015
26191W        W94585  16.573  44.018   4.326
26192W        W94586  20.827   6.745   2.357
26193W        W94587  42.746   9.788  10.652
26194W        W94588  39.043   7.654   4.706
26195W        W94589  14.743   4.848  14.473
26196W        W94590  41.011  18.497  11.484
26197W        W94591  34.357   0.990  11.590
26198W        W94592  33.298  30.144  13.437
26199W        W94593   2.927  30.023   4.597
26200W        W94594   8.784  34.069   3.504
26201W        W94595  27.988   3.353  11.600
26202W        W94596  42.258  31.915  14.026
26203W        W94597  31.431  24.536   1.877
26204W        W94598  37.545   8.619  10.594
26205W        W94599   4.878  36.385  11.731
26206W        W94600  39.054   4.818  10.417
26207W        W94601  21.244  28.931   2.272
26208W        W94602  39.631  21.485  14.952
26209W        W94603  14.062  31.640  13.092
26210W        W94604   2.510   5.841   3.840
26211W        W94605   5.457  35.712   1.018
26212W        W94606   3.581  11.979   1.838
26213W        W94607   6.787  20.495  12.289
26214W        W94608  37.585  23.082  12.714
26215W        W94609  11.121  39.361   4.008
26216W        W94610  43.266  37.540  12.991
26217W        W94611  37.229  32.421  13.348
26218W        W94612  17.526  22.619  12.215
26219W        W94613  13.605  15.113   2.791
26220W        W94614  25.536  24.314   4.545
26221W        W94615  41.013  16.513  13.345
26222W        W94616  10.980  18.814   3.101
26223W        W94617   9.584  22.141   2.323
26224W        W94618  24.639  17.269   0.087
26225W        W94619  29.010  18.651  10.695
26226W        W94620  39.986  39.087  10.157
26227W        W94621  17.998  32.616   2.416
26228W        W94622  32.269   8.648   4.199
26229W        W94623  14.210   4.678   1.906
26230W        W94624  42.504   7.390  13.957
26231W        W94625   7.625  43.410  10.648
26232W        W94626  23.497  37.912   0.030
26233W        W94627  22.293  38.383   2.191
26234W        W94628   7.115  10.242  10.763
26235W        W94629  23.502   0.014   1.339
26236W        W94630  16.182  13.215   4.663
26237W        W94631  41.828   7.380   4.614
26238W        W94632  32.298  35.527  12.612
26239W        W94633  13.290  13.079  10.647
26240W        W94634  29.622  40.374  13.453
26241W        W94635  42.026  23.514   3.654
26242W        W94636  42.564  16.434   0.561
26243W        W94637  42.025  20.199  10.643
26244W        W94638  44.842  11.145   1.276
26245W        W94639  44.321  36.628  13.638
26246W        W94640  36.063  15.581   4.868
26247W        W94641  38.996  34.562  13.844
26248W        W94642  34.318  44.315  12.506
26249W        W94643   0.802  37.348   3.098
26250W        W94644   4.260  43.545  12.080
26251W        W94645  42.458  11.600  14.898
26252W        W94646  11.440  16.048  13.121
26253W        W94647  30.272  16.506  13.499
26254W        W94648  12.452  22.273   3.797
26255W        W94649  32.133   0.488  10.704
26256W        W94650  14.358  27.160  13.476
26257W        W94651  41.549  43.381   3.708
26258W        W94652  37.940   5.733   3.149
26259W        W94653  12.226  20.774  14.219
26260W        W94654  41.388  19.685   2.609
26261W        W94655  11.143  15.660   4.516
26262W        W94656   6.219  40.340  10.657
26263W        W94657  40.937  36.136  12.861
26264W        W94658  37.913  26.280   4.602
26265W        W94659   5.141  19.349  13.830
26266W        W94660   8.653  42.677  13.881
26267W        W94661  38.534   6.567  12.367
26268W        W94662   6.737   3.519  14.891
26269W        W94663  42.656  40.548   5.077
26270W        W94664  40.894  35.472   0.728
26271W        W94665   8.625  33.510  12.176
26272W        W94666  19.652  18.671   3.343
26273W        W94667   4.993  44.941   2.461
26274W        W94668   2.166  25.246   1.699
26275W        W94669   3.480  31.582   4.995
26276W        W94670  33.964  14.575   3.358
26277W        W94671  30.817  43.208  11.008
26278W        W94672  41.812  12.074  10.643
26279W        W94673   6.328  35.570   2.012
26280W        W94674  19.331  11.221  10.726
26281W        W94675  19.496   0.086  14.024
26282W        W94676  28.684  24.588   1.811
26283W        W94677  26.213  34.656   3.203
26284W        W94678  35.583  26.709  12.828
26285W        W94679   7.721  41.021   4.541
26286W        W94680  10.786  36.585   0.783
26287W        W94681  37.894  14.115  12.158
26288W        W94682   6.169   7.706   3.560
26289W        W94683   4.410  14.241   2.863
26290W        W94684  15.255  23.032  11.124
26291W        W94685  21.219  43.780  11.581
26292W        W94686  20.889  10.891   1.914
26293W        W94687  37.933   9.490  10.725
26294W        W94688  25.473  12.742  12.562
26295W        W94689   3.263  18.781  14.376
26296W        W94690  38.094  34.939   0.390
26297W        W94691  37.748  33.161   0.799
26298W        W94692   9.599  15.298  14.808
26299W        W94693  30.307  19.881  13.582
26300W        W94694  16.173  32.072  13.877
26301W        W94695  16.737   7.455   3.156
26302W        W94696   2.962  18.535  12.059
26303W        W94697  36.797  21.655  14.280
26304W        W94698  24.376  36.855   2.598
26305W        W94699  21.665   2.008  14.098
26306W        W94700  35.449  15.565   4.339
26307W        W94701   8.583   4.253   3.246
26308W        W94702   1.313  44.969   4.550
26309W        W94703   3.885  27.898   3.583
26310W        W94704  40.354  31.181   0.398
26311W        W94705  33.467   1.531  13.863
26312W        W94706  43.137  17.836  11.243
26313W        W94707  11.823  18.279  14.924
26314W        W94708  22.065  31.751  11.103
26315W        W94709  44.086  21.585  12.550
26316W        W94710  41.832  44.326  10.334
26317W        W94711  24.712  40.975   1.520
26318W        W94712  18.830  32.718  13.006
26319W        W94713  28.534  40.893  12.844
26320W        W94714  16.838  23.976   4.159
26321W        W94715  19.056  40.372   3.691
26322W        W94716  23.358  41.065   3.534
26323W        W94717  35.953   2.472  11.584
26324W        W94718  42.890  17.510   1.422
26325W        W94719  36.947  40.648   2.263
26326W        W94720  27.038   9.842   2.360
26327W        W94721  27.202  13.300   3.201
26328W        W94722   9.570  27.165  13.867
26329W        W94723  32.481   2.985   3.388
26330W        W94724  25.511   3.780   3.843
26331W        W94725  22.727  36.271  12.088
26332W        W94726   4.966  25.892  13.330
26333W        W94727   7.292  22.629   1.423
26334W        W94728  15.423  23.969  13.382
26335W        W94729   6.669   2.239   5.381
26336W        W94730  32.426  27.974  10.596
26337W        W94731   9.677  25.933  12.822
26338W        W94732  39.044  25.629   3.294
26339W        W94733  25.677  20.166  12.072
26340W        W94734   2.326  34.404  14.796
26341W        W94735  10.211  24.340   5.390
26342W        W94736  22.997  19.208  12.361
26343W        W94737  44.018   4.206   3.087
26344W        W94738  43.945  13.889  11.187
26345W        W94739  38.063   3.160  11.507
26346W        W94740  42.085  21.109   4.948
26347W        W94741  28.811  39.841   1.885
26348W        W94742  34.485  36.027  12.030
26349W        W94743  23.899  35.217  12.034
26350W        W94744  33.356  36.496  12.146
26351W        W94745  11.296   3.120   0.321
26352W        W94746  44.731  19.500   2.182
26353W        W94747  14.079   7.971  13.945
26354W        W94748  10.771  10.756   0.924
26355W        W94749   6.588   3.540   2.296
26356W        W94750  16.865   5.342   3.268
26357W        W94751  38.723  25.705   4.295
26358W        W94752  43.824  38.588   3.757
26359W        W94753  29.917  41.073  14.485
26360W        W94754  31.386   3.823   2.894
26361W        W94755   2.821   8.749  11.092
26362W        W94756  35.902  35.784   4.095
26363W        W94757  12.933   6.477   1.249
26364W        W94758  37.842  31.329  12.000
26365W        W94759   4.421  43.080   0.729
26366W        W94760   6.979  36.153  10.763
26367W        W94761  41.958  38.989  12.570
26368W        W94762  37.949  37.549   3.632
26369W        W94763  35.278  17.104  11.878
26370W        W94764  20.998   4.932  13.465
26371W        W94765  16.746  27.822   1.879
26372W        W94766   1.399  39.512   3.203
26373W        W94767  25.392  22.464   5.170
26374W        W94768   7.913  42.547   0.485
26375W        W94769  39.359  43.771  11.549
26376W        W94770  24.754  22.942   0.834
26377W        W94771  38.000  21.645  12.632
26378W        W94772   2.375  39.836   0.470
26379W        W94773  41.011  36.417  10.671
26380W        W94774   9.574  32.584  12.480
26381W        W94775  24.381  18.617   4.561
26382W        W94776  25.218  29.887   4.872
26383W        W94777  13.722  30.949  14.465
26384W        W94778  11.390  29.958   1.311
26385W        W94779  21.115  29.828   4.160
26386W        W94780   2.372  13.361   3.747
26387W        W94781  17.497   7.589  13.375
26388W        W94782   4.597   5.817  14.053
26389W        W94783  35.294  32.929  14.978
26390W        W94784   3.173  16.748   2.373
26391W        W94785   8.614   1.990   2.761
26392W        W94786   9.560   1.365   4.523
26393W        W94787  24.053   2.283   0.394
26394W        W94788  34.542  15.336  10.274
26395W        W94789  30.077   4.004  13.779
26396W        W94790  12.915  44.304   3.660
26397W        W94791  21.184   0.132   3.644
26398W        W94792  42.990  39.483  13.307
26399W        W94793  17.764  21.663   4.697
26400W        W94794   7.435  30.846  12.226
26401W        W94795  24.939  27.811   2.208
26402W        W94796  39.444   0.382  12.331
26403W        W94797  22.016  12.837   2.040
26404W        W94798  38.061  13.823  13.984
26405W        W94799  39.957  31.523  10.795
26406W        W94800  15.372  11.869  12.508
26407W        W94801  25.438  28.794   4.961
26408W        W94802  38.568   5.325  13.988
26409W        W94803   7.019  20.806   3.308
26410W        W94804  28.644  23.902   4.129
26411W        W94805  35.921  21.571   3.427
26412W        W94806   5.426  20.489  14.488
26413W        W94807  11.659  27.587   3.277
26414W        W94808  22.611  24.997  10.677
26415W        W94809  17.511   0.955   1.126
26416W        W94810  23.152  12.913  13.052
26417W        W94811  25.061  44.769  10.213
26418W        W94812  22.725  34.877   0.313
26419W        W94813   1.792  15.942  10.239
26420W        W94814   5.646  17.207  10.514
26421W        W94815  27.553  32.137   1.344
26422W        W94816  21.027  43.795   3.340
26423W        W94817  14.993  32.531   0.714
26424W        W94818  25.178  13.711   1.042
26425W        W94819   3.470  30.749  13.467
26426W        W94820  25.993  38.192   2.826
26427W        W94821  19.144  14.282   0.251
26428W        W94822  32.952  21.664   2.128
26429W        W94823  14.253  29.551   3.165
26430W        W94824   5.359  28.576   4.245
26431W        W94825  20.665   4.157  13.516
26432W        W94826  29.691   3.260   5.020
26433W        W94827   7.123  27.879   0.013
26434W        W94828   9.634   1.464   3.140
26435W        W94829  19.193  29.729   2.704
26436W        W94830  32.793  13.667  11.182
26437W        W94831  42.713  28.170  11.141
26438W        W94832  21.344  44.451   2.779
26439W        W94833  16.439  20.146   0.818
26440W        W94834   2.985  38.987   2.756
26441W        W94835  36.825  10.745   4.303
26442W        W94836  37.499  17.635   2.899
26443W        W94837  39.433  29.391  14.991
26444W        W94838  20.558  21.438  10.614
26445W        W94839  30.715  30.638   4.159
26446W        W94840  36.184  41.399   4.650
26447W        W94841  39.368  30.508   4.150
26448W        W94842  44.423  20.179   1.858
26449W        W94843  32.890  26.045  13.557
26450W        W94844  43.746  39.109  11.128
26451W        W94845  26.155  43.459   4.040
26452W        W94846  24.272   0.623  13.800
26453W        W94847  21.601  27.467   0.858
26454W        W94848   1.436  11.978  12.995
26455W        W94849  22.145  20.523  13.996
26456W        W94850  29.849   9.976   2.154
26457W        W94851   1.803   0.625  11.281
26458W        W94852  43.581  29.011  12.710
26459W        W94853   0.099  25.268  11.680
26460W        W94854  29.063  29.694   2.907
26461W        W94855   9.678  10.479  14.165
26462W        W94856  35.457  35.913  13.457
26463W        W94857  18.234  40.586   0.838
26464W        W94858  18.564  43.365  13.999
26465W        W94859  39.932  26.225  11.994
26466W        W94860  26.878  11.588  10.242
26467W        W94861  10.310  44.053   2.161
26468W        W94862  28.008  25.882   1.740
26469W        W94863  35.859  37.011  13.576
26470W        W94864  24.460  40.048  12.996
26471W        W94865  11.105   4.244  10.744
26472W        W94866  13.971  24.486  12.180
26473W        W94867  10.134  21.603  13.420
26474W        W94868  24.569  39.957   0.525
26475W        W94869  33.036  38.451   0.222
26476W        W94870  14.080   9.742   2.313
26477W        W94871  10.295  26.770   1.729
26478W        W94872  11.638  20.543  11.647
26479W        W94873   1.716  27.488   2.410
26480W        W94874  20.635  10.628   1.144
26481W        W94875  37.294  19.238  14.367
26482W        W94876  19.239   4.460   1.959
26483W        W94877  25.228  20.504  12.030
26484W        W94878  40.000  29.910   3.868
26485W        W94879  20.017  43.172  12.858
26486W        W94880   7.302  26.458  10.996
26487W        W94881  22.791  35.114  13.431
26488W        W94882  27.563  39.878  12.332
26489W        W94883  30.895   5.369  12.863
26490W        W94884  42.744  32.112  13.464
26491W        W94885  24.025  21.705  14.996
26492W        W94886  38.436   6.882   4.733
26493W        W94887   7.912  34.420   1.258
26494W        W94888  44.575   7.934  11.181
26495W        W94889   0.428  37.793  12.187
26496W        W94890  38.119  27.644   2.579
26497W        W94891   0.724   7.627  14.947
26498W        W94892  40.743  19.232  12.479
26499W        W94893  24.964  40.631  11.564
26500W        W94894  27.613  40.774  13.507
26501W        W94895  19.225   7.838  13.909
26502W        W94896  20.858  29.134  11.618
26503W        W94897  27.729  24.537  13.326
26504W        W94898  18.050  24.847  12.142
26505W        W94899   7.757  16.820  14.002
26506W        W94900  38.083  28.252   3.789
26507W        W94901  25.217  36.828  11.036
26508W        W94902  38.517  25.630   3.272
26509W        W94903  22.881  17.124   1.380
26510W        W94904   8.082  33.948   1.886
26511W        W94905  27.858  20.489  14.882
26512W        W94906   7.554  42.926   0.661
26513W        W94907   0.461  44.490   4.224
26514W        W94908  35.400  28.637   1.918
26515W        W94909  29.088  22.774  11.393
26516W        W94910  26.165  35.543  14.184
26517W        W94911  11.198  22.185  13.473
26518W        W94912  20.319  24.074  11.990
26519W        W94913   5.936  31.640   0.711
26520W        W94914   4.318  19.396   2.802
26521W        W94915   0.750  38.300   3.807
26522W        W94916  41.971  36.622  14.199
26523W        W94917  38.745  29.017  14.291
26524W        W94918  15.711  37.679  11.505
26525W        W94919  19.813  42.965  13.659
26526W        W94920  23.513  33.331   2.262
26527W        W94921  26.514  38.629  10.327
26528W        W94922  17.547  10.015   2.207
26529W        W94923  12.175   4.800   2.122
26530W        W94924  16.643  19.413  12.490
26531W        W94925  28.377  33.902  14.847
26532W        W94926  28.979  34.533   0.756
26533W        W94927  37.343  28.118  13.034
26534W        W94928   5.646  24.145   0.270
26535W        W94929   9.868  34.199  12.506
26536W        W94930  27.272  35.463   3.555
26537W        W94931  30.562  43.769   3.712
26538W        W94932  28.586  31.804   3.846
26539W        W94933  15.663  15.822  10.573
26540W        W94934  29.020  39.075  14.104
26541W        W94935  20.562   4.271   4.740
26542W        W94936  41.257  37.144  13.040
26543W        W94937  39.828   4.216  13.027
26544W        W94938  12.728   9.933  12.307
26545W        W94939   5.915  28.458  12.968
26546W        W94940   1.598  21.155   1.853
26547W        W94941  40.912  38.813   4.557
26548W        W94942  41.388  24.571   1.224
26549W        W94943  16.583  39.326   0.429
26550W        W94944  37.860  42.153   1.910
26551W        W94945   4.913   5.117  12.897
26552W        W94946  37.837   7.304  12.407
26553W        W94947  43.034  14.113   0.332
26554W        W94948  11.358  40.749  12.924
26555W        W94949  15.057  28.164  11.781
26556W        W94950  42.108  35.534   4.159
26557W        W94951  39.764   6.658  10.737
26558W        W94952  12.211   4.273   3.751
26559W        W94953  30.975  25.077  12.412
26560W        W94954  44.142  16.859  13.738
26561W        W94955  30.399  15.105  14.340
26562W        W94956  10.198  32.467   3.734
26563W        W94957  39.028  12.753  10.205
26564W        W94958  16.159   4.855   0.372
26565W        W94959  11.163  12.280  11.274
26566W        W94960   5.732   0.746  10.960
26567W        W94961  19.246  38.845   2.756
26568W        W94962  35.576  28.251  14.599
26569W        W94963  42.029  14.629   0.477
26570W        W94964   5.571  16.766  13.462
26571W        W94965  37.203  13.783  10.920
26572W        W94966  38.901  31.048  13.034
26573W        W94967   9.574  15.259   3.056
26574W        W94968  29.197  14.560  12.075
26575W        W94969  35.361  25.914   3.720
26576W        W94970  40.582   0.361   4.780
26577W        W94971  34.112  31.867   1.323
26578W        W94972  21.534  13.098   1.769
26579W        W94973  31.084  19.800  14.018
26580W        W94974  28.054  15.641  10.772
26581W        W94975  44.007   6.985   2.291
26582W        W94976  40.543  28.899  14.911
26583W        W94977  41.444  40.063   4.298
26584W        W94978  12.796  43.773  14.725
26585W        W94979  34.964  30.487   1.789
26586W        W94980  14.524   1.955   2.289
26587W        W94981  36.333  37.793   0.970
26588W        W94982  24.618  31.061  10.704
26589W        W94983  32.639  28.430  13.950
26590W        W94984  40.289  11.361  11.099
26591W        W94985  18.135   5.239  13.580
26592W        W94986   8.264  10.871  12.870
26593W        W94987  15.124  41.579   0.830
26594W        W94988  30.945   4.241  11.258
26595W        W94989  29.872  41.170   4.947
26596W        W94990  26.562  36.043   3.570
26597W        W94991  41.273  43.079   4.045
26598W        W94992  30.241  29.962  13.133
26599W        W94993  42.953  19.542   0.778
26600W        W94994  30.381  20.181  11.203
26601W        W94995  18.201  27.888  11.664
26602W        W94996   2.330  43.818   3.612
26603W        W94997   6.037  32.952  11.095
26604W        W94998  39.497  16.937   4.335
26605W        W94999  28.085   8.644  14.646
26606W        W95000  30.026  33.368  12.382
26607W        W95001  11.955  18.011  12.331
26608W        W95002  16.169  29.520   2.950
26609W        W95003   6.656   2.346   1.165
26610W        W95004   4.810  42.743  10.634
26611W        W95005  36.150  26.161   4.334
26612W        W95006  11.935   3.823   4.972
26613W        W95007  42.542  27.079   4.181
26614W        W95008   0.365  36.333  12.851
26615W        W95009  36.782   0.202  10.411
26616W        W95010   4.983  11.759   4.105
26617W        W95011  42.983  36.664  11.192
26618W        W95012  21.530   3.196  11.141
26619W        W95013  10.712   8.418  12.580
26620W        W95014  37.786  21.906   0.927
26621W        W95015  18.175  19.688   3.156
26622W        W95016  30.751   2.740  13.435
26623W        W95017  29.357  21.670   0.410
26624W        W95018  37.110  21.897   4.336
26625W        W95019  22.238  39.836   4.608
26626W        W95020   7.733  18.627   3.264
26627W        W95021  17.068  10.094  14.957
26628W        W95022  12.929  44.390  12.925
26629W        W95023  14.805  38.008  14.450
26630W        W95024   2.439   3.321   4.556
26631W        W95025  17.680  42.379  10.514
26632W        W95026   8.141  12.925  13.995
26633W        W95027  29.050  16.022   3.655
26634W        W95028   6.374   6.329   5.122
26635W        W95029  10.784  26.115  11.449
26636W        W95030  30.244   0.527  12.972
26637W        W95031  42.909   6.917   2.556
26638W        W95032  41.864   4.887  12.899
26639W        W95033  38.280  34.930  13.988
26640W        W95034   1.417  42.532  10.893
26641W        W95035  31.670  28.895   3.790
26642W        W95036  38.047   4.357  13.974
26643W        W95037   6.379  29.175  12.408
26644W        W95038  34.800   8.148  12.557
26645W        W95039  40.485  17.871   3.166
26646W        W95040  27.548  38.832   0.669
26647W        W95041  30.955  29.651   3.056
26648W        W95042  23.647  10.207  13.493
26649W        W95043  10.802  22.639   1.324
26650W        W95044  27.022  26.990   1.253
26651W        W95045  16.738  43.023  12.044
26652W        W95046  13.716   7.787   3.978
26653W        W95047  18.305  30.282   0.366
26654W        W95048  29.930  31.551  11.190
26655W        W95049  36.932  25.223  14.001
26656W        W95050  13.740  24.969   0.416
26657W        W95051  31.415   8.286  12.080
26658W        W95052  40.305  13.879  12.572
26659W        W95053   9.336  17.919  10.973
26660W        W95054  12.766   3.270  12.477
26661W        W95055   0.811  30.100  12.866
26662W        W95056  24.389  10.903   3.688
26663W        W95057  15.348   0.086  11.863
26664W        W95058  39.536  13.816  14.506
26665W        W95059  30.147   4.180   3.039
26666W        W95060  30.002   5.461  12.462
26667W        W95061  39.068  39.069  13.768
26668W        W95062  34.165  13.239   0.260
26669W        W95063  39.816  37.839   4.261
26670W        W95064  11.641   7.032  14.486
26671W        W95065  22.158  15.784   0.225
26672W        W95066   5.667   0.301   4.500
26673W        W95067  42.504  42.906   2.057
26674W        W95068  21.049  38.534   2.679
26675W        W95069   6.685  40.319  10.923
26676W        W95070  20.617  26.844  13.519
26677W        W95071   6.809  24.685   2.231
26678W        W95072  18.115  31.660   3.319
26679W        W95073  40.922  38.081   0.235
26680W        W95074  28.920  30.040   2.432
26681W        W95075  34.647   8.273  14.330
26682W        W95076   0.485  33.073  14.385
26683W        W95077  22.309  11.234  14.870
26684W        W95078  34.039  21.491   1.347
26685W        W95079   6.361   7.736   0.835
26686W        W95080   0.975  17.270  11.204
26687W        W95081   1.825  27.461   4.494
26688W        W95082  40.440   6.776  14.294
26689W        W95083  16.651  20.718   1.691
26690W        W95084  16.681  43.872  12.498
26691W        W95085  36.063  16.048  10.776
26692W        W95086  40.973  33.487   2.388
26693W        W95087   0.992   2.545   2.336
26694W        W95088  13.996  31.523  13.587
26695W        W95089   5.157  20.554  10.776
26696W        W95090  24.098  39.114  13.519
26697W        W95091  18.711  32.503   4.082
26698W        W95092   9.571  17.822   4.030
26699W        W95093  27.888  13.896   3.339
26700W        W95094  35.171  31.456  10.707
26701W        W95095  43.373  30.592  13.998
26702W        W95096  17.084  41.846   3.430
26703W        W95097  36.877  12.561  14.828
26704W        W95098   4.953  40.091   3.282
26705W        W95099  42.440   6.126   4.585
26706W        W95100  34.323   5.459  12.018
26707W        W95101  30.019  36.934  13.827
26708W        W95102  42.476   7.445   3.717
26709W        W95103  11.165   6.007   4.178
26710W        W95104  24.529  26.966   0.398
26711W        W95105  21.581  30.849   0.347
26712W        W95106   8.321   6.263  13.465
26713W        W95107   9.730  40.520  10.754
26714W        W95108  35.384   9.795  12.429
26715W        W95109  25.077  23.197   4.761
26716W        W95110  15.598  32.618   3.319
26717W        W95111  10.886  17.143  13.143
26718W        W95112  12.593   0.669  10.760
26719W        W95113  34.646   3.734   4.291
26720W        W95114  39.942   1.443   0.248
26721W        W95115  29.052  37.562   2.771
26722W        W95116  30.553  28.020  11.429
26723W        W95117  30.643  25.560  14.210
26724W        W95118  43.444  38.708   0.343
26725W        W95119  43.249  39.678   9.888
26726W        W95120  13.746  42.213  12.532
26727W        W95121  29.424  39.536   3.137
26728W        W95122  18.701  38.891  13.623
26729W        W95123   7.745  35.976  14.369
26730W        W95124  23.513  16.342   3.814
26731W        W95125  10.744   0.220   2.424
26732W        W95126  20.509   6.722  13.033
26733W        W95127  17.976  35.028   1.260
26734W        W95128  16.796  26.983   3.648
26735W        W95129  10.713   4.966   4.673
26736W        W95130  33.320  13.665   0.493
26737W        W95131  11.285   8.809  12.477
26738W        W95132  27.529  17.400   3.816
26739W        W95133   4.139  10.811   4.305
26740W        W95134  29.194  33.179   1.349
26741W        W95135  23.808  12.850   0.383
26742W        W95136  40.379   1.488   1.005
26743W        W95137  22.258  14.790   1.250
26744W        W95138  21.665  10.662   0.334
26745W        W95139   2.204  40.550  12.140
26746W        W95140   1.024  15.551  10.701
26747W        W95141  20.951  19.025   3.157
26748W        W95142  14.623  11.861   0.869
26749W        W95143  25.647  14.521  10.991
26750W        W95144  10.702  13.167  13.066
26751W        W95145  22.028   1.216  12.846
26752W        W95146  13.156  36.567  13.430
26753W        W95147  16.428  41.966   1.793
26754W        W95148   9.228  11.454   3.072
26755W        W95149  42.071  34.370   0.716
26756W        W95150   0.040  19.068  14.286
26757W        W95151   6.997   6.178  11.588
26758W        W95152  44.491  40.462   1.754
26759W        W95153   1.506  43.563   0.826
26760W        W95154  16.601  34.840  13.789
26761W        W95155  12.914  31.198   4.479
26762W        W95156  39.479  13.590  10.890
26763W        W95157  20.182   4.764   1.656
26764W        W95158  14.159  28.657  14.529
26765W        W95159  41.837  38.817   2.967
26766W        W95160  22.266   9.428  10.649
26767W        W95161  41.871   1.472   4.161
26768W        W95162   4.797   5.842  13.468
26769W        W95163  14.032   4.537   2.806
26770W        W95164  30.613  42.291   2.836
26771W        W95165  28.002  26.131   0.792
26772W        W95166   0.278  38.967  14.287
26773W        W95167  40.732  10.223  10.816
26774W        W95168  33.505  37.538   5.031
26775W        W95169   8.860  30.980   0.940
26776W        W95170   6.660  40.060  10.482
26777W        W95171   1.763  24.266  11.984
26778W        W95172  43.528  34.149   4.496
26779W        W95173  41.314   8.148  12.122
26780W        W95174   9.933  33.923   2.227
26781W        W95175  36.018  24.764   4.659
26782W        W95176  18.951  29.366   4.132
26783W        W95177  36.843  20.116   0.145
26784W        W95178  25.041  37.846  12.912
26785W        W95179  26.192  12.186   1.438
26786W        W95180  17.817  33.396   3.776
26787W        W95181   7.648  37.052   2.233
26788W        W95182  35.936  31.488   2.852
26789W        W95183  44.959   5.876  14.512
26790W        W95184   2.453  28.002   4.301
26791W        W95185  41.923  33.004   4.137
26792W        W95186  37.409  12.912  12.065
26793W        W95187  10.282  27.912   3.255
26794W        W95188  23.185  10.553   4.297
26795W        W95189  18.252  35.457   0.422
26796W        W95190  18.233  25.137  13.028
26797W        W95191   5.906   4.362   3.156
26798W        W95192  40.594  21.288   2.933
26799W        W95193   2.992  39.772   4.295
26800W        W95194  35.357  11.658   3.180
26801W        W95195  21.656   6.349  10.778
26802W        W95196   1.342   0.005  12.166
26803W        W95197  31.705  20.110  12.969
26804W        W95198  20.306   8.650   1.922
26805W        W95199  25.861  19.432   2.327
26806W        W95200  39.826  44.928  12.633
26807W        W95201   4.637  22.032   2.321
26808W        W95202  29.549   1.805  11.327
26809W        W95203   2.570   8.118   0.814
26810W        W95204   5.937  22.067  12.082
26811W        W95205   4.232  18.826   3.646
26812W        W95206  38.242  15.219   4.049
26813W        W95207  43.368   5.438   0.709
26814W        W95208  29.504  14.827   3.218
26815W        W95209  34.760  31.431  12.481
26816W        W95210  10.545  37.872   0.132
26817W        W95211  34.776  13.774   4.961
26818W        W95212  42.371  39.094   4.608
26819W        W95213  32.444  11.158   0.845
26820W        W95214  23.485  13.677   4.987
26821W        W95215  32.841  14.223  14.753
26822W        W95216  16.829  20.016  13.407
26823W        W95217  43.724  21.200   0.792
26824W        W95218  27.697  10.384  11.022
26825W        W95219   2.880  21.539  12.161
26826W        W95220  39.801  27.120  13.441
26827W        W95221  37.747  35.601   0.641
26828W        W95222   0.575  10.720  13.059
26829W        W95223  10.847  36.531  13.480
26830W        W95224  43.365  17.989  14.419
26831W        W95225  18.078  21.450   1.294
26832W        W95226  31.910  19.587  12.923
26833W        W95227  41.675  20.765  12.208
26834W        W95228  17.741  29.215   2.155
26835W        W95229  36.172  27.890   0.291
26836W        W95230  17.915  43.680   3.245
26837W        W95231   9.423   6.418  11.230
26838W        W95232  31.036  16.826  10.712
26839W        W95233   4.478  25.153  13.044
26840W        W95234  41.735   8.310   0.799
26841W        W95235   5.659   0.294  11.912
26842W        W95236   8.258  40.295   4.803
26843W        W95237  11.132   6.716   1.270
26844W        W95238  28.981   3.460   1.825
26845W        W95239   8.334  35.824   2.255
26846W        W95240   9.202  13.877  14.010
26847W        W95241  15.263  42.245  12.565
26848W        W95242  37.031   5.619   3.153
26849W        W95243   2.887  37.261  13.912
26850W        W95244  12.349  13.818   0.501
26851W        W95245  11.704  30.794  10.469
26852W        W95246  18.679  33.417  13.421
26853W        W95247  34.049  37.141   1.007
26854W        W95248  18.180  28.164  13.505
26855W        W95249  30.224  41.803  13.301
26856W        W95250  42.882  32.866   0.408
26857W        W95251  14.761  44.492  14.036
26858W        W95252   2.450  44.692  10.733
26859W        W95253  32.868  18.800  14.547
26860W        W95254  16.270  27.208  14.861
26861W        W95255  10.415   2.747   0.424
26862W        W95256  23.006  11.315   1.303
26863W        W95257  10.985  39.395  11.735
26864W        W95258  35.053  23.209  11.276
26865W        W95259   7.221  44.454  14.441
26866W        W95260  43.408  14.532   3.249
26867W        W95261  29.439  26.701   3.219
26868W        W95262  38.089   1.101  10.829
26869W        W95263   6.294  24.777  13.149
26870W        W95264   5.936  40.701  11.180
26871W        W95265  44.031  41.318  10.647
26872W        W95266  29.121  37.596  11.925
26873W        W95267  43.298  15.218   4.304
26874W        W95268  33.030  16.110  14.313
26875W        W95269  32.658   9.578   4.090
26876W        W95270  38.960   3.990   1.270
26877W        W95271   3.244  19.536  10.827
26878W        W95272   0.458  38.159   5.466
26879W        W95273  29.895  37.161  13.366
26880W        W95274  34.956  15.931   0.646
26881W        W95275  42.020  35.867  11.156
26882W        W95276  25.641   4.458   3.752
26883W        W95277  16.976   4.698  10.284
26884W        W95278  11.781  24.589   2.707
26885W        W95279  39.378  19.262  12.977
26886W        W95280  26.660  31.055  14.965
26887W        W95281   3.905  30.072  12.886
26888W        W95282  18.968  31.886   3.713
26889W        W95283   7.460  23.169   0.279
26890W        W95284  20.714   1.778   2.747
26891W        W95285  28.771  11.769  10.733
26892W        W95286   5.743  13.924  13.551
26893W        W95287   3.663   9.735  10.475
26894W        W95288  38.995  27.857   2.765
26895W        W95289  14.299   3.800   1.495
26896W        W95290  40.968  25.017  11.208
26897W        W95291  33.145  12.701   2.631
26898W        W95292  25.736  20.748   1.677
26899W        W95293  11.135  19.661   4.871
26900W        W95294  27.474  11.817  13.311
26901W        W95295   9.715  31.990  14.362
26902W        W95296  17.304   9.954   1.352
26903W        W95297  13.664  42.801   3.316
26904W        W95298  11.928  30.171   4.508
26905W        W95299   1.338   6.988   3.851
26906W        W95300  17.313   8.552  13.843
26907W        W95301  33.630  18.543  12.326
26908W        W95302  41.941  41.024  10.756
26909W        W95303  19.712  13.767   3.954
26910W        W95304  42.024  20.134   4.181
26911W        W95305   0.892  44.348   4.506
26912W        W95306  41.810  28.094   3.281
26913W        W95307  29.385  16.818   3.880
26914W        W95308  39.982  30.138   0.862
26915W        W95309  43.057  44.529  12.957
26916W        W95310  26.852  25.256   3.208
26917W        W95311  30.490   1.435   4.127
26918W        W95312  10.746  28.976   4.958
26919W        W95313  37.119  29.246  12.822
26920W        W95314  10.504  32.639  10.182
26921W        W95315   9.936   6.248  12.113
26922W        W95316   0.713  15.590  11.121
26923W        W95317   9.004  42.925   4.398
26924W        W95318   9.675  28.175  14.025
26925W        W95319  33.241  27.091   3.249
26926W        W95320  12.761  25.711  10.704
26927W        W95321  35.984   3.139   2.371
26928W        W95322  42.962   7.588   0.846
26929W        W95323  35.340  39.124   0.350
26930W        W95324  23.114  34.335  12.320
26931W        W95325   0.454  34.427   3.035
26932W        W95326  25.013  11.725  12.185
26933W        W95327   6.354  25.218   2.833
26934W        W95328  13.272   4.686  11.198
26935W        W95329  15.059   5.776  13.362
26936W        W95330   3.089  19.363   1.934
26937W        W95331   7.147  16.408  11.454
26938W        W95332   0.389  28.212   4.040
26939W        W95333  17.089  26.646  11.676
26940W        W95334   6.360  15.604   4.112
26941W        W95335  42.385  18.007  13.455
26942W        W95336  14.301  11.384   3.692
26943W        W95337  14.057   8.700   4.141
26944W        W95338  41.865  23.034   1.766
26945W        W95339  10.161  19.972   1.613
26946W        W95340  16.603  28.381  14.425
26947W        W95341  11.205  22.487  13.060
26948W        W95342  44.441  35.245   1.376
26949W        W95343  32.628  26.430   4.536
26950W        W95344   2.790  44.600   1.154
26951W        W95345  32.049   3.589  12.567
26952W        W95346  36.333  42.946   2.394
26953W        W95347  43.030  43.534   4.692
26954W        W95348  26.413  21.184  10.983
26955W        W95349  33.459  31.942   0.849
26956W        W95350  15.183  41.954   4.166
26957W        W95351  25.100  13.607  13.465
26958W        W95352  44.482  15.655  11.611
26959W        W95353  16.052  31.698   1.475
26960W        W95354   8.214  28.624   1.742
26961W        W95355   6.303  23.873  12.672
26962W        W95356  20.410  23.676   1.327
26963W        W95357  25.162  39.468   0.541
26964W        W95358  17.248   6.283  14.916
26965W        W95359   4.440   5.365  12.125
26966W        W95360  28.169  26.580  10.779
26967W        W95361  21.640   6.622  11.485
26968W        W95362  36.550  34.366  11.067
26969W        W95363  20.508   8.133   0.159
26970W        W95364  14.327  16.156   2.192
26971W        W95365  32.116  32.120  11.983
26972W        W95366  13.126  38.281  12.443
26973W        W95367  37.344  28.861  14.490
26974W        W95368  38.156  31.428   3.132
26975W        W95369  15.500  11.968  13.297
26976W        W95370  36.710  25.676  12.671
26977W        W95371  11.612  29.215  11.019
26978W        W95372  31.641  42.113   1.305
26979W        W95373  44.271   0.429   4.651
26980W        W95374   8.458  20.334  13.939
26981W        W95375  32.211  20.136  13.035
26982W        W95376   9.758  13.777   4.087
26983W        W95377  42.858  37.774   1.385
26984W        W95378  33.866   8.394  12.886
26985W        W95379  39.539   4.929  10.191
26986W        W95380   4.725  41.850  10.873
26987W        W95381  39.094  35.061   3.088
26988W        W95382  36.690  34.478   4.208
26989W        W95383  13.761  28.591   4.594
26990W        W95384  44.924  39.106  12.042
26991W        W95385  10.747   4.356  14.810
26992W        W95386  14.233  15.558  11.991
26993W        W95387  38.171  10.264   4.070
26994W        W95388  12.281  35.077   1.426
26995W        W95389  31.543   2.474  12.940
26996W        W95390  27.984  39.548  12.074
26997W        W95391  36.953   0.772  11.663
26998W        W95392  31.902   2.275  10.947
26999W        W95393   5.438  13.142   2.815
27000W        W95394  29.093   5.933  10.893
27001W        W95395  44.799  10.617  10.841
27002W        W95396  36.461  14.071  10.534
27003W        W95397   4.235  43.488  11.077
27004W        W95398  37.444  13.170   4.173
27005W        W95399  21.112  43.916   1.659
27006W        W95400  39.033  38.359   2.828
27007W        W95401  37.872  16.724  14.782
27008W        W95402  22.401   6.028  11.226
27009W        W95403  20.514  33.993  12.894
27010W        W95404  15.824  42.590   2.869
27011W        W95405  20.597  32.584   3.112
27012W        W95406  12.728  20.216  12.370
27013W        W95407  35.408  16.622   0.759
27014W        W95408  44.806  42.302  13.163
27015W        W95409  38.075  36.061  11.534
27016W        W95410  28.359  29.102  13.573
27017W        W95411  44.917   0.276  11.478
27018W        W95412  13.683  20.047   1.601
27019W        W95413  26.647  40.233   4.591
27020W        W95414  11.289  26.315   1.535
27021W        W95415  24.375  25.026  12.850
27022W        W95416  23.430  28.540  13.989
27023W        W95417  41.768  14.241  12.172
27024W        W95418  16.555  41.362  13.839
27025W        W95419  35.435  36.088   1.869
27026W        W95420  35.966  20.488   4.104
27027W        W95421  38.309  20.152   2.184
27028W        W95422  20.741  10.208   3.609
27029W        W95423  33.897   9.723   2.816
27030W        W95424   9.288  21.479   3.408
27031W        W95425  34.432  14.834   2.123
27032W        W95426  18.288  26.064   0.402
27033W        W95427  12.326  41.429   2.735
27034W        W95428  42.248  20.279   1.968
27035W        W95429  39.097  41.571   0.013
27036W        W95430  38.852  42.071  13.839
27037W        W95431  21.669  30.131   4.679
27038W        W95432  18.576  41.058   1.428
27039W        W95433  41.773  31.012   1.084
27040W        W95434  34.508  27.894   1.274
27041W        W95435   8.417   8.715  12.092
27042W        W95436  36.284  42.274  14.436
27043W        W95437  13.714  28.728  13.758
27044W        W95438  25.497  28.348  14.013
27045W        W95439  19.384   5.050  11.596
27046W        W95440  22.228  20.087   0.378
27047W        W95441   2.382   2.461  14.533
27048W        W95442  34.926  25.211  11.653
27049W        W95443  17.681  26.946  14.852
27050W        W95444  27.984   6.361  10.613
27051W        W95445  34.577  28.143  11.416
27052W        W95446   1.126   2.342   1.635
27053W        W95447  16.183  40.958   3.667
27054W        W95448  29.203  44.690   5.033
27055W        W95449   6.797  36.879  12.567
27056W        W95450  35.928  36.364  11.058
27057W        W95451  42.498  26.377  12.919
27058W        W95452  16.766  32.350   0.097
27059W        W95453  10.765   4.907   1.630
27060W        W95454  24.412  30.054   1.342
27061W        W95455  13.195   1.886   2.624
27062W        W95456  20.432  29.850  11.336
27063W        W95457  44.950   5.753   4.602
27064W        W95458  39.026  23.260  12.402
27065W        W95459   4.460  25.295  12.071
27066W        W95460  11.638  17.060  12.029
27067W        W95461   0.217  26.538  14.877
27068W        W95462  24.754  22.482  12.089
27069W        W95463  18.523  21.730  11.387
27070W        W95464  12.664  38.576   1.272
27071W        W95465  22.819   4.855   4.133
27072W        W95466  22.294  20.989   9.529
27073W        W95467  30.215  16.550   0.931
27074W        W95468  34.568  44.861   4.511
27075W        W95469  26.461  39.490  14.936
27076W        W95470  41.585  29.962  12.567
27077W        W95471  20.131   2.283  12.730
27078W        W95472  10.098  22.720  10.938
27079W        W95473  33.823   9.203   2.255
27080W        W95474  42.331  10.607  12.472
27081W        W95475   2.782  42.403   0.404
27082W        W95476  44.561  22.080  11.995
27083W        W95477  30.661  12.284   0.426
27084W        W95478  29.926  29.528   0.156
27085W        W95479  12.792  42.914  11.094
27086W        W95480   8.665  43.074  13.521
27087W        W95481  29.197   5.462  12.529
27088W        W95482  19.682  11.512   1.222
27089W        W95483   3.565  37.889   0.167
27090W        W95484  34.783  37.427  10.292
27091W        W95485  30.491  39.981  12.827
27092W        W95486   4.274   4.437   4.018
27093W        W95487  16.341   7.389   0.980
27094W        W95488   9.855  44.996  14.605
27095W        W95489   7.095  42.264   0.006
27096W        W95490  43.845  38.590  11.127
27097W        W95491   4.400   8.938   1.241
27098W        W95492  14.643  29.784   0.300
27099W        W95493  25.933  40.323  14.454
27100W        W95494  14.748  34.138  12.587
27101W        W95495  39.990  30.816   0.478
27102W        W95496  23.519  23.277  10.762
27103W        W95497  37.493  42.668  13.583
27104W        W95498  14.518  26.398  10.222
27105W        W95499   4.706  44.274  11.512
27106W        W95500  21.565   7.249  12.404
27107W        W95501  10.298  13.016  11.457
27108W        W95502  32.327   3.443  12.044
27109W        W95503   3.754   0.840  14.041
27110W        W95504  33.595  17.677   1.834
27111W        W95505   1.508   2.698   2.849
27112W        W95506  10.620  39.654  13.293
27113W        W95507  33.022  11.286   2.944
27114W        W95508   1.050  24.455  12.804
27115W        W95509  11.555  34.004  13.951
27116W        W95510  39.312  23.697   2.710
27117W        W95511   8.431  15.298   4.174
27118W        W95512  44.571  15.681   0.052
27119W        W95513  10.694  20.618  14.120
27120W        W95514  42.287  33.365   2.143
27121W        W95515  20.498   3.114  13.424
27122W        W95516  21.143  10.474   1.606
27123W        W95517  17.771  34.482  12.016
27124W        W95518  11.668   7.974  12.473
27125W        W95519  44.015  10.303  12.502
27126W        W95520  21.744  11.612  14.283
27127W        W95521  43.116  20.249   1.893
27128W        W95522   7.154  42.266  13.585
27129W        W95523  11.161  44.127  13.258
27130W        W95524  42.511  16.864   0.853
27131W        W95525  37.318  24.538   4.047
27132W        W95526   1.783  38.067   1.340
27133W        W95527  31.297   2.700   2.636
27134W        W95528   2.634  44.879   1.570
27135W        W95529  37.342  23.708  14.666
27136W        W95530  27.479  44.974  13.349
27137W        W95531  22.957  40.454   1.350
27138W        W95532  37.861   5.150   2.317
27139W        W95533  28.247   0.384  12.078
27140W        W95534  19.302  15.572  10.674
27141W        W95535  43.270  27.382  13.912
27142W        W95536   0.666  20.223  14.796
27143W        W95537  44.401  30.125   1.372
27144W        W95538  10.889   4.914  13.895
27145W        W95539  37.523  17.160   4.333
27146W        W95540  28.003  35.932  14.923
27147W        W95541   6.870  26.109   0.508
27148W        W95542  25.778   6.475   0.014
27149W        W95543  21.124  20.298  14.884
27150W        W95544  27.907  11.763   3.148
27151W        W95545  31.399   1.357   0.368
27152W        W95546  11.698  22.898   3.286
27153W        W95547  34.414  43.890   2.205
27154W        W95548   5.527  44.971  12.296
27155W        W95549  20.260   2.764  10.637
27156W        W95550  29.476  30.554   3.316
27157W        W95551  25.732  29.063   3.694
27158W        W95552  23.123  35.905  14.503
27159W        W95553  36.185  26.632   1.097
27160W        W95554  44.734  11.740  14.540
27161W        W95555  33.878  14.371   4.301
27162W        W95556  34.604   0.465  10.954
27163W        W95557  28.933   6.335  14.860
27164W        W95558  44.877   8.149  10.834
27165W        W95559  26.112  29.350   1.176
27166W        W95560  23.562  12.127  13.021
27167W        W95561  20.273  40.811  13.938
27168W        W95562  18.523  14.354  14.929
27169W        W95563   8.168  27.218  14.786
27170W        W95564  14.320  18.165  10.480
27171W        W95565  25.136  44.216   2.549
27172W        W95566  33.880  29.083   2.841
27173W        W95567  20.194   4.743   2.976
27174W        W95568   9.751   1.925   4.880
27175W        W95569  18.331  15.829  11.515
27176W        W95570   5.344  21.692   3.175
27177W        W95571   2.272  30.617  10.535
27178W        W95572  14.368  39.474   1.869
27179W        W95573  36.050  28.975   0.113
27180W        W95574  39.436  10.091  13.011
27181W        W95575   0.266   6.213  12.457
27182W        W95576  25.696  40.016  12.937
27183W        W95577  39.058  21.944   4.170
27184W        W95578  26.397  17.034   4.176
27185W        W95579  15.600  11.320  11.167
27186W        W95580  31.501  10.795   3.192
27187W        W95581  32.098  12.130   3.691
27188W        W95582  31.572  17.827  10.679
27189W        W95583  24.977   0.350  14.258
27190W        W95584  39.859  38.830  12.798
27191W        W95585  34.973  32.669   2.587
27192W        W95586  40.266  44.272   1.785
27193W        W95587  36.367  39.936  13.937
27194W        W95588  39.489  34.653   3.887
27195W        W95589  24.656   2.756   0.513
27196W        W95590  31.381  23.871  11.378
27197W        W95591  21.491  32.170  14.403
27198W        W95592   7.687   2.233   3.677
27199W        W95593  15.771  13.065   4.982
27200W        W95594   0.427  28.115  13.005
27201W        W95595  14.268  20.800  14.929
27202W        W95596  26.413  41.980   5.420
27203W        W95597  21.931  41.810   3.855
27204W        W95598  24.291  23.150   2.592
27205W        W95599   7.372   5.829   3.899
27206W        W95600  25.365   7.797   0.716
27207W        W95601  17.480  39.502  13.284
27208W        W95602   9.684   2.827  12.979
27209W        W95603   6.387  43.224   3.174
27210W        W95604   4.932  30.060   3.695
27211W        W95605  21.968  11.542  12.045
27212W        W95606  15.180   3.203  10.734
27213W        W95607  40.907  20.711   1.329
27214W        W95608  39.109  20.037  12.008
27215W        W95609  33.000  15.286   0.651
27216W        W95610  25.208  31.490  12.591
27217W        W95611  38.865   9.977   3.240
27218W        W95612  23.029  35.828  11.349
27219W        W95613  17.392   3.798   4.754
27220W        W95614  10.262   1.080   0.127
27221W        W95615  40.001  12.147  12.513
27222W        W95616  30.530  12.647   2.723
27223W        W95617  19.141  10.806  12.560
27224W        W95618  16.288   4.015   0.004
27225W        W95619  11.310  37.016  11.603
27226W        W95620  32.461  41.855  14.795
27227W        W95621  14.766  20.732   2.688
27228W        W95622  37.074  15.085   1.341
27229W        W95623   6.355   1.908   1.235
27230W        W95624  33.616  14.751  10.930
27231W        W95625  30.543  31.859   1.495
27232W        W95626   6.431  27.577  10.618
27233W        W95627  31.643  11.749  14.167
27234W        W95628   3.993  35.356   2.650
27235W        W95629  30.446  40.478   2.144
27236W        W95630   1.605  32.172  14.148
27237W        W95631  35.275  34.241  12.078
27238W        W95632  36.052  33.882   1.609
27239W        W95633  35.359  34.517   0.234
27240W        W95634   9.391  38.942   3.712
27241W        W95635   8.472  29.591   4.594
27242W        W95636  12.089  33.124   1.201
27243W        W95637  35.435   3.675  12.779
27244W        W95638   2.411  44.787   3.739
27245W        W95639  30.093  22.936   2.347
27246W        W95640  41.855   1.973  14.871
27247W        W95641  32.702  16.184   3.732
27248W        W95642   2.861  40.353  14.905
27249W        W95643  37.562  27.661   2.787
27250W        W95644  15.861   8.266   4.106
27251W        W95645  12.913  13.246  11.727
27252W        W95646  13.749  18.244  14.223
27253W        W95647  18.215  30.388  14.049
27254W        W95648   9.656  38.846   1.779
27255W        W95649  14.814   9.257   4.043
27256W        W95650  17.669   5.490  11.241
27257W        W95651   5.887  35.176  11.510
27258W        W95652   0.756  16.339  14.841
27259W        W95653  14.379   4.801   0.452
27260W        W95654  11.356  26.417  13.902
27261W        W95655  21.661  20.656   4.579
27262W        W95656  18.511  30.497   2.836
27263W        W95657  44.549   6.593  13.507
27264W        W95658  41.419  12.102  11.671
27265W        W95659  38.928  28.182  14.760
27266W        W95660   2.888  19.838   4.114
27267W        W95661   2.264  12.729  10.765
27268W        W95662   3.956  23.459   3.680
27269W        W95663  41.889   5.423  14.984
27270W        W95664  34.881  15.829  14.748
27271W        W95665  38.363  44.328  13.387
27272W        W95666   3.808   5.838  14.567
27273W        W95667  35.646  25.645  11.090
27274W        W95668  22.208  33.410  13.442
27275W        W95669   1.183  15.768   4.961
27276W        W95670  17.994   0.207   0.228
27277W        W95671   4.980  39.393   1.780
27278W        W95672  17.610  38.616   2.091
27279W        W95673  16.521  34.848   1.324
27280W        W95674  16.389  10.299  12.423
27281W        W95675  30.357  39.737  12.040
27282W        W95676  32.621  13.674   2.152
27283W        W95677   2.812  38.749   2.318
27284W        W95678   6.110   7.101   4.101
27285W        W95679  34.443   7.361  11.191
27286W        W95680  36.106  37.924  11.046
27287W        W95681  10.746  33.806   2.881
27288W        W95682   2.732   0.401  13.301
27289W        W95683  38.421  17.730   2.883
27290W        W95684  22.257  28.429  14.990
27291W        W95685  40.004   4.721  14.782
27292W        W95686  41.141  13.741  13.504
27293W        W95687  14.799   1.499   2.330
27294W        W95688  25.186  30.152  12.885
27295W        W95689  10.258   3.919  13.962
27296W        W95690  11.179  31.621  13.512
27297W        W95691   7.468   7.263   3.773
27298W        W95692  14.798  17.169   0.784
27299W        W95693   0.905  35.101  14.319
27300W        W95694  16.354  38.119   1.017
27301W        W95695  13.571  23.715   3.224
27302W        W95696   7.102   8.433  10.600
27303W        W95697  13.402  44.884  14.130
27304W        W95698  38.371  14.263  12.008
27305W        W95699  39.658  15.825   3.679
27306W        W95700  26.246  26.919  14.833
27307W        W95701   0.366  22.041  12.403
27308W        W95702  22.795   3.467  11.437
27309W        W95703  43.355  39.893   1.679
27310W        W95704  16.087   0.925   0.657
27311W        W95705  29.475  26.599   4.125
27312W        W95706  36.665  26.954   4.743
27313W        W95707  43.623   6.489  13.936
27314W        W95708  15.395  34.439  13.396
27315W        W95709  36.702  11.822   3.273
27316W        W95710  10.125   9.818  11.606
27317W        W95711  18.105  26.426   2.329
27318W        W95712   4.441  34.287   1.779
27319W        W95713  11.298  10.425   3.196
27320W        W95714  35.260  14.196  12.129
27321W        W95715  36.953  31.534  11.140
27322W        W95716  40.151  36.525  10.904
27323W        W95717   4.649  23.783  11.185
27324W        W95718  20.429   0.033   0.894
27325W        W95719  23.959  16.073  11.616
27326W        W95720  40.789  11.891  10.533
27327W        W95721  39.503  15.179   2.469
27328W        W95722  41.444  12.158  13.487
27329W        W95723  14.191  21.673   1.538
27330W        W95724  22.568   9.450  14.908
27331W        W95725   6.632  33.583   2.206
27332W        W95726  14.347  11.034  10.802
27333W        W95727  40.607  15.581   3.677
27334W        W95728  25.750  35.462  14.994
27335W        W95729   9.115  11.075   1.300
27336W        W95730  44.499  22.523  13.767
27337W        W95731  25.993  13.219  11.177
27338W        W95732   3.427   4.254   4.743
27339W        W95733  10.948  37.523  11.969
27340W        W95734  35.657  25.121  14.482
27341W        W95735   4.494   9.124   1.721
27342W        W95736  30.774  26.067  13.877
27343W        W95737  41.028  32.015  12.061
27344W        W95738  27.199   5.398   0.311
27345W        W95739  15.187  41.084  11.015
27346W        W95740  31.605  20.489   4.594
27347W        W95741  41.586   0.995  12.070
27348W        W95742  16.583   5.155   2.306
27349W        W95743  27.115  44.173   1.269
27350W        W95744   1.802  44.866   3.313
27351W        W95745   7.798  40.665  11.406
27352W        W95746  27.630   3.834  10.545
27353W        W95747   7.992  36.861  10.681
27354W        W95748  13.208   7.148   0.265
27355W        W95749  16.153   4.198   4.080
27356W        W95750  19.602  42.919  10.183
27357W        W95751  40.977   7.464   0.779
27358W        W95752  28.799  23.536  14.381
27359W        W95753  24.122  44.713  11.596
27360W        W95754  38.664  42.729   1.150
27361W        W95755  43.525  44.595   4.448
27362W        W95756  37.788  20.573   4.300
27363W        W95757  18.550  31.304   3.317
27364W        W95758  13.903   5.063  12.812
27365W        W95759  35.175  31.688  13.481
27366W        W95760   4.339  38.275   0.850
27367W        W95761  16.177  11.212   1.726
27368W        W95762  31.482  37.487  11.921
27369W        W95763  15.766  25.657  13.404
27370W        W95764  24.450  12.416   4.667
27371W        W95765   0.885   5.312  12.604
27372W        W95766   1.346  28.007  10.688
27373W        W95767   3.691  41.491   3.762
27374W        W95768  37.494  33.427  10.455
27375W        W95769  31.679  36.084  10.528
27376W        W95770  11.297   8.509  12.887
27377W        W95771  35.403   9.872   1.661
27378W        W95772  16.265  18.863   2.599
27379W        W95773  22.527  38.088   0.261
27380W        W95774  30.511  42.791  13.256
27381W        W95775  25.950  38.925  10.915
27382W        W95776  40.894  37.490  12.026
27383W        W95777  29.193  21.447   1.681
27384W        W95778  31.786  21.087  10.193
27385W        W95779  14.239  10.988  14.827
27386W        W95780  27.673   0.341   0.874
27387W        W95781  16.065  37.290  11.600
27388W        W95782  44.080   9.828  13.340
27389W        W95783  24.144  41.315  11.436
27390W        W95784  10.747  14.198  12.177
27391W        W95785  12.595  27.526   1.415
27392W        W95786  39.780  41.977  11.595
27393W        W95787  32.391  15.363   1.236
27394W        W95788  14.562  33.842  11.473
27395W        W95789  39.891  33.198   2.206
27396W        W95790  34.989   7.375  11.970
27397W        W95791   6.491  23.602   4.091
27398W        W95792   3.407   8.611  12.460
27399W        W95793  43.386  12.705   1.722
27400W        W95794  16.960  31.881   0.185
27401W        W95795  14.177  13.043  10.973
27402W        W95796  38.567  26.145   3.367
27403W        W95797  37.430  12.842  10.704
27404W        W95798  20.507  18.441  14.651
27405W        W95799  28.617  34.830  13.908
27406W        W95800  44.455  25.038   1.281
27407W        W95801  21.211  40.877  11.605
27408W        W95802  39.934   9.900  14.897
27409W        W95803  36.388  27.895  14.439
27410W        W95804  21.318  13.886   4.199
27411W        W95805  36.057  42.312   2.254
27412W        W95806  38.765   8.961  10.500
27413W        W95807  36.548   7.198  12.075
27414W        W95808  37.011   2.230   1.852
27415W        W95809  30.581  14.064   2.335
27416W        W95810   6.640   1.226  12.650
27417W        W95811  19.611  13.329   0.828
27418W        W95812  40.348  22.732  12.054
27419W        W95813  21.222  37.900   0.547
27420W        W95814  42.473  20.726   2.211
27421W        W95815   6.671   5.966  13.807
27422W        W95816  10.866   7.483  11.206
27423W        W95817   8.276  44.310  13.565
27424W        W95818   4.230  25.708  10.515
27425W        W95819  26.454  35.963  14.884
27426W        W95820  12.096  11.787   3.283
27427W        W95821  20.283   8.292   3.545
27428W        W95822  28.252  25.506  13.900
27429W        W95823  38.110  34.167  14.874
27430W        W95824   3.699  32.846   2.377
27431W        W95825  24.832   3.276   0.555
27432W        W95826   5.311  31.114  12.413
27433W        W95827  39.492  10.693  14.877
27434W        W95828  25.055   5.175   0.685
27435W        W95829   3.628  14.696   2.809
27436W        W95830  42.815  29.985   2.974
27437W        W95831  38.259  22.454   4.187
27438W        W95832  36.337  36.569   1.251
27439W        W95833   3.235   9.242   2.099
27440W        W95834  40.606  28.020  12.889
27441W        W95835  21.411  39.128  13.473
27442W        W95836   1.990  20.093   1.293
27443W        W95837  44.518  19.822  14.945
27444W        W95838  25.037  36.135  14.600
27445W        W95839  12.801  18.202  14.366
27446W        W95840  29.502  29.450  14.682
27447W        W95841  20.832   3.170  13.829
27448W        W95842  36.070  38.322  14.103
27449W        W95843   6.372  32.757   0.471
27450W        W95844  28.558   4.967   2.885
27451W        W95845  26.532   0.756  13.531
27452W        W95846  36.592  16.508  12.401
27453W        W95847  37.887  10.257  14.083
27454W        W95848  25.357   8.690  11.554
27455W        W95849  24.669  23.299   1.641
27456W        W95850  12.860  38.961  13.799
27457W        W95851  30.246   0.698  11.219
27458W        W95852  15.322  27.279  10.629
27459W        W95853  27.265  20.692   3.581
27460W        W95854  32.902   6.222   1.801
27461W        W95855  37.410  24.146   4.406
27462W        W95856  22.302  16.314   1.697
27463W        W95857  14.267  22.642   1.965
27464W        W95858  35.127  16.773   1.250
27465W        W95859  42.357   1.971   2.818
27466W        W95860  38.480   7.260   0.437
27467W        W95861  15.583  28.898   1.454
27468W        W95862  32.846  40.342  14.398
27469W        W95863   9.627  31.814  13.449
27470W        W95864  42.287   4.321  11.484
27471W        W95865  16.024   9.248  13.554
27472W        W95866  42.282  26.152  11.731
27473W        W95867  34.564  44.306  12.064
27474W        W95868   0.200   3.664  14.376
27475W        W95869  10.233  30.904   1.757
27476W        W95870  22.101   3.551   1.227
27477W        W95871  38.581  42.255   0.462
27478W        W95872  27.878  41.973   3.337
27479W        W95873   9.817  42.490  12.050
27480W        W95874   8.386  34.312  11.396
27481W        W95875  42.606  29.116  11.158
27482W        W95876   3.796  15.512   2.198
27483W        W95877  19.730  18.547  14.925
27484W        W95878  24.182  34.646   0.341
27485W        W95879   8.868   5.441   4.725
27486W        W95880  12.075   7.883   0.756
27487W        W95881   1.519  20.210   3.240
27488W        W95882  30.262  21.499  13.843
27489W        W95883  22.951  26.489  10.193
27490W        W95884  19.548   7.378   3.382
27491W        W95885  14.598  21.745   2.751
27492W        W95886  40.094  11.682   2.226
27493W        W95887   8.774   7.287   2.056
27494W        W95888  30.377  22.625  12.964
27495W        W95889  10.497   8.231  13.923
27496W        W95890   5.873   9.605  11.992
27497W        W95891   8.738  21.258  14.549
27498W        W95892  36.814  33.450   4.999
27499W        W95893   4.983  40.773   2.678
27500W        W95894  24.356  42.387   4.941
27501W        W95895  20.549  13.214  10.838
27502W        W95896  24.619   9.657   4.769
27503W        W95897   4.430   3.963  14.226
27504W        W95898  24.474   3.527   2.345
27505W        W95899  10.800  36.015  14.380
27506W        W95900  16.297  41.836  14.088
27507W        W95901  20.152   6.757   4.659
27508W        W95902   3.531  36.943   0.361
27509W        W95903  27.589   7.454  14.492
27510W        W95904  38.996  44.582   4.244
27511W        W95905  21.676  31.850   0.712
27512W        W95906   6.317  36.829   4.686
27513W        W95907  20.741  43.771  13.881
27514W        W95908  44.319  30.728  12.445
27515W        W95909  20.556  22.904  10.493
27516W        W95910  20.588   2.117  13.087
27517W        W95911   0.355  34.674  11.183
27518W        W95912  41.272  19.565   0.326
27519W        W95913  41.432  32.274   2.752
27520W        W95914   7.943   1.689  14.282
27521W        W95915  34.060  28.514  11.956
27522W        W95916  22.075   1.022   2.180
27523W        W95917  22.596  15.294   1.131
27524W        W95918  27.626  18.384  11.296
27525W        W95919   2.376  33.056  13.490
27526W        W95920  17.430   6.197   5.427
27527W        W95921  31.144  39.541   0.273
27528W        W95922  40.373  39.726   2.647
27529W        W95923  41.994  18.047   0.035
27530W        W95924  42.529   0.871  10.391
27531W        W95925  30.048  20.686   3.130
27532W        W95926  22.155  29.911  11.685
27533W        W95927  15.569   7.989   1.867
27534W        W95928   1.648  38.293  13.565
27535W        W95929   5.792  24.224  10.712
27536W        W95930  19.989  34.898   1.700
27537W        W95931   9.446   0.335   3.741
27538W        W95932  33.124  34.768   0.465
27539W        W95933   0.446  27.089   0.756
27540W        W95934  27.871   3.822   2.214
27541W        W95935  25.975  20.701  13.508
27542W        W95936  16.829   1.282   2.875
27543W        W95937  24.219  37.085  14.318
27544W        W95938  38.425  30.674  12.690
27545W        W95939  39.793  44.820  14.821
27546W        W95940   0.206  37.345   5.643
27547W        W95941  15.071  20.496  13.028
27548W        W95942  41.084  15.193  14.818
27549W        W95943  12.020   1.608  13.880
27550W        W95944  29.995   1.000  12.933
27551W        W95945  14.488  37.424  11.566
27552W        W95946  42.224  41.248   1.836
27553W        W95947  10.937   3.449  13.854
27554W        W95948  10.973  42.500   2.814
27555W        W95949  16.644  16.721   0.886
27556W        W95950  24.105  35.824  13.043
27557W        W95951  43.549  29.676  13.479
27558W        W95952   3.672  12.170  11.649
27559W        W95953   1.376  20.516   0.406
27560W        W95954   2.829  41.265  12.666
27561W        W95955   0.721   6.537  14.577
27562W        W95956   2.376   4.046   1.876
27563W        W95957  44.390  18.515  10.591
27564W        W95958   4.768  36.777  12.791
27565W        W95959  44.425  22.639   5.039
27566W        W95960  44.791  31.000  11.129
27567W        W95961  39.379  15.550  13.324
27568W        W95962  19.055   8.792  11.575
27569W        W95963  32.741   0.363  11.923
27570W        W95964  28.002  25.974  13.655
27571W        W95965  17.147  39.272   3.779
27572W        W95966  16.680  15.309  13.969
27573W        W95967  36.350  21.617   4.606
27574W        W95968  28.226   0.213  14.294
27575W        W95969  44.884  40.549  11.873
27576W        W95970  34.110  33.854   1.011
27577W        W95971  38.256  41.872   0.725
27578W        W95972   0.948  31.114  12.213
27579W        W95973  41.526  19.274  14.906
27580W        W95974  16.426  27.631   4.110
27581W        W95975  16.147  34.834  11.891
27582W        W95976  34.325   1.907   2.758
27583W        W95977  12.145  34.574   1.274
27584W        W95978  25.738  39.857  14.334
27585W        W95979  11.837  20.283   2.868
27586W        W95980  10.579  36.797   4.305
27587W        W95981  39.835  19.228   4.710
27588W        W95982   8.354  34.944   4.619
27589W        W95983  23.176  21.006  10.635
27590W        W95984  36.819   9.062   2.902
27591W        W95985   1.836  23.962   1.856
27592W        W95986  27.565  38.621   1.149
27593W        W95987  38.098  36.303   4.947
27594W        W95988  37.044  23.015   2.698
27595W        W95989  18.545  11.282  12.642
27596W        W95990  30.656  39.392   3.672
27597W        W95991   7.772  18.792   2.368
27598W        W95992  29.616   8.495   3.105
27599W        W95993   8.056  26.106  14.428
27600W        W95994  43.954  26.161  14.487
27601W        W95995   5.270  21.963  11.535
27602W        W95996  19.126   9.538   3.170
27603W        W95997  37.285  43.345  14.356
27604W        W95998  11.844  44.868   0.046
27605W        W95999   6.440  26.223  10.870
27606W        W96000  26.232  14.185  14.277
27607W        W96001  17.122  41.332   3.333
27608W        W96002  15.623   4.175   3.137
27609W        W96003   5.255  13.821   0.379
27610W        W96004  13.623  17.092   2.630
27611W        W96005  43.804  22.162  11.501
27612W        W96006  11.563  36.148  12.529
27613W        W96007  13.675  20.492  10.966
27614W        W96008  10.630  42.304   1.408
27615W        W96009   5.465  11.129   0.012
27616W        W96010  40.415   7.452   4.337
27617W        W96011   9.213  26.733   3.777
27618W        W96012  31.530  10.139  10.508
27619W        W96013  34.301  28.045  12.432
27620W        W96014  40.209  10.005   0.321
27621W        W96015  36.968  17.851  11.914
27622W        W96016  32.911   0.987   4.561
27623W        W96017   2.331   9.836   3.857
27624W        W96018   0.696   2.445   1.913
27625W        W96019   6.587   6.296  10.625
27626W        W96020   7.430  17.374  14.788
27627W        W96021  26.638  27.439   3.677
27628W        W96022  10.720  42.918  13.539
27629W        W96023  12.844  24.174  13.982
27630W        W96024  27.448   3.364  11.601
27631W        W96025   3.743  15.747   1.448
27632W        W96026  28.592  44.930  12.054
27633W        W96027   1.863  40.134   2.429
27634W        W96028  18.519   1.891   2.236
27635W        W96029  11.013  13.379   0.771
27636W        W96030  22.937  42.841  11.270
27637W        W96031  18.805   2.334   1.229
27638W        W96032  35.990  29.068   1.476
27639W        W96033  28.857  26.019  14.654
27640W        W96034  16.806   2.707  11.564
27641W        W96035  12.662  30.821   0.868
27642W        W96036  44.479   3.878   3.247
27643W        W96037   0.520  28.136   0.785
27644W        W96038  26.086  22.898  13.789
27645W        W96039   6.640  26.016   0.993
27646W        W96040  32.121  18.189   2.877
27647W        W96041   7.424   5.724   1.423
27648W        W96042  16.184  27.937  14.263
27649W        W96043  38.786  15.521   1.831
27650W        W96044   7.618  17.363  14.001
27651W        W96045  38.465  32.652  11.097
27652W        W96046  30.865  30.607  12.643
27653W        W96047  35.869  19.928  13.462
27654W        W96048   9.815   6.230   0.840
27655W        W96049  36.543   6.349   2.425
27656W        W96050  23.951  43.248  13.379
27657W        W96051  31.878  38.785   3.093
27658W        W96052   6.609  29.920  14.689
27659W        W96053   6.508  35.324   4.998
27660W        W96054  39.958  32.278   2.280
27661W        W96055  21.307  40.468  10.595
27662W        W96056   8.725  22.418   1.393
27663W        W96057  37.342   6.926   2.174
27664W        W96058  12.366   1.255   3.379
27665W        W96059  39.935  35.123  11.357
27666W        W96060   6.639   2.212  10.426
27667W        W96061  23.864  41.978   3.783
27668W        W96062  27.076  27.184  11.315
27669W        W96063   1.761  40.866  11.330
27670W        W96064  24.755   5.317  10.858
27671W        W96065   0.296  33.443  10.500
27672W        W96066  43.937   2.468   1.289
27673W        W96067  13.724  25.197  14.936
27674W        W96068  31.982  28.891   3.088
27675W        W96069  18.573   6.733  14.011
27676W        W96070  13.123  41.845   1.441
27677W        W96071  16.174  30.121  14.846
27678W        W96072  30.401  20.547   0.155
27679W        W96073  16.078   5.647  14.115
27680W        W96074  43.724  36.808  12.040
27681W        W96075  35.244  38.046   0.178
27682W        W96076  35.581  35.849   1.342
27683W        W96077   6.875  27.103   5.368
27684W        W96078   7.159  21.584   1.261
27685W        W96079  37.583   3.796   3.673
27686W        W96080   9.662   4.284  12.851
27687W        W96081   5.747  11.970  13.948
27688W        W96082  33.721  42.309  14.960
27689W        W96083  31.682  14.852  13.872
27690W        W96084  27.203   2.755  13.081
27691W        W96085   3.734  26.046  11.433
27692W        W96086  11.687   8.393   1.249
27693W        W96087   1.370  10.420   0.872
27694W        W96088  11.097  34.972  11.591
27695W        W96089   5.350  17.951   2.213
27696W        W96090  43.471  24.502  11.720
27697W        W96091  39.858  29.097  14.984
27698W        W96092   7.487  24.984   1.276
27699W        W96093  26.177   2.853  13.773
27700W        W96094   5.446  38.508   0.998
27701W        W96095  16.313   2.501   0.413
27702W        W96096   5.443   4.743   0.907
27703W        W96097  10.363  26.177  11.195
27704W        W96098  41.893  14.357   2.309
27705W        W96099   9.613  22.638   3.538
27706W        W96100   3.133  18.636   4.581
27707W        W96101  37.805  19.192   2.649
27708W        W96102  39.063  32.518   2.739
27709W        W96103  21.060  36.082   3.220
27710W        W96104  33.714  17.156   1.887
27711W        W96105  36.755  26.306  11.506
27712W        W96106  44.729   6.650   4.465
27713W        W96107   2.353  27.501  14.997
27714W        W96108  27.382   5.837   0.645
27715W        W96109  29.147  28.558   1.953
27716W        W96110   1.708  37.845  13.812
27717W        W96111  44.314  30.331  14.410
27718W        W96112   7.223   6.917  11.610
27719W        W96113  40.971  20.274   4.184
27720W        W96114   0.790  42.255  11.460
27721W        W96115   1.855  24.312   0.797
27722W        W96116   6.099  20.983  12.077
27723W        W96117   8.075  17.751   0.886
27724W        W96118  27.468  41.756  14.862
27725W        W96119  15.213  13.436   4.761
27726W        W96120   5.807  39.736   4.097
27727W        W96121  44.480  19.016  11.273
27728W        W96122  22.611   9.307  12.021
27729W        W96123  36.130  21.760  14.014
27730W        W96124   3.604  25.963   1.846
27731W        W96125  34.645   1.320  13.856
27732W        W96126   7.828  17.743   1.334
27733W        W96127  32.839  39.391  14.505
27734W        W96128  44.693  18.561  12.910
27735W        W96129  42.619  43.570  14.822
27736W        W96130  22.283  27.494  11.562
27737W        W96131  35.018  25.113   2.620
27738W        W96132  12.397  29.154  11.554
27739W        W96133  44.236  40.592  13.978
27740W        W96134   2.846  19.783  10.588
27741W        W96135  16.713  38.341   2.925
27742W        W96136  38.984   6.831   1.730
27743W        W96137  42.743   7.957  12.949
27744W        W96138   2.426  23.767  11.856
27745W        W96139  14.057  24.303  14.728
27746W        W96140   5.486   7.971  14.343
27747W        W96141   2.515  40.881   0.699
27748W        W96142  30.146   7.461   3.744
27749W        W96143  37.460  30.343  11.769
27750W        W96144  14.217  27.723  14.548
27751W        W96145  18.948  18.864  14.367
27752W        W96146  24.908   4.735   5.012
27753W        W96147  36.035  17.141   1.370
27754W        W96148  39.818   5.222  10.674
27755W        W96149  27.074   1.062   2.386
27756W        W96150  24.311  38.473  14.478
27757W        W96151   1.790  12.855   4.975
27758W        W96152   7.031   9.761   4.138
27759W        W96153  16.601  15.828   3.808
27760W        W96154  36.082  11.836   1.953
27761W        W96155  35.428   0.292   2.534
27762W        W96156  22.703  23.551   1.333
27763W        W96157   9.389  34.997  10.781
27764W        W96158  11.256   7.543   0.897
27765W        W96159   6.464  22.990  11.137
27766W        W96160   9.888   5.042   1.593
27767W        W96161   6.764  35.822  14.846
27768W        W96162  41.843   0.616   1.463
27769W        W96163  14.107  42.946  13.156
27770W        W96164  23.575  11.292  13.432
27771W        W96165  42.476  24.988  12.367
27772W        W96166  19.261  36.873   2.238
27773W        W96167  23.757  14.211  10.759
27774W        W96168  26.137   0.203   2.763
27775W        W96169  27.100  43.254   1.052
27776W        W96170   4.340   8.811  14.726
27777W        W96171  14.868  29.416  12.753
27778W        W96172  27.131  21.339   1.927
27779W        W96173  39.603  40.541  13.508
27780W        W96174  10.639  22.729   3.560
27781W        W96175   5.981   5.601  12.452
27782W        W96176   9.357  11.160  10.721
27783W        W96177  23.533  30.582   3.911
27784W        W96178   4.307   6.263  13.974
27785W        W96179   1.405  27.582  14.402
27786W        W96180  25.927  27.566   3.217
27787W        W96181  11.340  38.753   2.345
27788W        W96182   4.870  42.344  11.070
27789W        W96183  33.886   8.399  11.924
27790W        W96184  20.171  26.440   4.287
27791W        W96185  34.597   4.178  12.434
27792W        W96186  34.950   0.270   2.294
27793W        W96187  25.217  17.143  10.694
27794W        W96188   5.198  15.042  13.940
27795W        W96189   9.564  41.499   0.245
27796W        W96190  14.131  36.083  13.989
27797W        W96191   8.012  39.061  14.722
27798W        W96192  20.974  18.090   0.395
27799W        W96193   7.454   8.972   0.264
27800W        W96194  33.520  22.881  14.516
27801W        W96195  31.614  20.048   4.305
27802W        W96196  17.263  26.580   1.754
27803W        W96197  33.389  12.882   3.832
27804W        W96198   9.784   8.745  12.960
27805W        W96199  22.897  27.710   4.039
27806W        W96200  28.995  13.810   0.872
27807W        W96201  28.893  11.714  13.371
27808W        W96202  19.604  24.639   2.425
27809W        W96203  22.042   4.932   1.723
27810W        W96204  21.078   3.418   3.241
27811W        W96205  43.964  18.238   3.564
27812W        W96206   5.266  17.403   0.177
27813W        W96207  39.809  12.679  14.035
27814W        W96208  15.272  22.293  11.951
27815W        W96209  38.007  32.867  14.369
27816W        W96210  39.257  17.749   0.970
27817W        W96211  35.046   2.755   3.477
27818W        W96212  39.924  34.121  12.965
27819W        W96213  43.925  43.668   0.693
27820W        W96214  26.587  23.046  13.884
27821W        W96215  18.324  44.727  10.245
27822W        W96216  43.288  24.538  14.006
27823W        W96217   0.482  33.130   4.628
27824W        W96218  30.879  27.996  10.579
27825W        W96219  32.206  30.808   0.318
27826W        W96220  17.847  21.789  12.112
27827W        W96221   1.342  17.760  14.368
27828W        W96222   1.989  15.189  14.848
27829W        W96223  32.918   9.633   4.812
27830W        W96224   8.086  21.856   4.973
27831W        W96225  26.572  34.477   0.923
27832W        W96226  18.093  28.586  14.370
27833W        W96227  15.518  23.513   1.940
27834W        W96228  22.134   1.716   1.414
27835W        W96229  24.272  41.196  10.561
27836W        W96230  11.841   0.733   2.914
27837W        W96231   2.696  14.624   4.182
27838W        W96232   5.751  10.138   2.643
27839W        W96233   9.703  44.332   2.814
27840W        W96234   2.996  34.925   2.747
27841W        W96235  33.909  40.963   4.508
27842W        W96236   3.295  30.108  14.877
27843W        W96237  22.363  44.567   2.911
27844W        W96238   8.314  24.245  12.082
27845W        W96239  27.033  38.997  12.416
27846W        W96240  38.046  14.831  10.562
27847W        W96241  28.150  35.456   2.637
27848W        W96242  37.442   4.488  10.690
27849W        W96243   9.487   7.732  11.089
27850W        W96244  36.310  14.154   4.194
27851W        W96245  11.014   2.347   0.989
27852W        W96246  12.209  39.844   1.435
27853W        W96247   2.008  31.610   2.912
27854W        W96248  12.843   9.552   2.909
27855W        W96249  38.756   6.151  14.579
27856W        W96250  12.899   1.017   1.562
27857W        W96251  31.202  28.643  12.899
27858W        W96252  43.267  26.442   3.219
27859W        W96253  23.627  35.489   4.493
27860W        W96254   0.363  16.617   3.149
27861W        W96255  43.486  35.948   0.724
27862W        W96256  43.996  43.308   4.542
27863W        W96257  24.467   0.517  12.442
27864W        W96258  33.393  25.889  14.520
27865W        W96259  14.593   5.639  14.525
27866W        W96260   7.483   2.849  11.639
27867W        W96261   2.630  39.886  12.469
27868W        W96262  16.257   7.332  12.300
27869W        W96263  20.549  29.504  14.305
27870W        W96264   5.705  30.371   4.530
27871W        W96265   6.803   7.332  13.562
27872W        W96266  36.913  29.414  14.977
27873W        W96267  15.069  15.168  11.986
27874W        W96268  38.218  18.484   4.231
27875W        W96269  21.156  37.848  12.113
27876W        W96270  20.551   2.264   2.740
27877W        W96271   0.559  15.608   4.134
27878W        W96272  31.622   5.917  12.427
27879W        W96273  36.941  13.848  14.441
27880W        W96274  30.991  12.407   2.692
27881W        W96275   1.872  11.396   2.221
27882W        W96276  15.368  16.619   0.283
27883W        W96277  28.126  15.425   5.057
27884W        W96278  27.159  37.962   4.516
27885W        W96279  39.441  35.376   4.661
27886W        W96280  10.292  28.371  11.844
27887W        W96281   0.508  15.700  14.080
27888W        W96282  13.117  31.464  12.909
27889W        W96283  36.126  10.735  11.232
27890W        W96284  42.782  10.069  12.038
27891W        W96285  26.997  25.762   0.351
27892W        W96286  35.921  10.770  11.717
27893W        W96287   6.479  17.824  12.128
27894W        W96288   8.333  40.435   2.220
27895W        W96289   5.200  32.447   4.588
27896W        W96290   9.005  33.054  12.761
27897W        W96291  25.930  32.414   4.820
27898W        W96292  35.390   8.816  12.378
27899W        W96293  19.037  11.390  11.115
27900W        W96294  37.909  15.538  11.207
27901W        W96295   8.715  27.268  13.699
27902W        W96296  41.722  25.480  14.750
27903W        W96297  27.392  17.274   1.538
27904W        W96298  37.902  22.776   4.394
27905W        W96299  19.770  35.950  14.856
27906W        W96300  35.385  20.052  14.422
27907W        W96301  33.392  30.635   4.782
27908W        W96302  11.695  37.551  11.050
27909W        W96303   2.379   5.407   4.157
27910W        W96304  31.109   7.178  12.514
27911W        W96305  32.122  29.716  13.967
27912W        W96306  32.752   0.442  13.739
27913W        W96307  13.510   8.621   0.750
27914W        W96308  28.169   8.285   0.404
27915W        W96309  11.040  40.823   0.724
27916W        W96310   2.470   9.474   1.113
27917W        W96311  19.773   6.792  10.688
27918W        W96312  41.826  21.756  11.746
27919W        W96313  37.984   3.630  14.758
27920W        W96314   5.428  44.295   2.175
27921W        W96315  44.576  34.493  10.552
27922W        W96316  26.611   6.077   5.076
27923W        W96317   6.033  35.621   2.877
27924W        W96318  10.881  11.609   3.676
27925W        W96319  41.769  41.918   0.336
27926W        W96320  15.791  25.577   4.241
27927W        W96321  30.428   0.351   2.751
27928W        W96322  30.647   7.756  14.251
27929W        W96323  27.831  16.642  10.697
27930W        W96324  25.373  16.102  12.548
27931W        W96325  44.087  38.682   4.218
27932W        W96326  31.199   5.801  11.198
27933W        W96327  31.469   4.199   0.670
27934W        W96328  17.111  27.912   5.120
27935W        W96329  20.044  41.933  12.055
27936W        W96330  28.039   9.268   2.928
27937W        W96331  20.773  42.732  13.935
27938W        W96332  44.178  44.795  14.561
27939W        W96333  39.388  25.312   0.852
27940W        W96334  36.354  19.218   4.736
27941W        W96335  26.692  17.705   3.154
27942W        W96336  27.628  22.750  10.778
27943W        W96337  10.105  10.881   2.890
27944W        W96338  28.486  29.557  14.341
27945W        W96339   5.983  41.969   2.449
27946W        W96340   5.475  36.536   4.265
27947W        W96341   8.942  12.737   4.493
27948W        W96342  13.599  16.127   2.843
27949W        W96343  32.372  43.438   4.094
27950W        W96344   1.938  10.224  12.560
27951W        W96345   4.358  32.333  12.924
27952W        W96346   5.502   5.536  11.131
27953W        W96347  43.898  34.860  13.408
27954W        W96348  31.521  17.797   4.395
27955W        W96349  33.048  37.139   3.425
27956W        W96350   5.007   4.897  10.583
27957W        W96351  34.589  19.854  13.952
27958W        W96352  22.040  25.514  14.019
27959W        W96353   7.105  25.577  10.778
27960W        W96354   0.806  37.783   4.593
27961W        W96355  35.559  40.448  12.257
27962W        W96356  29.091  33.826  11.630
27963W        W96357  18.845  14.636  14.470
27964W        W96358  16.701  30.470   0.983
27965W        W96359  10.883  28.982  10.601
27966W        W96360  25.679  43.040  11.233
27967W        W96361  26.724  22.231  14.883
27968W        W96362  38.477  17.240  12.576
27969W        W96363  17.473  12.215  10.337
27970W        W96364  25.516   5.354   1.752
27971W        W96365  43.024  15.751   2.162
27972W        W96366  27.935  29.515   0.841
27973W        W96367  19.803   3.267   3.075
27974W        W96368   4.259  13.507   4.520
27975W        W96369  35.265  37.448   2.669
27976W        W96370   0.528  24.982   2.353
27977W        W96371   9.551   2.630  10.073
27978W        W96372  17.418   6.114   2.708
27979W        W96373   5.772   7.854   1.703
27980W        W96374  15.005  35.754   4.804
27981W        W96375  42.361  20.274   0.026
27982W        W96376  34.370  41.480   3.396
27983W        W96377  33.102  42.357  12.876
27984W        W96378   2.703  33.896  13.406
27985W        W96379  21.994  26.660  12.499
27986W        W96380   8.663  40.534   3.588
27987W        W96381  42.263   7.179  13.553
27988W        W96382   6.895   2.708   2.806
27989W        W96383  30.261   7.795  12.479
27990W        W96384  18.713  25.699   1.411
27991W        W96385   8.790  10.466  11.652
27992W        W96386  18.982  30.846  12.557
27993W        W96387   2.878  23.169  14.945
27994W        W96388  26.125   6.183   4.724
27995W        W96389  26.900  24.712  11.570
27996W        W96390  32.925  36.289  12.372
27997W        W96391  12.631   7.878  11.868
27998W        W96392   2.692  23.500   0.318
27999W        W96393   2.885  10.858   2.208
28000W        W96394  40.416  20.204  12.771
28001W        W96395  35.370  24.695  14.348
28002W        W96396  39.627   1.428  12.786
28003W        W96397  10.166  37.965  14.776
28004W        W96398  25.912   0.399  11.607
28005W        W96399  19.764  24.084  14.750
28006W        W96400   3.677  37.076   3.307
28007W        W96401   0.497  19.550  13.161
28008W        W96402   7.355  16.100   1.880
28009W        W96403   5.485   0.112   1.804
28010W        W96404   7.815  14.467   1.803
28011W        W96405  18.037  33.773   4.029
28012W        W96406   9.110  13.308   1.131
28013W        W96407   7.240  35.024  11.164
28014W        W96408   5.997   0.946   3.287
28015W        W96409  27.228  13.242   1.260
28016W        W96410  25.883  32.381  11.589
28017W        W96411   0.047  29.329   1.413
28018W        W96412  38.569  33.569   0.716
28019W        W96413  28.562  20.153  14.698
28020W        W96414  18.422  20.710   1.734
28021W        W96415  33.955   3.786   2.696
28022W        W96416  40.457   7.650  11.135
28023W        W96417  13.851  30.099  10.959
28024W        W96418  43.083  38.001   4.234
28025W        W96419  28.093  32.724   3.039
28026W        W96420  21.872  11.668   4.480
28027W        W96421  30.571  29.378  11.692
28028W        W96422  23.275  17.786   0.713
28029W        W96423  40.763  30.494  14.436
28030W        W96424  20.588  43.232   1.823
28031W        W96425  43.971  19.157  11.171
28032W        W96426  28.396  11.490  14.738
28033W        W96427  17.278  24.847  10.694
28034W        W96428  21.632  35.614   4.167
28035W        W96429  34.089  24.071  10.688
28036W        W96430   4.308  28.223  10.485
28037W        W96431   1.297  40.309  10.989
28038W        W96432  35.853   4.864   1.722
28039W        W96433  35.641  26.235  12.132
28040W        W96434   7.333  40.070  14.016
28041W        W96435  10.649   6.174   0.258
28042W        W96436  17.032  35.982   1.542
28043W        W96437  10.915  40.427  14.285
28044W        W96438  14.042  20.430  14.106
28045W        W96439   6.964  24.716  14.741
28046W        W96440   3.799   6.397   0.329
28047W        W96441  13.756  30.324  12.962
28048W        W96442  11.451   8.447   3.295
28049W        W96443  17.114  35.473   3.336
28050W        W96444  34.873  17.511   2.287
28051W        W96445   1.909  15.835  14.458
28052W        W96446  26.725  22.739  11.780
28053W        W96447  40.561  24.894   1.324
28054W        W96448  33.144  16.491  11.199
28055W        W96449  42.387   1.712  10.601
28056W        W96450  14.284  19.986  12.946
28057W        W96451  37.596   6.287  13.290
28058W        W96452  38.455  14.701   4.181
28059W        W96453  43.499  40.443  10.560
28060W        W96454  21.934   4.893  13.990
28061W        W96455  35.215  39.137  13.040
28062W        W96456   0.695  17.810  12.475
28063W        W96457  33.075  25.704   4.306
28064W        W96458  24.705   1.451  12.412
28065W        W96459  19.356  39.521  13.344
28066W        W96460  17.398  21.682  14.492
28067W        W96461  13.144  29.417   0.417
28068W        W96462   7.256   7.000  11.113
28069W        W96463  27.989   7.878  10.677
28070W        W96464  18.977  29.628   0.799
28071W        W96465  15.377   7.363   3.673
28072W        W96466  26.179  29.227  13.186
28073W        W96467  10.603  42.095   2.826
28074W        W96468  36.455   4.939  12.839
28075W        W96469  36.356   3.835  10.592
28076W        W96470  40.579  43.966   2.803
28077W        W96471   3.872  35.468   4.726
28078W        W96472  22.676  25.417   4.499
28079W        W96473  24.668  39.598   2.347
28080W        W96474  42.409  26.367   2.643
28081W        W96475  41.745  35.742   4.984
28082W        W96476  33.100  28.652  10.659
28083W        W96477  20.482  11.698   0.802
28084W        W96478  19.429  28.598   4.913
28085W        W96479  29.674  17.573   4.153
28086W        W96480  26.933  44.007   4.140
28087W        W96481   2.791  39.613   3.804
28088W        W96482   8.754  10.689   0.454
28089W        W96483  36.581   6.260  12.990
28090W        W96484  13.744  20.714   3.842
28091W        W96485  26.379  14.018  10.868
28092W        W96486  15.363  32.417  14.847
28093W        W96487   2.257  39.051  12.492
28094W        W96488  10.939  17.867   2.233
28095W        W96489   3.313  39.751   3.882
28096W        W96490  19.580   4.725  11.938
28097W        W96491   6.940  33.997   2.319
28098W        W96492  37.882   8.901  12.486
28099W        W96493  36.997   2.911   3.650
28100W        W96494  24.310  16.705   1.188
28101W        W96495   6.862  15.202  11.937
28102W        W96496  40.255  41.712   0.487
28103W        W96497  32.535  40.760  14.256
28104W        W96498   2.809  17.458   0.389
28105W        W96499  18.300   1.438  10.604
28106W        W96500  18.613   9.248   2.904
28107W        W96501  39.877  33.707   3.105
28108W        W96502  35.648  35.550   3.301
28109W        W96503  38.359   0.668   4.672
28110W        W96504  28.902  22.083   3.062
28111W        W96505  33.973  31.080   0.713
28112W        W96506   5.097  22.787   2.504
28113W        W96507   0.628   0.119   0.252
28114W        W96508  23.139  23.625  12.682
28115W        W96509  33.390  41.582  14.251
28116W        W96510  15.229  38.304   5.083
28117W        W96511   3.797  22.338  11.396
28118W        W96512   7.361  42.758   1.451
28119W        W96513  20.473  16.887   1.789
28120W        W96514  16.894  38.969  11.944
28121W        W96515  29.305   2.741  12.074
28122W        W96516  19.995   2.218  11.677
28123W        W96517  16.842   6.280   3.872
28124W        W96518  27.576  43.852  12.489
28125W        W96519   0.241  28.010   1.214
28126W        W96520  42.333  18.831  10.922
28127W        W96521  41.772   4.323  12.207
28128W        W96522   2.230  31.015  11.688
28129W        W96523   6.429  13.050   4.141
28130W        W96524  12.436  21.288   3.382
28131W        W96525  43.032  11.757   0.685
28132W        W96526  34.165  22.538   1.679
28133W        W96527  42.431  38.776   1.829
28134W        W96528  35.361  25.256  12.983
28135W        W96529  22.482   2.747   1.215
28136W        W96530  26.760   2.457  14.442
28137W        W96531  20.742  41.506  14.157
28138W        W96532  28.230   9.701  12.917
28139W        W96533   8.337  31.160  12.544
28140W        W96534   1.777  29.457  14.992
28141W        W96535  12.194  32.051   9.662
28142W        W96536   9.920   8.344   2.179
28143W        W96537  38.281  19.421  14.643
28144W        W96538  34.940  39.997   0.000
28145W        W96539  24.207   9.584  13.804
28146W        W96540  18.284  25.968   4.229
28147W        W96541  16.756   5.040   5.019
28148W        W96542  21.096  42.760  11.535
28149W        W96543  23.993  26.960   0.699
28150W        W96544   7.733   7.254  10.099
28151W        W96545  36.913  20.916  11.216
28152W        W96546  28.405  35.750   1.337
28153W        W96547  11.692  24.713   3.848
28154W        W96548  38.573  37.465  12.032
28155W        W96549  19.963  18.786  11.614
28156W        W96550  18.648  31.802   3.323
28157W        W96551   5.636  26.073  12.510
28158W        W96552  27.484  33.444   0.845
28159W        W96553  15.294  31.179  14.596
28160W        W96554  23.522  15.138  11.173
28161W        W96555  42.957   4.532   1.260
28162W        W96556  25.171  27.585   2.727
28163W        W96557  19.658  11.725   2.061
28164W        W96558  44.035  41.914  11.897
28165W        W96559  25.458  37.499   4.490
28166W        W96560   4.381  36.574  11.509
28167W        W96561  38.276  14.198  14.417
28168W        W96562   8.864  36.254  14.049
28169W        W96563  37.071  20.242  13.831
28170W        W96564  15.274  29.538  11.830
28171W        W96565  32.023  15.528   2.109
28172W        W96566  13.414  42.264   2.645
28173W        W96567   3.937   4.336   4.790
28174W        W96568   0.442   0.841   1.483
28175W        W96569  20.544  39.054  13.815
28176W        W96570  44.986  30.725  13.943
28177W        W96571  11.488  17.607   3.399
28178W        W96572  43.911  32.387  10.366
28179W        W96573  31.631  10.491   4.156
28180W        W96574  20.780  32.074   1.878
28181W        W96575  28.870  22.490   0.032
28182W        W96576  44.821   7.051  13.502
28183W        W96577  28.228  37.853   0.217
28184W        W96578  12.239  37.132  10.577
28185W        W96579   0.918  44.080  13.489
28186W        W96580  13.936  41.159  11.666
28187W        W96581  31.973  16.711  14.229
28188W        W96582  39.687  25.780  13.440
28189W        W96583   5.351  34.468   4.203
28190W        W96584  32.690  33.449   2.794
28191W        W96585  17.223  23.644   2.423
28192W        W96586  37.460  37.355   2.246
28193W        W96587  13.669  25.484   1.370
28194W        W96588  14.231  10.417   3.758
28195W        W96589  20.729  25.254   3.183
28196W        W96590  33.916  33.887   4.693
28197W        W96591  20.123   6.443   2.315
28198W        W96592  22.467  10.145   0.407
28199W        W96593  11.199   8.977  13.886
28200W        W96594   5.339  17.868   3.108
28201W        W96595  43.913  12.139   3.678
28202W        W96596   0.830   3.662  13.052
28203W        W96597  34.778  30.207   3.812
28204W        W96598  41.111  41.186   0.521
28205W        W96599  29.029  23.973  14.233
28206W        W96600  28.103  14.256   2.195
28207W        W96601  39.117  16.975  11.576
28208W        W96602  41.306  44.196   4.623
28209W        W96603  37.778   0.422  13.942
28210W        W96604  11.809   7.119   3.310
28211W        W96605  30.491  36.540   1.398
28212W        W96606  33.486  10.467   2.534
28213W        W96607   7.366  31.763   4.412
28214W        W96608  17.245  17.638   1.723
28215W        W96609  14.335  27.690   0.702
28216W        W96610  43.484  10.583  14.934
28217W        W96611  20.221  36.666   4.066
28218W        W96612  23.853  13.557   1.594
28219W        W96613   8.911  39.140   3.723
28220W        W96614  31.057  24.975  11.873
28221W        W96615  16.172  18.281   1.755
28222W        W96616  24.637  15.833  13.431
28223W        W96617  30.888  23.175  13.529
28224W        W96618  40.880   0.257  12.458
28225W        W96619  41.039  31.583  13.292
28226W        W96620  28.993  39.552   2.761
28227W        W96621  26.612   3.785  12.596
28228W        W96622   2.009  29.188   1.830
28229W        W96623  20.170  39.381  14.233
28230W        W96624  28.359  30.634   4.341
28231W        W96625  12.379  24.608   3.220
28232W        W96626  34.595  20.531  13.412
28233W        W96627  20.785  42.256   1.927
28234W        W96628  34.640  12.837   4.389
28235W        W96629  29.915  37.362   2.798
28236W        W96630  14.710  28.476   1.789
28237W        W96631  11.612   8.297  14.361
28238W        W96632   2.201  27.923   3.845
28239W        W96633  44.156   1.573  10.453
28240W        W96634   9.325  39.987  12.552
28241W        W96635  20.953  31.139  13.781
28242W        W96636  39.581  41.556   3.544
28243W        W96637  20.102  44.352   0.176
28244W        W96638  40.379  23.415   0.959
28245W        W96639  35.283  25.756  12.840
28246W        W96640  35.996  31.889   1.447
28247W        W96641  40.314  19.214   4.436
28248W        W96642  34.028  30.868   1.189
28249W        W96643  41.354  30.895  12.495
28250W        W96644   9.008  28.306  13.485
28251W        W96645   5.854  13.739   3.755
28252W        W96646  28.594  43.291   5.369
28253W        W96647  12.275  11.795   3.763
28254W        W96648  22.246  13.426   1.415
28255W        W96649  13.714   7.877  11.439
28256W        W96650  35.455   0.431  10.750
28257W        W96651  25.568  32.323  13.479
28258W        W96652   1.908   2.738   1.661
28259W        W96653  32.129  43.865   1.316
28260W        W96654  26.961  16.357  14.275
28261W        W96655  37.901  18.114   0.939
28262W        W96656  34.043  20.143  10.504
28263W        W96657  43.560   5.246   1.754
28264W        W96658  31.729   8.571  11.639
28265W        W96659   2.848  15.375  11.247
28266W        W96660  21.339  25.496  12.674
28267W        W96661  25.061  39.923   0.800
28268W        W96662  40.937   7.664  11.728
28269W        W96663   6.278  27.704  14.995
28270W        W96664  31.948  20.365  12.508
28271W        W96665  28.645  13.785  11.235
28272W        W96666  42.473  12.757  10.962
28273W        W96667  36.092   5.483   3.347
28274W        W96668   1.850   0.283   4.532
28275W        W96669   1.898   5.502   4.349
28276W        W96670  33.861  42.553   3.902
28277W        W96671  43.276  36.025   3.198
28278W        W96672  14.031  11.110  13.168
28279W        W96673  32.904  28.560  11.126
28280W        W96674   1.212  25.156  12.150
28281W        W96675  21.099  15.930   2.086
28282W        W96676  21.249  37.175  13.428
28283W        W96677  10.771  37.976  12.459
28284W        W96678  30.758  42.620   1.514
28285W        W96679  11.880  20.968  10.314
28286W        W96680  19.814   1.469   2.542
28287W        W96681  30.998  32.005   3.181
28288W        W96682  15.587  38.981  11.418
28289W        W96683   2.235   7.544   2.155
28290W        W96684   8.271  40.324  13.345
28291W        W96685  24.610  33.179   0.402
28292W        W96686  17.728  16.177   4.096
28293W        W96687   2.553  13.119   4.631
28294W        W96688   7.173  21.680  10.916
28295W        W96689   1.410  34.682   1.915
28296W        W96690  40.393  41.737   1.347
28297W        W96691  37.029  26.106  11.901
28298W        W96692  25.688  22.260   1.774
28299W        W96693  32.154  13.163   2.180
28300W        W96694  33.037  42.788  11.146
28301W        W96695  30.377  26.040   1.682
28302W        W96696  10.114  27.203  13.575
28303W        W96697  39.966   1.283   1.786
28304W        W96698  12.854  25.356   0.480
28305W        W96699   7.030  19.522   3.612
28306W        W96700  27.024  11.793   3.690
28307W        W96701  42.869  33.440  12.744
28308W        W96702  19.098  14.906   2.175
28309W        W96703  33.893  18.242  14.445
28310W        W96704  32.412  40.550   1.631
28311W        W96705   6.500  20.030   1.421
28312W        W96706  21.063  44.341   1.372
28313W        W96707  24.045   7.368   4.285
28314W        W96708  19.635  31.928   4.038
28315W        W96709  20.141  19.683  11.581
28316W        W96710  20.963  13.298  11.153
28317W        W96711  19.015  25.547  12.962
28318W        W96712  10.363  29.355  11.618
28319W        W96713  30.641  40.357   2.610
28320W        W96714   2.271   9.575  13.469
28321W        W96715  10.729   0.935  14.389
28322W        W96716  38.640  37.089  12.982
28323W        W96717  37.900  32.400  14.184
28324W        W96718  34.600   2.868  10.717
28325W        W96719   1.343  38.392   2.694
28326W        W96720  22.730   0.095  11.902
28327W        W96721  38.767  39.623   0.851
28328W        W96722  31.412  30.164   4.578
28329W        W96723  30.422   8.463   0.672
28330W        W96724  17.504  42.983   2.892
28331W        W96725  44.948  19.921   4.055
28332W        W96726  29.397  14.817   2.252
28333W        W96727  40.803  15.132   0.245
28334W        W96728  41.368  14.002  14.417
28335W        W96729   4.430  20.948   1.207
28336W        W96730  37.366  14.158  14.429
28337W        W96731  29.658  16.342   3.121
28338W        W96732   3.694  13.167   0.316
28339W        W96733  13.323  14.009   4.611
28340W        W96734  20.622  10.418   2.648
28341W        W96735  27.955  24.013   2.767
28342W        W96736   0.039  28.174   4.847
28343W        W96737  12.307  40.998   0.910
28344W        W96738  44.682  17.145  12.994
28345W        W96739  42.824  22.161  12.496
28346W        W96740  22.562  28.142   1.038
28347W        W96741  11.456  12.572  13.236
28348W        W96742  33.940  39.310  10.731
28349W        W96743  36.204   8.239   3.595
28350W        W96744  17.820   2.333   0.004
28351W        W96745   2.013  24.091  12.815
28352W        W96746  36.340  39.007   4.509
28353W        W96747  35.263  12.339  12.382
28354W        W96748  33.293  44.330   3.262
28355W        W96749  28.682  16.720   4.498
28356W        W96750  38.228  22.091   1.485
28357W        W96751  12.206  37.748   4.884
28358W        W96752  12.096  32.455  12.501
28359W        W96753  18.237  44.300   0.271
28360W        W96754   5.759  22.334  10.742
28361W        W96755  10.113  12.775   3.755
28362W        W96756   0.725  28.661   1.039
28363W        W96757   4.314  34.146  12.445
28364W        W96758  35.968  30.919  11.052
28365W        W96759   1.297  29.925   3.709
28366W        W96760  12.032  14.773  10.551
28367W        W96761  19.162  10.213   4.361
28368W        W96762  13.654  24.997   3.422
28369W        W96763  31.205  14.138  10.895
28370W        W96764  13.174  30.028  11.859
28371W        W96765  21.053  32.464  10.412
28372W        W96766  20.544  43.578   2.629
28373W        W96767  11.558  32.624  11.557
28374W        W96768  39.786  14.752  13.270
28375W        W96769  13.180  34.560  13.137
28376W        W96770  11.335  34.611  14.987
28377W        W96771  34.129   4.330   0.289
28378W        W96772   2.475  37.128  12.524
28379W        W96773  18.558  30.630   4.382
28380W        W96774  13.774   5.214  12.045
28381W        W96775  10.892   4.862  14.787
28382W        W96776  34.594  17.092   3.916
28383W        W96777  44.936   8.789   3.534
28384W        W96778  38.402  42.272   1.909
28385W        W96779   2.675  40.313   3.230
28386W        W96780  33.936   0.290   4.792
28387W        W96781  17.778   2.311  13.960
28388W        W96782  40.751   0.513  12.900
28389W        W96783  42.899  31.595  10.738
28390W        W96784  36.934  17.296  13.534
28391W        W96785  16.254  21.650   1.866
28392W        W96786  33.113   8.769  10.580
28393W        W96787  23.946  26.565  11.201
28394W        W96788  43.328  23.351   4.626
28395W        W96789   8.753   2.360  14.997
28396W        W96790  32.720  20.195   0.361
28397W        W96791  43.991   6.194  10.638
28398W        W96792  18.764  39.870   2.868
28399W        W96793  13.358  15.536   2.341
28400W        W96794   1.014  18.688  13.451
28401W        W96795  21.602  39.111  11.611
28402W        W96796   3.214   7.403   0.274
28403W        W96797  21.919  36.754   1.269
28404W        W96798  21.694  39.905   4.409
28405W        W96799  12.077  32.595  11.598
28406W        W96800  25.654  25.947   2.811
28407W        W96801  13.192  44.833   2.940
28408W        W96802  13.998   8.487  13.994
28409W        W96803  29.246  37.349   4.638
28410W        W96804  23.887  31.707   2.717
28411W        W96805  17.849   2.973  12.876
28412W        W96806  25.519  43.298   1.438
28413W        W96807  40.088  38.338   0.363
28414W        W96808  44.645  24.362  13.179
28415W        W96809  36.896  41.813   3.451
28416W        W96810  30.920  20.082  10.534
28417W        W96811   2.847  27.709  14.818
28418W        W96812  10.843  37.493  13.333
28419W        W96813  21.085  23.526  10.627
28420W        W96814  34.432  23.898  12.849
28421W        W96815  21.845  29.632   4.644
28422W        W96816  14.645  34.999   1.295
28423W        W96817  13.628  24.472  13.458
28424W        W96818  15.053  32.604   1.286
28425W        W96819  19.081   4.385  12.601
28426W        W96820  28.235  35.042   1.952
28427W        W96821  25.752  14.171   4.436
28428W        W96822  34.389  37.384   4.033
28429W        W96823   4.459  13.576  10.800
28430W        W96824  20.692   0.757  10.821
28431W        W96825  22.171   1.295  11.032
28432W        W96826  37.879   3.655   0.692
28433W        W96827  41.287  12.256   2.216
28434W        W96828  20.621  40.294  12.233
28435W        W96829  28.490  44.029   0.000
28436W        W96830  24.011   7.116  14.171
28437W        W96831  14.159  38.644   3.314
28438W        W96832   3.297  12.089   0.952
28439W        W96833  24.604  22.826   1.836
28440W        W96834  23.968  19.560   4.056
28441W        W96835  43.036  12.279  12.007
28442W        W96836  10.230  36.293   3.661
28443W        W96837  41.915  12.086   4.021
28444W        W96838   3.589   8.264   1.249
28445W        W96839  30.485   3.372  12.293
28446W        W96840  18.227  37.273  10.835
28447W        W96841  40.576  16.857  11.152
28448W        W96842   6.255  19.279   4.547
28449W        W96843   5.583   2.805   0.504
28450W        W96844  23.105  29.299  13.574
28451W        W96845   5.825  19.978  13.690
28452W        W96846  39.369  35.039   3.551
28453W        W96847  19.901  15.173   3.714
28454W        W96848  29.231  17.157   3.223
28455W        W96849  14.384   6.007   2.699
28456W        W96850  44.069   7.220  10.688
28457W        W96851  23.612  42.410  11.757
28458W        W96852  37.303   3.890   3.232
28459W        W96853  18.757  13.261   2.686
28460W        W96854  28.700  25.247  12.503
28461W        W96855  42.120   3.881   3.709
28462W        W96856  24.503  24.190   3.185
28463W        W96857   2.898   4.735  11.020
28464W        W96858  34.749   4.906   1.469
28465W        W96859   3.210  10.901  13.973
28466W        W96860  38.576   6.359  13.264
28467W        W96861   4.764  37.780   3.055
28468W        W96862  11.288  14.086  12.456
28469W        W96863   9.860  26.789  11.003
28470W        W96864  33.525  39.110  12.332
28471W        W96865  15.180  44.408  14.304
28472W        W96866  21.080  38.854   0.951
28473W        W96867  43.381  28.061  11.671
28474W        W96868  42.801  36.612  13.391
28475W        W96869  21.573  42.256   0.384
28476W        W96870  13.342  24.931  13.932
28477W        W96871  33.439  41.064   0.254
28478W        W96872  33.113  22.242   4.287
28479W        W96873  19.566  40.546   0.888
28480W        W96874  39.719  31.882  11.077
28481W        W96875   1.022  35.274   3.345
28482W        W96876  36.027  29.497  12.199
28483W        W96877  36.927  32.547   1.726
28484W        W96878  20.110  27.551   1.242
28485W        W96879  41.575  35.649  11.327
28486W        W96880   3.501   4.734  11.605
28487W        W96881  21.543   9.319   4.493
28488W        W96882   3.732  26.570   1.262
28489W        W96883   7.289  41.861   1.258
28490W        W96884  34.010  31.951   3.396
28491W        W96885  21.198  41.332  12.806
28492W        W96886   4.935  34.696  13.057
28493W        W96887  22.534  15.994  14.871
28494W        W96888  28.189   6.860   0.691
28495W        W96889  16.712  42.639   4.269
28496W        W96890   7.731  19.812   2.309
28497W        W96891  27.387  30.673  12.452
28498W        W96892  38.950  44.997   2.224
28499W        W96893   2.720  37.641   4.987
28500W        W96894  27.971  27.582  11.664
28501W        W96895  34.462  21.691   3.595
28502W        W96896  19.546  44.241  13.470
28503W        W96897  36.945  17.731   1.653
28504W        W96898   6.303  11.094  11.136
28505W        W96899   5.879   7.695  13.017
28506W        W96900  18.193   7.534  10.387
28507W        W96901  17.698  15.595   2.193
28508W        W96902  34.383   4.945   4.562
28509W        W96903   3.696  10.124   3.879
28510W        W96904   7.863  16.014   2.783
28511W        W96905  38.687  33.262   5.137
28512W        W96906   3.166   5.264  10.817
28513W        W96907  40.492  10.952   3.200
28514W        W96908  26.864  34.845  11.116
28515W        W96909  29.387  15.914  14.746
28516W        W96910  32.433   0.644   3.842
28517W        W96911  16.936  34.277  11.554
28518W        W96912  41.885  24.584  14.918
28519W        W96913  37.560  35.849   3.392
28520W        W96914   1.798   0.095  14.084
28521W        W96915  20.285  24.961  14.971
28522W        W96916   9.725  16.184  10.951
28523W        W96917  18.167   0.231  14.739
28524W        W96918   7.382  32.826  11.487
28525W        W96919   0.260  39.909  13.856
28526W        W96920  16.535   0.942  11.754
28527W        W96921  27.055  23.367   2.826
28528W        W96922   2.835  17.985   0.280
28529W        W96923  27.951  12.278  11.604
28530W        W96924  18.427   4.231   1.346
28531W        W96925  42.075   9.389   2.895
28532W        W96926  22.973  19.078  14.940
28533W        W96927  19.966  29.696  11.202
28534W        W96928  26.348  33.838  14.340
28535W        W96929  38.664  10.635   3.673
28536W        W96930  13.638  13.621  13.514
28537W        W96931  37.469  29.521   4.409
28538W        W96932  27.512  39.595   1.749
28539W        W96933  43.951  22.895   4.358
28540W        W96934  41.257   0.220  11.632
28541W        W96935   3.974  39.493   1.958
28542W        W96936  11.880   5.239   2.155
28543W        W96937  13.767  15.144   4.663
28544W        W96938  19.681  40.595  11.407
28545W        W96939  34.845  16.122   2.585
28546W        W96940  32.079  41.883  12.502
28547W        W96941  10.498  30.443  10.321
28548W        W96942  19.293   4.848  10.658
28549W        W96943  17.328   8.105  12.978
28550W        W96944   9.789  26.205   4.187
28551W        W96945  27.140   1.932  13.568
28552W        W96946  28.919  27.466  11.175
28553W        W96947  20.529  11.008   1.508
28554W        W96948   2.698  27.463   1.810
28555W        W96949  27.681  28.768   4.517
28556W        W96950  31.028  26.276  13.401
28557W        W96951  17.339   2.529   3.130
28558W        W96952   7.342  21.787   3.691
28559W        W96953  26.842  24.758  12.424
28560W        W96954   6.268  10.771   0.935
28561W        W96955  27.244   7.866   0.660
28562W        W96956  17.471  12.830  10.682
28563W        W96957   6.915  39.749  14.874
28564W        W96958  30.489   2.918   1.003
28565W        W96959  28.483  27.979  10.714
28566W        W96960  30.222  23.589   2.257
28567W        W96961  40.132  31.356  12.912
28568W        W96962  26.286  20.409   0.308
28569W        W96963  19.972   0.324   3.279
28570W        W96964   2.234  44.005  11.181
28571W        W96965  25.248  42.593   1.973
28572W        W96966   6.195  12.177   3.755
28573W        W96967  44.992   8.692   1.636
28574W        W96968  10.651  21.898   3.255
28575W        W96969  14.234  26.499   0.660
28576W        W96970  36.302  30.145   2.349
28577W        W96971  37.484  31.298  12.359
28578W        W96972  23.088  37.900  12.387
28579W        W96973  17.673  25.961  14.870
28580W        W96974  20.046  23.916   2.311
28581W        W96975  20.944  26.062   1.695
28582W        W96976  42.349  21.234  12.952
28583W        W96977  14.083   1.934   3.677
28584W        W96978   1.773  41.960  14.418
28585W        W96979  41.349  15.672   3.634
28586W        W96980  11.744   3.527   3.288
28587W        W96981  44.891  13.705  13.170
28588W        W96982  36.661  34.640   1.276
28589W        W96983  41.229  28.935   1.252
28590W        W96984  37.849  20.417  11.193
28591W        W96985   7.717  43.489  13.479
28592W        W96986   9.211  17.605   4.433
28593W        W96987  10.256  18.702   0.880
28594W        W96988  16.672  36.814   3.635
28595W        W96989  18.768  24.776   1.252
28596W        W96990  33.065   3.220   2.989
28597W        W96991  31.597  41.557   4.353
28598W        W96992  36.374  10.117   2.727
28599W        W96993  41.831  31.552   1.186
28600W        W96994  41.815   3.939  12.638
28601W        W96995  16.281  25.996  13.032
28602W        W96996  15.762  27.085   3.708
28603W        W96997  22.165  28.810  12.441
28604W        W96998  37.567   4.945   4.337
28605W        W96999  36.569  21.788   2.100
28606W        W97000  17.959  32.767  10.636
28607W        W97001  17.699  10.428  12.328
28608W        W97002  17.182  40.034  12.943
28609W        W97003  15.620   7.277  12.921
28610W        W97004  16.607  39.513   3.232
28611W        W97005  40.806  28.174   1.006
28612W        W97006  26.703  27.501   2.745
28613W        W97007   8.386   8.785   0.067
28614W        W97008   6.926  23.583  14.502
28615W        W97009  11.150  12.804  13.659
28616W        W97010  28.272  15.078   0.913
28617W        W97011   1.482  27.200   4.023
28618W        W97012  41.908  29.996   1.116
28619W        W97013  11.105  29.885  10.987
28620W        W97014  39.979  15.949   1.970
28621W        W97015  11.208  26.229   2.406
28622W        W97016   7.419  33.081  11.042
28623W        W97017   4.977  17.614  11.528
28624W        W97018  22.278  32.894  13.522
28625W        W97019  22.046  41.192  14.947
28626W        W97020  25.127  40.320   2.319
28627W        W97021  22.089  36.036  11.160
28628W        W97022  26.417   8.958  12.434
28629W        W97023  16.889  36.967   0.427
28630W        W97024  15.542  29.178   1.904
28631W        W97025   8.423  42.997  12.612
28632W        W97026  19.743  38.421   2.291
28633W        W97027  34.502   2.036  13.331
28634W        W97028  21.011  16.849  13.331
28635W        W97029  20.413  10.907   4.212
28636W        W97030   9.225  21.800   3.822
28637W        W97031  14.132  40.000   3.705
28638W        W97032   4.870  18.031   1.901
28639W        W97033  15.035  41.762  12.447
28640W        W97034  41.699   5.753   1.336
28641W        W97035  37.064  40.079  11.502
28642W        W97036  15.287   0.681   4.330
28643W        W97037  23.976   1.778  10.914
28644W        W97038  23.460   3.518  12.325
28645W        W97039  29.349  18.057   1.414
28646W        W97040  32.548  32.018   4.601
28647W        W97041  23.236  43.505   0.846
28648W        W97042   0.136  15.048  14.384
28649W        W97043  39.772  43.780  14.989
28650W        W97044  17.506  27.448  14.792
28651W        W97045   3.745   4.998   2.999
28652W        W97046   9.426  34.134  13.446
28653W        W97047  21.011   7.692   4.173
28654W        W97048  44.479  20.561   4.955
28655W        W97049  23.097  21.018   1.315
28656W        W97050   2.270  40.524   1.017
28657W        W97051  37.867  11.117   1.689
28658W        W97052  28.072  12.378  14.333
28659W        W97053  27.291  11.294   3.652
28660W        W97054   4.754  37.952   4.582
28661W        W97055  19.772  32.709   2.170
28662W        W97056  17.043  18.628  11.959
28663W        W97057  42.263  44.259  14.339
28664W        W97058  12.881  41.327  11.158
28665W        W97059   9.857  34.585   2.120
28666W        W97060  35.734  43.555  12.415
28667W        W97061   5.273  22.294   3.615
28668W        W97062   8.773  35.604  11.851
28669W        W97063  26.564   4.893   3.809
28670W        W97064  30.979   8.927   5.004
28671W        W97065  42.207  28.064  11.162
28672W        W97066   0.512  17.465   2.925
28673W        W97067  29.407  37.071  11.211
28674W        W97068  33.819  25.703  11.533
28675W        W97069  34.375  14.714   4.164
28676W        W97070   8.996   7.210   2.509
28677W        W97071  39.058  33.650  10.456
28678W        W97072  14.289   0.037  11.057
28679W        W97073  13.141  13.305  13.059
28680W        W97074  34.937  41.501   4.037
28681W        W97075  20.225   8.734   1.411
28682W        W97076  34.142   6.325   0.238
28683W        W97077  33.889  25.209  11.465
28684W        W97078  13.249  44.386   0.166
28685W        W97079  27.941  22.180   3.274
28686W        W97080  11.707   0.321  12.240
28687W        W97081  31.958  13.689  12.507
28688W        W97082  35.109  20.893   1.082
28689W        W97083  36.904  43.798  13.974
28690W        W97084  11.879   7.232  12.910
28691W        W97085  30.860  10.695  10.554
28692W        W97086  34.913   5.343   4.137
28693W        W97087  10.679  41.956  12.222
28694W        W97088  38.582  37.989   1.756
28695W        W97089  28.655  19.081   4.212
28696W        W97090  16.170  20.714   1.968
28697W        W97091  28.959   3.769  13.460
28698W        W97092  21.109   7.303  12.914
28699W        W97093  20.287  40.812   0.772
28700W        W97094   6.697  36.828   0.807
28701W        W97095  42.963  37.574  11.226
28702W        W97096  43.404   0.354  14.957
28703W        W97097   1.082  26.766   4.467
28704W        W97098  14.263  12.161  13.598
28705W        W97099  15.905  29.636  13.532
28706W        W97100  20.548  14.801   1.795
28707W        W97101  44.935  31.125  13.090
28708W        W97102  13.289  15.603   3.682
28709W        W97103  27.929  14.619   3.907
28710W        W97104  21.688   3.347   4.785
28711W        W97105  42.638  29.857  12.579
28712W        W97106  36.449  38.288  14.818
28713W        W97107   5.984   4.217  12.168
28714W        W97108   3.495  27.465  10.762
28715W        W97109  42.991  11.498  13.365
28716W        W97110   2.716  25.134  12.426
28717W        W97111  31.514  17.553   3.405
28718W        W97112   3.037  42.479  10.810
28719W        W97113   0.396   1.867   3.976
28720W        W97114   7.330   6.033  13.314
28721W        W97115  31.897  12.446  10.815
28722W        W97116  24.633  43.468   0.341
28723W        W97117  43.259  22.169   3.226
28724W        W97118   8.713   2.467  11.987
28725W        W97119   5.860  16.107  12.945
28726W        W97120  43.943  42.390  10.662
28727W        W97121   7.347  20.335  12.145
28728W        W97122  12.191  16.065  13.598
28729W        W97123  42.352  19.244  14.117
28730W        W97124  21.487  28.370  12.701
28731W        W97125  18.482  11.746  14.890
28732W        W97126  44.079  12.248  11.044
28733W        W97127  13.566   7.318  12.148
28734W        W97128  29.509   1.216   4.125
28735W        W97129  22.002  20.677  14.463
28736W        W97130  29.311  21.594  13.117
28737W        W97131  23.018  28.097   2.883
28738W        W97132  15.779  26.678   4.064
28739W        W97133  35.966  33.523  10.993
28740W        W97134  28.268  17.601   4.123
28741W        W97135  32.962  10.913   1.884
28742W        W97136  10.269  12.290   3.623
28743W        W97137  36.511  26.207   1.103
28744W        W97138  44.913  22.361   3.865
28745W        W97139  32.987  17.644  11.895
28746W        W97140  19.680  23.800   1.759
28747W        W97141  36.550  14.862   1.308
28748W        W97142  17.074  35.900   0.105
28749W        W97143   7.387  10.142   1.091
28750W        W97144  21.476  33.857  14.262
28751W        W97145  15.080  39.899  14.283
28752W        W97146  26.443  37.359   1.786
28753W        W97147  38.859  13.715  12.494
28754W        W97148  23.057  42.533   1.027
28755W        W97149  11.652   2.634   2.769
28756W        W97150   2.772  30.168  14.014
28757W        W97151  30.381  12.268  12.032
28758W        W97152   6.805   4.088  11.781
28759W        W97153  29.197  24.270   1.291
28760W        W97154  37.981  42.492  12.663
28761W        W97155  35.355  30.716  13.103
28762W        W97156  31.654   9.680   1.852
28763W        W97157  28.177   3.331   1.425
28764W        W97158   3.314  10.724   0.291
28765W        W97159  21.702  27.262  13.452
28766W        W97160  34.159  20.195  13.877
28767W        W97161  32.140  23.150  14.489
28768W        W97162  27.771  18.203   3.339
28769W        W97163  13.329  34.342   3.318
28770W        W97164   1.154   6.150   5.105
28771W        W97165  40.683  24.563  11.228
28772W        W97166  42.653  25.410   3.173
28773W        W97167  34.421  13.348  10.997
28774W        W97168   9.350   7.011  11.653
28775W        W97169  18.145  28.682  11.122
28776W        W97170  30.950  16.961  13.381
28777W        W97171  41.439   2.422  14.049
28778W        W97172  34.867  10.957  10.919
28779W        W97173   9.200  22.929   1.891
28780W        W97174   7.391  22.964  14.788
28781W        W97175   1.856  31.581  14.336
28782W        W97176  40.322  19.249   3.814
28783W        W97177  15.732   3.198   0.025
28784W        W97178  43.726  31.479   2.301
28785W        W97179  14.505  35.948   3.158
28786W        W97180  33.143  44.939   2.769
28787W        W97181  15.565   5.155  12.069
28788W        W97182  14.755  30.904   0.340
28789W        W97183   1.979  31.447  10.445
28790W        W97184  15.601  28.906   2.371
28791W        W97185   3.981  27.007   2.340
28792W        W97186   6.108  14.140   3.529
28793W        W97187   0.034   0.670   3.889
28794W        W97188   0.082  12.333  11.980
28795W        W97189  41.826  43.406  13.436
28796W        W97190  35.512  14.741   2.857
28797W        W97191  15.875   2.477  13.856
28798W        W97192  38.886   0.838   4.587
28799W        W97193   2.786  39.243   2.122
28800W        W97194   5.780   2.786   1.344
28801W        W97195  35.450   8.660   5.200
28802W        W97196  29.502  43.891  14.906
28803W        W97197   4.248  12.073  13.331
28804W        W97198  19.077  11.621   4.064
28805W        W97199  31.054  33.175   2.890
28806W        W97200   3.817   1.603  13.031
28807W        W97201  41.388  21.254  12.851
28808W        W97202  20.529  36.119   0.498
28809W        W97203   1.573  14.211   2.673
28810W        W97204   5.214  21.816  13.887
28811W        W97205  41.981  10.225   0.517
28812W        W97206  35.844   8.080   2.223
28813W        W97207  29.642  33.058  12.485
28814W        W97208  22.075  23.642   2.419
28815W        W97209  34.922  10.300  14.559
28816W        W97210  32.987  39.379  11.179
28817W        W97211   4.107   4.376   1.701
28818W        W97212  33.804   7.081   2.792
28819W        W97213  11.486  35.645   1.418
28820W        W97214  32.074  26.997  11.943
28821W        W97215   1.400  14.655  12.306
28822W        W97216  25.713   0.814  11.361
28823W        W97217   5.754  40.482   0.292
28824W        W97218  11.258   0.453  11.965
28825W        W97219  21.132  24.095   0.829
28826W        W97220  41.327   9.359  14.279
28827W        W97221  29.962  40.353   3.326
28828W        W97222  28.471  16.261   4.337
28829W        W97223  17.819  17.627   0.559
28830W        W97224   2.998   0.096  11.545
28831W        W97225  10.338   8.306   1.892
28832W        W97226  25.729  39.981  14.843
28833W        W97227  19.908  44.207   3.873
28834W        W97228  25.519  31.630   1.321
28835W        W97229   5.809  29.870   4.454
28836W        W97230   1.474  42.077  11.507
28837W        W97231  33.247  18.012  12.146
28838W        W97232  36.247  33.098  10.774
28839W        W97233  44.434  12.761  11.790
28840W        W97234  23.971  43.328  12.850
28841W        W97235   9.616  41.968  12.097
28842W        W97236  42.295  13.049   2.315
28843W        W97237   0.773  22.426   3.307
28844W        W97238  22.985  21.947   0.863
28845W        W97239   7.612  23.281   5.103
28846W        W97240  14.612   1.260  11.591
28847W        W97241  13.304  22.232   4.130
28848W        W97242   3.241   8.829  12.902
28849W        W97243   7.218  13.195   2.094
28850W        W97244  41.905  33.558   4.811
28851W        W97245  33.950  23.457   1.253
28852W        W97246  19.338  23.805   0.803
28853W        W97247  28.588  25.452   1.861
28854W        W97248  23.122   5.023  10.544
28855W        W97249  12.305  41.395   4.394
28856W        W97250  12.425  29.778   3.695
28857W        W97251  41.703  22.799   2.184
28858W        W97252  42.479  31.077  10.669
28859W        W97253   8.323  29.593  10.475
28860W        W97254  44.065  34.919   1.486
28861W        W97255  18.463   0.210   4.534
28862W        W97256  28.912  22.261   2.185
28863W        W97257  40.522  17.006  13.790
28864W        W97258   8.791  23.485   0.429
28865W        W97259  20.487  41.332   2.908
28866W        W97260   9.855  15.739   1.748
28867W        W97261  10.652  16.559   1.742
28868W        W97262  37.322  32.428  11.429
28869W        W97263  29.641  24.914  10.696
28870W        W97264  37.285  36.953   1.324
28871W        W97265  13.340  13.235   1.988
28872W        W97266  27.249  11.506  12.355
28873W        W97267  33.425  34.087   1.842
28874W        W97268  44.233   6.335   3.767
28875W        W97269  23.209   1.609   4.227
28876W        W97270   1.520   5.880   2.775
28877W        W97271  25.600  32.439   4.419
28878W        W97272  28.246  39.454   4.814
28879W        W97273  31.563  20.491   1.940
28880W        W97274  31.492  12.029  12.823
28881W        W97275  16.274  40.501  13.589
28882W        W97276   4.675  43.381   1.696
28883W        W97277  33.629  23.655  11.028
28884W        W97278  10.814   4.949   2.136
28885W        W97279   1.834  17.211   0.532
28886W        W97280  36.833  13.694  10.574
28887W        W97281  11.753   9.892  12.446
28888W        W97282  11.689   4.748   1.917
28889W        W97283  41.019  16.639  12.571
28890W        W97284  12.099  30.411  14.578
28891W        W97285  41.444   5.666  11.335
28892W        W97286   9.712   6.000  11.154
28893W        W97287  22.670  41.061  11.196
28894W        W97288  44.746  28.034   0.270
28895W        W97289  23.429  16.811  11.531
28896W        W97290  19.129  33.142   4.667
28897W        W97291  22.620  38.540  10.827
28898W        W97292  26.281  11.301   3.726
28899W        W97293   0.739  34.032   2.358
28900W        W97294  26.341  22.946   2.366
28901W        W97295  16.303  21.462   4.712
28902W        W97296  21.169  16.007  10.484
28903W        W97297  44.615  33.858   9.823
28904W        W97298  24.469  20.468  11.431
28905W        W97299   3.404  13.965   2.764
28906W        W97300  44.633   6.313  12.731
28907W        W97301  21.748  31.396  10.825
28908W        W97302  28.781  36.659  10.705
28909W        W97303   8.727  44.895  13.265
28910W        W97304  20.054  12.643  14.992
28911W        W97305   7.724  44.312  14.495
28912W        W97306  37.683  41.797  12.377
28913W        W97307  29.541  18.802   0.391
28914W        W97308   7.682  42.546  12.950
28915W        W97309  13.040   1.393   2.666
28916W        W97310  11.603  26.125  13.434
28917W        W97311  20.027  14.349   0.294
28918W        W97312  33.999   6.713   2.358
28919W        W97313  34.402  22.918  12.565
28920W        W97314  39.379  44.894   4.496
28921W        W97315   9.372  25.703   0.377
28922W        W97316   1.842   6.828   0.699
28923W        W97317  28.124  22.416  13.485
28924W        W97318   7.659  27.569  10.321
28925W        W97319  21.464   7.318   1.928
28926W        W97320   7.087  28.144  13.432
28927W        W97321  34.021  33.417   0.309
28928W        W97322   9.864  22.954  10.175
28929W        W97323  39.310  26.135  11.114
28930W        W97324  41.966   6.155   0.430
28931W        W97325  44.887   0.015   1.765
28932W        W97326  16.399  39.127  12.060
28933W        W97327  38.199  20.153  11.943
28934W        W97328  28.137   0.482   4.629
28935W        W97329  22.774  35.499   1.847
28936W        W97330  11.858   9.788   1.480
28937W        W97331  43.231  32.869   3.684
28938W        W97332  24.040  39.903  10.927
28939W        W97333  17.774   0.233  10.677
28940W        W97334  36.883   9.304  10.798
28941W        W97335  16.276   8.782   1.752
28942W        W97336  36.493  42.367   4.557
28943W        W97337  16.190  18.436  10.697
28944W        W97338  27.326  13.029  11.586
28945W        W97339  32.508   4.859   3.227
28946W        W97340   4.612  27.237   3.617
28947W        W97341  22.066   0.015  13.297
28948W        W97342  25.525  40.807   4.630
28949W        W97343  25.404   6.779   4.784
28950W        W97344  12.936  25.950   0.678
28951W        W97345  34.117  42.665  14.405
28952W        W97346   2.761  40.548   1.794
28953W        W97347   2.182  23.557   0.414
28954W        W97348  41.397  16.240  12.519
28955W        W97349  42.265  24.979  10.748
28956W        W97350  18.245  37.476   0.517
28957W        W97351  31.633   9.281  13.952
28958W        W97352  39.014  28.394   2.784
28959W        W97353   1.494   5.893   0.486
28960W        W97354  29.502   6.233  13.054
28961W        W97355  12.736  14.921   4.551
28962W        W97356  12.623  13.835  10.742
28963W        W97357  28.796   2.366  13.615
28964W        W97358  33.957  41.504  12.490
28965W        W97359  24.163  38.759   0.959
28966W        W97360  27.154  25.496   4.396
28967W        W97361   1.802  28.669   4.252
28968W        W97362  35.985  21.902  11.124
28969W        W97363  29.011  11.602   2.231
28970W        W97364  19.520  31.701   0.288
28971W        W97365  39.443  13.562   3.351
28972W        W97366   2.092  41.819   4.495
28973W        W97367  41.876   6.852   4.758
28974W        W97368   7.962  39.043  12.037
28975W        W97369   0.387  29.923  13.851
28976W        W97370   6.290  37.850   4.359
28977W        W97371   7.653  22.156   0.807
28978W        W97372  37.310  25.146  14.825
28979W        W97373  37.865   2.340   4.679
28980W        W97374  18.619  16.809   0.833
28981W        W97375  34.114  39.008   4.633
28982W        W97376  40.473   5.183   4.116
28983W        W97377  16.032   3.130   2.496
28984W        W97378  14.842  24.601   4.759
28985W        W97379  38.884   3.514   3.358
28986W        W97380  16.667  39.872  12.549
28987W        W97381  35.393  38.665  12.901
28988W        W97382  43.617  21.242  13.361
28989W        W97383  29.770  31.352  11.625
28990W        W97384  22.749  30.567   3.197
28991W        W97385   7.849   3.066  14.377
28992W        W97386  41.473  30.206   1.282
28993W        W97387  43.632  35.524   4.978
28994W        W97388  35.159  41.888  12.423
28995W        W97389  25.250  40.587   2.809
28996W        W97390  40.566   4.058   0.604
28997W        W97391  17.220  35.306  11.654
28998W        W97392   2.981   3.796   3.061
28999W        W97393  25.374  41.999  10.822
29000W        W97394  15.108  40.618  12.964
29001W        W97395  30.830  44.990   2.650
29002W        W97396   4.890  44.366   2.192
29003W        W97397  40.527  37.905   3.626
29004W        W97398  34.651   8.012   3.614
29005W        W97399  17.943  33.058  12.366
29006W        W97400  21.567  12.522   4.714
29007W        W97401  27.947  38.055  12.394
29008W        W97402  11.433  41.265  10.366
29009W        W97403  37.005  27.003   1.430
29010W        W97404  41.767   4.891   4.608
29011W        W97405  11.582  24.300   3.087
29012W        W97406  40.752  28.431   2.252
29013W        W97407   2.965  25.203   0.874
29014W        W97408   7.533  38.517  12.824
29015W        W97409   8.480  28.605   0.879
29016W        W97410  43.527  14.319   2.707
29017W        W97411  19.055   3.529  13.397
29018W        W97412  28.951  30.966  11.612
29019W        W97413  22.821  12.689   1.821
29020W        W97414   4.343  24.236   9.946
29021W        W97415   0.560  38.978  12.067
29022W        W97416  38.775  41.891   0.787
29023W        W97417   0.956  31.586   2.169
29024W        W97418  13.088   9.505   4.809
29025W        W97419  36.002   0.753  12.934
29026W        W97420  26.006  36.336   2.366
29027W        W97421   2.061  22.026   4.474
29028W        W97422  12.150  31.027  10.716
29029W        W97423  34.124  35.446  13.191
29030W        W97424  12.678   4.294  13.926
29031W        W97425  38.967  22.110  11.308
29032W        W97426  35.364  39.470   4.344
29033W        W97427   6.257  19.348   4.049
29034W        W97428  31.637   2.276   2.718
29035W        W97429   9.165   8.608   0.780
29036W        W97430  15.368  44.749   2.896
29037W        W97431   4.185   3.674  14.920
29038W        W97432  12.800  13.830  13.881
29039W        W97433  36.521  24.690  14.831
29040W        W97434  18.235  10.118  14.173
29041W        W97435  42.358  33.425   3.633
29042W        W97436  19.275  39.861  11.979
29043W        W97437  24.654   0.173  11.054
29044W        W97438  32.075   9.612   2.163
29045W        W97439   2.643   7.714  13.414
29046W        W97440  26.529  17.272   4.614
29047W        W97441  15.173  40.866   2.845
29048W        W97442  26.146   2.109   1.188
29049W        W97443  13.326  29.022   1.202
29050W        W97444  40.371  32.105   1.344
29051W        W97445   2.357  44.861   2.782
29052W        W97446  21.525   3.614   3.409
29053W        W97447  13.377  19.059  13.403
29054W        W97448  29.179   6.386   4.531
29055W        W97449  44.582   2.837   2.840
29056W        W97450  10.549  18.215   0.700
29057W        W97451  24.155  15.810  11.115
29058W        W97452  28.392   1.114  11.488
29059W        W97453  14.598  16.544  14.534
29060W        W97454  43.300  17.274  13.841
29061W        W97455  13.240  21.339  10.219
29062W        W97456  16.070  38.970  11.204
29063W        W97457  13.398  30.464  10.688
29064W        W97458  32.715  10.349   1.254
29065W        W97459  35.974   8.789   4.790
29066W        W97460  26.942  35.320   2.215
29067W        W97461  42.959  16.551   3.756
29068W        W97462  16.356  33.003   2.753
29069W        W97463  32.650  27.715  13.279
29070W        W97464  28.130  16.772   4.346
29071W        W97465   0.295  38.946  10.191
29072W        W97466  28.390  38.283  14.789
29073W        W97467  27.299  28.316  12.073
29074W        W97468   3.307  13.879   0.602
29075W        W97469  31.078  22.623  10.683
29076W        W97470  16.780  21.579   1.830
29077W        W97471  43.763   6.675  12.987
29078W        W97472   3.003  37.092  14.394
29079W        W97473  23.479   0.830  12.395
29080W        W97474  44.922   8.456  10.050
29081W        W97475  42.881  14.291   3.722
29082W        W97476   8.266  44.018  13.990
29083W        W97477   8.387  34.965  10.331
29084W        W97478  12.913  44.253  12.053
29085W        W97479  11.213  24.642  13.456
29086W        W97480  12.142  22.689   3.100
29087W        W97481   1.414  39.308   1.178
29088W        W97482  38.580  40.476   3.429
29089W        W97483  40.556  41.419   2.320
29090W        W97484  28.408  30.708  11.138
29091W        W97485  30.060  29.407  14.505
29092W        W97486  44.536  41.291  12.425
29093W        W97487  15.247  39.090   0.236
29094W        W97488  28.913   5.025  10.932
29095W        W97489  12.665   2.193   4.358
29096W        W97490  31.403  24.012   0.299
29097W        W97491   8.288  28.510  13.996
29098W        W97492  23.919   4.088   1.853
29099W        W97493  32.678  19.957   2.799
29100W        W97494  33.844   9.498  11.222
29101W        W97495  34.005  44.103   1.145
29102W        W97496   2.999  35.931  12.520
29103W        W97497   5.434  44.838  11.803
29104W        W97498  32.849  35.935  11.988
29105W        W97499  13.067   5.394   2.950
29106W        W97500   9.940  42.986   3.120
29107W        W97501  17.395  15.732  11.063
29108W        W97502   8.923   7.131   0.279
29109W        W97503  22.552   7.533   2.752
29110W        W97504  33.452   0.927   3.282
29111W        W97505  26.452  14.595  14.546
29112W        W97506   8.419  35.926  13.599
29113W        W97507  40.482  12.682   3.228
29114W        W97508  44.748   9.820   3.148
29115W        W97509  32.433  27.190  13.174
29116W        W97510  22.082  37.848   1.320
29117W        W97511  19.896   2.375  10.740
29118W        W97512  35.606  39.867   3.447
29119W        W97513  41.429  43.534  13.127
29120W        W97514  16.198  16.547   3.826
29121W        W97515   3.437  35.628  12.548
29122W        W97516   9.603  35.131   0.254
29123W        W97517  39.511   0.092  11.061
29124W        W97518  25.459   0.118  10.265
29125W        W97519  26.402  41.829  14.930
29126W        W97520  30.611  33.008   3.101
29127W        W97521  37.568   8.866  11.234
29128W        W97522   2.698   6.658   0.950
29129W        W97523  34.155   6.350  14.725
29130W        W97524   2.734   6.207   0.061
29131W        W97525   7.290   9.402  13.885
29132W        W97526  27.904  20.261   2.884
29133W        W97527  21.764  15.064   0.398
29134W        W97528   8.239  38.408   0.783
29135W        W97529  34.301   7.164   2.865
29136W        W97530  31.980  23.279   2.803
29137W        W97531  34.617  43.871  14.867
29138W        W97532  32.038  29.312  14.275
29139W        W97533  19.077  39.869   4.226
29140W        W97534  11.663  23.148   4.213
29141W        W97535  37.247   0.471   1.234
29142W        W97536  12.815  29.764   1.746
29143W        W97537  31.280  28.009   1.633
29144W        W97538  13.635   2.759  14.455
29145W        W97539  17.331  13.238   3.757
29146W        W97540  22.398   1.769  13.539
29147W        W97541  16.518  40.907  14.397
29148W        W97542  30.111  43.546   1.947
29149W        W97543  22.671  20.970  13.307
29150W        W97544   0.505   8.732   3.391
29151W        W97545  33.074  35.382  14.076
29152W        W97546  35.423  32.888   4.618
29153W        W97547  16.674  19.837   2.279
29154W        W97548  35.107   5.367   0.309
29155W        W97549   1.108  21.048  10.348
29156W        W97550  38.466   2.295   1.265
29157W        W97551  32.361  32.155  10.581
29158W        W97552  27.952  16.297  13.927
29159W        W97553  43.842   1.385   4.066
29160W        W97554  15.792  15.203  13.554
29161W        W97555  16.914  27.557  10.383
29162W        W97556  32.910  33.915   3.679
29163W        W97557  43.705  10.342  12.081
29164W        W97558  19.167   3.098   4.600
29165W        W97559  27.863  33.331  12.482
29166W        W97560  14.250  15.087  12.976
29167W        W97561   8.284  42.005   3.107
29168W        W97562  35.692  16.221  12.423
29169W        W97563  39.379  13.656  12.370
29170W        W97564  26.082  34.490  10.501
29171W        W97565   8.810  41.034   1.753
29172W        W97566  10.727  27.549  14.042
29173W        W97567  32.549  37.097  13.267
29174W        W97568   0.314  34.903   2.161
29175W        W97569   0.515   8.845  12.630
29176W        W97570  16.838   6.977   0.468
29177W        W97571  35.057   3.527  10.348
29178W        W97572  38.469   3.744  14.313
29179W        W97573  35.578  18.382  10.608
29180W        W97574  35.072  42.642  11.877
29181W        W97575  31.477  42.173  11.758
29182W        W97576  19.746  37.023  11.072
29183W        W97577  31.390  36.807  11.198
29184W        W97578  35.561   2.256   0.028
29185W        W97579  14.265  31.906   4.993
29186W        W97580  19.577  13.830   1.762
29187W        W97581  31.433  33.992  13.937
29188W        W97582  18.142  34.629   3.718
29189W        W97583  34.991  28.801   1.586
29190W        W97584  31.169  21.139  14.356
29191W        W97585   1.312  37.138  14.848
29192W        W97586  44.497  12.773  13.055
29193W        W97587  20.843  21.269   0.845
29194W        W97588  44.455   6.964   4.111
29195W        W97589   4.858  17.259  13.058
29196W        W97590  33.625   4.780  12.542
29197W        W97591  25.064  43.411   3.160
29198W        W97592  18.697  35.922  12.991
29199W        W97593  19.589  29.652  12.573
29200W        W97594  40.514  25.635   4.656
29201W        W97595  14.391  16.556  11.880
29202W        W97596  16.771  37.600  14.256
29203W        W97597  10.223   5.708  12.411
29204W        W97598  21.708  23.266  11.014
29205W        W97599  25.694  38.216   1.954
29206W        W97600  36.383   1.996   1.928
29207W        W97601  31.624   9.159   0.974
29208W        W97602  42.636  32.178   2.720
29209W        W97603  44.843  12.729   0.117
29210W        W97604  36.285  16.403   2.870
29211W        W97605   5.849  14.277   1.444
29212W        W97606  27.625  25.940   2.496
29213W        W97607  41.497  42.784  10.930
29214W        W97608  39.125  35.470  12.172
29215W        W97609  22.738   6.218   2.278
29216W        W97610  39.882  41.422  11.124
29217W        W97611  34.937  10.846   3.229
29218W        W97612  20.076  13.524  11.171
29219W        W97613  22.830  39.391  11.437
29220W        W97614  12.611  32.545  14.576
29221W        W97615  30.070  21.246  13.440
29222W        W97616   6.728  31.846   2.318
29223W        W97617  31.600  18.087   2.832
29224W        W97618   5.177   4.335   9.827
29225W        W97619  11.643   9.272  13.881
29226W        W97620   9.933   0.487  14.457
29227W        W97621  36.880  32.576  14.242
29228W        W97622  19.845   1.483  13.962
29229W        W97623  13.239  13.171   1.302
29230W        W97624  22.631  25.139   4.968
29231W        W97625  15.404  18.337   9.727
29232W        W97626  29.302   1.777  14.965
29233W        W97627  38.848  35.035   3.597
29234W        W97628  25.424   0.446   1.457
29235W        W97629  38.406  10.323   1.604
29236W        W97630  41.411  14.851  14.317
29237W        W97631   7.372   7.777   3.955
29238W        W97632  32.656  23.769  13.740
29239W        W97633   4.354   4.845   1.763
29240W        W97634   7.165  25.668   2.885
29241W        W97635  18.517  25.621   2.380
29242W        W97636  44.718   5.723   1.679
29243W        W97637  21.295  31.077  14.973
29244W        W97638  24.242  44.367   2.409
29245W        W97639  35.617  33.188  12.765
29246W        W97640  22.526  14.848   3.121
29247W        W97641   5.634  31.889   5.131
29248W        W97642  29.849  17.871  11.042
29249W        W97643  14.676  16.564  14.022
29250W        W97644   9.290  19.830  12.830
29251W        W97645  38.742  13.420  14.485
29252W        W97646  33.859  27.530   2.296
29253W        W97647  25.579  30.728   0.360
29254W        W97648   2.454  24.188  11.548
29255W        W97649   8.196   3.146   4.615
29256W        W97650   8.339  26.436  12.542
29257W        W97651  41.531  28.455  11.904
29258W        W97652  19.526  25.045  10.776
29259W        W97653  27.431  15.161  13.935
29260W        W97654  18.132  23.115   4.116
29261W        W97655  27.188  27.218  10.810
29262W        W97656  31.430  18.556  14.750
29263W        W97657  27.188  18.744   2.717
29264W        W97658  11.744  20.357  14.996
29265W        W97659  18.631  32.991  11.750
29266W        W97660  29.402   7.123   1.875
29267W        W97661  36.411  37.274   1.084
29268W        W97662  43.853  33.471  14.884
29269W        W97663  13.221   7.155  14.741
29270W        W97664  18.323   9.566   0.479
29271W        W97665   2.230  25.427   0.365
29272W        W97666   1.219   2.994   2.453
29273W        W97667  44.479  43.579   4.581
29274W        W97668   7.615  16.348  11.194
29275W        W97669  41.464  28.053   4.636
29276W        W97670   4.263  13.744   3.033
29277W        W97671  40.416   3.450   1.748
29278W        W97672  21.014  14.547  10.628
29279W        W97673   9.456  32.913   4.121
29280W        W97674   6.696  43.858   4.659
29281W        W97675  37.788  43.441   1.128
29282W        W97676  24.627  11.905  10.919
29283W        W97677  35.617  36.152  13.006
29284W        W97678   9.903  26.987  11.496
29285W        W97679   3.671   2.265  11.997
29286W        W97680  38.070   1.994  14.293
29287W        W97681  23.005  28.115  10.157
29288W        W97682  22.156  23.546   0.005
29289W        W97683  43.916  24.229  11.583
29290W        W97684   8.241  21.843  13.829
29291W        W97685  11.840   5.954   4.876
29292W        W97686  21.436  28.848   4.974
29293W        W97687  26.125  14.502  10.719
29294W        W97688   8.387  43.728   3.559
29295W        W97689  33.916  30.626  14.219
29296W        W97690  36.824  35.956   4.075
29297W        W97691  32.423  10.922   4.351
29298W        W97692  17.606   3.527   3.252
29299W        W97693  25.271  43.847  14.503
29300W        W97694   5.180  29.205   1.402
29301W        W97695  28.315  18.884  11.152
29302W        W97696   8.475   7.516  13.044
29303W        W97697   4.218  31.033  10.848
29304W        W97698  24.047   4.911  14.705
29305W        W97699  25.499   8.244   0.019
29306W        W97700   6.899  15.873   2.735
29307W        W97701  21.205  28.404   2.183
29308W        W97702  29.891  39.847   3.161
29309W        W97703  43.844  23.080   1.638
29310W        W97704  25.131  25.096   0.004
29311W        W97705   7.129  20.208  12.676
29312W        W97706  31.322  17.746   0.832
29313W        W97707   3.497  41.183  13.282
29314W        W97708  26.915  13.720   3.346
29315W        W97709  41.268  16.299  11.992
29316W        W97710   4.531  11.694   5.024
29317W        W97711   1.710  25.993   1.735
29318W        W97712   6.932  30.137   1.571
29319W        W97713  28.660  38.362   3.145
29320W        W97714  43.867  26.626   4.189
29321W        W97715   6.263  15.938  13.240
29322W        W97716  21.962  40.468   0.331
29323W        W97717  20.489   4.102   0.487
29324W        W97718  17.660  10.272  14.200
29325W        W97719  13.624   0.477   4.516
29326W        W97720  11.913  23.099   3.738
29327W        W97721  19.003   6.672  12.837
29328W        W97722  39.621  32.839   0.227
29329W        W97723  43.456  29.271   0.845
29330W        W97724  43.763  39.814  13.976
29331W        W97725  42.738  42.497  11.267
29332W        W97726  31.818  31.135  13.178
29333W        W97727   1.683  21.531  13.446
29334W        W97728  29.973  10.944   2.422
29335W        W97729  17.534   5.883   0.834
29336W        W97730  20.696  21.796   2.960
29337W        W97731   2.433  20.352   1.413
29338W        W97732   1.769  17.558   3.044
29339W        W97733  23.605  34.847  11.798
29340W        W97734  23.959  25.362  10.721
29341W        W97735  22.646  34.820  10.710
29342W        W97736   8.982  23.589  11.121
29343W        W97737  32.087  23.006   0.483
29344W        W97738   5.290   3.508   4.032
29345W        W97739  15.050  23.779  11.657
29346W        W97740   7.252  11.352  13.861
29347W        W97741  39.176  37.979   0.823
29348W        W97742   6.023  42.742   0.911
29349W        W97743  18.587  16.850  12.544
29350W        W97744  30.208  30.127  12.626
29351W        W97745  33.964  42.893   2.759
29352W        W97746  25.158  18.554  13.943
29353W        W97747  26.866  28.999   0.658
29354W        W97748  20.516  11.246  12.091
29355W        W97749   8.378  22.604   4.083
29356W        W97750   9.222  19.317  13.028
29357W        W97751  17.030  34.581   1.337
29358W        W97752  29.637   3.236  12.439
29359W        W97753  41.931  26.425   0.872
29360W        W97754  32.124   9.890   0.976
29361W        W97755  44.517  23.740  11.960
29362W        W97756   8.912  12.534  13.370
29363W        W97757  34.461  30.710  13.057
29364W        W97758  12.943  25.617  11.168
29365W        W97759  21.278  13.976   3.294
29366W        W97760  24.264  33.529  14.290
29367W        W97761  13.032  27.029   4.166
29368W        W97762  37.494  22.206  11.178
29369W        W97763  38.327   6.899  13.097
29370W        W97764   0.969  29.602   2.718
29371W        W97765   3.800  41.047  14.984
29372W        W97766  29.795   4.450  11.156
29373W        W97767   1.563  25.149  11.199
29374W        W97768  26.822  22.537  11.138
29375W        W97769  28.920  16.996   4.109
29376W        W97770   8.930  32.169   2.801
29377W        W97771  17.184  19.094   0.790
29378W        W97772  40.775  15.328  12.978
29379W        W97773  12.343  24.664   2.690
29380W        W97774  32.161  20.559  12.049
29381W        W97775   3.416  18.490   5.019
29382W        W97776   8.832  22.593  10.962
29383W        W97777  10.695  38.479   0.795
29384W        W97778  17.657  36.032   9.758
29385W        W97779   7.701   5.877  13.666
29386W        W97780   2.499  37.013   3.664
29387W        W97781  21.241  34.692   5.034
29388W        W97782  32.480  21.341  11.573
29389W        W97783  11.057  35.288   1.459
29390W        W97784   5.735  26.269   0.924
29391W        W97785  35.644  33.464  13.296
29392W        W97786  42.342  19.160   1.759
29393W        W97787  32.048  12.533   1.222
29394W        W97788   3.223  19.339  11.655
29395W        W97789   3.706  12.721   1.139
29396W        W97790  13.012  37.111   3.575
29397W        W97791  19.747  11.938   0.429
29398W        W97792  23.654  26.950  11.725
29399W        W97793   2.531  12.538  14.866
29400W        W97794  44.240  38.132  11.595
29401W        W97795  33.458  19.666  14.765
29402W        W97796  27.208  14.876  11.703
29403W        W97797   6.732  38.303  14.817
29404W        W97798   9.793  26.608  14.725
29405W        W97799  33.727  10.857   0.812
29406W        W97800  32.502  42.294   0.393
29407W        W97801  30.028   8.745  11.153
29408W        W97802   8.883   9.981  14.510
29409W        W97803   3.588  36.114  12.616
29410W        W97804   8.160   5.489   1.797
29411W        W97805   3.507  20.768   3.617
29412W        W97806  41.928   3.497  10.768
29413W        W97807  36.672  44.105   3.229
29414W        W97808  31.374  28.894   4.698
29415W        W97809  38.341  34.295   4.619
29416W        W97810  13.698  43.963  13.156
29417W        W97811  44.655  17.225   1.868
29418W        W97812  14.075  16.603   2.126
29419W        W97813  26.621  42.846   1.886
29420W        W97814  10.795   6.752   0.871
29421W        W97815  30.766   2.685   2.649
29422W        W97816   7.306  29.367   2.841
29423W        W97817  18.526  29.545  13.928
29424W        W97818   0.198  28.394  14.940
29425W        W97819   2.944   4.297  14.706
29426W        W97820  42.957  23.706  12.478
29427W        W97821  39.445  32.118   3.290
29428W        W97822  16.094  10.694   2.812
29429W        W97823  16.034   6.206  14.420
29430W        W97824  31.572  27.453   0.130
29431W        W97825  18.814  21.183   1.043
29432W        W97826  23.435  27.309  11.033
29433W        W97827  18.530  44.158  12.573
29434W        W97828  40.472   9.011   5.146
29435W        W97829  34.586   9.720   2.306
29436W        W97830  41.760   6.279   1.320
29437W        W97831  44.448   3.262  12.916
29438W        W97832  21.260  25.056   1.256
29439W        W97833  37.448  16.157   2.196
29440W        W97834   0.377  43.276  12.588
29441W        W97835  31.662  41.795   2.231
29442W        W97836  44.017  44.447   2.381
29443W        W97837  42.676  29.405  14.681
29444W        W97838  37.409  28.632   4.350
29445W        W97839  10.288  24.835  11.657
29446W        W97840  23.076   8.780  10.604
29447W        W97841  24.503  32.987  10.658
29448W        W97842  41.521   4.224   4.120
29449W        W97843  22.253  41.906  14.360
29450W        W97844  36.002  29.598  10.836
29451W        W97845  39.505   1.435  14.254
29452W        W97846  35.057  29.663  12.066
29453W        W97847  39.794  37.964   2.923
29454W        W97848  21.524   4.743  14.251
29455W        W97849  36.174  26.480  14.864
29456W        W97850  34.347   1.209   1.265
29457W        W97851  23.939  30.490   0.541
29458W        W97852  24.569  33.907  10.692
29459W        W97853  39.040  28.629   0.058
29460W        W97854  16.385   7.266   0.489
29461W        W97855  27.211  44.439  11.149
29462W        W97856  28.596   6.366   4.472
29463W        W97857   9.419  25.110  12.325
29464W        W97858  43.823  15.773  12.370
29465W        W97859  14.257  23.566  10.575
29466W        W97860  35.114   7.599   1.853
29467W        W97861  41.828   7.134  11.068
29468W        W97862   5.824  19.210   0.367
29469W        W97863  40.379  20.215  13.280
29470W        W97864  29.655  43.478   3.326
29471W        W97865  22.053  31.247  11.237
29472W        W97866  33.836   7.340  13.342
29473W        W97867  14.526  36.350   2.834
29474W        W97868  23.519   4.369   3.963
29475W        W97869  35.817   3.431  11.394
29476W        W97870  24.937   6.683   2.667
29477W        W97871  30.853  27.912  13.398
29478W        W97872  37.132   6.797  12.462
29479W        W97873  28.962   9.514   3.043
29480W        W97874  20.993  42.313  14.246
29481W        W97875  29.109  36.401   3.070
29482W        W97876  11.468  37.530  11.995
29483W        W97877  28.473  27.523  10.934
29484W        W97878   0.058  36.187  12.069
29485W        W97879  29.750  35.446   4.721
29486W        W97880  22.760  12.344   2.612
29487W        W97881   3.594  17.201   4.140
29488W        W97882  44.476   6.321   0.042
29489W        W97883  20.469  41.938   2.289
29490W        W97884  12.297  37.549  11.741
29491W        W97885   3.209  21.724  10.443
29492W        W97886  11.133  41.942  11.998
29493W        W97887  35.557  24.374  12.448
29494W        W97888  29.679  31.991  13.990
29495W        W97889  15.148  19.422  14.724
29496W        W97890   5.738   5.441   0.890
29497W        W97891  24.432   6.152  11.014
29498W        W97892  31.480  26.055   3.749
29499W        W97893  32.186  30.495   1.900
29500W        W97894  35.866   5.774  14.683
29501W        W97895  30.604  14.321  12.088
29502W        W97896  33.090  44.541   0.406
29503W        W97897   6.832  34.418   4.936
29504W        W97898  24.732  21.555   0.886
29505W        W97899  16.978  27.975   3.232
29506W        W97900   9.660  27.853  12.993
29507W        W97901   5.158  10.272  10.817
29508W        W97902  20.196  17.095   0.540
29509W        W97903  35.917  27.905  12.964
29510W        W97904  25.157  13.492   5.137
29511W        W97905  31.002  32.632   0.361
29512W        W97906  22.931  31.624   2.779
29513W        W97907  32.656  30.865   4.073
29514W        W97908  44.177  25.076   2.863
29515W        W97909  31.104  17.950   4.896
29516W        W97910   5.625  11.681  12.638
29517W        W97911   6.631  15.606   3.174
29518W        W97912   0.027  21.120  11.082
29519W        W97913  24.453  20.708   1.988
29520W        W97914   7.917  44.728  10.960
29521W        W97915   3.435  41.509  10.746
29522W        W97916  31.550  35.680   2.414
29523W        W97917   2.429  24.630  14.962
29524W        W97918  19.335  38.040  11.135
29525W        W97919  24.967  34.621   4.095
29526W        W97920   2.019   2.786   2.865
29527W        W97921  26.652  27.015   0.498
29528W        W97922  38.840  39.990  12.111
29529W        W97923  22.949   2.431  12.833
29530W        W97924   0.262  22.773   1.243
29531W        W97925  16.195  40.113  13.028
29532W        W97926  42.756  21.992   2.361
29533W        W97927   2.876   6.400   1.807
29534W        W97928  28.544   3.164  11.891
29535W        W97929  15.279   9.891   2.709
29536W        W97930  39.557  30.865  14.830
29537W        W97931  25.153  43.327  10.847
29538W        W97932  21.420  36.096   4.095
29539W        W97933  35.601   3.833   1.243
29540W        W97934  15.113  40.036  11.181
29541W        W97935  15.046   0.935   0.689
29542W        W97936   8.401  13.718  12.047
29543W        W97937   7.675   6.639   5.138
29544W        W97938  40.850  26.266   0.024
29545W        W97939  33.585  20.110  12.861
29546W        W97940   9.312   9.610   3.784
29547W        W97941  21.545  43.417   3.543
29548W        W97942   1.310  38.288   1.288
29549W        W97943  12.794  37.053   2.608
29550W        W97944  31.185  12.237   0.402
29551W        W97945  25.098  35.992  12.623
29552W        W97946  27.500   0.890   2.718
29553W        W97947  19.148  35.604  10.512
29554W        W97948   8.246   1.259   1.307
29555W        W97949  36.241  31.983  14.100
29556W        W97950   1.697  20.451  13.217
29557W        W97951  24.028  12.296   1.207
29558W        W97952  42.906  32.114   4.549
29559W        W97953  15.469  41.315   1.370
29560W        W97954   9.828   4.937   0.665
29561W        W97955  26.784  28.921   4.762
29562W        W97956   3.874   4.082   0.150
29563W        W97957  36.442  31.451   1.215
29564W        W97958  15.810  39.938  14.020
29565W        W97959  24.529  25.034   2.936
29566W        W97960   2.877  23.059   4.321
29567W        W97961  40.397  38.298  14.022
29568W        W97962  10.196  24.146   4.606
29569W        W97963  10.991  33.072   3.730
29570W        W97964   7.754  28.893   1.833
29571W        W97965  34.444  40.118  14.887
29572W        W97966  21.629  36.511  11.559
29573W        W97967  14.176   4.491   4.530
29574W        W97968  43.142  30.597  12.082
29575W        W97969   3.743  29.442  11.200
29576W        W97970  37.308  13.242   1.238
29577W        W97971   7.951  22.040   2.954
29578W        W97972  23.578  43.341   0.421
29579W        W97973  28.534   2.889   4.917
29580W        W97974  44.038  35.892   3.685
29581W        W97975   8.320  31.899   3.269
29582W        W97976  15.305  10.583  12.058
29583W        W97977  26.206  11.280  13.456
29584W        W97978   8.661  22.595  13.354
29585W        W97979  28.123  16.332  12.469
29586W        W97980   5.684  38.871  14.843
29587W        W97981  39.019  31.940   4.968
29588W        W97982  15.844  39.883   0.975
29589W        W97983  10.914   6.606   0.358
29590W        W97984  19.299  30.958  14.402
29591W        W97985   9.704   7.229  14.810
29592W        W97986  42.800  31.514   2.120
29593W        W97987   8.474  25.949  12.581
29594W        W97988  11.863   9.775  13.810
29595W        W97989  17.574  39.341   0.247
29596W        W97990  31.373  21.720  10.921
29597W        W97991  37.171  41.452   2.193
29598W        W97992  36.664  41.709  12.049
29599W        W97993  38.473  25.619  11.252
29600W        W97994  34.651  11.395  11.766
29601W        W97995  18.915   3.290   4.172
29602W        W97996  44.111  29.803  12.513
29603W        W97997  15.515  44.441   3.731
29604W        W97998  11.823   9.613   1.980
29605W        W97999  37.124   7.718  12.605
29606W        W98000  15.531  15.322  10.572
29607W        W98001  24.365  35.833  11.363
29608W        W98002  14.813  36.498  10.887
29609W        W98003  40.332  38.592  13.442
29610W        W98004   8.830   4.612   0.892
29611W        W98005  39.032  21.028   3.868
29612W        W98006  10.089  38.879   0.279
29613W        W98007  40.365  21.152   0.634
29614W        W98008   8.278  35.328   3.653
29615W        W98009  26.427  38.425   4.540
29616W        W98010   7.875  25.028  12.911
29617W        W98011   1.333  23.145   2.408
29618W        W98012  22.268  31.062  13.901
29619W        W98013  17.919  44.278   0.691
29620W        W98014  12.192   1.896   0.622
29621W        W98015  40.854   4.501  10.778
29622W        W98016   3.765   6.789   1.688
29623W        W98017  23.493  20.589   3.493
29624W        W98018  18.498   1.173   0.360
29625W        W98019  37.039  39.384  13.296
29626W        W98020  23.940   3.241   0.303
29627W        W98021  13.101  10.341  13.532
29628W        W98022   4.288  42.021   4.170
29629W        W98023  35.111  14.646  13.477
29630W        W98024  23.291  24.590   5.031
29631W        W98025  24.963  29.745   3.991
29632W        W98026  31.330  27.594  13.521
29633W        W98027  32.460  19.743  13.759
29634W        W98028  15.073  28.044   4.189
29635W        W98029  35.944   7.910   4.546
29636W        W98030  40.407  33.655   1.081
29637W        W98031  30.551  32.082  12.874
29638W        W98032  31.097  22.569   1.496
29639W        W98033  11.102  12.523   1.455
29640W        W98034  15.118  25.212  10.655
29641W        W98035  26.421  11.259   1.730
29642W        W98036   6.763  35.698  10.872
29643W        W98037  12.155  23.516  10.598
29644W        W98038  18.980  29.557  11.499
29645W        W98039  24.726  17.703   0.427
29646W        W98040  43.822   3.774   3.986
29647W        W98041  42.491  29.322  14.205
29648W        W98042  30.937  36.273   3.905
29649W        W98043  19.069  43.506  14.341
29650W        W98044  39.585   6.423   2.131
29651W        W98045  42.987  18.548   1.088
29652W        W98046  29.666  13.061  12.938
29653W        W98047   1.638  37.019  11.701
29654W        W98048  37.958  22.162   2.244
29655W        W98049  28.720  21.416   4.557
29656W        W98050  20.247  15.086   2.896
29657W        W98051   1.951  16.661  11.513
29658W        W98052   1.701   2.466   0.801
29659W        W98053  17.893  21.571  14.486
29660W        W98054  37.859  26.899   4.096
29661W        W98055  39.110   1.441  12.835
29662W        W98056  32.400   4.644   2.759
29663W        W98057   6.128   4.293  14.485
29664W        W98058  34.870  43.224   0.813
29665W        W98059  40.422   9.757   2.385
29666W        W98060  12.351  44.711   1.438
29667W        W98061  21.431  18.504  14.516
29668W        W98062  35.227  34.492  12.548
29669W        W98063  36.754   7.417  13.442
29670W        W98064  39.082  38.743   4.751
29671W        W98065   9.625   0.695  10.682
29672W        W98066  24.358  26.164   0.640
29673W        W98067  26.670   7.238  10.561
29674W        W98068  37.862  10.225  14.601
29675W        W98069  20.527  37.744   1.281
29676W        W98070  17.680  20.014   1.882
29677W        W98071  27.005   9.870  14.479
29678W        W98072   7.456   4.271   3.843
29679W        W98073  15.695   5.552   4.131
29680W        W98074  23.883  25.619   3.299
29681W        W98075  33.719   3.666   5.076
29682W        W98076  31.908  30.944   1.834
29683W        W98077  23.979  14.468  11.526
29684W        W98078  43.969  37.731   2.218
29685W        W98079   1.917  10.816  10.400
29686W        W98080  38.889  36.047   1.188
29687W        W98081   7.758  22.091   2.483
29688W        W98082   1.849  32.859  10.760
29689W        W98083  24.073   9.970  14.143
29690W        W98084  15.180  23.987   3.065
29691W        W98085   2.176  29.518   3.272
29692W        W98086  35.562  36.953  14.064
29693W        W98087   8.089   6.316  10.708
29694W        W98088  25.678  37.303   3.613
29695W        W98089  13.576   9.110   0.052
29696W        W98090  28.567   2.175  12.076
29697W        W98091  42.916  30.014   1.555
29698W        W98092   5.493  18.462   2.265
29699W        W98093  36.112  20.518  14.734
29700W        W98094   2.300   0.097   4.147
29701W        W98095   5.641  10.233   2.122
29702W        W98096  37.496  33.677   2.885
29703W        W98097  33.997   6.881  14.004
29704W        W98098  23.538  41.512   3.792
29705W        W98099  20.982  22.374   2.701
29706W        W98100  42.976  13.791   3.850
29707W        W98101  15.239  35.761  13.132
29708W        W98102  13.494  19.752   0.613
29709W        W98103  24.530   3.433  13.733
29710W        W98104  29.184   7.710  14.750
29711W        W98105   4.418   1.530   0.299
29712W        W98106   5.291  14.915   3.138
29713W        W98107   1.755  41.483   0.499
29714W        W98108  20.009   8.698  10.770
29715W        W98109   3.694  19.537   3.637
29716W        W98110  10.437  43.374   4.224
29717W        W98111  39.299   3.453  10.497
29718W        W98112   1.076  27.482   4.217
29719W        W98113  27.161  36.252  12.965
29720W        W98114  28.062  33.673   2.868
29721W        W98115  32.377  42.623  11.499
29722W        W98116  20.352  31.524  12.082
29723W        W98117  30.559  25.791  14.668
29724W        W98118   4.383  17.029  12.328
29725W        W98119  31.789  10.849   2.751
29726W        W98120  12.161  19.601   4.681
29727W        W98121  41.881  18.262  11.396
29728W        W98122  25.056   1.243  12.081
29729W        W98123  38.575  26.494  11.303
29730W        W98124   1.381  11.902  13.755
29731W        W98125  23.752   4.069  13.907
29732W        W98126  32.506  18.061  11.158
29733W        W98127  33.511  27.463   1.865
29734W        W98128   1.334  38.802   1.219
29735W        W98129   8.867  43.389  13.128
29736W        W98130  15.830  37.908   0.254
29737W        W98131  10.210  36.078   1.484
29738W        W98132  19.036  35.035   1.309
29739W        W98133  10.652  37.006   1.746
29740W        W98134  30.452  35.093  11.713
29741W        W98135  41.253  27.643   1.152
29742W        W98136  43.335  34.478   1.385
29743W        W98137  28.525  44.364  13.398
29744W        W98138   3.293   2.545  14.612
29745W        W98139  22.816  34.524  13.770
29746W        W98140  26.494  31.168   0.435
29747W        W98141   9.770  20.110   3.127
29748W        W98142  21.261  28.908  14.057
29749W        W98143  22.103  21.990  11.079
29750W        W98144  12.868  26.747  10.691
29751W        W98145  37.006   3.366   3.884
29752W        W98146  34.795  36.876  11.972
29753W        W98147  34.550  28.577   4.574
29754W        W98148  20.104  28.618  11.175
29755W        W98149  39.407  38.442  13.476
29756W        W98150  18.291  20.086  12.437
29757W        W98151  34.255  20.665   0.758
29758W        W98152   9.341  38.250  12.943
29759W        W98153   2.500  28.196  12.225
29760W        W98154   6.104  10.311  10.611
29761W        W98155   5.607  22.630  14.889
29762W        W98156  10.582  16.479  14.271
29763W        W98157  25.510  39.511   0.943
29764W        W98158  38.952  43.529  10.098
29765W        W98159  40.696  32.978   2.369
29766W        W98160  39.873   6.795   4.556
29767W        W98161   6.688  23.512  13.520
29768W        W98162  39.205  28.455   2.235
29769W        W98163   0.976  33.179   4.903
29770W        W98164  39.204  43.880   0.897
29771W        W98165   6.523  15.439   0.318
29772W        W98166  11.737  38.112   4.281
29773W        W98167  24.632  36.991   1.163
29774W        W98168  18.196  24.604   0.783
29775W        W98169  28.463  35.944   3.167
29776W        W98170  11.241  27.102   4.611
29777W        W98171  23.225   1.750  13.227
29778W        W98172  31.094  41.074  11.145
29779W        W98173   7.522  35.121  13.911
29780W        W98174   0.996  20.207   0.277
29781W        W98175  36.675  11.623   1.429
29782W        W98176  23.080  11.922  12.998
29783W        W98177  22.417  35.352   4.765
29784W        W98178  13.305   4.996  12.040
29785W        W98179  36.339  35.362   0.790
29786W        W98180  33.087  24.009   3.114
29787W        W98181  33.078   0.423   4.501
29788W        W98182  43.358   7.020  12.149
29789W        W98183  29.516   1.892  12.330
29790W        W98184   9.260  30.566  12.175
29791W        W98185  13.621  16.545   1.806
29792W        W98186  28.173  20.803   3.845
29793W        W98187  30.666  34.370   3.120
29794W        W98188  36.027  10.587   4.639
29795W        W98189  35.903  22.689  10.626
29796W        W98190   9.386  39.611   4.877
29797W        W98191   9.290  30.411   4.966
29798W        W98192   0.459  25.846  14.396
29799W        W98193  37.433  35.089   5.060
29800W        W98194   7.307  22.978   2.812
29801W        W98195  31.147  34.309  13.615
29802W        W98196   4.296  15.304  14.257
29803W        W98197  35.151  11.217   1.477
29804W        W98198  34.456  28.315   2.696
29805W        W98199  10.118  23.109  10.582
29806W        W98200   2.893  25.850   2.204
29807W        W98201   6.536  28.950  14.132
29808W        W98202   1.918   1.397   3.856
29809W        W98203   7.222  17.745   3.455
29810W        W98204  22.490  13.368  14.367
29811W        W98205  35.121  37.742   1.492
29812W        W98206  10.913  41.247   4.038
29813W        W98207  32.125  10.008  13.069
29814W        W98208  39.658  44.249  12.352
29815W        W98209  13.292  19.344   3.701
29816W        W98210  11.296  41.255  13.003
29817W        W98211  32.473  12.673  12.523
29818W        W98212   1.296  27.059   0.347
29819W        W98213  33.415  43.409   4.050
29820W        W98214   3.334   9.297   4.148
29821W        W98215  35.689  44.762   4.138
29822W        W98216  31.016   6.792   4.023
29823W        W98217  13.214  22.665  13.975
29824W        W98218  19.665  24.228   3.789
29825W        W98219  13.758   7.531  13.547
29826W        W98220   3.394   6.230   1.899
29827W        W98221  10.318  33.478  11.652
29828W        W98222  30.124  29.139  12.163
29829W        W98223  31.058  36.697  13.938
29830W        W98224  12.666   7.448  12.160
29831W        W98225  35.356   0.549   2.094
29832W        W98226  12.201   6.873   0.750
29833W        W98227  18.810  27.496  12.430
29834W        W98228  18.696  23.552  10.728
29835W        W98229  20.774  39.836   3.833
29836W        W98230  12.543  43.547   3.059
29837W        W98231  27.878  14.348   0.340
29838W        W98232  32.042  44.656  13.733
29839W        W98233  12.230  42.044   1.970
29840W        W98234  28.611  34.818   1.659
29841W        W98235  21.547  15.014  11.496
29842W        W98236  32.871   8.296   0.855
29843W        W98237  19.282  44.799  14.461
29844W        W98238   7.255  37.998  11.633
29845W        W98239  39.479  35.946   4.655
29846W        W98240  38.026  26.564  11.364
29847W        W98241  20.264  41.835  14.876
29848W        W98242  39.964  29.438  11.925
29849W        W98243   1.958  18.261  11.836
29850W        W98244  14.674   5.214  11.978
29851W        W98245   8.495  31.836   2.338
29852W        W98246  15.252   5.169   1.213
29853W        W98247  35.036  14.094   1.306
29854W        W98248  42.283  15.676  14.317
29855W        W98249   3.243  19.198   0.075
29856W        W98250   7.394   0.253   2.595
29857W        W98251  21.627  41.415   1.504
29858W        W98252  18.559  24.488  11.593
29859W        W98253   9.239   4.174   4.784
29860W        W98254  21.104   7.693   0.331
29861W        W98255   9.807  19.647   2.211
29862W        W98256  26.220  12.271  11.011
29863W        W98257  30.743  24.915  10.960
29864W        W98258  27.639  25.527   4.614
29865W        W98259  29.999  31.903   3.198
29866W        W98260   0.790  44.414  10.354
29867W        W98261   9.348  20.584  10.990
29868W        W98262  17.274  25.083  11.142
29869W        W98263  11.593  23.590   4.476
29870W        W98264  18.873  39.567   1.336
29871W        W98265  12.066  14.123   0.949
29872W        W98266  31.174  13.569  13.106
29873W        W98267  44.531  25.802   4.262
29874W        W98268  38.564  17.098  10.716
29875W        W98269  36.758  11.534  13.993
29876W        W98270  25.158  42.934  13.910
29877W        W98271  43.567  40.544  12.153
29878W        W98272  35.094  42.550  11.058
29879W        W98273  33.233   5.688  11.049
29880W        W98274  18.118  34.599   4.613
29881W        W98275  15.562   5.968   0.337
29882W        W98276  32.522  31.527  12.626
29883W        W98277  19.715   7.898  11.928
29884W        W98278  10.802  34.901   1.765
29885W        W98279  10.868   7.303   3.052
29886W        W98280  34.890  30.100  11.007
29887W        W98281  21.193  24.958  14.723
29888W        W98282  43.437  15.018  14.558
29889W        W98283  30.693  18.576  11.983
29890W        W98284   9.817   6.357  12.617
29891W        W98285  44.112  23.280   3.169
29892W        W98286  43.311  25.150   2.784
29893W        W98287  43.755  27.680  10.595
29894W        W98288   6.445  19.187  13.538
29895W        W98289  11.227  29.621   4.251
29896W        W98290  13.045   4.465   2.775
29897W        W98291   9.346   2.875   1.236
29898W        W98292  23.997  29.667   3.771
29899W        W98293  24.688  42.470  12.557
29900W        W98294  10.113  15.570   1.252
29901W        W98295  14.273  36.805   2.343
29902W        W98296  14.230   6.154   1.540
29903W        W98297  19.308  36.286   0.722
29904W        W98298  44.967  25.519   4.227
29905W        W98299  15.748  27.954  11.501
29906W        W98300  30.412  38.004   0.915
29907W        W98301  44.547  40.992  13.799
29908W        W98302  35.004  34.137   1.412
29909W        W98303  17.596  21.521  14.951
29910W        W98304  20.941   2.965  14.681
29911W        W98305  29.397  37.265   3.534
29912W        W98306   9.311   1.614   4.941
29913W        W98307  34.938  33.097  11.398
29914W        W98308  19.556  14.636   2.219
29915W        W98309   4.981   5.957  11.674
29916W        W98310  20.241  15.341   5.084
29917W        W98311  21.934   4.487   1.388
29918W        W98312  35.595  19.684  11.174
29919W        W98313  33.399  40.263  10.852
29920W        W98314  20.424  31.220  13.906
29921W        W98315  13.265  38.482  13.446
29922W        W98316  13.627  36.824   0.002
29923W        W98317  29.196  22.754   4.931
29924W        W98318   5.846  16.856   3.383
29925W        W98319  41.921  31.059   4.583
29926W        W98320   7.196  21.831  12.358
29927W        W98321  14.714   6.008  11.456
29928W        W98322   5.936  32.208   3.590
29929W        W98323  34.900  27.407   1.958
29930W        W98324  24.198   8.229  13.339
29931W        W98325  20.743   8.615   3.042
29932W        W98326  21.459  35.764  14.600
29933W        W98327  36.359   1.719   0.977
29934W        W98328  28.469  35.155  14.306
29935W        W98329   3.748  25.140   4.257
29936W        W98330  23.453   5.433   4.611
29937W        W98331  10.704  16.060   0.494
29938W        W98332  15.832  20.306  14.856
29939W        W98333  23.253   3.927   0.531
29940W        W98334  34.743  40.334   2.136
29941W        W98335  26.436   9.391   4.052
29942W        W98336  38.854  43.919  12.440
29943W        W98337  23.067   0.520  12.508
29944W        W98338  10.514  40.804   1.656
29945W        W98339  24.634  42.744  12.047
29946W        W98340   0.313  30.196  14.731
29947W        W98341   1.359  25.453   3.074
29948W        W98342   1.650  14.371   4.038
29949W        W98343  23.068  38.937  14.131
29950W        W98344  34.952  22.454  11.384
29951W        W98345  18.539  16.121   2.811
29952W        W98346   3.194  38.855   1.424
29953W        W98347  25.199   6.236  11.004
29954W        W98348  39.685  36.018  13.911
29955W        W98349  34.493   5.392   1.319
29956W        W98350   5.204  22.351  13.973
29957W        W98351   0.790   3.110  11.273
29958W        W98352   7.932  13.232   1.022
29959W        W98353  20.042  14.145   0.904
29960W        W98354  15.741   0.783   3.212
29961W        W98355  21.592   7.835  11.185
29962W        W98356  29.025  15.103   0.466
29963W        W98357  25.946   9.868   9.865
29964W        W98358   2.460  35.831  12.489
29965W        W98359  20.156  13.166  12.923
29966W        W98360  16.774  33.621  13.102
29967W        W98361  24.146  23.684  14.974
29968W        W98362  32.856  40.450   1.926
29969W        W98363  43.326  17.646  14.803
29970W        W98364   0.869  30.080  11.960
29971W        W98365  31.079   4.731  10.218
29972W        W98366   3.947  40.943  12.062
29973W        W98367  16.746   1.578  13.410
29974W        W98368  31.728   8.001   2.703
29975W        W98369  26.053  10.822  11.837
29976W        W98370  44.694   4.028  11.635
29977W        W98371  38.438  26.615   3.773
29978W        W98372  29.104  22.889  12.629
29979W        W98373   6.825   4.337  14.025
29980W        W98374  43.229  29.744   0.808
29981W        W98375  19.103  14.813  11.154
29982W        W98376  20.501  27.242   3.919
29983W        W98377  13.207   6.752   4.066
29984W        W98378  41.296  35.506   4.605
29985W        W98379  22.144  21.671  11.470
29986W        W98380  30.309  28.383   3.667
29987W        W98381  35.490   5.322  10.572
29988W        W98382  18.082  41.074   4.171
29989W        W98383  28.376  12.279   2.421
29990W        W98384   7.240  30.497   0.710
29991W        W98385   8.165  38.613  14.031
29992W        W98386   5.793  16.714   4.315
29993W        W98387   4.412  12.145   0.266
29994W        W98388  24.627  16.771  14.883
29995W        W98389  18.436  37.721   1.371
29996W        W98390  20.657  10.190   4.121
29997W        W98391  29.814   7.339   0.109
29998W        W98392   8.747  22.756   0.018
29999W        W98393   4.409   2.693   3.868
30000W        W98394  33.332   4.882   2.779
30001W        W98395  15.820   5.497  14.986
30002W        W98396   9.893  18.342  11.699
30003W        W98397   4.140  42.316  14.389
30004W        W98398  32.509  16.237   1.194
30005W        W98399  27.511  24.663  14.244
30006W        W98400  30.059  44.206   3.056
30007W        W98401  37.537  20.346  12.063
30008W        W98402  42.948  27.866   4.128
30009W        W98403  43.293  41.014   3.631
30010W        W98404   2.808  10.578   2.640
30011W        W98405   2.100   0.978  11.090
30012W        W98406   6.384  19.715  12.305
30013W        W98407   6.120  16.661   1.600
30014W        W98408  11.651  34.899  14.065
30015W        W98409  10.842  15.138   3.781
30016W        W98410  18.217  41.731  11.635
30017W        W98411  11.671  32.022  11.047
30018W        W98412   9.565  23.996  13.476
30019W        W98413  19.784   8.302   3.663
30020W        W98414   0.954   6.548   3.225
30021W        W98415   8.726  39.634  11.095
30022W        W98416   7.056  21.780  10.411
30023W        W98417   4.946  18.560  11.914
30024W        W98418  34.616  37.976   0.211
30025W        W98419   7.611  18.444  14.243
30026W        W98420  40.277   1.954  13.104
30027W        W98421  41.896  14.569  10.364
30028W        W98422  18.039  18.175  13.804
30029W        W98423  13.772  11.756  12.648
30030W        W98424   1.775  13.316  12.483
30031W        W98425  30.377  28.472  11.206
30032W        W98426  13.433  33.209   4.141
30033W        W98427  17.538  29.430   5.147
30034W        W98428  32.872  20.722  14.756
30035W        W98429  14.555  30.172  10.440
30036W        W98430  14.834  23.537   1.445
30037W        W98431  34.855  32.577  12.463
30038W        W98432  36.461  24.063  13.983
30039W        W98433  18.104   2.962  12.327
30040W        W98434  12.333  31.582   1.751
30041W        W98435  35.019  41.931   1.300
30042W        W98436   0.852  21.841  12.500
30043W        W98437   5.258  14.647   0.849
30044W        W98438  42.788  44.719  11.217
30045W        W98439  39.370  29.238  10.320
30046W        W98440  35.874  43.107  14.061
30047W        W98441  30.676  24.290   2.359
30048W        W98442   5.193  35.280   1.093
30049W        W98443   9.615   4.467  14.330
30050W        W98444  15.668  13.304   1.182
30051W        W98445  33.875  17.700   0.765
30052W        W98446  41.832  35.869   1.757
30053W        W98447   5.447   4.280   3.576
30054W        W98448  21.953  26.537  10.659
30055W        W98449  36.452  34.059   1.356
30056W        W98450  17.280   7.195   4.981
30057W        W98451  35.091  28.132  14.388
30058W        W98452  10.115  24.925   4.532
30059W        W98453  11.872  10.454  12.274
30060W        W98454   0.291  34.470  14.056
30061W        W98455  20.141  39.459   1.370
30062W        W98456  14.818   8.644  13.537
30063W        W98457  35.076   9.813   0.751
30064W        W98458  13.529  44.328   2.984
30065W        W98459  29.424  21.224  12.460
30066W        W98460  35.480   7.580  12.089
30067W        W98461  24.121  21.534   4.194
30068W        W98462  25.466  24.090  10.352
30069W        W98463  30.630  13.185   0.289
30070W        W98464  43.274  33.973  12.091
30071W        W98465  17.063   9.583  14.992
30072W        W98466  28.351  16.759  12.648
30073W        W98467  40.920  40.016   0.494
30074W        W98468  27.210   0.105   1.405
30075W        W98469   6.343   9.031  13.978
30076W        W98470   7.341   9.360  11.944
30077W        W98471  42.524  44.790  12.543
30078W        W98472  17.866  36.598   0.769
30079W        W98473  20.572  10.825  11.522
30080W        W98474  28.753   2.358   1.303
30081W        W98475  35.175  27.460  14.936
30082W        W98476  21.731  29.154  10.625
30083W        W98477  37.232  22.783   3.179
30084W        W98478  35.141  36.283  11.046
30085W        W98479  20.176  43.691  12.536
30086W        W98480   5.630   2.303   0.412
30087W        W98481  17.464  22.130   4.824
30088W        W98482  17.533  27.619  11.552
30089W        W98483   3.162  41.881   2.400
30090W        W98484  43.423  26.160   4.570
30091W        W98485   1.807  43.967  10.752
30092W        W98486  30.780  41.462   2.504
30093W        W98487  39.752  36.424   1.203
30094W        W98488  17.499   6.365  13.394
30095W        W98489  42.878  13.646   2.208
30096W        W98490  38.285  39.733   2.368
30097W        W98491  39.077  34.157   2.230
30098W        W98492   6.030   3.200   2.599
30099W        W98493  32.568   4.677  14.919
30100W        W98494  16.541  28.604   0.363
30101W        W98495  44.558  18.580  14.093
30102W        W98496   9.381  24.913   4.053
30103W        W98497  23.846  33.082  14.126
30104W        W98498  19.640  25.650   2.388
30105W        W98499   2.835  42.744   4.212
30106W        W98500  17.531   8.103   1.821
30107W        W98501  16.304  42.162   0.838
30108W        W98502  35.627   4.229  13.572
30109W        W98503  31.307  14.929  13.491
30110W        W98504   4.858  28.430   0.742
30111W        W98505  10.854   1.452  14.472
30112W        W98506  43.272  16.128   1.829
30113W        W98507   0.078  20.936  14.344
30114W        W98508  29.039  40.085   2.759
30115W        W98509  19.704   5.978   3.315
30116W        W98510  21.081   8.697   0.505
30117W        W98511  15.113  22.189   2.299
30118W        W98512  15.710   2.324   5.072
30119W        W98513  17.058   2.768  14.688
30120W        W98514   1.559  16.899  11.710
30121W        W98515   0.504   5.191  12.287
30122W        W98516  44.741  43.902   3.859
30123W        W98517   0.051  34.563   0.411
30124W        W98518  24.255  30.568   0.931
30125W        W98519   7.626   4.904   3.991
30126W        W98520  42.429  28.813   2.857
30127W        W98521  26.270  42.932   4.780
30128W        W98522  13.250  12.573   2.892
30129W        W98523  20.726   1.237   1.905
30130W        W98524  30.992   4.252   1.852
30131W        W98525  36.094  43.921  11.482
30132W        W98526  39.247   6.300  14.493
30133W        W98527  17.310  30.493   2.354
30134W        W98528  35.060  24.888  10.235
30135W        W98529  39.902  17.932   2.239
30136W        W98530  17.709  38.756  12.863
30137W        W98531  20.980  34.271   1.707
30138W        W98532  30.197  40.465  12.116
30139W        W98533   2.068  21.208   0.160
30140W        W98534  16.723   4.520  14.766
30141W        W98535   8.548  43.497   3.071
30142W        W98536  31.821  37.403  10.653
30143W        W98537  33.956  22.944   1.383
30144W        W98538   3.289  38.356   1.421
30145W        W98539  14.894  30.403  11.948
30146W        W98540  13.735   6.633   4.121
30147W        W98541  39.022  26.215  14.800
30148W        W98542  23.074   3.300  12.663
30149W        W98543  10.398  19.757   4.623
30150W        W98544  33.908  15.892   3.352
30151W        W98545  35.797  41.245   1.143
30152W        W98546  27.416  17.176   1.028
30153W        W98547  29.146  12.546   0.474
30154W        W98548  15.337  18.543   3.400
30155W        W98549  34.407  22.760  14.756
30156W        W98550  38.031  19.066  11.325
30157W        W98551  34.441  16.331  12.081
30158W        W98552  26.505  29.869   0.911
30159W        W98553  43.242  19.607  13.977
30160W        W98554  43.496  19.244   2.647
30161W        W98555  28.976  33.884   3.237
30162W        W98556  30.856  30.938  14.429
30163W        W98557  17.646   6.702   4.357
30164W        W98558  36.723  13.330  11.537
30165W        W98559  27.475  10.103  13.538
30166W        W98560  17.566  42.026   3.295
30167W        W98561  40.572  15.087  13.392
30168W        W98562   4.008  11.616   5.114
30169W        W98563   9.613  11.135  11.155
30170W        W98564  24.169   8.721  13.562
30171W        W98565  33.198   7.024  11.174
30172W        W98566   0.607  37.904   9.857
30173W        W98567  21.624  43.925  10.634
30174W        W98568  29.485  12.818   0.798
30175W        W98569  42.192  31.416  13.586
30176W        W98570   9.984  30.657   2.359
30177W        W98571  20.206   7.984  12.088
30178W        W98572  32.082  34.417  12.562
30179W        W98573  18.842  22.652  14.948
30180W        W98574  39.377  33.408   3.198
30181W        W98575  24.268  38.460  10.970
30182W        W98576  33.048   8.185   3.292
30183W        W98577   6.229  10.800  11.576
30184W        W98578   6.627   3.899   1.920
30185W        W98579  39.449  13.268  13.163
30186W        W98580  43.089  37.265  12.563
30187W        W98581  31.848  22.718   1.796
30188W        W98582  39.019  35.527   4.967
30189W        W98583  37.417  25.960   0.717
30190W        W98584   5.188  36.136  13.336
30191W        W98585  24.772  36.010   0.858
30192W        W98586  22.963  25.558   0.895
30193W        W98587  23.121  40.878  14.415
30194W        W98588  18.690  15.827  13.575
30195W        W98589  29.850  37.354   3.790
30196W        W98590  36.471  10.893  14.403
30197W        W98591  39.811   6.378   3.804
30198W        W98592  43.491  10.616   2.376
30199W        W98593  21.801  28.089  14.693
30200W        W98594  12.478   6.637   4.528
30201W        W98595  34.081  36.772  14.303
30202W        W98596  10.132   1.387   3.308
30203W        W98597  23.462  44.758   2.664
30204W        W98598  17.339  23.268   3.582
30205W        W98599  15.121  17.051  13.034
30206W        W98600  16.795  17.752  14.031
30207W        W98601  37.342  32.624  11.977
30208W        W98602  35.581  25.771   2.347
30209W        W98603  28.873  35.944   1.252
30210W        W98604   8.490  30.040  11.811
30211W        W98605  42.950  23.106  14.775
30212W        W98606  20.074  12.340  14.540
30213W        W98607  34.883  22.372  10.011
30214W        W98608  18.315   5.296  13.073
30215W        W98609   9.849  32.859  11.249
30216W        W98610  39.296  41.535   0.504
30217W        W98611  42.977  33.975  10.755
30218W        W98612  35.984  15.191  11.286
30219W        W98613  42.528  35.962   1.092
30220W        W98614  38.410   8.697   4.076
30221W        W98615  17.076  16.000   0.988
30222W        W98616  38.539  39.355   3.193
30223W        W98617   3.424  21.093  14.995
30224W        W98618  22.139  20.458  13.475
30225W        W98619  38.769  13.069   2.815
30226W        W98620  21.748  43.477  10.427
30227W        W98621   1.256  14.379   4.986
30228W        W98622  11.389  27.272   2.550
30229W        W98623  26.217   6.203  11.982
30230W        W98624  40.425  24.011   1.155
30231W        W98625  19.473  26.385  10.655
30232W        W98626   9.360  11.679  13.340
30233W        W98627  32.477   4.340  12.806
30234W        W98628  28.912  12.200   2.347
30235W        W98629  12.408  36.382   1.615
30236W        W98630  34.312   2.258   0.188
30237W        W98631  21.857  13.226  13.599
30238W        W98632  12.752   5.683  12.188
30239W        W98633  44.694  33.713  12.222
30240W        W98634  14.624  14.848   3.308
30241W        W98635  42.723  20.302  12.258
30242W        W98636  32.830  35.942   4.099
30243W        W98637  19.783   4.840   2.626
30244W        W98638  26.071  11.458   0.765
30245W        W98639  38.346  38.422  14.736
30246W        W98640  38.510   2.810  13.962
30247W        W98641  41.368  22.179   2.927
30248W        W98642  43.173   3.606   3.681
30249W        W98643  44.289  18.921  12.647
30250W        W98644   6.269  36.511  11.056
30251W        W98645  40.310  42.063   0.912
30252W        W98646   8.910  37.501  13.498
30253W        W98647  14.766  27.722   3.931
30254W        W98648   0.375  31.637  11.182
30255W        W98649  38.071  43.615  11.352
30256W        W98650   4.169  20.087   4.526
30257W        W98651   6.442   2.700  10.535
30258W        W98652  43.069  32.578  11.215
30259W        W98653   6.748  41.212   4.296
30260W        W98654  34.883  20.633  11.661
30261W        W98655   8.102  30.829  12.216
30262W        W98656  38.901   0.792  14.543
30263W        W98657  23.670  24.857   2.248
30264W        W98658   4.311  35.931   2.928
30265W        W98659   7.131  11.131  12.013
30266W        W98660  14.870  32.313   2.300
30267W        W98661  23.260  31.371  13.786
30268W        W98662  44.315  33.529   4.257
30269W        W98663  21.216  38.697  10.384
30270W        W98664   5.724  38.546   0.344
30271W        W98665  30.836  36.863   1.626
30272W        W98666   2.771   8.619  12.894
30273W        W98667  36.472   5.715   0.822
30274W        W98668  22.739  18.685   0.823
30275W        W98669  35.644   4.429  10.699
30276W        W98670  23.336  26.157   2.261
30277W        W98671  17.410  27.564  10.589
30278W        W98672  16.523  27.767   3.207
30279W        W98673  19.391  44.594   1.726
30280W        W98674   7.170   7.145  14.564
30281W        W98675  15.936  33.039   1.934
30282W        W98676   9.848  42.758  12.652
30283W        W98677  15.787  28.419   1.480
30284W        W98678  13.350  44.815   1.386
30285W        W98679  25.453  29.068   4.125
30286W        W98680  25.476  36.953  11.907
30287W        W98681  20.429  36.412  11.131
30288W        W98682  38.546   9.243   4.722
30289W        W98683   3.903  23.039   4.492
30290W        W98684  15.898  43.312   2.214
30291W        W98685  13.172  11.848   2.279
30292W        W98686  15.706  35.753   0.358
30293W        W98687   0.387   2.699   4.117
30294W        W98688  20.201  36.445  14.798
30295W        W98689  29.036  24.893  10.955
30296W        W98690  22.060  20.992  13.493
30297W        W98691  42.751  19.668  12.988
30298W        W98692  24.619  33.068  13.576
30299W        W98693  29.972   4.322   1.950
30300W        W98694  36.936  11.298   4.485
30301W        W98695   6.154   3.424  14.941
30302W        W98696  27.969   7.926   3.329
30303W        W98697  16.482  10.901  11.581
30304W        W98698   5.763  12.649  11.017
30305W        W98699  40.391   1.977   0.811
30306W        W98700  37.596  23.763  13.283
30307W        W98701   1.483   8.850   3.666
30308W        W98702  24.267  11.317  12.095
30309W        W98703   1.830  37.415  11.976
30310W        W98704  31.441  38.478  13.185
30311W        W98705  26.490   7.785  13.070
30312W        W98706  41.909  16.638  14.376
30313W        W98707  25.787  26.225   1.823
30314W        W98708  41.834   4.909  14.473
30315W        W98709  18.644  35.145  11.659
30316W        W98710  42.951  43.199   5.076
30317W        W98711   5.161  10.813  12.898
30318W        W98712  13.034   8.749   3.118
30319W        W98713   7.022  25.663  12.478
30320W        W98714   0.176  35.442  10.531
30321W        W98715   2.405   1.947  10.258
30322W        W98716  40.964  39.457  13.709
30323W        W98717  38.901   5.101  14.375
30324W        W98718  30.135  23.204  12.002
30325W        W98719  35.725  33.108  10.721
30326W        W98720  23.699  10.663  11.512
30327W        W98721  16.162  18.615  13.285
30328W        W98722  31.004   2.190   0.536
30329W        W98723  16.581   0.319   3.736
30330W        W98724  30.045  18.315   0.931
30331W        W98725  33.122  18.212  13.429
30332W        W98726  10.243  25.722   3.275
30333W        W98727  27.427  37.864   3.810
30334W        W98728  25.568  20.541   3.364
30335W        W98729  44.275   2.730   4.892
30336W        W98730  37.206   0.515  13.906
30337W        W98731  28.165   4.364   0.328
30338W        W98732  35.160   5.229  14.078
30339W        W98733  29.428   7.712   0.221
30340W        W98734   2.938   6.275  10.585
30341W        W98735  24.696  10.611   2.318
30342W        W98736  18.490  23.553  11.565
30343W        W98737  22.261   5.811   3.246
30344W        W98738  36.086  17.838  11.176
30345W        W98739  10.132  26.217   3.174
30346W        W98740   2.056   8.560  13.555
30347W        W98741  14.648  39.796  12.039
30348W        W98742  21.563  39.439   4.130
30349W        W98743   1.674  42.083  12.080
30350W        W98744  36.317  34.242  13.399
30351W        W98745  35.604  11.350   4.940
30352W        W98746  33.033  37.765  12.587
30353W        W98747  40.393  32.754   4.658
30354W        W98748   8.367  39.942  14.262
30355W        W98749   9.905  26.049  11.880
30356W        W98750  33.132  23.625   3.470
30357W        W98751  11.176   8.433  14.608
30358W        W98752  43.487   1.674  11.532
30359W        W98753  21.220   1.324   1.781
30360W        W98754   2.462  16.649  11.508
30361W        W98755   3.486   2.516  11.149
30362W        W98756  13.316  12.252   1.755
30363W        W98757  23.763  37.461  14.826
30364W        W98758  30.285   7.986   3.726
30365W        W98759   6.179   1.238  12.465
30366W        W98760  28.151  39.836   3.374
30367W        W98761  21.131  43.262  11.637
30368W        W98762  24.212  44.939  12.097
30369W        W98763  15.517  42.701  12.538
30370W        W98764  40.417   6.478   2.817
30371W        W98765   1.085  36.525   0.901
30372W        W98766  35.978  31.874  11.266
30373W        W98767   1.949  21.853   2.357
30374W        W98768   0.664   1.386  12.882
30375W        W98769  12.121  32.655  14.423
30376W        W98770  37.529  11.828   1.442
30377W        W98771   8.777   3.499  12.345
30378W        W98772  14.710   2.961   1.542
30379W        W98773  10.314  40.866   2.633
30380W        W98774  43.307  39.541   0.862
30381W        W98775  42.293  29.848   0.809
30382W        W98776   5.790  23.162   2.016
30383W        W98777  33.550  15.400  13.873
30384W        W98778  20.907  33.059  14.607
30385W        W98779   4.010  12.602  10.404
30386W        W98780  11.405  29.026   1.064
30387W        W98781   2.468  16.958  10.601
30388W        W98782  14.764  16.301  10.472
30389W        W98783  13.793   7.889  10.939
30390W        W98784  12.147   0.485  12.052
30391W        W98785   3.309  11.452  14.867
30392W        W98786  15.993  22.983   0.928
30393W        W98787  23.976  33.682  12.404
30394W        W98788  18.237   0.064   2.443
30395W        W98789  13.412  16.143  14.914
30396W        W98790  35.436  37.371  11.678
30397W        W98791   1.307   1.743   4.425
30398W        W98792  32.998  21.739   3.615
30399W        W98793  11.782  40.778   0.122
30400W        W98794  41.346  22.771  12.350
30401W        W98795   2.641  25.926  13.059
30402W        W98796  11.324  29.813  12.942
30403W        W98797  27.938  40.066  12.002
30404W        W98798   9.475  22.755   1.053
30405W        W98799   4.122  34.499   4.500
30406W        W98800  22.663  39.847   3.074
30407W        W98801  44.811  22.001  11.555
30408W        W98802  26.349   2.829   5.011
30409W        W98803   7.878  20.967  11.540
30410W        W98804  36.296  43.411   2.659
30411W        W98805   7.079  19.711  11.491
30412W        W98806  34.912  13.234  14.631
30413W        W98807  12.162  28.963   0.333
30414W        W98808  37.710  17.118  13.308
30415W        W98809  24.294  20.310   1.255
30416W        W98810  24.461   2.823   3.365
30417W        W98811   5.816  13.970   0.999
30418W        W98812  33.348  44.915  14.131
30419W        W98813  39.387   7.655   3.652
30420W        W98814  38.130  18.911   1.512
30421W        W98815  32.378   9.250  13.473
30422W        W98816  12.101  24.493  12.051
30423W        W98817  38.383  36.641   2.686
30424W        W98818  10.279  11.762  14.934
30425W        W98819  39.638   9.314   2.257
30426W        W98820  10.702  39.548  13.794
30427W        W98821  17.954  34.032  13.844
30428W        W98822  44.850  38.307  14.927
30429W        W98823  26.426  41.322  12.571
30430W        W98824   7.741  38.548   0.687
30431W        W98825  23.312   2.419   3.792
30432W        W98826   6.279   0.641   2.282
30433W        W98827  12.630  13.351  12.986
30434W        W98828   4.641  36.974  10.626
30435W        W98829  29.066  42.881  11.156
30436W        W98830  34.347  27.166  14.979
30437W        W98831  27.899  14.711  13.366
30438W        W98832  36.530   1.731  12.427
30439W        W98833  18.801  11.966   1.141
30440W        W98834  26.595  35.157   0.239
30441W        W98835  35.093  36.776   4.634
30442W        W98836   2.445  31.591   3.171
30443W        W98837  12.644   5.729  14.088
30444W        W98838  12.568  12.338  14.794
30445W        W98839   0.299  40.846  10.854
30446W        W98840  31.525  14.832  10.742
30447W        W98841  41.124  14.269   0.721
30448W        W98842  15.120  19.556   1.256
30449W        W98843  42.154  24.488  12.055
30450W        W98844  31.459  43.876  12.109
30451W        W98845  12.937  43.579   0.181
30452W        W98846  31.811  35.558  11.686
30453W        W98847   4.080  29.974  12.086
30454W        W98848  13.211  33.587   3.863
30455W        W98849  18.683  40.568   1.384
30456W        W98850  36.988  37.897   0.702
30457W        W98851  38.975  24.683   3.628
30458W        W98852  34.563  38.034  10.704
30459W        W98853   4.694  41.113  14.890
30460W        W98854  22.686  42.592  12.449
30461W        W98855  29.920  33.072  10.746
30462W        W98856  20.060  34.854  10.436
30463W        W98857  16.684   9.441  12.041
30464W        W98858  21.350  23.687  12.394
30465W        W98859   7.083  41.513  10.707
30466W        W98860  27.228  11.769  12.786
30467W        W98861   9.775  11.897   2.002
30468W        W98862   7.234  31.476  11.180
30469W        W98863  39.291  42.446  12.934
30470W        W98864   9.195  28.770   3.490
30471W        W98865  10.361   4.924  13.851
30472W        W98866  12.654   4.425  11.479
30473W        W98867  27.390  28.013  14.835
30474W        W98868  36.584  26.170  13.832
30475W        W98869  35.364  29.300   2.461
30476W        W98870  15.232  26.901   2.360
30477W        W98871  32.616  31.761  10.793
30478W        W98872  30.910  11.137  12.602
30479W        W98873  12.204  26.512  13.395
30480W        W98874   1.268  35.520  10.685
30481W        W98875  14.735  23.494  10.396
30482W        W98876   7.640  27.364   2.415
30483W        W98877  30.129   4.310  14.971
30484W        W98878  16.194  32.552   1.836
30485W        W98879  37.947  26.978   2.412
30486W        W98880  31.897  25.343   2.718
30487W        W98881  21.181  42.813   3.059
30488W        W98882   0.311  25.278  10.806
30489W        W98883   3.740  16.657   3.258
30490W        W98884   6.011  42.449   3.618
30491W        W98885   5.703  40.400   4.734
30492W        W98886  25.517  25.104   3.372
30493W        W98887  44.444  15.816   1.765
30494W        W98888  44.977  36.467   1.010
30495W        W98889   8.918  20.561   1.799
30496W        W98890  31.011  17.115   3.384
30497W        W98891  28.281   4.255  12.975
30498W        W98892  19.077  44.426  13.522
30499W        W98893  16.178  42.865   0.264
30500W        W98894  11.886  42.099   2.825
30501W        W98895  30.839   8.208   3.951
30502W        W98896  43.913  10.809  13.945
30503W        W98897  16.878  40.395   0.293
30504W        W98898  43.249  27.603  13.440
30505W        W98899  24.546  31.332   3.294
30506W        W98900  13.590  11.123   2.812
30507W        W98901  32.073  44.321  11.530
30508W        W98902  41.017   9.042  12.882
30509W        W98903   6.713  22.494  13.097
30510W        W98904  15.608  14.600   0.830
30511W        W98905  17.157  25.725  10.316
30512W        W98906  21.174  35.322   2.495
30513W        W98907  34.541  29.545  14.790
30514W        W98908  40.716  15.792   5.034
30515W        W98909  40.855  36.527  13.915
30516W        W98910  14.524   2.382   3.361
30517W        W98911  44.429  27.652   0.405
30518W        W98912   5.312  23.980  13.260
30519W        W98913   5.361  43.624  14.988
30520W        W98914   0.271  10.618   4.710
30521W        W98915  36.137  20.218  13.862
30522W        W98916  15.694  42.218   4.187
30523W        W98917  44.297  22.943  12.176
30524W        W98918  37.041  25.049  12.075
30525W        W98919  23.056  25.286  10.525
30526W        W98920  43.747  27.919   3.510
30527W        W98921  12.848  10.046  11.426
30528W        W98922  28.141   2.897  10.650
30529W        W98923  14.121   9.177   1.690
30530W        W98924  43.406  23.955  12.601
30531W        W98925  26.342   1.275  14.809
30532W        W98926  14.859  13.094  12.505
30533W        W98927  19.485  14.166   3.036
30534W        W98928  20.721   6.245   3.335
30535W        W98929   4.686   4.508   0.401
30536W        W98930   3.508  13.395  13.892
30537W        W98931  12.621  10.633   1.384
30538W        W98932  40.298  35.513   4.621
30539W        W98933  23.896   7.898   2.726
30540W        W98934  16.410  26.425   2.857
30541W        W98935  32.368  27.122  14.012
30542W        W98936  19.462  28.104   2.497
30543W        W98937  15.612  35.048  11.558
30544W        W98938  24.025  34.072   3.650
30545W        W98939  13.109  16.724  11.209
30546W        W98940  32.174  37.426  13.362
30547W        W98941  28.637  40.347   4.154
30548W        W98942   7.381  32.111  14.739
30549W        W98943  15.136  42.615  13.902
30550W        W98944  27.968  18.232  12.179
30551W        W98945  24.547  34.496  12.594
30552W        W98946   2.450  32.890  11.166
30553W        W98947  32.135  38.455  14.785
30554W        W98948   8.972  26.625   3.186
30555W        W98949  17.826  23.954  14.653
30556W        W98950   2.928  30.897  13.474
30557W        W98951  25.174  35.971  12.098
30558W        W98952   8.436  34.988  13.697
30559W        W98953  25.722  40.541  10.615
30560W        W98954  28.040  42.873  13.118
30561W        W98955   2.283  37.069  13.833
30562W        W98956  37.348  24.698   2.759
30563W        W98957  38.791  18.502   0.383
30564W        W98958  16.319  28.626  11.657
30565W        W98959  23.412  23.680  14.533
30566W        W98960  19.771   1.991   4.118
30567W        W98961  27.955  26.396   1.781
30568W        W98962   1.837  13.920   4.183
30569W        W98963   2.768   1.483  11.123
30570W        W98964   3.951   0.007  10.676
30571W        W98965  24.462  18.168  14.305
30572W        W98966  20.670  10.679  11.007
30573W        W98967  10.143   0.312  14.898
30574W        W98968  41.309  44.426  10.483
30575W        W98969   9.359  35.663   3.758
30576W        W98970  42.497  19.652   1.654
30577W        W98971  43.351  22.274  14.328
30578W        W98972  31.108  11.554   2.452
30579W        W98973  23.959  19.040   4.125
30580W        W98974  30.361  23.309  14.761
30581W        W98975   5.307  44.704   1.497
30582W        W98976   5.422  37.939  14.833
30583W        W98977   1.410  36.454  13.898
30584W        W98978  10.604  22.251   4.214
30585W        W98979  10.361  20.940  11.738
30586W        W98980   9.490  23.764  11.047
30587W        W98981  17.901  34.275  12.962
30588W        W98982  27.958  21.722   2.999
30589W        W98983  42.904  19.514  12.466
30590W        W98984  18.089   2.081  10.460
30591W        W98985  16.321  14.598   4.794
30592W        W98986   5.824  42.711   4.061
30593W        W98987   9.043   7.438  11.651
30594W        W98988  18.488  25.475  10.311
30595W        W98989  24.638  39.056   2.299
30596W        W98990  31.415  10.247  13.783
30597W        W98991  15.577  19.325   1.320
30598W        W98992  15.328   4.256  14.946
30599W        W98993   4.452  10.534  14.512
30600W        W98994  19.605  31.767  11.986
30601W        W98995   2.656  15.367  13.843
30602W        W98996  37.808  19.263  13.351
30603W        W98997  35.352  18.773   4.099
30604W        W98998  39.490   6.302  12.080
30605W        W98999  43.659  40.843   1.816
30606W        W99000  11.278  39.626   0.291
30607W        W99001  30.994  26.857   2.832
30608W        W99002   4.759  37.403   5.104
30609W        W99003  17.796  29.666  14.619
30610W        W99004  21.713  11.835   3.082
30611W        W99005   4.229  28.605   2.241
30612W        W99006  10.841  32.071   1.882
30613W        W99007  35.158   0.585  10.359
30614W        W99008  15.458  31.234   0.874
30615W        W99009  41.728   0.679  12.973
30616W        W99010  42.771  10.209   2.585
30617W        W99011  36.077  14.324   1.294
30618W        W99012   4.893  22.818  14.406
30619W        W99013  24.823   4.943  10.147
30620W        W99014  30.172  42.970  12.906
30621W        W99015  43.447  23.677  12.113
30622W        W99016  35.894  25.463  12.230
30623W        W99017  38.875  42.576  11.139
30624W        W99018  23.343  16.466   2.071
30625W        W99019  13.807  40.698   2.679
30626W        W99020  23.439  28.760   2.733
30627W        W99021  14.588  18.239  12.473
30628W        W99022  41.818  37.131  11.344
30629W        W99023  35.020  44.582   1.835
30630W        W99024   1.563  37.906   3.586
30631W        W99025  24.208  21.634   2.203
30632W        W99026   7.260   1.421  13.344
30633W        W99027  44.470  12.325   1.914
30634W        W99028   2.271  43.000   9.844
30635W        W99029  18.612   0.472  12.836
30636W        W99030  15.977  28.197  11.926
30637W        W99031  31.906  21.152   2.693
30638W        W99032  14.332  34.203   1.505
30639W        W99033  13.535  27.101   4.101
30640W        W99034  10.208   2.155   1.088
30641W        W99035  15.670  41.803  10.985
30642W        W99036  13.348   8.721  12.484
30643W        W99037  35.965  12.953  11.335
30644W        W99038   5.240  35.855  14.149
30645W        W99039   1.793   4.149   0.284
30646W        W99040  29.538  16.083  12.887
30647W        W99041   6.803  43.963  10.777
30648W        W99042  24.174   7.451  14.521
30649W        W99043  17.208  43.832  11.265
30650W        W99044  23.541  10.135  12.450
30651W        W99045  15.241  32.377  10.977
30652W        W99046  35.147  43.988  11.730
30653W        W99047   9.052  33.862   4.794
30654W        W99048  20.206  29.142   4.223
30655W        W99049  16.826  31.934  10.694
30656W        W99050  34.491  27.628  14.821
30657W        W99051  24.660  31.996  10.302
30658W        W99052  13.260  36.016  10.776
30659W        W99053  15.766  37.849   0.782
30660W        W99054  44.639  30.582   1.430
30661W        W99055  34.883  31.073  10.485
30662W        W99056  19.169  41.445  11.181
30663W        W99057  10.348  10.787  13.371
30664W        W99058  43.457  41.495  13.888
30665W        W99059   8.012  31.912   4.957
30666W        W99060   3.849   9.866  14.522
30667W        W99061   8.076  39.600  14.013
30668W        W99062  15.250  37.573  11.734
30669W        W99063  15.857  27.954  10.588
30670W        W99064   1.432   9.312  10.614
30671W        W99065  25.557   6.747   2.397
30672W        W99066  26.904  12.825   3.558
30673W        W99067  28.628  41.030  11.938
30674W        W99068  34.061  13.081   1.192
30675W        W99069  26.769   2.744   3.473
30676W        W99070  27.131   9.596   2.819
30677W        W99071  34.385  39.780  13.104
30678W        W99072  34.168  32.990  11.923
30679W        W99073  39.957   1.303   0.763
30680W        W99074  15.663  17.953  12.604
30681W        W99075  42.970   0.758  11.938
30682W        W99076  21.028  16.216   2.771
30683W        W99077   6.167  39.527   1.233
30684W        W99078  38.516  21.311   0.319
30685W        W99079  12.860  30.517   3.266
30686W        W99080  15.085  17.249  11.217
30687W        W99081  16.666  35.860   5.087
30688W        W99082  36.984  36.461   1.779
30689W        W99083  16.730  42.257  14.823
30690W        W99084   4.646  20.196  11.875
30691W        W99085  38.341  33.711  14.758
30692W        W99086   6.984   2.592  10.451
30693W        W99087  20.014  21.910  14.915
30694W        W99088  43.318   3.771  12.239
30695W        W99089   6.481  39.613   4.569
30696W        W99090  18.547  44.843   1.872
30697W        W99091  17.648  37.395   4.069
30698W        W99092   5.333  23.086   2.837
30699W        W99093  14.704  24.210  10.812
30700W        W99094  37.627  18.772   2.873
30701W        W99095  29.126  24.444  12.495
30702W        W99096  44.879  32.051  11.191
30703W        W99097   5.196   2.039   2.124
30704W        W99098  43.450  28.489   1.319
30705W        W99099  24.719  21.097  12.656
30706W        W99100  32.688  10.689   0.772
30707W        W99101   8.414  30.473   2.210
30708W        W99102  43.965   5.735  12.900
30709W        W99103  18.373  18.438   2.665
30710W        W99104   3.763  24.539  13.498
30711W        W99105  23.509  31.665   1.153
30712W        W99106  24.166  26.797   4.953
30713W        W99107  19.471  39.371   0.246
30714W        W99108  26.697  30.271  13.618
30715W        W99109  43.487  43.736  14.905
30716W        W99110  34.194  31.521  10.867
30717W        W99111  28.033  10.734   3.367
30718W        W99112  42.066  12.769   1.151
30719W        W99113  36.107   2.167   2.340
30720W        W99114   3.673  41.978   2.256
30721W        W99115   5.496  34.445  13.804
30722W        W99116  43.517   2.038  12.865
30723W        W99117  17.305  30.078  10.926
30724W        W99118  44.311   7.228   3.218
30725W        W99119  44.795  36.857   4.948
30726W        W99120   8.627   0.445  11.061
30727W        W99121  32.354  19.312   0.264
30728W        W99122   5.263  32.150  13.819
30729W        W99123  13.731  12.327  13.991
30730W        W99124  43.296   2.310   0.428
30731W        W99125  24.220   7.779   4.547
30732W        W99126  37.038  20.063   2.637
30733W        W99127   2.515  36.741   4.144
30734W        W99128  19.922  40.308   2.158
30735W        W99129  17.201  17.012  12.422
30736W        W99130  33.591  11.428   2.220
30737W        W99131  43.363  38.041  12.830
30738W        W99132   2.704  33.212   3.386
30739W        W99133   8.910  37.318   1.916
30740W        W99134  18.235   0.186  13.335
30741W        W99135  15.616  11.845  12.039
30742W        W99136  31.525   8.787  13.825
30743W        W99137  14.644  38.928   3.111
30744W        W99138   2.370  26.912  14.380
30745W        W99139  42.937   3.444   2.710
30746W        W99140  38.536  15.211  14.418
30747W        W99141  26.007  22.039   2.256
30748W        W99142  44.508  32.970   3.607
30749W        W99143  37.820  34.628   3.107
30750W        W99144  13.091  23.633   3.058
30751W        W99145  20.928  13.081   1.695
30752W        W99146  13.249  41.629  10.981
30753W        W99147  30.520   1.158  14.132
30754W        W99148  31.205  18.165   1.813
30755W        W99149  14.653  17.820   2.742
30756W        W99150  11.216   8.278  12.420
30757W        W99151  36.932  25.592  12.124
30758W        W99152  21.849  44.897  13.770
30759W        W99153  21.354   2.344   1.386
30760W        W99154   9.654  16.926  14.223
30761W        W99155  15.712  21.228   1.212
30762W        W99156  30.619  35.133   1.203
30763W        W99157  26.047  24.980   2.225
30764W        W99158  32.114  10.348  11.492
30765W        W99159  37.865  30.843   1.682
30766W        W99160  29.525   3.381   0.442
30767W        W99161  43.823  43.911  12.450
30768W        W99162  28.931   0.586  12.630
30769W        W99163  14.182  18.714   1.238
30770W        W99164  25.412   8.592   3.224
30771W        W99165  31.079  37.067  11.576
30772W        W99166  35.967  32.685  11.643
30773W        W99167  17.793  38.002   3.265
30774W        W99168  11.385  22.593   0.517
30775W        W99169  30.908   6.909  12.921
30776W        W99170  15.905  34.759   0.322
30777W        W99171   7.604  36.841   0.572
30778W        W99172  23.093  23.023  10.910
30779W        W99173  40.073  31.638  13.346
30780W        W99174   2.472  41.742  11.109
30781W        W99175  24.503  32.204   0.391
30782W        W99176  36.910  12.188   4.834
30783W        W99177  20.949  37.060  14.731
30784W        W99178  22.073  36.762  11.617
30785W        W99179   7.184  40.816  13.118
30786W        W99180  17.635  17.540  14.906
30787W        W99181  30.637  37.103  12.950
30788W        W99182  30.852  25.441  13.102
30789W        W99183   1.141  44.985  11.260
30790W        W99184  44.799  17.671   3.738
30791W        W99185  14.604   9.716  12.676
30792W        W99186   9.298  32.340  12.020
30793W        W99187  23.690  18.851  10.834
30794W        W99188  27.131  23.762   0.641
30795W        W99189  11.348  15.688   2.587
30796W        W99190  27.039  33.357   0.308
30797W        W99191  33.867  41.835  12.067
30798W        W99192   5.704  30.338  12.549
30799W        W99193   9.316  16.553   1.132
30800W        W99194   3.805  16.038   0.283
30801W        W99195  33.882  41.799  13.809
30802W        W99196   9.139  35.419  13.024
30803W        W99197   8.296  32.831  10.548
30804W        W99198  36.264  18.332   4.182
30805W        W99199   3.203  44.318  14.469
30806W        W99200  29.981  24.677   4.105
30807W        W99201  14.283  42.211   3.151
30808W        W99202   8.736  30.375  11.437
30809W        W99203  24.762   0.773  10.290
30810W        W99204  33.498  13.867  13.167
30811W        W99205  22.022  27.377  11.151
30812W        W99206   4.264  31.451   1.228
30813W        W99207  10.638  41.452  12.437
30814W        W99208  33.106  39.011   4.544
30815W        W99209  36.810  24.520   0.318
30816W        W99210  17.977  15.526   3.704
30817W        W99211  32.556  23.769   1.472
30818W        W99212  32.860   4.010  12.899
30819W        W99213   6.188  37.395  14.885
30820W        W99214  37.808  29.207   0.862
30821W        W99215  39.322   7.278  14.538
30822W        W99216  11.537  44.884  11.994
30823W        W99217  15.085  24.150   0.345
30824W        W99218  31.536  36.437  14.080
30825W        W99219  42.697  41.099   1.897
30826W        W99220  31.893  36.470  12.704
30827W        W99221  14.721  17.527  13.636
30828W        W99222  30.561  38.422  14.758
30829W        W99223   3.410  40.144  11.198
30830W        W99224  41.505  29.179   4.593
30831W        W99225  16.683  32.449  10.527
30832W        W99226   2.255  23.882  11.184
30833W        W99227  14.178  35.619   3.766
30834W        W99228   3.692  14.216   4.023
30835W        W99229   7.536  40.388  12.265
30836W        W99230   4.145  27.844   4.929
30837W        W99231  43.973  44.791  10.899
30838W        W99232   6.892   3.658   3.665
30839W        W99233  37.948  35.937   0.986
30840W        W99234  16.943  28.307  13.040
30841W        W99235  24.741  25.931   0.359
30842W        W99236  30.380  24.694  11.232
30843W        W99237  39.592  14.642  14.271
30844W        W99238   9.668  19.209   0.283
30845W        W99239  31.217  37.721   3.448
30846W        W99240  12.881  24.534   3.088
30847W        W99241   6.652  19.432  13.944
30848W        W99242  14.407   7.883   3.303
30849W        W99243  28.662  18.394  14.543
30850W        W99244  33.862  10.261   0.016
30851W        W99245  28.735  11.117  11.476
30852W        W99246  10.313   4.895   1.930
30853W        W99247  13.534   4.447   2.899
30854W        W99248  24.280  25.969   2.001
30855W        W99249  36.647  43.044  13.541
30856W        W99250  15.574  26.163  11.373
30857W        W99251  34.733   5.139  11.651
30858W        W99252  37.394   5.872  13.031
30859W        W99253  16.196  16.145   5.023
30860W        W99254   4.862  33.118  12.954
30861W        W99255  44.001   3.777   4.699
30862W        W99256   0.833  34.801   3.275
30863W        W99257   0.738  32.397   0.892
30864W        W99258  35.936  34.293   2.850
30865W        W99259  10.595  12.731  12.337
30866W        W99260  33.028  10.351  13.185
30867W        W99261  10.741  12.065   0.268
30868W        W99262  21.362   1.281  10.670
30869W        W99263  39.181  25.620  13.388
30870W        W99264  30.393  10.387   3.556
30871W        W99265  22.508   1.796   0.343
30872W        W99266  29.899  41.599   4.127
30873W        W99267  30.574  31.950   1.998
30874W        W99268  41.066   2.440  13.071
30875W        W99269   6.167  23.488   1.261
30876W        W99270  43.373  30.116  14.791
30877W        W99271  38.880  35.409  12.648
30878W        W99272   7.126  10.652  13.301
30879W        W99273  35.293   2.069   2.682
30880W        W99274  44.178  25.125   3.370
30881W        W99275  32.115   4.875   0.103
30882W        W99276  30.704  14.837   4.165
30883W        W99277  27.601  23.448  12.827
30884W        W99278   3.832  32.556   1.935
30885W        W99279   8.314  19.259  10.903
30886W        W99280  37.359  34.887   0.803
30887W        W99281  32.559  17.347  10.649
30888W        W99282  17.085  29.921   2.212
30889W        W99283  31.414  39.659  11.223
30890W        W99284  17.075  15.520   3.819
30891W        W99285   1.871  17.071   2.844
30892W        W99286  36.851  10.150   0.966
30893W        W99287  34.735   4.185   4.536
30894W        W99288  16.526   4.695   2.545
30895W        W99289  24.138   4.470   0.061
30896W        W99290   8.685  11.520  14.375
30897W        W99291  18.035  26.515   9.783
30898W        W99292   1.707   7.268  14.436
30899W        W99293  17.814  14.100  12.626
30900W        W99294  10.622  27.317  10.752
30901W        W99295  43.293  32.863  14.987
30902W        W99296  41.909   2.630  12.955
30903W        W99297  40.983   4.484  14.928
30904W        W99298   9.789  35.993  11.236
30905W        W99299  27.676  36.062   0.308
30906W        W99300   8.024  42.438   2.942
30907W        W99301   9.646  11.187  14.502
30908W        W99302  41.967  38.541  11.972
30909W        W99303  17.004  15.342   3.016
30910W        W99304  16.916  12.887  10.808
30911W        W99305  21.898  28.879  11.924
30912W        W99306   6.216  35.975  12.985
30913W        W99307  17.148  43.027   1.107
30914W        W99308   2.273  32.160  13.583
30915W        W99309   9.571  43.961   1.811
30916W        W99310  31.692  35.785   1.453
30917W        W99311  20.076  35.318  13.926
30918W        W99312  12.008  33.224   1.737
30919W        W99313  24.642   2.255  11.201
30920W        W99314   8.303   9.188   0.991
30921W        W99315  13.831  34.608   4.518
30922W        W99316   0.859   3.733  12.036
30923W        W99317  31.033  15.556  12.163
30924W        W99318   7.721  34.875   1.478
30925W        W99319  43.565  11.315  10.800
30926W        W99320   4.420   6.325   4.609
30927W        W99321  20.558  13.555   1.634
30928W        W99322  27.204  15.033   4.615
30929W        W99323   1.767   0.665   0.412
30930W        W99324   9.464  25.249  10.849
30931W        W99325  22.993  12.566   0.831
30932W        W99326  16.658  25.941  10.317
30933W        W99327  18.558   8.042   4.526
30934W        W99328   8.628  32.652  11.881
30935W        W99329  33.291  12.712   3.320
30936W        W99330  32.102  13.158  13.169
30937W        W99331  23.749  34.465   1.386
30938W        W99332  23.495  20.899   3.972
30939W        W99333   9.926  10.332   0.401
30940W        W99334  37.336  25.117  13.327
30941W        W99335  19.815  15.808  11.591
30942W        W99336   8.818  19.847   3.630
30943W        W99337  28.450   5.150  12.967
30944W        W99338  43.306  24.987  11.639
30945W        W99339  11.321  33.813  12.018
30946W        W99340  28.204  29.979  11.534
30947W        W99341  23.715  42.587  13.483
30948W        W99342   6.147  41.231   5.104
30949W        W99343  39.027  34.026  10.812
30950W        W99344  42.792  36.629   2.754
30951W        W99345  10.732  35.904  11.996
30952W        W99346  41.345  12.609  11.710
30953W        W99347  29.584   1.095   5.038
30954W        W99348  15.361  29.016   1.017
30955W        W99349   3.386  33.364  12.075
30956W        W99350   0.911  12.078  13.878
30957W        W99351  26.519   9.106  14.767
30958W        W99352  28.798   7.401  14.995
30959W        W99353  14.289   7.681   2.730
30960W        W99354  23.204  26.738  10.738
30961W        W99355  15.041  25.744   0.799
30962W        W99356   6.273   5.001  10.316
30963W        W99357  27.903  22.329   2.185
30964W        W99358  12.694  32.276  13.028
30965W        W99359   7.164  26.306   5.199
30966W        W99360  35.417  19.109   3.582
30967W        W99361  26.939   1.818   0.342
30968W        W99362  31.178   8.854   3.771
30969W        W99363  27.563  17.194  12.648
30970W        W99364  40.422  31.048  11.089
30971W        W99365  19.388  36.988   1.758
30972W        W99366  10.326  39.786  14.142
30973W        W99367  13.769  38.457   3.772
30974W        W99368  24.808  30.082   3.639
30975W        W99369  13.727   6.477   3.302
30976W        W99370  36.396  44.330  14.498
30977W        W99371  44.443  29.348  14.546
30978W        W99372  43.375  23.704  13.062
30979W        W99373  41.073  42.812   0.877
30980W        W99374  13.411  13.609  10.661
30981W        W99375  22.090   3.850  13.382
30982W        W99376  27.913   1.361   1.842
30983W        W99377   9.098  11.193  11.196
30984W        W99378  36.148  44.200  11.920
30985W        W99379  15.951   2.623  12.398
30986W        W99380   1.824  35.478  14.594
30987W        W99381  21.617  18.455   3.339
30988W        W99382  19.439  21.976  12.742
30989W        W99383  17.748  27.941   1.017
30990W        W99384  32.933   3.122   3.903
30991W        W99385  33.957  30.075  14.208
30992W        W99386  27.116  19.316  13.506
30993W        W99387  41.598  32.005  10.647
30994W        W99388  10.814   1.029  13.411
30995W        W99389  35.432  23.562   3.674
30996W        W99390  41.711  33.503  12.036
30997W        W99391  43.085  24.487   0.691
30998W        W99392   1.284  43.029   1.708
30999W        W99393  42.348  22.344   1.642
31000W        W99394  36.682  34.923   4.800
31001W        W99395   9.279   7.289  11.224
31002W        W99396  12.220  44.244  11.256
31003W        W99397   6.582  21.825   0.470
31004W        W99398  35.291   8.435  13.025
31005W        W99399  16.265   6.935   2.223
31006W        W99400   4.274   8.703  12.897
31007W        W99401  31.388   3.589  13.552
31008W        W99402  37.873  25.733   4.687
31009W        W99403  21.973  28.481   4.158
31010W        W99404   4.205  39.525  14.220
31011W        W99405   1.015  10.918  13.512
31012W        W99406  14.637  28.569   0.809
31013W        W99407  16.626   1.517   2.450
31014W        W99408  44.258   7.308   0.820
31015W        W99409  36.482   1.685  14.897
31016W        W99410  27.676  43.504  12.897
31017W        W99411  30.520  29.608   0.408
31018W        W99412   3.353  21.281  12.137
31019W        W99413  21.510   0.850   2.824
31020W        W99414  41.941  37.102  11.826
31021W        W99415  13.599  24.577   4.759
31022W        W99416  18.049  30.368   2.619
31023W        W99417  35.505  17.289  10.525
31024W        W99418  29.092  35.151  12.113
31025W        W99419   5.364  28.828  11.944
31026W        W99420   8.776   7.634   4.245
31027W        W99421  13.867  23.200   4.358
31028W        W99422  25.826  33.729   0.309
31029W        W99423   9.613  37.164   0.628
31030W        W99424  12.124   0.519  10.940
31031W        W99425  12.838  29.053  12.042
31032W        W99426  36.443   0.462  12.082
31033W        W99427  16.317   1.251  13.456
31034W        W99428  10.707  29.826  12.080
31035W        W99429   2.239  38.322   1.274
31036W        W99430  23.079  40.617   3.409
31037W        W99431  35.508  16.882   3.419
31038W        W99432  38.238  44.474  14.399
31039W        W99433  30.568  31.831   2.905
31040W        W99434  27.817  42.031   4.143
31041W        W99435   2.498  29.949  14.398
31042W        W99436   8.990  27.566  14.581
31043W        W99437  11.110  15.725   0.358
31044W        W99438  36.829  10.351  12.488
31045W        W99439  32.904  38.103  13.948
31046W        W99440  27.188  34.017   2.732
31047W        W99441  44.446  41.612   0.767
31048W        W99442  13.577   8.868  12.982
31049W        W99443  19.096   7.355   1.410
31050W        W99444  10.058   2.884  11.504
31051W        W99445  37.374  16.188   3.184
31052W        W99446   4.822  39.841   1.955
31053W        W99447  34.645  17.254  11.673
31054W        W99448  13.573  29.872   1.773
31055W        W99449  11.936  25.041  13.805
31056W        W99450  33.662  42.537  12.039
31057W        W99451  26.270  29.509   1.665
31058W        W99452  43.537  27.207  12.631
31059W        W99453   6.453   1.433  10.243
31060W        W99454  17.348  15.059   1.407
31061W        W99455  21.989  33.580   1.535
31062W        W99456   6.678  17.152  11.661
31063W        W99457  19.888   9.751  14.863
31064W        W99458  17.289   8.457   3.759
31065W        W99459  18.876  28.038   3.536
31066W        W99460  20.092  13.848   3.608
31067W        W99461  14.977   3.368   1.794
31068W        W99462  37.935   8.728   3.791
31069W        W99463  20.760  31.532  10.711
31070W        W99464  38.798  41.267  14.740
31071W        W99465   2.829  23.797   0.751
31072W        W99466  35.879  34.440   0.374
31073W        W99467  36.296  21.223  11.739
31074W        W99468  37.813  11.282  14.991
31075W        W99469  22.115  30.754  12.961
31076W        W99470  18.965   7.270  10.654
31077W        W99471  11.860  12.879  14.855
31078W        W99472   3.345  36.918  12.638
31079W        W99473  15.781   5.924  12.510
31080W        W99474  23.251  39.607   2.675
31081W        W99475  36.934  11.884  11.581
31082W        W99476  41.531  25.395  12.956
31083W        W99477  32.940   4.805  11.996
31084W        W99478  36.029   1.024   2.730
31085W        W99479   7.243   4.266   1.171
31086W        W99480   6.250  32.479   1.405
31087W        W99481   0.843  41.875   2.711
31088W        W99482  40.294  41.082  11.542
31089W        W99483  29.548  42.258  13.909
31090W        W99484  11.425  11.416  13.887
31091W        W99485  31.938  25.018   3.783
31092W        W99486  23.733  23.757   3.390
31093W        W99487  19.796   3.270   3.618
31094W        W99488   8.240  27.089  13.822
31095W        W99489  10.311  39.517   2.335
31096W        W99490   5.653  13.469  13.754
31097W        W99491  43.815  33.491   0.984
31098W        W99492  21.496  18.722   1.415
31099W        W99493  25.432  18.162   2.826
31100W        W99494  43.806  16.323   2.695
31101W        W99495  37.952  14.530  12.461
31102W        W99496  38.141  26.727   4.647
31103W        W99497  36.713   5.432   3.818
31104W        W99498  32.867  28.995   2.974
31105W        W99499  19.386  16.455  10.289
31106W        W99500   6.421  25.362  11.140
31107W        W99501   7.632  11.777  10.312
31108W        W99502  25.903   0.794  11.942
31109W        W99503  17.887  29.698  12.883
31110W        W99504  26.060  23.979  11.606
31111W        W99505  28.163  16.910   0.325
31112W        W99506   2.853   0.081   4.611
31113W        W99507   4.807  34.154  12.563
31114W        W99508   6.421  39.891  14.994
31115W        W99509  32.796  37.332   5.099
31116W        W99510   3.738  42.236   1.376
31117W        W99511  35.996  21.832  14.522
31118W        W99512  27.174  41.299  12.138
31119W        W99513   0.374  39.864   0.342
31120W        W99514  11.755  29.278   1.816
31121W        W99515  40.580  12.277   0.575
31122W        W99516  36.069  38.591   0.053
31123W        W99517  38.910  19.963   0.680
31124W        W99518  37.959   5.695   2.141
31125W        W99519   4.142   4.268   2.600
31126W        W99520   8.830  36.315   4.142
31127W        W99521  12.218  31.875  13.913
31128W        W99522  22.242  20.181  11.251
31129W        W99523  10.676  16.080  10.857
31130W        W99524  10.167   4.003  10.475
31131W        W99525  32.244  26.222  14.881
31132W        W99526  15.609  23.313  12.694
31133W        W99527  11.680  25.523  12.065
31134W        W99528  14.127  10.650  10.521
31135W        W99529  14.249  17.485   1.265
31136W        W99530   7.200   3.828   4.029
31137W        W99531  18.663   7.440   2.865
31138W        W99532  10.939  33.756   2.389
31139W        W99533  30.968  12.396  11.742
31140W        W99534  36.027  39.009  13.419
31141W        W99535  30.506  38.572   1.760
31142W        W99536  11.699   4.983  11.371
31143W        W99537  21.151   8.332  10.940
31144W        W99538  19.651  15.883  10.202
31145W        W99539  23.581  43.993  11.641
31146W        W99540  20.006   6.725   3.108
31147W        W99541  16.544  38.184   3.882
31148W        W99542  31.184  11.145  12.139
31149W        W99543  32.165   9.816   4.172
31150W        W99544  15.828  44.413   4.677
31151W        W99545  13.202   6.136   5.231
31152W        W99546  20.100  34.464  11.713
31153W        W99547  41.994   1.976   4.022
31154W        W99548  37.335  44.402   0.285
31155W        W99549   2.140   6.001   5.094
31156W        W99550  42.598  30.449   1.394
31157W        W99551  12.134   9.612   0.356
31158W        W99552   1.299  33.529  14.264
31159W        W99553  32.851  37.364  12.942
31160W        W99554  42.064   3.553   1.429
31161W        W99555  28.142  43.356  13.314
31162W        W99556  10.287   0.209  13.061
31163W        W99557  41.989  19.786   1.671
31164W        W99558   4.500  31.080   2.318
31165W        W99559  28.775   8.201   3.171
31166W        W99560  44.426  39.961  12.376
31167W        W99561  36.033   2.906   0.288
31168W        W99562  43.181  34.472  10.649
31169W        W99563   1.013  31.200  13.154
31170W        W99564   9.743   9.276   3.261
31171W        W99565   5.073  41.250  14.024
31172W        W99566  12.590  17.730  10.600
31173W        W99567  29.501  27.941   3.670
31174W        W99568  12.312  33.416  14.876
31175W        W99569  25.254  22.036   4.297
31176W        W99570  35.890  20.945  13.443
31177W        W99571  20.532   1.914   1.116
31178W        W99572  38.280   9.872   1.346
31179W        W99573  31.918  38.056  12.183
31180W        W99574  18.149  23.180   1.168
31181W        W99575   4.448  43.304   2.980
31182W        W99576  22.025  27.696   3.630
31183W        W99577  15.376  41.794  11.981
31184W        W99578   8.157  28.078   1.722
31185W        W99579  24.778  39.213   1.419
31186W        W99580  27.659  30.818  13.770
31187W        W99581   5.184  32.379  11.934
31188W        W99582  12.208  41.094  14.830
31189W        W99583  10.566   3.321  10.475
31190W        W99584  43.024  23.958   2.359
31191W        W99585  22.787  37.852  11.972
31192W        W99586  11.628  20.434  11.131
31193W        W99587  28.503  21.627  10.664
31194W        W99588  15.763  10.301  13.773
31195W        W99589  17.798  17.621   4.456
31196W        W99590  18.538  30.547  12.550
31197W        W99591  38.986   0.581   4.012
31198W        W99592   5.128   9.236  12.831
31199W        W99593   8.233  11.226   1.492
31200W        W99594  10.405  12.975  14.446
31201W        W99595   9.225   1.738  11.043
31202W        W99596   5.117  13.382   3.108
31203W        W99597   3.876  41.016   3.603
31204W        W99598   3.020  13.176  12.557
31205W        W99599  31.973  14.560  10.716
31206W        W99600  29.723  20.494   4.466
31207W        W99601  33.861   4.728   2.580
31208W        W99602  34.051  12.319   0.269
31209W        W99603   2.267  13.824  11.148
31210W        W99604  12.861   7.836   3.766
31211W        W99605  12.343  24.807   0.946
31212W        W99606   1.955  14.219   2.303
31213W        W99607  34.646  33.952   1.747
31214W        W99608  16.433  28.853  14.906
31215W        W99609  31.441  44.350   1.865
31216W        W99610  26.202  42.743   0.303
31217W        W99611  22.029  44.381   4.707
31218W        W99612   1.032  32.509   1.304
31219W        W99613   2.155  15.707   1.895
31220W        W99614  40.991  10.220   1.633
31221W        W99615  41.763   6.190  12.537
31222W        W99616   8.107  20.702   2.226
31223W        W99617  11.119  22.333   4.377
31224W        W99618   2.285   3.480  14.912
31225W        W99619   3.206   2.187  13.421
31226W        W99620  30.364  10.246   2.021
31227W        W99621  18.248  42.560  12.058
31228W        W99622  44.726  38.942  13.362
31229W        W99623  39.988  21.076  13.084
31230W        W99624   1.234  31.407   0.777
31231W        W99625   6.420  14.019  11.115
31232W        W99626  34.440  42.017  10.714
31233W        W99627  17.289  28.645  13.562
31234W        W99628  25.733  10.519   0.825
31235W        W99629   1.375   8.343   2.865
31236W        W99630  14.004  39.856  10.048
31237W        W99631  44.428  37.442   2.368
31238W        W99632   5.395   8.765  14.705
31239W        W99633   1.118  16.846  11.467
31240W        W99634  39.807  13.683  14.940
31241W        W99635  26.424  39.362   2.647
31242W        W99636  11.631   0.232   2.480
31243W        W99637  32.569   3.244   2.791
31244W        W99638  19.206   6.452  11.956
31245W        W99639  19.592  34.626  11.720
31246W        W99640   4.905  14.106   1.694
31247W        W99641   7.931  40.100  14.000
31248W        W99642  36.002   8.602   1.511
31249W        W99643  12.891  34.128  12.697
31250W        W99644  38.300  15.156  14.895
31251W        W99645  22.056  33.890  13.467
31252W        W99646  27.613   2.822  14.766
31253W        W99647   7.867   0.189   2.810
31254W        W99648  34.532  41.869   2.169
31255W        W99649  29.409   7.260  13.568
31256W        W99650  38.802   2.241   0.865
31257W        W99651  23.046  22.350  13.873
31258W        W99652  40.362  35.446  11.350
31259W        W99653  31.584   4.300  10.636
31260W        W99654  41.796   3.412  12.642
31261W        W99655   1.259  36.573  12.548
31262W        W99656  25.225  12.306  13.867
31263W        W99657  32.164  40.325  12.700
31264W        W99658   9.643  19.493  12.590
31265W        W99659   4.475  37.455  10.740
31266W        W99660  14.871   2.415   2.388
31267W        W99661  20.980  29.224   3.038
31268W        W99662   1.114  13.102  11.049
31269W        W99663  40.692  24.693   0.785
31270W        W99664  19.248   6.859  14.845
31271W        W99665  39.252  19.723   0.013
31272W        W99666  38.993  31.009   1.058
31273W        W99667  28.899   1.568  14.706
31274W        W99668   6.165  34.596   3.698
31275W        W99669  36.153  40.796  10.706
31276W        W99670  37.458  10.341  13.767
31277W        W99671   4.565  19.386  14.015
31278W        W99672  20.088  25.148   4.182
31279W        W99673  16.227  20.304  10.430
31280W        W99674   0.707  26.598  10.662
31281W        W99675  10.557  16.154  10.361
31282W        W99676   0.860  36.841  14.835
31283W        W99677   6.854  16.749   0.070
31284W        W99678  41.279  23.656   2.260
31285W        W99679  17.219  44.595   3.900
31286W        W99680  44.049  19.654  13.331
31287W        W99681  44.861  30.131   1.765
31288W        W99682  36.547   2.727   3.462
31289W        W99683   0.128  32.817  13.456
31290W        W99684  31.165  25.430   0.497
31291W        W99685  27.990  28.429   0.400
31292W        W99686   0.346  33.946  10.790
31293W        W99687   4.904  39.088  10.368
31294W        W99688   5.419   7.476   1.834
31295W        W99689  27.231  41.483  12.938
31296W        W99690  29.574   2.353   0.192
31297W        W99691  31.500  26.258  10.960
31298W        W99692  40.771   5.867   1.874
31299W        W99693   7.822  37.145  11.113
31300W        W99694   7.831  10.801  11.921
31301W        W99695  26.940  41.939   9.890
31302W        W99696   0.068  11.618   1.333
31303W        W99697  32.431   7.796   4.899
31304W        W99698   9.708  44.750  10.910
31305W        W99699   7.930  43.965  11.688
31306W        W99700  14.118  13.795   3.325
31307W        W99701  39.487  11.289   0.725
31308W        W99702  13.164  35.520  10.922
31309W        W99703   8.051  43.001   0.711
31310W        W99704  40.075  30.997  14.080
31311W        W99705  14.910  14.743  14.235
31312W        W99706  16.225  38.272  14.802
31313W        W99707   6.666  29.009   3.224
31314W        W99708  22.104  29.622   2.894
31315W        W99709  11.643  20.515   3.277
31316W        W99710  11.771  43.547   1.677
31317W        W99711  41.348  21.306  13.851
31318W        W99712  30.526  30.033   0.990
31319W        W99713  15.701  39.296   0.339
31320W        W99714  10.348  41.442  14.768
31321W        W99715  43.196  23.471  10.171
31322W        W99716   2.226   8.874   1.857
31323W        W99717  40.957  18.789  11.061
31324W        W99718   2.415  42.291  11.976
31325W        W99719  28.196  38.043   0.720
31326W        W99720  14.595   4.165  11.987
31327W        W99721  41.235  21.757  14.063
31328W        W99722  29.024   4.192  10.756
31329W        W99723  14.525  43.333   1.914
31330W        W99724  43.393  40.004   1.151
31331W        W99725   2.801  33.120   2.464
31332W        W99726  40.415  35.276  13.832
31333W        W99727  17.294  41.484  13.227
31334W        W99728  17.845  11.878   3.725
31335W        W99729   6.700  43.981  12.894
31336W        W99730  42.035  32.405  13.801
31337W        W99731  21.530   6.823  14.183
31338W        W99732   4.017  20.681   1.833
31339W        W99733  38.789   6.301   2.603
31340W        W99734   0.852  10.633  12.622
31341W        W99735   2.500  40.395   4.549
31342W        W99736  23.449  23.646   4.873
31343W        W99737  34.057   9.139   3.854
31344W        W99738  29.222  31.425   0.376
31345W        W99739   9.149  43.933   1.504
31346W        W99740  40.567  20.732   2.722
31347W        W99741   5.807  24.009   2.337
31348W        W99742   3.282   7.287   3.656
31349W        W99743  33.548  30.896  13.123
31350W        W99744   2.391   8.587  12.538
31351W        W99745  40.028  18.777   4.577
31352W        W99746  23.021  31.868  13.018
31353W        W99747  10.208  20.816  12.762
31354W        W99748  13.426  37.009  13.488
31355W        W99749  30.003  34.418   4.559
31356W        W99750  15.839  43.567  12.997
31357W        W99751  16.375   4.805   4.738
31358W        W99752  39.109  19.627   1.018
31359W        W99753  27.187  39.950   2.409
31360W        W99754   7.345  12.995  11.075
31361W        W99755  12.488  42.394  13.858
31362W        W99756   8.404  33.124   0.863
31363W        W99757   0.353  18.504   2.906
31364W        W99758   7.779  19.719  14.340
31365W        W99759  23.793  35.255  11.063
31366W        W99760   4.356  11.915  12.834
31367W        W99761  31.490  17.280  11.836
31368W        W99762   1.311  27.438   0.790
31369W        W99763  39.951  37.059   9.998
31370W        W99764   4.165  41.810  13.523
31371W        W99765  32.783  38.486  12.966
31372W        W99766   9.250  14.890  14.866
31373W        W99767  26.102   6.460  11.537
31374W        W99768  27.902  14.757  14.807
31375W        W99769  27.546   8.183  12.438
31376W        W99770  24.445  42.575   2.287
31377W        W99771  19.162  12.223  14.290
31378W        W99772   1.339   4.843   4.189
31379W        W99773  42.410  39.046   5.117
31380W        W99774  41.981  41.813  11.215
31381W        W99775  38.801  17.339   3.294
31382W        W99776  17.121   6.502   1.338
31383W        W99777  12.399  32.001  10.435
31384W        W99778  34.615  36.875  13.009
31385W        W99779  28.473   1.334  14.542
31386W        W99780  26.902  14.673  14.835
31387W        W99781  28.235  14.685   1.434
31388W        W99782  22.191  23.738  14.504
31389W        W99783   0.841   9.181   3.709
31390W        W99784  33.371  42.416   0.324
31391W        W99785  32.430   2.729  10.678
31392W        W99786  26.660  29.488   4.678
31393W        W99787   0.306   2.279  14.825
31394W        W99788  30.898   3.797   0.868
31395W        W99789   8.963  21.251  10.153
31396W        W99790   1.582  21.963   3.576
31397W        W99791  25.551  19.496   0.043
31398W        W99792  14.160  13.204  13.138
31399W        W99793  38.605  42.699  10.626
31400W        W99794  12.205  15.161  12.849
31401W        W99795   3.268  25.086   4.483
31402W        W99796  31.952  26.984   3.627
31403W        W99797  32.933   2.781   4.283
31404W        W99798  31.053  34.927  13.469
31405W        W99799  25.312  18.165  14.411
31406W        W99800  32.477  22.802  10.718
31407W        W99801  33.621  18.271  13.164
31408W        W99802  44.952  38.405   1.791
31409W        W99803   8.262  31.510   4.747
31410W        W99804  22.672   6.547  12.941
31411W        W99805  15.867  13.275   3.234
31412W        W99806   7.872  13.698  12.301
31413W        W99807  35.017   7.003  10.751
31414W        W99808  39.695  38.394   4.903
31415W        W99809   5.340   8.103  13.504
31416W        W99810  26.453   2.974   1.318
31417W        W99811  33.877  17.302   4.855
31418W        W99812  43.169  38.147   2.799
31419W        W99813  24.242  12.404  14.871
31420W        W99814  44.851  32.737   1.710
31421W        W99815  24.901  20.692  14.217
31422W        W99816  32.162  41.480   0.671
31423W        W99817  32.756  24.499   4.241
31424W        W99818  28.954  19.221  14.841
31425W        W99819  30.605  10.167  14.615
31426W        W99820  39.023  42.883   3.850
31427W        W99821  27.557   2.461   2.857
31428W        W99822  20.221  36.440   0.805
31429W        W99823  20.127  12.607  13.583
31430W        W99824  17.512  11.084  13.565
31431W        W99825  30.453  28.728   0.008
31432W        W99826  35.561  15.612   2.831
31433W        W99827  38.480  13.836  11.144
31434W        W99828  29.071   8.174  12.587
31435W        W99829  35.836  20.586   4.589
31436W        W99830  14.236  14.561   0.347
31437W        W99831   0.936  26.454   4.083
31438W        W99832  19.050   5.760  13.882
31439W        W99833   2.500  40.555  14.607
31440W        W99834  11.885  24.554  14.908
31441W        W99835  18.981  12.182  10.738
31442W        W99836   7.086  43.006   0.494
31443W        W99837  39.812  29.209   0.836
31444W        W99838   2.020  12.258  10.159
31445W        W99839   4.671  25.145   0.352
31446W        W99840  18.152  41.216  11.594
31447W        W99841  34.373  35.747   3.316
31448W        W99842  16.598  23.009  12.399
31449W        W99843  15.222  36.915  12.963
31450W        W99844  23.452   8.347  13.097
31451W        W99845  15.579   5.869  13.454
31452W        W99846  38.998  41.972   0.331
31453W        W99847   1.019  12.772   2.396
31454W        W99848   3.233  33.564   2.459
31455W        W99849  40.407  18.259   0.902
31456W        W99850  41.853  13.334   2.298
31457W        W99851  35.333  21.050   0.331
31458W        W99852  25.046   1.342  10.965
31459W        W99853   4.741  10.362   1.741
31460W        W99854  28.178   5.332   4.129
31461W        W99855  38.722  36.197   1.651
31462W        W99856  28.448   3.854  14.496
31463W        W99857  40.917   8.176   4.048
31464W        W99858  16.331   4.224   4.561
31465W        W99859  18.778  36.117  14.831
31466W        W99860  23.246  12.463   5.105
31467W        W99861   3.242  26.576  10.638
31468W        W99862   0.533   9.275  11.614
31469W        W99863  30.247  27.268  13.127
31470W        W99864  27.262  36.565   3.805
31471W        W99865  29.066  25.821   3.253
31472W        W99866  15.041  40.098   3.183
31473W        W99867  14.752  22.552   4.495
31474W        W99868  40.726  23.853  14.717
31475W        W99869  32.978  19.095  11.681
31476W        W99870   3.272   5.015  11.255
31477W        W99871  34.965  40.309   0.707
31478W        W99872   6.277  35.864   5.019
31479W        W99873  37.527  22.102   4.592
31480W        W99874  29.653  36.903  12.564
31481W        W99875  25.373   4.356  12.346
31482W        W99876  42.347   2.428   3.530
31483W        W99877  15.716   5.502   1.328
31484W        W99878  36.350   0.292  11.613
31485W        W99879  39.532  27.157   3.223
31486W        W99880  21.540  20.892   0.247
31487W        W99881  28.853  39.352   2.291
31488W        W99882  24.584  44.458  13.363
31489W        W99883  23.058  20.023   0.899
31490W        W99884  17.111  21.220   0.542
31491W        W99885  38.751  42.925   2.913
31492W        W99886  33.100  39.997   2.045
31493W        W99887  16.887   9.793   2.889
31494W        W99888  42.475  38.824  13.091
31495W        W99889  35.062  42.004   4.092
31496W        W99890   7.843  24.708   0.768
31497W        W99891  30.987  12.713   1.677
31498W        W99892  16.733  39.768  13.042
31499W        W99893  13.808  43.241  12.460
31500W        W99894  26.173  14.846   0.407
31501W        W99895  44.886   7.610   0.471
31502W        W99896  40.811  23.608   2.449
31503W        W99897  24.404   3.985  12.309
31504W        W99898   8.962  30.511   2.281
31505W        W99899  37.331  25.813   5.012
31506W        W99900  38.353  34.582  10.914
31507W        W99901  31.015   5.836   3.194
31508W        W99902   9.193   5.865  11.935
31509W        W99903  20.606  19.677   4.758
31510W        W99904  38.640  41.838  12.476
31511W        W99905  31.945  17.230  13.360
31512W        W99906   1.221   0.333  12.545
31513W        W99907  37.571  31.000   1.020
31514W        W99908  13.750   9.791   1.290
31515W        W99909  31.443  28.422   3.842
31516W        W99910  23.819  29.266   0.230
31517W        W99911  28.498  25.330   2.362
31518W        W99912  32.581  28.044  10.099
31519W        W99913  37.475  36.114   2.918
31520W        W99914  12.236  22.453   1.389
31521W        W99915  34.679  26.980   3.180
31522W        W99916  32.583  33.018   1.574
31523W        W99917  36.322  19.025  13.397
31524W        W99918  30.913  40.395  13.910
31525W        W99919   5.825   2.207  11.831
31526W        W99920  21.061   3.911  13.298
31527W        W99921  17.281  20.268   0.576
31528W        W99922  30.993   1.795  12.538
31529W        W99923  10.227  16.225  11.179
31530W        W99924  17.690  16.805  12.415
31531W        W99925  17.882  39.835   1.533
31532W        W99926   1.064  12.316  13.013
31533W        W99927  15.867  38.554   1.881
31534W        W99928   2.259   5.416  12.453
31535W        W99929  13.781  25.652  10.713
31536W        W99930  13.634  41.779  12.237
31537W        W99931  14.356   6.655   0.774
31538W        W99932  11.465   2.307   1.205
31539W        W99933  43.538  20.131   4.122
31540W        W99934   7.297  41.503  11.593
31541W        W99935  23.271  29.462   3.322
31542W        W99936  18.057  15.287  14.281
31543W        W99937  11.172  13.103   1.512
31544W        W99938  28.702   1.298   1.478
31545W        W99939   1.227  20.278   2.801
31546W        W99940  32.681   2.757   2.484
31547W        W99941  32.152  39.018  14.817
31548W        W99942  29.266   9.327  14.411
31549W        W99943  40.516  28.726  14.410
31550W        W99944  41.044  27.340  14.975
31551W        W99945  10.956  18.576   1.391
31552W        W99946  43.998  20.103   2.184
31553W        W99947   2.283  24.542  13.560
31554W        W99948   2.788   8.442  14.413
31555W        W99949  13.290  17.658   3.697
31556W        W99950  30.235  25.739  13.929
31557W        W99951  12.219   1.231  11.562
31558W        W99952  20.638  15.613  14.749
31559W        W99953  12.293  12.231   2.101
31560W        W99954  24.473  17.088  14.034
31561W        W99955  33.126   7.830   4.507
31562W        W99956  10.142   7.727   3.168
31563W        W99957  21.028  16.206  13.880
31564W        W99958  26.077  39.359  11.994
31565W        W99959  29.374  11.163  14.799
31566W        W99960  21.782   4.527   3.575
31567W        W99961  21.592   3.011  13.854
31568W        W99962  19.858  28.703   1.302
31569W        W99963  31.424   5.985  14.328
31570W        W99964  35.982  26.493  13.071
31571W        W99965  25.977  43.826   3.178
31572W        W99966   8.252  34.440   0.413
31573W        W99967  43.865   4.344  13.372
31574W        W99968  20.014  38.111   3.281
31575W        W99969   9.890  32.120   0.415
31576W        W99970  44.430  12.392  12.651
31577W        W99971  29.956  44.442  12.936
31578W        W99972  19.258   2.206  11.256
31579W        W99973  36.892  20.696  10.749
31580W        W99974  22.515  28.856  13.304
31581W        W99975   8.197  10.788   2.876
31582W        W99976  12.053  26.120  10.633
31583W        W99977   2.491  13.837   3.597
31584W        W99978  44.876  32.844   2.789
31585W        W99979  18.521  40.661   2.301
31586W        W99980  27.039  39.019  14.919
31587W        W99981  32.454  12.986   4.745
31588W        W99982  36.336  10.629   2.825
31589W        W99983  43.389  14.246   3.830
31590W        W99984  11.701  36.281  13.045
31591W        W99985   0.351   5.443   3.193
31592W        W99986  41.974  10.389  11.636
31593W        W99987  26.018  41.542   2.406
31594W        W99988  31.431   0.478  14.004
31595W        W99989   1.979  43.355  13.364
31596W        W99990  28.635  22.667  13.583
31597W        W99991   4.904  30.955   0.893
31598W        W99992  32.910  20.064  13.807
31599W        W99993  12.244  20.360  12.458
31600W        W99994  35.625  41.702   1.381
31601W        W99995  13.646  35.036   2.276
31602W        W99996  22.918   1.375  11.530
31603W        W99997  13.925  10.312  14.466
31604W        W99998  29.685   1.087  13.639
31605W        W99999   0.334  25.309  14.470
31606W        W    0  42.795  24.694   4.552
31607W        W    1   6.918   6.282  10.124
31608W        W    2  26.976  39.264   1.989
31609W        W    3  17.166  25.082   0.524
31610W        W    4  39.186  39.325   0.765
31611W        W    5  21.256   5.664   0.779
31612W        W    6  33.550  13.559  13.597
31613W        W    7   2.410  43.077   0.848
31614W        W    8  19.882  13.892   0.056
31615W        W    9  13.233  40.178   2.196
31616W        W   10  30.488  39.948   2.308
31617W        W   11  16.213   2.756   2.810
31618W        W   12  39.430  10.357  12.552
31619W        W   13  33.491  14.628   0.271
31620W        W   14  18.355  21.167   5.005
31621W        W   15  32.623  26.690  14.027
31622W        W   16  37.535   3.014   4.126
31623W        W   17  23.626  34.124  13.787
31624W        W   18  20.298  27.035   2.305
31625W        W   19  10.264   5.182  12.406
31626W        W   20   8.399  43.772   2.622
31627W        W   21  41.779  15.800   3.922
31628W        W   22  13.102  26.646  12.435
31629W        W   23  38.923  11.240   1.737
31630W        W   24  25.705   4.788  12.399
31631W        W   25  24.481  40.467  13.306
31632W        W   26   7.210  30.472  13.562
31633W        W   27  43.884  11.565   3.804
31634W        W   28   5.284  38.367  14.543
31635W        W   29   2.375   3.378   3.599
31636W        W   30   5.881  32.891   0.318
31637W        W   31  28.024  17.108  11.382
31638W        W   32  18.127  26.158   0.889
31639W        W   33  13.418   4.330  10.712
31640W        W   34   2.261  41.795   1.445
31641W        W   35  20.271  44.459  12.111
31642W        W   36  42.333  36.925   2.804
31643W        W   37  15.329   8.985  10.349
31644W        W   38  43.771  31.593   0.881
31645W        W   39  36.237  26.622   2.342
31646W        W   40   4.939  21.308   3.827
31647W        W   41   8.823  34.608   3.584
31648W        W   42  41.876  21.982  13.202
31649W        W   43   7.644  10.817  11.450
31650W        W   44  33.505  39.332   4.341
31651W        W   45  38.434  11.604   3.453
31652W        W   46  13.969  33.993   0.250
31653W        W   47  43.458  12.864  14.543
31654W        W   48  36.137  43.527  13.883
31655W        W   49  21.916  10.649   2.781
31656W        W   50   1.518   7.275  12.030
31657W        W   51  35.480  33.829   2.420
31658W        W   52   4.137   8.910   4.561
31659W        W   53  18.583  18.744  13.117
31660W        W   54  26.242  14.505   3.229
31661W        W   55  44.920  43.469  11.748
31662W        W   56  23.992  17.580   4.498
31663W        W   57  44.334  23.577   2.616
31664W        W   58  15.906  19.827   1.698
31665W        W   59   7.764  15.298  12.895
31666W        W   60  28.045  25.892   4.701
31667W        W   61  34.941   2.137   0.862
31668W        W   62  27.473  38.619   2.174
31669W        W   63  40.311  43.463  10.643
31670W        W   64  28.177   6.773   3.644
31671W        W   65   4.199  32.775   0.702
31672W        W   66  10.150  26.413   0.350
31673W        W   67   6.375  40.764  10.913
31674W        W   68  40.380  18.177  14.444
31675W        W   69  33.117  21.725   4.180
31676W        W   70  21.294  35.954   0.940
31677W        W   71  19.747  11.619  12.426
31678W        W   72   7.962   4.361   4.052
31679W        W   73  34.207  15.663  11.522
31680W        W   74  36.181  36.073  11.475
31681W        W   75  21.839   0.267   1.922
31682W        W   76  40.108  22.995  11.476
31683W        W   77  39.575  18.648   4.846
31684W        W   78  39.892  22.661  13.266
31685W        W   79   0.953   9.604   1.840
31686W        W   80  31.152  35.433   4.670
31687W        W   81  32.365  43.391   3.148
31688W        W   82  19.851  14.225   2.656
31689W        W   83  28.419  16.032  14.810
31690W        W   84  27.894  24.335  11.692
31691W        W   85   4.648  23.204  14.165
31692W        W   86  10.008  21.262  10.211
31693W        W   87  13.103  31.650  13.404
31694W        W   88  34.817  44.416   4.508
31695W        W   89  38.916  44.432  11.765
31696W        W   90  41.607  29.118   4.086
31697W        W   91  16.312  37.801  14.534
31698W        W   92  20.148  42.190  10.683
31699W        W   93  11.410  15.844   0.774
31700W        W   94  31.004  28.955  13.271
31701W        W   95  25.596  12.616   0.468
31702W        W   96  35.124  44.739   4.205
31703W        W   97   6.759  11.941  11.655
31704W        W   98   4.234  39.472   0.714
31705W        W   99  39.496  30.462  14.079
31706W        W  100   9.884  13.165  12.790
31707W        W  101   0.837   7.694  13.513
31708W        W  102  11.310   7.481  12.039
31709W        W  103  37.388  37.259   1.754
31710W        W  104  22.220  12.210  13.917
31711W        W  105  22.705  23.277  11.197
31712W        W  106  35.115   0.445  12.876
31713W        W  107  27.003  16.152   1.192
31714W        W  108  43.241  33.526  10.794
31715W        W  109  16.418  28.874   3.619
31716W        W  110  17.622  15.059  11.591
31717W        W  111  16.526  14.172   5.018
31718W        W  112   0.725  32.142  14.735
31719W        W  113  28.026  11.929   4.514
31720W        W  114  34.774  26.540   1.197
31721W        W  115  20.681  13.005  10.359
31722W        W  116  44.422  14.812   3.372
31723W        W  117  25.640  38.428   0.069
31724W        W  118  13.174  39.980  12.394
31725W        W  119  21.043  27.585  12.871
31726W        W  120  34.182  15.739   1.972
31727W        W  121  37.078  25.701  11.130
31728W        W  122   7.364  18.562   2.573
31729W        W  123  24.205  40.893   1.425
31730W        W  124  27.683   1.427   3.727
31731W        W  125  32.865  19.996   0.969
31732W        W  126  30.653  36.535   4.743
31733W        W  127   1.518  11.752  10.655
31734W        W  128  41.282  29.059   1.743
31735W        W  129  21.181   8.386  12.939
31736W        W  130   1.995  28.079   0.810
31737W        W  131  36.656  17.197  14.470
31738W        W  132   0.597  22.235   2.107
31739W        W  133   2.370  13.176  12.082
31740W        W  134  14.136  36.856   0.194
31741W        W  135  19.321  40.786   3.543
31742W        W  136  31.773  17.258   5.062
31743W        W  137  31.676  30.980  14.840
31744W        W  138  39.571  20.679  13.990
31745W        W  139  21.828  26.307   3.938
31746W        W  140   4.433  13.242  13.463
31747W        W  141   7.735  22.535   2.901
31748W        W  142  32.004   9.201   0.231
31749W        W  143  22.019   6.939  14.111
31750W        W  144  25.988  10.152   1.289
31751W        W  145  28.167   3.508  14.783
31752W        W  146  20.328  38.907  12.019
31753W        W  147   7.217   7.929   2.654
31754W        W  148  19.769   6.747   4.020
31755W        W  149  38.100  11.672   1.214
31756W        W  150  28.138  12.141   3.513
31757W        W  151  25.921  33.018   1.714
31758W        W  152  35.561   1.357  11.607
31759W        W  153  39.494  37.873   0.081
31760W        W  154   2.797  19.663  14.613
31761W        W  155  22.311   5.666  10.445
31762W        W  156   4.487  22.457   4.595
31763W        W  157  30.668  31.195  11.156
31764W        W  158   4.441  34.349   0.520
31765W        W  159  12.077  14.386   3.092
31766W        W  160   1.091  22.123  12.942
31767W        W  161  19.196  40.936  14.312
31768W        W  162  12.034   3.783   3.812
31769W        W  163  40.814  36.541   2.986
31770W        W  164  26.002   3.437   0.972
31771W        W  165  18.529  18.793   1.323
31772W        W  166  14.449  28.177   3.234
31773W        W  167   3.100  11.802  14.360
31774W        W  168  37.750  28.108  14.703
31775W        W  169  12.728  14.149  14.291
31776W        W  170  39.985  33.985  10.405
31777W        W  171   8.174  33.528  12.935
31778W        W  172   0.732  16.518   2.178
31779W        W  173  11.354  29.608  11.669
31780W        W  174   5.235   8.603  11.781
31781W        W  175  18.348  26.269   1.344
31782W        W  176  20.183  28.950   1.621
31783W        W  177  23.539  10.380   1.287
31784W        W  178  43.890   6.209  12.332
31785W        W  179  14.781   8.967  10.515
31786W        W  180  24.702  39.396  12.298
31787W        W  181  38.260  19.727  12.459
31788W        W  182   2.919   5.257   4.895
31789W        W  183  40.551  29.062   4.212
31790W        W  184  36.221  29.086   2.459
31791W        W  185  30.557   1.464   3.214
31792W        W  186   6.060  36.070  11.194
31793W        W  187  28.168  26.936  13.187
31794W        W  188  29.059  18.096   4.049
31795W        W  189   3.439   7.613   1.714
31796W        W  190  12.744   2.418  14.008
31797W        W  191  15.030   3.879  11.962
31798W        W  192   3.689   3.354   3.806
31799W        W  193  30.529  10.747  10.954
31800W        W  194   0.369   7.919  13.559
31801W        W  195  44.894  38.341  11.674
31802W        W  196  33.847  43.767  11.879
31803W        W  197   8.804   0.392   2.667
31804W        W  198   1.388  36.147  13.484
31805W        W  199  23.048   3.367   4.993
31806W        W  200  13.522  21.624   2.723
31807W        W  201  23.585  30.583  12.834
31808W        W  202  42.851  44.022   4.882
31809W        W  203  29.490  36.439   0.413
31810W        W  204   9.737  38.981   4.343
31811W        W  205  14.738  35.450   0.261
31812W        W  206  34.746   9.779  10.557
31813W        W  207  38.928  15.045   2.574
31814W        W  208  29.469  32.595  13.255
31815W        W  209  17.138  13.652   3.540
31816W        W  210  39.120  25.667   3.861
31817W        W  211  42.852  42.897   4.127
31818W        W  212  14.073  37.796   5.468
31819W        W  213  41.308  37.978   1.264
31820W        W  214  19.535  11.854   1.583
31821W        W  215  30.596  44.969   3.104
31822W        W  216  35.529  43.726  11.082
31823W        W  217  13.857  16.076  13.100
31824W        W  218  28.582  13.432  10.844
31825W        W  219  44.277  32.844   1.641
31826W        W  220   6.551  18.551   2.098
31827W        W  221  28.894  35.839   2.373
31828W        W  222   2.606   0.974  11.198
31829W        W  223  44.811  23.438   0.582
31830W        W  224  26.531  37.721  14.955
31831W        W  225  44.039  29.049  14.532
31832W        W  226   9.170   5.854   4.059
31833W        W  227   8.366   7.800  13.454
31834W        W  228  44.474  19.984   2.388
31835W        W  229   1.499  21.645   0.807
31836W        W  230  23.720  38.607   1.172
31837W        W  231  16.068  33.955   0.213
31838W        W  232  27.052  18.720   4.582
31839W        W  233   7.769  32.952   1.812
31840W        W  234  38.704  24.949  13.363
31841W        W  235  16.279  43.562   1.280
31842W        W  236   0.863   1.960   9.993
31843W        W  237  25.131  36.861   1.229
31844W        W  238  24.936  31.228   1.972
31845W        W  239  14.239  14.670   1.288
31846W        W  240  21.057   5.885  12.896
31847W        W  241  21.203  12.477   0.225
31848W        W  242  35.954  11.090   4.657
31849W        W  243  33.736  43.407   4.439
31850W        W  244  32.425  31.146  14.381
31851W        W  245   5.330  44.684   0.899
31852W        W  246  14.762  21.262   2.654
31853W        W  247  17.867  27.169  12.294
31854W        W  248  42.057  34.044   4.717
31855W        W  249  34.087  14.360   1.251
31856W        W  250  31.498  21.023   1.976
31857W        W  251  24.062  11.868   5.542
31858W        W  252   3.622  25.045  14.207
31859W        W  253   4.140  12.758   5.402
31860W        W  254  17.285   0.562  14.035
31861W        W  255  26.205  25.029   0.785
31862W        W  256  10.089  44.901  13.665
31863W        W  257   2.429  10.328   3.785
31864W        W  258  34.056  34.857   3.746
31865W        W  259  23.679  24.708  12.022
31866W        W  260  30.947  22.029  12.368
31867W        W  261   1.488  43.573   2.664
31868W        W  262   6.726  18.454  10.641
31869W        W  263  34.430  15.397  12.334
31870W        W  264   2.429   1.380   4.627
31871W        W  265  14.891  29.921  12.589
31872W        W  266  22.074  41.008  14.300
31873W        W  267   6.616  19.712   3.939
31874W        W  268  30.185  32.908  14.910
31875W        W  269  16.163  19.338   4.623
31876W        W  270  18.631  34.837   2.725
31877W        W  271   1.920  39.165   0.922
31878W        W  272  18.944  16.215  11.402
31879W        W  273  11.539  19.215  12.983
31880W        W  274  40.286  29.146   2.760
31881W        W  275  20.907  36.008  10.380
31882W        W  276  15.529   6.193   0.947
31883W        W  277  38.845  31.516  11.792
31884W        W  278  30.291  11.225   3.935
31885W        W  279  13.839  15.337   0.278
31886W        W  280  36.928  33.472   4.071
31887W        W  281   6.998  26.455  14.812
31888W        W  282  19.270  16.777  11.615
31889W        W  283  22.522  29.619  10.419
31890W        W  284   7.780  42.094   3.272
31891W        W  285  37.681  40.142   0.864
31892W        W  286  24.320  39.150  11.518
31893W        W  287  27.333   1.734  11.003
31894W        W  288  21.229  29.168   0.874
31895W        W  289  17.551   7.813   2.254
31896W        W  290  10.724   6.291  12.919
31897W        W  291  11.535  20.299  13.127
31898W        W  292  35.107  13.338   0.108
31899W        W  293   9.621  21.465   0.992
31900W        W  294   1.712  18.225  11.401
31901W        W  295  16.314  17.477  14.014
31902W        W  296  31.053   1.404  12.880
31903W        W  297  26.286  23.675   4.304
31904W        W  298  22.794  26.158   2.317
31905W        W  299  15.374  10.598  14.395
31906W        W  300   6.787   1.960  13.877
31907W        W  301  34.176  24.198  12.507
31908W        W  302   0.677  19.730  10.426
31909W        W  303  13.217   1.962   1.186
31910W        W  304  22.170  22.181   3.237
31911W        W  305   7.429   5.624  13.005
31912W        W  306  44.828  26.404  11.137
31913W        W  307   5.176  16.184   0.671
31914W        W  308  15.207  14.909  14.712
31915W        W  309  31.732  20.348  13.433
31916W        W  310  21.618  34.395   0.994
31917W        W  311  29.945  14.329  12.471
31918W        W  312  37.539  16.237  10.828
31919W        W  313  28.625  28.985   4.152
31920W        W  314  35.623  30.641  13.987
31921W        W  315   8.514  14.698   2.622
31922W        W  316   0.847  26.642  14.088
31923W        W  317   3.629  28.155  13.515
31924W        W  318  14.628  12.624  13.777
31925W        W  319   3.893   4.547  14.880
31926W        W  320  22.789  16.265   2.710
31927W        W  321  33.368  11.842   3.722
31928W        W  322   2.191   6.551  14.847
31929W        W  323  36.102  29.007  11.529
31930W        W  324   4.068   5.834  12.279
31931W        W  325  15.562  19.291  13.547
31932W        W  326  42.719   4.431  11.223
31933W        W  327   4.972   3.167   2.364
31934W        W  328   9.031  33.295   2.371
31935W        W  329   1.294   9.247  12.142
31936W        W  330  31.145  20.102   0.467
31937W        W  331  18.262  15.670   0.777
31938W        W  332  12.341  33.424  13.992
31939W        W  333  34.991  40.538   3.747
31940W        W  334  36.901   8.791   1.670
31941W        W  335  26.448  41.945  10.046
31942W        W  336  34.655   5.415   4.604
31943W        W  337   3.954  16.966  10.748
31944W        W  338  38.958   4.724  11.464
31945W        W  339   0.417  31.406  13.053
31946W        W  340   1.364  10.638   4.267
31947W        W  341  15.338  24.709   4.942
31948W        W  342  29.591  27.080  14.317
31949W        W  343  39.838  43.989  11.527
31950W        W  344  15.920  23.353   2.218
31951W        W  345  40.530  15.158  14.745
31952W        W  346  20.708  43.700  12.305
31953W        W  347  31.306  38.164   3.700
31954W        W  348  25.802  25.812   1.430
31955W        W  349  17.613  39.426   1.677
31956W        W  350  44.544   3.494  13.398
31957W        W  351  27.876  44.801  11.369
31958W        W  352  27.164   5.415  13.871
31959W        W  353   4.785  15.321   1.885
31960W        W  354   3.810  41.894   4.065
31961W        W  355   7.294  14.028  11.198
31962W        W  356   2.980  18.148   4.552
31963W        W  357  23.617   2.769   4.596
31964W        W  358  44.411  18.198  13.760
31965W        W  359   5.808  35.127   0.340
31966W        W  360  28.624  27.949   0.823
31967W        W  361  12.801   0.028   2.657
31968W        W  362  26.226  30.935   1.455
31969W        W  363  31.585  20.352   0.021
31970W        W  364  38.957   8.822  13.899
31971W        W  365   5.155  33.172   2.314
31972W        W  366   3.678  38.981  13.444
31973W        W  367   2.794  35.911   4.168
31974W        W  368  27.997  18.498  13.024
31975W        W  369   2.217   5.899   4.252
31976W        W  370  28.260  37.383  13.854
31977W        W  371  13.985   6.892  11.680
31978W        W  372  41.809  30.503   1.045
31979W        W  373  28.046   5.033  11.671
31980W        W  374   7.641  41.297   4.108
31981W        W  375  28.696  29.146   0.258
31982W        W  376  18.851  41.089  10.965
31983W        W  377   4.784  19.500  12.231
31984W        W  378  28.134  26.986  10.439
31985W        W  379  20.812   8.066   1.948
31986W        W  380  39.778  21.527   3.671
31987W        W  381  34.990  20.231  12.074
31988W        W  382  18.120  13.785   0.933
31989W        W  383  19.316  27.854   0.450
31990W        W  384  15.088  22.707   2.151
31991W        W  385  31.893   4.004  14.383
31992W        W  386  35.963  12.270  10.689
31993W        W  387  42.943  13.883   4.816
31994W        W  388  35.020  11.742   2.309
31995W        W  389   1.923   7.229  13.601
31996W        W  390  10.852  27.182  12.464
31997W        W  391   4.413  17.595   0.750
31998W        W  392  36.542  20.279  10.781
31999W        W  393   5.749  25.748  11.888
32000W        W  394  28.426  19.802   0.452
32001W        W  395  41.894  14.462   0.003
32002W        W  396  14.368  19.297   0.735
32003W        W  397  21.207  16.737  11.962
32004W        W  398  22.233  11.299   4.535
32005W        W  399  19.758  10.666  11.137
32006W        W  400  30.512  44.239   1.844
32007W        W  401  35.705   7.067  14.636
32008W        W  402  34.895   7.203   2.203
32009W        W  403  27.074   2.402  11.585
32010W        W  404  20.464   4.941  13.524
32011W        W  405  20.619  18.018  11.152
32012W        W  406  26.443  35.415   0.637
32013W        W  407  10.510  39.277   1.097
32014W        W  408  35.666  36.492   4.238
32015W        W  409  36.990  34.521  10.663
32016W        W  410   6.678   5.785   2.864
32017W        W  411  31.543  27.434  13.998
32018W        W  412  43.891   5.454   0.920
32019W        W  413  14.087  41.933   3.604
32020W        W  414  12.561  14.677  14.077
32021W        W  415  22.149  19.039  13.088
32022W        W  416  44.891  34.879   2.804
32023W        W  417   0.387   0.374   1.249
32024W        W  418  33.246   3.906  11.551
32025W        W  419   2.523  18.097   3.687
32026W        W  420   3.682   0.987   3.687
32027W        W  421  12.899   3.835  13.966
32028W        W  422   3.448  14.674  14.358
32029W        W  423   9.920  13.158   2.454
32030W        W  424  40.488  27.517  13.831
32031W        W  425  33.882  19.722   4.172
32032W        W  426  19.556  16.915   0.851
32033W        W  427  37.567  25.602   2.382
32034W        W  428  11.057  28.090   4.495
32035W        W  429  27.581  25.027  11.048
32036W        W  430  22.070  30.852   2.228
32037W        W  431  34.143   5.908  12.753
32038W        W  432   4.232  20.201   1.843
32039W        W  433  34.876  34.114  10.515
32040W        W  434  20.560  21.921  14.770
32041W        W  435   1.206  24.962   3.132
32042W        W  436  43.821  20.346  14.716
32043W        W  437  36.662  40.498  13.044
32044W        W  438   6.551  30.098   5.062
32045W        W  439   8.780   5.583   3.334
32046W        W  440  27.573  12.755  13.176
32047W        W  441  31.794  16.258  14.947
32048W        W  442  44.885  13.897  13.637
32049W        W  443  12.854  27.298  10.709
32050W        W  444  15.672  28.522   0.487
32051W        W  445  31.335  33.118   4.513
32052W        W  446  24.200  44.331   2.920
32053W        W  447  15.286  23.563   3.398
32054W        W  448  34.993  41.302  11.625
32055W        W  449  35.502  21.302  13.464
32056W        W  450  39.367  26.064   1.666
32057W        W  451  37.488  28.194   2.840
32058W        W  452   7.742  12.662   0.164
32059W        W  453  24.351  28.108  11.675
32060W        W  454   0.831   4.954   2.779
32061W        W  455   6.914  17.997  13.858
32062W        W  456   9.773  38.284  11.049
32063W        W  457  12.723   0.523   1.599
32064W        W  458  33.940  14.664   3.871
32065W        W  459  31.544  31.975   3.232
32066W        W  460   9.912  21.154  13.588
32067W        W  461  22.973   2.431   2.939
32068W        W  462  23.053  39.474  14.284
32069W        W  463  16.850  18.659   1.353
32070W        W  464  27.117  17.742  14.269
32071W        W  465   2.342  14.083   2.001
32072W        W  466  20.999  17.493   0.641
32073W        W  467  28.394  15.228   4.343
32074W        W  468  19.191  26.429  11.958
32075W        W  469   8.330  20.061  12.283
32076W        W  470  43.131  13.586  13.318
32077W        W  471  40.078   2.955   3.795
32078W        W  472  20.514   8.338   0.646
32079W        W  473  17.030  18.142   1.643
32080W        W  474  12.995   2.905   1.712
32081W        W  475  43.491  25.205   0.707
32082W        W  476  37.501  31.855   4.501
32083W        W  477   9.711  20.054   1.136
32084W        W  478   5.848  21.718   3.478
32085W        W  479  28.280  15.257   2.766
32086W        W  480  23.144  19.992  14.769
32087W        W  481  16.054  25.248   2.414
32088W        W  482   1.411   9.064  11.051
32089W        W  483  42.728  21.168   2.291
32090W        W  484  40.221   5.200   3.266
32091W        W  485   2.241   8.605  11.283
32092W        W  486  12.361   4.957  10.457
32093W        W  487  20.080  30.033  10.838
32094W        W  488  33.120  23.525   2.300
32095W        W  489  26.753   3.784  14.980
32096W        W  490  24.101  12.366  13.950
32097W        W  491  21.264  17.694  10.715
32098W        W  492  14.303   9.216   9.969
32099W        W  493  43.986  34.816  14.315
32100W        W  494   3.974   0.197   2.800
32101W        W  495  24.002  24.966  13.505
32102W        W  496   0.912  23.194  10.606
32103W        W  497  41.992  32.921   0.722
32104W        W  498  31.829   9.167   2.356
32105W        W  499  19.289  11.734  10.760
32106W        W  500   0.111   1.832   0.363
32107W        W  501  20.691  31.985  14.845
32108W        W  502  12.332  26.592  13.892
32109W        W  503  21.046  18.152  13.974
32110W        W  504   4.910   6.571   4.707
32111W        W  505   6.370   8.048  12.545
32112W        W  506  13.278  10.294   1.321
32113W        W  507  44.898  25.042   4.056
32114W        W  508  34.983   7.132   1.669
32115W        W  509  25.478  44.059  12.406
32116W        W  510   7.683  33.115  11.836
32117W        W  511  10.714  42.199   0.703
32118W        W  512  21.907  35.410   0.281
32119W        W  513   9.559   0.412  13.129
32120W        W  514  15.091  12.762  11.548
32121W        W  515  17.399  34.956   4.180
32122W        W  516  31.347  10.867  14.595
32123W        W  517  36.673  26.276   4.326
32124W        W  518   1.722   3.997  14.136
32125W        W  519  41.959  18.999  14.850
32126W        W  520  22.437  15.953   2.290
32127W        W  521  28.707  38.794   4.572
32128W        W  522   3.126  10.691  11.548
32129W        W  523  36.306  25.242   2.701
32130W        W  524   9.570   7.341   0.829
32131W        W  525  19.949  14.865   0.288
32132W        W  526  28.989   9.606   1.836
32133W        W  527  39.402  36.170   3.160
32134W        W  528  37.530  42.797  12.659
32135W        W  529  26.706  10.882   4.468
32136W        W  530   6.160  30.095  12.848
32137W        W  531   3.961  14.790  11.266
32138W        W  532  11.547   3.621   3.763
32139W        W  533   9.390   0.339  12.085
32140W        W  534  22.042  41.014  10.901
32141W        W  535  36.275  31.844  10.673
32142W        W  536  35.205  28.894  10.315
32143W        W  537  34.083  26.042  11.191
32144W        W  538   8.137  34.938   0.276
32145W        W  539  19.561  33.922  11.674
32146W        W  540  16.030   5.372  11.989
32147W        W  541  11.140  13.418  12.995
32148W        W  542  21.287  39.451   3.110
32149W        W  543   5.916  27.459  13.417
32150W        W  544  44.076  35.431  11.691
32151W        W  545  17.804  11.695  13.049
32152W        W  546  19.688  11.555  14.518
32153W        W  547  10.905  30.085  13.118
32154W        W  548  25.668   0.387   3.782
32155W        W  549   5.291  12.608  11.163
32156W        W  550  39.094  42.823   3.319
32157W        W  551  20.294  43.059  13.389
32158W        W  552  27.447  20.270   0.922
32159W        W  553  26.353  35.105  11.111
32160W        W  554  30.439  34.177   1.030
32161W        W  555  16.523   3.996  14.110
32162W        W  556  16.154  23.686  14.728
32163W        W  557  11.272  24.449   4.005
32164W        W  558  20.887  17.156   4.582
32165W        W  559  39.027  36.318  11.854
32166W        W  560   1.286  43.983   3.495
32167W        W  561  29.013  14.046  12.217
32168W        W  562  27.194   5.185  14.349
32169W        W  563  27.659  37.018   4.404
32170W        W  564  15.805  44.561   2.664
32171W        W  565  42.969  29.843  14.580
32172W        W  566  37.675  16.178  11.733
32173W        W  567   4.986  22.672   4.561
32174W        W  568  21.794  22.527   3.136
32175W        W  569  29.082  11.372   1.191
32176W        W  570  12.757  29.952  10.406
32177W        W  571  33.410   8.150  12.069
32178W        W  572   0.113   7.966   2.346
32179W        W  573   2.465  33.004   0.999
32180W        W  574  21.665  44.161   1.668
32181W        W  575  30.110  12.297  13.377
32182W        W  576  32.539   9.037  11.695
32183W        W  577  39.270   6.793  14.099
32184W        W  578  12.516  36.536   2.846
32185W        W  579  19.782   0.317  10.538
32186W        W  580   2.420  15.468  10.957
32187W        W  581   2.269   1.484   1.013
32188W        W  582  22.174   3.961   1.607
32189W        W  583  20.230  16.169  14.500
32190W        W  584  27.650  18.523  14.917
32191W        W  585  42.543  40.041   1.248
32192W        W  586  29.491   8.348   0.985
32193W        W  587  19.061  12.050   1.658
32194W        W  588  24.110   7.074   2.794
32195W        W  589  42.727  40.763  10.666
32196W        W  590  44.824  36.404  13.951
32197W        W  591   2.908   9.512  14.454
32198W        W  592  42.099  16.568  11.903
32199W        W  593  34.952  24.912  14.741
32200W        W  594  17.594   0.372   3.639
32201W        W  595  12.385  19.629   1.881
32202W        W  596  10.236   5.585   1.229
32203W        W  597  37.980  13.508   1.289
32204W        W  598  24.036   5.409   3.643
32205W        W  599  29.637  33.211   1.652
32206W        W  600   3.747  44.212  12.191
32207W        W  601  43.419  40.843  13.199
32208W        W  602  26.251   0.562   4.663
32209W        W  603  30.026  15.879  11.555
32210W        W  604  24.101  19.549   5.010
32211W        W  605  18.812   7.285   2.382
32212W        W  606  17.744  22.615   3.682
32213W        W  607  18.110   5.328  14.505
32214W        W  608  41.367  29.136   2.682
32215W        W  609  42.513  31.885   3.682
32216W        W  610  34.358  26.924  13.540
32217W        W  611  27.808  35.801   1.835
32218W        W  612  21.349  11.784   3.546
32219W        W  613  17.930   8.364  10.213
32220W        W  614  18.179  14.098   1.770
32221W        W  615  11.756  12.107   0.117
32222W        W  616  34.913  11.434   1.879
32223W        W  617   1.574  34.353   1.493
32224W        W  618   8.429   1.717   3.152
32225W        W  619  12.723   7.625  10.432
32226W        W  620  37.391  19.865   1.577
32227W        W  621  10.296   8.852  14.474
32228W        W  622  24.043   4.780   2.773
32229W        W  623   3.712  24.985  11.753
32230W        W  624  38.532   5.479  13.034
32231W        W  625  12.376   8.305   1.804
32232W        W  626  44.502   3.977   2.151
32233W        W  627  35.885  35.623  13.627
32234W        W  628  34.873   8.808  12.017
32235W        W  629  36.861  10.355  14.923
32236W        W  630  24.654   9.866   0.124
32237W        W  631  43.778  34.356   0.686
32238W        W  632  21.239  21.549   1.709
32239W        W  633  37.885  43.292  14.040
32240W        W  634  14.300   2.050   0.523
32241W        W  635  17.809  11.235   3.760
32242W        W  636  13.871  23.696  11.381
32243W        W  637  16.085   1.063  13.877
32244W        W  638  25.986  23.550   1.926
32245W        W  639  31.752   8.962  10.650
32246W        W  640  28.118   4.846   2.150
32247W        W  641  11.184  30.174  13.548
32248W        W  642   5.973  37.033  12.129
32249W        W  643   9.124   9.381   2.000
32250W        W  644   4.544  30.826  10.464
32251W        W  645  26.293  35.334   3.874
32252W        W  646   3.738  33.168   1.393
32253W        W  647  36.989  38.910   0.910
32254W        W  648  34.902  34.515   4.361
32255W        W  649  15.552  31.928  14.770
32256W        W  650   2.563  22.112   4.488
32257W        W  651  33.517  25.469  10.734
32258W        W  652  34.428  16.116   3.964
32259W        W  653  29.654  38.535  12.090
32260W        W  654  40.999  31.663   0.912
32261W        W  655  22.488   3.708  12.466
32262W        W  656  33.080  28.438  12.935
32263W        W  657  16.447  28.262  11.080
32264W        W  658  18.311  22.467  12.536
32265W        W  659  24.685  29.325  11.638
32266W        W  660  33.126   4.727  13.961
32267W        W  661   5.609  40.276  11.242
32268W        W  662  33.673   6.882  11.186
32269W        W  663   2.806  29.067   2.460
32270W        W  664  30.263   1.458   3.661
32271W        W  665  18.014  22.040   2.096
32272W        W  666  35.563  23.123  11.991
32273W        W  667  44.653   3.407  14.728
32274W        W  668  30.501  33.475   1.870
32275W        W  669  24.928  36.843  13.907
32276W        W  670  13.044   2.421   3.866
32277W        W  671  30.978  44.196  11.140
32278W        W  672  13.080   7.708   0.790
32279W        W  673  32.009  44.435   3.293
32280W        W  674   7.090  25.230  13.577
32281W        W  675  44.843   0.585  11.086
32282W        W  676  29.733  17.602   2.713
32283W        W  677   5.922  26.540   4.546
32284W        W  678   2.396  43.921  14.627
32285W        W  679   3.094   7.223   2.301
32286W        W  680  44.846  11.078  11.123
32287W        W  681  32.480   3.989   0.981
32288W        W  682  27.415   1.517   4.983
32289W        W  683  22.587  23.467  14.319
32290W        W  684   2.769  18.535  11.577
32291W        W  685  15.685  35.624   2.198
32292W        W  686   6.924  30.452   3.713
32293W        W  687   8.427  25.686   3.732
32294W        W  688  17.924  23.177   3.639
32295W        W  689   8.630   3.430   1.381
32296W        W  690  35.490  44.392   1.942
32297W        W  691  20.330   9.916  12.846
32298W        W  692  32.834  13.033  13.303
32299W        W  693  43.761  10.139   3.950
32300W        W  694  37.630  30.109   0.969
32301W        W  695  22.170   1.871  11.652
32302W        W  696   4.141  42.319  12.659
32303W        W  697  42.736  16.207  14.846
32304W        W  698  15.392  36.011  11.010
32305W        W  699  44.887   4.888   4.711
32306W        W  700   7.656  22.525  14.944
32307W        W  701  12.261  44.256   0.339
32308W        W  702  14.302  32.051  14.423
32309W        W  703   6.250  17.487  11.559
32310W        W  704  25.491  22.049   2.446
32311W        W  705  15.951  20.221  12.601
32312W        W  706  32.895   0.172  14.153
32313W        W  707  35.338   7.338   2.450
32314W        W  708  43.590  37.562   3.503
32315W        W  709  36.028  13.805   1.875
32316W        W  710  12.701  43.060   3.301
32317W        W  711  42.366  19.294   3.228
32318W        W  712  23.427   8.641   1.820
32319W        W  713  21.039  23.500   4.162
32320W        W  714  24.821  24.550  11.581
32321W        W  715  12.496   3.951  10.673
32322W        W  716  34.187  10.235   1.022
32323W        W  717  14.085  28.603   3.263
32324W        W  718  14.645  23.656  11.387
32325W        W  719   8.669  32.550  13.463
32326W        W  720  16.258  43.232  11.431
32327W        W  721  15.381  14.422  10.671
32328W        W  722  12.168  10.473   4.125
32329W        W  723  30.428  41.802   2.741
32330W        W  724  20.088  25.025  10.740
32331W        W  725  26.006   3.185   0.438
32332W        W  726  29.924  15.855   1.910
32333W        W  727  26.907  44.282  11.959
32334W        W  728   7.404  28.424   0.868
32335W        W  729  33.374  10.858  10.366
32336W        W  730  30.902  11.053   4.220
32337W        W  731  23.623   7.301   3.923
32338W        W  732  25.696  20.684   2.882
32339W        W  733  43.414   7.562  12.250
32340W        W  734  39.957  23.968  12.826
32341W        W  735   6.413  28.405   2.829
32342W        W  736  44.825  21.637  13.823
32343W        W  737  39.821  12.747  14.956
32344W        W  738   8.892   9.165   2.673
32345W        W  739  41.534   3.282  13.052
32346W        W  740  26.110   9.639   3.623
32347W        W  741  29.698  39.110  12.973
32348W        W  742  21.523  29.206   1.540
32349W        W  743  29.966   0.742  13.375
32350W        W  744  21.529  16.782  13.303
32351W        W  745  13.581  37.384  11.669
32352W        W  746   6.414  42.094   2.190
32353W        W  747   1.847  16.612  14.706
32354W        W  748  43.022  16.113  14.295
32355W        W  749   0.677   1.272   2.844
32356W        W  750   2.901  19.039   0.428
32357W        W  751  32.919  40.328   2.415
32358W        W  752  21.516   6.350  12.497
32359W        W  753   5.937  35.996   3.184
32360W        W  754  26.144  42.109   0.885
32361W        W  755  21.203   6.772   4.068
32362W        W  756  26.998  21.963   3.334
32363W        W  757   6.200   7.960   1.361
32364W        W  758  19.671  38.523  13.005
32365W        W  759  30.722   8.005  12.548
32366W        W  760  30.052  25.472  12.471
32367W        W  761  30.056   0.332  10.898
32368W        W  762  16.645  18.490   1.785
32369W        W  763  23.710   8.333  11.560
32370W        W  764  25.241  41.109  11.459
32371W        W  765  33.189  40.939  14.798
32372W        W  766  21.240  38.173   2.979
32373W        W  767  23.985  44.097   4.662
32374W        W  768  37.959  15.780   3.745
32375W        W  769  36.945   2.883   3.120
32376W        W  770  20.947  27.977   2.316
32377W        W  771  14.195  25.674   0.245
32378W        W  772  39.572  31.260   3.277
32379W        W  773  34.851  16.796  14.833
32380W        W  774  19.172  11.257   2.629
32381W        W  775  33.267  15.617  11.830
32382W        W  776  21.126  37.404  11.593
32383W        W  777  35.898  38.805  11.526
32384W        W  778  30.706  37.817  13.547
32385W        W  779   3.938  44.356   2.217
32386W        W  780   5.628  25.598   2.628
32387W        W  781  24.677  35.061  13.329
32388W        W  782  44.980  33.997   1.736
32389W        W  783  34.486  10.403   2.637
32390W        W  784  37.842  25.477  10.655
32391W        W  785   2.732  10.933   1.397
32392W        W  786  24.630  35.477   4.524
32393W        W  787  27.433   2.873   2.583
32394W        W  788   3.958   5.732  10.508
32395W        W  789   6.188  28.120  13.549
32396W        W  790  23.398  40.609  13.007
32397W        W  791  39.028  17.309  10.642
32398W        W  792  24.588  25.497  12.940
32399W        W  793  35.419  40.542  11.760
32400W        W  794   3.247  25.241   2.354
32401W        W  795  23.177  12.433  12.821
32402W        W  796  13.182  20.519  13.979
32403W        W  797  18.648  22.681  11.620
32404W        W  798  43.032  29.535   2.371
32405W        W  799  26.994  15.276   4.189
32406W        W  800   4.444  26.919   9.427
32407W        W  801  40.311  25.143   1.720
32408W        W  802  34.891  40.372  10.672
32409W        W  803  16.695   6.495   3.432
32410W        W  804   0.454  28.447   0.383
32411W        W  805  42.947  17.120  10.480
32412W        W  806  13.581  34.563  14.487
32413W        W  807  11.338  29.544  14.802
32414W        W  808  15.044  23.032   3.208
32415W        W  809  37.152  31.649  10.651
32416W        W  810  41.398  34.426   2.130
32417W        W  811   1.869  26.041  10.750
32418W        W  812  32.677  27.961   0.862
32419W        W  813   7.405   3.970  14.394
32420W        W  814  42.210  29.957  11.237
32421W        W  815  31.034  31.134  12.427
32422W        W  816  42.250  11.347  13.856
32423W        W  817  32.523  32.966  13.336
32424W        W  818  23.795  22.478  14.428
32425W        W  819   2.540  40.069   1.896
32426W        W  820   2.861  21.570   4.801
32427W        W  821  11.325  14.736   3.050
32428W        W  822   6.609   7.792   0.272
32429W        W  823  28.087   6.049  12.983
32430W        W  824  20.458  15.037  11.259
32431W        W  825   1.337   7.506   3.944
32432W        W  826  12.877  11.285   2.229
32433W        W  827  10.229  27.617  11.767
32434W        W  828  10.880  10.187  12.447
32435W        W  829  26.489  20.752   2.074
32436W        W  830  26.148   7.697   3.779
32437W        W  831  11.317   7.501   4.637
32438W        W  832  39.114  39.923  13.551
32439W        W  833  32.017  14.600  12.186
32440W        W  834  15.183  22.154   3.359
32441W        W  835   6.643  25.661   2.887
32442W        W  836  18.145  19.200   5.267
32443W        W  837  16.753   1.373  14.848
32444W        W  838   9.365   0.036   4.137
32445W        W  839  42.250  27.214  11.706
32446W        W  840  33.645  13.061   1.774
32447W        W  841   4.478  26.945  13.497
32448W        W  842  16.672  14.784  10.686
32449W        W  843  27.636   1.353   0.207
32450W        W  844  26.009  17.069   3.301
32451W        W  845  34.845  34.521   0.117
32452W        W  846  31.293  31.637  11.608
32453W        W  847  30.997  19.843   1.784
32454W        W  848  32.871  13.290  14.962
32455W        W  849   4.020  11.371   3.171
32456W        W  850  25.093  28.586   3.268
32457W        W  851   6.370   0.481  12.095
32458W        W  852  20.781  19.136  11.600
32459W        W  853  25.266  14.304   2.936
32460W        W  854  43.826  39.499   3.615
32461W        W  855   1.919  44.314  14.834
32462W        W  856  31.989  26.163   3.878
32463W        W  857  18.138  30.652   1.169
32464W        W  858   1.546  16.690  10.572
32465W        W  859   1.747   2.143  12.781
32466W        W  860  25.576  24.751  13.846
32467W        W  861   5.335  14.365   0.350
32468W        W  862  34.678   4.744  10.756
32469W        W  863  15.668  38.278  13.975
32470W        W  864  24.565  42.224  14.405
32471W        W  865  32.913  41.932   4.195
32472W        W  866  40.021   5.878   4.515
32473W        W  867  34.106   6.675   2.862
32474W        W  868  15.610  29.444   2.355
32475W        W  869   2.555  34.594  11.382
32476W        W  870  31.904   0.751   3.010
32477W        W  871  27.271   7.734  12.485
32478W        W  872  31.505   1.998  13.862
32479W        W  873  16.051  40.487  14.078
32480W        W  874   6.302  18.093   2.203
32481W        W  875  24.238  42.617  12.342
32482W        W  876   1.401   8.885  12.471
32483W        W  877   2.340  33.638  11.506
32484W        W  878  36.783  23.633  11.965
32485W        W  879  10.598  38.745   2.475
32486W        W  880  22.325   6.216   2.580
32487W        W  881   5.819  16.447   1.939
32488W        W  882  36.404   8.067  10.807
32489W        W  883  19.141  13.863  11.164
32490W        W  884  23.104  12.380   3.201
32491W        W  885  33.703  38.293   4.609
32492W        W  886  40.549  31.636  13.532
32493W        W  887   1.786  33.369  14.136
32494W        W  888  34.830  24.333   4.132
32495W        W  889  26.295   8.200  14.793
32496W        W  890   0.524   0.358  14.368
32497W        W  891  27.193   6.291  13.551
32498W        W  892  20.685  37.554  11.364
32499W        W  893  22.732  30.582  14.937
32500W        W  894   9.022  31.884   2.382
32501W        W  895   6.356  43.820  11.674
32502W        W  896  24.122  43.479   0.697
32503W        W  897   9.475  18.464  13.274
32504W        W  898  28.227  18.029  11.797
32505W        W  899  10.363  41.779   4.221
32506W        W  900   1.790   1.784   4.166
32507W        W  901   3.851  32.491   0.409
32508W        W  902   1.923  13.422   4.095
32509W        W  903  24.681  32.132  14.910
32510W        W  904  11.526  14.625  10.490
32511W        W  905  37.521   8.502   3.332
32512W        W  906   4.541  35.473  13.399
32513W        W  907  24.514  36.454  12.085
32514W        W  908  44.026  17.287   4.683
32515W        W  909   7.151  42.719   4.481
32516W        W  910   0.949  38.664  11.990
32517W        W  911  28.727  32.383   0.845
32518W        W  912   6.064  31.710  14.755
32519W        W  913  26.232  31.686   0.957
32520W        W  914  24.743  19.450   1.166
32521W        W  915  34.472  39.247  12.121
32522W        W  916  43.866   8.038  12.807
32523W        W  917  37.911   3.221  12.919
32524W        W  918  22.547  28.610   2.457
32525W        W  919   4.362   9.680  14.576
32526W        W  920  34.544  30.440  11.666
32527W        W  921  32.650  23.625   3.664
32528W        W  922  39.341  34.289   3.506
32529W        W  923  41.813  43.800   1.290
32530W        W  924  24.195  28.740   9.895
32531W        W  925  16.352   2.479   3.295
32532W        W  926  33.924  13.936  12.515
32533W        W  927  37.338   2.011   4.133
32534W        W  928  39.019  29.931   0.902
32535W        W  929  36.537  12.828   3.899
32536W        W  930  27.614  22.555  11.683
32537W        W  931  39.130  40.048  10.312
32538W        W  932  26.218  40.043   3.072
32539W        W  933  40.905  22.163  10.594
32540W        W  934  24.424   7.373  10.688
32541W        W  935  17.610  18.625   2.204
32542W        W  936   1.472  23.877  10.747
32543W        W  937  14.904  29.540  12.235
32544W        W  938  28.265  39.148  14.311
32545W        W  939  13.801  42.316   3.463
32546W        W  940  35.280  43.831   2.631
32547W        W  941  28.706  40.760  14.365
32548W        W  942  29.190  29.488  12.043
32549W        W  943   8.514  22.296  12.073
32550W        W  944  36.155  39.323   1.696
32551W        W  945  29.700  36.865   2.868
32552W        W  946  36.167  39.856   1.731
32553W        W  947  19.894  27.473   0.737
32554W        W  948  41.292  24.465  12.925
32555W        W  949  23.221  13.867   0.580
32556W        W  950   3.329   3.748  12.481
32557W        W  951  11.980  10.737   3.108
32558W        W  952   7.558  10.085  12.929
32559W        W  953  30.994  14.699  14.759
32560W        W  954  21.802  42.301   4.148
32561W        W  955  38.430  17.918   1.685
32562W        W  956  43.875   2.978   3.551
32563W        W  957  28.428  24.124   2.966
32564W        W  958  30.561  36.451   4.211
32565W        W  959  16.715  37.515   1.819
32566W        W  960  15.767  39.634   3.582
32567W        W  961  18.881  29.635  11.996
32568W        W  962  25.667   3.602   0.385
32569W        W  963   8.554  44.385   4.192
32570W        W  964  25.076  38.208   0.750
32571W        W  965  39.628   0.791   3.739
32572W        W  966  19.062  35.136   4.004
32573W        W  967  15.102   9.359   1.391
32574W        W  968   1.651  29.911  12.499
32575W        W  969   0.246  19.643  12.199
32576W        W  970  43.744  13.233   0.988
32577W        W  971   0.190  24.803  11.855
32578W        W  972  25.014  34.786  11.309
32579W        W  973  31.641  38.816   1.278
32580W        W  974  10.896  13.722   4.344
32581W        W  975  20.132   5.753   3.086
32582W        W  976  39.467   7.170  13.064
32583W        W  977  33.425  10.932  11.651
32584W        W  978  26.981  26.875  14.196
32585W        W  979  30.590  16.760  14.024
32586W        W  980  22.733  31.688   2.306
32587W        W  981  31.358  17.120  13.819
32588W        W  982  42.681  24.949   2.922
32589W        W  983  33.148  12.149   0.423
32590W        W  984  29.294   8.105   3.193
32591W        W  985  39.180  32.537   3.334
32592W        W  986  44.220  17.297   2.179
32593W        W  987  22.654  41.950   2.147
32594W        W  988  16.761  44.739   3.136
32595W        W  989  25.148  43.561   0.281
32596W        W  990  30.470  32.447   4.437
32597W        W  991  30.545  13.212   1.223
32598W        W  992   9.331  39.908   3.640
32599W        W  993   7.407  26.925  12.871
32600W        W  994  39.034  18.712  12.324
32601W        W  995   9.698  27.462   1.751
32602W        W  996  26.963   4.911   0.088
32603W        W  997  20.265  11.730  10.655
32604W        W  998  41.515  38.470   2.352
32605W        W  999  35.125  18.227   0.922
32606W        W 1000  26.225  22.008   2.780
32607W        W 1001  28.690  32.075  14.859
32608W        W 1002   3.987  20.042   2.736
32609W        W 1003  43.766  12.310  11.454
32610W        W 1004  22.119  10.581  11.993
32611W        W 1005  26.466   2.895   2.989
32612W        W 1006  25.737  24.473   1.437
32613W        W 1007   0.801  40.289   5.005
32614W        W 1008   9.269  39.413   2.319
32615W        W 1009  19.523  39.838   3.318
32616W        W 1010  32.025   0.826   4.578
32617W        W 1011  27.597  21.264  10.281
32618W        W 1012   3.489  25.608  11.972
32619W        W 1013  20.735   4.283   0.900
32620W        W 1014   3.900  17.491   0.584
32621W        W 1015  17.128  21.821  14.054
32622W        W 1016  40.664  11.605  12.232
32623W        W 1017  29.176  27.209   2.299
32624W        W 1018  39.402  35.068   0.790
32625W        W 1019  30.126  33.924  10.626
32626W        W 1020  34.618  37.586   3.589
32627W        W 1021  28.594  41.925  14.265
32628W        W 1022  15.851  23.220  13.567
32629W        W 1023  19.564  10.658   0.890
32630W        W 1024  31.606  42.798  11.119
32631W        W 1025  39.928  38.066  14.763
32632W        W 1026  14.917   8.204  14.905
32633W        W 1027   8.252   0.922  12.939
32634W        W 1028   2.665  43.389  11.690
32635W        W 1029  34.129   3.993  12.552
32636W        W 1030  18.672  29.490   1.795
32637W        W 1031   6.521  17.944  13.458
32638W        W 1032  13.766  44.013   1.651
32639W        W 1033  38.595   0.817   3.669
32640W        W 1034  38.851  27.589   3.841
32641W        W 1035  29.070  18.784   3.330
32642W        W 1036  23.655   5.639  13.993
32643W        W 1037  23.676  13.716  12.128
32644W        W 1038  13.965  43.386   2.728
32645W        W 1039  32.552  36.079   4.529
32646W        W 1040  40.764  22.680  11.679
32647W        W 1041   9.882  30.990   4.572
32648W        W 1042  38.568  10.598  14.832
32649W        W 1043  33.255  21.879  14.334
32650W        W 1044  25.836  42.552  13.091
32651W        W 1045  28.515  43.343   2.796
32652W        W 1046  36.010  30.130   3.353
32653W        W 1047  21.796  35.347  11.671
32654W        W 1048   5.749  28.910  13.498
32655W        W 1049   5.234  38.440  12.570
32656W        W 1050  43.007  25.610   4.598
32657W        W 1051  19.573  41.523   3.718
32658W        W 1052  15.241  30.224   0.006
32659W        W 1053  29.623  25.591   1.959
32660W        W 1054  23.563  25.696  10.681
32661W        W 1055  42.470  33.991  14.889
32662W        W 1056  28.859  33.875  13.959
32663W        W 1057   8.574   7.514   1.219
32664W        W 1058  25.091  27.705   0.832
32665W        W 1059  29.009  12.591   3.225
32666W        W 1060  24.621  40.871  14.548
32667W        W 1061  16.136  15.152   4.087
32668W        W 1062  14.501  37.219   3.860
32669W        W 1063  34.940   2.185  13.602
32670W        W 1064  30.454   5.242  12.612
32671W        W 1065  15.437  40.739   4.159
32672W        W 1066  37.271  42.532   4.053
32673W        W 1067  34.408  19.830  10.724
32674W        W 1068  26.372   9.060  10.205
32675W        W 1069  39.725  26.722  11.841
32676W        W 1070  34.875  13.983  11.435
32677W        W 1071  18.614  22.208  11.155
32678W        W 1072  37.863  21.150   1.397
32679W        W 1073   7.319  18.120  11.581
32680W        W 1074  38.843  17.660  14.480
32681W        W 1075  26.217  15.105   0.851
32682W        W 1076  14.645   9.712   3.860
32683W        W 1077  39.613  16.165   1.677
32684W        W 1078  19.043   4.333  10.609
32685W        W 1079  17.372  34.432   0.380
32686W        W 1080  23.197  32.939   2.394
32687W        W 1081  18.093  39.158  13.870
32688W        W 1082  37.895  41.802  14.777
32689W        W 1083  30.947  24.306   3.518
32690W        W 1084   3.755  33.913  13.408
32691W        W 1085  17.999  12.118  10.413
32692W        W 1086  22.082  10.920  10.690
32693W        W 1087  19.533  34.922   3.230
32694W        W 1088  37.741   3.787  12.011
32695W        W 1089   1.802  31.321  12.418
32696W        W 1090  33.409  33.003   3.656
32697W        W 1091  36.102  11.909  11.103
32698W        W 1092  15.844   6.858   0.320
32699W        W 1093  23.707  28.133   0.785
32700W        W 1094  32.565  23.176   1.247
32701W        W 1095  19.128  14.211   3.415
32702W        W 1096  44.056  33.545  11.051
32703W        W 1097  19.304  17.208   2.223
32704W        W 1098  14.750  10.708  12.825
32705W        W 1099  27.976  30.832  11.742
32706W        W 1100   4.754  14.184  11.080
32707W        W 1101  30.432   9.906  13.903
32708W        W 1102  31.618  12.185  14.467
32709W        W 1103  13.126  25.736   0.204
32710W        W 1104  35.834   6.625   2.205
32711W        W 1105   2.736  40.550  12.112
32712W        W 1106  27.435  37.447   3.067
32713W        W 1107  24.720  22.972  12.906
32714W        W 1108  14.575  44.480  12.636
32715W        W 1109  22.274  32.051   4.193
32716W        W 1110  16.257   6.110  12.643
32717W        W 1111  18.516  27.469  12.839
32718W        W 1112  43.386  39.047  12.442
32719W        W 1113  27.636  36.145   2.178
32720W        W 1114   1.810  22.301   3.262
32721W        W 1115  26.309  21.624  11.537
32722W        W 1116  15.360  14.736   4.443
32723W        W 1117  26.405   0.354  12.500
32724W        W 1118  37.277   0.524  12.625
32725W        W 1119  19.545  34.985  10.619
32726W        W 1120  30.571  27.268   1.453
32727W        W 1121  14.476  40.093   2.812
32728W        W 1122  27.435   2.441  10.721
32729W        W 1123  39.933  30.612  11.025
32730W        W 1124   0.810  23.075   2.198
32731W        W 1125  37.656   3.255   0.991
32732W        W 1126  17.541   9.558   5.086
32733W        W 1127  16.914  28.065  11.114
32734W        W 1128  44.821   1.603  11.162
32735W        W 1129   6.201   4.789   3.357
32736W        W 1130   5.611  16.182   2.333
32737W        W 1131  20.705  42.387   2.430
32738W        W 1132  35.546  12.754  13.033
32739W        W 1133  33.384  36.996  12.323
32740W        W 1134  11.198  16.633   0.013
32741W        W 1135  43.711  27.624  11.506
32742W        W 1136  41.560  38.837  10.378
32743W        W 1137  20.405  19.130  13.648
32744W        W 1138  37.978  13.051   2.014
32745W        W 1139  44.324  21.144  12.382
32746W        W 1140  28.654  22.576   2.594
32747W        W 1141   2.782  38.556  10.684
32748W        W 1142  10.085   0.863  11.446
32749W        W 1143   3.205  28.659  12.122
32750W        W 1144  22.568  40.435   0.705
32751W        W 1145  14.023  15.187  11.665
32752W        W 1146  30.407   5.225   3.714
32753W        W 1147  27.512   0.489  14.846
32754W        W 1148  23.049  31.010  14.306
32755W        W 1149   0.982  31.708  12.320
32756W        W 1150   3.220   6.576   3.735
32757W        W 1151  39.423  36.013   0.399
32758W        W 1152  15.289  18.749   1.878
32759W        W 1153  32.999   8.824  11.582
32760W        W 1154  43.270  16.745  14.006
32761W        W 1155  24.116  11.559  11.653
32762W        W 1156  14.250  11.120  11.298
32763W        W 1157  10.143  12.017   3.192
32764W        W 1158  36.055  42.084   2.775
32765W        W 1159  41.421  41.494   1.348
32766W        W 1160  42.486  27.709   0.219
32767W        W 1161  42.019   2.932  12.559
32768W        W 1162  42.010   5.778  13.007
32769W        W 1163  42.267  26.655  12.540
32770W        W 1164  21.712  17.897   2.326
32771W        W 1165  14.750  35.037  13.606
32772W        W 1166  26.743  31.066   1.329
32773W        W 1167  29.691  22.245   0.876
32774W        W 1168  26.527  43.372  13.895
32775W        W 1169  42.603   8.350  11.669
32776W        W 1170  35.311   9.098   4.344
32777W        W 1171  21.708  24.380  13.382
32778W        W 1172   0.339  44.888  14.262
32779W        W 1173  41.969  42.410  14.427
32780W        W 1174  24.249   7.784   4.014
32781W        W 1175  30.332   7.866   3.241
32782W        W 1176   4.058  20.198  14.419
32783W        W 1177  21.564  39.938   4.964
32784W        W 1178  36.307  41.134   1.762
32785W        W 1179  30.115  31.512   4.230
32786W        W 1180  28.045  40.914   3.246
32787W        W 1181  20.507   7.218  11.520
32788W        W 1182  17.472   5.797   2.262
32789W        W 1183  27.986  13.275  14.879
32790W        W 1184  35.613  32.935   3.732
32791W        W 1185  18.369  17.096   4.090
32792W        W 1186  16.194  22.525   0.809
32793W        W 1187   7.737   3.303  11.634
32794W        W 1188  15.209  43.775   1.069
32795W        W 1189  38.532  13.274  11.891
32796W        W 1190   8.657  39.854   4.399
32797W        W 1191  43.766  18.066   0.576
32798W        W 1192  34.994  21.148   3.161
32799W        W 1193  12.575  21.815  10.825
32800W        W 1194  22.636  37.967   1.236
32801W        W 1195  34.128  25.102   4.147
32802W        W 1196  32.100  36.011  13.542
32803W        W 1197  27.632  30.971  13.250
32804W        W 1198   8.942  15.061  14.483
32805W        W 1199  36.187  17.370   4.276
32806W        W 1200  39.012   2.074  11.655
32807W        W 1201  18.129  16.657   0.919
32808W        W 1202  16.221  28.588  12.162
32809W        W 1203  43.384  44.718  14.629
32810W        W 1204  20.543  20.118   3.777
32811W        W 1205   7.045  27.062   4.114
32812W        W 1206  11.257   8.881   4.390
32813W        W 1207  36.483  18.273   3.734
32814W        W 1208  42.948   6.981  12.979
32815W        W 1209  43.800   3.710   3.079
32816W        W 1210  41.529  24.738  11.630
32817W        W 1211  16.308  17.498   2.380
32818W        W 1212  39.431  42.969   4.175
32819W        W 1213  27.718  22.196   2.819
32820W        W 1214  19.158   2.469   3.690
32821W        W 1215   6.057  16.844  13.461
32822W        W 1216   9.223  41.417  12.606
32823W        W 1217  13.034  13.199   4.090
32824W        W 1218  38.109  38.841  13.978
32825W        W 1219  25.891  32.608   3.177
32826W        W 1220  43.803   1.839   2.858
32827W        W 1221   4.240   6.795   1.845
32828W        W 1222  37.462  23.884   0.146
32829W        W 1223  33.366  35.472   4.615
32830W        W 1224  32.503  32.150  14.392
32831W        W 1225   1.798  35.525  10.730
32832W        W 1226  22.024  23.183  12.689
32833W        W 1227  42.780   2.086   4.277
32834W        W 1228  40.556  38.354   4.561
32835W        W 1229  34.707   2.387  12.028
32836W        W 1230  19.786   9.092   4.098
32837W        W 1231  10.414  13.796  12.102
32838W        W 1232  29.477  43.009   4.135
32839W        W 1233  38.819  41.947  11.401
32840W        W 1234   4.314   4.907  10.498
32841W        W 1235  26.596  18.144  13.891
32842W        W 1236  15.298  33.534   4.069
32843W        W 1237  40.360  31.108   1.724
32844W        W 1238  42.583   4.916   2.613
32845W        W 1239  31.554  23.662   0.934
32846W        W 1240   6.875  19.597  13.485
32847W        W 1241  20.061  32.702   3.763
32848W        W 1242  11.978  18.212   4.712
32849W        W 1243  13.198  24.218   3.882
32850W        W 1244  14.204  21.406  13.730
32851W        W 1245   1.416   0.026   2.599
32852W        W 1246  28.956  35.538   4.760
32853W        W 1247  28.109  22.922  10.565
32854W        W 1248   9.893  41.818  10.566
32855W        W 1249  33.285  40.562   0.138
32856W        W 1250  20.541  40.677   2.893
32857W        W 1251   1.880  32.036   2.083
32858W        W 1252  22.088  17.255  12.911
32859W        W 1253  20.863  37.673   5.003
32860W        W 1254  22.475  35.596  14.808
32861W        W 1255  27.470  40.121   1.988
32862W        W 1256  33.205  13.859   3.299
32863W        W 1257  39.446  25.412   2.681
32864W        W 1258  44.002  22.318  13.861
32865W        W 1259  41.983  18.651   2.407
32866W        W 1260   8.159   9.837   3.342
32867W        W 1261  34.422  32.504  12.009
32868W        W 1262  43.573  14.743   4.733
32869W        W 1263  40.451  20.082   4.946
32870W        W 1264  30.035  11.106  11.144
32871W        W 1265   9.753  15.137  10.636
32872W        W 1266   6.215   4.337   4.572
32873W        W 1267  35.957  29.267   3.953
32874W        W 1268  32.946  13.838   2.831
32875W        W 1269  30.950  35.839   2.849
32876W        W 1270  35.260  32.090   0.430
32877W        W 1271  36.918   5.258   2.225
32878W        W 1272  44.824  44.600  13.184
32879W        W 1273  38.091  35.444   0.286
32880W        W 1274   6.291  35.623  14.959
32881W        W 1275  35.379  27.202   1.962
32882W        W 1276   6.793  15.591  10.089
32883W        W 1277   5.184  41.916  13.464
32884W        W 1278  34.748  17.877  10.934
32885W        W 1279  23.799   9.833  11.035
32886W        W 1280  23.344  21.931  13.959
32887W        W 1281  24.975  13.166  11.271
32888W        W 1282  32.157  12.235   4.182
32889W        W 1283  12.971   4.794   0.866
32890W        W 1284  36.210  19.570   0.669
32891W        W 1285  38.097   0.344   0.847
32892W        W 1286  25.136   3.370  14.461
32893W        W 1287   5.304   9.276   2.212
32894W        W 1288  32.611  27.901   2.159
32895W        W 1289  19.399  25.255  13.701
32896W        W 1290  43.447  33.865   3.504
32897W        W 1291  11.907  30.750  14.240
32898W        W 1292  43.098  40.525  13.440
32899W        W 1293  33.596   3.268  14.663
32900W        W 1294  21.185  14.267   0.298
32901W        W 1295  15.666  34.889   3.918
32902W        W 1296  38.564  10.198   4.416
32903W        W 1297  20.731  38.042  12.846
32904W        W 1298  15.230   7.661   4.077
32905W        W 1299  10.055  11.782  10.721
32906W        W 1300  25.625   2.175   2.197
32907W        W 1301  41.569  40.083  13.890
32908W        W 1302  43.399  16.597   2.855
32909W        W 1303  38.570  30.993   3.164
32910W        W 1304  36.330   6.716  12.876
32911W        W 1305  37.529  27.655  10.622
32912W        W 1306   8.309  40.821   1.683
32913W        W 1307  30.937  35.330   3.633
32914W        W 1308  14.374   4.660   1.352
32915W        W 1309  39.334  16.779   3.861
32916W        W 1310  32.213  32.980  12.884
32917W        W 1311  27.916  42.945  11.195
32918W        W 1312  26.174  25.650  11.135
32919W        W 1313  35.557   2.396  10.770
32920W        W 1314   5.933  26.636  11.394
32921W        W 1315  36.903  41.542   3.927
32922W        W 1316   9.471  20.289  13.820
32923W        W 1317  25.455  42.047  12.086
32924W        W 1318  11.695   0.469   3.464
32925W        W 1319   6.913  40.410  13.852
32926W        W 1320  30.180  13.731  12.919
32927W        W 1321  12.532  30.703  12.548
32928W        W 1322   3.739   4.808   0.388
32929W        W 1323  37.054  22.018   3.815
32930W        W 1324  37.352  34.858  11.071
32931W        W 1325  13.327  24.163  11.055
32932W        W 1326  11.134  14.540   4.649
32933W        W 1327   2.791  27.080   4.596
32934W        W 1328  13.823   1.070   2.899
32935W        W 1329  22.303   2.965   3.301
32936W        W 1330  28.805  27.855  11.609
32937W        W 1331   6.656   1.928   4.964
32938W        W 1332  39.838  35.663   0.541
32939W        W 1333  29.489  37.803  14.060
32940W        W 1334   6.713  38.746   0.745
32941W        W 1335  44.252   2.834   0.902
32942W        W 1336   6.769  39.858  13.779
32943W        W 1337  42.337   3.630  14.270
32944W        W 1338  27.070  27.848  13.989
32945W        W 1339  32.366  21.688  10.670
32946W        W 1340  32.285  36.563  14.010
32947W        W 1341  21.018  17.856  12.032
32948W        W 1342  37.436  11.827   1.972
32949W        W 1343  41.263  16.696  13.751
32950W        W 1344  40.812  15.236   4.854
32951W        W 1345  10.365   3.143   1.322
32952W        W 1346   5.929  21.535   0.997
32953W        W 1347  21.185   5.964   1.961
32954W        W 1348  40.345  40.721   0.489
32955W        W 1349  25.073  27.318   2.265
32956W        W 1350  25.486   7.208  10.745
32957W        W 1351  20.052  24.316  13.847
32958W        W 1352  29.162  43.115   1.601
32959W        W 1353  23.710  42.898   4.579
32960W        W 1354  23.068  44.668   0.285
32961W        W 1355  35.864  26.400  11.703
32962W        W 1356  25.205  24.795  10.822
32963W        W 1357   1.929   5.946  11.629
32964W        W 1358  23.637  32.096  11.941
32965W        W 1359  26.649  26.924  10.664
32966W        W 1360  27.959   4.263  10.622
32967W        W 1361  21.545  36.569   2.017
32968W        W 1362  29.672  31.070  14.877
32969W        W 1363  36.040  12.853  14.830
32970W        W 1364  11.371  37.555  14.962
32971W        W 1365  36.251   7.455  13.459
32972W        W 1366  34.539  42.995  14.335
32973W        W 1367  24.163  35.784  13.559
32974W        W 1368  43.517  10.263   0.383
32975W        W 1369   5.770  32.137  13.989
32976W        W 1370  20.329  15.572  11.987
32977W        W 1371   7.865  33.154  11.333
32978W        W 1372   2.009  29.482   4.621
32979W        W 1373   3.958  30.627  10.681
32980W        W 1374   6.249   3.373  11.114
32981W        W 1375  36.414  21.760  12.390
32982W        W 1376  30.589  16.657  11.413
32983W        W 1377   7.477  42.678  13.417
32984W        W 1378   3.538   6.819   3.086
32985W        W 1379  35.868  27.991   0.733
32986W        W 1380  38.300   6.628   0.408
32987W        W 1381   6.839  10.586  12.199
32988W        W 1382  38.764  18.374   1.201
32989W        W 1383  33.023  37.118  14.496
32990W        W 1384  28.534  12.353  13.992
32991W        W 1385  30.701  11.216   3.590
32992W        W 1386  23.933  31.029  12.529
32993W        W 1387   4.709  40.853   2.233
32994W        W 1388  23.816  23.657  10.551
32995W        W 1389  27.217  32.036   3.663
32996W        W 1390  23.105  24.416   2.045
32997W        W 1391  22.472  15.883   2.974
32998W        W 1392  28.017  41.085  12.088
32999W        W 1393  28.819  44.993  14.930
33000W        W 1394  11.160  32.689   2.144
33001W        W 1395  25.935  20.839   0.781
33002W        W 1396  31.981  32.949  12.422
33003W        W 1397  13.711  15.708   0.790
33004W        W 1398  22.719   7.933  14.931
33005W        W 1399  14.815  17.157   1.692
33006W        W 1400   3.232  29.518   3.392
33007W        W 1401  10.285  29.842   3.836
33008W        W 1402  17.283  15.181   3.427
33009W        W 1403  17.565  32.462  10.508
33010W        W 1404  44.849  44.675   0.486
33011W        W 1405  17.117  19.762  14.072
33012W        W 1406  23.344   3.971   4.218
33013W        W 1407  24.742  17.957   1.264
33014W        W 1408  15.224  26.255  10.667
33015W        W 1409  43.772   4.633   4.222
33016W        W 1410  16.590  22.178   2.684
33017W        W 1411  29.169   5.816  12.916
33018W        W 1412  36.911  19.131   1.656
33019W        W 1413  28.469  20.577   1.875
33020W        W 1414  26.703  35.535   3.250
33021W        W 1415  38.487  35.752  12.589
33022W        W 1416   1.372  22.615   0.408
33023W        W 1417  38.662  40.569   2.390
33024W        W 1418  25.224  14.696  10.718
33025W        W 1419  23.275  23.157  13.004
33026W        W 1420   8.946  44.215  11.246
33027W        W 1421   0.038  34.532  10.792
33028W        W 1422  42.260  24.235  13.455
33029W        W 1423  12.256  37.192   3.731
33030W        W 1424   8.433  15.272  10.341
33031W        W 1425  17.680  22.621   4.724
33032W        W 1426  15.663   3.356  14.431
33033W        W 1427  26.657   4.721  11.643
33034W        W 1428  34.652  15.716   3.653
33035W        W 1429   6.383  37.122  14.239
33036W        W 1430  28.433   7.124   0.274
33037W        W 1431  42.129  16.853   2.465
33038W        W 1432  37.969  36.337  11.102
33039W        W 1433  41.766  38.320   4.235
33040W        W 1434   2.993  30.893   2.181
33041W        W 1435  41.765   1.939   0.891
33042W        W 1436  20.676  34.279  13.327
33043W        W 1437  41.237   5.377   3.350
33044W        W 1438  41.517  23.972  11.921
33045W        W 1439  33.154  40.789   1.690
33046W        W 1440   9.138  33.326  10.284
33047W        W 1441   6.743  11.064  12.364
33048W        W 1442  17.189  27.275  13.608
33049W        W 1443  31.374  16.112  11.151
33050W        W 1444  37.303  11.543   4.188
33051W        W 1445  30.599  21.014   0.015
33052W        W 1446   5.762  36.366  12.195
33053W        W 1447   5.864  12.357  14.288
33054W        W 1448  23.236  38.972  11.387
33055W        W 1449  40.674   4.788  11.182
33056W        W 1450  40.339  32.982   2.837
33057W        W 1451   4.961  21.694   1.513
33058W        W 1452  35.050   0.910   0.090
33059W        W 1453  39.503  37.278   2.311
33060W        W 1454  23.540  42.098  13.489
33061W        W 1455   8.638  19.211   2.196
33062W        W 1456  31.602  25.335   0.264
33063W        W 1457  32.249  11.813   0.006
33064W        W 1458  36.554   0.346   4.152
33065W        W 1459   2.678  14.677  12.585
33066W        W 1460  11.094  29.570   1.520
33067W        W 1461  25.113  38.901  13.041
33068W        W 1462   9.336   9.129  11.308
33069W        W 1463  40.223  14.675   4.335
33070W        W 1464  40.427   6.416   0.177
33071W        W 1465   5.297   3.721   0.266
33072W        W 1466  16.731  36.205  14.327
33073W        W 1467  17.952   5.934   2.179
33074W        W 1468   1.014  42.423   3.379
33075W        W 1469   3.927  22.022   1.267
33076W        W 1470   4.481  40.634   0.929
33077W        W 1471   4.603  11.864  11.111
33078W        W 1472  13.318  41.009   1.849
33079W        W 1473  28.602  17.317  12.130
33080W        W 1474   6.278   3.189   2.125
33081W        W 1475  35.778  26.100  11.294
33082W        W 1476  17.282  39.186   4.980
33083W        W 1477  42.552  26.767  10.289
33084W        W 1478  41.260  21.135  11.465
33085W        W 1479  34.504  31.723   0.967
33086W        W 1480  24.281  13.867   4.033
33087W        W 1481   5.191  42.000   3.105
33088W        W 1482  22.506  19.987   4.574
33089W        W 1483  18.787   3.460  10.215
33090W        W 1484   8.303  31.216   1.701
33091W        W 1485  40.353  35.884  11.679
33092W        W 1486  14.720  30.808  11.676
33093W        W 1487  39.582  14.641  14.792
33094W        W 1488  15.328  13.708  11.226
33095W        W 1489  33.823  36.606  10.975
33096W        W 1490  10.394  30.066   2.873
33097W        W 1491  25.540  20.027   1.002
33098W        W 1492   2.070  30.732   3.704
33099W        W 1493  32.883  26.583   0.866
33100W        W 1494  37.135  44.624  13.931
33101W        W 1495  23.253   8.095   4.791
33102W        W 1496   0.775  36.532  12.387
33103W        W 1497  11.227  20.190   3.117
33104W        W 1498  40.545  41.919  14.455
33105W        W 1499   2.159  41.365   1.887
33106W        W 1500  30.791  27.949   4.216
33107W        W 1501  18.306  18.225   3.137
33108W        W 1502  14.058  42.687   0.334
33109W        W 1503   0.215  34.886  13.021
33110W        W 1504   1.743   6.337   2.831
33111W        W 1505  27.970   4.859   3.134
33112W        W 1506  10.726  12.262  14.242
33113W        W 1507  33.535   2.831  12.356
33114W        W 1508   9.419  13.709  12.036
33115W        W 1509   5.879  19.693  11.542
33116W        W 1510  18.372  13.815  14.806
33117W        W 1511  38.914  35.819  11.868
33118W        W 1512  14.609  31.957  13.842
33119W        W 1513   3.406  31.320  12.018
33120W        W 1514  39.041  12.366   2.190
33121W        W 1515  23.536  25.012   4.903
33122W        W 1516  25.222  39.040  11.586
33123W        W 1517  13.644   3.817  11.976
33124W        W 1518  41.452  26.714   2.136
33125W        W 1519  17.147  41.540   1.241
33126W        W 1520  39.054  42.058  14.332
33127W        W 1521  43.843   7.631  12.512
33128W        W 1522  26.664  37.064   1.379
33129W        W 1523  36.474  27.679  14.925
33130W        W 1524  24.154   9.754  11.498
33131W        W 1525  18.635   8.344  13.557
33132W        W 1526  18.064  19.641   4.139
33133W        W 1527  23.611  44.083  13.424
33134W        W 1528  14.499  29.074  14.330
33135W        W 1529   2.093  20.749  11.508
33136W        W 1530  16.261  40.939  13.940
33137W        W 1531  12.843  20.151   4.295
33138W        W 1532  15.268  22.520  12.423
33139W        W 1533  32.403   4.931  14.495
33140W        W 1534   0.862  40.162   3.250
33141W        W 1535  17.206   9.053  13.803
33142W        W 1536   3.990  24.135  10.311
33143W        W 1537  35.145  33.582  13.427
33144W        W 1538  44.854  18.544  11.687
33145W        W 1539  28.690  30.562   1.267
33146W        W 1540  26.179  15.071  14.529
33147W        W 1541  20.089  37.421  13.304
33148W        W 1542   6.602  43.490  10.646
33149W        W 1543   3.021  38.279   4.123
33150W        W 1544  10.199  37.306   5.006
33151W        W 1545  38.267  42.363   1.423
33152W        W 1546  17.251  33.113   4.788
33153W        W 1547  16.803  16.368  13.850
33154W        W 1548  17.154  19.735   3.426
33155W        W 1549   3.204  18.622   0.812
33156W        W 1550  27.841  29.473  12.493
33157W        W 1551  12.819  40.592   0.051
33158W        W 1552  19.607  42.993  12.610
33159W        W 1553   7.302   9.372   1.709
33160W        W 1554  22.758   7.499  10.010
33161W        W 1555  22.096   4.677   4.845
33162W        W 1556  13.850  25.531   2.757
33163W        W 1557  41.994  26.080   1.836
33164W        W 1558  32.590  41.495   4.302
33165W        W 1559  37.038  18.459   0.526
33166W        W 1560   7.699  19.980   4.258
33167W        W 1561   9.414  27.577   3.239
33168W        W 1562  32.621  16.010   4.649
33169W        W 1563  14.072  33.543   2.640
33170W        W 1564  34.413  25.694  12.799
33171W        W 1565  27.700  12.179  11.134
33172W        W 1566   2.289  30.375   5.030
33173W        W 1567  26.143   3.674   0.534
33174W        W 1568  27.956  23.743  13.911
33175W        W 1569  12.693  27.360   0.530
33176W        W 1570  35.102   0.385  13.803
33177W        W 1571  25.547  34.758   1.763
33178W        W 1572  16.851   1.396   0.779
33179W        W 1573   8.244  10.008  11.531
33180W        W 1574  27.994  10.325   4.168
33181W        W 1575   5.177  20.810   0.446
33182W        W 1576   7.113   8.099  13.064
33183W        W 1577  34.429  44.496   4.913
33184W        W 1578  42.380   6.741  14.865
33185W        W 1579  15.989  26.633   3.564
33186W        W 1580  23.680  17.490  14.299
33187W        W 1581  43.660  35.740  13.367
33188W        W 1582  39.949   4.955   0.676
33189W        W 1583  19.779  36.980   2.234
33190W        W 1584  24.143   7.563  12.090
33191W        W 1585  19.775   1.967  12.987
33192W        W 1586  33.097  17.907   1.808
33193W        W 1587  27.432  12.598   0.552
33194W        W 1588  20.077  21.144  10.714
33195W        W 1589   7.385  29.933  11.200
33196W        W 1590  10.820  23.989  12.877
33197W        W 1591   5.316  18.517  10.499
33198W        W 1592  38.644   8.416  13.027
33199W        W 1593  13.770  27.948  13.028
33200W        W 1594  27.885  26.968  14.637
33201W        W 1595  21.550  12.154   3.848
33202W        W 1596  23.198  39.327   3.112
33203W        W 1597  21.239  36.417  11.870
33204W        W 1598  37.928  43.243   0.142
33205W        W 1599  21.465   2.284  11.974
33206W        W 1600  10.361  17.736  11.147
33207W        W 1601   7.477  32.954  14.584
33208W        W 1602  22.087  35.354   4.145
33209W        W 1603   6.564   0.971  12.188
33210W        W 1604  31.349  31.568  12.360
33211W        W 1605   1.342  30.227   1.415
33212W        W 1606  19.717   6.237   4.188
33213W        W 1607  24.896  43.508  12.971
33214W        W 1608  44.847  21.963   2.963
33215W        W 1609  16.481  18.925  12.436
33216W        W 1610  36.353  31.324  12.065
33217W        W 1611  38.471  30.053   4.570
33218W        W 1612  13.418  40.352  13.866
33219W        W 1613  28.400  43.537  14.892
33220W        W 1614  10.244  25.093  12.121
33221W        W 1615  33.015  24.193   4.642
33222W        W 1616   9.477  44.545   4.139
33223W        W 1617   7.435  29.892   2.781
33224W        W 1618  30.080  36.562   4.018
33225W        W 1619  14.660  43.969  14.827
33226W        W 1620  33.979  39.016  14.599
33227W        W 1621  31.054   3.964  14.574
33228W        W 1622   7.508  23.085   1.619
33229W        W 1623  32.391  12.827  13.442
33230W        W 1624  43.069  33.190  10.160
33231W        W 1625  20.059   6.659   1.812
33232W        W 1626  30.480  24.968  13.015
33233W        W 1627  31.203   0.841  14.391
33234W        W 1628  41.112  39.613  10.903
33235W        W 1629   3.767  35.498  11.023
33236W        W 1630  38.054  37.358  11.991
33237W        W 1631  31.371   4.231  11.557
33238W        W 1632  40.397   5.446   2.825
33239W        W 1633   6.843  37.444  12.525
33240W        W 1634   9.392   8.744  14.819
33241W        W 1635  19.771  16.637   3.264
33242W        W 1636  39.028  13.042  14.938
33243W        W 1637  16.867  35.523   2.881
33244W        W 1638   6.494  25.691   2.156
33245W        W 1639  14.574   3.879   2.147
33246W        W 1640  42.300  37.273  12.857
33247W        W 1641  28.049  37.328   1.089
33248W        W 1642  33.114  38.865  12.596
33249W        W 1643  43.994  15.872   4.355
33250W        W 1644  37.294  23.666  11.975
33251W        W 1645  42.896  21.478   5.058
33252W        W 1646   9.423  33.690  14.209
33253W        W 1647  43.346  27.493   4.177
33254W        W 1648  15.045  15.335  10.758
33255W        W 1649  22.588  22.774  11.118
33256W        W 1650  38.383  32.593   2.636
33257W        W 1651  11.088  28.727   4.018
33258W        W 1652   4.736  30.772  14.491
33259W        W 1653  18.076  27.680   2.863
33260W        W 1654  13.639  26.525  12.496
33261W        W 1655  12.342   4.356   2.368
33262W        W 1656   0.205  32.976   1.377
33263W        W 1657   2.044  10.428  11.639
33264W        W 1658  31.138  18.671   3.146
33265W        W 1659  14.302  44.798   1.216
33266W        W 1660  28.109   9.328  12.561
33267W        W 1661   1.325  36.988  13.956
33268W        W 1662  31.511  32.317  10.574
33269W        W 1663  34.019  10.042  14.473
33270W        W 1664   9.202  17.779  12.873
33271W        W 1665   1.481  21.746  11.233
33272W        W 1666  27.150   9.191   0.827
33273W        W 1667  38.502   1.348   1.170
33274W        W 1668  21.540  10.623   2.406
33275W        W 1669  22.558  21.695   3.279
33276W        W 1670  19.142   0.763  11.629
33277W        W 1671  16.956  40.422  12.002
33278W        W 1672  29.385  21.314  10.198
33279W        W 1673   1.922  12.063   2.741
33280W        W 1674  20.408  10.598  13.915
33281W        W 1675  32.458  21.169  11.062
33282W        W 1676  18.143  31.872   2.840
33283W        W 1677  37.067  30.519  13.505
33284W        W 1678  17.333   3.482  13.036
33285W        W 1679   9.905  35.582  11.541
33286W        W 1680  23.761  38.152   1.477
33287W        W 1681  16.687  36.942   9.742
33288W        W 1682  33.175  29.524  12.264
33289W        W 1683  29.647  29.477  13.339
33290W        W 1684  39.698   1.892  13.987
33291W        W 1685  30.253  44.313  13.346
33292W        W 1686  40.183   7.539   2.693
33293W        W 1687   7.818   0.977   1.457
33294W        W 1688  32.561  10.000   5.015
33295W        W 1689  34.501  20.440   4.584
33296W        W 1690  34.163  39.973  11.842
33297W        W 1691  23.136  37.525  12.795
33298W        W 1692   3.008  33.338  13.803
33299W        W 1693  41.661  28.729  11.440
33300W        W 1694  30.654  38.409  10.576
33301W        W 1695  24.005   0.765  14.222
33302W        W 1696  36.849  34.087  11.444
33303W        W 1697  28.398   8.281   1.821
33304W        W 1698  18.172  41.409  11.074
33305W        W 1699  40.830  15.442  10.723
33306W        W 1700  26.101   5.674   3.311
33307W        W 1701  39.084  38.022  11.551
33308W        W 1702  10.662  25.564   2.941
33309W        W 1703  10.748  33.168  11.634
33310W        W 1704  16.967   1.224  10.854
33311W        W 1705  35.964  43.706   2.924
33312W        W 1706  11.664   3.438  13.402
33313W        W 1707   8.075  39.212   0.232
33314W        W 1708  23.710  11.916  12.556
33315W        W 1709  19.369  27.424   0.749
33316W        W 1710  11.847  39.935  12.611
33317W        W 1711  41.965  38.193   1.277
33318W        W 1712  38.481  17.942  14.711
33319W        W 1713  32.125  14.243  13.972
33320W        W 1714  44.662  39.340  14.441
33321W        W 1715  27.209   7.828   3.778
33322W        W 1716  24.486  24.030  10.935
33323W        W 1717   3.702  33.468  14.363
33324W        W 1718  33.611  10.378  10.307
33325W        W 1719  32.600  32.342   0.957
33326W        W 1720  27.621   7.416   2.932
33327W        W 1721  19.288  39.904   3.763
33328W        W 1722  31.146  40.365   2.757
33329W        W 1723  43.810   4.625   0.337
33330W        W 1724  12.145  30.176  11.730
33331W        W 1725  19.608   2.205  12.573
33332W        W 1726  19.767  26.109   0.989
33333W        W 1727  43.549   5.392  11.937
33334W        W 1728  24.688  35.033  10.975
33335W        W 1729  41.848  44.080  13.997
33336W        W 1730  18.131   5.702  13.370
33337W        W 1731  13.775  12.296   4.643
33338W        W 1732  30.253  20.463  12.494
33339W        W 1733  10.198  13.103   4.171
33340W        W 1734   7.595  40.421  10.984
33341W        W 1735   3.789  36.539   0.615
33342W        W 1736   8.262  15.279   0.508
33343W        W 1737  38.886  37.732   4.521
33344W        W 1738   7.448  34.617  13.835
33345W        W 1739  40.027  39.578   1.292
33346W        W 1740  30.987   7.790   0.208
33347W        W 1741  18.777  43.503   0.350
33348W        W 1742  33.982   7.862  14.020
33349W        W 1743   5.448  35.563  10.675
33350W        W 1744  11.175  23.688  14.490
33351W        W 1745   8.159   9.691  14.180
33352W        W 1746   5.546  15.456   3.082
33353W        W 1747   2.314  39.811   3.883
33354W        W 1748  29.488  39.330   1.432
33355W        W 1749   6.825  29.702  10.499
33356W        W 1750   3.397  41.802  12.025
33357W        W 1751  23.214  41.579  11.664
33358W        W 1752  39.521  15.873  11.440
33359W        W 1753  25.427  21.283  11.556
33360W        W 1754  33.270  28.180  11.175
33361W        W 1755  13.842  39.310  13.288
33362W        W 1756  34.037  33.174  12.390
33363W        W 1757  40.949   9.143   4.843
33364W        W 1758  41.332   7.890  14.343
33365W        W 1759   2.902  26.848   4.111
33366W        W 1760  11.447  18.805   3.995
33367W        W 1761  40.429  19.095   0.302
33368W        W 1762  15.805   8.832  10.224
33369W        W 1763  17.118  32.486  10.230
33370W        W 1764  29.359  17.806   3.741
33371W        W 1765  17.089  38.561   0.535
33372W        W 1766  33.096  29.052  10.992
33373W        W 1767  30.954  44.108  13.646
33374W        W 1768   3.705  42.397   1.862
33375W        W 1769   2.910  33.435   2.874
33376W        W 1770  31.443  12.401  11.081
33377W        W 1771   5.981  41.346  13.295
33378W        W 1772  36.825  12.415  12.577
33379W        W 1773  44.811  30.522  14.405
33380W        W 1774  16.386  29.773   3.357
33381W        W 1775  38.881  14.868  12.761
33382W        W 1776  12.846  10.819   2.942
33383W        W 1777  10.855  33.100  12.566
33384W        W 1778   3.876  32.071  13.094
33385W        W 1779   6.654  35.105   3.812
33386W        W 1780  30.566  26.685  11.247
33387W        W 1781  16.996  38.458  14.084
33388W        W 1782  16.848  22.990  10.767
33389W        W 1783   3.774  21.636  12.076
33390W        W 1784  23.198  32.031  14.785
33391W        W 1785  44.496  34.856  10.186
33392W        W 1786  31.362  35.493  14.426
33393W        W 1787   0.045  32.214   4.478
33394W        W 1788  12.205   8.663  12.575
33395W        W 1789   6.198  30.478   3.770
33396W        W 1790   6.951  42.592  11.057
33397W        W 1791  44.223  32.811   1.111
33398W        W 1792  20.690   8.546   2.298
33399W        W 1793  44.879  11.749  14.035
33400W        W 1794  22.713  22.830   4.586
33401W        W 1795  32.562  36.338  10.565
33402W        W 1796  16.935  41.789   4.566
33403W        W 1797  29.921  11.618  11.162
33404W        W 1798  19.002  32.475  12.028
33405W        W 1799  35.597  43.754  14.665
33406W        W 1800  41.322   4.856  12.783
33407W        W 1801  28.718  36.493  14.967
33408W        W 1802   2.456   8.063   2.176
33409W        W 1803   5.448  25.580   3.123
33410W        W 1804  21.805  39.329   3.052
33411W        W 1805  36.544  24.590  12.533
33412W        W 1806  29.261  40.580   2.768
33413W        W 1807  24.473  25.145   4.448
33414W        W 1808  22.577  41.803  12.108
33415W        W 1809  41.101  16.637   1.752
33416W        W 1810   5.846  27.539  14.737
33417W        W 1811  25.451  42.771  13.431
33418W        W 1812   4.121  25.188   5.046
33419W        W 1813   9.077  43.146   0.181
33420W        W 1814   2.795  26.647  12.420
33421W        W 1815  28.135  17.653   2.652
33422W        W 1816  23.804  22.685   0.851
33423W        W 1817  44.568  24.367  10.205
33424W        W 1818   8.947  19.511   3.260
33425W        W 1819   0.752  18.321   4.243
33426W        W 1820   8.211  29.981   2.225
33427W        W 1821  43.691  29.655  13.985
33428W        W 1822  32.331   5.588   1.891
33429W        W 1823  27.476  38.720  14.856
33430W        W 1824  18.762   1.468   5.033
33431W        W 1825  42.395   6.384   2.765
33432W        W 1826  24.466  34.308   3.823
33433W        W 1827   9.163   6.583   0.380
33434W        W 1828  37.401   2.453  11.623
33435W        W 1829  42.489  41.502   3.749
33436W        W 1830   6.214  20.861  11.589
33437W        W 1831  31.960  21.198  14.816
33438W        W 1832  36.050  32.623   3.212
33439W        W 1833   8.322  13.781  14.444
33440W        W 1834  31.856   3.862   4.449
33441W        W 1835  30.784  12.546  12.878
33442W        W 1836   9.989  25.856  11.394
33443W        W 1837  21.527  25.458  14.048
33444W        W 1838  29.951  36.979  14.658
33445W        W 1839  40.462   2.626  13.849
33446W        W 1840  41.423  32.229  12.861
33447W        W 1841  21.748  24.907  13.432
33448W        W 1842  38.080  36.930  14.632
33449W        W 1843  44.608   2.841  10.720
33450W        W 1844   4.153  44.549  14.460
33451W        W 1845  18.716   1.909   3.616
33452W        W 1846  22.401  33.309  12.597
33453W        W 1847  35.213  28.155  10.242
33454W        W 1848  27.172  19.083   2.346
33455W        W 1849   9.115  42.930  13.723
33456W        W 1850   5.294  18.309   1.811
33457W        W 1851  38.997  25.243  13.733
33458W        W 1852  36.415  24.559   4.959
33459W        W 1853  37.353  17.215  10.917
33460W        W 1854   3.741   8.349   2.450
33461W        W 1855  29.476  11.865  11.180
33462W        W 1856  17.714   9.190   4.097
33463W        W 1857  18.932  20.600   0.326
33464W        W 1858  21.943  14.665  11.536
33465W        W 1859  14.279  18.041  12.967
33466W        W 1860  12.693  44.827  12.800
33467W        W 1861  29.667  24.539   1.437
33468W        W 1862   0.485  29.145  14.794
33469W        W 1863   4.347   6.449   4.120
33470W        W 1864   9.139  30.410  11.099
33471W        W 1865  13.645   7.442  10.679
33472W        W 1866  24.535  34.423   3.310
33473W        W 1867  15.095  27.891   0.281
33474W        W 1868   9.802  17.883  14.537
33475W        W 1869  32.920  25.178  11.943
33476W        W 1870  26.972  12.353   2.864
33477W        W 1871  12.925  44.537  11.571
33478W        W 1872   4.588  17.255   4.097
33479W        W 1873  35.376  43.533  11.526
33480W        W 1874  39.503  10.857   3.197
33481W        W 1875  26.933  32.161  13.273
33482W        W 1876  26.878  43.578   1.858
33483W        W 1877   9.393  32.396   1.309
33484W        W 1878   6.975  31.170   3.821
33485W        W 1879  16.064  22.266  10.698
33486W        W 1880   6.311  32.397  13.933
33487W        W 1881  34.435  37.213  12.655
33488W        W 1882  10.292  36.364  11.326
33489W        W 1883  17.682  26.413   5.008
33490W        W 1884  20.229  12.663  14.114
33491W        W 1885  34.626   4.854   4.123
33492W        W 1886  20.693  12.136   0.975
33493W        W 1887  40.761   2.425   2.852
33494W        W 1888  23.747  34.901   0.053
33495W        W 1889  42.831  28.726  12.804
33496W        W 1890  39.830  19.556  12.864
33497W        W 1891  14.805  28.727   4.776
33498W        W 1892   8.112  18.772   4.679
33499W        W 1893   7.230  40.038  14.584
33500W        W 1894   4.873  36.864  14.381
33501W        W 1895   0.658  15.507   0.292
33502W        W 1896  21.072  29.180  10.320
33503W        W 1897  42.352  18.349   2.221
33504W        W 1898  15.142  36.617   1.856
33505W        W 1899  39.939  11.827  11.115
33506W        W 1900  15.496  12.922   4.125
33507W        W 1901  28.007   5.545  11.772
33508W        W 1902  12.260  15.309  14.261
33509W        W 1903   7.144  33.508   2.296
33510W        W 1904  21.082   3.978  14.985
33511W        W 1905   9.229   3.633  12.648
33512W        W 1906   9.738  14.478  12.755
33513W        W 1907  11.682  10.457  14.991
33514W        W 1908  42.634  36.936  12.515
33515W        W 1909  30.550  27.905   3.732
33516W        W 1910  24.274  15.357  13.351
33517W        W 1911  37.447  19.904  13.861
33518W        W 1912  33.914  37.879  11.621
33519W        W 1913  24.033  37.525   2.846
33520W        W 1914  24.464  31.003   2.895
33521W        W 1915  27.917  31.217   3.835
33522W        W 1916  21.975   9.254  11.026
33523W        W 1917  32.566  38.928  14.470
33524W        W 1918  20.016   5.239   3.051
33525W        W 1919  25.328  24.591   2.735
33526W        W 1920  40.585  24.072  12.591
33527W        W 1921  24.448  14.864  14.237
33528W        W 1922  33.465  34.390  13.378
33529W        W 1923  37.057  20.621  11.618
33530W        W 1924   3.456  43.716   1.238
33531W        W 1925  28.967  35.375   4.258
33532W        W 1926  23.278  10.383  14.421
33533W        W 1927   2.759   0.427  10.342
33534W        W 1928  26.892  19.793   3.247
33535W        W 1929  29.870  15.604  11.137
33536W        W 1930  24.047   6.821   1.274
33537W        W 1931  33.635  37.802  13.536
33538W        W 1932  30.471  19.707  11.454
33539W        W 1933  36.081  31.002   2.411
33540W        W 1934  19.704  20.257  14.090
33541W        W 1935  32.636   0.787   9.943
33542W        W 1936  30.381   9.385   1.656
33543W        W 1937  24.493  23.833   0.386
33544W        W 1938  17.888  23.435  11.598
33545W        W 1939   7.566  41.242   3.200
33546W        W 1940  20.946  10.815   0.725
33547W        W 1941   8.729  25.710  14.769
33548W        W 1942  28.749  40.524   2.753
33549W        W 1943  27.012  26.049   4.744
33550W        W 1944   3.237  11.913  11.186
33551W        W 1945  37.914  24.461  14.363
33552W        W 1946  35.439   8.569   3.634
33553W        W 1947   0.147  14.729  14.859
33554W        W 1948   6.125   6.488  14.341
33555W        W 1949  33.468  34.543  13.894
33556W        W 1950  26.707   5.249   2.186
33557W        W 1951  29.152  23.669   4.537
33558W        W 1952  20.045  13.611  12.602
33559W        W 1953  10.275  43.811  13.390
33560W        W 1954  20.146   7.443  11.204
33561W        W 1955  38.090  38.670  12.931
33562W        W 1956   2.784  20.201   0.168
33563W        W 1957  15.202  41.503  13.278
33564W        W 1958  17.080  22.549  12.960
33565W        W 1959  29.661   0.973   4.548
33566W        W 1960   7.707  39.511  11.963
33567W        W 1961  27.504  34.877  13.772
33568W        W 1962  15.058  20.442  11.069
33569W        W 1963  11.264   9.130  12.899
33570W        W 1964  13.201  10.481  12.983
33571W        W 1965  26.760  34.903   1.188
33572W        W 1966  15.313  21.098  10.749
33573W        W 1967  20.143  20.490  13.328
33574W        W 1968  18.183   7.142  14.946
33575W        W 1969  14.817   6.662  13.161
33576W        W 1970  16.325   6.684  11.040
33577W        W 1971  24.193  23.568   3.235
33578W        W 1972  18.236  39.347  14.866
33579W        W 1973  40.445  33.930  13.771
33580W        W 1974   5.990  14.840  14.948
33581W        W 1975  42.871  16.175  11.430
33582W        W 1976  42.417  39.469   0.970
33583W        W 1977  38.930  17.515  11.560
33584W        W 1978  19.719  21.796   1.747
33585W        W 1979  17.732  23.669   4.535
33586W        W 1980  28.206   5.218  14.440
33587W        W 1981  18.007  37.401   2.266
33588W        W 1982  35.583   8.072  14.790
33589W        W 1983  37.718  35.834   1.753
33590W        W 1984  28.863  16.850   2.303
33591W        W 1985  38.882   0.414   1.874
33592W        W 1986  33.138  25.791   0.129
33593W        W 1987  13.639  20.248   3.666
33594W        W 1988  42.444  14.706   3.240
33595W        W 1989  35.105  16.007  10.693
33596W        W 1990  28.405  10.405   3.220
33597W        W 1991  40.521  25.607   0.477
33598W        W 1992  25.389  31.314   2.709
33599W        W 1993   8.447  15.512   2.918
33600W        W 1994  28.653  20.556   4.526
33601W        W 1995  34.473  43.417  11.700
33602W        W 1996   7.852  43.510   4.370
33603W        W 1997  18.070   2.556  12.636
33604W        W 1998  29.118  17.722  12.008
33605W        W 1999  35.611  33.247  12.070
33606W        W 2000  16.187  42.895  11.997
33607W        W 2001  34.037  25.584   1.367
33608W        W 2002   7.915  30.311   0.058
33609W        W 2003  11.415   3.266  12.937
33610W        W 2004  24.144  18.026  11.586
33611W        W 2005   9.177  25.709  10.756
33612W        W 2006  30.128  36.200  12.092
33613W        W 2007  25.093   1.132  10.506
33614W        W 2008  30.397   2.964   0.242
33615W        W 2009   3.517  44.315   3.201
33616W        W 2010   4.450  24.721   2.336
33617W        W 2011  22.821   0.502   3.707
33618W        W 2012  16.230  12.316   4.892
33619W        W 2013  37.397  10.314   1.735
33620W        W 2014  20.256  24.166  10.593
33621W        W 2015  31.918  17.259   1.329
33622W        W 2016  28.662   6.205   2.272
33623W        W 2017   1.827  27.316  11.531
33624W        W 2018  16.776  25.325   1.306
33625W        W 2019  16.752  32.388   3.983
33626W        W 2020  43.423  18.463   2.867
33627W        W 2021  43.735  41.358   2.449
33628W        W 2022  29.362  16.939   2.192
33629W        W 2023  30.359  25.462   4.190
33630W        W 2024  43.872  41.877  12.391
33631W        W 2025  39.050  15.562   3.637
33632W        W 2026  30.966  13.423   0.994
33633W        W 2027   9.593   7.180  13.577
33634W        W 2028  27.023  18.588   2.239
33635W        W 2029  44.992  34.558   3.226
33636W        W 2030  22.579  12.553   3.255
33637W        W 2031  39.142  12.723  12.569
33638W        W 2032  34.202   4.250  11.432
33639W        W 2033  26.034   6.896   4.108
33640W        W 2034  33.502  17.661   4.939
33641W        W 2035  12.347  29.854  10.924
33642W        W 2036  34.424  38.093  12.448
33643W        W 2037  12.124  43.366   1.300
33644W        W 2038   3.912  26.373   1.710
33645W        W 2039  44.669  33.045   1.306
33646W        W 2040   5.051  14.618   3.518
33647W        W 2041  42.262  20.644  13.431
33648W        W 2042  12.683  26.930  12.017
33649W        W 2043  32.926  16.641  12.028
33650W        W 2044   9.185  16.040   3.308
33651W        W 2045  35.833  20.304   5.022
33652W        W 2046  16.719  43.340  11.648
33653W        W 2047  15.805  12.152   3.762
33654W        W 2048  24.811  14.096  10.690
33655W        W 2049  18.225  35.406  11.497
33656W        W 2050  20.758  32.935   3.938
33657W        W 2051  25.993  14.788   2.718
33658W        W 2052   5.634  19.796   3.631
33659W        W 2053   6.414   6.671   0.887
33660W        W 2054   8.717  18.214  12.160
33661W        W 2055  43.478  11.662   2.725
33662W        W 2056   0.888   3.064  10.288
33663W        W 2057  30.433  33.898  12.056
33664W        W 2058  18.241  43.146   4.976
33665W        W 2059   3.863  17.662   3.294
33666W        W 2060  21.623  19.414  11.473
33667W        W 2061  36.319  16.304  12.791
33668W        W 2062  40.873   9.597   4.568
33669W        W 2063  29.622  16.779  14.727
33670W        W 2064  34.333   6.293   1.579
33671W        W 2065  32.613  10.817  12.881
33672W        W 2066  44.448   3.403  10.079
33673W        W 2067  29.921   3.712   1.171
33674W        W 2068   1.541  12.476  12.957
33675W        W 2069  29.273  14.904  13.025
33676W        W 2070   2.391  34.039   1.026
33677W        W 2071  15.750   1.953  13.751
33678W        W 2072  29.915  34.621  14.456
33679W        W 2073  32.499  25.098   0.961
33680W        W 2074   3.420  39.925   3.390
33681W        W 2075  33.111   3.398  10.749
33682W        W 2076  30.390   1.956   0.802
33683W        W 2077   0.427  19.764   3.689
33684W        W 2078   0.985   8.150   2.234
33685W        W 2079  34.066  14.011   3.353
33686W        W 2080   7.118  36.429  13.919
33687W        W 2081  39.844  39.371   5.072
33688W        W 2082  40.825   7.300   4.626
33689W        W 2083  42.195   5.977   1.290
33690W        W 2084  15.086  35.771  12.629
33691W        W 2085   0.225  32.576  11.165
33692W        W 2086   9.460  18.943   4.318
33693W        W 2087  42.248   5.067   1.598
33694W        W 2088  40.624   7.208  14.517
33695W        W 2089  17.493   1.951   2.400
33696W        W 2090  10.849  44.382   1.865
33697W        W 2091  18.161  30.587  11.449
33698W        W 2092  39.218  26.595  11.954
33699W        W 2093  12.768  31.629   1.281
33700W        W 2094  36.628  43.400   4.583
33701W        W 2095  33.218  22.028   1.694
33702W        W 2096  18.806  14.689   0.257
33703W        W 2097  32.338  37.533  11.547
33704W        W 2098  34.230  42.063   0.525
33705W        W 2099   8.288   3.042   2.774
33706W        W 2100  21.498  14.126  12.521
33707W        W 2101   6.150  27.219   3.164
33708W        W 2102   4.889  11.054  10.445
33709W        W 2103  12.274  20.102   1.333
33710W        W 2104  38.913  39.025   3.319
33711W        W 2105  24.079  44.301  14.497
33712W        W 2106  19.758  28.350   3.591
33713W        W 2107  32.045  17.962  10.947
33714W        W 2108   5.803  44.877  13.128
33715W        W 2109  14.415   1.878   4.573
33716W        W 2110  35.391  16.086   1.431
33717W        W 2111  33.539   5.352   1.283
33718W        W 2112   8.411  20.614   4.933
33719W        W 2113  22.132  23.513   0.541
33720W        W 2114  43.371  23.525   0.501
33721W        W 2115  23.739  27.512  14.538
33722W        W 2116  42.928  21.624  14.993
33723W        W 2117   9.486  35.146   0.771
33724W        W 2118  36.432  16.692  14.160
33725W        W 2119   7.590  19.642  11.561
33726W        W 2120  30.399  16.769   3.675
33727W        W 2121   6.335  40.442   0.737
33728W        W 2122   2.921  41.353  14.603
33729W        W 2123   2.145  20.307   4.608
33730W        W 2124  25.209  37.045  13.515
33731W        W 2125   8.073   2.395   4.130
33732W        W 2126  36.478  41.261   3.732
33733W        W 2127  11.425  28.881   4.792
33734W        W 2128  27.433  12.593  14.165
33735W        W 2129  32.334  39.040  12.534
33736W        W 2130  16.038  26.375  14.369
33737W        W 2131  18.961  10.678  13.984
33738W        W 2132  21.330  21.634  13.854
33739W        W 2133  18.997  10.133   1.313
33740W        W 2134  10.717  37.055  14.763
33741W        W 2135  28.996  13.394  12.137
33742W        W 2136  18.550  21.468  14.008
33743W        W 2137  27.143  19.611  14.503
33744W        W 2138  42.449  37.567  11.196
33745W        W 2139  10.332  39.362   0.593
33746W        W 2140  12.833  41.273   4.085
33747W        W 2141  26.322  10.329   3.689
33748W        W 2142  20.979  19.513   0.441
33749W        W 2143  24.522  22.110  12.382
33750W        W 2144  13.127   3.297  14.875
33751W        W 2145  29.765   2.971  11.983
33752W        W 2146  31.425  13.238  14.954
33753W        W 2147  40.964  27.202  10.653
33754W        W 2148  14.815   9.274   0.692
33755W        W 2149  28.935  32.122   4.207
33756W        W 2150  24.010  38.037   2.839
33757W        W 2151  37.073  16.582  11.570
33758W        W 2152   5.705  21.014  14.758
33759W        W 2153   4.827   4.893  11.077
33760W        W 2154  17.215  21.688   4.682
33761W        W 2155   7.201  35.386   4.890
33762W        W 2156  29.313  14.271  14.583
33763W        W 2157   6.299  22.202  14.559
33764W        W 2158  42.100   2.342   3.081
33765W        W 2159  17.614  14.358   4.085
33766W        W 2160  39.357   6.872   3.212
33767W        W 2161   6.907  43.246  14.384
33768W        W 2162  44.837   8.899   4.558
33769W        W 2163  42.233  26.672  11.612
33770W        W 2164  40.202  24.518   0.982
33771W        W 2165   3.955  31.616  11.811
33772W        W 2166  17.128  16.886  14.489
33773W        W 2167  23.243  42.372  12.115
33774W        W 2168   9.413  25.820   3.442
33775W        W 2169  25.577   2.361  12.139
33776W        W 2170  38.626  21.039   3.115
33777W        W 2171   8.333  26.058   4.145
33778W        W 2172  38.085   2.998   2.513
33779W        W 2173  44.125   7.699   3.349
33780W        W 2174  33.555   3.366   2.917
33781W        W 2175  36.932   7.019   2.991
33782W        W 2176   7.551  15.506   5.003
33783W        W 2177  15.361  39.047   2.616
33784W        W 2178   1.952  20.392  12.324
33785W        W 2179  16.626  19.518   2.716
33786W        W 2180  10.748  20.303  13.408
33787W        W 2181  13.187   1.306  12.193
33788W        W 2182  40.080   8.367  13.479
33789W        W 2183  37.432  38.862   2.682
33790W        W 2184  43.001  15.086  12.529
33791W        W 2185  34.829  44.279  12.522
33792W        W 2186  41.743  44.859   4.624
33793W        W 2187  42.631   0.269   1.659
33794W        W 2188  20.002  39.757   0.850
33795W        W 2189  30.239  23.327  11.455
33796W        W 2190  39.339  28.649   1.343
33797W        W 2191  15.991  36.596   0.477
33798W        W 2192  18.069   7.353  12.897
33799W        W 2193   6.188  22.177   2.063
33800W        W 2194  16.793  42.706  10.616
33801W        W 2195  22.553  13.660   4.728
33802W        W 2196   7.444   6.288   3.673
33803W        W 2197   1.664  22.275   2.291
33804W        W 2198  39.264  39.527  14.401
33805W        W 2199  27.070  42.415  12.442
33806W        W 2200  31.621  23.734  13.636
33807W        W 2201  20.819  29.086   2.568
33808W        W 2202  30.530  39.876   3.806
33809W        W 2203  21.232  33.530   3.914
33810W        W 2204  14.036  28.463  14.079
33811W        W 2205   3.211  33.326  14.708
33812W        W 2206  12.841  27.848   0.527
33813W        W 2207  22.675  13.583   3.349
33814W        W 2208  17.183  37.613   4.184
33815W        W 2209   1.993  43.820   2.661
33816W        W 2210  40.127  14.439  10.859
33817W        W 2211  24.486  34.195  14.480
33818W        W 2212   8.295   6.258   1.266
33819W        W 2213  11.490  16.791  14.256
33820W        W 2214   3.885  34.128  12.132
33821W        W 2215  16.067  17.755   1.847
33822W        W 2216  35.025  21.409   1.211
33823W        W 2217  10.784   2.423   2.367
33824W        W 2218  36.304   5.426   2.867
33825W        W 2219  39.807  24.067  13.765
33826W        W 2220  25.137   2.855  11.495
33827W        W 2221  25.928  23.982   2.209
33828W        W 2222  32.459   7.045   0.217
33829W        W 2223  37.662  16.747   2.732
33830W        W 2224  29.102  29.530  13.463
33831W        W 2225  12.763  12.560   0.235
33832W        W 2226  37.112   8.318   0.466
33833W        W 2227  43.008  12.577   0.353
33834W        W 2228   9.257   9.293  10.790
33835W        W 2229  25.244  37.953  13.496
33836W        W 2230   6.385  28.165   3.671
33837W        W 2231  10.200  14.234   1.465
33838W        W 2232  32.815  22.171  14.356
33839W        W 2233  44.453  38.524  12.516
33840W        W 2234  42.405   0.753   1.886
33841W        W 2235  27.288   8.417   0.021
33842W        W 2236   1.198   1.883   4.923
33843W        W 2237   6.300   5.373  14.408
33844W        W 2238  27.206  30.580  14.267
33845W        W 2239   3.993  41.772  11.189
33846W        W 2240  36.739  25.510   2.740
33847W        W 2241  27.455   6.784  13.477
33848W        W 2242   1.823  11.693  11.859
33849W        W 2243  21.679   4.473  12.445
33850W        W 2244  20.640  37.845  12.345
33851W        W 2245   5.189  34.990   1.563
33852W        W 2246   3.306  27.898  12.578
33853W        W 2247  32.396  22.764   0.981
33854W        W 2248   9.188  28.015  10.554
33855W        W 2249   6.460  27.430  13.533
33856W        W 2250  31.500  16.637  14.004
33857W        W 2251   8.169  23.643   1.779
33858W        W 2252  18.719  37.466  10.811
33859W        W 2253  40.623  20.497   3.178
33860W        W 2254  29.980   7.815   1.316
33861W        W 2255  29.448  18.347  13.414
33862W        W 2256  35.425  11.774   0.339
33863W        W 2257  28.930  13.726  14.984
33864W        W 2258   9.455  38.629  11.419
33865W        W 2259  10.434  40.500   0.383
33866W        W 2260  20.797  37.905  13.855
33867W        W 2261  39.757   7.924  12.208
33868W        W 2262  15.145  38.410   3.820
33869W        W 2263  35.858  44.468   3.273
33870W        W 2264  40.835  23.973   1.474
33871W        W 2265  22.077  23.546  14.031
33872W        W 2266  14.274  23.513  12.106
33873W        W 2267  25.989  43.746   4.421
33874W        W 2268  14.268  44.447  12.051
33875W        W 2269  10.663  22.943  11.506
33876W        W 2270  13.810  17.546  12.360
33877W        W 2271   9.726  40.620  14.949
33878W        W 2272  38.517  14.677   0.197
33879W        W 2273  44.467  39.335   2.791
33880W        W 2274  22.254   9.297   3.256
33881W        W 2275   9.638  12.763   1.847
33882W        W 2276  44.848   4.283  12.810
33883W        W 2277  42.273  39.797  14.329
33884W        W 2278  14.685  40.292  11.116
33885W        W 2279   6.330   1.828   1.912
33886W        W 2280  22.509  19.418  10.761
33887W        W 2281  27.520  20.445   3.193
33888W        W 2282  41.004   6.457  10.851
33889W        W 2283  27.615   1.759  13.784
33890W        W 2284  31.777   2.302   3.612
33891W        W 2285  41.260  44.924  12.080
33892W        W 2286  43.480  18.706   0.968
33893W        W 2287  28.135   9.419  13.432
33894W        W 2288   8.409  29.878  12.295
33895W        W 2289  13.697   1.758  11.683
33896W        W 2290  14.683  40.840  12.077
33897W        W 2291  12.839  24.178  10.937
33898W        W 2292  20.034  38.939   1.210
33899W        W 2293   7.389  13.507  12.936
33900W        W 2294  38.882  42.936  13.402
33901W        W 2295  23.606  29.941   2.186
33902W        W 2296  27.956  16.571   0.661
33903W        W 2297  10.735  17.544   0.469
33904W        W 2298  29.095  18.409   3.663
33905W        W 2299  27.667  36.118  10.668
33906W        W 2300  30.840  38.027   0.024
33907W        W 2301  24.547   0.516  13.342
33908W        W 2302  40.980  39.437  11.371
33909W        W 2303  44.521  32.303   3.662
33910W        W 2304  39.386  17.312  13.145
33911W        W 2305  39.320  26.863   0.942
33912W        W 2306  20.032   1.751  11.922
33913W        W 2307   0.341   9.774  11.574
33914W        W 2308  34.652  24.434   2.049
33915W        W 2309  14.812  33.121   0.036
33916W        W 2310  35.993  42.117  14.949
33917W        W 2311  13.817   0.127   4.122
33918W        W 2312  17.362  36.692  10.213
33919W        W 2313  22.216  22.635  13.754
33920W        W 2314  20.238  18.978   1.334
33921W        W 2315   4.444  19.044  11.072
33922W        W 2316  13.053  22.464  11.473
33923W        W 2317  29.569  11.689   3.609
33924W        W 2318  43.579  30.961  12.159
33925W        W 2319   9.813  32.424  12.052
33926W        W 2320  27.108   9.213  11.227
33927W        W 2321  43.504  20.704  10.838
33928W        W 2322  29.135   2.083   0.367
33929W        W 2323  23.535  43.932   2.388
33930W        W 2324  28.535  21.092  13.339
33931W        W 2325  10.680   2.909  11.552
33932W        W 2326  10.241  15.326   0.814
33933W        W 2327  42.916  12.767  11.891
33934W        W 2328  30.656  19.660  13.277
33935W        W 2329   8.474  15.665   2.437
33936W        W 2330  19.248  16.891   0.395
33937W        W 2331  40.664  22.613   4.182
33938W        W 2332  21.007  26.456  13.659
33939W        W 2333   2.893  11.296  10.656
33940W        W 2334  37.892   2.858   5.010
33941W        W 2335   3.368  10.714   1.935
33942W        W 2336   6.606   4.907   2.531
33943W        W 2337  15.310   1.998   3.260
33944W        W 2338  41.322  41.558   3.205
33945W        W 2339  20.240   4.494  13.394
33946W        W 2340  42.734   0.256   2.167
33947W        W 2341  40.395  36.368   1.011
33948W        W 2342   0.992  29.532   4.605
33949W        W 2343  21.041  29.021   3.539
33950W        W 2344  17.666  26.709   2.355
33951W        W 2345   9.558  27.612  12.514
33952W        W 2346  33.509  28.173   3.890
33953W        W 2347  16.078  11.264   3.530
33954W        W 2348  34.963  20.576   1.461
33955W        W 2349   1.845   9.803   2.278
33956W        W 2350  15.118  16.157   0.275
33957W        W 2351  36.053   9.613   1.954
33958W        W 2352  20.215  11.752   0.351
33959W        W 2353  23.093  22.244  13.364
33960W        W 2354  39.331  26.699   2.321
33961W        W 2355  39.727   7.790  14.434
33962W        W 2356   6.783  35.580   1.194
33963W        W 2357  43.940   0.793  12.048
33964W        W 2358  15.804  40.807  11.560
33965W        W 2359  19.764  23.664  12.559
33966W        W 2360  28.069  42.800  12.610
33967W        W 2361  44.756  44.539  11.067
33968W        W 2362  44.406  28.362  10.685
33969W        W 2363  20.183  15.036   4.220
33970W        W 2364   2.381  20.895   1.551
33971W        W 2365  35.396  29.906   4.249
33972W        W 2366  14.655  20.051   4.572
33973W        W 2367  30.476  17.167   1.315
33974W        W 2368  42.965   3.938  14.509
33975W        W 2369  28.358   6.248   1.841
33976W        W 2370   7.752   1.234   3.786
33977W        W 2371  43.442  35.490  14.282
33978W        W 2372   3.316  18.795   3.714
33979W        W 2373  26.582  27.001   2.388
33980W        W 2374  37.240  13.368  11.512
33981W        W 2375   2.908  26.588   1.879
33982W        W 2376   1.946   0.884   2.680
33983W        W 2377   1.997  32.705  11.248
33984W        W 2378  31.427  13.617  13.572
33985W        W 2379  11.689  43.248   2.131
33986W        W 2380  30.491  44.470   4.353
33987W        W 2381  22.247  30.956  11.628
33988W        W 2382   1.875   5.392  13.948
33989W        W 2383  12.150   3.204   3.240
33990W        W 2384   9.998  15.694  14.897
33991W        W 2385  30.087   1.215  12.453
33992W        W 2386  24.065  12.912  14.021
33993W        W 2387  36.951  19.224   2.277
33994W        W 2388  22.468  28.643   4.109
33995W        W 2389  33.173  20.563  13.770
33996W        W 2390   3.385  30.605  12.619
33997W        W 2391  25.671  21.315  12.035
33998W        W 2392  13.061  31.422  11.036
33999W        W 2393   1.672  19.272  11.573
34000W        W 2394  22.321  32.466   2.439
34001W        W 2395  26.021  38.778  10.432
34002W        W 2396  26.964  17.608  13.801
34003W        W 2397   6.354  21.828   2.809
34004W        W 2398  38.890  39.079  12.978
34005W        W 2399  41.389  33.996  12.785
34006W        W 2400  42.258  24.486   0.889
34007W        W 2401  17.490   8.619   1.778
34008W        W 2402  12.080  13.554  13.417
34009W        W 2403  39.394  15.577  10.512
34010W        W 2404  30.640  17.885   4.046
34011W        W 2405   3.988  34.384   3.265
34012W        W 2406  44.887  29.044   4.253
34013W        W 2407  26.520  32.326   0.778
34014W        W 2408  34.559  27.457   4.305
34015W        W 2409  24.057  25.533   1.042
34016W        W 2410  28.580  18.522   3.677
34017W        W 2411  25.462   5.344   3.575
34018W        W 2412  41.307  11.908  10.747
34019W        W 2413  27.499  15.514   0.010
34020W        W 2414  43.801   9.839   1.463
34021W        W 2415  14.702  34.953   3.635
34022W        W 2416  36.342  23.798  14.995
34023W        W 2417  35.703  12.106  14.580
34024W        W 2418  12.723  42.334  12.339
34025W        W 2419  14.105  22.699   2.495
34026W        W 2420  44.795   3.275  10.485
34027W        W 2421  24.480  17.246  12.597
34028W        W 2422  37.494  21.260  14.309
34029W        W 2423  35.580  13.733  12.121
34030W        W 2424  15.800  31.172  11.176
34031W        W 2425   3.237  26.437  12.645
34032W        W 2426  28.949  20.121  11.268
34033W        W 2427   4.379  28.505   3.271
34034W        W 2428   8.593  36.583  12.132
34035W        W 2429   0.798  42.287   1.896
34036W        W 2430  31.929  42.383  11.565
34037W        W 2431  31.396  29.734  12.091
34038W        W 2432   1.281  32.346   0.860
34039W        W 2433  39.550  31.612  13.544
34040W        W 2434  43.260  11.516   2.274
34041W        W 2435  19.529   6.680   1.814
34042W        W 2436  22.605   0.267   4.696
34043W        W 2437   8.764  37.875  14.740
34044W        W 2438   2.760  34.975   1.054
34045W        W 2439  29.728  18.755  13.530
34046W        W 2440  34.591  43.190   0.171
34047W        W 2441  36.145   3.365  11.773
34048W        W 2442  14.750  22.536  12.378
34049W        W 2443  18.382  32.678   3.248
34050W        W 2444   2.112   2.546  14.972
34051W        W 2445  31.465   1.916   3.718
34052W        W 2446  19.548   7.135  11.501
34053W        W 2447  37.611  36.962   0.911
34054W        W 2448  40.767   8.716   4.591
34055W        W 2449  40.330  25.027  13.579
34056W        W 2450  29.625  38.154  13.077
34057W        W 2451  37.380   2.815  14.406
34058W        W 2452  30.413  36.291  11.669
34059W        W 2453  41.057  11.417  12.490
34060W        W 2454  21.228  44.822   3.208
34061W        W 2455  19.530  34.292  11.330
34062W        W 2456  30.045  15.722  14.808
34063W        W 2457  38.366  25.039  11.290
34064W        W 2458   1.635  19.151  13.013
34065W        W 2459  16.069  35.058  12.973
34066W        W 2460   5.328   7.170  11.889
34067W        W 2461  26.981  36.949   3.603
34068W        W 2462   7.655   2.173  12.175
34069W        W 2463  42.511  36.226   3.699
34070W        W 2464  11.917  34.374   3.352
34071W        W 2465  20.108   4.015  11.956
34072W        W 2466  20.258  18.373  11.115
34073W        W 2467  25.590  15.847   1.843
34074W        W 2468  35.274   1.962   1.251
34075W        W 2469  30.954   1.700   4.143
34076W        W 2470   2.503  33.653   9.840
34077W        W 2471  32.132  22.171  12.984
34078W        W 2472   1.700   6.230  13.101
34079W        W 2473  15.251  39.907   1.867
34080W        W 2474   0.304  13.350   0.379
34081W        W 2475  23.954  32.336  14.444
34082W        W 2476  38.485  11.760   0.872
34083W        W 2477  19.074  38.481  11.356
34084W        W 2478  20.940  11.750   2.618
34085W        W 2479  10.649  29.224  10.993
34086W        W 2480  13.363  43.808  11.379
34087W        W 2481   2.508  29.109  14.938
34088W        W 2482  13.354  13.497   3.754
34089W        W 2483  36.147  16.297  14.367
34090W        W 2484  38.544  28.501  14.948
34091W        W 2485  10.289  23.243  13.893
34092W        W 2486   8.917   9.049  11.584
34093W        W 2487  41.786  17.972  12.297
34094W        W 2488  20.095  43.885   2.701
34095W        W 2489  10.251  40.491  10.674
34096W        W 2490   7.747  14.226  13.595
34097W        W 2491  41.515   3.935   4.571
34098W        W 2492  14.561  29.166   4.657
34099W        W 2493  26.087  38.095  11.187
34100W        W 2494  33.397  20.512   3.190
34101W        W 2495  25.504  37.270  12.620
34102W        W 2496  15.639  18.194  11.081
34103W        W 2497  34.629  28.280   0.949
34104W        W 2498  44.661  34.033  12.990
34105W        W 2499  29.484  44.862   3.740
34106W        W 2500  29.983   4.938  11.188
34107W        W 2501  29.562   8.318   3.578
34108W        W 2502  22.787  35.684  12.614
34109W        W 2503  44.367  22.533  11.840
34110W        W 2504  18.718  17.731  12.979
34111W        W 2505  44.012  17.605   0.543
34112W        W 2506   7.848  17.153  10.978
34113W        W 2507  13.668  33.288   2.840
34114W        W 2508  28.651  35.545   3.444
34115W        W 2509  33.009  25.786   1.418
34116W        W 2510  35.518  39.916   2.932
34117W        W 2511   3.785  39.362  10.905
34118W        W 2512  12.393  24.972  12.014
34119W        W 2513  29.789  37.388  12.463
34120W        W 2514  35.138  37.762   4.287
34121W        W 2515   4.227  43.553   0.710
34122W        W 2516  29.494  22.956  13.996
34123W        W 2517  17.688  33.865   3.568
34124W        W 2518   5.799  10.211  11.452
34125W        W 2519   7.480   6.256   2.132
34126W        W 2520  19.829  11.459  11.550
34127W        W 2521   4.245  26.127   1.326
34128W        W 2522  34.167  27.957   2.247
34129W        W 2523  14.194   3.124   1.419
34130W        W 2524  29.215  29.701  10.823
34131W        W 2525  39.783  27.890   3.569
34132W        W 2526  44.478  37.298   2.915
34133W        W 2527  19.048  33.909   0.736
34134W        W 2528  12.147   7.910  11.668
34135W        W 2529  31.413  30.197   1.137
34136W        W 2530  40.742  16.715   3.557
34137W        W 2531  20.135  17.533  14.182
34138W        W 2532  38.412  10.186  10.384
34139W        W 2533  37.065  21.311   1.776
34140W        W 2534  35.919   5.938  13.324
34141W        W 2535  18.884  14.436  12.560
34142W        W 2536   5.244  24.307   3.519
34143W        W 2537  29.604   1.894   0.402
34144W        W 2538   5.196   3.180  11.090
34145W        W 2539  31.355  44.934   2.652
34146W        W 2540  32.203  20.425  10.875
34147W        W 2541  18.249  17.597  11.609
34148W        W 2542  43.727  34.409  13.203
34149W        W 2543  35.057  35.447   1.156
34150W        W 2544  43.773   7.924  12.071
34151W        W 2545  34.525  40.882   1.878
34152W        W 2546  25.697  42.886   4.027
34153W        W 2547  35.027  17.122   0.235
34154W        W 2548  26.256  31.416  14.177
34155W        W 2549  18.254  30.140   1.871
34156W        W 2550  18.578   3.760   4.161
34157W        W 2551  15.731  38.029   1.781
34158W        W 2552  35.481  16.646  14.442
34159W        W 2553  12.700  37.349   2.171
34160W        W 2554   5.488   9.898  12.147
34161W        W 2555  14.371  24.222  13.448
34162W        W 2556  16.614  29.664  14.897
34163W        W 2557  21.167  36.881   2.163
34164W        W 2558  30.522   6.750  12.466
34165W        W 2559  14.875  15.360   1.573
34166W        W 2560  29.314   6.813  14.478
34167W        W 2561  12.748  21.160   3.835
34168W        W 2562  44.450  23.498  11.509
34169W        W 2563  43.058  26.977   4.126
34170W        W 2564  20.040  25.456   5.226
34171W        W 2565  10.124   7.424  11.718
34172W        W 2566  43.838  34.943   0.700
34173W        W 2567  32.912  42.970   3.781
34174W        W 2568  36.305  35.797   1.951
34175W        W 2569  10.177   4.012  10.981
34176W        W 2570  26.680  41.028  12.977
34177W        W 2571  19.819  20.768  11.913
34178W        W 2572  39.875  15.371  10.480
34179W        W 2573  30.044  21.949   2.718
34180W        W 2574   8.364  32.134   1.291
34181W        W 2575   4.453   8.582  12.403
34182W        W 2576   3.985   3.374  12.021
34183W        W 2577  31.464  24.014   2.711
34184W        W 2578  41.486  40.547  11.264
34185W        W 2579  34.039  42.821   0.799
34186W        W 2580  17.598  43.498   2.873
34187W        W 2581  26.434  35.937  13.943
34188W        W 2582   7.709   8.302  13.607
34189W        W 2583  16.397  33.171  14.616
34190W        W 2584  29.669  42.393  11.942
34191W        W 2585   6.268  15.765   0.025
34192W        W 2586  19.716  13.283   2.654
34193W        W 2587  11.960  10.921  12.491
34194W        W 2588   9.104  29.727   0.362
34195W        W 2589  29.611  22.544   2.633
34196W        W 2590   5.997   6.658   0.282
34197W        W 2591  33.198   1.278   0.040
34198W        W 2592   6.202   1.905   2.841
34199W        W 2593  31.489  44.518   3.351
34200W        W 2594  43.798  26.576  14.805
34201W        W 2595  32.070  43.724   0.807
34202W        W 2596   5.418   5.697  14.480
34203W        W 2597  17.416  38.778   3.104
34204W        W 2598  35.766  36.491   3.332
34205W        W 2599   1.748  17.988  13.945
34206W        W 2600  17.992  38.510   1.769
34207W        W 2601  41.645   9.438   3.200
34208W        W 2602  42.969   9.899  11.099
34209W        W 2603   0.225   5.206   1.982
34210W        W 2604   7.566  28.680  11.533
34211W        W 2605  23.644  26.287   3.670
34212W        W 2606  29.341   7.999  12.175
34213W        W 2607   9.326  37.639   1.970
34214W        W 2608  35.018  33.064   4.892
34215W        W 2609   9.129  31.523  11.149
34216W        W 2610  27.911  20.203  12.012
34217W        W 2611  23.963  11.019  12.685
34218W        W 2612  21.162  24.550   4.718
34219W        W 2613   7.058  44.107  11.210
34220W        W 2614  23.634   9.212  14.552
34221W        W 2615  13.590  10.647  10.611
34222W        W 2616  41.439  31.613  13.608
34223W        W 2617  31.925  29.133  10.774
34224W        W 2618   3.508  12.575  10.311
34225W        W 2619  37.810  31.610  11.493
34226W        W 2620  20.583  15.459  10.124
34227W        W 2621  17.997  38.486  13.948
34228W        W 2622  22.873   9.191   2.150
34229W        W 2623  39.127   1.917   0.243
34230W        W 2624  34.825  16.224   3.645
34231W        W 2625  26.248  39.372  12.511
34232W        W 2626  26.393  44.805  14.162
34233W        W 2627   6.858  25.235   2.195
34234W        W 2628  35.917  41.799   2.187
34235W        W 2629   1.909  13.387   1.882
34236W        W 2630  31.187  36.653  10.743
34237W        W 2631  20.786  20.430   4.130
34238W        W 2632  42.500  17.415   0.331
34239W        W 2633  35.528   2.938   3.137
34240W        W 2634  25.544  15.299   1.914
34241W        W 2635  40.621  27.325  13.370
34242W        W 2636  27.615  20.810   2.197
34243W        W 2637   9.856  23.714  14.771
34244W        W 2638  44.974   6.894   3.588
34245W        W 2639  35.576  15.740   1.833
34246W        W 2640  22.463  25.761   0.696
34247W        W 2641  17.992  26.937   0.491
34248W        W 2642  28.637  15.115  10.391
34249W        W 2643  30.941  23.533  10.350
34250W        W 2644  23.113  37.324   0.391
34251W        W 2645  44.487  41.997  13.956
34252W        W 2646  38.756  33.993  13.123
34253W        W 2647   0.056   6.256  11.325
34254W        W 2648  12.185   9.381   1.697
34255W        W 2649   4.415   6.968  14.945
34256W        W 2650  36.422  38.428  10.979
34257W        W 2651  25.613   1.865  14.288
34258W        W 2652   1.167  34.376   2.387
34259W        W 2653   6.050  16.171   3.587
34260W        W 2654  37.860  32.885  12.068
34261W        W 2655  43.702   7.135  12.550
34262W        W 2656  29.418  44.421  12.875
34263W        W 2657  20.053  25.992   4.526
34264W        W 2658  23.742   7.175  14.793
34265W        W 2659  34.255  18.684   0.963
34266W        W 2660  20.602   7.377  10.610
34267W        W 2661  33.804  28.366  11.175
34268W        W 2662  39.413  39.034   3.725
34269W        W 2663   1.484  41.704   2.142
34270W        W 2664  12.100  42.019   3.805
34271W        W 2665   7.772   6.326   5.535
34272W        W 2666  19.800   5.869  13.573
34273W        W 2667  17.269  10.818  14.462
34274W        W 2668  22.654   1.245   4.756
34275W        W 2669   0.872  44.192   1.208
34276W        W 2670  39.678  10.267  10.717
34277W        W 2671  34.337  40.656  12.354
34278W        W 2672   9.830   3.412   0.401
34279W        W 2673  38.812   9.885  10.543
34280W        W 2674   3.421  18.574   2.318
34281W        W 2675   8.967   9.747  10.829
34282W        W 2676  32.143   2.326   4.369
34283W        W 2677  25.677  19.942   2.817
34284W        W 2678  13.697  34.090  13.772
34285W        W 2679  19.993   5.685  14.977
34286W        W 2680  16.700  37.070  14.938
34287W        W 2681  23.534  37.695   1.287
34288W        W 2682  15.985   3.908   2.162
34289W        W 2683  24.024  41.364   1.244
34290W        W 2684  35.194  26.905  13.852
34291W        W 2685  28.382  40.205   0.247
34292W        W 2686   2.379  31.112  13.225
34293W        W 2687  19.741  14.948  14.318
34294W        W 2688  31.538  25.582   2.393
34295W        W 2689  26.432  37.294   0.914
34296W        W 2690  11.534  38.590  13.461
34297W        W 2691  23.076  17.288   0.001
34298W        W 2692   5.312  13.646   0.938
34299W        W 2693   4.720  17.153   0.874
34300W        W 2694  17.482  43.257   3.865
34301W        W 2695   1.477  29.776  10.731
34302W        W 2696  35.437  21.171  12.487
34303W        W 2697  14.676  44.441  14.551
34304W        W 2698  11.211  28.349  13.992
34305W        W 2699  20.826  16.763   9.842
34306W        W 2700  34.639  37.939  14.344
34307W        W 2701  18.393  10.416  13.724
34308W        W 2702  31.825  32.517   1.410
34309W        W 2703   9.886   6.447   3.893
34310W        W 2704  44.423  22.042  13.990
34311W        W 2705  14.164  29.194   1.813
34312W        W 2706  24.482  15.812   1.920
34313W        W 2707  39.107   3.974   3.252
34314W        W 2708  25.065  12.321  14.364
34315W        W 2709  12.698  40.531   1.434
34316W        W 2710  35.875  44.408  11.514
34317W        W 2711  38.974  37.209   0.483
34318W        W 2712  40.524   4.458   1.994
34319W        W 2713  40.282  31.702   0.404
34320W        W 2714   5.275  30.959   1.771
34321W        W 2715  34.892  29.833   3.457
34322W        W 2716  25.180   2.774  10.557
34323W        W 2717  14.595  19.011   1.334
34324W        W 2718   5.033  31.453   0.829
34325W        W 2719   7.540   4.281   0.753
34326W        W 2720  42.936  38.389  13.531
34327W        W 2721  17.596  11.549   0.895
34328W        W 2722  36.385   4.875  14.832
34329W        W 2723  34.575   5.664  12.926
34330W        W 2724  39.566   3.909   2.899
34331W        W 2725  15.624  26.404   3.186
34332W        W 2726  19.086  24.440   3.188
34333W        W 2727  10.158  37.910   4.995
34334W        W 2728  15.262  21.132  14.846
34335W        W 2729  37.375  16.062  13.160
34336W        W 2730   6.519  10.827  13.940
34337W        W 2731  17.975  33.530   3.306
34338W        W 2732  42.467  22.678   3.118
34339W        W 2733  30.418   3.025   4.157
34340W        W 2734  22.632  31.080  10.603
34341W        W 2735   3.692   3.002  13.642
34342W        W 2736   7.730   2.166  14.866
34343W        W 2737  33.984  24.736  11.609
34344W        W 2738   7.978  43.512  13.046
34345W        W 2739   8.002  21.149  11.071
34346W        W 2740  35.690  38.575  12.055
34347W        W 2741   9.652   3.804   3.692
34348W        W 2742  40.724  40.815   2.447
34349W        W 2743  34.703  31.434  11.502
34350W        W 2744  25.020  25.137   4.303
34351W        W 2745  24.031  14.391  13.506
34352W        W 2746  26.590  42.998  12.501
34353W        W 2747  32.800   1.392  12.462
34354W        W 2748   3.991  41.411   4.206
34355W        W 2749   0.775  38.461   0.960
34356W        W 2750  38.827   6.904  13.804
34357W        W 2751  36.466  38.040   3.532
34358W        W 2752  38.562  18.201   3.085
34359W        W 2753   7.149  18.782   0.702
34360W        W 2754  12.889  42.459   3.876
34361W        W 2755  25.155  21.163   4.063
34362W        W 2756  36.873  24.588   4.698
34363W        W 2757   9.973  23.202   2.802
34364W        W 2758   2.939  22.214  10.938
34365W        W 2759  16.840  17.245  12.076
34366W        W 2760   0.844  38.154   2.431
34367W        W 2761  37.362  13.702  12.697
34368W        W 2762  20.760  42.295   0.319
34369W        W 2763  22.919  24.031   1.381
34370W        W 2764  26.488  14.747   4.455
34371W        W 2765  15.016  11.707  13.962
34372W        W 2766  22.631  44.789   0.823
34373W        W 2767  13.177   2.349   4.380
34374W        W 2768  42.529  18.567   4.645
34375W        W 2769  10.180   7.797   0.317
34376W        W 2770  35.907  37.855   1.781
34377W        W 2771  18.657  37.301   1.777
34378W        W 2772  36.608  41.959   4.239
34379W        W 2773  42.213  18.190  10.070
34380W        W 2774  27.568  44.793   1.166
34381W        W 2775  20.697  12.130   1.474
34382W        W 2776  13.058  17.195  11.008
34383W        W 2777  31.636   7.253   4.672
34384W        W 2778  31.593  42.831   3.565
34385W        W 2779   6.951   6.254   2.736
34386W        W 2780  41.303  12.505  14.919
34387W        W 2781  11.661  15.125  10.420
34388W        W 2782  16.791  25.762   4.149
34389W        W 2783  15.503  20.211  11.199
34390W        W 2784   8.615   1.473   0.996
34391W        W 2785  14.775   2.634   1.928
34392W        W 2786  30.589  41.988  13.664
34393W        W 2787  38.128  23.209   4.576
34394W        W 2788  25.079  39.458  14.562
34395W        W 2789  10.116   7.733  12.910
34396W        W 2790  12.365  14.350  10.724
34397W        W 2791  11.480  23.217  13.474
34398W        W 2792  23.725  26.139  14.296
34399W        W 2793  30.418  33.903   2.811
34400W        W 2794  12.253  43.416   4.820
34401W        W 2795  28.130  13.508   0.530
34402W        W 2796  12.264   3.142   0.067
34403W        W 2797  42.946  31.370   4.023
34404W        W 2798   9.077  44.954   3.693
34405W        W 2799  22.690   7.909   0.908
34406W        W 2800  21.662  24.146  10.735
34407W        W 2801  26.008  31.018   2.774
34408W        W 2802   6.962  11.434  14.606
34409W        W 2803   4.303  30.534   4.593
34410W        W 2804  31.130  37.142  10.891
34411W        W 2805  19.207   4.487   4.862
34412W        W 2806  42.684  34.477  14.943
34413W        W 2807  42.443  22.062  14.457
34414W        W 2808  23.106  17.691  12.550
34415W        W 2809  43.931   7.013  13.921
34416W        W 2810  43.348   2.424  14.082
34417W        W 2811  20.812  22.140   2.251
34418W        W 2812  21.310   8.542   3.896
34419W        W 2813  41.515  40.447   3.702
34420W        W 2814  16.505   2.970   0.402
34421W        W 2815  29.431  30.792  12.419
34422W        W 2816  42.947  28.557  14.728
34423W        W 2817  40.281   3.966  11.570
34424W        W 2818  33.547  38.028   2.533
34425W        W 2819  33.456  29.384  13.030
34426W        W 2820   4.700  25.056   1.251
34427W        W 2821  38.152  13.023  11.665
34428W        W 2822  35.137  22.324  14.462
34429W        W 2823  22.011  30.276  13.590
34430W        W 2824  44.948  36.342  13.446
34431W        W 2825   4.926  23.942   4.297
34432W        W 2826  38.043   0.097  11.087
34433W        W 2827  22.692  28.180   4.058
34434W        W 2828  17.100  36.485   5.314
34435W        W 2829   0.463  31.041   0.796
34436W        W 2830  21.823  41.930  13.322
34437W        W 2831  29.558  44.538   1.730
34438W        W 2832  35.364   4.997  13.224
34439W        W 2833  19.209  43.494  10.701
34440W        W 2834  33.651   0.002   1.473
34441W        W 2835   8.985  32.877  10.020
34442W        W 2836   7.868  26.602   1.387
34443W        W 2837  12.563  20.145   1.781
34444W        W 2838   4.832   0.177   2.892
34445W        W 2839  31.671  39.804   2.176
34446W        W 2840  36.296  35.595  13.306
34447W        W 2841  39.359  44.890  12.438
34448W        W 2842   1.913   7.212  13.063
34449W        W 2843  34.414  29.557   1.660
34450W        W 2844  28.165   0.473   0.698
34451W        W 2845  17.409  19.822  12.493
34452W        W 2846  34.350  10.165  14.845
34453W        W 2847  23.060  10.785  13.716
34454W        W 2848  13.250  36.619  11.573
34455W        W 2849   5.254  25.768  12.916
34456W        W 2850   9.305  22.468   3.127
34457W        W 2851   7.374  19.547  12.379
34458W        W 2852  17.624   3.900   1.292
34459W        W 2853  28.505  29.467   0.740
34460W        W 2854  23.327  38.939   1.809
34461W        W 2855   4.843  35.149   4.800
34462W        W 2856  33.087   4.756   2.103
34463W        W 2857  24.740   7.023   1.747
34464W        W 2858  32.836  24.636  14.539
34465W        W 2859  17.593  11.676  11.024
34466W        W 2860  32.978  23.668  14.157
34467W        W 2861  33.032  10.292  14.510
34468W        W 2862  31.165   0.796   2.291
34469W        W 2863  38.335   7.728   4.216
34470W        W 2864  11.943  36.397  14.071
34471W        W 2865   3.967  37.972   0.517
34472W        W 2866  40.363  26.395  14.844
34473W        W 2867   6.014  15.178   0.474
34474W        W 2868  19.070  20.754  13.471
34475W        W 2869   7.971  28.694   2.788
34476W        W 2870  11.884  40.254   1.652
34477W        W 2871  26.102  17.397   1.962
34478W        W 2872  41.753  28.962  14.307
34479W        W 2873   2.905  10.899  14.419
34480W        W 2874  31.623  22.686   4.860
34481W        W 2875  32.988  30.621  14.828
34482W        W 2876  18.696  38.405  14.227
34483W        W 2877   9.800  30.275  14.853
34484W        W 2878   3.830  21.116  12.056
34485W        W 2879  26.463   0.988   4.967
34486W        W 2880  42.956  37.793  12.653
34487W        W 2881  18.757   7.148  12.966
34488W        W 2882  43.862  32.143   2.730
34489W        W 2883  14.225  39.521  13.862
34490W        W 2884  38.470  27.985  14.968
34491W        W 2885  19.934   0.749   3.732
34492W        W 2886  34.427  12.261   4.549
34493W        W 2887   3.939  35.182   4.270
34494W        W 2888  33.880   9.172  14.292
34495W        W 2889   8.451  11.350  11.600
34496W        W 2890  36.689   1.912   5.011
34497W        W 2891   4.339  10.327   4.492
34498W        W 2892  11.001   8.077  12.866
34499W        W 2893  43.874   5.603   1.990
34500W        W 2894   1.579  29.763  14.379
34501W        W 2895  29.691  21.163  12.021
34502W        W 2896  18.638  14.642  10.918
34503W        W 2897  41.405  27.086  11.755
34504W        W 2898  24.732  40.795  11.971
34505W        W 2899   1.397   6.384   0.294
34506W        W 2900  44.049   0.391  11.659
34507W        W 2901  11.764  26.508   3.435
34508W        W 2902   6.611   5.254  13.384
34509W        W 2903  11.221  29.986  11.996
34510W        W 2904  41.482  34.412  13.886
34511W        W 2905  34.261  42.368   3.647
34512W        W 2906  24.884  10.665   3.701
34513W        W 2907  33.971   3.907  13.532
34514W        W 2908  31.196  31.906  14.871
34515W        W 2909  10.266  36.304   2.714
34516W        W 2910   8.774  23.105   3.736
34517W        W 2911   1.873  16.069   4.150
34518W        W 2912  38.696  15.453   0.789
34519W        W 2913  28.412  38.836  12.232
34520W        W 2914   7.793  22.099  13.938
34521W        W 2915  18.314  33.344  12.625
34522W        W 2916   7.884  23.056  14.948
34523W        W 2917  31.012  31.818   1.753
34524W        W 2918  25.140  30.664   1.672
34525W        W 2919  41.415  22.774   1.709
34526W        W 2920  34.995  23.428   4.163
34527W        W 2921   6.382  22.553  13.936
34528W        W 2922   4.438  20.005   1.095
34529W        W 2923   7.873   9.438   0.765
34530W        W 2924  20.857   6.646  13.456
34531W        W 2925  21.561  11.123  14.300
34532W        W 2926  44.245  24.109  14.204
34533W        W 2927  30.059  44.397   3.573
34534W        W 2928  25.346  39.334   1.395
34535W        W 2929   4.216  13.327  11.383
34536W        W 2930   7.584   2.432   1.186
34537W        W 2931  27.754  35.400   3.350
34538W        W 2932   0.533  40.383  13.081
34539W        W 2933  22.107   8.388  11.550
34540W        W 2934  17.412  40.375   0.234
34541W        W 2935  11.140   5.410  14.011
34542W        W 2936  13.203  11.141   0.243
34543W        W 2937   8.875   7.021  10.624
34544W        W 2938  22.122  36.007   0.027
34545W        W 2939  19.697  17.614  11.103
34546W        W 2940   8.747  12.161   3.652
34547W        W 2941   0.414  20.016   4.265
34548W        W 2942  35.920  43.011   4.274
34549W        W 2943   3.924  41.501  10.607
34550W        W 2944  26.064  38.997  14.520
34551W        W 2945  38.503   3.686  13.370
34552W        W 2946   6.689   8.929   5.017
34553W        W 2947  17.877   1.701  12.489
34554W        W 2948  22.602  13.660   3.853
34555W        W 2949  43.908  32.784  13.725
34556W        W 2950   9.408  39.359  12.147
34557W        W 2951   8.840   3.254   5.290
34558W        W 2952  42.431  19.299  12.190
34559W        W 2953   7.418  34.923   1.026
34560W        W 2954  18.715   1.411   3.310
34561W        W 2955   6.652   5.819  10.839
34562W        W 2956  35.521  14.412   2.075
34563W        W 2957  39.349  15.496  12.417
34564W        W 2958   4.923  29.087   3.690
34565W        W 2959  12.647  31.654   2.590
34566W        W 2960  24.148  27.907   4.505
34567W        W 2961  33.064   5.852  11.905
34568W        W 2962  19.177  40.430   1.230
34569W        W 2963   6.937   7.366   3.698
34570W        W 2964  10.352  26.209  10.651
34571W        W 2965  12.372  20.437   4.670
34572W        W 2966  34.335  13.537  12.136
34573W        W 2967  13.793  10.326  11.748
34574W        W 2968   6.740  11.392   2.638
34575W        W 2969  10.725   7.925   1.458
34576W        W 2970  12.656  39.200   4.080
34577W        W 2971  25.627  33.881   4.235
34578W        W 2972  12.076   6.594  11.184
34579W        W 2973  19.056   6.650  13.841
34580W        W 2974  44.005  39.068  10.671
34581W        W 2975  35.841  37.506  10.744
34582W        W 2976  16.715   4.748  10.744
34583W        W 2977  23.651   5.406   1.285
34584W        W 2978  12.206  16.254  14.469
34585W        W 2979  17.781  15.192   4.394
34586W        W 2980  44.388   0.854  11.101
34587W        W 2981   4.488  44.407  11.013
34588W        W 2982   6.209   2.179   5.622
34589W        W 2983   6.522   6.633   1.723
34590W        W 2984   6.188  37.875  13.552
34591W        W 2985   8.655   2.371   1.503
34592W        W 2986  37.319   9.894   1.291
34593W        W 2987  24.083  20.981   0.797
34594W        W 2988  36.364  22.670  12.558
34595W        W 2989  39.445  25.042   1.297
34596W        W 2990  41.038  29.024   4.421
34597W        W 2991  31.826  21.937   4.560
34598W        W 2992  13.304   2.491   1.827
34599W        W 2993   6.499  36.587  14.389
34600W        W 2994  11.554   8.019   4.852
34601W        W 2995  10.938  20.484   4.453
34602W        W 2996   5.358   9.808  10.726
34603W        W 2997   4.470   1.321  14.283
34604W        W 2998  12.469  33.956   3.625
34605W        W 2999   7.380  30.923  11.725
34606W        W 3000  34.514   2.875   0.876
34607W        W 3001  21.000  16.965   0.574
34608W        W 3002  35.601  43.088  11.397
34609W        W 3003  36.535  33.419   2.201
34610W        W 3004  37.610  20.527   0.671
34611W        W 3005  16.759  22.121   0.241
34612W        W 3006   6.670   4.978  12.954
34613W        W 3007  24.669  38.025   2.309
34614W        W 3008  35.568  17.595   1.397
34615W        W 3009  17.032  42.973   2.652
34616W        W 3010   4.713  12.857   2.887
34617W        W 3011  18.668  10.628   0.741
34618W        W 3012  11.240   9.790  12.401
34619W        W 3013   0.318  34.395   3.608
34620W        W 3014   8.072  32.718   0.832
34621W        W 3015  10.355  17.437   2.634
34622W        W 3016  32.768  35.455  12.847
34623W        W 3017  37.421  35.581  12.665
34624W        W 3018  39.771  31.356   1.304
34625W        W 3019  23.939  40.466   1.768
34626W        W 3020   4.122   4.117   5.384
34627W        W 3021  28.383  23.161   4.717
34628W        W 3022  42.890   7.701   4.927
34629W        W 3023  15.305   1.442  11.298
34630W        W 3024  28.013  35.030  10.120
34631W        W 3025   0.479  16.957   2.780
34632W        W 3026  34.849  12.365   4.244
34633W        W 3027  40.491  39.954  14.760
34634W        W 3028   6.484  16.617   4.990
34635W        W 3029  39.939  22.429  12.014
34636W        W 3030  39.081  40.907  14.468
34637W        W 3031  14.675  26.643  12.195
34638W        W 3032  37.965   8.722   1.586
34639W        W 3033  26.896   2.361   3.803
34640W        W 3034  16.167  12.342   2.318
34641W        W 3035  40.466  15.014  12.089
34642W        W 3036   1.193   5.825   3.996
34643W        W 3037   0.990  11.070   2.665
34644W        W 3038  25.478   1.876  12.313
34645W        W 3039  27.418  19.632   0.311
34646W        W 3040   4.488  19.902   2.775
34647W        W 3041  10.085  17.563  13.388
34648W        W 3042   2.083  21.087  10.584
34649W        W 3043  33.655  40.702  10.761
34650W        W 3044   0.851  14.673   1.745
34651W        W 3045  40.981  18.443   4.762
34652W        W 3046  27.014  34.957   3.171
34653W        W 3047  34.545  39.317   4.608
34654W        W 3048  31.274   2.407   3.693
34655W        W 3049  25.806  16.753  13.931
34656W        W 3050   4.318  43.702   4.220
34657W        W 3051  42.511  35.531  10.446
34658W        W 3052  31.587  31.936   0.237
34659W        W 3053  10.451   9.896   1.877
34660W        W 3054  11.199  36.366  14.507
34661W        W 3055   9.680  34.675  11.518
34662W        W 3056  41.983  42.875   4.945
34663W        W 3057  34.900   2.464  12.497
34664W        W 3058  25.428  20.585  11.172
34665W        W 3059  31.004  13.336  12.650
34666W        W 3060  24.100  16.227   3.285
34667W        W 3061  19.620  16.128  13.397
34668W        W 3062   3.282  18.054  12.057
34669W        W 3063   3.704  43.264  12.604
34670W        W 3064  20.401   9.759  10.617
34671W        W 3065  38.500  22.143  13.773
34672W        W 3066  26.205  22.236   1.787
34673W        W 3067  32.632   6.343   2.646
34674W        W 3068  13.907  23.494   0.251
34675W        W 3069  35.480   0.086   1.820
34676W        W 3070  41.766  38.318   3.708
34677W        W 3071   6.697  26.611  12.505
34678W        W 3072   4.059  40.736  11.035
34679W        W 3073   4.863  29.812   4.149
34680W        W 3074   6.586  16.863   1.803
34681W        W 3075  13.817   1.510  13.523
34682W        W 3076  10.375  11.657   0.425
34683W        W 3077   5.953  13.899  12.290
34684W        W 3078  12.755  15.775  11.891
34685W        W 3079  14.336  30.955  11.105
34686W        W 3080  14.663  34.169   4.262
34687W        W 3081  18.735  11.049   2.841
34688W        W 3082  16.719  32.825  14.863
34689W        W 3083   8.182  10.689  12.296
34690W        W 3084  30.529  27.564   3.197
34691W        W 3085  16.531   6.025  12.089
34692W        W 3086  13.905  10.569  14.926
34693W        W 3087   2.457  17.524  14.998
34694W        W 3088  36.081  30.069   2.840
34695W        W 3089  20.040  23.612   3.161
34696W        W 3090  40.003  30.755   3.112
34697W        W 3091   4.426  36.399   1.830
34698W        W 3092   4.841   8.933  13.483
34699W        W 3093   1.231   0.821   2.117
34700W        W 3094   6.491  15.877  12.795
34701W        W 3095   6.157  30.448   4.897
34702W        W 3096  44.827   2.864  14.051
34703W        W 3097  21.572  26.368  12.537
34704W        W 3098  18.219  34.139   2.331
34705W        W 3099  42.524  31.875  12.218
34706W        W 3100  33.620  20.613  12.032
34707W        W 3101  40.449  11.200  13.083
34708W        W 3102  11.446   7.947  14.023
34709W        W 3103   7.359   6.650   4.380
34710W        W 3104  31.037  28.420   2.915
34711W        W 3105  25.642   9.696   4.952
34712W        W 3106   9.874  19.027  12.486
34713W        W 3107  25.717   6.269   4.305
34714W        W 3108  19.334   7.714   0.384
34715W        W 3109  22.746  22.489  11.930
34716W        W 3110   8.886   3.831   3.139
34717W        W 3111  34.879  11.433  10.690
34718W        W 3112   6.390  28.959   1.969
34719W        W 3113  40.704  36.017  10.717
34720W        W 3114  21.331  32.939   4.657
34721W        W 3115  31.043  27.471   3.241
34722W        W 3116  19.830  19.253  12.503
34723W        W 3117  11.604  30.088  11.630
34724W        W 3118  18.080  29.972  14.983
34725W        W 3119  43.036  42.265   1.414
34726W        W 3120  29.209  10.701  13.423
34727W        W 3121  22.384  32.789   4.952
34728W        W 3122  20.245   1.707   0.231
34729W        W 3123   2.150  39.735  14.070
34730W        W 3124  17.337  37.154  13.556
34731W        W 3125  30.625  17.965  11.255
34732W        W 3126  22.904  15.308  12.668
34733W        W 3127  38.213  40.147  13.812
34734W        W 3128   0.760  32.404  13.970
34735W        W 3129  26.904  35.007   1.804
34736W        W 3130  23.527  28.080  12.286
34737W        W 3131  30.079  21.413   0.938
34738W        W 3132  37.313   2.480   0.178
34739W        W 3133   2.901   1.917  11.423
34740W        W 3134   5.224   6.412  12.879
34741W        W 3135  13.604  19.667  11.946
34742W        W 3136  40.218  40.797   3.732
34743W        W 3137   0.377   6.603   2.337
34744W        W 3138  27.839  40.428   1.708
34745W        W 3139  24.061  36.483  14.278
34746W        W 3140  12.718  15.055   2.703
34747W        W 3141  43.683   9.017   1.723
34748W        W 3142  40.048  14.306  12.433
34749W        W 3143   3.651   6.793   0.678
34750W        W 3144   3.183  34.922  13.007
34751W        W 3145  31.007  33.862  11.225
34752W        W 3146  31.662  11.368  12.065
34753W        W 3147  43.522  38.524   3.333
34754W        W 3148  43.928  28.596   0.234
34755W        W 3149   2.947  22.084  11.436
34756W        W 3150  23.807  38.393  14.662
34757W        W 3151  20.027  17.684   2.246
34758W        W 3152   8.789   1.006  12.250
34759W        W 3153  39.607  32.624  11.680
34760W        W 3154   0.860  40.061   0.446
34761W        W 3155  10.275   8.578  11.193
34762W        W 3156  10.175  27.260   1.638
34763W        W 3157  17.651   7.286  13.808
34764W        W 3158  36.916  17.493  11.028
34765W        W 3159  16.676   7.394  10.366
34766W        W 3160  24.786  40.017   1.984
34767W        W 3161  12.140  25.530   0.547
34768W        W 3162  39.394  34.851  14.024
34769W        W 3163   8.386  34.083  13.477
34770W        W 3164  29.533  16.660   1.778
34771W        W 3165  12.849   8.822  13.341
34772W        W 3166  14.759  39.384   4.678
34773W        W 3167   3.219   9.306  14.073
34774W        W 3168  10.753  22.920   2.593
34775W        W 3169  20.597   4.657  14.266
34776W        W 3170   4.417  17.055  12.834
34777W        W 3171  32.288   3.116  12.626
34778W        W 3172   7.750  10.663   2.648
34779W        W 3173   0.911  16.699   2.629
34780W        W 3174  35.348  22.456   2.653
34781W        W 3175  37.341  26.301  10.876
34782W        W 3176  37.872   2.570   2.341
34783W        W 3177  23.468  34.162   1.798
34784W        W 3178   7.955   4.933   1.384
34785W        W 3179  33.084  37.076   0.007
34786W        W 3180  38.366  30.744  14.973
34787W        W 3181   7.865  27.949  13.380
34788W        W 3182  29.588  23.633   2.737
34789W        W 3183   7.382  29.147  11.661
34790W        W 3184  27.139   0.717  12.922
34791W        W 3185  17.580  42.310   0.016
34792W        W 3186  26.405  26.055  10.920
34793W        W 3187  29.028  42.902   2.435
34794W        W 3188   1.463  12.732   1.572
34795W        W 3189  37.957  27.190   4.515
34796W        W 3190  12.585   8.499   3.264
34797W        W 3191  36.900   2.490   4.400
34798W        W 3192  24.237  36.427   1.276
34799W        W 3193  38.107  14.905  14.493
34800W        W 3194  34.543   6.118   2.021
34801W        W 3195  25.346  42.960   4.592
34802W        W 3196   9.721  28.442   4.592
34803W        W 3197  38.549  14.778   1.893
34804W        W 3198  18.291  17.733   0.860
34805W        W 3199  33.389  42.076  12.041
34806W        W 3200  22.120  22.533  13.275
34807W        W 3201  39.296   7.763  11.469
34808W        W 3202  21.757  11.849  13.343
34809W        W 3203  33.794  31.611  12.589
34810W        W 3204   1.386  14.858  11.023
34811W        W 3205  12.567  42.078   1.186
34812W        W 3206   3.210   7.855   4.588
34813W        W 3207  38.890   9.284  13.697
34814W        W 3208   0.556  19.613   4.549
34815W        W 3209  10.789   4.026   0.645
34816W        W 3210  20.667  43.074   1.301
34817W        W 3211  35.588  44.374   3.759
34818W        W 3212   5.797  10.894   0.787
34819W        W 3213  43.537  17.681  13.540
34820W        W 3214  35.312  29.434  12.494
34821W        W 3215  32.578   9.617   1.744
34822W        W 3216  33.558   4.153  14.711
34823W        W 3217  32.124  28.732   2.589
34824W        W 3218  32.097   8.450   3.706
34825W        W 3219  34.465  29.385  14.327
34826W        W 3220  14.282  34.612   1.162
34827W        W 3221  14.147  38.573   0.740
34828W        W 3222   4.014   8.618  11.849
34829W        W 3223  38.563  12.452   2.009
34830W        W 3224  10.482  20.068  12.197
34831W        W 3225   3.254  32.779  12.137
34832W        W 3226  17.201  26.576  10.120
34833W        W 3227   7.507   8.262   1.165
34834W        W 3228   4.327  18.526  12.615
34835W        W 3229  23.984  24.210  14.023
34836W        W 3230  24.843   7.301  13.530
34837W        W 3231   3.448  17.090  10.135
34838W        W 3232   3.497  39.373  11.621
34839W        W 3233   1.673   3.796   3.997
34840W        W 3234  29.399  33.600   0.708
34841W        W 3235  30.885   7.889  13.819
34842W        W 3236   3.423  44.230   2.223
34843W        W 3237  19.757  27.100  13.994
34844W        W 3238  36.467  15.988   2.285
34845W        W 3239  12.695   8.242   2.838
34846W        W 3240   4.413  41.084   0.642
34847W        W 3241  18.609  39.295   3.629
34848W        W 3242   2.942  29.830  11.602
34849W        W 3243  41.339  30.692   1.213
34850W        W 3244  17.425  32.850  13.808
34851W        W 3245  36.429  32.700   1.862
34852W        W 3246   8.217   1.978  13.924
34853W        W 3247   3.947  24.604   3.528
34854W        W 3248  23.628   1.829   1.988
34855W        W 3249  30.916   1.528  12.065
34856W        W 3250  42.355  43.340  10.713
34857W        W 3251  11.679  11.090  10.727
34858W        W 3252  25.477  19.069  13.320
34859W        W 3253  37.055  37.378  11.105
34860W        W 3254  37.488  15.547  14.329
34861W        W 3255  20.972  34.862  10.769
34862W        W 3256  11.583  26.651  14.331
34863W        W 3257   3.317  22.893   4.575
34864W        W 3258  13.779  38.929   0.686
34865W        W 3259  17.957   4.823   2.318
34866W        W 3260  18.935  19.284   2.156
34867W        W 3261  38.617  42.560   3.271
34868W        W 3262  44.660  31.325   3.591
34869W        W 3263  22.207  28.820  11.416
34870W        W 3264  44.189   3.890  13.402
34871W        W 3265  29.576  33.555  12.237
34872W        W 3266  26.265  41.873  11.059
34873W        W 3267  25.327  24.517  11.564
34874W        W 3268  21.677   2.711  11.088
34875W        W 3269  43.081  22.043  14.728
34876W        W 3270  18.873  17.018  14.285
34877W        W 3271   4.856   5.712  14.504
34878W        W 3272  15.523  18.812  11.126
34879W        W 3273  40.498  43.410  14.720
34880W        W 3274  22.703   9.911   4.507
34881W        W 3275   6.962  18.669  11.053
34882W        W 3276  23.558  43.042  12.605
34883W        W 3277  12.799  11.343  14.899
34884W        W 3278   9.749  39.751  11.145
34885W        W 3279  36.233  10.625   0.536
34886W        W 3280  19.760  44.454  12.069
34887W        W 3281  28.613  15.390   1.776
34888W        W 3282   9.695  24.044   1.409
34889W        W 3283  11.345   5.825  12.331
34890W        W 3284  23.123   1.275  14.394
34891W        W 3285  29.736   8.314  12.035
34892W        W 3286  18.732   1.843   2.718
34893W        W 3287  22.461  12.146   3.552
34894W        W 3288  42.939  22.686  12.531
34895W        W 3289  21.397  30.903   0.852
34896W        W 3290  15.833  26.054   1.333
34897W        W 3291  21.782   0.062   1.278
34898W        W 3292  24.463  17.147   2.408
34899W        W 3293   5.378  33.964  13.989
34900W        W 3294  25.900  36.783   2.683
34901W        W 3295   4.276  35.301  10.987
34902W        W 3296  31.927  14.633  11.676
34903W        W 3297  25.992  25.025   4.676
34904W        W 3298  18.500  37.981   4.098
34905W        W 3299  24.080  15.733   0.149
34906W        W 3300  41.379  34.512  14.381
34907W        W 3301   5.218  36.742  12.470
34908W        W 3302  26.884   5.580  14.345
34909W        W 3303   4.932  10.847   0.672
34910W        W 3304  12.137   0.282   3.751
34911W        W 3305   3.853  21.259  13.018
34912W        W 3306  20.588  13.121   0.732
34913W        W 3307  17.924  41.525   1.830
34914W        W 3308  27.628  31.122  10.669
34915W        W 3309  27.531  17.512  14.883
34916W        W 3310  19.719  21.708  11.712
34917W        W 3311  42.200  16.336   1.972
34918W        W 3312  38.609  41.652  12.991
34919W        W 3313  29.584  19.203  11.605
34920W        W 3314  15.088  16.765   1.937
34921W        W 3315   0.445  38.802  11.511
34922W        W 3316   4.581  28.950  12.657
34923W        W 3317  13.218  12.380   2.250
34924W        W 3318   1.277  34.101   4.156
34925W        W 3319  18.251  14.387  11.188
34926W        W 3320  16.809  26.575  12.606
34927W        W 3321  13.825  15.626   1.332
34928W        W 3322  21.141  43.468   0.691
34929W        W 3323  16.698  25.343   2.671
34930W        W 3324  14.207   7.193   1.409
34931W        W 3325  41.412   0.815  10.498
34932W        W 3326  17.220  41.956   2.447
34933W        W 3327  20.751  37.494  10.363
34934W        W 3328  19.322  36.113  13.884
34935W        W 3329  19.840  34.890   3.641
34936W        W 3330  12.389  28.165  12.646
34937W        W 3331  15.688  12.190   2.432
34938W        W 3332  19.433  10.252  14.336
34939W        W 3333  42.912  26.519   3.856
34940W        W 3334  19.396  14.246  10.928
34941W        W 3335  41.362  35.862   1.470
34942W        W 3336  29.296  43.311  10.944
34943W        W 3337   4.739  22.571  13.953
34944W        W 3338   5.891  20.675   0.431
34945W        W 3339  15.291  23.179  13.965
34946W        W 3340  19.064  43.071  10.997
34947W        W 3341   1.308  15.058   2.239
34948W        W 3342   4.659  14.069  13.468
34949W        W 3343  18.343  12.694   1.529
34950W        W 3344   7.778  12.828   3.189
34951W        W 3345  41.888   8.604  11.154
34952W        W 3346  28.930  10.695  12.994
34953W        W 3347  28.051  22.329   4.958
34954W        W 3348  44.535  24.752   3.414
34955W        W 3349  26.636  29.429  13.027
34956W        W 3350   3.846  23.457  13.445
34957W        W 3351  33.492   5.931  14.462
34958W        W 3352  42.465  34.490  11.379
34959W        W 3353  10.772  31.086  10.615
34960W        W 3354  25.601   0.971   1.019
34961W        W 3355  19.259  14.242   2.596
34962W        W 3356   8.267  21.336  13.831
34963W        W 3357  15.534   2.959   2.371
34964W        W 3358  33.729  22.583   5.069
34965W        W 3359  16.201  43.397   4.860
34966W        W 3360   4.421   1.956  14.977
34967W        W 3361  38.508   8.221  10.851
34968W        W 3362   1.995  11.169   1.771
34969W        W 3363   2.936  38.448   1.849
34970W        W 3364  38.606  17.219  13.107
34971W        W 3365   5.780  21.016   4.262
34972W        W 3366   7.402  20.622   2.992
34973W        W 3367  18.885  17.051   4.007
34974W        W 3368  14.415  41.340   2.453
34975W        W 3369  16.251  42.547  14.868
34976W        W 3370  39.890  40.344  14.426
34977W        W 3371  26.027  17.604  13.403
34978W        W 3372  41.931   9.168   0.978
34979W        W 3373  42.105  30.636   3.377
34980W        W 3374  33.016  36.556  10.361
34981W        W 3375  38.901  43.745   3.317
34982W        W 3376  38.877  22.371  13.374
34983W        W 3377   6.835  10.695   4.652
34984W        W 3378  22.639  32.602   1.299
34985W        W 3379  20.895   6.294  11.168
34986W        W 3380  32.505  10.235  14.376
34987W        W 3381  22.202  34.487  10.790
34988W        W 3382  11.743  10.164  11.311
34989W        W 3383  10.847  30.295   4.108
34990W        W 3384  17.764   5.975  13.639
34991W        W 3385  19.636  31.502   1.568
34992W        W 3386  21.393  10.761  12.103
34993W        W 3387  17.963   5.179   2.751
34994W        W 3388  29.067  17.857   2.303
34995W        W 3389  26.770  10.744   4.965
34996W        W 3390  27.685  35.881  14.163
34997W        W 3391  21.984   8.922   0.338
34998W        W 3392  26.512   2.788   2.472
34999W        W 3393   9.842  44.327   3.825
35000W        W 3394  19.044   5.778  14.923
35001W        W 3395  16.645   7.453  11.247
35002W        W 3396  32.463   2.765  13.588
35003W        W 3397  24.695  14.421  14.366
35004W        W 3398  44.002   3.758  12.059
35005W        W 3399   1.562  13.293  10.896
35006W        W 3400  35.162  39.040  11.162
35007W        W 3401  15.090  23.188  12.974
35008W        W 3402  38.497   6.681  14.576
35009W        W 3403  40.007  26.096  13.071
35010W        W 3404  27.666  10.367   1.912
35011W        W 3405  29.837   5.792  10.550
35012W        W 3406  28.703   2.055  10.966
35013W        W 3407   5.596   0.859  14.064
35014W        W 3408  33.801   0.301   0.273
35015W        W 3409  28.063  22.204   4.332
35016W        W 3410   3.003  44.408  10.603
35017W        W 3411  40.421  43.899   1.085
35018W        W 3412  41.830   3.439   3.742
35019W        W 3413  23.311  24.523  10.704
35020W        W 3414   1.244   5.241   4.554
35021W        W 3415  26.642  19.634   0.956
35022W        W 3416   8.334  17.222   1.713
35023W        W 3417   8.298  26.911   1.472
35024W        W 3418  31.567  34.700   2.214
35025W        W 3419  33.018  22.134   4.818
35026W        W 3420  34.808  11.776  14.411
35027W        W 3421  10.441  12.290   1.958
35028W        W 3422  19.262   3.476  13.869
35029W        W 3423   6.668  12.852   3.231
35030W        W 3424   5.227  39.511  13.988
35031W        W 3425   5.670  44.443  13.378
35032W        W 3426  34.008  24.489  12.883
35033W        W 3427  22.775   2.419  11.426
35034W        W 3428  33.518  34.230  14.880
35035W        W 3429  27.492  31.420  12.039
35036W        W 3430  17.093  31.018   3.124
35037W        W 3431   9.504  44.250  11.292
35038W        W 3432  17.019  36.900   5.012
35039W        W 3433   4.111  14.630   2.663
35040W        W 3434  19.576  15.395  14.091
35041W        W 3435   8.685  32.696   1.706
35042W        W 3436  29.873  15.805   2.435
35043W        W 3437  23.954  28.375  10.336
35044W        W 3438  43.331  16.099   2.731
35045W        W 3439  19.584  21.660  14.008
35046W        W 3440   6.660  11.071  14.387
35047W        W 3441  39.811   6.266   1.685
35048W        W 3442   7.767  29.519   2.647
35049W        W 3443  10.687   6.774  12.096
35050W        W 3444   9.512  27.765  10.202
35051W        W 3445  30.072  27.079   1.400
35052W        W 3446  25.030  23.550  11.440
35053W        W 3447   8.883  39.428   4.195
35054W        W 3448   7.868  11.411   0.919
35055W        W 3449   2.796   9.895  13.407
35056W        W 3450  20.781  35.907   3.625
35057W        W 3451  41.681  18.318   4.256
35058W        W 3452   4.537  38.703  10.336
35059W        W 3453  15.103   1.281  12.498
35060W        W 3454  38.861  11.880  13.013
35061W        W 3455  16.263  12.389   3.933
35062W        W 3456  26.753  44.935  12.417
35063W        W 3457  39.228  27.973  13.336
35064W        W 3458  19.765   7.111   4.396
35065W        W 3459  32.136  14.642  13.662
35066W        W 3460  20.030  25.121   9.844
35067W        W 3461  22.577  28.224  14.570
35068W        W 3462  41.504  19.782  14.851
35069W        W 3463  24.919  28.343   2.081
35070W        W 3464  27.617  38.005   4.272
35071W        W 3465  19.096   5.212   0.353
35072W        W 3466  39.346   8.799  11.671
35073W        W 3467  34.894  28.704   0.217
35074W        W 3468  27.597  27.211   0.381
35075W        W 3469   6.524  13.612   4.513
35076W        W 3470   6.750   6.761  14.724
35077W        W 3471  37.926  14.327  13.120
35078W        W 3472  13.441  37.544  13.555
35079W        W 3473  15.063   1.908   3.734
35080W        W 3474  29.414  42.893   1.203
35081W        W 3475  39.554  41.362   0.073
35082W        W 3476  32.894  41.496   3.886
35083W        W 3477  31.972  23.562  13.000
35084W        W 3478  36.121  25.545  12.708
35085W        W 3479  42.425  26.754   5.091
35086W        W 3480  22.323  34.927   4.337
35087W        W 3481  42.403  43.832  13.971
35088W        W 3482  41.694  39.413  14.537
35089W        W 3483  12.979  41.194   2.204
35090W        W 3484  33.485  43.605  13.794
35091W        W 3485  35.015  24.971  11.220
35092W        W 3486   0.056  11.133   3.063
35093W        W 3487   4.665  15.005  12.530
35094W        W 3488  37.116  23.026   3.615
35095W        W 3489   1.663   3.999  10.777
35096W        W 3490   8.946  33.419  14.048
35097W        W 3491  31.632  29.261  13.378
35098W        W 3492   8.858  40.793  12.335
35099W        W 3493  11.638  37.669  12.499
35100W        W 3494  37.871  29.850  12.617
35101W        W 3495  36.387  10.305  14.680
35102W        W 3496  36.328   9.790  10.597
35103W        W 3497  35.396  25.401  12.457
35104W        W 3498  44.246   2.101   2.628
35105W        W 3499  30.026  34.399   3.688
35106W        W 3500  23.509  36.664   1.626
35107W        W 3501  31.717   6.861  13.377
35108W        W 3502   7.230  31.142   3.381
35109W        W 3503  36.578  40.286   4.626
35110W        W 3504   7.158   3.810  12.361
35111W        W 3505  17.564  13.296   1.826
35112W        W 3506  36.419   0.796   4.361
35113W        W 3507  23.945  17.190  13.911
35114W        W 3508  36.532   9.674   3.645
35115W        W 3509  20.813  14.692   0.080
35116W        W 3510  10.679  26.952  12.929
35117W        W 3511  19.025  14.162   4.301
35118W        W 3512   7.228  11.259   2.764
35119W        W 3513  35.585  15.625  13.442
35120W        W 3514   2.644  33.409   3.897
35121W        W 3515  42.340  25.835   2.680
35122W        W 3516   6.037   0.269  13.433
35123W        W 3517  43.235  18.102   5.037
35124W        W 3518  29.975   5.934   3.116
35125W        W 3519  18.209  14.860  13.082
35126W        W 3520   6.858  31.089   0.868
35127W        W 3521  36.857   6.150  13.955
35128W        W 3522  17.110  18.642   2.422
35129W        W 3523  19.663   2.927  11.267
35130W        W 3524   6.635   1.614  11.524
35131W        W 3525   6.935  33.544   4.833
35132W        W 3526  10.406  17.322   0.863
35133W        W 3527  33.410  41.994   2.739
35134W        W 3528  23.022  27.177   3.067
35135W        W 3529  22.536   4.214   4.233
35136W        W 3530  31.133  39.108  11.944
35137W        W 3531  20.710  19.156   3.975
35138W        W 3532   7.400  20.551   1.255
35139W        W 3533  28.296  17.004   0.825
35140W        W 3534   3.208  10.895  10.583
35141W        W 3535  38.961  41.874  13.356
35142W        W 3536  25.275  36.454   1.511
35143W        W 3537  39.586  18.655  14.460
35144W        W 3538   6.463  13.098   0.923
35145W        W 3539   2.496  11.372   2.131
35146W        W 3540  23.554  36.493   0.696
35147W        W 3541  11.817  24.669   0.946
35148W        W 3542   2.380  30.645   3.280
35149W        W 3543  38.762  30.183   0.235
35150W        W 3544   1.635  41.279   1.900
35151W        W 3545  11.337  25.261   2.307
35152W        W 3546   3.324  16.304   4.564
35153W        W 3547  16.141   2.742  13.445
35154W        W 3548  33.577  31.527   1.803
35155W        W 3549  16.249  41.332  14.266
35156W        W 3550   0.011  14.006  12.377
35157W        W 3551  23.247  15.829  14.161
35158W        W 3552  14.351  23.786  12.551
35159W        W 3553  23.570   3.000  14.930
35160W        W 3554  39.406  26.146  12.054
35161W        W 3555  33.973   5.337  10.754
35162W        W 3556  37.948   6.968  13.894
35163W        W 3557  41.228  29.592  10.519
35164W        W 3558  40.904  30.037   3.409
35165W        W 3559   3.762   0.549  13.079
35166W        W 3560  28.633  11.643   0.197
35167W        W 3561   9.748  35.559  14.881
35168W        W 3562  20.730  40.802   3.390
35169W        W 3563  38.982  42.437  12.513
35170W        W 3564  37.527   4.262   1.184
35171W        W 3565  17.357  30.435  12.971
35172W        W 3566  12.438   6.405   1.385
35173W        W 3567  10.223   3.858  14.753
35174W        W 3568  31.812   2.747   2.801
35175W        W 3569   1.417   2.247   1.188
35176W        W 3570  28.693  38.962  14.544
35177W        W 3571  41.488  13.108  13.419
35178W        W 3572  16.332  25.619  14.312
35179W        W 3573   2.233  38.376   2.437
35180W        W 3574   8.865  44.882  14.856
35181W        W 3575   5.209  27.577   4.124
35182W        W 3576  12.313  21.337   4.181
35183W        W 3577  24.593  33.636   0.924
35184W        W 3578  41.012  41.979   1.861
35185W        W 3579  40.110  23.637   1.349
35186W        W 3580  41.007  24.109   0.554
35187W        W 3581  36.608   0.454   0.970
35188W        W 3582   2.523  39.849   3.408
35189W        W 3583  24.588   1.584   9.770
35190W        W 3584  21.067  31.526  13.293
35191W        W 3585  25.509  29.475   2.250
35192W        W 3586  15.001   8.891   2.332
35193W        W 3587   2.862  19.319   4.121
35194W        W 3588  36.877  25.918   3.961
35195W        W 3589  32.980   3.326   1.969
35196W        W 3590  15.063   7.934  12.048
35197W        W 3591  25.881  18.515   3.317
35198W        W 3592   9.343  18.620  12.037
35199W        W 3593   5.989   9.180  12.231
35200W        W 3594   3.896  34.890  10.333
35201W        W 3595  11.939  26.124   0.990
35202W        W 3596   4.152  19.058  14.895
35203W        W 3597   1.815  15.117  11.153
35204W        W 3598  24.971  37.392   3.081
35205W        W 3599   9.256  41.894   2.370
35206W        W 3600  13.088  16.458   0.163
35207W        W 3601  34.323   3.280  11.514
35208W        W 3602   1.828  31.977   0.158
35209W        W 3603  32.123  14.855   0.193
35210W        W 3604  16.639  13.721  14.489
35211W        W 3605  20.146  40.399  12.068
35212W        W 3606  29.332   6.151  10.437
35213W        W 3607  16.563  36.015   0.200
35214W        W 3608  32.556  25.139  14.921
35215W        W 3609  14.047  17.683  10.632
35216W        W 3610  42.883  44.410   2.644
35217W        W 3611   4.870  16.875  13.979
35218W        W 3612  39.944   4.748  13.050
35219W        W 3613  44.894  43.336  14.271
35220W        W 3614  15.931  18.661  10.293
35221W        W 3615  22.003  10.507   4.947
35222W        W 3616  43.843  22.028  10.707
35223W        W 3617  20.546  29.613   2.867
35224W        W 3618  21.233  38.322   1.361
35225W        W 3619   0.370  44.897  13.307
35226W        W 3620  24.872  43.090   3.878
35227W        W 3621  16.141  22.778  12.286
35228W        W 3622  38.798  20.493   3.699
35229W        W 3623   5.490  22.505  13.566
35230W        W 3624  28.539  43.952   3.651
35231W        W 3625   6.026  11.878  14.471
35232W        W 3626  33.432  28.701  11.122
35233W        W 3627  42.078  44.526  13.936
35234W        W 3628  26.647  12.161   1.732
35235W        W 3629   9.666  43.898   3.605
35236W        W 3630  29.265  33.965  10.032
35237W        W 3631   1.895  18.010  10.459
35238W        W 3632   5.440  41.166  12.602
35239W        W 3633  17.573   0.433  11.136
35240W        W 3634   7.924  37.367   1.444
35241W        W 3635  28.949  35.133   3.379
35242W        W 3636  30.532  40.769  10.760
35243W        W 3637   4.871  28.508   2.903
35244W        W 3638  38.036  15.336   2.236
35245W        W 3639  19.132  42.306   3.690
35246W        W 3640  43.316  34.425   2.315
35247W        W 3641  41.778  40.616   0.535
35248W        W 3642   1.858  20.321   0.307
35249W        W 3643  18.650  14.794  11.915
35250W        W 3644  29.221  39.541  14.155
35251W        W 3645  32.495  36.234  13.054
35252W        W 3646   3.662   0.706  11.438
35253W        W 3647   1.324   6.314  13.848
35254W        W 3648  40.276  20.738   0.319
35255W        W 3649  18.719  19.729   3.297
35256W        W 3650  15.762  26.706  12.629
35257W        W 3651  38.382  37.167   3.354
35258W        W 3652  35.457  28.177   1.552
35259W        W 3653  39.132  32.478  11.834
35260W        W 3654  24.437   7.327  13.869
35261W        W 3655   4.474  36.894  11.124
35262W        W 3656  41.742  16.394   0.980
35263W        W 3657  34.077  27.862   0.912
35264W        W 3658   9.210  37.883   2.413
35265W        W 3659  15.328  44.093  11.094
35266W        W 3660  15.802  16.775   5.475
35267W        W 3661   9.387  36.622  11.629
35268W        W 3662  34.035  32.512   4.110
35269W        W 3663  27.033  13.157  11.191
35270W        W 3664  22.105  36.747  13.200
35271W        W 3665  16.885  42.309  12.365
35272W        W 3666  36.993  28.116   1.284
35273W        W 3667  33.887  13.720  12.029
35274W        W 3668   2.411   9.852  13.871
35275W        W 3669  17.792  33.896  13.333
35276W        W 3670  40.456  35.880  10.268
35277W        W 3671  22.810   7.844  11.591
35278W        W 3672  16.737  31.594  12.604
35279W        W 3673   4.376  17.535   1.567
35280W        W 3674  15.658  24.630   2.673
35281W        W 3675  13.802  40.836   1.747
35282W        W 3676  25.866  42.589  11.478
35283W        W 3677  42.176  39.814  12.759
35284W        W 3678  20.644  16.977  14.829
35285W        W 3679   6.277  33.099  14.868
35286W        W 3680  27.758  37.530  10.751
35287W        W 3681  44.853  42.875  13.390
35288W        W 3682   4.916   3.910   0.695
35289W        W 3683  14.366  20.836   1.656
35290W        W 3684  20.253  26.791   1.847
35291W        W 3685  23.027  43.004  10.775
35292W        W 3686  24.030  28.781  11.207
35293W        W 3687  29.238  30.743  10.688
35294W        W 3688  34.423  39.011  14.311
35295W        W 3689  16.761  42.444   4.744
35296W        W 3690  18.806  25.659   3.278
35297W        W 3691   8.512  36.850   3.652
35298W        W 3692  23.242  18.107  14.817
35299W        W 3693   4.025   6.317  13.509
35300W        W 3694   5.031   3.229  11.911
35301W        W 3695  34.299  34.111  12.593
35302W        W 3696  12.151  11.213   0.349
35303W        W 3697   0.204  18.647  12.085
35304W        W 3698  27.980  25.728   1.230
35305W        W 3699  22.204  11.165   3.639
35306W        W 3700   9.173  22.868  11.482
35307W        W 3701  35.060  16.845  12.603
35308W        W 3702  37.910  25.367   1.161
35309W        W 3703   5.194   4.021   3.946
35310W        W 3704  24.717   0.210  12.964
35311W        W 3705  31.986  22.472   3.082
35312W        W 3706  26.847  24.198   0.886
35313W        W 3707  16.229  33.787  11.517
35314W        W 3708   6.416  35.200   2.369
35315W        W 3709  23.663  24.013  12.712
35316W        W 3710  36.607  32.903  13.620
35317W        W 3711  11.887  10.872   2.455
35318W        W 3712  20.369   2.558   1.497
35319W        W 3713  15.650   4.727   2.592
35320W        W 3714  38.405  24.654  14.356
35321W        W 3715  12.012   5.763  14.933
35322W        W 3716  19.194   0.439  13.562
35323W        W 3717  36.562  19.567   1.476
35324W        W 3718  33.109  16.065  12.894
35325W        W 3719  28.605  31.187  12.847
35326W        W 3720  40.911  34.211  11.968
35327W        W 3721  38.375   1.355   3.607
35328W        W 3722  26.632   1.220  14.346
35329W        W 3723  17.852  28.802   3.916
35330W        W 3724   4.808   2.260  14.132
35331W        W 3725  18.654   2.411   3.798
35332W        W 3726  36.050  42.065  11.160
35333W        W 3727  35.610  44.245  12.056
35334W        W 3728  10.665  42.259  14.794
35335W        W 3729  33.786  26.085  13.302
35336W        W 3730  40.184  10.200  10.744
35337W        W 3731  19.052   9.743  11.171
35338W        W 3732  37.323  39.255   2.217
35339W        W 3733  31.709  14.095   1.877
35340W        W 3734  14.798  13.834   0.574
35341W        W 3735  26.710  20.788   0.205
35342W        W 3736   9.499  29.046   3.796
35343W        W 3737  43.468  26.229   2.798
35344W        W 3738  25.426  31.968  10.707
35345W        W 3739  14.441  22.281   9.854
35346W        W 3740   2.565   6.137   0.797
35347W        W 3741  26.587   9.392  13.390
35348W        W 3742  12.000  21.119  13.427
35349W        W 3743  23.767   3.563  14.051
35350W        W 3744  36.380  19.858  11.673
35351W        W 3745  29.655  43.375   0.457
35352W        W 3746  39.965  34.424   1.354
35353W        W 3747  40.540  10.410   0.314
35354W        W 3748  41.846   0.206   2.341
35355W        W 3749  22.294  23.533   1.028
35356W        W 3750  32.950  31.011  14.370
35357W        W 3751  20.965   0.339  10.713
35358W        W 3752  19.214  18.041  11.194
35359W        W 3753  36.980  30.089   4.911
35360W        W 3754   5.193  19.011  11.704
35361W        W 3755  15.702   6.001  13.969
35362W        W 3756  12.786  38.782  12.006
35363W        W 3757   2.435  26.330   0.184
35364W        W 3758   0.949  10.444  13.329
35365W        W 3759   0.784  23.127  11.115
35366W        W 3760  11.655  13.778  10.745
35367W        W 3761  26.564  14.110   3.234
35368W        W 3762  16.121  17.696  14.885
35369W        W 3763  27.754  33.192   4.538
35370W        W 3764  14.781  26.467   1.396
35371W        W 3765  43.751  31.531  10.714
35372W        W 3766   2.504  19.320  13.553
35373W        W 3767  25.799   0.842   4.505
35374W        W 3768  15.598  13.221   1.796
35375W        W 3769  35.715  26.142  10.468
35376W        W 3770  12.132  33.500  13.019
35377W        W 3771  13.239  17.629  12.557
35378W        W 3772  10.712   0.587   1.414
35379W        W 3773  33.648  44.541  10.610
35380W        W 3774  16.682  31.709   1.252
35381W        W 3775  12.393  25.042  12.905
35382W        W 3776  34.494  10.772  11.229
35383W        W 3777  28.439  40.101   2.874
35384W        W 3778   1.472   1.468  14.299
35385W        W 3779   3.340  36.614   0.911
35386W        W 3780  10.502  13.310   0.759
35387W        W 3781  11.668  14.303  13.113
35388W        W 3782   1.879  39.378  12.289
35389W        W 3783   5.123  38.325   3.764
35390W        W 3784  17.860  24.847  13.242
35391W        W 3785   1.718  39.510  14.320
35392W        W 3786   3.434  43.054  11.443
35393W        W 3787  19.639  32.337   2.492
35394W        W 3788  27.385  23.527   1.884
35395W        W 3789  41.126   7.354  14.461
35396W        W 3790  38.627  24.908  10.837
35397W        W 3791   7.096   5.714   0.995
35398W        W 3792  35.402  23.591   0.723
35399W        W 3793  20.162  29.425   1.391
35400W        W 3794  40.022  22.004  12.950
35401W        W 3795  33.530  19.059   3.810
35402W        W 3796  26.052  27.226  14.445
35403W        W 3797  21.240  27.415  11.630
35404W        W 3798   4.270   2.897   2.872
35405W        W 3799  23.981  35.922   3.741
35406W        W 3800  43.708  35.988  14.808
35407W        W 3801   9.395  38.529  10.703
35408W        W 3802  26.294  15.561  11.606
35409W        W 3803  12.087  26.096   4.715
35410W        W 3804  11.835   6.152   3.319
35411W        W 3805  32.487  23.504  14.187
35412W        W 3806  34.095  37.262  14.052
35413W        W 3807   9.798  40.867   2.781
35414W        W 3808   1.392   0.442   4.317
35415W        W 3809   1.956  42.531  12.029
35416W        W 3810  31.870  33.989   3.663
35417W        W 3811  13.669  39.776   2.841
35418W        W 3812   1.866  19.177   1.369
35419W        W 3813   2.916  40.222   1.235
35420W        W 3814   9.599  11.239  13.634
35421W        W 3815  24.223  10.678   3.220
35422W        W 3816  29.064  14.552   3.206
35423W        W 3817  27.518  22.398   0.373
35424W        W 3818  20.043  33.020  11.439
35425W        W 3819  20.240   4.989  11.825
35426W        W 3820   9.841  13.764  14.360
35427W        W 3821  20.137  16.974   3.161
35428W        W 3822   7.309  43.568   4.359
35429W        W 3823  44.729  32.924  13.115
35430W        W 3824  41.767  36.892   1.490
35431W        W 3825  10.141   5.727  13.314
35432W        W 3826  14.339   0.498   3.327
35433W        W 3827  19.439  18.558   2.412
35434W        W 3828  39.325  20.626   4.305
35435W        W 3829  10.324   1.867  13.969
35436W        W 3830   7.673  43.394   1.991
35437W        W 3831  16.525  18.618  11.971
35438W        W 3832  19.979  16.144   0.765
35439W        W 3833  14.267  18.071  13.852
35440W        W 3834  11.334   3.390  11.074
35441W        W 3835  31.048  15.900  10.341
35442W        W 3836  14.154   0.227  13.265
35443W        W 3837  34.295  38.396   0.736
35444W        W 3838   3.948  37.486   3.150
35445W        W 3839  21.290   7.398  11.176
35446W        W 3840  24.027  12.827   3.201
35447W        W 3841  37.365  27.023  11.166
35448W        W 3842   4.375  41.225   2.463
35449W        W 3843  16.493   4.821  11.199
35450W        W 3844  25.950  18.408  14.737
35451W        W 3845   0.186  12.806   2.851
35452W        W 3846  22.733  23.912  12.235
35453W        W 3847  22.897   3.042   0.742
35454W        W 3848   5.838  35.539   4.379
35455W        W 3849   1.945  43.888  13.413
35456W        W 3850  41.603  13.634   0.314
35457W        W 3851   2.610  21.557   2.603
35458W        W 3852  23.562  41.914   4.731
35459W        W 3853  23.423  35.545   3.524
35460W        W 3854   1.703  12.774   0.380
35461W        W 3855  20.117   2.057  11.083
35462W        W 3856  21.269  44.833   1.361
35463W        W 3857  43.238  37.962  14.937
35464W        W 3858  38.958  22.036   1.742
35465W        W 3859  18.951   2.991   3.720
35466W        W 3860  33.063  30.472   3.381
35467W        W 3861  41.028  12.861   4.153
35468W        W 3862  27.378  29.659   0.426
35469W        W 3863  34.940  39.040   5.011
35470W        W 3864  22.777  26.608  13.926
35471W        W 3865  15.676   1.537   4.130
35472W        W 3866   9.030  24.528   4.050
35473W        W 3867  13.599  21.053   0.400
35474W        W 3868   1.658  35.248   1.822
35475W        W 3869  41.376  19.109   2.728
35476W        W 3870  23.267   4.473  13.859
35477W        W 3871  38.145  25.962  12.928
35478W        W 3872  25.249  20.483  12.910
35479W        W 3873   7.368  20.140  11.454
35480W        W 3874   9.393  23.049   4.790
35481W        W 3875  43.066   5.631  12.028
35482W        W 3876  40.765  22.556   1.342
35483W        W 3877  28.498  27.114   0.356
35484W        W 3878  38.239   9.713   0.348
35485W        W 3879  25.860  38.940   4.123
35486W        W 3880  14.046  10.757   0.405
35487W        W 3881  36.132  12.654   4.582
35488W        W 3882   4.286  10.533  10.857
35489W        W 3883  16.145  24.999   1.987
35490W        W 3884   8.761  41.854   3.204
35491W        W 3885  15.123  36.647   3.283
35492W        W 3886  33.228  44.122   5.061
35493W        W 3887  41.059   1.394  13.100
35494W        W 3888   5.655  30.081  10.581
35495W        W 3889  25.553  18.267   1.406
35496W        W 3890  37.565  14.695   1.598
35497W        W 3891   0.503  13.771  14.450
35498W        W 3892  16.068  17.067  13.178
35499W        W 3893   8.379   5.548  11.566
35500W        W 3894  12.769  38.914   3.665
35501W        W 3895   5.012   7.618   4.809
35502W        W 3896  21.078  17.248  11.970
35503W        W 3897  21.818  41.169   2.462
35504W        W 3898  43.314  39.501  13.908
35505W        W 3899  23.676  27.390  11.485
35506W        W 3900  26.948  41.771  14.831
35507W        W 3901  33.474  21.421   4.450
35508W        W 3902  12.346   5.286   4.634
35509W        W 3903  17.155  12.306   4.390
35510W        W 3904  11.113  44.020   0.989
35511W        W 3905   5.304  41.416   3.875
35512W        W 3906  22.690  32.007   5.011
35513W        W 3907  37.439  31.532   0.246
35514W        W 3908  35.310  44.367   4.636
35515W        W 3909  11.463  42.973   1.492
35516W        W 3910  22.867  25.306  11.709
35517W        W 3911   3.452  26.757  12.987
35518W        W 3912  10.715  34.895  10.625
35519W        W 3913  30.970  41.934   1.050
35520W        W 3914  36.781  28.245   0.825
35521W        W 3915  22.467  10.190  11.112
35522W        W 3916  25.847  27.593   4.118
35523W        W 3917  36.512   7.337  14.351
35524W        W 3918  23.530   6.462  14.352
35525W        W 3919  14.571  15.805  10.294
35526W        W 3920  44.408  21.075   4.571
35527W        W 3921  18.128  31.583  13.391
35528W        W 3922  31.437  41.977   4.650
35529W        W 3923  41.623  26.204  12.427
35530W        W 3924  37.410  22.235   0.774
35531W        W 3925  37.905  43.332   3.195
35532W        W 3926  35.473  21.496  12.983
35533W        W 3927   9.466  22.489  11.689
35534W        W 3928  18.306  32.173   3.309
35535W        W 3929  14.575  37.111  10.294
35536W        W 3930  32.430  23.317  10.657
35537W        W 3931  16.369  16.861   3.461
35538W        W 3932  19.013  13.869   5.092
35539W        W 3933  12.569  39.400   3.231
35540W        W 3934  24.691  22.984   2.928
35541W        W 3935  42.846  40.109   0.842
35542W        W 3936  22.217   5.930   0.736
35543W        W 3937  42.107  21.141  13.417
35544W        W 3938   3.051  27.696  10.951
35545W        W 3939  42.737   2.175  10.636
35546W        W 3940  18.823   2.457  12.923
35547W        W 3941   7.853  12.825  13.478
35548W        W 3942  15.679  21.009   2.319
35549W        W 3943  18.734  12.340   0.049
35550W        W 3944   2.567  43.897  12.102
35551W        W 3945  11.778   6.620   4.261
35552W        W 3946  40.455  41.511   3.224
35553W        W 3947  33.352  10.621   0.428
35554W        W 3948   8.956  38.018  13.476
35555W        W 3949  42.738  30.857  14.321
35556W        W 3950  37.513  15.166  13.010
35557W        W 3951   9.470  29.229   1.864
35558W        W 3952  44.743   2.443   4.658
35559W        W 3953  10.176  35.806   4.182
35560W        W 3954  37.605  31.824   1.977
35561W        W 3955  36.540  24.394   2.915
35562W        W 3956  14.092  33.999   2.884
35563W        W 3957  38.954  24.247  10.182
35564W        W 3958  27.609  29.986   2.890
35565W        W 3959   7.277   8.132   3.249
35566W        W 3960  32.161  28.575   4.940
35567W        W 3961  29.958  16.668  14.340
35568W        W 3962   5.215   6.274   0.139
35569W        W 3963  32.096  29.516  11.491
35570W        W 3964  20.600  39.375  11.399
35571W        W 3965  36.623  20.376   3.386
35572W        W 3966  27.991  33.939   1.421
35573W        W 3967  25.608  17.623   2.696
35574W        W 3968  27.183  42.847  10.326
35575W        W 3969  28.705  41.487   0.040
35576W        W 3970  43.459   5.856   4.140
35577W        W 3971   7.182  22.545  11.103
35578W        W 3972  38.588   9.909   0.917
35579W        W 3973  30.523  33.284   4.108
35580W        W 3974   7.338  20.820   1.711
35581W        W 3975  41.943   0.510   0.960
35582W        W 3976  13.355  37.115   1.808
35583W        W 3977   0.618  35.614  11.477
35584W        W 3978   2.763  32.383  10.761
35585W        W 3979  25.997  20.164  11.613
35586W        W 3980  11.201  29.121  13.504
35587W        W 3981  36.975  44.068   1.299
35588W        W 3982  29.112  33.589   3.655
35589W        W 3983  26.174   8.148   4.589
35590W        W 3984  13.562  12.785  10.280
35591W        W 3985   9.121  17.468  10.750
35592W        W 3986  22.581  15.673   5.055
35593W        W 3987  24.740  31.448   0.464
35594W        W 3988  25.239  38.527  14.747
35595W        W 3989  33.479  39.595   0.484
35596W        W 3990  24.768   4.054   2.467
35597W        W 3991  38.022  29.768  11.182
35598W        W 3992  35.504  36.103   3.554
35599W        W 3993  22.788  44.819  14.877
35600W        W 3994  27.494   0.730  12.067
35601W        W 3995  30.201  11.798  13.278
35602W        W 3996  13.820  14.255  11.597
35603W        W 3997  16.960   4.971   0.827
35604W        W 3998  12.764  10.822   2.443
35605W        W 3999  24.595   1.697   1.763
35606W        W 4000  43.232  22.415   1.246
35607W        W 4001  17.240  20.254  11.601
35608W        W 4002  20.710  18.906  11.130
35609W        W 4003   8.653  23.869  12.057
35610W        W 4004  31.048   7.826  10.821
35611W        W 4005  14.948  21.485  13.250
35612W        W 4006  17.100  38.283  11.626
35613W        W 4007   7.706   4.925  14.078
35614W        W 4008  25.047  25.644  14.781
35615W        W 4009  18.778  32.910   2.327
35616W        W 4010  37.489   4.823  11.105
35617W        W 4011  40.483  25.215   2.708
35618W        W 4012  19.699  15.810  13.816
35619W        W 4013  15.178  44.476   3.353
35620W        W 4014   7.028   3.922  14.741
35621W        W 4015  35.497  17.018   0.445
35622W        W 4016  21.746  30.374  12.930
35623W        W 4017  18.685  23.755   4.232
35624W        W 4018  22.181  29.930  10.767
35625W        W 4019  11.618  39.584  13.414
35626W        W 4020  19.311   4.324  12.120
35627W        W 4021  37.897   8.244  14.452
35628W        W 4022  16.333   1.264  12.573
35629W        W 4023  24.584  14.126  12.930
35630W        W 4024  19.258  30.038  10.246
35631W        W 4025  36.434  22.974   4.394
35632W        W 4026  16.879  16.824  10.826
35633W        W 4027   8.351  25.636   0.366
35634W        W 4028  27.553  42.810  10.721
35635W        W 4029  27.224  27.195  12.321
35636W        W 4030   6.230  23.497   3.616
35637W        W 4031  11.180  24.759   2.257
35638W        W 4032  11.144  20.598  13.868
35639W        W 4033  44.977  11.740  13.023
35640W        W 4034   6.350   0.712   4.636
35641W        W 4035  10.629   1.969  14.856
35642W        W 4036  44.947  16.345  14.464
35643W        W 4037  19.185  23.110  11.157
35644W        W 4038  22.197  18.297  11.028
35645W        W 4039   7.385  11.879   4.493
35646W        W 4040  14.813  24.302   0.811
35647W        W 4041  20.303   1.642   1.981
35648W        W 4042  21.725  27.854   1.792
35649W        W 4043  32.025  24.288  12.481
35650W        W 4044  31.827   6.285   0.444
35651W        W 4045   3.829  38.657  12.120
35652W        W 4046  28.017   6.305   1.473
35653W        W 4047  25.444  24.060   1.468
35654W        W 4048  43.353   6.243   3.787
35655W        W 4049  35.962  37.348   1.883
35656W        W 4050  31.476  28.750  13.330
35657W        W 4051  35.494   8.851  11.527
35658W        W 4052  17.550  21.749  11.175
35659W        W 4053  29.016  23.389   3.081
35660W        W 4054  25.431  21.143   3.623
35661W        W 4055  33.898   3.672   4.081
35662W        W 4056   7.683  21.722  12.554
35663W        W 4057   4.016  43.273  13.421
35664W        W 4058  28.147  29.178  14.964
35665W        W 4059  29.420  23.382   9.944
35666W        W 4060  15.141  12.737  13.801
35667W        W 4061   3.050   3.853   0.707
35668W        W 4062  12.763   1.869   1.408
35669W        W 4063  33.685  40.363  13.177
35670W        W 4064   7.778   1.274   1.018
35671W        W 4065   8.374   5.322   3.552
35672W        W 4066  17.566   9.837  13.920
35673W        W 4067  34.518  11.648   2.163
35674W        W 4068  44.479  29.684  11.274
35675W        W 4069   2.774  18.619  14.500
35676W        W 4070  21.097  34.635   3.100
35677W        W 4071  30.989   4.826   3.527
35678W        W 4072  43.013  25.046   0.828
35679W        W 4073  35.430  24.062   3.496
35680W        W 4074  34.887  21.509   1.692
35681W        W 4075  39.573  28.649   0.204
35682W        W 4076  28.382  36.918  14.805
35683W        W 4077  11.711  26.213   1.961
35684W        W 4078   0.986  12.238   4.691
35685W        W 4079  27.448  39.289  14.715
35686W        W 4080  29.543  15.592  10.715
35687W        W 4081  22.633   5.840   0.251
35688W        W 4082  25.473  41.998   1.205
35689W        W 4083  41.037   2.283  12.117
35690W        W 4084  44.453  21.172  11.842
35691W        W 4085  14.588  43.907  10.372
35692W        W 4086   4.192  10.272   2.186
35693W        W 4087  17.108  14.385  14.853
35694W        W 4088  12.273  27.000  13.124
35695W        W 4089  32.410   0.532  12.811
35696W        W 4090  12.921   8.628  14.773
35697W        W 4091  28.544  13.290  11.358
35698W        W 4092   2.902  42.561  13.980
35699W        W 4093  15.151  37.921   4.100
35700W        W 4094  21.476  12.257   1.902
35701W        W 4095  37.524  34.328  10.354
35702W        W 4096  14.590  40.260   3.681
35703W        W 4097  32.485  44.333  12.355
35704W        W 4098  40.162  20.201   0.289
35705W        W 4099   2.772  18.130  10.391
35706W        W 4100  19.346  34.976   2.253
35707W        W 4101  35.042  43.001   4.686
35708W        W 4102  31.245  22.329   1.937
35709W        W 4103  43.236   8.595  10.661
35710W        W 4104  14.220  15.670  10.967
35711W        W 4105   6.098  19.173   3.194
35712W        W 4106  29.183  30.029   1.823
35713W        W 4107  44.120  30.556  10.819
35714W        W 4108   5.407  43.798  13.409
35715W        W 4109  17.994  39.669   0.206
35716W        W 4110  35.379  15.617   0.835
35717W        W 4111  23.051  15.862  10.285
35718W        W 4112  13.305  23.440   1.704
35719W        W 4113   6.225  42.660   4.556
35720W        W 4114  27.235  31.706  13.408
35721W        W 4115   4.924  35.671  13.073
35722W        W 4116  22.730  11.175  13.941
35723W        W 4117  36.999  20.186   2.102
35724W        W 4118  31.461  31.759  14.402
35725W        W 4119  22.779  27.383   3.670
35726W        W 4120  12.564   0.188  11.992
35727W        W 4121  10.139  32.459   2.888
35728W        W 4122   7.411   5.792  12.520
35729W        W 4123  10.984  39.085   2.678
35730W        W 4124   7.864  20.339   3.734
35731W        W 4125  35.355   8.838  13.332
35732W        W 4126  33.138   2.435   1.256
35733W        W 4127  19.759  31.853   1.983
35734W        W 4128   4.216  11.840  11.669
35735W        W 4129  30.079  17.200  12.537
35736W        W 4130  26.110  41.251   5.048
35737W        W 4131   6.587  42.002  12.505
35738W        W 4132  29.271  33.425   4.197
35739W        W 4133  28.816  31.866  11.559
35740W        W 4134   6.805   0.349  14.098
35741W        W 4135  23.917  36.365   1.690
35742W        W 4136  34.483  17.567   4.133
35743W        W 4137   5.760  35.408  12.410
35744W        W 4138   0.356   4.215   2.934
35745W        W 4139  21.153  44.450  11.726
35746W        W 4140  26.231  21.795  11.035
35747W        W 4141  12.043  39.510  13.135
35748W        W 4142  31.059  30.550   2.077
35749W        W 4143   5.902   0.069   0.966
35750W        W 4144  28.240  28.052   3.191
35751W        W 4145  17.988  34.162  14.860
35752W        W 4146  41.220  44.350   3.292
35753W        W 4147   3.764   7.949   2.095
35754W        W 4148  33.490  35.131  10.314
35755W        W 4149  21.497   9.661  10.600
35756W        W 4150  41.493  27.751   4.196
35757W        W 4151  18.900  29.634  14.323
35758W        W 4152  20.459  32.668  12.023
35759W        W 4153  34.320  38.883   0.537
35760W        W 4154   1.824   6.113   0.108
35761W        W 4155  23.795   0.136  13.020
35762W        W 4156  16.261  30.389  11.668
35763W        W 4157  21.128   4.896  12.418
35764W        W 4158   4.979  29.834  14.524
35765W        W 4159  38.500  16.829   0.857
35766W        W 4160  17.322  17.275   4.133
35767W        W 4161  43.505  16.499  14.380
35768W        W 4162  31.361  19.119   3.366
35769W        W 4163   5.345   7.798  13.060
35770W        W 4164  39.113   1.182   5.021
35771W        W 4165  17.702  41.943   1.629
35772W        W 4166  34.536   0.764   1.478
35773W        W 4167  19.566  25.892  10.705
35774W        W 4168  14.582   8.778   4.206
35775W        W 4169  24.835  37.127  10.424
35776W        W 4170  42.372  42.837   1.166
35777W        W 4171  12.772  11.075  11.535
35778W        W 4172   1.246  38.077   1.767
35779W        W 4173  23.131  30.443   2.569
35780W        W 4174  14.560  17.712  10.656
35781W        W 4175   6.977  11.691  14.160
35782W        W 4176   2.474  22.279  12.692
35783W        W 4177  38.042  11.259  13.607
35784W        W 4178  21.174  40.755  13.920
35785W        W 4179  20.536  33.943   1.198
35786W        W 4180  20.155  38.667   4.121
35787W        W 4181  29.480  40.898   4.720
35788W        W 4182  13.721  30.124  10.461
35789W        W 4183  18.183  17.352  11.164
35790W        W 4184   2.859  39.760   2.145
35791W        W 4185  38.743   7.117  11.534
35792W        W 4186  14.721  27.414  11.729
35793W        W 4187  31.532  41.510   0.138
35794W        W 4188  16.620   9.452   5.551
35795W        W 4189  24.824  29.780  11.458
35796W        W 4190  41.215  27.990   0.763
35797W        W 4191  12.515  33.641   0.833
35798W        W 4192  32.399   2.800   1.382
35799W        W 4193  21.361   4.348   0.458
35800W        W 4194  27.069  17.833  13.369
35801W        W 4195  23.117  33.364   3.261
35802W        W 4196  28.159  39.925  11.446
35803W        W 4197  38.985   5.178   0.761
35804W        W 4198  33.166  42.292  11.179
35805W        W 4199  17.022   1.823   0.062
35806W        W 4200   5.654  36.398   1.789
35807W        W 4201  43.381  32.933   2.718
35808W        W 4202  33.916  12.897  12.405
35809W        W 4203  37.126  38.373   4.552
35810W        W 4204  44.473  19.493   0.340
35811W        W 4205  26.144   3.705   4.101
35812W        W 4206  20.082  21.257   2.573
35813W        W 4207  28.897   2.415  11.458
35814W        W 4208   1.012   9.395   4.723
35815W        W 4209  36.859  34.359   0.238
35816W        W 4210  20.275  12.380   1.361
35817W        W 4211   4.767  39.445   3.840
35818W        W 4212   7.706  35.830   3.904
35819W        W 4213  44.205  26.753  14.564
35820W        W 4214  37.575  25.993  11.684
35821W        W 4215  42.927  43.417   4.207
35822W        W 4216  11.985  34.248  11.202
35823W        W 4217  29.794   3.770  12.851
35824W        W 4218  42.518   4.947   1.165
35825W        W 4219  21.271  38.869  13.045
35826W        W 4220   3.782  18.129   4.105
35827W        W 4221  11.336  26.527   0.745
35828W        W 4222  26.380   2.288   2.582
35829W        W 4223  23.744   1.583  14.950
35830W        W 4224  41.597  24.188   3.424
35831W        W 4225  20.540  37.292   0.029
35832W        W 4226  10.565  21.314   1.240
35833W        W 4227  20.490  40.996   2.238
35834W        W 4228  32.269   4.358  14.606
35835W        W 4229   1.513  23.178   3.416
35836W        W 4230   1.887  24.923   4.269
35837W        W 4231  21.134  33.469  14.352
35838W        W 4232  29.899   9.669  14.949
35839W        W 4233  12.321   9.129   0.258
35840W        W 4234  11.215  21.731   3.870
35841W        W 4235   3.326  38.568  12.200
35842W        W 4236   9.852  16.730  12.207
35843W        W 4237   7.867  31.847   0.628
35844W        W 4238  29.115  14.577  14.233
35845W        W 4239   9.165  44.544  13.987
35846W        W 4240  14.215   4.958  12.008
35847W        W 4241  16.809  35.197   0.557
35848W        W 4242  37.626  38.462   3.009
35849W        W 4243  17.794  16.876  11.038
35850W        W 4244  22.479   8.897   3.534
35851W        W 4245  40.550   0.372  11.192
35852W        W 4246   9.910  25.783   2.542
35853W        W 4247  42.744  24.520   4.068
35854W        W 4248  41.470  11.102  11.595
35855W        W 4249  37.825  13.934  14.427
35856W        W 4250  32.967  27.551   1.849
35857W        W 4251  24.201  15.050  14.997
35858W        W 4252  31.411  44.848  13.102
35859W        W 4253  41.808  12.259   2.267
35860W        W 4254  30.428  35.427   3.941
35861W        W 4255  43.978  20.552   1.932
35862W        W 4256   5.321  36.634  11.611
35863W        W 4257  10.886  30.964   2.965
35864W        W 4258  11.800   6.934  12.497
35865W        W 4259  20.213  29.946   2.638
35866W        W 4260   3.367   2.034  11.631
35867W        W 4261  23.104   5.678  13.460
35868W        W 4262   1.173  14.136   4.157
35869W        W 4263  36.644  11.757   4.696
35870W        W 4264  38.769   4.204   4.975
35871W        W 4265  10.893  35.451  11.682
35872W        W 4266  24.544   3.797  10.626
35873W        W 4267   2.803  20.457  13.991
35874W        W 4268  24.994  15.838   0.156
35875W        W 4269  32.997  10.362   1.860
35876W        W 4270  40.293  31.691   3.853
35877W        W 4271  27.542  10.359  13.101
35878W        W 4272  16.067  11.106  11.160
35879W        W 4273   2.662  28.679  13.491
35880W        W 4274  44.376   5.765   2.081
35881W        W 4275   9.447  41.457  11.408
35882W        W 4276  33.533  24.478  11.538
35883W        W 4277  38.652  23.987  14.776
35884W        W 4278   3.218   5.122  11.795
35885W        W 4279  38.022  44.507   1.281
35886W        W 4280  29.565  19.776  11.257
35887W        W 4281  30.577   1.297  13.064
35888W        W 4282  28.748  21.575  14.846
35889W        W 4283   8.568  19.600  14.973
35890W        W 4284   1.431  33.755  11.617
35891W        W 4285  41.468  15.840   1.326
35892W        W 4286  42.526  33.858   2.226
35893W        W 4287  32.119  25.212   4.230
35894W        W 4288   9.349   5.308  13.347
35895W        W 4289  22.588  37.200   3.408
35896W        W 4290  43.020  13.412  10.716
35897W        W 4291  26.003  13.813   1.458
35898W        W 4292   1.502  13.329   2.888
35899W        W 4293   9.167  39.449  14.615
35900W        W 4294  23.295  35.064  11.107
35901W        W 4295  23.866  17.985   3.166
35902W        W 4296   2.773   1.964  13.746
35903W        W 4297   0.165  11.300  10.769
35904W        W 4298  28.900  34.184  12.987
35905W        W 4299   3.052  40.866   0.770
35906W        W 4300   1.283   0.727  14.746
35907W        W 4301  33.405  13.521   1.785
35908W        W 4302  41.927  43.642  10.728
35909W        W 4303  16.983  30.893  14.215
35910W        W 4304   9.879   1.799   4.392
35911W        W 4305   2.441   5.057  14.761
35912W        W 4306  40.928  36.785  13.411
35913W        W 4307  40.765  31.379  11.986
35914W        W 4308  27.568  15.228  11.161
35915W        W 4309  24.298  20.040   0.259
35916W        W 4310  36.159  43.961  10.489
35917W        W 4311  37.741  31.462   4.800
35918W        W 4312   4.814  19.866   3.194
35919W        W 4313  13.004  36.117  14.711
35920W        W 4314  28.557  17.126  11.511
35921W        W 4315  44.025  16.540   3.591
35922W        W 4316  19.055  29.529  13.834
35923W        W 4317  25.004  19.634  14.331
35924W        W 4318   4.434  12.311   5.517
35925W        W 4319  41.429  34.538  12.646
35926W        W 4320  19.149  36.552   0.309
35927W        W 4321  11.663   4.779  14.326
35928W        W 4322  16.599  11.737   1.399
35929W        W 4323  10.116  31.504  14.339
35930W        W 4324  34.713  31.420  13.566
35931W        W 4325  36.013  44.049  14.699
35932W        W 4326  11.049  19.479   1.287
35933W        W 4327  20.722  25.332   4.690
35934W        W 4328  36.998  15.293  13.375
35935W        W 4329   2.837  44.898  10.457
35936W        W 4330   0.325   9.290  12.935
35937W        W 4331  16.622  25.615  10.754
35938W        W 4332  37.052  12.271  14.388
35939W        W 4333  32.423  10.937   0.385
35940W        W 4334  11.677  28.051   2.229
35941W        W 4335  42.524  28.703   2.330
35942W        W 4336  24.245  14.156   1.380
35943W        W 4337  32.842  19.709  10.714
35944W        W 4338   5.670   6.716  13.932
35945W        W 4339  35.421  31.973  14.473
35946W        W 4340  13.108  12.871   4.938
35947W        W 4341  28.987  12.165   1.440
35948W        W 4342  38.453  26.964   2.610
35949W        W 4343  35.693   6.886   4.630
35950W        W 4344   9.249  21.450  11.043
35951W        W 4345  25.344  33.286   4.801
35952W        W 4346   5.424  12.076  11.951
35953W        W 4347  13.120  11.741   4.940
35954W        W 4348  32.928   8.262  12.883
35955W        W 4349  38.051  27.869   4.177
35956W        W 4350  44.529   2.384   0.869
35957W        W 4351  28.063  22.117   1.714
35958W        W 4352  22.173  26.116   3.005
35959W        W 4353  25.083  22.243  14.547
35960W        W 4354   8.464  43.831  13.531
35961W        W 4355  38.513   0.460  14.439
35962W        W 4356  22.003  26.126   1.874
35963W        W 4357  23.842  25.596   3.828
35964W        W 4358   2.068  18.237   2.474
35965W        W 4359  26.407   4.158  14.900
35966W        W 4360  13.401  13.755  13.072
35967W        W 4361  30.206  40.020   4.185
35968W        W 4362  18.451  14.660   1.197
35969W        W 4363   7.372  25.273   4.188
35970W        W 4364   3.903  44.876  14.810
35971W        W 4365  18.173  13.051   4.305
35972W        W 4366  11.936  30.934   2.736
35973W        W 4367  20.351  42.855  11.235
35974W        W 4368  26.213  11.924   4.873
35975W        W 4369  25.166   6.456   2.220
35976W        W 4370  15.710   6.984   1.197
35977W        W 4371   9.842  36.394  11.551
35978W        W 4372  38.785  37.322   4.208
35979W        W 4373  30.987  26.976   3.775
35980W        W 4374  22.254   6.837   3.756
35981W        W 4375  11.282  36.519  12.860
35982W        W 4376   4.980   3.791  12.848
35983W        W 4377  12.876  18.650   4.122
35984W        W 4378  17.711   8.939  12.534
35985W        W 4379   0.737  34.987  13.030
35986W        W 4380   4.005   0.527  10.662
35987W        W 4381  10.710  29.751   4.149
35988W        W 4382  13.170  35.457  13.057
35989W        W 4383  35.587   9.708   2.703
35990W        W 4384  16.912  27.492   3.669
35991W        W 4385  43.560  30.074  12.534
35992W        W 4386  18.958  27.895  12.131
35993W        W 4387  28.742  40.366  14.045
35994W        W 4388  12.673   0.381  13.840
35995W        W 4389  28.040   8.736   1.726
35996W        W 4390  20.280  31.693  14.687
35997W        W 4391  12.295  18.867  12.605
35998W        W 4392   2.101  29.622   2.139
35999W        W 4393   3.623   2.888  13.129
36000W        W 4394  25.626  32.285   2.860
36001W        W 4395  31.522  25.501  14.375
36002W        W 4396  13.733  21.309  13.900
36003W        W 4397  17.105  34.936   3.187
36004W        W 4398  16.973  31.930   4.125
36005W        W 4399  32.628  31.422   0.775
36006W        W 4400  25.972  35.540  10.655
36007W        W 4401   7.775  19.301   2.334
36008W        W 4402  28.002  18.054   4.157
36009W        W 4403  39.759  26.700   3.338
36010W        W 4404  37.272   3.487   2.912
36011W        W 4405  16.044   5.864   0.361
36012W        W 4406   4.267   5.758  11.821
36013W        W 4407   3.690  42.820   4.555
36014W        W 4408  13.131  13.898   2.507
36015W        W 4409  38.039   0.539   3.815
36016W        W 4410  16.294  37.334  11.130
36017W        W 4411  31.640  19.523   3.156
36018W        W 4412  37.800  35.147  13.380
36019W        W 4413  39.916  18.707  14.856
36020W        W 4414   8.651  39.716   3.204
36021W        W 4415  31.307  11.117  11.194
36022W        W 4416  11.607  40.050   1.266
36023W        W 4417  28.875  10.392   1.406
36024W        W 4418  40.523  39.342  12.964
36025W        W 4419   0.204   3.749  12.570
36026W        W 4420  41.815  41.728  14.776
36027W        W 4421  21.271  19.055  11.497
36028W        W 4422  40.411  36.860   1.345
36029W        W 4423  40.884  23.416  12.895
36030W        W 4424  26.221  18.646  13.390
36031W        W 4425   8.522  24.446   4.083
36032W        W 4426  43.366  43.574  10.934
36033W        W 4427  14.287   0.940   1.843
36034W        W 4428  18.422  16.662   1.778
36035W        W 4429   4.438  10.652  12.182
36036W        W 4430   8.747  16.533   1.692
36037W        W 4431  23.767  34.117   4.097
36038W        W 4432  27.737  17.945   1.608
36039W        W 4433  24.481  16.301  11.639
36040W        W 4434  18.624  22.127   4.619
36041W        W 4435  23.745  27.573   4.515
36042W        W 4436  18.788   2.313   2.415
36043W        W 4437  35.467   3.314   3.954
36044W        W 4438   7.408   6.657   2.911
36045W        W 4439   5.781  40.251   4.226
36046W        W 4440  23.238  42.980   0.230
36047W        W 4441  41.274   0.207   3.069
36048W        W 4442   7.314  31.089  13.034
36049W        W 4443  14.935  26.935   4.231
36050W        W 4444  36.591  29.736   2.141
36051W        W 4445  11.694  20.597   0.822
36052W        W 4446   4.218  24.544   1.890
36053W        W 4447  10.425   4.042  12.123
36054W        W 4448  29.934  41.161   3.161
36055W        W 4449  18.327  30.238  11.982
36056W        W 4450  12.185  35.973  14.271
36057W        W 4451   2.143  15.745  13.565
36058W        W 4452  33.517  18.270   1.268
36059W        W 4453   8.170  14.968   0.915
36060W        W 4454  10.652  17.470  14.947
36061W        W 4455  37.550  30.426  14.056
36062W        W 4456  37.438  12.294   3.607
36063W        W 4457  15.381  33.888  13.483
36064W        W 4458   3.498   6.711  13.003
36065W        W 4459  11.746  27.431   0.157
36066W        W 4460   8.869  30.254   2.832
36067W        W 4461  12.240  41.806   0.506
36068W        W 4462   7.624  34.377   2.827
36069W        W 4463  20.080   7.202  10.728
36070W        W 4464  19.397  11.274   0.075
36071W        W 4465   5.923  35.864   1.798
36072W        W 4466  32.135  28.392  13.749
36073W        W 4467  15.830  40.418   4.212
36074W        W 4468   4.174  20.201  11.686
36075W        W 4469  31.662  27.398   3.691
36076W        W 4470  39.418  23.091  14.089
36077W        W 4471  30.969  14.374   2.249
36078W        W 4472  23.184  29.432  14.581
36079W        W 4473   2.392  32.289   2.430
36080W        W 4474  35.362  11.356   3.595
36081W        W 4475  10.607  28.920   2.177
36082W        W 4476  18.686  36.395   1.373
36083W        W 4477  37.074  37.830   4.532
36084W        W 4478  24.644  16.318   4.129
36085W        W 4479  36.357  28.086   4.850
36086W        W 4480  28.616  15.184  11.486
36087W        W 4481  34.427   5.670   0.888
36088W        W 4482  23.529  38.438   1.853
36089W        W 4483  36.413  38.901   2.582
36090W        W 4484  40.877  38.627   1.160
36091W        W 4485  13.272  28.578   1.965
36092W        W 4486  11.625  38.934  10.625
36093W        W 4487  21.629  33.096   3.872
36094W        W 4488  10.256  31.127   4.222
36095W        W 4489  14.489  16.251  13.610
36096W        W 4490  34.371  12.216  11.704
36097W        W 4491   9.818  33.339   1.909
36098W        W 4492  39.468  30.651   3.623
36099W        W 4493  44.315  43.818  14.885
36100W        W 4494  13.403  40.488  11.350
36101W        W 4495  42.286   4.933  14.226
36102W        W 4496   4.207  14.390   0.820
36103W        W 4497  35.407  21.113  14.386
36104W        W 4498  21.931   6.993  14.938
36105W        W 4499  24.594  16.833   4.126
36106W        W 4500  18.044  18.814   0.381
36107W        W 4501  39.974  23.507  14.326
36108W        W 4502  26.133  11.218   2.235
36109W        W 4503  38.942  28.613   1.037
36110W        W 4504  20.049  37.074   1.374
36111W        W 4505   6.965   9.344   4.840
36112W        W 4506  15.815  15.880   1.101
36113W        W 4507  32.958  12.485  12.421
36114W        W 4508  33.546   7.786  12.415
36115W        W 4509  25.653   9.413   3.683
36116W        W 4510  11.768  10.635   3.555
36117W        W 4511  27.468   6.962  14.490
36118W        W 4512  16.843  38.842   3.887
36119W        W 4513   6.409  10.685  12.517
36120W        W 4514  34.654   1.631   1.306
36121W        W 4515   4.330  40.120   1.357
36122W        W 4516  22.174  38.404   3.714
36123W        W 4517  27.210  41.355  13.882
36124W        W 4518  29.933  14.830   2.194
36125W        W 4519  24.968  32.023  14.323
36126W        W 4520  30.179   2.116  13.361
36127W        W 4521  15.931  34.382  13.415
36128W        W 4522  33.425  13.379   3.933
36129W        W 4523  19.012  17.890  13.384
36130W        W 4524  41.363  24.191   2.889
36131W        W 4525  10.175   9.105   3.030
36132W        W 4526   7.154   0.698  13.925
36133W        W 4527  37.022   9.651  12.141
36134W        W 4528  29.922  15.168   3.180
36135W        W 4529  37.486   5.048   0.423
36136W        W 4530  43.501  18.302  10.679
36137W        W 4531  31.500  19.550  13.792
36138W        W 4532   6.463  31.561  14.264
36139W        W 4533   6.469   7.234   0.001
36140W        W 4534  15.171   6.868   3.696
36141W        W 4535  11.810  39.476  10.720
36142W        W 4536  19.063  31.010   2.349
36143W        W 4537   4.384   2.076  11.462
36144W        W 4538  13.634  34.978  11.442
36145W        W 4539   1.931   7.339   4.712
36146W        W 4540  27.771  16.369   1.377
36147W        W 4541   7.372  35.348  11.572
36148W        W 4542  25.941  29.678   2.050
36149W        W 4543  15.739  34.979  12.595
36150W        W 4544  21.617  15.107  10.740
36151W        W 4545  15.323  38.153   3.204
36152W        W 4546  38.316  16.827  13.837
36153W        W 4547  25.340  33.799  14.451
36154W        W 4548  23.139  16.559   3.400
36155W        W 4549  41.401  32.419  14.691
36156W        W 4550  22.604  16.989   2.308
36157W        W 4551  30.844  41.413   1.739
36158W        W 4552  41.567  27.074  12.728
36159W        W 4553  43.574   5.830   0.342
36160W        W 4554   2.702  29.382  11.556
36161W        W 4555  10.590  24.242   2.372
36162W        W 4556  20.570   9.127  14.717
36163W        W 4557  33.011  25.524  13.873
36164W        W 4558   1.935  18.367   1.992
36165W        W 4559  18.777  34.579   1.332
36166W        W 4560  26.652  31.590   4.133
36167W        W 4561   4.967  28.297  14.263
36168W        W 4562  28.192  33.622  11.955
36169W        W 4563  28.418  35.224   1.365
36170W        W 4564   6.429  16.294   1.812
36171W        W 4565   6.688  29.759   1.894
36172W        W 4566  43.832  19.714  12.402
36173W        W 4567  15.561   6.926   1.690
36174W        W 4568  15.535   9.130  13.568
36175W        W 4569  43.353  44.054  11.134
36176W        W 4570  33.122  18.167   3.257
36177W        W 4571  21.997  16.288  13.945
36178W        W 4572  42.227  23.846   1.778
36179W        W 4573  31.353  31.875   4.445
36180W        W 4574   9.110   1.977   2.233
36181W        W 4575  41.109  17.642   1.227
36182W        W 4576  13.208  17.674   0.871
36183W        W 4577  27.560  32.995   3.756
36184W        W 4578  28.072  25.732   4.183
36185W        W 4579  18.835  23.150  11.567
36186W        W 4580  36.868  35.763  12.004
36187W        W 4581  14.008   0.198   0.085
36188W        W 4582  38.045   2.115  13.774
36189W        W 4583  23.987  26.966   3.937
36190W        W 4584  24.222  26.219  12.935
36191W        W 4585  19.295   3.961  13.569
36192W        W 4586  11.424  19.037  11.682
36193W        W 4587  43.240   7.753   1.277
36194W        W 4588  25.161  30.217   0.762
36195W        W 4589  24.953  34.178  11.933
36196W        W 4590   0.015  38.540   2.644
36197W        W 4591  19.636   9.997   5.038
36198W        W 4592  44.854  13.670   3.634
36199W        W 4593   2.386  12.583   4.100
36200W        W 4594  37.466  14.087  13.111
36201W        W 4595  37.880  26.688  11.853
36202W        W 4596  36.837  21.145  14.471
36203W        W 4597  30.401  40.309   4.610
36204W        W 4598  19.473  28.504   1.016
36205W        W 4599  35.599  20.824   1.691
36206W        W 4600   9.237  31.646   3.771
36207W        W 4601   8.203  43.860   0.370
36208W        W 4602  12.393   8.240   0.459
36209W        W 4603  33.062  35.090   2.317
36210W        W 4604  10.765  19.169   2.741
36211W        W 4605  30.583  16.580  14.956
36212W        W 4606  26.898   8.775   0.036
36213W        W 4607   1.551  17.750  11.694
36214W        W 4608  33.538  22.802   4.267
36215W        W 4609  30.584  20.130  12.222
36216W        W 4610  30.953  36.396   3.385
36217W        W 4611   6.558  30.171   2.876
36218W        W 4612  43.301  24.961   0.284
36219W        W 4613   5.143   7.245   1.448
36220W        W 4614  42.822  39.357  12.439
36221W        W 4615   4.120   8.405   2.124
36222W        W 4616  32.006   2.238  13.006
36223W        W 4617  25.111   7.833   4.591
36224W        W 4618  38.521  33.833  12.445
36225W        W 4619  14.946  30.512   4.961
36226W        W 4620   1.636  35.925   1.305
36227W        W 4621   9.281   8.693  12.730
36228W        W 4622  34.873   6.866   3.322
36229W        W 4623  33.075  37.657  10.624
36230W        W 4624  24.200  13.376   4.307
36231W        W 4625  38.018  28.240   2.822
36232W        W 4626  38.023  29.167   2.874
36233W        W 4627  12.419  15.299   1.355
36234W        W 4628  21.056  44.421  13.519
36235W        W 4629  25.784  35.785   2.771
36236W        W 4630  25.253  22.181   1.510
36237W        W 4631  19.676  33.838   4.901
36238W        W 4632  21.884  11.852   3.563
36239W        W 4633  22.172  26.739   0.747
36240W        W 4634   8.471   4.582   4.141
36241W        W 4635  41.338  37.143   1.634
36242W        W 4636  36.803  41.840   0.571
36243W        W 4637  17.571  19.399  11.560
36244W        W 4638  14.357  41.534   3.732
36245W        W 4639   7.413  21.732   1.702
36246W        W 4640  28.210  32.137   0.763
36247W        W 4641  39.059  16.220  12.707
36248W        W 4642  39.154  25.380  14.238
36249W        W 4643  41.974  34.553  13.802
36250W        W 4644  30.397  25.232  11.169
36251W        W 4645  30.925  31.304   1.401
36252W        W 4646  13.278  10.361   2.244
36253W        W 4647  27.905  31.556  14.934
36254W        W 4648   9.155  42.429   4.485
36255W        W 4649  25.527  37.802  11.260
36256W        W 4650  44.779  19.482   3.151
36257W        W 4651   6.754   5.403   3.704
36258W        W 4652  25.038  34.622   1.692
36259W        W 4653  13.155  20.497   3.517
36260W        W 4654   8.903   2.814   5.012
36261W        W 4655  40.593  44.306   1.374
36262W        W 4656  17.569  20.027   2.803
36263W        W 4657  25.927  25.425   4.110
36264W        W 4658  25.185  22.608  10.351
36265W        W 4659  12.097   3.810  14.339
36266W        W 4660  24.023   1.783   3.357
36267W        W 4661   9.989  42.786  13.947
36268W        W 4662   0.951  28.898  14.866
36269W        W 4663  35.378  23.655  11.207
36270W        W 4664  42.298   9.852  11.978
36271W        W 4665  15.437  19.975  14.911
36272W        W 4666  27.056  14.133   3.061
36273W        W 4667  26.054  35.416   1.904
36274W        W 4668  25.134  19.300   3.166
36275W        W 4669   8.192  14.050   0.480
36276W        W 4670  35.527  21.658  14.738
36277W        W 4671  32.574  16.566   2.049
36278W        W 4672  33.828   6.722  13.077
36279W        W 4673  26.599  11.968  11.640
36280W        W 4674  10.885  38.677   0.345
36281W        W 4675  41.335  10.408  11.964
36282W        W 4676   9.429   6.169   3.750
36283W        W 4677   2.865  12.872   0.949
36284W        W 4678  15.890   8.835   1.411
36285W        W 4679   1.329  24.518  14.639
36286W        W 4680  11.280  18.146   1.376
36287W        W 4681  26.179  41.389   0.028
36288W        W 4682  28.161  15.459  10.288
36289W        W 4683  29.041   6.546   0.887
36290W        W 4684  41.530  16.281   0.523
36291W        W 4685  30.652   7.252   4.690
36292W        W 4686  24.130   0.033  11.153
36293W        W 4687  34.452  31.142   3.801
36294W        W 4688  28.468  26.624  11.947
36295W        W 4689  19.512  17.673   2.282
36296W        W 4690  20.522  44.866   2.706
36297W        W 4691  30.811  17.108   0.364
36298W        W 4692   6.182  38.089  11.711
36299W        W 4693   7.713  15.158   2.493
36300W        W 4694  14.128  15.670  11.464
36301W        W 4695  22.164  15.416   1.939
36302W        W 4696  38.354   9.345  14.561
36303W        W 4697  34.961  41.989   2.431
36304W        W 4698  22.626  33.439   3.145
36305W        W 4699  16.306  11.866  12.406
36306W        W 4700  39.405   7.450   0.922
36307W        W 4701  18.739  27.917  11.619
36308W        W 4702  22.163  17.047  10.980
36309W        W 4703  29.680  19.319   2.299
36310W        W 4704   9.411  17.198   1.718
36311W        W 4705  39.742  22.111   2.909
36312W        W 4706  35.773  30.898   1.540
36313W        W 4707  23.212  12.306  14.799
36314W        W 4708  44.823  22.334   2.195
36315W        W 4709   2.223  39.915  11.564
36316W        W 4710   3.829   8.900   3.353
36317W        W 4711   5.343  30.011   1.658
36318W        W 4712  18.588   8.382   2.877
36319W        W 4713   9.766  11.900  11.549
36320W        W 4714  15.524  44.847  13.357
36321W        W 4715  25.967  31.677   3.599
36322W        W 4716   4.915  11.095   4.100
36323W        W 4717  35.827  27.422   4.664
36324W        W 4718  18.735  43.799   2.877
36325W        W 4719  37.313  10.133   3.626
36326W        W 4720  27.110  40.928   2.278
36327W        W 4721  32.645   6.790  13.793
36328W        W 4722  16.233  10.720   3.310
36329W        W 4723   1.733  20.470   0.793
36330W        W 4724  41.575  14.844   0.340
36331W        W 4725  39.784  31.018   1.781
36332W        W 4726   5.224  32.583  14.600
36333W        W 4727   8.160  13.194   4.543
36334W        W 4728  41.116   5.477   4.252
36335W        W 4729  24.779   2.955   2.296
36336W        W 4730  19.223  43.961  11.491
36337W        W 4731  13.210  15.675  14.969
36338W        W 4732  43.992  37.346  11.128
36339W        W 4733  11.547   6.703  14.920
36340W        W 4734  44.528  42.611   3.212
36341W        W 4735  26.519  22.898  12.219
36342W        W 4736  37.711  30.101  12.160
36343W        W 4737  26.822  32.702   2.909
36344W        W 4738  32.478   6.435  11.550
36345W        W 4739  35.553   6.292  14.992
36346W        W 4740  22.646  20.331  10.955
36347W        W 4741   8.437   2.242   3.207
36348W        W 4742   9.919  20.250   2.626
36349W        W 4743   2.194  18.583   4.116
36350W        W 4744  39.816  27.703   0.031
36351W        W 4745   2.910  32.110  11.171
36352W        W 4746  42.421  27.274  14.941
36353W        W 4747  42.445   6.937   3.767
36354W        W 4748  29.501  36.997  13.708
36355W        W 4749  13.400  21.962   3.666
36356W        W 4750   7.981   0.176   3.724
36357W        W 4751  32.434  38.083  14.991
36358W        W 4752  43.182  26.280  12.614
36359W        W 4753  18.063  42.522  13.079
36360W        W 4754  14.787  21.031   1.372
36361W        W 4755  33.668  25.791  14.991
36362W        W 4756  34.684  21.129  11.535
36363W        W 4757  44.291   8.761  13.307
36364W        W 4758  29.944   9.838   3.434
36365W        W 4759  41.500  43.531  14.971
36366W        W 4760  26.969   6.442  13.990
36367W        W 4761  32.778  39.805   4.738
36368W        W 4762   6.959  20.529   3.737
36369W        W 4763  14.102  26.793  11.042
36370W        W 4764  42.534  11.947  14.504
36371W        W 4765   0.707   2.689  13.348
36372W        W 4766  10.291   1.961  11.503
36373W        W 4767  36.559  21.280  14.874
36374W        W 4768  43.796  21.170  12.468
36375W        W 4769  16.624  28.625   4.937
36376W        W 4770  16.039  41.027  12.979
36377W        W 4771  33.383  41.059  10.992
36378W        W 4772   8.302  37.875  14.277
36379W        W 4773  18.564  34.453   4.955
36380W        W 4774  41.413   1.913  14.210
36381W        W 4775  16.818  35.121  11.391
36382W        W 4776  34.975   1.888  14.112
36383W        W 4777  27.606  26.254   2.919
36384W        W 4778   2.909  13.713   3.867
36385W        W 4779  18.791  17.174   2.290
36386W        W 4780   0.317  21.743   4.767
36387W        W 4781   0.672  13.525   5.077
36388W        W 4782  29.394  38.866  10.779
36389W        W 4783  13.050  22.028  10.797
36390W        W 4784  22.627   7.202   3.658
36391W        W 4785  11.186   1.208   3.353
36392W        W 4786  12.589  21.211   1.650
36393W        W 4787  20.557   2.592  12.867
36394W        W 4788  40.432  37.601   1.936
36395W        W 4789  42.320  13.646   1.670
36396W        W 4790  35.102  31.092  14.387
36397W        W 4791  24.410  11.160   4.163
36398W        W 4792   6.414  33.880  14.184
36399W        W 4793  29.170  33.599  14.904
36400W        W 4794  43.304  23.500  14.912
36401W        W 4795   4.788  33.132  10.695
36402W        W 4796  28.699  41.991   3.747
36403W        W 4797   7.419  31.437  11.677
36404W        W 4798  26.754  22.517   4.182
36405W        W 4799  13.252  15.379  11.044
36406W        W 4800  33.515  26.595  10.243
36407W        W 4801  17.287   4.340  12.940
36408W        W 4802  32.148  34.887   1.386
36409W        W 4803   1.178  29.871  13.149
36410W        W 4804  18.375  13.352  11.150
36411W        W 4805  26.786   7.349   2.187
36412W        W 4806   9.722  29.636  13.844
36413W        W 4807   1.380  41.324  14.233
36414W        W 4808  19.306  34.474   4.218
36415W        W 4809  43.178  18.661  10.910
36416W        W 4810  11.898  40.835   0.620
36417W        W 4811  42.523  44.122  11.432
36418W        W 4812  35.975  26.097   2.447
36419W        W 4813   7.117   2.779   4.081
36420W        W 4814  41.330  42.462   0.057
36421W        W 4815   9.711  24.468   2.274
36422W        W 4816  10.853  35.844   4.857
36423W        W 4817  16.151  43.227   3.461
36424W        W 4818   7.118  11.581  11.067
36425W        W 4819  43.290  14.200  11.663
36426W        W 4820  37.782  37.799   0.990
36427W        W 4821  22.268   8.146  14.832
36428W        W 4822   5.427  29.844   2.689
36429W        W 4823  35.579  31.700  13.855
36430W        W 4824   1.363  19.070   0.190
36431W        W 4825  20.160  11.908   3.887
36432W        W 4826  19.095  10.881  12.014
36433W        W 4827  40.973  18.562  14.789
36434W        W 4828  26.030  43.684   2.672
36435W        W 4829  43.485  44.929   0.740
36436W        W 4830  38.165  26.107   2.175
36437W        W 4831  43.155  20.409  12.001
36438W        W 4832   2.899  17.218  10.290
36439W        W 4833  12.866  33.659  11.186
36440W        W 4834  41.713  10.245  11.177
36441W        W 4835  39.440  44.549   1.434
36442W        W 4836  43.628  35.208  11.628
36443W        W 4837  10.851  32.856   3.280
36444W        W 4838   2.911  41.567   2.761
36445W        W 4839  20.067  32.973  13.290
36446W        W 4840  13.163  28.986  13.306
36447W        W 4841  25.133  12.151   2.439
36448W        W 4842   8.619  15.705  12.812
36449W        W 4843  15.632   3.918  13.506
36450W        W 4844  30.694  21.829   3.339
36451W        W 4845  38.296  38.303   0.817
36452W        W 4846  16.808  34.480  14.590
36453W        W 4847   2.480   1.713  11.663
36454W        W 4848  26.391   8.658  14.986
36455W        W 4849   8.451   4.611   2.309
36456W        W 4850   3.885  23.872  11.071
36457W        W 4851  43.032  16.572   1.646
36458W        W 4852   2.446  15.833  14.021
36459W        W 4853  42.467   3.282   0.553
36460W        W 4854  28.890  38.962  13.634
36461W        W 4855  10.650  26.032   3.185
36462W        W 4856  23.511   6.877   0.438
36463W        W 4857  10.857  41.742   4.132
36464W        W 4858  26.579  37.414  13.127
36465W        W 4859  36.857  37.969  14.743
36466W        W 4860  40.510  34.879   3.355
36467W        W 4861  41.080  19.112  11.991
36468W        W 4862  17.463  40.640  10.230
36469W        W 4863   9.268  12.248  14.128
36470W        W 4864  33.500  29.496   4.544
36471W        W 4865  40.481  41.018  12.048
36472W        W 4866  24.064   5.469  14.727
36473W        W 4867  33.670  24.726  14.047
36474W        W 4868  39.219  21.686   0.859
36475W        W 4869   1.167  23.046  14.407
36476W        W 4870  19.429  36.973   0.352
36477W        W 4871  37.107  30.614   0.435
36478W        W 4872   0.727  33.368  13.430
36479W        W 4873  14.158  33.122  12.964
36480W        W 4874  33.105  25.959  13.034
36481W        W 4875  35.400   3.837  12.282
36482W        W 4876  15.171  36.137  11.448
36483W        W 4877  19.787   0.460   4.169
36484W        W 4878  11.606   6.979   1.281
36485W        W 4879  30.270  23.238  10.893
36486W        W 4880  29.420  17.199  11.418
36487W        W 4881   1.974  33.203  11.143
36488W        W 4882  44.972  13.920  14.459
36489W        W 4883  22.350  16.399   2.962
36490W        W 4884  23.538   4.897  14.529
36491W        W 4885  23.121  23.231  14.354
36492W        W 4886  27.999  27.801  12.643
36493W        W 4887  32.114  23.237   0.959
36494W        W 4888   1.927   2.341   1.279
36495W        W 4889  27.511  18.044   2.909
36496W        W 4890  23.601  39.789  10.698
36497W        W 4891  43.535  23.152   4.196
36498W        W 4892  41.102  32.004  14.375
36499W        W 4893   4.403   1.464   2.779
36500W        W 4894  22.289  36.642  12.582
36501W        W 4895  17.794  41.296   2.276
36502W        W 4896  38.857  43.439  12.652
36503W        W 4897  25.747   9.649  10.329
36504W        W 4898  26.941  22.017   2.448
36505W        W 4899  44.452  40.277  14.402
36506W        W 4900  33.930   2.000  14.948
36507W        W 4901  33.479  29.468   1.195
36508W        W 4902  26.175   8.112   2.677
36509W        W 4903  34.520   5.880  11.155
36510W        W 4904  39.516  29.892   2.292
36511W        W 4905  35.467  33.148   4.177
36512W        W 4906   3.438  29.948  11.511
36513W        W 4907  40.546   9.166   0.758
36514W        W 4908  23.526  22.202   3.215
36515W        W 4909  31.721   7.780  13.399
36516W        W 4910  22.152  12.228  10.431
36517W        W 4911  29.848  10.041   4.264
36518W        W 4912  21.411   4.480  10.046
36519W        W 4913  17.609  33.388  13.097
36520W        W 4914  29.203  31.868   1.842
36521W        W 4915  14.601  37.462   4.977
36522W        W 4916  22.929  29.456   0.873
36523W        W 4917   7.891  29.690  13.888
36524W        W 4918  44.451  33.433   3.364
36525W        W 4919  25.998  20.024   1.287
36526W        W 4920   2.706   7.361  11.671
36527W        W 4921  24.732  15.110   0.938
36528W        W 4922  15.227  33.659  12.183
36529W        W 4923   2.219  18.711  11.835
36530W        W 4924  29.223  30.623   1.290
36531W        W 4925  27.292   2.434  13.515
36532W        W 4926  41.014  23.682   3.567
36533W        W 4927   7.661  26.666   3.674
36534W        W 4928  14.135  12.538   2.676
36535W        W 4929  25.583  42.823   2.729
36536W        W 4930  30.567   5.651   1.816
36537W        W 4931   2.764  18.179   3.228
36538W        W 4932   3.422  35.092   4.146
36539W        W 4933  34.444  12.022   4.086
36540W        W 4934   3.892   3.327   2.322
36541W        W 4935  11.192   7.763  12.481
36542W        W 4936  14.428  16.112  12.156
36543W        W 4937  44.564  24.514  14.451
36544W        W 4938  22.837  25.726  12.514
36545W        W 4939  24.013  16.159   4.736
36546W        W 4940  32.477   7.392   2.986
36547W        W 4941  42.247  26.455   1.279
36548W        W 4942  23.738  18.141   3.671
36549W        W 4943  15.762  25.773   1.886
36550W        W 4944   9.151   3.571   2.766
36551W        W 4945  32.571  22.681   1.466
36552W        W 4946  37.576  28.897  11.189
36553W        W 4947  29.108  13.090   3.296
36554W        W 4948  26.591   1.832   2.297
36555W        W 4949  15.695  23.306   0.137
36556W        W 4950   5.899  40.606   2.420
36557W        W 4951  12.667  12.576   2.043
36558W        W 4952  25.808  31.298  13.417
36559W        W 4953  44.029  38.564   3.270
36560W        W 4954  21.768   8.417   4.162
36561W        W 4955  21.006  10.155  14.967
36562W        W 4956  12.442  43.705   0.345
36563W        W 4957  14.192   1.074  11.144
36564W        W 4958   2.835  42.574   3.623
36565W        W 4959  29.681  40.873  13.273
36566W        W 4960  43.206  10.182   2.242
36567W        W 4961  36.030  28.112  14.808
36568W        W 4962  20.804  28.156  14.316
36569W        W 4963  26.782  35.835   0.706
36570W        W 4964  44.992  24.532  11.426
36571W        W 4965   1.243   5.679   3.191
36572W        W 4966  24.705   6.888   0.842
36573W        W 4967  26.906  39.786  11.217
36574W        W 4968  19.220  34.485   2.197
36575W        W 4969  29.471  28.605   1.148
36576W        W 4970  20.482  13.814  14.579
36577W        W 4971  38.593  22.572   2.698
36578W        W 4972  17.313  25.960  13.907
36579W        W 4973  35.960  27.664  12.017
36580W        W 4974  11.425  22.559   2.201
36581W        W 4975   5.731  36.954   1.517
36582W        W 4976  34.571  33.726   1.259
36583W        W 4977  14.254  25.423  10.735
36584W        W 4978   2.837  19.266  10.634
36585W        W 4979  37.140  41.492   0.820
36586W        W 4980  17.813  34.720  12.672
36587W        W 4981   8.215  18.950   3.156
36588W        W 4982   9.627   3.638  12.026
36589W        W 4983  30.162  23.503   0.911
36590W        W 4984  30.951  10.019  13.825
36591W        W 4985   2.864  20.820  12.583
36592W        W 4986  43.085  31.395   0.129
36593W        W 4987  24.789  32.551   1.013
36594W        W 4988   1.235  30.429  13.339
36595W        W 4989   8.929  11.970  13.402
36596W        W 4990  25.533  38.210  12.216
36597W        W 4991  30.342   5.422   1.369
36598W        W 4992  26.972  28.478   4.484
36599W        W 4993  32.563  17.606   1.340
36600W        W 4994  29.992  33.574  13.591
36601W        W 4995  14.114   9.780   3.146
36602W        W 4996  13.573  15.739   1.813
36603W        W 4997  23.035   8.229   1.747
36604W        W 4998  13.088  19.018  14.790
36605W        W 4999  42.768  20.263  13.607
36606W        W 5000   8.893   7.665  11.211
36607W        W 5001   4.749   7.912   2.634
36608W        W 5002  43.885   3.215   0.749
36609W        W 5003  16.210  42.439   1.642
36610W        W 5004  42.370  26.418   4.652
36611W        W 5005  25.037  40.911   4.864
36612W        W 5006  33.561   0.791  11.097
36613W        W 5007  11.800  38.024  10.192
36614W        W 5008  24.479   4.494  12.373
36615W        W 5009   2.919  24.135   4.212
36616W        W 5010  38.478  14.540   3.342
36617W        W 5011  15.284   7.886   3.622
36618W        W 5012  10.369  41.874   0.018
36619W        W 5013   1.730  33.047  14.885
36620W        W 5014   5.464  30.000  11.863
36621W        W 5015  13.054  18.886  13.888
36622W        W 5016  18.659  36.455   3.721
36623W        W 5017  19.786  28.951  11.677
36624W        W 5018  24.142  28.228   5.087
36625W        W 5019  39.607   2.346   3.137
36626W        W 5020   8.531  12.444   1.337
36627W        W 5021  31.698   2.263  14.280
36628W        W 5022  43.818  20.196   1.174
36629W        W 5023  30.070   1.739   4.109
36630W        W 5024  39.897  25.089   4.226
36631W        W 5025  31.345  23.694  12.632
36632W        W 5026  44.169   4.474  12.024
36633W        W 5027  36.351   4.679   1.712
36634W        W 5028  24.101   5.187   4.120
36635W        W 5029  33.775  40.336   0.924
36636W        W 5030  37.928   9.323   2.463
36637W        W 5031  38.554   2.280  14.587
36638W        W 5032  16.561   3.167  11.611
36639W        W 5033  30.676  17.850   3.083
36640W        W 5034   3.711  28.725   2.421
36641W        W 5035  43.235   0.682  11.481
36642W        W 5036   6.264   5.018   4.763
36643W        W 5037  37.827   2.478   0.120
36644W        W 5038  10.177  10.181  11.979
36645W        W 5039   5.805   8.612  10.637
36646W        W 5040  43.522  15.999  14.423
36647W        W 5041   3.223  19.694   0.783
36648W        W 5042   5.650  14.720   2.787
36649W        W 5043  18.083  13.288   0.913
36650W        W 5044  15.752  10.180  11.651
36651W        W 5045  33.955  30.861  13.773
36652W        W 5046   5.211  18.047  13.685
36653W        W 5047  34.898  11.073  11.434
36654W        W 5048  35.808  41.102   1.642
36655W        W 5049  42.806  37.938   3.250
36656W        W 5050  18.541   5.960  13.541
36657W        W 5051   0.955  16.237   0.765
36658W        W 5052   2.225  40.998  14.320
36659W        W 5053  40.795  34.119   1.937
36660W        W 5054  22.339  18.333   1.237
36661W        W 5055  12.113  42.539   1.915
36662W        W 5056  17.727  24.011   3.115
36663W        W 5057  21.997  25.609  11.219
36664W        W 5058   0.793  41.878  12.402
36665W        W 5059  12.911  37.489   0.013
36666W        W 5060  24.234  15.176   4.206
36667W        W 5061  31.045  31.889   4.027
36668W        W 5062  21.031  18.783   3.631
36669W        W 5063  10.919   7.962   0.966
36670W        W 5064  11.420  40.272  12.533
36671W        W 5065  23.116   8.730   0.031
36672W        W 5066  20.086  34.051   1.440
36673W        W 5067   3.952  15.592   2.715
36674W        W 5068  24.514  39.012  14.980
36675W        W 5069   3.273  13.372   1.570
36676W        W 5070   8.838  27.435   2.833
36677W        W 5071  32.637  35.113  14.578
36678W        W 5072  31.687  10.717   1.799
36679W        W 5073  24.190   2.646  13.929
36680W        W 5074   4.768  41.909  12.388
36681W        W 5075  21.820  25.130  11.087
36682W        W 5076   9.414  29.649   4.890
36683W        W 5077   4.038  44.015  13.010
36684W        W 5078  34.371  25.783   1.797
36685W        W 5079  21.427  34.692   1.888
36686W        W 5080  43.575   0.697   1.418
36687W        W 5081  20.161  15.302  14.379
36688W        W 5082  40.773  35.530   4.424
36689W        W 5083  40.671  43.194  10.353
36690W        W 5084  16.272  10.944  10.434
36691W        W 5085  43.390  19.564   4.980
36692W        W 5086   9.856  14.757  13.568
36693W        W 5087  12.867  41.794   4.125
36694W        W 5088  12.305  16.246   1.802
36695W        W 5089  42.690  44.471   5.082
36696W        W 5090   6.675  39.856   2.889
36697W        W 5091  41.431  28.454   3.640
36698W        W 5092  11.271  23.623  10.719
36699W        W 5093  44.966  41.602   0.230
36700W        W 5094  21.953   2.563   4.185
36701W        W 5095  25.716  35.916   0.797
36702W        W 5096  12.462  34.355   4.496
36703W        W 5097   0.036  23.254  12.498
36704W        W 5098  35.436  42.928   4.385
36705W        W 5099  18.235  42.046  12.107
36706W        W 5100  41.988  34.468  11.110
36707W        W 5101  44.526  44.821   2.285
36708W        W 5102   7.642  12.695  13.953
36709W        W 5103  23.070  19.538  10.692
36710W        W 5104   0.020   9.379  11.643
36711W        W 5105   8.658  30.198  12.628
36712W        W 5106  28.139  11.623   3.589
36713W        W 5107  30.698  26.282   1.329
36714W        W 5108  32.970  34.970  12.876
36715W        W 5109   6.373  36.015   3.501
36716W        W 5110  23.444  35.187   0.357
36717W        W 5111   5.202  30.836   2.797
36718W        W 5112  39.101  15.571   1.403
36719W        W 5113  23.740  22.462   2.750
36720W        W 5114   6.689  32.559  12.642
36721W        W 5115   6.727  34.680  10.647
36722W        W 5116  35.257  39.913   0.951
36723W        W 5117  32.630  34.360   4.496
36724W        W 5118  40.878  28.062  11.338
36725W        W 5119   7.803  44.944   2.325
36726W        W 5120  25.646   4.453  14.282
36727W        W 5121   9.930  32.648   4.270
36728W        W 5122  40.664  22.610  13.384
36729W        W 5123   0.728  31.090   2.787
36730W        W 5124  36.066   4.397   4.866
36731W        W 5125   6.777   9.348   4.311
36732W        W 5126   2.542  10.439  10.715
36733W        W 5127   6.186  36.456  10.546
36734W        W 5128  11.262  35.041   4.539
36735W        W 5129  27.920  19.711   0.413
36736W        W 5130  18.242  21.978   0.413
36737W        W 5131  13.146  31.397   3.322
36738W        W 5132  39.078  12.860   1.225
36739W        W 5133   6.150  15.991  13.734
36740W        W 5134  16.593  41.162  11.665
36741W        W 5135  18.613  24.104  12.016
36742W        W 5136  40.874  10.826  13.316
36743W        W 5137  20.203  37.336  11.095
36744W        W 5138  28.393  19.243  14.083
36745W        W 5139  29.487   8.344  14.543
36746W        W 5140  31.893   8.334  11.216
36747W        W 5141  42.856  42.719   9.891
36748W        W 5142  23.486  24.589   3.604
36749W        W 5143  12.568  40.909   2.293
36750W        W 5144  23.117   5.337   0.823
36751W        W 5145   8.825  38.415   4.918
36752W        W 5146  29.050  13.679  13.984
36753W        W 5147  20.146   5.122   0.351
36754W        W 5148  16.300   1.260  11.430
36755W        W 5149  41.032   0.952   0.751
36756W        W 5150   5.299  33.670  13.154
36757W        W 5151  13.589  32.218  12.430
36758W        W 5152  42.908  20.053   0.773
36759W        W 5153   3.898   5.396  12.990
36760W        W 5154   9.643  25.863  10.963
36761W        W 5155  39.532   7.982   0.923
36762W        W 5156   0.948  38.656   2.353
36763W        W 5157  32.904  15.184  13.324
36764W        W 5158   6.772  34.190   1.840
36765W        W 5159   3.541  36.518  12.972
36766W        W 5160  18.549  31.755  12.681
36767W        W 5161  37.572   7.946  11.863
36768W        W 5162  40.891  33.827   4.091
36769W        W 5163  31.573   4.994  13.382
36770W        W 5164   8.869  42.310   0.683
36771W        W 5165  38.935  14.005   1.718
36772W        W 5166  15.531  20.672  10.954
36773W        W 5167   0.027  26.196  14.468
36774W        W 5168  29.515  12.647  11.207
36775W        W 5169  34.962   8.737  10.246
36776W        W 5170  23.722  37.044  14.248
36777W        W 5171  11.241  33.127  10.383
36778W        W 5172  15.803   7.307  14.929
36779W        W 5173  18.601  15.428  13.919
36780W        W 5174  39.887  10.274   3.924
36781W        W 5175  34.359  20.305   1.812
36782W        W 5176   1.737  37.538   3.897
36783W        W 5177   1.023   6.197  12.181
36784W        W 5178  40.135   0.031   2.608
36785W        W 5179  25.496  15.806  12.107
36786W        W 5180  26.640  41.001   3.333
36787W        W 5181  33.073  12.960  12.500
36788W        W 5182   0.475  15.582   3.229
36789W        W 5183  42.510  44.075  14.879
36790W        W 5184  16.048   3.220   4.600
36791W        W 5185  11.756  19.964  11.306
36792W        W 5186  16.227  32.842   3.224
36793W        W 5187  40.384  42.018   3.173
36794W        W 5188  39.498  19.298   4.127
36795W        W 5189  35.409  16.112  12.009
36796W        W 5190   3.675   8.930   4.292
36797W        W 5191  11.679   8.816   3.638
36798W        W 5192  11.222  25.686  10.615
36799W        W 5193  42.432   6.521   1.881
36800W        W 5194  14.651  27.657  11.148
36801W        W 5195  24.945   5.785  14.437
36802W        W 5196  22.645  28.395  11.398
36803W        W 5197  10.455  19.515   3.339
36804W        W 5198   7.805   6.682   4.105
36805W        W 5199  32.652   8.723   0.334
36806W        W 5200  14.151  38.709  13.374
36807W        W 5201   7.011  12.120   2.314
36808W        W 5202  17.476  14.572  11.419
36809W        W 5203  41.477  23.751  12.388
36810W        W 5204   8.260  34.068  14.496
36811W        W 5205  35.008  36.929  14.834
36812W        W 5206  20.683  36.015  14.082
36813W        W 5207  34.460  13.722  11.329
36814W        W 5208   0.515  40.025   0.841
36815W        W 5209  12.311  34.166  13.402
36816W        W 5210   3.416   9.601  14.441
36817W        W 5211  24.098  24.139   0.832
36818W        W 5212  13.448   0.862  12.354
36819W        W 5213  41.300  31.609  10.446
36820W        W 5214  35.326  15.554   4.855
36821W        W 5215  42.342   9.902   1.334
36822W        W 5216  25.421  23.733   0.641
36823W        W 5217  16.529   3.963  13.596
36824W        W 5218  24.792  13.800   4.192
36825W        W 5219  30.755  44.826  13.972
36826W        W 5220  19.789  31.138   4.589
36827W        W 5221   1.259  14.101  13.924
36828W        W 5222  38.803  19.135   3.659
36829W        W 5223  30.503  15.765  10.447
36830W        W 5224   9.713  26.679   0.405
36831W        W 5225  27.870  25.523  14.940
36832W        W 5226   0.873  25.672   1.390
36833W        W 5227  33.395   3.170  11.179
36834W        W 5228  16.958   5.714  12.010
36835W        W 5229   9.914  30.960  13.270
36836W        W 5230   7.814  37.925  14.467
36837W        W 5231   3.713   3.818  13.828
36838W        W 5232  40.988  15.167  13.873
36839W        W 5233   7.527  24.694  11.650
36840W        W 5234  40.900  12.710  11.052
36841W        W 5235  32.866  10.682  14.229
36842W        W 5236  39.143   1.581  11.601
36843W        W 5237  39.447   6.261  10.732
36844W        W 5238   0.097  42.804   2.332
36845W        W 5239  13.106  17.323  12.952
36846W        W 5240  43.070  21.220  13.367
36847W        W 5241  25.076  30.832  12.037
36848W        W 5242  42.489  17.926   0.247
36849W        W 5243  19.771   8.926  10.334
36850W        W 5244  30.112  30.037  14.059
36851W        W 5245  28.163  18.775   4.642
36852W        W 5246   2.431   3.486  11.994
36853W        W 5247  23.318  43.202  11.185
36854W        W 5248   3.189  10.674   4.316
36855W        W 5249  14.451  43.121  14.301
36856W        W 5250  13.128  25.017  13.470
36857W        W 5251   0.283   2.837  11.656
36858W        W 5252   7.408  11.799   2.234
36859W        W 5253  10.787   9.365  11.451
36860W        W 5254  24.941   9.382  14.268
36861W        W 5255  10.118  25.671  12.812
36862W        W 5256  41.885  32.301   3.990
36863W        W 5257   3.785  17.409  10.542
36864W        W 5258   7.430  32.216  13.803
36865W        W 5259  30.933  11.785   4.090
36866W        W 5260  10.863  24.293   3.681
36867W        W 5261  17.189   7.786   4.392
36868W        W 5262   8.808  21.650   4.448
36869W        W 5263   9.554  19.718  14.929
36870W        W 5264  33.931  34.480  14.628
36871W        W 5265  28.544   9.072  13.346
36872W        W 5266  25.824  22.006   4.304
36873W        W 5267   1.782  11.783  14.384
36874W        W 5268   8.263   9.133   3.270
36875W        W 5269   2.998  22.777  13.560
36876W        W 5270  44.256  33.123  13.550
36877W        W 5271   9.462  12.274   1.807
36878W        W 5272   4.540  29.951   1.409
36879W        W 5273   5.956  38.436   2.266
36880W        W 5274  11.351  23.943   2.795
36881W        W 5275   7.804   5.397  10.867
36882W        W 5276  33.999  30.540   3.397
36883W        W 5277   0.002  41.986  14.027
36884W        W 5278  40.519   7.312  13.595
36885W        W 5279   0.900  14.545  12.406
36886W        W 5280  16.802  43.463  11.174
36887W        W 5281  36.940   2.519   1.311
36888W        W 5282  32.737  11.126   2.419
36889W        W 5283   6.208  29.952   1.788
36890W        W 5284   2.206   1.824   2.307
36891W        W 5285  12.381  15.632   3.259
36892W        W 5286   5.429  44.961  14.568
36893W        W 5287   7.648  27.711  12.410
36894W        W 5288  32.193   3.931   2.108
36895W        W 5289  13.519   9.590   0.854
36896W        W 5290   9.784  44.587  14.302
36897W        W 5291   4.413   7.503   2.636
36898W        W 5292  21.988  11.776   0.688
36899W        W 5293  42.835  12.287   2.548
36900W        W 5294   5.517  22.819   3.892
36901W        W 5295  34.975   5.608  10.732
36902W        W 5296  15.470   9.478   1.760
36903W        W 5297  18.807  11.904   0.310
36904W        W 5298  30.200  42.500  14.502
36905W        W 5299  39.900   5.689  10.449
36906W        W 5300  16.236  21.982   0.855
36907W        W 5301  31.441  36.610   2.195
36908W        W 5302  23.260   9.247  14.915
36909W        W 5303  33.391  18.951  12.062
36910W        W 5304  31.139   0.745   1.420
36911W        W 5305  30.016  41.993  12.855
36912W        W 5306  27.536  37.390  11.193
36913W        W 5307  27.744  43.143   5.061
36914W        W 5308  24.083  28.080   1.144
36915W        W 5309  23.324  18.054  12.238
36916W        W 5310  32.551  17.502   4.645
36917W        W 5311  32.963  13.011   4.612
36918W        W 5312  35.251  30.484   0.759
36919W        W 5313  10.623   9.262   0.730
36920W        W 5314  36.049  18.942   4.414
36921W        W 5315  18.179  20.148  14.142
36922W        W 5316  33.980  15.521   0.455
36923W        W 5317  31.740  22.410  11.966
36924W        W 5318  23.126  31.521   3.245
36925W        W 5319  41.758  16.631   3.674
36926W        W 5320  37.472  39.328  13.586
36927W        W 5321   6.144  12.705  10.174
36928W        W 5322  22.198  27.186  13.303
36929W        W 5323  23.880  25.709  14.877
36930W        W 5324  12.260  41.322   1.430
36931W        W 5325  38.347   0.034   1.795
36932W        W 5326  13.644  39.996  12.635
36933W        W 5327  10.175  24.578   4.920
36934W        W 5328  21.364  13.792   2.156
36935W        W 5329  28.674  35.475   2.944
36936W        W 5330   9.611  16.611  13.443
36937W        W 5331  35.034   3.974   4.043
36938W        W 5332   4.610  14.193  11.574
36939W        W 5333  19.609  35.952   4.195
36940W        W 5334  41.366  42.974   1.282
36941W        W 5335  35.477   6.112   0.468
36942W        W 5336   4.393  40.072  13.868
36943W        W 5337  41.871  40.335  11.533
36944W        W 5338  10.635   1.714  11.771
36945W        W 5339   0.928  32.605  12.396
36946W        W 5340  40.331  38.880   3.684
36947W        W 5341   5.292  33.572  12.162
36948W        W 5342  29.516   9.201  12.811
36949W        W 5343  37.699  25.521   4.209
36950W        W 5344  31.161   7.714  14.732
36951W        W 5345  26.729  44.369   0.344
36952W        W 5346  36.980  17.511   0.297
36953W        W 5347  24.579  44.985  13.398
36954W        W 5348  26.153  27.103   3.363
36955W        W 5349  11.255  37.044  13.161
36956W        W 5350  30.910  13.685  13.573
36957W        W 5351  35.546   6.256   2.416
36958W        W 5352  13.700  10.684  12.126
36959W        W 5353  20.779  44.269  11.040
36960W        W 5354  15.794  16.868  11.531
36961W        W 5355  16.306  29.074  11.956
36962W        W 5356  26.857  39.128   2.819
36963W        W 5357  19.753  35.567  11.858
36964W        W 5358  20.111  30.553   3.203
36965W        W 5359  36.070  32.025   3.731
36966W        W 5360  16.516  34.057  14.992
36967W        W 5361   7.304  30.484  12.565
36968W        W 5362  39.957  33.911  10.913
36969W        W 5363   6.253  37.972  10.692
36970W        W 5364  21.672  14.315   3.325
36971W        W 5365   8.397  39.407   4.387
36972W        W 5366   4.418  33.115  12.425
36973W        W 5367   3.952  34.193  13.011
36974W        W 5368  21.995  16.820   4.743
36975W        W 5369   8.855  28.160  12.616
36976W        W 5370  29.618  26.105   1.308
36977W        W 5371  35.861  36.639  12.540
36978W        W 5372  43.122  37.797   2.322
36979W        W 5373  37.005   5.818   0.799
36980W        W 5374  16.060   3.617  12.493
36981W        W 5375  19.824  24.679  11.045
36982W        W 5376  32.642  15.355  14.421
36983W        W 5377  24.490  30.555   1.371
36984W        W 5378  14.124  27.739   0.046
36985W        W 5379  13.364  43.886   0.322
36986W        W 5380  19.219  24.645   3.676
36987W        W 5381  16.350  40.606   4.118
36988W        W 5382   8.800  42.835  10.990
36989W        W 5383  42.565  12.754   1.366
36990W        W 5384  32.943  13.188   2.636
36991W        W 5385   8.574  39.829  11.980
36992W        W 5386  26.655   9.455  11.451
36993W        W 5387  39.457  23.540   0.021
36994W        W 5388  17.461  43.898  10.416
36995W        W 5389  11.824  25.206   5.151
36996W        W 5390  23.843  41.327   4.189
36997W        W 5391  38.263  19.651   2.298
36998W        W 5392  39.235  20.614  12.073
36999W        W 5393  31.163   7.726  12.541
37000W        W 5394   6.629  37.123   1.264
37001W        W 5395  27.681  36.780   1.877
37002W        W 5396  22.002  19.727   4.111
37003W        W 5397  23.518  27.076  14.310
37004W        W 5398   0.799  10.408   5.093
37005W        W 5399  29.843   6.867   2.787
37006W        W 5400  35.158   2.736  12.850
37007W        W 5401  13.615  31.799  13.340
37008W        W 5402  37.368  23.743   1.877
37009W        W 5403  35.466   4.986   2.056
37010W        W 5404  42.511  29.037   4.872
37011W        W 5405  33.367  21.228   0.814
37012W        W 5406   6.413  11.773  10.345
37013W        W 5407  44.981  40.316   2.838
37014W        W 5408  21.069  43.518  14.774
37015W        W 5409  14.875  26.717   0.934
37016W        W 5410  39.277  44.864  14.846
37017W        W 5411  32.769  20.600   2.315
37018W        W 5412  39.458  40.366  12.702
37019W        W 5413  41.013  28.423   3.321
37020W        W 5414   0.823  32.248  13.385
37021W        W 5415   6.379  44.986  14.363
37022W        W 5416  44.421   4.674  10.680
37023W        W 5417  41.073  36.186   1.162
37024W        W 5418  42.944  17.088   3.725
37025W        W 5419  21.690  23.755  14.982
37026W        W 5420  24.583  41.041   0.572
37027W        W 5421  14.231   1.241  13.315
37028W        W 5422  34.609   3.389  11.097
37029W        W 5423   6.420   8.157  14.059
37030W        W 5424  30.327  31.046   1.790
37031W        W 5425  22.094   0.321   3.253
37032W        W 5426   0.112  29.724  10.655
37033W        W 5427   9.745   2.246   2.927
37034W        W 5428  19.353  13.830  14.971
37035W        W 5429  34.146  36.904  10.677
37036W        W 5430  21.052  21.239   3.080
37037W        W 5431  25.667  22.426   0.801
37038W        W 5432   1.276  39.071  11.401
37039W        W 5433  17.548  16.726   4.038
37040W        W 5434   9.125  22.215   1.078
37041W        W 5435  10.943  40.442  11.478
37042W        W 5436  19.821   6.217  13.959
37043W        W 5437  32.642  22.735  13.775
37044W        W 5438  38.818  33.451  13.354
37045W        W 5439  41.296   9.129  13.789
37046W        W 5440  40.608  37.870   3.074
37047W        W 5441  10.829  17.955   4.810
37048W        W 5442  19.090  35.687   2.429
37049W        W 5443   9.305  32.196  11.520
37050W        W 5444  10.550  11.686   4.050
37051W        W 5445  43.338  25.769  12.879
37052W        W 5446  41.542  11.635  14.569
37053W        W 5447  15.574  40.421  12.371
37054W        W 5448   9.162   2.911   4.554
37055W        W 5449   0.751  14.144   1.470
37056W        W 5450   3.947   2.220   1.549
37057W        W 5451   2.683  15.367  10.394
37058W        W 5452  41.019  30.432  13.964
37059W        W 5453  41.811  22.584  14.041
37060W        W 5454  33.864  33.317  12.942
37061W        W 5455   8.143  24.623  14.429
37062W        W 5456  34.653  40.932  14.171
37063W        W 5457  18.933  36.630  13.907
37064W        W 5458  39.621  36.111   4.177
37065W        W 5459  14.134  30.609  14.518
37066W        W 5460  15.820  27.018  10.997
37067W        W 5461  28.784  16.802   3.100
37068W        W 5462  29.141  42.764   0.797
37069W        W 5463  26.697  40.646   4.271
37070W        W 5464  34.960  42.887  12.616
37071W        W 5465  11.178  41.457   4.528
37072W        W 5466  32.501  29.346  13.967
37073W        W 5467   0.330  29.092   0.600
37074W        W 5468  27.645   1.338   0.720
37075W        W 5469  38.311   7.468  12.477
37076W        W 5470  29.567   8.339  11.162
37077W        W 5471  26.079  42.103  11.492
37078W        W 5472  31.197  26.453   4.510
37079W        W 5473  15.266  36.432  13.286
37080W        W 5474  26.683  16.271  11.149
37081W        W 5475  30.398  10.755  14.398
37082W        W 5476  17.691  30.353  13.975
37083W        W 5477  37.443  16.223  13.633
37084W        W 5478  28.579  15.319  12.006
37085W        W 5479   3.171  37.544   5.224
37086W        W 5480  26.015  30.051  14.455
37087W        W 5481  41.035  44.733  11.667
37088W        W 5482  11.214  42.843  14.351
37089W        W 5483  35.964  23.945   1.879
37090W        W 5484  10.335  29.240  13.250
37091W        W 5485   2.879  36.510  10.718
37092W        W 5486   7.350   5.822   4.394
37093W        W 5487  31.752  19.326  13.395
37094W        W 5488  36.804  36.975   4.104
37095W        W 5489  21.351  33.450   2.216
37096W        W 5490  33.465  34.495  14.411
37097W        W 5491  14.705  22.700  14.069
37098W        W 5492  44.474  42.218  10.747
37099W        W 5493  21.076  11.930  11.076
37100W        W 5494  11.293   1.245  13.157
37101W        W 5495  26.405  38.834   2.702
37102W        W 5496  40.112  28.104   4.471
37103W        W 5497  21.089   1.013   0.277
37104W        W 5498  33.635  24.756  14.958
37105W        W 5499   5.662   8.753   0.472
37106W        W 5500  29.068  23.152   2.140
37107W        W 5501   5.717  23.187   4.234
37108W        W 5502  18.997  15.168  14.935
37109W        W 5503   4.250  25.234   4.104
37110W        W 5504  12.789   6.459   4.160
37111W        W 5505  20.197  34.970  12.434
37112W        W 5506  22.201  17.264   2.157
37113W        W 5507  38.081  43.911  13.275
37114W        W 5508  20.372  20.325  14.264
37115W        W 5509  15.788   0.385  11.947
37116W        W 5510   6.473  38.703   4.997
37117W        W 5511  20.713  31.453   3.129
37118W        W 5512  20.682  15.522   0.260
37119W        W 5513   5.366  39.001  13.891
37120W        W 5514  10.643  35.653   2.227
37121W        W 5515  23.602  27.041   4.273
37122W        W 5516  12.883   1.191  10.744
37123W        W 5517   2.733  24.294  13.538
37124W        W 5518   6.533  20.620   4.030
37125W        W 5519  31.136  19.934  11.117
37126W        W 5520  15.105   4.928  12.040
37127W        W 5521  27.638  39.787  14.695
37128W        W 5522  29.847  41.498  13.546
37129W        W 5523  29.683  32.612  10.714
37130W        W 5524  17.287  22.272   1.568
37131W        W 5525  12.376  29.478  13.055
37132W        W 5526  13.901  17.445  14.790
37133W        W 5527  32.638   1.742  13.500
37134W        W 5528  40.995  32.504  11.935
37135W        W 5529  16.731  41.170  10.316
37136W        W 5530  18.466  11.872   0.715
37137W        W 5531   6.013  34.601   4.657
37138W        W 5532  43.454  17.640   0.696
37139W        W 5533  32.200   6.210   2.325
37140W        W 5534  22.463  21.210  13.816
37141W        W 5535  40.473  24.591  12.539
37142W        W 5536  23.702  43.233   0.903
37143W        W 5537   5.492  19.524  13.394
37144W        W 5538  28.165   2.883   3.757
37145W        W 5539  27.502  14.877   3.172
37146W        W 5540  35.900  44.435  13.420
37147W        W 5541  34.995  35.908   1.661
37148W        W 5542  14.075  19.954   2.837
37149W        W 5543  34.644   6.413  13.389
37150W        W 5544  38.437  41.840   4.349
37151W        W 5545  40.463  26.181   4.704
37152W        W 5546  34.796   5.429  11.209
37153W        W 5547  38.343  23.778   2.855
37154W        W 5548  37.753   6.599   1.989
37155W        W 5549  26.201  26.059   0.796
37156W        W 5550  25.616  33.096  13.024
37157W        W 5551  41.727  25.858  10.678
37158W        W 5552   4.217  23.205   3.242
37159W        W 5553  37.877  24.319   3.843
37160W        W 5554  19.099  32.023  13.159
37161W        W 5555  37.864   0.823  13.639
37162W        W 5556  33.882   1.850   1.822
37163W        W 5557  43.762  14.845  11.866
37164W        W 5558  44.429   1.229  14.676
37165W        W 5559   8.280   0.073  11.110
37166W        W 5560  44.760  34.357   3.659
37167W        W 5561  17.065  30.999   2.282
37168W        W 5562   0.847  35.226  11.719
37169W        W 5563  25.428  18.644  11.601
37170W        W 5564   4.188  12.899  11.663
37171W        W 5565  37.031  40.541  11.210
37172W        W 5566  41.013  17.038  14.017
37173W        W 5567  40.035  22.930   3.651
37174W        W 5568  40.144  22.176   3.215
37175W        W 5569  27.011  11.288  12.959
37176W        W 5570   1.366  39.015   0.724
37177W        W 5571  10.185  13.314   4.669
37178W        W 5572  25.877  41.780  11.866
37179W        W 5573  30.886  15.267  14.397
37180W        W 5574  16.225  28.134  13.771
37181W        W 5575  22.780  16.425  11.223
37182W        W 5576  24.727  28.790   4.788
37183W        W 5577  27.953   9.953  10.806
37184W        W 5578  40.520  28.592   1.730
37185W        W 5579  18.906   0.503   3.240
37186W        W 5580  14.286  12.378   3.314
37187W        W 5581   3.958  25.423   3.467
37188W        W 5582  13.785  10.229   3.582
37189W        W 5583   3.236  10.307  12.123
37190W        W 5584  41.081  12.879  13.057
37191W        W 5585  14.792  18.530   4.711
37192W        W 5586   8.180  20.195  11.336
37193W        W 5587  16.623   6.634  13.457
37194W        W 5588   6.240   4.894  10.818
37195W        W 5589  43.219  42.974   0.869
37196W        W 5590   5.781  17.290  13.548
37197W        W 5591  10.432   3.184   3.495
37198W        W 5592  17.897  43.125  12.268
37199W        W 5593  27.271  31.641   1.856
37200W        W 5594   4.543  31.389  13.089
37201W        W 5595  18.564  17.953   2.766
37202W        W 5596  39.988  34.632  12.874
37203W        W 5597  29.669   9.466   2.187
37204W        W 5598  12.600  13.258  13.893
37205W        W 5599  33.871   4.307   3.278
37206W        W 5600  43.932  10.680   2.128
37207W        W 5601  13.652  37.852   0.190
37208W        W 5602  14.731  30.766   1.267
37209W        W 5603  10.813  27.468  14.929
37210W        W 5604   0.711   5.991   1.861
37211W        W 5605  22.424  11.419   2.260
37212W        W 5606  32.361  19.523  14.684
37213W        W 5607  12.872  35.873  13.075
37214W        W 5608   4.057  40.033  12.566
37215W        W 5609   8.886  13.463  12.900
37216W        W 5610  12.066  19.166  12.951
37217W        W 5611  27.000  28.210   3.840
37218W        W 5612  11.561  10.144  13.221
37219W        W 5613  41.861  37.882   3.968
37220W        W 5614  16.767   3.167  14.891
37221W        W 5615  38.584   0.072   2.596
37222W        W 5616  35.095  37.105   1.828
37223W        W 5617  32.197  38.041  12.617
37224W        W 5618  41.838  42.736  13.011
37225W        W 5619  34.584  37.408  11.992
37226W        W 5620   8.315   0.953  14.823
37227W        W 5621  13.268  25.165   4.364
37228W        W 5622  15.123  37.292  10.216
37229W        W 5623  27.318   7.449   2.122
37230W        W 5624  40.720  26.576   3.290
37231W        W 5625   0.814  10.439   2.333
37232W        W 5626  39.800  40.072  11.092
37233W        W 5627  26.955  25.997  13.702
37234W        W 5628  35.785  10.158   4.569
37235W        W 5629  26.737   8.296  12.012
37236W        W 5630  20.182  34.536   4.526
37237W        W 5631  17.881  18.013   4.803
37238W        W 5632  23.749  41.345  12.487
37239W        W 5633  38.360   2.905   4.334
37240W        W 5634   2.185  13.848  14.904
37241W        W 5635  14.877   8.457  11.352
37242W        W 5636  34.402  12.751  14.568
37243W        W 5637  37.390  24.654   4.547
37244W        W 5638  24.689   2.371   4.308
37245W        W 5639  42.434  43.704   3.106
37246W        W 5640  12.680  32.110   4.957
37247W        W 5641  35.977   9.089   1.944
37248W        W 5642  15.641   5.711   0.814
37249W        W 5643  33.969  26.927   0.792
37250W        W 5644   1.435   1.827   1.846
37251W        W 5645  28.555  33.648  13.225
37252W        W 5646  44.307  35.978   4.161
37253W        W 5647   2.744  33.722   3.355
37254W        W 5648  43.248   1.056  12.878
37255W        W 5649  38.569   6.885   0.050
37256W        W 5650  25.116  42.871  12.105
37257W        W 5651  21.201  20.320  11.064
37258W        W 5652  39.034  18.751  11.146
37259W        W 5653  22.018  15.314   0.024
37260W        W 5654  21.596  24.410   3.834
37261W        W 5655  42.758  38.267  10.679
37262W        W 5656  19.243   6.436   4.181
37263W        W 5657  43.454  18.758   2.441
37264W        W 5658   2.800   4.980  12.033
37265W        W 5659   9.666  18.251   1.229
37266W        W 5660  27.974   5.467  12.497
37267W        W 5661  23.201  38.787  13.177
37268W        W 5662   2.360  14.748  11.859
37269W        W 5663   2.805  17.223  14.260
37270W        W 5664  15.366  39.448   1.583
37271W        W 5665   2.066  34.277   3.561
37272W        W 5666  25.502  33.187  10.914
37273W        W 5667   0.636  27.229   2.645
37274W        W 5668  13.879  22.056  12.702
37275W        W 5669   8.758  41.488  10.664
37276W        W 5670  18.230  17.535   2.675
37277W        W 5671  33.849  27.423  12.965
37278W        W 5672   7.947  10.297   4.664
37279W        W 5673  16.685  34.459   4.378
37280W        W 5674  39.142  16.217   3.123
37281W        W 5675  19.625  44.776   1.285
37282W        W 5676  39.576  31.963   4.933
37283W        W 5677   5.901  26.495  12.810
37284W        W 5678  30.017  35.909  14.790
37285W        W 5679  16.563  41.642  10.492
37286W        W 5680  19.755  13.875  14.052
37287W        W 5681  44.732  35.086  13.183
37288W        W 5682  16.789  28.115   2.302
37289W        W 5683  37.565   1.347  14.321
37290W        W 5684   3.972  29.671  12.563
37291W        W 5685  39.246  40.000   2.254
37292W        W 5686  37.408  30.487   4.868
37293W        W 5687   3.442  34.020   2.649
37294W        W 5688  34.381  35.982   4.122
37295W        W 5689   5.223  44.751  13.765
37296W        W 5690  32.892  21.123  11.822
37297W        W 5691   3.038  15.103  14.674
37298W        W 5692  34.077   2.322   2.000
37299W        W 5693  20.043  38.312   1.869
37300W        W 5694   6.924   9.010   1.668
37301W        W 5695   5.200  26.406  12.461
37302W        W 5696  32.162  15.673   3.243
37303W        W 5697   3.919  27.406  14.817
37304W        W 5698  17.627  19.164   9.915
37305W        W 5699  14.188  40.324   0.417
37306W        W 5700  22.668  33.316   4.114
37307W        W 5701  38.857  30.618  14.868
37308W        W 5702  33.010  33.602  13.631
37309W        W 5703  11.376  36.523   1.676
37310W        W 5704  16.878  24.198  14.899
37311W        W 5705  24.410  14.736  11.577
37312W        W 5706  26.434  22.484   3.291
37313W        W 5707  29.573  38.047   0.473
37314W        W 5708   2.561  14.593  13.915
37315W        W 5709  29.843  30.501  12.589
37316W        W 5710  40.705   3.920   2.435
37317W        W 5711  21.210  18.852  13.425
37318W        W 5712  13.386  16.886  11.594
37319W        W 5713  27.527  27.888   0.952
37320W        W 5714  32.109  44.760   1.159
37321W        W 5715  38.359  44.530   2.566
37322W        W 5716   4.627  27.677   2.178
37323W        W 5717   5.748  18.104  14.389
37324W        W 5718  38.468  22.320   0.525
37325W        W 5719  43.306  26.967   3.262
37326W        W 5720  22.984  33.891  11.634
37327W        W 5721  36.063  12.527   3.662
37328W        W 5722   6.645  32.394   0.203
37329W        W 5723  28.011  10.735   3.871
37330W        W 5724  16.712  35.838  14.735
37331W        W 5725  14.577  28.498  12.445
37332W        W 5726  11.354  42.031  12.458
37333W        W 5727  16.088  44.848   1.785
37334W        W 5728  20.000  37.324   0.908
37335W        W 5729  19.595   0.392  14.893
37336W        W 5730  18.867  16.157   4.206
37337W        W 5731  12.101  12.501   4.200
37338W        W 5732  28.409  36.270   1.295
37339W        W 5733  34.852  10.473   4.614
37340W        W 5734  19.549  17.768   3.174
37341W        W 5735  12.657  38.306  12.233
37342W        W 5736   4.570  21.399   4.511
37343W        W 5737   9.105   5.809  13.341
37344W        W 5738  43.554   8.326   3.766
37345W        W 5739  21.134  35.374  12.939
37346W        W 5740  22.331   8.408   4.386
37347W        W 5741   4.689  23.263  12.885
37348W        W 5742  11.234  15.508   1.212
37349W        W 5743   9.209   1.643  12.455
37350W        W 5744   5.449  44.801   4.696
37351W        W 5745  32.722   4.797  10.813
37352W        W 5746  23.322  28.066  13.574
37353W        W 5747  42.748  21.578   3.495
37354W        W 5748  25.253   9.839   1.695
37355W        W 5749   5.307  17.264  13.326
37356W        W 5750  31.449  10.254   1.220
37357W        W 5751   2.203  33.044   4.639
37358W        W 5752  22.715  13.209  13.039
37359W        W 5753  17.318  44.965  12.209
37360W        W 5754   6.718  26.526  13.271
37361W        W 5755  21.272  41.456   3.321
37362W        W 5756  27.371   8.748   4.110
37363W        W 5757   5.492   8.253  14.791
37364W        W 5758  21.751   2.347   2.380
37365W        W 5759  43.034  17.608  13.509
37366W        W 5760  21.503  16.134   2.625
37367W        W 5761  33.824   8.242  12.401
37368W        W 5762  27.915   8.369  13.720
37369W        W 5763  35.861   2.627   2.343
37370W        W 5764  44.425  35.683  11.434
37371W        W 5765  16.741  12.624  12.646
37372W        W 5766  36.480  13.833   3.711
37373W        W 5767  40.194  29.655   0.828
37374W        W 5768   8.759  37.811   4.137
37375W        W 5769  23.495   7.289  10.644
37376W        W 5770  37.007   4.859  10.603
37377W        W 5771  44.619  29.618  11.895
37378W        W 5772   5.941  22.731   4.150
37379W        W 5773  20.000  30.030  12.616
37380W        W 5774   4.774  32.090  13.099
37381W        W 5775   0.438  30.215  11.086
37382W        W 5776  16.275  44.294   4.999
37383W        W 5777   6.235  12.945   0.030
37384W        W 5778  17.999  36.037  14.700
37385W        W 5779  36.822   4.321  14.521
37386W        W 5780  16.854  28.540  14.940
37387W        W 5781  20.030  41.890  11.101
37388W        W 5782  21.688  42.171   2.169
37389W        W 5783  41.777  11.634   3.789
37390W        W 5784  27.977  44.417   1.142
37391W        W 5785  34.466  15.278   3.886
37392W        W 5786  18.519  29.712   4.177
37393W        W 5787  24.544  33.622  11.117
37394W        W 5788  18.588  26.452  14.596
37395W        W 5789  11.598  29.472   1.358
37396W        W 5790  18.091  11.910  13.431
37397W        W 5791   9.031  39.032   0.997
37398W        W 5792  20.750  34.037  11.091
37399W        W 5793  36.549  24.096  12.117
37400W        W 5794  31.466  36.572   4.698
37401W        W 5795   1.215   7.761  12.894
37402W        W 5796  25.398  28.566   2.711
37403W        W 5797  38.426  35.785  13.509
37404W        W 5798  22.521   1.302   2.244
37405W        W 5799   6.961  29.084   1.320
37406W        W 5800  20.536  42.056  11.489
37407W        W 5801  19.359  26.795  13.850
37408W        W 5802  18.086  11.138   3.321
37409W        W 5803   8.921  41.528   4.647
37410W        W 5804  31.182  37.705  13.717
37411W        W 5805   5.183  44.314   2.627
37412W        W 5806  19.609  22.575   5.002
37413W        W 5807  11.681  35.593  10.688
37414W        W 5808  29.952  16.362   1.765
37415W        W 5809  16.989  27.503   4.199
37416W        W 5810  35.380  20.483   2.923
37417W        W 5811  24.298  31.135   4.088
37418W        W 5812  38.268  21.089   0.706
37419W        W 5813  44.324  41.671   5.258
37420W        W 5814  24.687  25.620   1.726
37421W        W 5815  22.644   7.654  13.133
37422W        W 5816  14.686  41.452  12.876
37423W        W 5817  42.695  44.569  14.285
37424W        W 5818  15.201  34.350   1.143
37425W        W 5819  28.117  10.850   4.356
37426W        W 5820  24.503  29.702   3.718
37427W        W 5821  33.590   7.285   1.537
37428W        W 5822   6.547  37.119   3.707
37429W        W 5823  33.113   3.392  14.526
37430W        W 5824  14.782  36.132   4.513
37431W        W 5825  30.403  20.944  12.489
37432W        W 5826   1.263  32.592  14.099
37433W        W 5827  29.413  38.812   4.247
37434W        W 5828   3.450  20.851  14.531
37435W        W 5829  30.839  24.262  14.000
37436W        W 5830   3.909  17.604   4.037
37437W        W 5831  24.357  42.281  13.930
37438W        W 5832  15.464  40.893  14.445
37439W        W 5833  11.925   2.018   3.338
37440W        W 5834  15.349   0.371   0.954
37441W        W 5835  19.948  38.392  14.176
37442W        W 5836  40.754  32.785   3.107
37443W        W 5837  18.370   8.947  11.020
37444W        W 5838  35.655  17.536   0.492
37445W        W 5839  15.802   4.213  14.219
37446W        W 5840  25.652   7.397   0.900
37447W        W 5841  10.703  39.201   2.248
37448W        W 5842   8.476  44.162  12.564
37449W        W 5843  17.005  25.701   2.921
37450W        W 5844  11.687  19.591  11.669
37451W        W 5845   0.968  34.070   4.628
37452W        W 5846  23.663   6.325   4.273
37453W        W 5847  21.187  25.037  12.446
37454W        W 5848  21.356  25.925  12.396
37455W        W 5849   1.206  41.334  12.009
37456W        W 5850  20.213  18.811   1.852
37457W        W 5851  41.583  34.889   2.074
37458W        W 5852   2.198  34.988  12.989
37459W        W 5853  40.886  28.632  13.314
37460W        W 5854  44.918  33.150   0.409
37461W        W 5855  40.545  39.063  13.469
37462W        W 5856  34.805  26.013  13.527
37463W        W 5857   2.284  13.430  13.458
37464W        W 5858  34.065  11.151   3.781
37465W        W 5859  17.833  44.186  13.885
37466W        W 5860  42.972  16.689   2.156
37467W        W 5861  24.669  44.479   3.627
37468W        W 5862  17.115  15.473  10.240
37469W        W 5863  14.328  37.760  14.284
37470W        W 5864   1.427  35.393  11.185
37471W        W 5865   7.867  13.698   3.725
37472W        W 5866  26.016  10.809  12.357
37473W        W 5867  19.757  11.211  11.110
37474W        W 5868  12.858  17.157  14.480
37475W        W 5869  34.824  14.988   0.990
37476W        W 5870  17.995  17.089   2.753
37477W        W 5871  42.243   3.417   4.751
37478W        W 5872  18.376  10.895  11.235
37479W        W 5873  25.219   5.135  14.064
37480W        W 5874  23.931  30.215   4.290
37481W        W 5875  34.164  33.994   1.522
37482W        W 5876  41.814  15.351   0.953
37483W        W 5877  22.905   3.379  13.711
37484W        W 5878  39.796  34.870   4.281
37485W        W 5879   9.691  39.555  13.401
37486W        W 5880  39.817  17.614   3.084
37487W        W 5881  12.761   4.037   2.792
37488W        W 5882  21.671   4.328   0.949
37489W        W 5883  39.305   8.271  13.802
37490W        W 5884  30.169  33.668   4.132
37491W        W 5885   0.516  25.503  13.414
37492W        W 5886   6.483   7.478  10.558
37493W        W 5887  33.691  35.311  12.892
37494W        W 5888  42.015   1.109  13.037
37495W        W 5889  18.239  41.852   4.678
37496W        W 5890   0.847  19.074  10.783
37497W        W 5891  27.404  24.340  12.954
37498W        W 5892  27.750  15.206  13.529
37499W        W 5893  39.908  10.385  12.925
37500W        W 5894   3.707   5.844  11.877
37501W        W 5895   4.923  29.660   2.311
37502W        W 5896  37.952  12.581   4.637
37503W        W 5897  39.515  43.261   1.905
37504W        W 5898   8.674  37.035   3.193
37505W        W 5899  22.456   7.189  14.020
37506W        W 5900  31.700   3.234  14.749
37507W        W 5901  44.494   6.946  10.869
37508W        W 5902   7.129  41.927  14.469
37509W        W 5903   4.333   2.771  12.479
37510W        W 5904  12.905  26.188   0.232
37511W        W 5905  38.711  35.878   2.060
37512W        W 5906  40.786  12.899   3.686
37513W        W 5907   4.210   0.297  12.836
37514W        W 5908  20.952  26.353  14.495
37515W        W 5909  43.577  37.788   2.631
37516W        W 5910  34.655  15.716   3.106
37517W        W 5911   5.774  22.625  12.687
37518W        W 5912  13.748  18.989   1.316
37519W        W 5913  22.326  42.887   1.875
37520W        W 5914  43.570  25.261   4.601
37521W        W 5915   8.909   6.289  12.050
37522W        W 5916  42.848  30.907   1.232
37523W        W 5917  14.359  11.216  13.562
37524W        W 5918   9.198  35.949   4.157
37525W        W 5919  13.209  30.343  10.216
37526W        W 5920  17.108  39.099   4.263
37527W        W 5921   6.815  32.862  13.080
37528W        W 5922  18.316  14.266   2.791
37529W        W 5923  21.752  44.524   1.182
37530W        W 5924  10.900  12.135   1.180
37531W        W 5925   9.645  17.657   1.941
37532W        W 5926  12.712  33.355   0.206
37533W        W 5927  36.579  40.348  14.914
37534W        W 5928  20.121  43.494   1.775
37535W        W 5929  24.278  21.599  10.770
37536W        W 5930  41.927  39.264   3.310
37537W        W 5931  11.346  12.166  12.087
37538W        W 5932  40.902   2.010   0.902
37539W        W 5933  25.676   7.298  13.317
37540W        W 5934  44.221  35.921   5.105
37541W        W 5935  20.770   9.621  13.902
37542W        W 5936  31.594  12.312   1.354
37543W        W 5937  24.327  14.473  13.925
37544W        W 5938   6.863  41.505   4.700
37545W        W 5939  20.744  26.552   4.373
37546W        W 5940  23.035  32.364   1.519
37547W        W 5941  28.894  29.156   2.189
37548W        W 5942   3.935  35.127  11.322
37549W        W 5943  12.215   0.995  14.243
37550W        W 5944  22.574  29.697  11.428
37551W        W 5945  30.826  42.431   0.986
37552W        W 5946  31.219   8.746   4.525
37553W        W 5947  33.384   1.038  10.656
37554W        W 5948  41.326   4.445  10.518
37555W        W 5949   0.796  37.816   1.795
37556W        W 5950  27.566  18.784  14.304
37557W        W 5951   6.900  29.023  14.476
37558W        W 5952   3.436  14.847  12.201
37559W        W 5953  37.895  10.935   3.070
37560W        W 5954   3.931  11.891   4.224
37561W        W 5955  39.392  14.817   2.827
37562W        W 5956   7.385  31.168  10.758
37563W        W 5957  30.619   8.203  10.786
37564W        W 5958  22.012   3.257  14.512
37565W        W 5959  41.270  38.365   0.900
37566W        W 5960  34.143   7.348  14.341
37567W        W 5961   2.933   2.755   1.645
37568W        W 5962   7.769  37.272   0.279
37569W        W 5963  39.953   1.990   4.015
37570W        W 5964  22.196  13.171  13.213
37571W        W 5965  10.300   7.219  12.153
37572W        W 5966   8.637   6.716  10.971
37573W        W 5967   6.156   2.520  11.598
37574W        W 5968  13.299   3.411   0.886
37575W        W 5969  41.007  30.493   3.186
37576W        W 5970   0.988  37.335   0.216
37577W        W 5971  38.876   2.740   0.793
37578W        W 5972  27.538  13.108   0.498
37579W        W 5973  14.582  11.857  14.252
37580W        W 5974  25.464   1.271  14.568
37581W        W 5975   6.088  17.971   4.615
37582W        W 5976  41.429  26.437  13.020
37583W        W 5977  16.374  12.991  10.775
37584W        W 5978  41.912  21.081  14.819
37585W        W 5979  17.323  21.195   2.277
37586W        W 5980  24.882  31.737   3.378
37587W        W 5981  32.060  44.579  12.517
37588W        W 5982   8.438   2.036   4.127
37589W        W 5983   3.864  12.663  12.907
37590W        W 5984  28.413  35.423   4.754
37591W        W 5985   1.779  34.582  12.124
37592W        W 5986   8.705   0.355   3.164
37593W        W 5987  33.493   1.218   4.526
37594W        W 5988   9.283  33.417   1.933
37595W        W 5989  42.833  24.739   0.208
37596W        W 5990  40.664  25.522  10.357
37597W        W 5991  41.857   6.372  14.386
37598W        W 5992   0.721  31.428   4.374
37599W        W 5993  26.802  15.739  12.751
37600W        W 5994  25.645  39.265   1.824
37601W        W 5995  21.270  21.950   2.388
37602W        W 5996   6.863   1.236   1.771
37603W        W 5997   4.636  30.266   4.277
37604W        W 5998  40.537  26.715   4.742
37605W        W 5999   5.776   7.699   3.203
37606W        W 6000   9.401  18.319  11.612
37607W        W 6001  43.959   3.498  10.904
37608W        W 6002  21.809   3.057   4.251
37609W        W 6003  25.875   6.676  14.393
37610W        W 6004  42.762  35.703   3.697
37611W        W 6005   7.686  38.084  11.373
37612W        W 6006  29.384  22.471   0.030
37613W        W 6007  42.597  38.373  14.048
37614W        W 6008  35.404  32.240  11.072
37615W        W 6009  29.218   0.451  13.044
37616W        W 6010  18.222  16.355   1.345
37617W        W 6011  27.371  15.744   2.899
37618W        W 6012  14.416   8.365  14.838
37619W        W 6013  24.250  40.950  11.807
37620W        W 6014  22.983  16.889   4.568
37621W        W 6015   3.911  31.582   0.257
37622W        W 6016  39.981  23.082   1.760
37623W        W 6017  44.222  10.582   4.237
37624W        W 6018  10.700  13.752   0.566
37625W        W 6019  33.712   8.306   1.651
37626W        W 6020  43.899   1.238   0.296
37627W        W 6021  23.158  41.577   4.174
37628W        W 6022  13.176  41.746  11.459
37629W        W 6023  36.617  13.614   3.242
37630W        W 6024   4.342  18.287   2.158
37631W        W 6025   2.922  26.911  10.347
37632W        W 6026   6.707   8.905  14.924
37633W        W 6027  12.052  14.656  13.961
37634W        W 6028   4.480  41.995   1.912
37635W        W 6029  11.146   6.828   3.072
37636W        W 6030   5.872  30.867   4.637
37637W        W 6031  38.789  22.549   0.962
37638W        W 6032  33.970  37.594   2.250
37639W        W 6033  30.413   8.780  12.962
37640W        W 6034  38.459  42.758   0.622
37641W        W 6035  42.826  41.228   4.030
37642W        W 6036  11.995   7.111   5.114
37643W        W 6037  12.589  25.502   3.339
37644W        W 6038  27.671  19.697   3.741
37645W        W 6039  21.162  40.823   4.174
37646W        W 6040   5.196  15.750  14.428
37647W        W 6041  41.267  23.266   3.310
37648W        W 6042  11.336  43.213   3.386
37649W        W 6043  11.430  30.529   2.115
37650W        W 6044  33.456   6.880  14.406
37651W        W 6045   6.693  12.221  13.385
37652W        W 6046   8.249   0.917   0.892
37653W        W 6047  13.872  32.582   3.351
37654W        W 6048   9.253   8.357   0.329
37655W        W 6049   5.587  19.222   3.317
37656W        W 6050   5.717  25.802  11.374
37657W        W 6051   5.945  39.247  13.354
37658W        W 6052  13.284   3.686   3.209
37659W        W 6053  21.613  40.153  11.342
37660W        W 6054  32.353  37.573   2.846
37661W        W 6055  19.555  16.490   0.507
37662W        W 6056  14.157  38.007  11.978
37663W        W 6057  38.654   3.870  13.823
37664W        W 6058  16.515  35.321  12.545
37665W        W 6059  21.858  24.175   2.418
37666W        W 6060  31.260   7.896   2.881
37667W        W 6061  14.205  41.054   2.837
37668W        W 6062  19.763  31.499  12.887
37669W        W 6063  22.614  12.189  10.724
37670W        W 6064  21.278  29.276  13.520
37671W        W 6065  25.530  13.763  10.498
37672W        W 6066  27.015  32.947  11.898
37673W        W 6067   6.730  17.364  12.130
37674W        W 6068  16.292   9.877   3.791
37675W        W 6069  13.261  33.329  11.246
37676W        W 6070  38.015   6.675  11.248
37677W        W 6071   7.952  25.443  12.593
37678W        W 6072   9.793   3.313   3.874
37679W        W 6073  19.285  20.732   5.030
37680W        W 6074  42.265  38.960   1.370
37681W        W 6075  30.875   9.186   2.509
37682W        W 6076  15.736  40.398  13.678
37683W        W 6077  36.992  32.939   4.840
37684W        W 6078   5.400  15.124  14.968
37685W        W 6079  39.590   0.316  14.788
37686W        W 6080  40.143  19.956  14.802
37687W        W 6081  23.045  22.425   0.642
37688W        W 6082  12.691  42.022  13.533
37689W        W 6083  43.299  20.302   3.189
37690W        W 6084  44.043  18.072   2.667
37691W        W 6085  27.051  13.911   0.476
37692W        W 6086  44.863  31.572  11.012
37693W        W 6087  42.334   3.761   4.213
37694W        W 6088  18.150  23.662   2.894
37695W        W 6089  30.854   7.831   3.355
37696W        W 6090  25.801   5.311  14.485
37697W        W 6091  15.994  18.231  14.945
37698W        W 6092   0.555  14.793   5.064
37699W        W 6093  27.847   7.442   1.935
37700W        W 6094  32.150  16.866  11.548
37701W        W 6095  30.236  27.456   3.647
37702W        W 6096  14.788   3.689   4.059
37703W        W 6097  27.006  27.310   2.363
37704W        W 6098  40.050  13.144   0.933
37705W        W 6099  16.898  34.839   4.096
37706W        W 6100   6.111  28.627  12.127
37707W        W 6101  13.231  17.016   3.176
37708W        W 6102   8.701  26.657  12.205
37709W        W 6103   7.868  44.578  12.237
37710W        W 6104  43.314  41.014  13.722
37711W        W 6105  18.701   8.598  10.783
37712W        W 6106  10.066  41.582  11.168
37713W        W 6107  34.767  41.629   5.008
37714W        W 6108  11.687  44.850  13.843
37715W        W 6109  25.968  44.905   3.388
37716W        W 6110   0.524  20.076  12.116
37717W        W 6111  44.819  11.623  13.518
37718W        W 6112  24.508  33.856   1.387
37719W        W 6113  43.002  38.407   3.262
37720W        W 6114  38.445  22.530   1.379
37721W        W 6115  40.454  40.367  11.880
37722W        W 6116  24.605   9.895  10.261
37723W        W 6117   4.700   1.346  12.026
37724W        W 6118   4.888   6.355  12.019
37725W        W 6119   8.690  42.336   1.170
37726W        W 6120  13.090  12.404  14.843
37727W        W 6121  18.641  16.098   1.483
37728W        W 6122  42.783  15.129   4.297
37729W        W 6123  12.690  10.720   1.947
37730W        W 6124  26.070  39.793   4.094
37731W        W 6125  32.981  44.462   2.834
37732W        W 6126  36.136  11.239  13.242
37733W        W 6127  41.229  11.174   0.262
37734W        W 6128  33.469   2.941   4.116
37735W        W 6129  27.596  25.396   1.143
37736W        W 6130   7.321  39.479   2.401
37737W        W 6131  14.372  16.744  13.426
37738W        W 6132  29.362   9.673  14.825
37739W        W 6133  44.450  43.452   1.278
37740W        W 6134  34.358  26.947  14.495
37741W        W 6135  18.811  36.474   4.229
37742W        W 6136  13.177  26.946   2.771
37743W        W 6137  36.613  25.625   1.423
37744W        W 6138  17.021  28.561   2.388
37745W        W 6139  19.730  41.209   3.308
37746W        W 6140  42.670  15.851  10.682
37747W        W 6141  44.366  11.666   3.249
37748W        W 6142  34.582  28.691   0.644
37749W        W 6143  20.599  40.125  13.284
37750W        W 6144  10.275  26.750  11.766
37751W        W 6145  39.958   1.414   2.689
37752W        W 6146  30.945  19.760  12.865
37753W        W 6147  32.606  18.021  13.393
37754W        W 6148   2.246  26.105  13.322
37755W        W 6149  17.336  39.255  11.833
37756W        W 6150  20.281  28.775  11.618
37757W        W 6151   5.048  25.620  10.802
37758W        W 6152  17.527  33.555  11.162
37759W        W 6153  30.106  18.012  11.477
37760W        W 6154  10.647   5.398   4.401
37761W        W 6155  43.786  39.300  14.018
37762W        W 6156   2.510  40.976  10.549
37763W        W 6157  44.761  40.984  11.145
37764W        W 6158   0.931  25.463   2.796
37765W        W 6159  11.553  38.568  12.696
37766W        W 6160  24.958  22.161   0.049
37767W        W 6161   9.553  41.100  14.920
37768W        W 6162  16.692  20.736  12.840
37769W        W 6163   9.802   2.762  10.490
37770W        W 6164  33.066  23.559   0.205
37771W        W 6165   6.419  33.877   4.207
37772W        W 6166  26.547   9.906   2.437
37773W        W 6167  40.920  34.444   2.306
37774W        W 6168  30.626  26.630  12.642
37775W        W 6169  44.487  20.750   0.791
37776W        W 6170  28.632  26.311   1.364
37777W        W 6171   6.716  15.240  14.413
37778W        W 6172  41.369  42.598   2.263
37779W        W 6173  29.212  26.146  10.699
37780W        W 6174  11.067  15.313   3.329
37781W        W 6175  40.902   3.734  12.466
37782W        W 6176  26.501   0.859   0.100
37783W        W 6177   4.888  12.209   1.211
37784W        W 6178  17.749   9.219  13.066
37785W        W 6179  11.246  17.158   3.410
37786W        W 6180  40.303  32.321  14.024
37787W        W 6181  36.047  22.046   3.305
37788W        W 6182  33.033  40.486  12.129
37789W        W 6183  11.387  38.948   0.928
37790W        W 6184  25.713   9.210   1.142
37791W        W 6185  15.081   1.938   2.337
37792W        W 6186  18.026  42.732   1.451
37793W        W 6187  16.269   4.234  14.508
37794W        W 6188  27.602   6.945  12.324
37795W        W 6189  17.017   6.613  12.906
37796W        W 6190   0.797  43.063  13.398
37797W        W 6191  43.496  18.245   4.341
37798W        W 6192  33.956  25.753  12.519
37799W        W 6193  20.079  44.270  11.692
37800W        W 6194  10.922  16.765  13.545
37801W        W 6195  30.923   2.962  10.953
37802W        W 6196  10.405   6.241  14.299
37803W        W 6197  38.599  38.990  12.544
37804W        W 6198  22.024   6.349  12.450
37805W        W 6199  14.281  41.498  14.533
37806W        W 6200  15.682  11.320   1.037
37807W        W 6201  33.077  32.550   3.736
37808W        W 6202  44.855  21.599   1.117
37809W        W 6203  41.825   8.614  10.295
37810W        W 6204  17.531  31.913   4.034
37811W        W 6205  16.265  13.707  12.965
37812W        W 6206  21.260   2.207   2.321
37813W        W 6207  19.083   7.293   3.149
37814W        W 6208  10.240  37.090   3.165
37815W        W 6209  32.015   3.482  14.426
37816W        W 6210  37.686  33.893   1.744
37817W        W 6211   8.249  30.960   3.477
37818W        W 6212  26.024   0.177   0.805
37819W        W 6213  33.818  39.927   5.106
37820W        W 6214  19.308  31.556  14.831
37821W        W 6215  34.025  19.261   2.399
37822W        W 6216  14.693  28.986  13.007
37823W        W 6217  19.096  16.805  12.621
37824W        W 6218  39.841  14.878  12.760
37825W        W 6219  14.947   8.227   4.904
37826W        W 6220   4.218  37.610   1.297
37827W        W 6221  26.554  27.952   3.760
37828W        W 6222  12.074  31.471   0.716
37829W        W 6223  30.007  37.089  12.076
37830W        W 6224  31.410  43.278  11.066
37831W        W 6225  17.150  20.043   1.956
37832W        W 6226  17.106  29.665   3.879
37833W        W 6227  12.529  36.282  13.016
37834W        W 6228  19.311  10.663   3.080
37835W        W 6229  16.586  18.739   0.910
37836W        W 6230  15.220  38.050   4.611
37837W        W 6231  26.674  33.910  14.950
37838W        W 6232   3.038   2.865   4.902
37839W        W 6233  41.327  13.285   4.030
37840W        W 6234  44.292  11.566   2.479
37841W        W 6235   5.405  43.805  12.523
37842W        W 6236  24.308   1.268   1.650
37843W        W 6237  16.771  30.221  12.510
37844W        W 6238  30.441   7.385  14.533
37845W        W 6239   8.439  12.086   0.993
37846W        W 6240  41.050  28.595   1.630
37847W        W 6241  29.592  42.017   2.320
37848W        W 6242  18.508  24.692  12.971
37849W        W 6243  18.822  25.350  11.675
37850W        W 6244  43.438   0.969  12.011
37851W        W 6245   7.331   3.329   0.964
37852W        W 6246  26.119  44.039  14.733
37853W        W 6247   8.825   7.020  14.457
37854W        W 6248  44.589  10.333   3.981
37855W        W 6249  18.106   2.690  14.219
37856W        W 6250  23.637  19.274  11.501
37857W        W 6251   5.451  19.690  12.426
37858W        W 6252  14.704   5.757  11.944
37859W        W 6253  17.571   9.915   4.373
37860W        W 6254   8.694  36.823   1.220
37861W        W 6255  20.980  37.538   4.062
37862W        W 6256  26.111  10.014  10.334
37863W        W 6257  28.605  22.861  12.844
37864W        W 6258  21.657  24.172   0.809
37865W        W 6259  42.722   8.413   1.915
37866W        W 6260  17.984  11.252  14.914
37867W        W 6261   2.657  37.010  10.733
37868W        W 6262   1.867  37.655   0.733
37869W        W 6263  37.565   9.732  12.363
37870W        W 6264  10.552  44.051  13.011
37871W        W 6265  17.050  33.381   1.159
37872W        W 6266  40.652  14.187   3.076
37873W        W 6267  21.161   9.485  12.737
37874W        W 6268  28.515  32.110  10.799
37875W        W 6269   6.383  14.818   4.507
37876W        W 6270  14.366  42.856  12.741
37877W        W 6271  30.643  15.517  13.486
37878W        W 6272   2.930  13.816  14.007
37879W        W 6273   8.755  44.993   2.321
37880W        W 6274   9.414   3.683   2.355
37881W        W 6275  41.824  26.676  10.793
37882W        W 6276  44.418  37.905   0.663
37883W        W 6277  34.539  40.986   1.024
37884W        W 6278  32.435  30.180   2.750
37885W        W 6279  34.641  18.052   4.850
37886W        W 6280  24.575  29.282   3.072
37887W        W 6281  27.856  20.111  11.451
37888W        W 6282  37.530  25.173   2.794
37889W        W 6283  22.596  18.117  12.976
37890W        W 6284  27.061   3.890  12.338
37891W        W 6285  32.994  33.092   0.496
37892W        W 6286  38.908  32.579  13.982
37893W        W 6287  30.424   1.562   0.439
37894W        W 6288  14.904  42.970   0.171
37895W        W 6289  20.428  31.510   4.134
37896W        W 6290  43.451   0.824   0.195
37897W        W 6291  20.000  36.218   3.176
37898W        W 6292   0.976  26.990   4.004
37899W        W 6293  14.279  32.315   3.555
37900W        W 6294  37.840  14.323  10.507
37901W        W 6295  36.550  22.943  11.555
37902W        W 6296  26.415   3.870   2.352
37903W        W 6297  26.510  24.967  12.099
37904W        W 6298  31.343  44.218  14.218
37905W        W 6299  33.494  32.953  14.397
37906W        W 6300  37.300   8.428   1.785
37907W        W 6301   5.195  35.858  11.923
37908W        W 6302  29.570  17.226  12.356
37909W        W 6303  34.027  15.680  13.869
37910W        W 6304  35.488  18.711   2.228
37911W        W 6305  38.566  39.967  10.796
37912W        W 6306  29.741  26.481  11.572
37913W        W 6307  15.326  15.623   2.334
37914W        W 6308   1.423  24.119   3.395
37915W        W 6309  31.311  10.300   3.753
37916W        W 6310  23.240  11.766  14.828
37917W        W 6311  11.474   2.895  11.138
37918W        W 6312  37.035  15.185   0.279
37919W        W 6313  24.670  24.103  12.987
37920W        W 6314  27.966  21.167   2.937
37921W        W 6315  27.310  28.564  11.133
37922W        W 6316  22.663  39.527   1.328
37923W        W 6317   7.942   0.263  13.645
37924W        W 6318  10.001  34.656  12.304
37925W        W 6319  37.774   4.646   4.755
37926W        W 6320  32.848  29.531   3.588
37927W        W 6321  31.895  14.080   1.363
37928W        W 6322  10.642  16.092   2.856
37929W        W 6323  21.578  23.469  12.805
37930W        W 6324   9.419   1.762  10.156
37931W        W 6325  43.993  14.556   0.887
37932W        W 6326   7.828  13.705  13.743
37933W        W 6327  41.864  44.768  13.146
37934W        W 6328   0.734  29.432   3.258
37935W        W 6329  24.620  12.032   4.988
37936W        W 6330  21.758  10.811   4.106
37937W        W 6331   3.923  33.160   0.491
37938W        W 6332  12.671  16.079   2.738
37939W        W 6333   2.776  11.741  14.776
37940W        W 6334  25.438  36.575  13.400
37941W        W 6335  33.493   2.093   4.675
37942W        W 6336  43.050  23.702   2.819
37943W        W 6337  19.492  12.656   4.541
37944W        W 6338  25.993  20.549  14.432
37945W        W 6339  21.774   4.344  10.896
37946W        W 6340  37.568   8.438   1.334
37947W        W 6341  31.152  43.592   0.370
37948W        W 6342  39.828  15.022  14.017
37949W        W 6343  43.352   1.291  12.436
37950W        W 6344   0.067  44.700   4.771
37951W        W 6345   1.779  41.643  10.729
37952W        W 6346  19.635  29.946   5.163
37953W        W 6347  39.809  17.550   4.094
37954W        W 6348  37.893  16.699   3.650
37955W        W 6349  11.858  26.020   4.201
37956W        W 6350  27.729  11.850  12.870
37957W        W 6351  44.324  44.883   1.818
37958W        W 6352  26.457  34.490   1.817
37959W        W 6353  33.550   5.655  13.400
37960W        W 6354  18.471  27.411  14.720
37961W        W 6355   4.959   9.557   0.216
37962W        W 6356   2.546   2.211  14.967
37963W        W 6357  15.162   1.558  10.826
37964W        W 6358  15.304  19.291   3.785
37965W        W 6359  11.126   1.461  13.610
37966W        W 6360  42.885  40.877  12.316
37967W        W 6361   1.110  36.936  11.651
37968W        W 6362  44.985  20.463   4.929
37969W        W 6363   7.285  43.556   1.215
37970W        W 6364  14.777  33.036   1.453
37971W        W 6365  32.507   6.634   3.630
37972W        W 6366   3.815   3.043  10.513
37973W        W 6367  27.956  41.978  12.827
37974W        W 6368  14.359  25.245   1.763
37975W        W 6369  18.484  20.313   1.416
37976W        W 6370  16.833  25.194   4.586
37977W        W 6371  26.412  40.359   1.758
37978W        W 6372  25.217   9.737   2.219
37979W        W 6373  31.986  36.542   0.900
37980W        W 6374  25.745  26.959  14.807
37981W        W 6375  13.386  30.570   3.386
37982W        W 6376  19.638  29.197  12.101
37983W        W 6377  18.173  35.220  13.351
37984W        W 6378  27.637  18.918   2.605
37985W        W 6379  36.549  10.578   4.735
37986W        W 6380  30.194  41.517  10.739
37987W        W 6381  30.423  16.147   4.368
37988W        W 6382  40.804  38.026  13.893
37989W        W 6383  26.366  18.151  13.435
37990W        W 6384  44.584   7.650   4.542
37991W        W 6385  13.263  31.624   0.296
37992W        W 6386  22.490   0.808   3.422
37993W        W 6387  15.662  23.103   4.583
37994W        W 6388  29.503  22.128  12.315
37995W        W 6389  21.287  31.991  10.264
37996W        W 6390  16.850  14.795  14.239
37997W        W 6391   8.583  25.680  12.119
37998W        W 6392   6.228  25.667   2.598
37999W        W 6393  20.756  27.527  11.461
38000W        W 6394   0.823  10.670  10.557
38001W        W 6395  25.724  29.402  14.863
38002W        W 6396  15.419  35.566   4.557
38003W        W 6397   2.461   2.910  14.252
38004W        W 6398  30.022  30.062  12.108
38005W        W 6399   8.034   0.273  13.145
38006W        W 6400  21.590   7.600  10.724
38007W        W 6401  11.140  30.092  11.448
38008W        W 6402  22.701  41.577  11.222
38009W        W 6403  40.502  28.480  12.038
38010W        W 6404   4.925  33.677  13.877
38011W        W 6405  23.616  39.777  11.217
38012W        W 6406  19.662  21.211  11.607
38013W        W 6407   8.379   4.782   1.094
38014W        W 6408   0.236  33.959   3.096
38015W        W 6409  29.259  41.936  10.761
38016W        W 6410  16.787   5.224  12.619
38017W        W 6411   5.815   0.183   3.438
38018W        W 6412   7.908  18.121   1.874
38019W        W 6413  23.516  12.604   2.384
38020W        W 6414  30.923  23.035   1.326
38021W        W 6415  35.150  10.241   1.953
38022W        W 6416  13.755  34.286  14.873
38023W        W 6417  21.172  15.848  11.576
38024W        W 6418   0.923  13.809   3.126
38025W        W 6419  19.914  31.038   3.273
38026W        W 6420  13.202  19.768  13.578
38027W        W 6421  39.337  34.282   0.312
38028W        W 6422   5.070  26.004  14.557
38029W        W 6423   2.977  32.039   2.739
38030W        W 6424  18.563  34.389   3.886
38031W        W 6425  28.494  23.984  12.060
38032W        W 6426  28.043   0.434  14.801
38033W        W 6427  27.658   2.999  11.919
38034W        W 6428  26.200  27.599  11.137
38035W        W 6429  25.830   1.300  14.942
38036W        W 6430  33.527   0.233  14.839
38037W        W 6431  27.978   0.792  13.460
38038W        W 6432  32.710   5.876  13.240
38039W        W 6433  42.369   0.959  14.784
38040W        W 6434  10.705  20.775  13.626
38041W        W 6435  25.141  43.768   0.770
38042W        W 6436  24.420  28.048  10.748
38043W        W 6437  13.092  35.154  11.444
38044W        W 6438  38.609  11.155   3.646
38045W        W 6439  36.318  33.881   2.946
38046W        W 6440  12.670  25.519  12.983
38047W        W 6441  28.040   5.191  10.811
38048W        W 6442  35.574  36.063  11.314
38049W        W 6443  30.006  19.360   4.559
38050W        W 6444   6.264   1.902  10.282
38051W        W 6445  23.231   3.612   4.576
38052W        W 6446  37.846  15.109   1.796
38053W        W 6447  23.626   0.198  11.961
38054W        W 6448  31.990  27.326   2.250
38055W        W 6449  40.923   2.709  12.658
38056W        W 6450   3.783  19.560   2.737
38057W        W 6451  10.376  18.367  11.520
38058W        W 6452   9.177   4.712  10.561
38059W        W 6453  19.810  12.885   4.223
38060W        W 6454  39.862   1.807   0.929
38061W        W 6455  28.098  44.839  11.965
38062W        W 6456  29.958  13.773  13.816
38063W        W 6457   6.771  42.240   4.212
38064W        W 6458  41.418   0.605   0.817
38065W        W 6459   8.316  27.008   1.974
38066W        W 6460  31.074  37.996  11.530
38067W        W 6461   5.301  15.728   2.163
38068W        W 6462  27.174  25.024  10.756
38069W        W 6463  25.714   6.872   0.771
38070W        W 6464   3.445  32.373  13.913
38071W        W 6465   7.651  19.064  12.455
38072W        W 6466  28.591  16.400  12.198
38073W        W 6467  11.822  28.906   3.191
38074W        W 6468   8.488  21.407   4.126
38075W        W 6469  29.903  22.461   3.604
38076W        W 6470  20.583   4.372   2.282
38077W        W 6471   4.609  12.666   4.193
38078W        W 6472  11.318   0.944  13.572
38079W        W 6473  43.004  11.134  12.148
38080W        W 6474  22.573  13.249  11.922
38081W        W 6475  16.315   7.682  10.916
38082W        W 6476  32.089  30.970  10.606
38083W        W 6477  16.769  23.440   2.187
38084W        W 6478  24.753  22.586   3.670
38085W        W 6479  17.548  24.477  13.011
38086W        W 6480  30.891  23.004   4.626
38087W        W 6481   2.688   7.261   1.271
38088W        W 6482  15.596   4.252   0.795
38089W        W 6483   7.913   0.701   3.775
38090W        W 6484  12.947  35.492  13.501
38091W        W 6485  31.318  30.997  13.013
38092W        W 6486  19.000  24.425   5.017
38093W        W 6487  19.692  19.763  10.459
38094W        W 6488  39.884  11.880   0.323
38095W        W 6489   0.311   4.470  13.770
38096W        W 6490   6.455  34.514  11.916
38097W        W 6491   7.887   6.757   9.470
38098W        W 6492  38.482  33.197  11.009
38099W        W 6493  29.942  22.452   2.203
38100W        W 6494  33.783   7.908  13.089
38101W        W 6495  21.093  29.896   1.276
38102W        W 6496  17.937  13.551  11.986
38103W        W 6497  42.667  29.683  11.045
38104W        W 6498  33.421   0.755   4.270
38105W        W 6499  22.573   4.634   4.572
38106W        W 6500  29.170   4.876   1.716
38107W        W 6501  37.508  27.071  12.972
38108W        W 6502   3.887  16.292   3.855
38109W        W 6503  36.572  32.346  10.627
38110W        W 6504  10.428  13.218   3.717
38111W        W 6505  16.659  38.178  11.899
38112W        W 6506  18.565  35.582   4.635
38113W        W 6507  28.671  39.588   3.579
38114W        W 6508  19.112  27.434   2.204
38115W        W 6509  13.829   2.397  12.248
38116W        W 6510  26.890  19.553  10.608
38117W        W 6511   2.881  33.160  11.274
38118W        W 6512   0.852  44.744  14.392
38119W        W 6513   8.665  17.272   1.308
38120W        W 6514   1.986  11.105   3.734
38121W        W 6515  36.413  44.330   0.508
38122W        W 6516   5.873  38.589   1.757
38123W        W 6517  34.658  35.143   1.287
38124W        W 6518  39.022  27.480  11.010
38125W        W 6519   1.274  31.175   1.431
38126W        W 6520  30.871  12.402  14.878
38127W        W 6521  32.906  17.567  13.005
38128W        W 6522  31.395   5.707   0.702
38129W        W 6523  29.736   4.812  10.772
38130W        W 6524   0.121  19.612   0.873
38131W        W 6525  21.217  32.734  12.550
38132W        W 6526  37.910  12.416   3.277
38133W        W 6527  38.053  41.108  13.020
38134W        W 6528  23.131  38.123   3.003
38135W        W 6529   7.638  18.777   4.881
38136W        W 6530  19.238  17.771   2.731
38137W        W 6531  12.920   7.203  12.948
38138W        W 6532  28.423   8.788  11.051
38139W        W 6533  11.293  42.430   3.731
38140W        W 6534   1.812  43.608   2.220
38141W        W 6535  10.571  42.149   4.531
38142W        W 6536   3.823   9.736  10.967
38143W        W 6537  39.779  41.813  10.786
38144W        W 6538  40.819  34.654  14.432
38145W        W 6539   5.759  13.121   3.231
38146W        W 6540  20.807  25.061  14.083
38147W        W 6541   4.829  31.825  12.675
38148W        W 6542  12.325   3.288  12.157
38149W        W 6543   3.187  42.979  13.077
38150W        W 6544  42.633  39.583  12.945
38151W        W 6545  21.278  40.012   0.463
38152W        W 6546  35.553  22.006  13.030
38153W        W 6547  19.490   5.204   3.800
38154W        W 6548  39.748  40.068   2.188
38155W        W 6549  43.016  44.942  14.913
38156W        W 6550  24.563   6.423   3.264
38157W        W 6551   8.328  35.045  12.691
38158W        W 6552  19.642  39.505  12.096
38159W        W 6553   8.429  22.242   2.949
38160W        W 6554  37.807  15.338   2.730
38161W        W 6555  35.035  20.117   1.189
38162W        W 6556  27.327  29.104  10.978
38163W        W 6557  36.475  30.946  14.285
38164W        W 6558  43.024   3.510  14.833
38165W        W 6559  31.395  36.049  11.810
38166W        W 6560  35.835  16.011   1.150
38167W        W 6561  23.303  30.500  13.276
38168W        W 6562  34.088  40.880   3.093
38169W        W 6563  33.435  35.016  14.144
38170W        W 6564  29.423  41.023  12.308
38171W        W 6565  24.482  29.462  12.556
38172W        W 6566  29.029  43.423  13.239
38173W        W 6567  27.396  34.290  10.974
38174W        W 6568  42.037  37.106  14.418
38175W        W 6569  43.343   4.230   1.430
38176W        W 6570  17.008  26.913   5.446
38177W        W 6571  33.655   9.976  11.575
38178W        W 6572  43.045  44.914   3.387
38179W        W 6573   2.923  38.849  11.097
38180W        W 6574  14.327   6.850   2.341
38181W        W 6575   0.824  13.535  11.159
38182W        W 6576  16.539  33.440   1.217
38183W        W 6577  33.844  38.466  13.828
38184W        W 6578  22.821  15.623  13.490
38185W        W 6579  35.402   6.721  14.363
38186W        W 6580  26.627   0.291  13.865
38187W        W 6581  43.520  23.998   1.576
38188W        W 6582  28.118  32.678   2.436
38189W        W 6583  29.864  19.274  13.802
38190W        W 6584   9.535  38.812   0.317
38191W        W 6585  40.030   6.689  14.805
38192W        W 6586  40.576  21.324  10.768
38193W        W 6587  10.432   1.404   4.155
38194W        W 6588   1.496  10.149   4.383
38195W        W 6589  31.635  20.145   2.348
38196W        W 6590  41.307  44.776  14.870
38197W        W 6591   3.497  39.329  13.855
38198W        W 6592   0.340  28.030  14.006
38199W        W 6593  14.909  41.561  11.980
38200W        W 6594  20.041   1.854  13.552
38201W        W 6595  38.068  39.771   2.822
38202W        W 6596  11.607  21.319  11.617
38203W        W 6597  41.680  20.040   1.990
38204W        W 6598  37.363  12.277   1.256
38205W        W 6599  32.884   5.709   1.886
38206W        W 6600  20.671  36.743   2.383
38207W        W 6601  33.118  15.673  12.537
38208W        W 6602   1.708   3.125   2.586
38209W        W 6603   5.892  18.229  12.601
38210W        W 6604  36.579  23.330   0.020
38211W        W 6605   5.907  21.333  11.608
38212W        W 6606  30.644  24.933  10.457
38213W        W 6607   9.307   3.972  14.080
38214W        W 6608   0.468  21.228  14.568
38215W        W 6609  42.373  26.767  14.935
38216W        W 6610  26.532  15.125  13.844
38217W        W 6611  11.801  21.828   0.061
38218W        W 6612  41.713  23.533   4.099
38219W        W 6613  14.095  28.515  11.030
38220W        W 6614   5.837   4.852   2.927
38221W        W 6615  27.492  22.235   3.628
38222W        W 6616  26.949  37.174   0.943
38223W        W 6617  13.412  33.256  12.523
38224W        W 6618  42.266  41.965  13.849
38225W        W 6619  28.575  37.450   2.652
38226W        W 6620  37.089  36.945   0.844
38227W        W 6621  28.054  30.070   2.647
38228W        W 6622  40.826  21.193   2.097
38229W        W 6623  13.495  31.365  13.576
38230W        W 6624  19.723  29.642   0.134
38231W        W 6625   4.691  28.848   1.925
38232W        W 6626  40.996   8.989  11.208
38233W        W 6627  31.018  23.727   2.746
38234W        W 6628  24.164  38.547   1.951
38235W        W 6629  37.325  28.463  11.610
38236W        W 6630  27.689  19.112  12.444
38237W        W 6631  13.277   4.481  12.132
38238W        W 6632  23.215  12.308  13.860
38239W        W 6633  42.767   5.812   0.787
38240W        W 6634  30.435  24.256   0.547
38241W        W 6635  42.558  28.959  11.646
38242W        W 6636  31.172  39.292  10.948
38243W        W 6637   8.599  26.746  13.595
38244W        W 6638  15.402  11.183   0.258
38245W        W 6639  34.440  38.060   1.701
38246W        W 6640  33.629  19.546   0.757
38247W        W 6641  20.883  40.650  10.802
38248W        W 6642  27.549  26.001   4.883
38249W        W 6643   6.273  28.968  10.889
38250W        W 6644  34.050   3.474  14.790
38251W        W 6645  37.720  43.298  11.520
38252W        W 6646  16.809   3.706   1.846
38253W        W 6647  37.578  39.103   1.765
38254W        W 6648  20.112  44.563  12.952
38255W        W 6649  26.211  33.366   3.555
38256W        W 6650   4.907  17.821   1.431
38257W        W 6651   1.139  12.816   3.733
38258W        W 6652  33.352  29.881   0.290
38259W        W 6653  16.059  25.682   4.661
38260W        W 6654  30.681  34.987  14.337
38261W        W 6655  17.802  25.885   0.359
38262W        W 6656  38.468  41.855   1.269
38263W        W 6657  40.649  27.866  10.371
38264W        W 6658  18.797  19.707  14.748
38265W        W 6659   7.754  34.195  13.333
38266W        W 6660  23.310  43.899   3.910
38267W        W 6661   7.667  24.069  12.586
38268W        W 6662  30.615  14.828  12.071
38269W        W 6663  35.996  28.438   4.661
38270W        W 6664  24.455  39.146  13.151
38271W        W 6665   9.273  33.398   4.131
38272W        W 6666   0.433  28.527  12.642
38273W        W 6667   2.205   6.254  12.903
38274W        W 6668   7.716  11.136  14.937
38275W        W 6669  25.909  17.473  12.896
38276W        W 6670  15.808  19.692   4.547
38277W        W 6671  22.072  25.535  10.695
38278W        W 6672   7.259   3.384   0.020
38279W        W 6673   9.504  36.619  12.486
38280W        W 6674  14.704  15.586  11.159
38281W        W 6675  34.327  39.308   0.235
38282W        W 6676  13.405   2.056  14.430
38283W        W 6677  40.948  19.029  13.264
38284W        W 6678  15.856   1.917  14.668
38285W        W 6679  32.328   5.906  12.042
38286W        W 6680  31.877  44.557  10.577
38287W        W 6681  23.678  26.455  11.644
38288W        W 6682   5.962   5.971   2.330
38289W        W 6683  40.785  34.603   4.480
38290W        W 6684  27.073  17.118  10.599
38291W        W 6685  30.487  15.227   1.486
38292W        W 6686  15.804   2.011   3.298
38293W        W 6687   3.739   0.977   0.498
38294W        W 6688  34.687  12.270  14.461
38295W        W 6689   5.646  27.442   4.339
38296W        W 6690  42.965  12.061   0.277
38297W        W 6691  14.284  25.623  14.385
38298W        W 6692  22.267   0.581   1.989
38299W        W 6693  13.780  24.194  13.901
38300W        W 6694  40.974  33.858  13.861
38301W        W 6695  14.636  38.148   3.939
38302W        W 6696  35.753  26.716   0.776
38303W        W 6697   0.986   3.303   1.975
38304W        W 6698  11.703  41.588  13.049
38305W        W 6699  34.057  39.957   1.717
38306W        W 6700   9.540  31.285   3.300
38307W        W 6701  17.906  32.536   3.426
38308W        W 6702   0.454  40.816   3.725
38309W        W 6703  29.263  11.738   1.513
38310W        W 6704   5.708  41.705   3.747
38311W        W 6705  21.241  36.913  13.904
38312W        W 6706  21.693  24.973  14.529
38313W        W 6707  10.938  43.722  13.011
38314W        W 6708  36.315   0.286   2.303
38315W        W 6709  14.720  36.279   0.861
38316W        W 6710  25.183  16.741   1.060
38317W        W 6711  44.735  29.426   3.218
38318W        W 6712  25.096   1.958  11.968
38319W        W 6713  29.404  17.736   1.851
38320W        W 6714  19.135  32.101   1.168
38321W        W 6715  28.079  35.877  12.658
38322W        W 6716   2.321   3.541   1.905
38323W        W 6717  18.012  30.983  11.734
38324W        W 6718   4.780   6.977  14.488
38325W        W 6719  41.416  38.970   4.714
38326W        W 6720   9.928  33.991  13.343
38327W        W 6721  20.309  44.502   1.894
38328W        W 6722  35.628  14.342  11.713
38329W        W 6723  21.203  30.851   1.329
38330W        W 6724   0.042  20.614   3.487
38331W        W 6725  23.664  36.303  12.458
38332W        W 6726  25.778  14.077   0.250
38333W        W 6727  13.334  20.533  11.780
38334W        W 6728  24.050  17.203  10.770
38335W        W 6729  41.322  34.374   3.510
38336W        W 6730  17.103   8.736  10.828
38337W        W 6731  29.883  18.072   1.371
38338W        W 6732   9.766  23.330   4.604
38339W        W 6733  31.424  44.219   4.618
38340W        W 6734  43.523  10.460  12.621
38341W        W 6735  26.715  14.191  12.869
38342W        W 6736  35.451   6.120  12.153
38343W        W 6737  31.510  20.064  12.136
38344W        W 6738  38.416  31.538   2.294
38345W        W 6739  44.807  11.717   2.487
38346W        W 6740  24.317   3.332  10.725
38347W        W 6741  22.204   0.729  12.921
38348W        W 6742   6.887  27.960   2.463
38349W        W 6743   2.420   2.229  11.570
38350W        W 6744  19.142  33.384   0.790
38351W        W 6745  13.630  43.893   0.783
38352W        W 6746  30.125  39.500  11.659
38353W        W 6747  28.009  20.790  12.867
38354W        W 6748  37.039  22.298  12.813
38355W        W 6749   7.307  16.491   2.275
38356W        W 6750  30.597  23.436   4.527
38357W        W 6751   8.041  40.419  12.407
38358W        W 6752  22.566   8.452   1.639
38359W        W 6753  17.616  30.107  12.617
38360W        W 6754  43.719  30.454  11.133
38361W        W 6755  12.669   8.004   3.313
38362W        W 6756  38.488  37.746  14.229
38363W        W 6757  28.343  41.966   1.922
38364W        W 6758  33.842  32.574  11.817
38365W        W 6759  30.932  42.812   3.284
38366W        W 6760  17.615  16.257   3.589
38367W        W 6761  32.058  20.736  10.479
38368W        W 6762  17.700  43.457   4.680
38369W        W 6763   6.606  13.732   5.336
38370W        W 6764  10.738  38.744  13.154
38371W        W 6765  44.480  30.047  11.626
38372W        W 6766  38.296   5.534   4.195
38373W        W 6767   9.793  34.880  13.748
38374W        W 6768  10.457  32.156  11.641
38375W        W 6769  12.235  29.580   4.150
38376W        W 6770  22.942  42.116  12.490
38377W        W 6771  14.534   6.197   0.355
38378W        W 6772  37.071   4.648  12.038
38379W        W 6773  10.307  28.399   0.799
38380W        W 6774  41.398  35.012   0.029
38381W        W 6775  37.350  44.913   1.823
38382W        W 6776  19.171  22.216  14.990
38383W        W 6777   8.228  33.578   4.231
38384W        W 6778  26.268   1.924   4.526
38385W        W 6779   8.662  33.852   0.364
38386W        W 6780  33.884  34.017  12.279
38387W        W 6781   3.808   9.876   1.934
38388W        W 6782   9.819   7.891   1.748
38389W        W 6783  38.891  36.835   4.067
38390W        W 6784  18.364   1.301  11.728
38391W        W 6785  33.881  14.727  14.906
38392W        W 6786  44.190   3.129   2.957
38393W        W 6787  36.821  15.246   1.773
38394W        W 6788  33.174  34.457  11.134
38395W        W 6789  14.736  11.133   3.543
38396W        W 6790   1.398   6.915   0.377
38397W        W 6791  20.749  39.000   1.826
38398W        W 6792  10.119   2.381  10.224
38399W        W 6793  13.262   9.065   0.696
38400W        W 6794  11.183  24.018   3.289
38401W        W 6795  34.213  25.576  14.916
38402W        W 6796  43.211  17.337  11.109
38403W        W 6797  34.574  14.777  10.971
38404W        W 6798   2.493  26.623   0.718
38405W        W 6799  15.259   6.522  12.912
38406W        W 6800  40.867  44.444   2.740
38407W        W 6801  10.647  44.960   0.947
38408W        W 6802  14.757   3.895  10.648
38409W        W 6803  18.067  23.240  12.042
38410W        W 6804  37.803  31.691   0.564
38411W        W 6805  18.476   8.471  13.080
38412W        W 6806  28.407  30.478   2.661
38413W        W 6807  42.998   8.734  14.234
38414W        W 6808  34.127  17.657   2.711
38415W        W 6809  39.466  11.123  12.040
38416W        W 6810  29.360   2.800   0.262
38417W        W 6811  16.815  24.836  12.015
38418W        W 6812   7.141  36.512  12.105
38419W        W 6813  16.761  29.542  11.551
38420W        W 6814  43.630  20.501   3.566
38421W        W 6815  25.678  20.114  14.524
38422W        W 6816  22.006  43.959  13.436
38423W        W 6817  26.561   9.512   0.697
38424W        W 6818   1.829  23.462  13.484
38425W        W 6819  35.594   7.158  11.191
38426W        W 6820  44.920   0.808   2.881
38427W        W 6821  24.604  15.517  11.235
38428W        W 6822  12.719  14.609  14.554
38429W        W 6823   3.801  44.041  13.913
38430W        W 6824  19.746  12.334   4.233
38431W        W 6825  41.874  33.097   2.414
38432W        W 6826  16.990  12.430  13.394
38433W        W 6827   2.663  23.579  13.104
38434W        W 6828  14.735  40.836  11.102
38435W        W 6829  39.083  40.502  14.832
38436W        W 6830  22.608   7.357   0.762
38437W        W 6831  14.397  11.581  12.507
38438W        W 6832  42.864  21.042   0.545
38439W        W 6833  15.540  20.649  13.932
38440W        W 6834  24.965  39.493   0.071
38441W        W 6835  33.809   0.231   3.444
38442W        W 6836  28.535   9.385  13.780
38443W        W 6837   1.235   1.713  14.711
38444W        W 6838  18.290  29.192  11.995
38445W        W 6839  16.531  27.726  11.137
38446W        W 6840  13.721  18.327   3.244
38447W        W 6841   7.842   0.181   4.611
38448W        W 6842  36.463   0.272  14.988
38449W        W 6843  33.517  25.716   1.352
38450W        W 6844   3.038  25.721   0.129
38451W        W 6845  13.649  36.127   3.694
38452W        W 6846   8.447  32.185  14.853
38453W        W 6847  32.114  16.401  12.853
38454W        W 6848   5.913  37.730  11.007
38455W        W 6849   4.850  25.955   2.054
38456W        W 6850  14.382  33.878   0.544
38457W        W 6851   5.993   1.407   0.231
38458W        W 6852  17.748  13.741  13.970
38459W        W 6853  14.822  14.621   3.788
38460W        W 6854  33.361   4.324  11.160
38461W        W 6855   5.269   3.963  11.251
38462W        W 6856  37.084  11.921   2.921
38463W        W 6857  17.256  15.279   4.276
38464W        W 6858  19.734   0.270   2.813
38465W        W 6859  11.567   2.997   0.836
38466W        W 6860   3.251  17.977   3.239
38467W        W 6861  19.117  34.344  11.640
38468W        W 6862  29.549  11.257   0.994
38469W        W 6863  23.625  31.652   3.200
38470W        W 6864   8.016  16.984   2.734
38471W        W 6865  10.152  25.109  14.623
38472W        W 6866  42.257   5.812   0.742
38473W        W 6867  32.939  10.606  12.437
38474W        W 6868   0.833  28.747   4.805
38475W        W 6869  14.421  28.006   2.207
38476W        W 6870  44.911   1.006   4.821
38477W        W 6871  33.596  29.522   2.802
38478W        W 6872   2.151  40.061  12.393
38479W        W 6873  35.689  32.463   2.854
38480W        W 6874  41.496  29.692   1.286
38481W        W 6875   1.064   9.228  13.908
38482W        W 6876  44.271  35.751   1.395
38483W        W 6877  21.266  39.009   2.773
38484W        W 6878  15.074  42.454  13.012
38485W        W 6879   2.505  23.020  12.454
38486W        W 6880  11.208  39.969  11.391
38487W        W 6881  23.582   1.467  11.473
38488W        W 6882  35.456   8.328  13.834
38489W        W 6883  16.362   0.260   1.957
38490W        W 6884  26.516  34.767  10.325
38491W        W 6885  24.927  37.463   4.417
38492W        W 6886  13.719   8.404  10.965
38493W        W 6887   3.220  12.406  11.083
38494W        W 6888  26.645  19.757   3.802
38495W        W 6889  34.605   6.696   3.805
38496W        W 6890   7.514   7.254   1.805
38497W        W 6891  11.837  14.535   0.719
38498W        W 6892  30.534  36.101   3.192
38499W        W 6893  25.299   2.204  14.510
38500W        W 6894  11.542  11.843  10.489
38501W        W 6895  34.441  33.605  10.542
38502W        W 6896  43.670   1.436  10.572
38503W        W 6897  33.556   2.928   4.622
38504W        W 6898   5.744   6.744   2.655
38505W        W 6899  26.053   9.118   3.822
38506W        W 6900  30.574   2.550  12.176
38507W        W 6901  38.224  25.554  13.245
38508W        W 6902   3.568  12.183   1.367
38509W        W 6903  34.141  34.348   0.922
38510W        W 6904  25.523  33.859   0.717
38511W        W 6905   6.788  41.610  11.439
38512W        W 6906  27.082  30.964   3.586
38513W        W 6907  12.595   9.750  14.551
38514W        W 6908  34.904   6.717   0.611
38515W        W 6909  19.302  38.299   1.364
38516W        W 6910  32.547   2.327   2.926
38517W        W 6911   9.064  14.764   0.766
38518W        W 6912  28.173  24.930  10.623
38519W        W 6913  37.070  32.037   4.774
38520W        W 6914  42.456  36.710   2.353
38521W        W 6915   5.780  42.450  10.658
38522W        W 6916   8.747  16.181  13.088
38523W        W 6917  43.007   2.332   1.336
38524W        W 6918  41.770  33.996   0.982
38525W        W 6919  27.511  29.095  14.271
38526W        W 6920  19.662  29.630  13.540
38527W        W 6921  24.171  17.891   3.569
38528W        W 6922  10.102  17.187  14.524
38529W        W 6923   8.911   1.775  11.520
38530W        W 6924  18.131  16.243   9.853
38531W        W 6925  27.941  44.797  14.180
38532W        W 6926  21.857  10.864   1.807
38533W        W 6927  18.841  29.573  14.849
38534W        W 6928  10.205  21.816  12.431
38535W        W 6929  28.717   6.302  12.610
38536W        W 6930  21.762  18.293  12.290
38537W        W 6931  20.952  11.301   3.362
38538W        W 6932  29.519  24.395  10.766
38539W        W 6933  23.095  42.072  14.166
38540W        W 6934  17.376  42.892  13.606
38541W        W 6935  22.040  12.293   3.813
38542W        W 6936  33.465  39.532  11.995
38543W        W 6937  33.337  16.788   1.739
38544W        W 6938   6.725   6.235  11.135
38545W        W 6939  40.706  17.091  12.572
38546W        W 6940   6.436  26.821   1.479
38547W        W 6941  31.747  24.855   0.305
38548W        W 6942  12.756  40.829  13.466
38549W        W 6943  17.398   4.259   4.490
38550W        W 6944  36.368  36.440   3.710
38551W        W 6945  15.940  27.767   4.233
38552W        W 6946  29.949  35.675   4.260
38553W        W 6947  28.013  25.805  10.894
38554W        W 6948  39.817  15.622  12.247
38555W        W 6949   3.473   9.118  12.516
38556W        W 6950   8.120  22.429   2.588
38557W        W 6951  44.988  12.816   1.381
38558W        W 6952  23.023  20.726  11.027
38559W        W 6953  29.881  20.164  11.054
38560W        W 6954  33.815  40.229  11.564
38561W        W 6955  38.598  29.033   2.009
38562W        W 6956  15.231   6.513  12.046
38563W        W 6957  23.216   0.748  14.467
38564W        W 6958  33.427  16.177  13.303
38565W        W 6959  39.581  41.930   1.730
38566W        W 6960   1.759  16.319   0.381
38567W        W 6961   1.082  15.601   4.009
38568W        W 6962  42.298  26.071   2.228
38569W        W 6963  27.736   9.114   4.760
38570W        W 6964   3.172  25.212   4.996
38571W        W 6965   1.363  34.085  13.623
38572W        W 6966  12.603  44.846   0.746
38573W        W 6967  16.806  36.820  10.596
38574W        W 6968  20.203  25.274  13.483
38575W        W 6969   3.950  24.719   2.306
38576W        W 6970  11.994  42.962  11.744
38577W        W 6971  31.951  40.249   3.270
38578W        W 6972  26.922  39.508   2.466
38579W        W 6973  38.633  11.083   4.463
38580W        W 6974  33.394  33.968  12.450
38581W        W 6975  16.688  32.717  11.426
38582W        W 6976  10.820  17.951  14.799
38583W        W 6977  29.864  29.830  14.702
38584W        W 6978  24.359  30.152   2.795
38585W        W 6979   5.730   9.305  14.876
38586W        W 6980   7.773  11.409  13.547
38587W        W 6981   1.723  31.087  14.350
38588W        W 6982   5.711  43.776   0.880
38589W        W 6983  19.611  41.948  11.741
38590W        W 6984  18.045  14.489   1.439
38591W        W 6985  32.197  42.444   2.830
38592W        W 6986  32.880  36.472  11.888
38593W        W 6987  26.157  27.610   3.696
38594W        W 6988  24.058  23.030  13.409
38595W        W 6989  17.770  10.298  10.991
38596W        W 6990  19.799  20.999   4.215
38597W        W 6991  29.401  30.682   2.794
38598W        W 6992  39.317  40.784  11.186
38599W        W 6993  18.608  27.193   2.256
38600W        W 6994  23.239  28.247  13.102
38601W        W 6995   0.971  40.357  10.539
38602W        W 6996  37.086  35.240   4.671
38603W        W 6997  18.942  38.864  14.264
38604W        W 6998  40.497  37.245  13.834
38605W        W 6999  41.389  18.089   3.892
38606W        W 7000   2.051  15.491  14.037
38607W        W 7001  39.817   2.199  14.686
38608W        W 7002  10.262  43.190   2.161
38609W        W 7003   8.308  30.432   3.554
38610W        W 7004   2.518  33.448  12.359
38611W        W 7005  17.757  30.772   2.405
38612W        W 7006  35.290  20.325   0.766
38613W        W 7007  34.598  31.417  14.935
38614W        W 7008   9.882  14.541   2.693
38615W        W 7009  34.123  35.193   1.394
38616W        W 7010  22.262   1.303   1.789
38617W        W 7011  17.811  40.103  11.951
38618W        W 7012  13.737  12.167  12.345
38619W        W 7013  41.753  38.982   1.327
38620W        W 7014   3.838   5.030  13.382
38621W        W 7015  39.561   4.230  12.575
38622W        W 7016  38.435  33.799   4.452
38623W        W 7017  21.603  43.456  11.953
38624W        W 7018  21.430  12.608   2.750
38625W        W 7019  15.091  36.866   1.414
38626W        W 7020  37.906   1.798   0.971
38627W        W 7021  33.405  42.069  10.735
38628W        W 7022  21.390  33.103   3.107
38629W        W 7023  27.631  21.745   3.762
38630W        W 7024   0.479  23.968   2.126
38631W        W 7025   4.405  23.054  12.516
38632W        W 7026  29.740  36.117   1.396
38633W        W 7027  43.424  18.798  10.487
38634W        W 7028  40.053  20.539  14.027
38635W        W 7029  38.377   6.680   1.241
38636W        W 7030   7.499   4.695   1.319
38637W        W 7031  20.629  26.482  14.959
38638W        W 7032  19.856  31.349  13.763
38639W        W 7033  23.072  30.835   2.234
38640W        W 7034  44.482  33.619  12.691
38641W        W 7035   1.551   6.441  14.804
38642W        W 7036  30.862  19.493   4.139
38643W        W 7037  28.978  27.880   0.376
38644W        W 7038  22.168  32.499   1.146
38645W        W 7039   6.214  19.571   9.860
38646W        W 7040  35.141  40.302   4.203
38647W        W 7041  38.273  29.996   1.635
38648W        W 7042   3.125  16.954  12.764
38649W        W 7043   9.134  39.384   1.374
38650W        W 7044   0.199  18.713  10.812
38651W        W 7045  34.405  31.221  13.088
38652W        W 7046  40.016   8.110   1.481
38653W        W 7047  21.985   2.383  12.849
38654W        W 7048  11.240  10.173  12.818
38655W        W 7049  34.913  36.223   4.815
38656W        W 7050  33.398  38.284  10.133
38657W        W 7051  42.931  30.684   1.724
38658W        W 7052  33.219   3.240   0.034
38659W        W 7053  27.717   4.762  10.692
38660W        W 7054  29.009  38.748  12.467
38661W        W 7055  31.008   7.992  12.129
38662W        W 7056  14.363  32.360  11.164
38663W        W 7057  13.941  18.889   0.822
38664W        W 7058  22.221  40.137  11.953
38665W        W 7059  38.236  44.578  11.181
38666W        W 7060  44.977   3.345   1.860
38667W        W 7061  10.596  30.563   0.313
38668W        W 7062   8.642  36.892   0.711
38669W        W 7063  37.458  42.525   0.880
38670W        W 7064  36.962   9.856   2.449
38671W        W 7065  18.094   3.645   3.274
38672W        W 7066  28.876   0.856  14.741
38673W        W 7067  34.420   2.739   4.186
38674W        W 7068  17.721  35.534  11.584
38675W        W 7069   0.567  16.613   0.819
38676W        W 7070   5.410  21.480   3.642
38677W        W 7071  37.324  30.125  13.685
38678W        W 7072  30.659  21.006  14.460
38679W        W 7073  43.842  43.569  14.561
38680W        W 7074  43.973  41.328  13.919
38681W        W 7075  40.800  28.588  11.078
38682W        W 7076  30.468  41.104   3.279
38683W        W 7077  37.347   5.675  14.484
38684W        W 7078   4.893   4.776   5.223
38685W        W 7079  27.575  42.368   0.458
38686W        W 7080  43.467   2.995   4.265
38687W        W 7081   3.282  38.640  13.516
38688W        W 7082  26.254  19.033   4.223
38689W        W 7083  12.785   3.051  11.004
38690W        W 7084  44.119  36.217   1.217
38691W        W 7085  18.832   9.055   1.711
38692W        W 7086  10.133  27.684   1.923
38693W        W 7087  40.581  20.697  12.551
38694W        W 7088  40.336   5.519   1.819
38695W        W 7089   2.018  35.027   0.359
38696W        W 7090   9.389  33.878  14.875
38697W        W 7091  44.639  34.372  11.072
38698W        W 7092   7.261  35.451  12.616
38699W        W 7093  12.977  23.245  14.823
38700W        W 7094  43.337  34.210   0.372
38701W        W 7095  41.335   9.727  13.368
38702W        W 7096  16.587  18.279   3.821
38703W        W 7097  29.036  33.668  13.029
38704W        W 7098  41.878  12.794   2.137
38705W        W 7099  31.540   1.580   1.434
38706W        W 7100  38.024  19.656  11.996
38707W        W 7101   3.395  33.967   0.295
38708W        W 7102  12.085  37.957   0.016
38709W        W 7103   2.753  14.667   9.991
38710W        W 7104   9.199  21.996   0.151
38711W        W 7105  37.363   5.265   0.891
38712W        W 7106  35.296  10.013  12.890
38713W        W 7107   0.326  38.438   3.588
38714W        W 7108   3.721  30.123  12.433
38715W        W 7109  29.053  31.009  13.117
38716W        W 7110  26.774  10.447   0.705
38717W        W 7111  14.054  41.240   1.480
38718W        W 7112  27.585   6.181  12.892
38719W        W 7113   5.270  24.921  13.514
38720W        W 7114  26.439   1.830   0.310
38721W        W 7115   7.274  15.144  14.468
38722W        W 7116  20.554  13.287   4.305
38723W        W 7117  44.755  13.064  14.141
38724W        W 7118  15.647  41.816   1.311
38725W        W 7119  17.485   1.000  14.236
38726W        W 7120  14.397   2.306  10.674
38727W        W 7121  28.567  28.870  14.819
38728W        W 7122  33.809  36.434   3.752
38729W        W 7123  18.313  34.775   4.179
38730W        W 7124  26.481  30.603  10.628
38731W        W 7125   6.655  41.532   2.867
38732W        W 7126  30.623  36.932   1.097
38733W        W 7127  27.066  24.650   2.396
38734W        W 7128  37.931  33.968   4.687
38735W        W 7129  31.703  31.378  11.435
38736W        W 7130  23.558  21.666   3.170
38737W        W 7131  11.166  40.110   1.922
38738W        W 7132  39.895  34.032   4.439
38739W        W 7133   6.997  23.428   3.254
38740W        W 7134   3.034   7.786  11.647
38741W        W 7135  42.455   3.195  12.479
38742W        W 7136  44.307  23.131  11.166
38743W        W 7137  19.540   1.100   0.353
38744W        W 7138  28.003   8.401   4.671
38745W        W 7139   2.999   0.983   4.545
38746W        W 7140  26.907  30.533   2.250
38747W        W 7141  26.940   1.061  10.244
38748W        W 7142  35.518   1.825  12.968
38749W        W 7143   4.164  42.894   3.191
38750W        W 7144   3.523  31.864  13.914
38751W        W 7145   4.005  15.361  13.310
38752W        W 7146  21.913  35.583  14.022
38753W        W 7147  40.608   1.208  14.801
38754W        W 7148  31.516   3.443   2.189
38755W        W 7149  17.414  26.198  11.986
38756W        W 7150  43.330  43.221  12.620
38757W        W 7151  16.845   2.450   5.087
38758W        W 7152  16.170  28.692  11.175
38759W        W 7153  37.918  13.316   3.406
38760W        W 7154  21.212   2.490  11.114
38761W        W 7155  13.241  15.483   0.477
38762W        W 7156   2.654  29.066  10.745
38763W        W 7157  33.919  26.540  13.536
38764W        W 7158   1.127  32.804  11.381
38765W        W 7159  20.865   0.964   4.657
38766W        W 7160  34.865  14.173  13.727
38767W        W 7161  27.456   5.407  13.401
38768W        W 7162  39.519   5.473  14.935
38769W        W 7163   5.738  13.586   1.936
38770W        W 7164  10.475  30.042  12.849
38771W        W 7165  43.824   2.884   2.648
38772W        W 7166  27.598  15.211  11.693
38773W        W 7167  34.027  21.443  12.553
38774W        W 7168  38.778  12.843   3.672
38775W        W 7169  38.613  19.858   1.399
38776W        W 7170  14.793  33.593   3.158
38777W        W 7171  32.146  26.234   4.349
38778W        W 7172  14.241  12.391  14.061
38779W        W 7173  25.254  13.155  11.695
38780W        W 7174  10.209   4.476  11.975
38781W        W 7175  26.221  40.781   3.065
38782W        W 7176  30.431   4.437   2.192
38783W        W 7177  30.848  31.533  13.167
38784W        W 7178  14.861  13.842  14.093
38785W        W 7179  14.629  11.946  12.833
38786W        W 7180  42.244  29.498  12.366
38787W        W 7181  16.160  15.875   0.691
38788W        W 7182   0.690   1.297  11.117
38789W        W 7183  28.429   0.360   4.087
38790W        W 7184  34.696  31.086  13.976
38791W        W 7185  38.061   0.366  13.486
38792W        W 7186  18.682   9.733   3.036
38793W        W 7187  17.684  30.212  11.491
38794W        W 7188  17.707  16.638  14.919
38795W        W 7189  14.706   9.352  11.413
38796W        W 7190  31.842  37.546   2.847
38797W        W 7191  24.716   9.313  12.503
38798W        W 7192  25.412  17.042   1.405
38799W        W 7193   6.711  24.193   1.239
38800W        W 7194  42.050   5.452   2.861
38801W        W 7195  32.241  27.481  12.013
38802W        W 7196  43.082   9.651   0.752
38803W        W 7197  21.717  12.589   4.182
38804W        W 7198  17.096  24.937   4.195
38805W        W 7199  14.109  37.806  10.707
38806W        W 7200  41.036  30.956   3.386
38807W        W 7201   3.690  35.948   4.713
38808W        W 7202   0.714  26.919   1.671
38809W        W 7203  33.989  30.410  11.054
38810W        W 7204  20.262  42.856  13.914
38811W        W 7205  27.370  38.483  11.855
38812W        W 7206  28.930   5.691  14.243
38813W        W 7207  32.954  18.423   2.823
38814W        W 7208  42.138   9.876   4.701
38815W        W 7209  19.170  13.404   2.303
38816W        W 7210  31.362   1.808  14.861
38817W        W 7211   2.539  25.658   0.016
38818W        W 7212  35.785  13.581   2.305
38819W        W 7213  40.462  23.706  14.168
38820W        W 7214   7.143  25.728   3.738
38821W        W 7215   9.851  16.588   4.767
38822W        W 7216   5.896  22.703  11.672
38823W        W 7217  29.812  28.088   3.239
38824W        W 7218  15.847  15.570   2.407
38825W        W 7219   5.906  30.851  13.444
38826W        W 7220  15.248  18.540   0.356
38827W        W 7221  32.368  13.217  14.927
38828W        W 7222  39.773  15.897  14.969
38829W        W 7223  35.841   8.697   2.901
38830W        W 7224  27.989  25.144   0.787
38831W        W 7225  19.375  42.834   1.253
38832W        W 7226  28.923  26.672  10.660
38833W        W 7227  21.711  33.518   2.575
38834W        W 7228  43.354  23.202  13.029
38835W        W 7229  15.438   2.287   0.417
38836W        W 7230   0.054  36.422   4.209
38837W        W 7231  36.502  23.028  13.992
38838W        W 7232   1.039  36.481  11.900
38839W        W 7233  44.898   3.912   0.347
38840W        W 7234  43.055  29.322  11.075
38841W        W 7235  36.243  35.529   2.369
38842W        W 7236  32.430   2.972   3.910
38843W        W 7237  23.927  10.812  14.280
38844W        W 7238  29.607  40.342  10.758
38845W        W 7239  20.280  34.389   1.038
38846W        W 7240  42.377   7.089   1.442
38847W        W 7241  16.535  41.779   2.743
38848W        W 7242  38.615  25.671   3.778
38849W        W 7243  13.874  20.606   0.254
38850W        W 7244  13.374  23.148  10.250
38851W        W 7245  18.773   9.668  14.777
38852W        W 7246  24.203  35.271  13.492
38853W        W 7247   8.966  38.501  11.620
38854W        W 7248   2.464  13.019   0.017
38855W        W 7249  41.926  38.982  10.766
38856W        W 7250  26.512  42.412  10.287
38857W        W 7251  44.807  35.943  11.652
38858W        W 7252  23.282  26.576  13.787
38859W        W 7253   9.746  13.719  11.632
38860W        W 7254  14.701  31.612  11.809
38861W        W 7255  37.838  36.115   2.174
38862W        W 7256  12.785  39.859  13.146
38863W        W 7257  32.258  29.796   2.441
38864W        W 7258  14.762   8.207   2.141
38865W        W 7259   5.912   9.188   0.372
38866W        W 7260  33.332  18.111  14.051
38867W        W 7261  35.140  31.142  13.444
38868W        W 7262  39.490   7.436   4.593
38869W        W 7263  43.493   8.900  14.245
38870W        W 7264   7.879  27.570   1.406
38871W        W 7265  20.741   5.927   0.298
38872W        W 7266  16.214   6.715   2.699
38873W        W 7267  17.192  31.977  10.344
38874W        W 7268  11.381  21.099   1.017
38875W        W 7269  12.515   3.061   4.106
38876W        W 7270  29.092  25.971  12.510
38877W        W 7271  39.966  12.503  14.503
38878W        W 7272  15.777  23.152  14.624
38879W        W 7273  29.565  37.773  14.971
38880W        W 7274  32.371  33.640   3.236
38881W        W 7275  37.084  41.748  13.591
38882W        W 7276  16.158   5.063   0.863
38883W        W 7277  15.329  33.746  11.684
38884W        W 7278   0.531  14.333  10.943
38885W        W 7279  22.582  38.533   2.863
38886W        W 7280  29.452  13.826  10.616
38887W        W 7281  31.053  15.142   1.293
38888W        W 7282   4.312  39.587  12.662
38889W        W 7283  29.231  31.393  11.624
38890W        W 7284  32.380   5.924   2.820
38891W        W 7285  37.228  15.399  13.842
38892W        W 7286  23.051  43.975   1.411
38893W        W 7287  32.034  30.615  11.914
38894W        W 7288  42.023  32.979  12.709
38895W        W 7289  35.473  19.921  10.655
38896W        W 7290  12.787  27.998   4.897
38897W        W 7291  40.700  32.385   4.440
38898W        W 7292  17.783   6.558   2.613
38899W        W 7293  22.259  20.543   2.459
38900W        W 7294  25.765  42.342  12.417
38901W        W 7295  28.563  39.497  10.687
38902W        W 7296   9.000  15.863  14.666
38903W        W 7297  29.085  15.683  13.393
38904W        W 7298   9.870  20.215  10.652
38905W        W 7299  37.573  31.179  14.883
38906W        W 7300  33.076  25.423  12.886
38907W        W 7301  43.991  33.264  13.950
38908W        W 7302  22.311  13.265  12.727
38909W        W 7303   7.783   7.753  11.376
38910W        W 7304  20.155  36.946  14.935
38911W        W 7305  23.244  41.261   0.781
38912W        W 7306  33.856  39.309   2.740
38913W        W 7307  13.055   6.987   1.275
38914W        W 7308  20.168  28.126  11.850
38915W        W 7309  19.250  25.629  11.603
38916W        W 7310   7.362  44.734   0.026
38917W        W 7311  21.595  29.428   0.286
38918W        W 7312  37.941   7.222  14.673
38919W        W 7313  36.137   0.199   1.035
38920W        W 7314  19.023  18.790   3.316
38921W        W 7315  14.433  44.401   1.956
38922W        W 7316  27.230  13.790   1.918
38923W        W 7317  23.036   6.675   0.215
38924W        W 7318   2.849  42.240   0.908
38925W        W 7319  21.300  20.091   2.204
38926W        W 7320   8.812  24.633   0.631
38927W        W 7321  43.920  30.211  11.544
38928W        W 7322  12.702  44.557   2.850
38929W        W 7323  15.062   3.838  13.962
38930W        W 7324  37.600  34.091   3.988
38931W        W 7325  23.765  40.425  14.032
38932W        W 7326   3.393  40.177  12.001
38933W        W 7327  13.414  32.529   1.962
38934W        W 7328  15.692   1.018   4.103
38935W        W 7329  16.198  23.080   1.693
38936W        W 7330  37.831   0.908  11.289
38937W        W 7331  19.123   1.062   4.964
38938W        W 7332  15.343  42.905   1.847
38939W        W 7333  44.363  11.566  14.016
38940W        W 7334   6.111  23.877   0.323
38941W        W 7335   5.668  39.613  13.073
38942W        W 7336  27.612  29.069  10.551
38943W        W 7337   0.672   6.577   0.399
38944W        W 7338  23.816  25.167  13.954
38945W        W 7339  42.245  10.602   3.352
38946W        W 7340  38.971  20.236   4.352
38947W        W 7341  41.764  11.112  13.044
38948W        W 7342  37.132  29.194   5.008
38949W        W 7343  36.601  38.451   3.849
38950W        W 7344  11.311  18.624  12.623
38951W        W 7345  13.852  13.724   2.863
38952W        W 7346  40.598  27.728  11.079
38953W        W 7347  40.306  26.900   4.298
38954W        W 7348  13.568  24.486   0.345
38955W        W 7349   3.741  19.102   0.223
38956W        W 7350  34.979   5.590  11.686
38957W        W 7351  40.093  29.033   2.276
38958W        W 7352  44.461  27.528  12.917
38959W        W 7353  42.282   6.172  13.423
38960W        W 7354  37.063  10.635   3.793
38961W        W 7355  33.692  31.067   4.845
38962W        W 7356  36.567   4.190   0.888
38963W        W 7357  37.423  16.668  10.056
38964W        W 7358  42.488   8.023  10.843
38965W        W 7359  18.780  31.556  10.914
38966W        W 7360  23.170  11.912  11.173
38967W        W 7361  39.644   9.137   1.777
38968W        W 7362  17.025   3.375  11.555
38969W        W 7363   0.897  16.737  11.964
38970W        W 7364  38.823   4.600  14.420
38971W        W 7365  29.247  22.789   1.814
38972W        W 7366  26.576  11.422   9.861
38973W        W 7367  41.519  27.732   2.419
38974W        W 7368  22.021   7.164   2.814
38975W        W 7369  30.556  40.839   0.454
38976W        W 7370  44.758   6.734   0.156
38977W        W 7371  34.662  22.629   3.548
38978W        W 7372  42.732  32.022   3.211
38979W        W 7373  39.471  29.159   4.767
38980W        W 7374   6.659  35.623   3.662
38981W        W 7375  34.131  40.554  14.871
38982W        W 7376   3.749  17.775   4.508
38983W        W 7377   1.897  26.883  12.936
38984W        W 7378  10.731   0.966   0.506
38985W        W 7379  23.104  37.941   1.982
38986W        W 7380  44.194  31.116   0.319
38987W        W 7381  20.124  41.419   4.997
38988W        W 7382  43.366  11.646   4.606
38989W        W 7383  32.510  30.206   2.186
38990W        W 7384  21.602   7.176   0.591
38991W        W 7385   4.712  34.087  10.636
38992W        W 7386  37.113  26.369  14.962
38993W        W 7387   6.920  35.473  11.310
38994W        W 7388  28.745  16.806  14.057
38995W        W 7389  34.463  34.659   3.508
38996W        W 7390  40.415  27.074   2.906
38997W        W 7391  39.767   7.258  12.429
38998W        W 7392  40.835  26.985   0.548
38999W        W 7393  24.685   6.513   1.821
39000W        W 7394  11.660   7.491  13.324
39001W        W 7395   7.217  21.772  11.436
39002W        W 7396  30.650  42.127   1.395
39003W        W 7397  14.593  19.543   1.293
39004W        W 7398   1.030  15.020   9.878
39005W        W 7399  35.639  22.686   3.857
39006W        W 7400  16.617  44.852  14.037
39007W        W 7401  38.041   7.739   3.576
39008W        W 7402  20.029   0.727  14.188
39009W        W 7403  25.471  14.205  14.850
39010W        W 7404  17.881  30.471  11.885
39011W        W 7405  27.898  10.236   3.189
39012W        W 7406  18.827   5.892  14.415
39013W        W 7407  29.840  33.137  11.255
39014W        W 7408  19.481   9.758  14.524
39015W        W 7409   6.150  30.146  14.873
39016W        W 7410  43.297  30.789  11.196
39017W        W 7411  32.061  44.478   0.543
39018W        W 7412  32.015  25.875  13.311
39019W        W 7413   4.224  40.553  13.844
39020W        W 7414  25.229   6.653   0.200
39021W        W 7415  41.475  23.266   0.969
39022W        W 7416  24.343  41.300   4.181
39023W        W 7417  36.479  38.015   3.011
39024W        W 7418  19.155  13.245  10.710
39025W        W 7419   2.840   8.644   2.617
39026W        W 7420  11.043  37.912   1.856
39027W        W 7421  30.107  17.263   2.760
39028W        W 7422  30.039   9.049  10.683
39029W        W 7423  13.554   6.766  12.987
39030W        W 7424   4.441  36.167  14.096
39031W        W 7425  26.567  16.074  14.010
39032W        W 7426  39.129  21.792  10.945
39033W        W 7427  11.906  10.881  14.787
39034W        W 7428  43.348  24.116   4.108
39035W        W 7429  34.115  24.933  14.231
39036W        W 7430  31.644  36.925   3.392
39037W        W 7431  28.245   7.707  14.410
39038W        W 7432  35.298  12.121   4.088
39039W        W 7433  44.827  13.158   0.456
39040W        W 7434  22.962  10.095   3.217
39041W        W 7435   3.961  16.942  14.060
39042W        W 7436  41.401  14.224  13.511
39043W        W 7437   5.763  35.113  13.873
39044W        W 7438  23.457  10.914  14.510
39045W        W 7439  24.783  23.736   2.443
39046W        W 7440  23.620   5.173   1.867
39047W        W 7441  40.763  29.606  11.228
39048W        W 7442  27.635   2.096  11.243
39049W        W 7443  17.808  34.456  14.383
39050W        W 7444  22.596  29.100  13.808
39051W        W 7445  41.428   3.691  12.379
39052W        W 7446   1.461  10.405  12.458
39053W        W 7447  36.936   3.843  11.519
39054W        W 7448   5.541  33.171   0.840
39055W        W 7449  44.223  15.218   4.940
39056W        W 7450  35.506   9.421  10.721
39057W        W 7451  13.284  14.746   1.232
39058W        W 7452  34.661  44.592  12.887
39059W        W 7453  24.428  40.269   1.701
39060W        W 7454  43.409   0.381   1.015
39061W        W 7455  39.406   4.867   0.809
39062W        W 7456  24.224  17.701  12.565
39063W        W 7457  33.541  20.240  10.638
39064W        W 7458  25.710  20.020   3.379
39065W        W 7459  44.829  28.277  10.975
39066W        W 7460  10.277  38.645  14.030
39067W        W 7461  21.977  34.379   3.592
39068W        W 7462  16.187  42.890   3.835
39069W        W 7463  20.392  43.559   4.098
39070W        W 7464  21.645  10.653   4.564
39071W        W 7465  12.431  28.165  10.605
39072W        W 7466  11.416  27.482   0.775
39073W        W 7467  14.791  40.967   3.204
39074W        W 7468   6.499   3.373   3.812
39075W        W 7469  36.303  15.213   1.630
39076W        W 7470  36.625  31.683  13.889
39077W        W 7471  40.764   7.685  14.330
39078W        W 7472  43.862  40.595  13.149
39079W        W 7473  17.208   4.524  12.472
39080W        W 7474  33.950  31.596  14.307
39081W        W 7475   7.382  33.345  11.484
39082W        W 7476  22.360  21.221  11.371
39083W        W 7477   3.494  16.894   4.559
39084W        W 7478  24.450  13.170  11.297
39085W        W 7479  26.807  19.570  11.553
39086W        W 7480  23.763  30.524  10.535
39087W        W 7481  40.600  14.599  14.391
39088W        W 7482   8.374   9.654  13.544
39089W        W 7483  10.428  15.110  13.508
39090W        W 7484  20.340  37.769  10.160
39091W        W 7485  12.511  11.538  14.437
39092W        W 7486  29.099  36.875   2.757
39093W        W 7487   3.290   0.869  13.842
39094W        W 7488   7.677  41.448  13.266
39095W        W 7489  14.133   4.139   2.048
39096W        W 7490   1.233  32.157   3.035
39097W        W 7491  10.104  39.827  10.342
39098W        W 7492   3.054  24.012  13.181
39099W        W 7493   3.651  35.708   2.451
39100W        W 7494  24.274  11.935   2.788
39101W        W 7495  26.602  26.026  12.022
39102W        W 7496  11.900  43.820   1.236
39103W        W 7497   5.364  16.565   2.572
39104W        W 7498  28.923  38.444  12.891
39105W        W 7499   9.754  41.154  14.365
39106W        W 7500   0.941   7.719  10.805
39107W        W 7501  18.283  41.714  13.492
39108W        W 7502  22.737   3.269   1.420
39109W        W 7503  43.061  44.485   0.219
39110W        W 7504  31.480   4.281   1.182
39111W        W 7505  24.037  43.076  12.413
39112W        W 7506  40.243  41.493  14.528
39113W        W 7507  44.070  25.298  14.802
39114W        W 7508   2.242  17.300   2.566
39115W        W 7509  14.267  35.123   3.857
39116W        W 7510   2.248  40.043  13.353
39117W        W 7511  39.483  28.205   0.453
39118W        W 7512   4.868   5.411  13.835
39119W        W 7513  28.203  36.578  13.561
39120W        W 7514  34.184  19.901   1.570
39121W        W 7515  12.280  20.676  12.875
39122W        W 7516  43.992  35.803  12.963
39123W        W 7517  11.935  22.542  10.423
39124W        W 7518  36.096   5.075   0.409
39125W        W 7519  26.901  24.555  12.894
39126W        W 7520  27.910  14.582   1.831
39127W        W 7521   1.606  18.833  12.557
39128W        W 7522   4.348  29.481  13.399
39129W        W 7523  16.098   5.707   3.087
39130W        W 7524  14.016  12.070   2.981
39131W        W 7525  38.946   2.876  11.826
39132W        W 7526   6.791  38.721  13.313
39133W        W 7527  32.594   0.169   2.358
39134W        W 7528  12.252  14.763  12.112
39135W        W 7529  14.771  13.352   4.110
39136W        W 7530  20.174  31.701   3.739
39137W        W 7531  12.774  13.569   0.272
39138W        W 7532  12.947  18.751  12.673
39139W        W 7533  40.749   0.724   0.366
39140W        W 7534   9.169  38.065   3.878
39141W        W 7535  35.366  10.826   3.542
39142W        W 7536  40.741  25.463   4.209
39143W        W 7537   8.847  41.840  13.114
39144W        W 7538   6.678  23.170  14.310
39145W        W 7539  25.052  10.332   1.604
39146W        W 7540  23.006   4.762  12.565
39147W        W 7541  42.742  16.649  12.979
39148W        W 7542  22.281  12.786   4.285
39149W        W 7543  23.726  13.477   2.580
39150W        W 7544  40.584  32.090  14.412
39151W        W 7545  27.962  34.087  13.832
39152W        W 7546  19.755  33.317   4.163
39153W        W 7547  22.242  33.561  11.469
39154W        W 7548   1.952  28.574   0.960
39155W        W 7549  24.569   3.999   1.039
39156W        W 7550  18.519  23.806  11.128
39157W        W 7551  14.339  43.760   4.485
39158W        W 7552  30.177  39.251   2.444
39159W        W 7553   7.923  22.248   0.369
39160W        W 7554  39.816   7.677  10.925
39161W        W 7555  13.825   9.259   2.337
39162W        W 7556  22.026  28.280   0.901
39163W        W 7557   3.445  15.769  13.106
39164W        W 7558  34.881   4.356  12.048
39165W        W 7559   6.209   1.762   0.732
39166W        W 7560   4.474  43.022  10.932
39167W        W 7561  13.544  21.901   0.029
39168W        W 7562  32.799  30.084  13.464
39169W        W 7563   1.145  24.271   4.202
39170W        W 7564  24.133  44.198  13.442
39171W        W 7565  20.539  15.702   3.771
39172W        W 7566  35.438  23.280  13.964
39173W        W 7567   7.403  16.615   4.558
39174W        W 7568   6.737  21.567   4.312
39175W        W 7569   4.953  28.401   1.986
39176W        W 7570  12.049   0.948   4.994
39177W        W 7571   5.911   7.435   4.460
39178W        W 7572  25.214  26.559  10.751
39179W        W 7573  22.150  23.958  11.524
39180W        W 7574  17.293  22.736   1.344
39181W        W 7575   3.977   9.743   0.126
39182W        W 7576   9.525  39.309  13.871
39183W        W 7577  29.480  31.324  11.092
39184W        W 7578  26.106  22.959   4.720
39185W        W 7579  43.734  21.317   2.451
39186W        W 7580  11.996  12.252   0.688
39187W        W 7581  42.222  42.848   4.467
39188W        W 7582   3.191  21.816  14.367
39189W        W 7583  19.525  22.190  13.341
39190W        W 7584   9.513  36.903  11.134
39191W        W 7585  23.931  43.696   5.019
39192W        W 7586  31.023  11.895  11.552
39193W        W 7587  11.883  12.127  12.087
39194W        W 7588  38.546  19.531  12.064
39195W        W 7589   0.485  32.505   0.036
39196W        W 7590   0.625   1.799   0.311
39197W        W 7591  29.543  34.315   3.817
39198W        W 7592  28.606  11.177  14.369
39199W        W 7593   9.405  36.712   2.806
39200W        W 7594  11.584   0.451  10.227
39201W        W 7595  32.385  31.969  12.380
39202W        W 7596  22.701   4.357  11.428
39203W        W 7597  33.645   3.413   3.419
39204W        W 7598  30.907  34.882   3.362
39205W        W 7599  17.382  32.378   3.316
39206W        W 7600   5.674  18.665   1.823
39207W        W 7601  39.784  33.397  13.457
39208W        W 7602  41.913  22.802  14.510
39209W        W 7603  12.154   1.707   1.125
39210W        W 7604  30.148  18.500  13.341
39211W        W 7605  20.010  32.598  12.235
39212W        W 7606   6.408   5.882   4.858
39213W        W 7607   4.281   2.965  11.138
39214W        W 7608  20.350  39.808  11.553
39215W        W 7609  10.652   1.724   2.720
39216W        W 7610  36.326  27.643  11.662
39217W        W 7611   8.017  15.525  14.872
39218W        W 7612  34.048  38.331  11.849
39219W        W 7613  33.019   6.738   3.737
39220W        W 7614  18.316  27.075  11.216
39221W        W 7615  17.102  21.071   3.662
39222W        W 7616  11.355  11.284  11.865
39223W        W 7617  11.014  29.942  13.992
39224W        W 7618   6.382  13.655  11.484
39225W        W 7619   3.883  37.112   4.197
39226W        W 7620  10.907  15.232   2.452
39227W        W 7621  33.422   8.243  10.622
39228W        W 7622  31.971  27.505   3.296
39229W        W 7623   0.469  12.625  12.588
39230W        W 7624  15.846  13.235   2.363
39231W        W 7625  16.923  41.732  13.971
39232W        W 7626  26.689  42.455  14.961
39233W        W 7627  33.097  13.487   2.235
39234W        W 7628  18.698  16.979  14.785
39235W        W 7629   6.434  24.667   3.123
39236W        W 7630  13.048   6.851  11.478
39237W        W 7631   0.433  13.816  12.068
39238W        W 7632  38.437  19.745  10.753
39239W        W 7633  13.323  41.035   4.102
39240W        W 7634  42.013  14.331   0.910
39241W        W 7635  34.504   4.055  14.487
39242W        W 7636   5.599   8.898  11.020
39243W        W 7637  16.097  43.911   4.122
39244W        W 7638  22.539   8.883   4.456
39245W        W 7639  19.104   4.889   0.937
39246W        W 7640  15.858  42.898   0.690
39247W        W 7641   4.309  26.621   1.496
39248W        W 7642  28.079  37.588  13.399
39249W        W 7643  31.224  27.727  13.025
39250W        W 7644   4.188   9.593  13.491
39251W        W 7645  39.984  17.001   5.104
39252W        W 7646  21.304  14.841  14.885
39253W        W 7647  35.357  38.337   1.203
39254W        W 7648  14.738  43.878   0.348
39255W        W 7649   8.029   7.914   4.749
39256W        W 7650   2.162   1.806   4.523
39257W        W 7651  33.470  36.875  14.385
39258W        W 7652  12.208  18.976  10.519
39259W        W 7653   6.063  27.915  11.695
39260W        W 7654  42.068   7.152  12.949
39261W        W 7655  39.792  13.667  13.059
39262W        W 7656  21.660  32.626   3.624
39263W        W 7657  38.403   8.223  12.612
39264W        W 7658  15.760  44.951  11.578
39265W        W 7659  26.891  32.165  10.016
39266W        W 7660  37.356  11.399   0.230
39267W        W 7661  37.620  17.721  11.451
39268W        W 7662   8.332  16.083   4.518
39269W        W 7663   6.879  17.533   4.646
39270W        W 7664   0.786  27.665   2.856
39271W        W 7665  25.642   0.776  13.856
39272W        W 7666  27.902  20.193  13.340
39273W        W 7667  39.733  13.140   3.233
39274W        W 7668  20.583   1.428  11.260
39275W        W 7669  39.108  38.926   1.518
39276W        W 7670  19.295  21.970   0.442
39277W        W 7671  16.536  44.240   9.846
39278W        W 7672  42.421   0.015   4.227
39279W        W 7673  13.945  36.448   4.047
39280W        W 7674   0.339  39.967  13.339
39281W        W 7675  31.273  21.016  10.276
39282W        W 7676  18.764  10.386   4.067
39283W        W 7677  24.409  42.677   0.892
39284W        W 7678  13.814  15.270   1.763
39285W        W 7679  41.111   9.223  10.752
39286W        W 7680  35.141  40.347  13.116
39287W        W 7681  20.125  40.687  11.645
39288W        W 7682  21.089  16.678   3.370
39289W        W 7683  24.166   3.795  13.790
39290W        W 7684  19.489   0.286  12.666
39291W        W 7685   1.641  32.418   2.813
39292W        W 7686  28.303   8.596   4.281
39293W        W 7687  32.747  26.094  14.933
39294W        W 7688  35.079  17.768   2.712
39295W        W 7689   8.895  43.190  11.775
39296W        W 7690  27.129  39.113  12.909
39297W        W 7691   8.551   5.788   0.815
39298W        W 7692   2.865  32.174   4.568
39299W        W 7693  25.704  38.717  12.467
39300W        W 7694  31.070  30.248  11.207
39301W        W 7695  41.520  27.154   3.832
39302W        W 7696  32.995  16.572  12.861
39303W        W 7697  38.696  35.672   1.488
39304W        W 7698  32.161   1.441   2.710
39305W        W 7699  44.804  13.198  12.991
39306W        W 7700   1.201  39.914  10.658
39307W        W 7701  41.001  26.131   3.302
39308W        W 7702  33.705  27.313   3.252
39309W        W 7703   6.666  23.830   3.210
39310W        W 7704  10.631  34.103   0.310
39311W        W 7705   2.426  35.044   3.215
39312W        W 7706   9.351  16.025   4.334
39313W        W 7707  10.597  31.693  14.337
39314W        W 7708  39.121  28.010  11.725
39315W        W 7709   5.421  34.536  11.405
39316W        W 7710  14.702   1.853   4.134
39317W        W 7711  33.492  24.712   2.223
39318W        W 7712  29.146  32.649   4.430
39319W        W 7713   5.073  20.005  12.552
39320W        W 7714  20.946  37.311  13.029
39321W        W 7715  21.726  28.655  10.690
39322W        W 7716  32.617   3.937   0.467
39323W        W 7717  14.417  19.025  10.486
39324W        W 7718  17.739   1.232   3.078
39325W        W 7719  21.001  43.741   2.342
39326W        W 7720   8.907  35.903   2.794
39327W        W 7721  19.539  27.535  14.297
39328W        W 7722  19.065  12.617  13.497
39329W        W 7723  27.967  43.233   3.671
39330W        W 7724   0.268   3.013   2.438
39331W        W 7725  23.810  13.675   4.143
39332W        W 7726  40.947  23.192   1.701
39333W        W 7727  19.249  20.783   3.250
39334W        W 7728  31.549  16.780  11.941
39335W        W 7729  35.702  39.535  13.445
39336W        W 7730  31.163  40.795   4.301
39337W        W 7731  24.256  35.452   3.066
39338W        W 7732  32.545  11.078  10.725
39339W        W 7733  21.456  24.653  11.916
39340W        W 7734  28.951  33.443   0.399
39341W        W 7735   0.121  34.038  13.812
39342W        W 7736  35.424  25.690   4.740
39343W        W 7737  11.613  18.261  12.014
39344W        W 7738   6.433  28.495  10.641
39345W        W 7739  43.192   6.171   0.176
39346W        W 7740  28.970  36.531   0.418
39347W        W 7741  17.857  35.913   0.303
39348W        W 7742  30.702  11.600  13.831
39349W        W 7743  36.857  23.301   0.497
39350W        W 7744  26.013  24.450  13.919
39351W        W 7745  34.157  33.486  14.447
39352W        W 7746  28.342   6.813   4.557
39353W        W 7747  23.142   7.097  11.404
39354W        W 7748  19.287   0.436   4.212
39355W        W 7749  43.289   4.880   3.076
39356W        W 7750  27.027  14.527   2.311
39357W        W 7751  35.414  26.539   4.504
39358W        W 7752  28.890  10.232   0.343
39359W        W 7753  34.130  31.964  12.803
39360W        W 7754  18.309  11.097   3.799
39361W        W 7755  35.613  28.733  11.040
39362W        W 7756  11.842   1.634   2.776
39363W        W 7757  43.471   1.300   0.001
39364W        W 7758  32.465   7.798   2.289
39365W        W 7759   7.782   6.856  11.537
39366W        W 7760  34.881  13.981  12.431
39367W        W 7761  34.384   8.153   3.181
39368W        W 7762  20.377  38.420  14.465
39369W        W 7763   9.731   4.032  14.867
39370W        W 7764  16.574  36.473   5.408
39371W        W 7765  35.906  18.064   1.421
39372W        W 7766   9.391   6.888   0.044
39373W        W 7767   3.451   2.874   1.687
39374W        W 7768  21.705  32.525  12.640
39375W        W 7769   3.390  21.202  13.910
39376W        W 7770  32.073  38.998  14.300
39377W        W 7771  26.935  38.773  10.671
39378W        W 7772  16.106  10.316  11.083
39379W        W 7773  31.934  36.099   3.134
39380W        W 7774   1.198  28.087   3.423
39381W        W 7775  30.058  28.913  10.765
39382W        W 7776  30.968  17.546   2.166
39383W        W 7777  12.285   1.456   2.529
39384W        W 7778  30.221  42.065  10.711
39385W        W 7779  14.753  31.168  12.083
39386W        W 7780  31.241   0.488   0.959
39387W        W 7781  23.653  30.454  11.025
39388W        W 7782  43.504  41.996   0.807
39389W        W 7783  31.632  23.718   3.132
39390W        W 7784  36.274  28.511   1.653
39391W        W 7785  38.269  42.607  13.080
39392W        W 7786   8.148   6.709  13.291
39393W        W 7787   7.620  10.279  10.735
39394W        W 7788  42.702  37.401   4.469
39395W        W 7789  20.123   8.794   4.363
39396W        W 7790  40.301  25.272  11.574
39397W        W 7791   8.362  43.035   1.741
39398W        W 7792  37.121  33.618  11.546
39399W        W 7793  24.159  27.018   3.086
39400W        W 7794  36.947  37.078  13.598
39401W        W 7795  16.518  36.363  10.403
39402W        W 7796   0.813  31.939  11.083
39403W        W 7797  13.219  24.891   2.336
39404W        W 7798  27.086  40.744  10.866
39405W        W 7799  28.785  14.277  14.486
39406W        W 7800   1.221  37.627   3.288
39407W        W 7801  10.597  17.677  14.413
39408W        W 7802  42.084  21.996  14.008
39409W        W 7803  34.374  10.684  13.493
39410W        W 7804  18.912  36.122  12.488
39411W        W 7805  10.807   1.338  10.547
39412W        W 7806  21.973  19.695   2.156
39413W        W 7807  25.110  25.200   3.743
39414W        W 7808  38.997  33.117  10.493
39415W        W 7809  13.594  11.634   4.743
39416W        W 7810   8.532  11.914   1.643
39417W        W 7811   0.851   0.751  13.246
39418W        W 7812  29.398   6.901   0.852
39419W        W 7813  12.144  18.626  14.356
39420W        W 7814  39.774  19.399  12.382
39421W        W 7815  32.229  29.401  13.174
39422W        W 7816  20.583  18.321   1.018
39423W        W 7817  30.184  29.266   4.090
39424W        W 7818   7.093  37.812  12.089
39425W        W 7819   1.720  40.932  14.413
39426W        W 7820  20.678   3.326  14.966
39427W        W 7821   3.308  17.274   1.717
39428W        W 7822  24.060  33.561   3.615
39429W        W 7823  39.358  17.699  14.432
39430W        W 7824   5.593  28.618   3.777
39431W        W 7825  30.614  17.127  10.592
39432W        W 7826   3.377   4.011  11.130
39433W        W 7827  26.195   3.671   1.452
39434W        W 7828   8.773  17.523  12.994
39435W        W 7829  13.655  32.764   4.316
39436W        W 7830  37.349  15.778   4.549
39437W        W 7831   7.416   4.791   0.776
39438W        W 7832  25.004   7.425   3.822
39439W        W 7833  36.966  38.226  12.582
39440W        W 7834  23.210  41.309   1.834
39441W        W 7835  31.336   7.764   0.583
39442W        W 7836  25.936  36.857   3.619
39443W        W 7837  32.409  40.547   2.160
39444W        W 7838  14.214  21.161  14.561
39445W        W 7839  23.027  35.367  13.016
39446W        W 7840  14.097  39.848   1.561
39447W        W 7841   2.793  25.447  10.831
39448W        W 7842   6.121  32.380   4.118
39449W        W 7843   8.762  27.507   1.875
39450W        W 7844  40.839  42.238  11.503
39451W        W 7845  41.885   3.687   0.530
39452W        W 7846  39.542  42.395   1.428
39453W        W 7847  25.953  11.348  14.007
39454W        W 7848  44.462  40.855   2.228
39455W        W 7849  21.525  25.614  11.430
39456W        W 7850   9.818   3.099  14.578
39457W        W 7851  37.180   5.924   0.327
39458W        W 7852   2.278  33.139  10.693
39459W        W 7853  38.340  41.316  13.391
39460W        W 7854  34.370   6.621   1.995
39461W        W 7855  34.942  16.887   4.808
39462W        W 7856   6.670  10.723   3.255
39463W        W 7857  38.232  19.291  10.609
39464W        W 7858   8.965  25.161   1.395
39465W        W 7859  31.622  15.498   0.413
39466W        W 7860  35.959  20.736   1.332
39467W        W 7861  42.713   8.115   4.029
39468W        W 7862  21.611   4.035   2.858
39469W        W 7863  34.411  10.758  12.560
39470W        W 7864  38.303  16.362  11.114
39471W        W 7865  41.359  27.469   0.674
39472W        W 7866  40.846  35.542  10.631
39473W        W 7867   4.804  36.526   4.831
39474W        W 7868  26.436  24.469  11.553
39475W        W 7869  41.889  26.777   4.955
39476W        W 7870  34.411  34.771  11.779
39477W        W 7871   8.983  36.587   0.430
39478W        W 7872   7.504  11.725   3.559
39479W        W 7873  29.847  19.241  10.677
39480W        W 7874  27.982  23.926  12.031
39481W        W 7875   2.424  43.528   2.803
39482W        W 7876  32.146  10.504  12.981
39483W        W 7877  20.286  29.995  13.051
39484W        W 7878  23.203   1.799  11.464
39485W        W 7879  13.856  16.204   0.882
39486W        W 7880  24.999  29.037  10.893
39487W        W 7881  19.590  33.143  13.417
39488W        W 7882   1.272  41.447   3.833
39489W        W 7883  31.387  12.227   3.527
39490W        W 7884   8.161  12.723   0.454
39491W        W 7885  19.129  15.809   3.963
39492W        W 7886  25.591   8.262   1.538
39493W        W 7887  29.964  41.200   2.268
39494W        W 7888  17.123   3.265  14.515
39495W        W 7889  19.273   3.420   2.074
39496W        W 7890  27.657  31.163   1.393
39497W        W 7891  10.215   8.819  11.654
39498W        W 7892  23.512  41.811  13.925
39499W        W 7893  36.710  32.471   2.708
39500W        W 7894  19.954  35.652   2.271
39501W        W 7895  22.053  43.530  13.156
39502W        W 7896  26.250  34.096  11.914
39503W        W 7897  24.023  29.306  11.175
39504W        W 7898  30.116  23.764   1.365
39505W        W 7899   0.784  12.632   3.397
39506W        W 7900   1.248  10.899   1.511
39507W        W 7901  38.049  35.065  12.441
39508W        W 7902  39.511   5.882   0.925
39509W        W 7903  24.771  33.602   4.125
39510W        W 7904  21.792  17.398  11.074
39511W        W 7905  22.651   0.022   0.333
39512W        W 7906  37.073  12.520   0.898
39513W        W 7907  22.002   2.473  10.758
39514W        W 7908  41.526  17.864   4.437
39515W        W 7909  25.907  23.510   3.412
39516W        W 7910   9.191   6.961   3.462
39517W        W 7911  33.011  38.541  13.418
39518W        W 7912   2.895   3.246   4.108
39519W        W 7913  15.675  17.640   0.388
39520W        W 7914  38.317  32.353  14.498
39521W        W 7915  38.327  29.443  14.908
39522W        W 7916  10.141  43.118  12.980
39523W        W 7917  10.421  44.891  14.725
39524W        W 7918  12.197  32.611   0.285
39525W        W 7919  42.290  36.236   2.415
39526W        W 7920  31.884  15.127   1.778
39527W        W 7921  33.942  17.656  12.546
39528W        W 7922  19.269   4.482  14.760
39529W        W 7923  34.049  10.775  11.556
39530W        W 7924   4.425   7.517  12.520
39531W        W 7925  26.012   5.899   2.367
39532W        W 7926   3.595  44.597  12.524
39533W        W 7927  32.104  23.499   1.416
39534W        W 7928  39.610   2.746   2.305
39535W        W 7929  38.754  19.651   3.318
39536W        W 7930  39.062  28.933  13.881
39537W        W 7931   6.097  37.868   1.329
39538W        W 7932  23.961  13.653  12.568
39539W        W 7933   3.094  22.006   4.560
39540W        W 7934  33.901   5.055   0.456
39541W        W 7935  43.204  37.458   0.761
39542W        W 7936   0.534  13.720   1.240
39543W        W 7937  10.832  16.980  14.962
39544W        W 7938  12.113  14.484   2.604
39545W        W 7939   0.087  10.228   1.311
39546W        W 7940  31.019   0.013   0.897
39547W        W 7941  18.047  29.904   4.039
39548W        W 7942  42.725  24.177   0.929
39549W        W 7943  39.080  42.401  13.402
39550W        W 7944   9.374  44.268  14.390
39551W        W 7945  15.137  17.311  14.409
39552W        W 7946  25.212  31.812   2.631
39553W        W 7947  23.937  40.487  12.938
39554W        W 7948  32.261   0.288  11.178
39555W        W 7949  21.420  37.532  13.006
39556W        W 7950  13.800  42.440  11.463
39557W        W 7951  35.452  38.885   1.218
39558W        W 7952  25.159  24.610   4.244
39559W        W 7953   8.864  24.059   4.916
39560W        W 7954  38.388  21.208  12.867
39561W        W 7955   4.963  27.317   1.284
39562W        W 7956   3.904   4.530  12.485
39563W        W 7957  39.271  33.723  13.364
39564W        W 7958  38.448  15.694  10.665
39565W        W 7959  44.540  43.062   0.884
39566W        W 7960  37.148  17.135  14.560
39567W        W 7961  20.115  31.112   2.383
39568W        W 7962  23.749  30.356   2.958
39569W        W 7963   9.853  13.851   4.602
39570W        W 7964  43.303  31.786   0.979
39571W        W 7965   5.420  11.158   2.828
39572W        W 7966  44.943  33.253  12.106
39573W        W 7967   2.584  16.009   0.543
39574W        W 7968  17.587  37.519  12.153
39575W        W 7969  32.218   1.578   0.908
39576W        W 7970  23.753  37.933  13.105
39577W        W 7971   9.655  24.141   0.433
39578W        W 7972  20.657  27.940   3.224
39579W        W 7973  29.115  12.285   3.647
39580W        W 7974  14.715   1.458   4.465
39581W        W 7975  15.721  14.756   3.591
39582W        W 7976  13.722  39.922  14.598
39583W        W 7977  11.837   4.747  12.088
39584W        W 7978  42.839  38.831  13.989
39585W        W 7979  43.404   3.362  13.543
39586W        W 7980  44.534  44.231  13.356
39587W        W 7981  10.316  36.368   0.796
39588W        W 7982  21.717   4.784  11.183
39589W        W 7983   2.316  21.783  14.819
39590W        W 7984  19.121   8.231  14.231
39591W        W 7985  33.937  37.149   3.167
39592W        W 7986  23.699  10.981  14.985
39593W        W 7987  43.153   2.327   3.420
39594W        W 7988  20.782  24.630   4.310
39595W        W 7989  15.386  12.937  14.268
39596W        W 7990  41.678  34.970  13.804
39597W        W 7991  38.323   1.580  11.153
39598W        W 7992  40.000  40.502  12.640
39599W        W 7993  42.974  19.739   4.661
39600W        W 7994   6.246  20.209  13.513
39601W        W 7995  14.310  23.059   3.723
39602W        W 7996   0.887  32.617  14.461
39603W        W 7997  23.594  36.019   3.385
39604W        W 7998  31.066  44.621   3.623
39605W        W 7999  32.687  32.460  12.540
39606W        W 8000   6.007   2.561   4.942
39607W        W 8001  17.736  26.795  14.137
39608W        W 8002  22.200  11.082  12.078
39609W        W 8003  34.578  11.818  10.949
39610W        W 8004  17.653  44.961   4.588
39611W        W 8005  11.683  18.928   1.865
39612W        W 8006   2.051  41.844   5.035
39613W        W 8007  13.351  31.083  13.190
39614W        W 8008  15.884  38.046   1.264
39615W        W 8009  44.300  31.016  14.801
39616W        W 8010  40.279  36.174  12.222
39617W        W 8011  30.884  18.597  10.703
39618W        W 8012  19.230  43.711  13.838
39619W        W 8013  11.269  19.559  14.813
39620W        W 8014  30.176  11.183  12.022
39621W        W 8015  20.728  41.076  12.882
39622W        W 8016   0.367  34.924   4.058
39623W        W 8017   8.677   8.599  11.532
39624W        W 8018  20.519  35.680   2.208
39625W        W 8019  11.004   5.454  12.128
39626W        W 8020  12.903  36.329   3.797
39627W        W 8021  31.314  22.984  13.945
39628W        W 8022   2.955  41.192  10.757
39629W        W 8023  42.843   1.320  13.056
39630W        W 8024  16.141  28.745   1.246
39631W        W 8025  33.494  31.044   3.801
39632W        W 8026  10.637  19.248  11.133
39633W        W 8027  44.968  30.250   2.293
39634W        W 8028   2.407  27.496  11.030
39635W        W 8029  14.654  37.117   2.167
39636W        W 8030  24.499  10.567   0.853
39637W        W 8031  39.404   0.746   4.302
39638W        W 8032   7.746  14.840  10.982
39639W        W 8033  29.054  42.764   3.381
39640W        W 8034  27.055  30.587  13.272
39641W        W 8035   4.849  23.061   0.609
39642W        W 8036  31.642  23.249   1.322
39643W        W 8037  39.791  19.564  11.512
39644W        W 8038   6.734  42.927  13.876
39645W        W 8039  26.130   7.138   2.827
39646W        W 8040  44.413  22.155   0.006
39647W        W 8041  37.554  12.738   1.051
39648W        W 8042   6.618  31.839  12.861
39649W        W 8043  33.527  17.222   2.728
39650W        W 8044  27.162  39.232   4.135
39651W        W 8045   6.841  28.986   2.253
39652W        W 8046   7.305  16.052  12.927
39653W        W 8047  17.701  22.442  11.743
39654W        W 8048  20.036   1.058   2.817
39655W        W 8049  31.417  43.731   2.424
39656W        W 8050  27.103  17.343  11.505
39657W        W 8051  33.433  35.571  10.614
39658W        W 8052   5.340   8.100  12.054
39659W        W 8053  29.775  11.849  10.726
39660W        W 8054  13.268  27.233  12.867
39661W        W 8055  35.797  15.452  14.797
39662W        W 8056  39.812   3.387   4.697
39663W        W 8057  12.688  14.169  12.764
39664W        W 8058   5.331  24.478  10.891
39665W        W 8059  10.310  16.431  12.917
39666W        W 8060  40.873  34.657   3.629
39667W        W 8061  22.996  15.832   4.739
39668W        W 8062  41.915  30.315   1.973
39669W        W 8063  24.114   7.854  14.875
39670W        W 8064  12.068  29.168  13.414
39671W        W 8065  28.955  33.824   4.118
39672W        W 8066  40.156  26.646  10.965
39673W        W 8067   9.266   4.406  13.720
39674W        W 8068  21.009  24.717  12.852
39675W        W 8069  30.629  19.219  11.229
39676W        W 8070  32.405  35.404  10.573
39677W        W 8071  26.937  15.326  13.037
39678W        W 8072   7.970  23.734  11.083
39679W        W 8073   0.259  12.615   4.272
39680W        W 8074  16.807  30.072   1.387
39681W        W 8075  36.573  26.129  12.864
39682W        W 8076   3.601  16.296   0.718
39683W        W 8077  44.949  30.513   0.410
39684W        W 8078  14.268  15.335   4.936
39685W        W 8079  37.596  44.196  11.948
39686W        W 8080  31.991  33.176   0.395
39687W        W 8081  37.981   3.173   1.875
39688W        W 8082  31.667  26.541  14.927
39689W        W 8083  10.857   4.497  12.136
39690W        W 8084  17.149   7.933   3.910
39691W        W 8085   0.441  25.743   4.112
39692W        W 8086  24.345  42.911   5.056
39693W        W 8087  32.378  31.665  13.925
39694W        W 8088  15.515   5.430  11.639
39695W        W 8089   1.875   0.957  14.127
39696W        W 8090  10.217  27.594  13.937
39697W        W 8091  39.965  42.492  11.523
39698W        W 8092  11.596  23.533  12.032
39699W        W 8093  40.818  13.058   3.168
39700W        W 8094  43.525  44.315  11.561
39701W        W 8095  13.417  17.346   4.091
39702W        W 8096   9.930  15.265  13.485
39703W        W 8097   5.169  16.135   1.405
39704W        W 8098  15.975  25.169  11.250
39705W        W 8099  10.819  13.317  14.431
39706W        W 8100  34.637  44.608   4.035
39707W        W 8101  23.880  36.694  13.383
39708W        W 8102  39.944  16.799   4.619
39709W        W 8103   2.929  13.372   0.763
39710W        W 8104  16.350  41.435   2.370
39711W        W 8105  19.005   7.923  13.454
39712W        W 8106  29.058  14.063   0.420
39713W        W 8107  10.090  15.400  11.943
39714W        W 8108  44.987   0.810   1.255
39715W        W 8109  24.928  44.038   1.826
39716W        W 8110  38.224   9.833  14.431
39717W        W 8111  34.535  22.181   3.797
39718W        W 8112  37.540  21.146   1.795
39719W        W 8113  19.676  39.609  14.398
39720W        W 8114  20.091  18.524  13.964
39721W        W 8115  31.985  39.782   4.567
39722W        W 8116  34.877  40.434  13.544
39723W        W 8117  30.536  18.730   3.052
39724W        W 8118  32.512  20.019   4.749
39725W        W 8119  44.375  10.768  14.481
39726W        W 8120  26.104  28.136   0.852
39727W        W 8121  14.443  11.027   4.060
39728W        W 8122  22.943  24.137  13.918
39729W        W 8123  31.517  41.356   2.481
39730W        W 8124  24.180  25.758  12.702
39731W        W 8125  41.469   9.063  11.427
39732W        W 8126  30.625  21.292  13.447
39733W        W 8127   4.427  24.036   4.543
39734W        W 8128  14.859  26.003   0.314
39735W        W 8129  22.775  41.455   3.268
39736W        W 8130  38.867  41.304  10.701
39737W        W 8131  31.077  33.370  13.309
39738W        W 8132  28.865   6.849  10.591
39739W        W 8133  38.549   8.225   1.330
39740W        W 8134  28.558  22.185  11.889
39741W        W 8135  29.528  24.763  11.172
39742W        W 8136  44.064  19.984  13.777
39743W        W 8137   3.190  18.850   1.872
39744W        W 8138  17.306  42.077  12.043
39745W        W 8139   1.454  26.512  14.512
39746W        W 8140  30.147  29.597  11.893
39747W        W 8141   2.872  10.914  13.330
39748W        W 8142   5.829   5.772   3.198
39749W        W 8143  35.568  25.598   1.379
39750W        W 8144   1.981  20.693  14.187
39751W        W 8145  22.007   5.249   2.789
39752W        W 8146  19.958  20.703  12.462
39753W        W 8147  17.804   5.222  14.911
39754W        W 8148  27.020  21.502  12.067
39755W        W 8149  44.919   6.366   2.329
39756W        W 8150  14.274   9.327  12.823
39757W        W 8151  43.287  20.496  13.004
39758W        W 8152  40.144  39.225  11.053
39759W        W 8153   4.020  36.084  14.936
39760W        W 8154  34.903  12.294  12.774
39761W        W 8155  38.743  22.816  12.392
39762W        W 8156   0.515   1.491  10.517
39763W        W 8157  16.781  21.758  13.640
39764W        W 8158  35.649  44.215  11.071
39765W        W 8159  17.158  22.370   0.013
39766W        W 8160  14.845  10.289   1.274
39767W        W 8161  43.024  10.109  11.586
39768W        W 8162  38.152  22.134  10.764
39769W        W 8163  31.966  43.482  13.216
39770W        W 8164   9.365  34.083  11.722
39771W        W 8165  35.402  26.113   1.903
39772W        W 8166   5.075  33.552   1.359
39773W        W 8167  11.370  16.269   3.355
39774W        W 8168   7.564  41.011  13.910
39775W        W 8169  18.248  31.315  12.041
39776W        W 8170  24.149  31.259  12.925
39777W        W 8171  32.531  22.326  11.485
39778W        W 8172  24.494  35.608   4.034
39779W        W 8173   1.871  17.388   4.580
39780W        W 8174  13.529   1.904   2.232
39781W        W 8175   4.552  17.030   1.697
39782W        W 8176   1.224  15.831   3.576
39783W        W 8177   3.308   8.775  14.034
39784W        W 8178  13.016  21.739   1.343
39785W        W 8179  33.903  33.354  14.019
39786W        W 8180  19.819   7.765  14.817
39787W        W 8181  32.582   7.590  10.720
39788W        W 8182  11.641  29.425  10.539
39789W        W 8183  16.673   6.981   3.321
39790W        W 8184   2.809   9.633   0.751
39791W        W 8185  42.485  41.207  12.348
39792W        W 8186  28.084   6.814  14.827
39793W        W 8187  10.471  32.422   0.727
39794W        W 8188  21.707  30.023   0.946
39795W        W 8189  11.486  44.002  11.622
39796W        W 8190  43.959  20.543   2.534
39797W        W 8191  44.575  19.232   1.780
39798W        W 8192  16.467   3.232   2.755
39799W        W 8193   6.586  30.995  14.858
39800W        W 8194  26.826   8.943  11.563
39801W        W 8195  39.984  31.968   2.695
39802W        W 8196  29.062  13.441   2.341
39803W        W 8197   6.842   7.342   4.591
39804W        W 8198   2.642  23.997   4.654
39805W        W 8199  13.873  31.815  11.957
39806W        W 8200   9.862  21.959   1.278
39807W        W 8201  14.882  16.117  12.815
39808W        W 8202  24.923  26.748   0.813
39809W        W 8203  18.799  41.213   4.269
39810W        W 8204   2.821   3.339   2.419
39811W        W 8205  10.564  15.374   3.399
39812W        W 8206  43.043  33.445  11.357
39813W        W 8207  30.465  19.233   1.927
39814W        W 8208  28.682  18.998   0.633
39815W        W 8209  19.668  27.303   1.157
39816W        W 8210  22.709   0.532  10.794
39817W        W 8211  27.926   2.291   0.896
39818W        W 8212   9.635  21.096  12.187
39819W        W 8213  30.676  26.458   2.721
39820W        W 8214  12.728  25.120   1.315
39821W        W 8215  11.399  20.085  12.655
39822W        W 8216  17.668   1.882  14.414
39823W        W 8217  28.288  29.556  13.865
39824W        W 8218   5.624  17.509  10.923
39825W        W 8219  13.351  42.513   4.617
39826W        W 8220  18.711   9.534  11.658
39827W        W 8221   8.543  25.006   3.445
39828W        W 8222  28.579   9.893  11.886
39829W        W 8223  42.819  37.760  10.758
39830W        W 8224  35.089  42.504  14.759
39831W        W 8225  32.523  10.742   3.438
39832W        W 8226   6.656  28.045   1.999
39833W        W 8227  19.172  12.776   1.407
39834W        W 8228  31.978  44.410  12.026
39835W        W 8229  31.688  30.506   4.219
39836W        W 8230   7.316  33.483   2.806
39837W        W 8231   5.307  43.218   3.746
39838W        W 8232  36.432  23.572  12.448
39839W        W 8233   8.028   3.816   0.091
39840W        W 8234  13.707   2.144   1.824
39841W        W 8235  35.134  21.346  11.275
39842W        W 8236  36.617  14.832  11.163
39843W        W 8237  18.552  35.917   1.103
39844W        W 8238  10.840  28.404   0.883
39845W        W 8239  18.749  12.114  14.589
39846W        W 8240  19.516  35.614  11.384
39847W        W 8241  41.472  30.051  14.812
39848W        W 8242  30.502  27.734   4.581
39849W        W 8243  28.203  35.512   0.844
39850W        W 8244   7.242  40.647   0.933
39851W        W 8245  10.652  44.374   2.897
39852W        W 8246  20.532  14.259   1.814
39853W        W 8247  42.130  22.126  14.929
39854W        W 8248   6.524  16.168  11.701
39855W        W 8249  33.018  33.302  14.065
39856W        W 8250  40.663  18.135  11.458
39857W        W 8251  39.668  37.346   4.139
39858W        W 8252   7.406  14.736   2.083
39859W        W 8253  37.915  21.259  14.995
39860W        W 8254  16.745  22.739  13.516
39861W        W 8255  17.143  17.630  14.753
39862W        W 8256  13.060  38.908   1.584
39863W        W 8257  23.989  31.151   2.716
39864W        W 8258   9.310   6.819  12.115
39865W        W 8259  41.287  18.052  11.282
39866W        W 8260  16.292  12.743  11.217
39867W        W 8261  28.061  28.123   2.697
39868W        W 8262   1.508   1.722  12.990
39869W        W 8263  14.369  19.653   3.630
39870W        W 8264  20.634  22.957   1.872
39871W        W 8265  30.522  37.025   4.731
39872W        W 8266   6.294   9.907   3.618
39873W        W 8267  21.161  41.817  13.001
39874W        W 8268  31.620  43.325   3.643
39875W        W 8269  19.835  36.149  13.687
39876W        W 8270  13.703  10.856   4.162
39877W        W 8271   8.700   8.356   0.797
39878W        W 8272  38.258  44.789  13.854
39879W        W 8273  35.730  17.553   4.171
39880W        W 8274  36.580  18.612   0.775
39881W        W 8275  29.708  29.933   1.868
39882W        W 8276  40.040  18.830   3.636
39883W        W 8277  39.291  41.534   3.115
39884W        W 8278  42.903  39.541   1.788
39885W        W 8279  26.946  35.552   4.512
39886W        W 8280  24.080   0.711   2.919
39887W        W 8281  34.950  33.519   3.274
39888W        W 8282  14.830  11.106   2.099
39889W        W 8283  32.092  16.041  11.911
39890W        W 8284  12.638  19.355  12.519
39891W        W 8285   0.175  17.296   3.755
39892W        W 8286  16.277  13.356   4.176
39893W        W 8287  25.252  36.036   4.185
39894W        W 8288  30.626  10.776   1.844
39895W        W 8289   2.483  40.962  12.357
39896W        W 8290  16.611  32.582   4.477
39897W        W 8291  43.216  43.411   2.287
39898W        W 8292  36.356  24.405  12.998
39899W        W 8293  26.149  41.201   4.115
39900W        W 8294   8.801  40.244   2.295
39901W        W 8295  27.716  31.020  12.718
39902W        W 8296  43.625   7.932  11.104
39903W        W 8297   2.244  14.360  13.564
39904W        W 8298  30.883  23.455  14.903
39905W        W 8299  31.654  11.636  11.018
39906W        W 8300   6.442  39.829  11.420
39907W        W 8301  42.366  22.537  14.681
39908W        W 8302  35.856  36.304   2.388
39909W        W 8303  22.363  43.623  13.668
39910W        W 8304  19.840  12.206  11.473
39911W        W 8305   7.241  26.666  12.441
39912W        W 8306  21.220   7.411  14.366
39913W        W 8307  31.127   3.758   2.340
39914W        W 8308  29.034  35.386   2.170
39915W        W 8309  13.665   0.363  11.274
39916W        W 8310  36.379  15.789   0.576
39917W        W 8311  26.034  33.086   2.633
39918W        W 8312  30.088   7.759  14.390
39919W        W 8313  26.406   7.234   3.826
39920W        W 8314  32.313   2.917  11.943
39921W        W 8315  14.292  42.490   2.711
39922W        W 8316  32.026  36.291  10.185
39923W        W 8317  33.662   8.576   0.278
39924W        W 8318  22.532  37.484  13.569
39925W        W 8319  11.904  43.472  14.749
39926W        W 8320  31.798   2.235  12.536
39927W        W 8321  33.906   0.937   1.839
39928W        W 8322  15.374  32.267   2.189
39929W        W 8323  28.226  32.773   4.416
39930W        W 8324  14.706  20.510   1.359
39931W        W 8325  36.380  33.661   4.062
39932W        W 8326  14.117  15.322  14.377
39933W        W 8327  18.221  27.518  12.425
39934W        W 8328  10.043   8.816   1.958
39935W        W 8329  37.247  31.191  14.489
39936W        W 8330  34.352  21.633  11.621
39937W        W 8331  38.830   5.652   3.135
39938W        W 8332  38.524   4.717  11.097
39939W        W 8333  16.076   0.767  14.760
39940W        W 8334  44.831  35.386  11.569
39941W        W 8335  20.744  17.291  13.331
39942W        W 8336  18.271  12.610  13.070
39943W        W 8337   9.852  33.602   0.090
39944W        W 8338  35.373  38.152  12.952
39945W        W 8339  25.221  34.790   2.162
39946W        W 8340  23.198  44.556  12.487
39947W        W 8341  28.362   5.595  10.669
39948W        W 8342   7.432   2.753  12.638
39949W        W 8343  14.423  26.158  13.365
39950W        W 8344  16.398  14.349  10.742
39951W        W 8345  20.825  39.104  12.262
39952W        W 8346  42.063   8.649   1.008
39953W        W 8347  17.780   9.809   2.939
39954W        W 8348  25.208  11.311   0.155
39955W        W 8349   5.317  31.917  10.527
39956W        W 8350  44.885  30.403  11.634
39957W        W 8351  13.247  35.021  12.334
39958W        W 8352  40.358   5.225   1.342
39959W        W 8353   9.462  39.470  11.644
39960W        W 8354  19.609  34.959  12.155
39961W        W 8355  41.017   6.724   1.746
39962W        W 8356   2.946  12.194   1.928
39963W        W 8357   2.037  15.471  12.966
39964W        W 8358  10.915   3.295  12.569
39965W        W 8359  38.272  11.128   4.087
39966W        W 8360  14.559   1.625  13.156
39967W        W 8361  40.689  43.256  12.465
39968W        W 8362   8.479   7.631  14.365
39969W        W 8363  42.756  26.602  13.311
39970W        W 8364  35.339   8.917  10.671
39971W        W 8365  37.352  42.749   1.359
39972W        W 8366  14.162  26.032   2.344
39973W        W 8367   3.476   0.839   4.658
39974W        W 8368  10.797  30.908  14.898
39975W        W 8369  10.582  21.223  14.334
39976W        W 8370  23.542  29.149   3.785
39977W        W 8371  39.799  25.153   1.653
39978W        W 8372  17.193  38.062   2.917
39979W        W 8373  11.665  19.535  12.606
39980W        W 8374   4.354  43.468   3.772
39981W        W 8375   6.658  35.026  12.047
39982W        W 8376  21.015  10.756   2.522
39983W        W 8377  22.984  34.056   1.945
39984W        W 8378  22.240   5.439  14.780
39985W        W 8379  33.069  17.797   4.515
39986W        W 8380  20.210  18.504  13.452
39987W        W 8381  15.803  28.161   1.931
39988W        W 8382  35.426  13.800  11.204
39989W        W 8383  38.514  40.880   1.610
39990W        W 8384  13.130  24.531   0.006
39991W        W 8385   4.426   3.465   0.340
39992W        W 8386   9.694  33.847  13.784
39993W        W 8387   2.750  23.500  10.454
39994W        W 8388  12.463  23.237   1.935
39995W        W 8389  18.266  42.202   3.608
39996W        W 8390  15.985  20.571   2.454
39997W        W 8391   3.888   2.704   3.197
39998W        W 8392  10.199  10.399   0.894
39999W        W 8393  42.524  43.406  11.981
40000W        W 8394  14.929  37.926   1.298
40001W        W 8395  30.148  38.174   3.947
40002W        W 8396  20.015  33.913  13.835
40003W        W 8397  19.204  38.815  13.821
40004W        W 8398  19.121  27.567   3.838
40005W        W 8399  10.866   0.437   0.923
40006W        W 8400   3.289  36.309   2.738
40007W        W 8401   1.587  25.055  12.983
40008W        W 8402  39.479  25.949  14.770
40009W        W 8403   0.804  11.623   0.963
40010W        W 8404  42.756  17.042  12.570
40011W        W 8405  21.002  13.765  12.910
40012W        W 8406   6.374  13.912   4.909
40013W        W 8407  15.610  34.645   1.332
40014W        W 8408  30.660  39.703  11.635
40015W        W 8409  14.239  32.853  11.202
40016W        W 8410  32.014  43.254  10.448
40017W        W 8411  29.659  30.828   1.094
40018W        W 8412  41.764   6.713  14.006
40019W        W 8413  21.481  40.505   0.493
40020W        W 8414  44.995   1.820   0.869
40021W        W 8415  16.205   0.952   1.168
40022W        W 8416   2.190   6.668  11.922
40023W        W 8417  31.538  16.534  14.527
40024W        W 8418   3.268  10.377   0.687
40025W        W 8419   2.781  32.936  10.786
40026W        W 8420  15.189  36.101   1.884
40027W        W 8421  26.273  42.355   2.746
40028W        W 8422   4.261  26.133  10.227
40029W        W 8423   8.962  23.926  12.839
40030W        W 8424  40.336  33.906   1.984
40031W        W 8425  42.357  13.592   0.807
40032W        W 8426  30.188  32.270  11.407
40033W        W 8427   8.317   2.783  12.702
40034W        W 8428  42.387   6.293  14.257
40035W        W 8429  28.549  38.724  14.988
40036W        W 8430  12.706  20.606   4.055
40037W        W 8431  31.440  16.516   3.630
40038W        W 8432  36.043  13.547   3.716
40039W        W 8433   4.353  27.259  10.865
40040W        W 8434  20.213  35.935  11.148
40041W        W 8435   5.463  10.605  14.000
40042W        W 8436  42.820  30.123   0.549
40043W        W 8437  20.583   6.333  14.938
40044W        W 8438  39.312  34.399  14.413
40045W        W 8439   9.277  13.624   0.728
40046W        W 8440  39.822  14.819  11.716
40047W        W 8441  20.666  29.082   1.168
40048W        W 8442  14.094  13.087   2.618
40049W        W 8443  14.702  41.223   3.957
40050W        W 8444  18.608   0.487  14.659
40051W        W 8445  26.625   4.734   4.753
40052W        W 8446   8.947  39.555  10.590
40053W        W 8447  41.056   0.480  13.744
40054W        W 8448  43.031   9.834  10.070
40055W        W 8449  37.593  40.348  14.886
40056W        W 8450  39.913   6.342   4.834
40057W        W 8451  16.352  23.755  12.478
40058W        W 8452   5.488  37.808   1.551
40059W        W 8453  10.306  10.120   3.127
40060W        W 8454  22.503  18.141  10.537
40061W        W 8455  30.626   5.925  11.569
40062W        W 8456  16.655  30.688   0.042
40063W        W 8457  28.876  17.652   1.849
40064W        W 8458  38.344  20.807   0.277
40065W        W 8459  24.960  15.671   3.178
40066W        W 8460   8.426  44.880   4.047
40067W        W 8461  22.216  11.956   1.390
40068W        W 8462   0.207  24.255  12.550
40069W        W 8463  37.196  28.947  11.569
40070W        W 8464  10.650  35.085  13.845
40071W        W 8465  35.593  18.785  12.985
40072W        W 8466  12.608  41.585  13.840
40073W        W 8467   9.164  20.494  13.440
40074W        W 8468  40.255  44.803   3.979
40075W        W 8469  39.669  39.509  12.168
40076W        W 8470  28.278  44.586  11.108
40077W        W 8471  21.155  44.046   4.294
40078W        W 8472  44.080  41.425   3.358
40079W        W 8473   3.717  39.008  12.489
40080W        W 8474  12.328  37.033   2.327
40081W        W 8475   0.654  33.971  11.192
40082W        W 8476   9.324  23.746  12.509
40083W        W 8477   8.919  35.805  13.822
40084W        W 8478  39.348   8.793   5.093
40085W        W 8479  11.647  42.447   0.998
40086W        W 8480   5.454  17.583   0.722
40087W        W 8481  41.368  26.502  14.999
40088W        W 8482   2.426  14.623   1.852
40089W        W 8483  40.961  41.376   1.919
40090W        W 8484  28.539   5.370  11.103
40091W        W 8485  43.933  23.659  14.323
40092W        W 8486  13.680  43.412  11.314
40093W        W 8487  32.491  42.931   1.680
40094W        W 8488  36.501  21.702  12.895
40095W        W 8489   9.069   1.974   1.367
40096W        W 8490  11.254   2.820  13.944
40097W        W 8491  41.304   1.793  12.873
40098W        W 8492  31.488  23.891  14.414
40099W        W 8493  38.330  37.928  11.989
40100W        W 8494  38.007  29.036  12.955
40101W        W 8495  21.625  39.655  11.477
40102W        W 8496  39.587  26.947  10.675
40103W        W 8497   7.267   4.705   3.635
40104W        W 8498   7.503  22.110  12.868
40105W        W 8499  35.004  34.518  13.091
40106W        W 8500   0.350  26.038   4.527
40107W        W 8501  44.863   8.772   4.070
40108W        W 8502  14.792  19.680  14.435
40109W        W 8503  21.159  15.720  12.898
40110W        W 8504  42.463   7.729  14.356
40111W        W 8505  31.561  21.452  10.526
40112W        W 8506  24.965  44.928   2.138
40113W        W 8507  28.092   7.092  11.212
40114W        W 8508  15.660  19.185   4.503
40115W        W 8509  23.239  39.447  11.147
40116W        W 8510  34.451  41.227   1.470
40117W        W 8511  24.009  42.293   2.254
40118W        W 8512  19.734  28.629  12.509
40119W        W 8513  18.714  25.307  11.179
40120W        W 8514  39.873   5.166   1.134
40121W        W 8515  33.174  33.352  10.155
40122W        W 8516   5.283  41.077  14.455
40123W        W 8517  20.805  41.380   2.011
40124W        W 8518  27.030  41.685  11.171
40125W        W 8519  43.808  41.454   4.222
40126W        W 8520  44.830  38.827  14.950
40127W        W 8521   6.264  24.646   2.051
40128W        W 8522  26.116  12.258  10.136
40129W        W 8523  44.654   6.708   4.977
40130W        W 8524  25.155  13.185  14.381
40131W        W 8525  36.350   6.576   0.271
40132W        W 8526  37.941  41.758   4.144
40133W        W 8527   2.494  24.500   1.224
40134W        W 8528  15.575  32.649   1.420
40135W        W 8529   9.884  38.194  12.444
40136W        W 8530   0.294  10.128  14.256
40137W        W 8531  15.362  31.430  12.413
40138W        W 8532  19.122  26.681   1.505
40139W        W 8533   2.833  14.144   2.164
40140W        W 8534  42.511   0.413  14.047
40141W        W 8535  39.429  43.430   3.959
40142W        W 8536  28.517  31.685  14.029
40143W        W 8537  10.083   4.729   0.250
40144W        W 8538  26.663  28.237  10.526
40145W        W 8539  10.741  26.185   2.173
40146W        W 8540  28.025   8.772  11.984
40147W        W 8541   3.654   3.371  12.994
40148W        W 8542  29.414  17.423   4.705
40149W        W 8543   0.361  10.805  12.553
40150W        W 8544  18.804   5.270   0.787
40151W        W 8545   6.800  24.602  12.389
40152W        W 8546  36.152  44.367  11.076
40153W        W 8547  26.595  33.956   0.797
40154W        W 8548  34.277  32.509  13.447
40155W        W 8549  29.461  13.262  11.904
40156W        W 8550  39.734  20.282   1.233
40157W        W 8551  17.711  24.040  10.710
40158W        W 8552   5.170  35.728   2.764
40159W        W 8553  17.756  35.945  10.338
40160W        W 8554  14.578  16.166   1.238
40161W        W 8555  33.961  41.308  14.201
40162W        W 8556  11.964  40.386  11.582
40163W        W 8557   9.422   4.511  11.033
40164W        W 8558  12.241   9.878   1.818
40165W        W 8559  30.811  15.138   3.191
40166W        W 8560  11.291  26.593  14.762
40167W        W 8561  42.527  33.612   1.762
40168W        W 8562  19.279  15.555   2.704
40169W        W 8563  41.803  31.194  13.315
40170W        W 8564  42.376  14.885   1.787
40171W        W 8565  11.207  12.069   2.348
40172W        W 8566  24.660  39.790   2.900
40173W        W 8567   8.697  42.401  12.977
40174W        W 8568  25.191  35.263   2.296
40175W        W 8569  28.843  23.200  11.220
40176W        W 8570   1.428  32.569  10.665
40177W        W 8571  37.426  44.508   2.123
40178W        W 8572  40.512  20.776  14.028
40179W        W 8573  19.002  10.264   4.850
40180W        W 8574  22.452  14.740  11.509
40181W        W 8575  32.280  37.914  13.538
40182W        W 8576  30.143  20.482   1.310
40183W        W 8577  34.147  35.644   1.683
40184W        W 8578  36.356  32.025  14.611
40185W        W 8579  25.960  24.759  12.570
40186W        W 8580  13.323  43.050  12.540
40187W        W 8581  29.716  24.455  13.983
40188W        W 8582  39.854  38.870  14.216
40189W        W 8583  35.468  30.406  11.628
40190W        W 8584  10.668   7.232  10.798
40191W        W 8585  38.374  31.398  14.423
40192W        W 8586  27.835  19.662  11.676
40193W        W 8587  12.667  16.933   3.652
40194W        W 8588   9.806  37.689  12.295
40195W        W 8589  44.425  25.645  14.051
40196W        W 8590  29.959   2.966  12.802
40197W        W 8591  41.055   8.917  14.406
40198W        W 8592  31.679   6.786  11.214
40199W        W 8593  30.608   9.375   4.533
40200W        W 8594  15.263  37.401   0.862
40201W        W 8595  43.245  28.984  10.746
40202W        W 8596  35.492  36.583  11.261
40203W        W 8597   9.131   8.342  11.706
40204W        W 8598  32.087  13.054   1.259
40205W        W 8599  31.895  44.206   0.984
40206W        W 8600  20.989   9.404   3.694
40207W        W 8601   5.637  18.311  14.949
40208W        W 8602  30.761   9.793   4.264
40209W        W 8603  10.751  12.791  10.361
40210W        W 8604  22.289  35.700   2.758
40211W        W 8605  13.431  44.323   5.023
40212W        W 8606  36.410  38.577  14.397
40213W        W 8607   6.372  39.718  14.117
40214W        W 8608   3.353  16.225   2.644
40215W        W 8609  43.058  35.602   1.952
40216W        W 8610  16.148  42.673   1.138
40217W        W 8611  38.564  42.631   3.795
40218W        W 8612  34.840  16.229   1.983
40219W        W 8613  22.958  33.403   4.919
40220W        W 8614  31.602   2.490  11.637
40221W        W 8615  25.161  37.729   2.372
40222W        W 8616  15.375   5.219  14.900
40223W        W 8617  20.621  34.595   2.862
40224W        W 8618   6.389   0.215   0.827
40225W        W 8619  31.450   9.578   3.208
40226W        W 8620  27.473  40.265  10.727
40227W        W 8621  30.518   1.907   4.347
40228W        W 8622  26.846  37.815  13.852
40229W        W 8623  18.730  44.769   4.576
40230W        W 8624  17.769  20.490  11.482
40231W        W 8625  37.899  39.497  10.668
40232W        W 8626   4.011  42.337  10.976
40233W        W 8627  34.393  41.272  10.804
40234W        W 8628   0.058   5.240  11.564
40235W        W 8629   0.443  26.133   0.398
40236W        W 8630  39.272   5.909   3.200
40237W        W 8631  23.245  30.474   3.070
40238W        W 8632  35.524  35.509   2.803
40239W        W 8633  38.474  13.481   5.123
40240W        W 8634  44.450  42.529   1.311
40241W        W 8635  40.520  17.134   3.766
40242W        W 8636  28.237   5.103   1.629
40243W        W 8637  20.468  13.304  11.995
40244W        W 8638  15.624  19.624   0.399
40245W        W 8639  17.715  10.896  12.565
40246W        W 8640  11.771   5.532   1.270
40247W        W 8641  44.775  44.426   3.041
40248W        W 8642  39.950  26.041   2.372
40249W        W 8643  23.461  22.293  10.842
40250W        W 8644  29.905  14.070  14.262
40251W        W 8645  29.111  17.823   4.838
40252W        W 8646  43.536  41.273  10.678
40253W        W 8647  29.137  19.063   4.395
40254W        W 8648   8.480  32.785   3.265
40255W        W 8649  35.685  23.208   3.174
40256W        W 8650  37.376  25.993  14.232
40257W        W 8651   2.418  14.476   2.366
40258W        W 8652   1.791  19.699  14.439
40259W        W 8653  13.096   4.319   1.855
40260W        W 8654  18.531  11.889   2.961
40261W        W 8655  26.659  35.122   3.548
40262W        W 8656  38.002  19.536   0.308
40263W        W 8657  12.330  39.884  13.376
40264W        W 8658   2.383   5.849  10.544
40265W        W 8659  28.588  20.594   3.639
40266W        W 8660   1.000   2.687  11.064
40267W        W 8661  37.288  10.657  12.058
40268W        W 8662   0.687  34.553   2.283
40269W        W 8663  22.684  41.512   1.850
40270W        W 8664  23.709   1.356   3.298
40271W        W 8665  19.593  32.228   3.192
40272W        W 8666  40.455   0.041  14.479
40273W        W 8667  31.115  28.394   4.240
40274W        W 8668  27.061   9.003  14.032
40275W        W 8669  40.524  16.621  12.808
40276W        W 8670  37.158  16.262  14.434
40277W        W 8671   1.254   7.298  10.710
40278W        W 8672  29.101   4.894   0.221
40279W        W 8673   1.338  31.570  13.029
40280W        W 8674   2.336  19.541  10.222
40281W        W 8675  19.540  38.830   4.552
40282W        W 8676  30.151   0.658   3.097
40283W        W 8677  42.344   3.401   3.837
40284W        W 8678  17.022   3.209   1.894
40285W        W 8679   9.275  43.836  11.094
40286W        W 8680   3.746   2.997  12.252
40287W        W 8681  17.415  16.091  11.457
40288W        W 8682  38.023   5.284   0.390
40289W        W 8683  35.836   2.496  13.957
40290W        W 8684  41.571  44.025   4.198
40291W        W 8685   1.780  10.726   0.341
40292W        W 8686   1.592  18.454  13.788
40293W        W 8687   5.490  43.786   1.942
40294W        W 8688   6.895  39.593  10.673
40295W        W 8689  27.741  17.186  14.029
40296W        W 8690  17.767  29.500   3.685
40297W        W 8691  18.333   8.687   1.136
40298W        W 8692  19.772  40.947  14.016
40299W        W 8693  10.016  37.831  11.168
40300W        W 8694  32.956  12.370   2.978
40301W        W 8695  11.715   5.965  11.486
40302W        W 8696  25.479  17.562   0.663
40303W        W 8697  10.227   2.624   1.292
40304W        W 8698  44.951  21.148   1.893
40305W        W 8699  16.280  41.711  14.599
40306W        W 8700  39.725  40.998   4.623
40307W        W 8701   5.943  15.157  12.155
40308W        W 8702   3.173  38.770  14.028
40309W        W 8703  41.115  44.237  12.975
40310W        W 8704  11.566  34.359   3.764
40311W        W 8705  33.810  31.144   3.056
40312W        W 8706  42.777   2.796  11.232
40313W        W 8707  37.371  23.676  11.068
40314W        W 8708  22.618  12.423  10.270
40315W        W 8709   9.258  35.940  13.015
40316W        W 8710  43.421  28.040   4.275
40317W        W 8711  13.776  17.602  11.838
40318W        W 8712   3.756  11.684   2.836
40319W        W 8713  37.057  35.910   3.186
40320W        W 8714   2.588  22.655   4.204
40321W        W 8715  13.770  28.040  11.031
40322W        W 8716  28.001  38.031   2.245
40323W        W 8717  40.938  19.826   4.888
40324W        W 8718  24.139  39.438  10.697
40325W        W 8719  37.036  10.315  10.777
40326W        W 8720  35.460  19.974   3.816
40327W        W 8721   5.122  40.730  14.108
40328W        W 8722  28.603  11.926  11.194
40329W        W 8723   4.412  32.590  12.487
40330W        W 8724  41.706  27.840   0.854
40331W        W 8725  31.512   2.052   3.206
40332W        W 8726  21.623  26.652   0.063
40333W        W 8727  37.073  30.146  11.039
40334W        W 8728  31.971  36.626   3.094
40335W        W 8729  31.792  37.331  12.996
40336W        W 8730   0.226  28.582   0.843
40337W        W 8731  27.610  29.644   3.279
40338W        W 8732  36.608   7.802   0.747
40339W        W 8733  34.274  12.856   3.519
40340W        W 8734  39.956   5.313  12.054
40341W        W 8735  28.088  18.699   3.775
40342W        W 8736   6.157   6.481   1.320
40343W        W 8737  36.777  42.346  12.944
40344W        W 8738  33.521  21.057   2.150
40345W        W 8739  42.892  27.535  14.970
40346W        W 8740  39.399  27.024   4.361
40347W        W 8741  16.307  36.321   1.767
40348W        W 8742  20.039  17.314   3.559
40349W        W 8743  36.272  37.186   3.469
40350W        W 8744  22.201  42.997   4.229
40351W        W 8745  39.589  25.420  13.065
40352W        W 8746   8.846  37.347  14.784
40353W        W 8747  17.491  33.954   1.740
40354W        W 8748  40.008  37.351  12.307
40355W        W 8749  44.829  41.476   1.710
40356W        W 8750  42.560  11.365  11.331
40357W        W 8751   1.840  14.582  11.111
40358W        W 8752   7.375  44.351   1.720
40359W        W 8753   3.776  24.196  14.779
40360W        W 8754  39.070   2.901  11.339
40361W        W 8755  23.986  31.473  11.424
40362W        W 8756   1.258  44.013   4.614
40363W        W 8757  29.779  29.126   3.294
40364W        W 8758  11.364  41.808   4.157
40365W        W 8759   8.784  35.812  12.815
40366W        W 8760  13.893  10.682   3.299
40367W        W 8761  43.855   0.237   0.223
40368W        W 8762   5.183  35.422   3.195
40369W        W 8763   6.949   0.675  11.281
40370W        W 8764  24.126  31.841   3.983
40371W        W 8765  29.812  14.692   4.055
40372W        W 8766   1.682   3.757  12.703
40373W        W 8767  28.613  19.351   0.214
40374W        W 8768  33.071   1.719  10.319
40375W        W 8769  30.117  26.221  12.048
40376W        W 8770   4.696  34.414  14.372
40377W        W 8771  38.402   7.891   3.232
40378W        W 8772  32.041  28.138  12.877
40379W        W 8773  22.441  24.941   2.774
40380W        W 8774  13.281  38.060  11.854
40381W        W 8775  13.253  37.967  14.348
40382W        W 8776   3.982  26.695   3.000
40383W        W 8777  26.690   6.431   2.035
40384W        W 8778  12.954  37.417  12.253
40385W        W 8779  17.253  23.897   2.894
40386W        W 8780  12.471  22.113  12.899
40387W        W 8781  27.836   0.919   4.589
40388W        W 8782  20.183  16.244   4.912
40389W        W 8783  11.234  38.040   4.507
40390W        W 8784   5.727  11.847  11.492
40391W        W 8785   1.011  29.857  10.498
40392W        W 8786  36.819  30.169   0.440
40393W        W 8787  14.635  10.421  11.922
40394W        W 8788  32.092   3.523   1.793
40395W        W 8789  26.477  44.363  11.680
40396W        W 8790  38.902   2.573  12.885
40397W        W 8791   6.366   3.835   4.511
40398W        W 8792   5.933   4.847  11.379
40399W        W 8793  30.880  31.568   2.270
40400W        W 8794  15.251  13.978   0.392
40401W        W 8795  40.900   4.830   3.218
40402W        W 8796  28.986  27.896   4.544
40403W        W 8797  33.314  13.303  13.954
40404W        W 8798  29.311   7.261   0.007
40405W        W 8799  21.970   4.798  13.475
40406W        W 8800  31.234   5.672  13.927
40407W        W 8801  23.035  28.656   2.273
40408W        W 8802   1.051  27.860  12.426
40409W        W 8803  41.912  20.974   2.585
40410W        W 8804  41.477  35.974   4.615
40411W        W 8805   2.457  28.622   0.853
40412W        W 8806  27.751  40.261  11.562
40413W        W 8807   8.465   1.407  12.927
40414W        W 8808   9.815   0.831  12.575
40415W        W 8809   4.605  37.688  14.937
40416W        W 8810   1.924  17.357  13.396
40417W        W 8811  41.807  11.888   1.847
40418W        W 8812  31.029  35.211  13.016
40419W        W 8813  38.550  43.025  12.930
40420W        W 8814  17.510  40.275   3.750
40421W        W 8815  26.138  25.270  14.331
40422W        W 8816  44.323  44.080  13.808
40423W        W 8817   2.021  33.600  12.460
40424W        W 8818   2.214  22.605  12.418
40425W        W 8819   0.096   5.692   0.336
40426W        W 8820  12.221   9.423  12.835
40427W        W 8821  12.687  21.219   2.907
40428W        W 8822  42.749  33.556  10.961
40429W        W 8823  39.393  39.523  12.604
40430W        W 8824  29.509  33.500  11.710
40431W        W 8825   8.864  36.488   3.638
40432W        W 8826  43.568  27.559  13.002
40433W        W 8827   4.571  39.266  13.420
40434W        W 8828  37.292  39.080  14.541
40435W        W 8829   6.753  32.179   2.722
40436W        W 8830   2.180   2.241   2.655
40437W        W 8831   7.158  29.046  11.202
40438W        W 8832  23.723  27.765  11.146
40439W        W 8833   4.836  36.681  14.905
40440W        W 8834   2.224   6.586  11.231
40441W        W 8835  17.695   4.706   2.760
40442W        W 8836  13.111  31.463  13.908
40443W        W 8837  36.014  33.992   2.389
40444W        W 8838  28.347   6.685  11.823
40445W        W 8839  20.830  14.355  14.337
40446W        W 8840  26.600  33.423   0.019
40447W        W 8841  32.608  25.466   4.243
40448W        W 8842  19.324  34.075   4.558
40449W        W 8843  10.381  30.508  13.057
40450W        W 8844  26.623   0.261  11.161
40451W        W 8845  17.547  36.680  14.036
40452W        W 8846  42.270  14.652  11.233
40453W        W 8847   7.314  11.385   1.340
40454W        W 8848  24.227  35.527   2.188
40455W        W 8849  29.041  18.635   2.827
40456W        W 8850  14.343   2.189  14.244
40457W        W 8851  43.026  23.899   5.176
40458W        W 8852  21.112  15.051   3.056
40459W        W 8853  39.507   6.765  14.557
40460W        W 8854  19.079  34.044  14.211
40461W        W 8855  11.503  16.309   1.420
40462W        W 8856   3.918  33.097   2.835
40463W        W 8857  41.965  36.996   3.164
40464W        W 8858  44.749  39.540  11.572
40465W        W 8859  20.454   2.779  13.834
40466W        W 8860   9.157  27.801   1.095
40467W        W 8861  32.056  42.180  13.808
40468W        W 8862   6.286  35.591  13.453
40469W        W 8863  35.695  34.309  14.890
40470W        W 8864   8.604  30.623  10.244
40471W        W 8865  20.011  44.913  12.128
40472W        W 8866  21.285  17.286  11.065
40473W        W 8867   2.949  27.226   2.697
40474W        W 8868  12.534  10.038   4.827
40475W        W 8869  42.260  41.799   2.644
40476W        W 8870  19.763  19.120  13.010
40477W        W 8871  38.045  35.343  13.797
40478W        W 8872  37.774  38.427  13.873
40479W        W 8873  27.254  32.479  14.786
40480W        W 8874  35.359  11.575  10.525
40481W        W 8875   8.660  26.048   5.140
40482W        W 8876  38.765  43.620   3.912
40483W        W 8877   4.663  29.355   3.221
40484W        W 8878   4.658   2.976  10.206
40485W        W 8879  13.791   2.315  14.694
40486W        W 8880  19.322  40.537   4.113
40487W        W 8881  33.989  28.687  14.367
40488W        W 8882   7.176  14.595  12.771
40489W        W 8883   1.505  27.779   4.204
40490W        W 8884  10.332  13.069   0.326
40491W        W 8885   1.282  43.926  12.833
40492W        W 8886  21.148  23.661   2.417
40493W        W 8887  27.021  19.841   0.018
40494W        W 8888   4.877  39.653  11.394
40495W        W 8889  29.760   5.259   4.107
40496W        W 8890  42.360   3.752  13.773
40497W        W 8891   0.253  31.173  11.004
40498W        W 8892  23.490  30.952  13.438
40499W        W 8893  25.567  29.733  11.225
40500W        W 8894  38.825  21.683  12.771
40501W        W 8895  10.871  22.946  14.281
40502W        W 8896   7.620   3.326   1.391
40503W        W 8897   7.894  23.072  13.503
40504W        W 8898   0.933  25.312   2.295
40505W        W 8899  20.157   2.344   4.199
40506W        W 8900  22.519  39.742  11.662
40507W        W 8901  24.621  26.044   3.341
40508W        W 8902  36.581   5.250  14.516
40509W        W 8903  28.477  33.070   4.067
40510W        W 8904  25.534   1.498  10.220
40511W        W 8905  13.593  16.596  14.390
40512W        W 8906   6.524   5.185   3.299
40513W        W 8907  20.763  44.560  14.454
40514W        W 8908  18.715  38.405  12.514
40515W        W 8909  41.604  35.641   4.199
40516W        W 8910  15.555  42.302  10.783
40517W        W 8911  31.902  28.179  11.579
40518W        W 8912  24.460   8.657  14.595
40519W        W 8913   6.144   7.316  12.320
40520W        W 8914  23.247  44.787   4.388
40521W        W 8915  18.437   2.736  13.820
40522W        W 8916  37.992  24.129   1.456
40523W        W 8917  26.729  21.994   4.162
40524W        W 8918  41.222  24.930  10.778
40525W        W 8919  29.058   6.801  11.055
40526W        W 8920  13.226  20.644   4.035
40527W        W 8921   1.604  24.937  13.942
40528W        W 8922   9.517  19.791  13.969
40529W        W 8923  20.152  31.924   2.922
40530W        W 8924   6.947  29.280  12.531
40531W        W 8925  19.442  15.461   3.777
40532W        W 8926  13.069   5.183   5.014
40533W        W 8927   6.601  19.513   1.252
40534W        W 8928  38.317  34.423   2.288
40535W        W 8929  37.694   1.995   0.338
40536W        W 8930  20.252  15.435  11.506
40537W        W 8931  22.694  27.651  14.961
40538W        W 8932  41.217  33.430  13.432
40539W        W 8933  34.815  36.302   0.773
40540W        W 8934  31.585  39.569   0.757
40541W        W 8935   2.901  28.722   4.227
40542W        W 8936  16.400  18.071  14.083
40543W        W 8937  25.706  24.587   2.347
40544W        W 8938   7.915  13.260   4.090
40545W        W 8939  22.980   0.611  11.576
40546W        W 8940  24.289  23.132  11.241
40547W        W 8941  36.561  19.517  12.037
40548W        W 8942   6.481  42.527   2.724
40549W        W 8943  22.597  29.460   2.785
40550W        W 8944  30.231   7.454   0.401
40551W        W 8945  21.594   4.912  12.195
40552W        W 8946  19.557   7.886   2.271
40553W        W 8947  32.931  25.711  14.334
40554W        W 8948  37.321   7.929  14.789
40555W        W 8949   4.266  22.961  14.446
40556W        W 8950  37.798  44.968  13.695
40557W        W 8951   9.879   5.857   0.458
40558W        W 8952   5.950  37.677  11.508
40559W        W 8953   0.198  18.187   2.488
40560W        W 8954  16.638  19.571   1.320
40561W        W 8955  32.616  39.866   2.214
40562W        W 8956  15.171   1.954  13.394
40563W        W 8957  31.616   7.977  12.507
40564W        W 8958   0.111  13.051  10.946
40565W        W 8959  29.119   1.507   3.227
40566W        W 8960  14.791   2.392   4.881
40567W        W 8961  21.246  39.142   1.819
40568W        W 8962   7.353  14.532   1.605
40569W        W 8963   8.794  28.421  11.632
40570W        W 8964  38.832  32.911  13.359
40571W        W 8965  35.928  37.351   3.820
40572W        W 8966  11.685  36.640  11.580
40573W        W 8967  23.772  37.428   2.175
40574W        W 8968  39.985  34.842   3.794
40575W        W 8969  19.560   8.224  12.495
40576W        W 8970  37.050  35.078  11.536
40577W        W 8971  37.640  19.297   4.111
40578W        W 8972  29.140  34.712   4.944
40579W        W 8973  34.060  19.068  10.810
40580W        W 8974  27.524   6.906   2.894
40581W        W 8975  10.935   5.894  12.642
40582W        W 8976  19.212  11.674  14.209
40583W        W 8977  32.720  42.426   3.041
40584W        W 8978   9.129   0.844   2.480
40585W        W 8979  35.565  12.676  11.157
40586W        W 8980   8.441   8.243   1.833
40587W        W 8981  19.680  27.383  10.872
40588W        W 8982  16.658  35.105  11.955
40589W        W 8983  32.500   6.358  14.084
40590W        W 8984  20.470  42.392  12.634
40591W        W 8985  17.959  37.461  11.237
40592W        W 8986  32.445  25.296  10.677
40593W        W 8987  37.896  20.445  14.330
40594W        W 8988  15.914  40.146   1.883
40595W        W 8989   1.756  18.650  12.096
40596W        W 8990   7.510  22.567  10.651
40597W        W 8991  30.031  30.985   2.912
40598W        W 8992  13.744  30.603   1.307
40599W        W 8993   3.933  13.248   1.879
40600W        W 8994  13.256  31.070   2.646
40601W        W 8995   4.424  22.476  14.336
40602W        W 8996  15.356  25.935   0.395
40603W        W 8997  23.091  18.616   2.342
40604W        W 8998  34.659  23.092   4.814
40605W        W 8999  44.661  40.428   2.444
40606W        W 9000  25.610  30.031  10.778
40607W        W 9001  19.751  24.522  13.495
40608W        W 9002  21.747  37.526   4.528
40609W        W 9003   2.467  18.643  13.823
40610W        W 9004  17.806  33.038  11.435
40611W        W 9005  34.689  42.106  12.456
40612W        W 9006  12.546  33.507   4.235
40613W        W 9007  26.730  27.983  12.759
40614W        W 9008  19.607  19.703  11.391
40615W        W 9009  33.955  34.945   0.921
40616W        W 9010  41.963  11.137  10.865
40617W        W 9011  26.535   8.950   2.711
40618W        W 9012   1.214  31.191   1.944
40619W        W 9013  41.805  44.363  13.507
40620W        W 9014  43.432  16.756  13.085
40621W        W 9015   4.742   5.015   4.426
40622W        W 9016  18.620  44.351   2.093
40623W        W 9017  32.358  23.677  11.488
40624W        W 9018  10.910  18.707   0.108
40625W        W 9019  28.730  14.331  10.562
40626W        W 9020   8.388  25.874   9.651
40627W        W 9021   5.997  15.989   1.815
40628W        W 9022  40.523  40.550   1.783
40629W        W 9023  39.772  20.599   0.330
40630W        W 9024  32.938  31.689   4.737
40631W        W 9025  18.821   0.067  14.446
40632W        W 9026  11.734  39.668  10.219
40633W        W 9027  43.976   0.789  13.915
40634W        W 9028  27.918  18.515  13.937
40635W        W 9029  25.944  37.835  12.940
40636W        W 9030  34.399  13.872  13.079
40637W        W 9031  11.247  15.231   2.836
40638W        W 9032   3.367  43.866   3.933
40639W        W 9033  29.402   7.096   4.099
40640W        W 9034   6.304   7.575  12.758
40641W        W 9035  35.136  29.723   1.175
40642W        W 9036  27.159  42.766   1.209
40643W        W 9037  28.146  31.646  14.476
40644W        W 9038   7.894  32.045  14.306
40645W        W 9039  30.423  44.904  14.998
40646W        W 9040  38.544  40.626   4.885
40647W        W 9041  40.447  20.575   4.194
40648W        W 9042  44.899   5.247  13.825
40649W        W 9043  31.020  39.488   1.716
40650W        W 9044  28.940  16.627  11.208
40651W        W 9045  39.256  23.182   2.771
40652W        W 9046  11.656  11.058   0.209
40653W        W 9047  38.536  36.099   0.359
40654W        W 9048   2.277   7.458  11.926
40655W        W 9049  18.611   0.621  12.306
40656W        W 9050  41.424  26.976  10.703
40657W        W 9051  34.421  29.392   4.213
40658W        W 9052  39.311  42.002  10.763
40659W        W 9053   8.221   4.277   0.201
40660W        W 9054  25.361  24.106   2.959
40661W        W 9055  11.658  26.202  12.392
40662W        W 9056  16.262  28.117  12.369
40663W        W 9057  41.425  34.329   4.793
40664W        W 9058  43.017  26.685  12.881
40665W        W 9059  42.209  25.603   4.122
40666W        W 9060  38.140  15.310   0.779
40667W        W 9061  21.007  17.699  11.166
40668W        W 9062  41.126  10.723  12.498
40669W        W 9063  35.650   9.083  11.984
40670W        W 9064  29.970  21.654  12.042
40671W        W 9065  28.767  25.598  13.843
40672W        W 9066  29.514  40.959  12.793
40673W        W 9067  17.325  24.562   2.292
40674W        W 9068  44.524   1.254   1.471
40675W        W 9069  32.082  43.055   0.396
40676W        W 9070   1.141   4.576  12.013
40677W        W 9071  19.080   5.002   4.030
40678W        W 9072  22.673   4.894   3.181
40679W        W 9073   5.526  31.498   1.059
40680W        W 9074  38.473   0.342   2.183
40681W        W 9075   6.848  35.023   2.912
40682W        W 9076  17.274   5.236   1.778
40683W        W 9077   8.562  30.523  13.874
40684W        W 9078   3.337  33.360   3.201
40685W        W 9079  44.513  11.285  14.445
40686W        W 9080  43.369  25.447   1.610
40687W        W 9081   8.116  13.667  13.309
40688W        W 9082  13.935  21.778  10.885
40689W        W 9083  21.186   9.974   1.719
40690W        W 9084  38.369  27.456   0.830
40691W        W 9085  14.760  35.793  14.822
40692W        W 9086  20.724  26.544   2.736
40693W        W 9087  14.424   2.941  13.921
40694W        W 9088  11.697  32.661  14.100
40695W        W 9089  28.578  39.340   4.439
40696W        W 9090  43.325  43.307  11.489
40697W        W 9091  28.595  44.279  11.455
40698W        W 9092  20.835  19.210   4.474
40699W        W 9093  44.472  33.027   3.059
40700W        W 9094   5.527  13.996  12.578
40701W        W 9095   8.283  27.553  13.604
40702W        W 9096  26.180  30.615  11.467
40703W        W 9097  11.804  31.448   0.255
40704W        W 9098  17.587  40.543  14.744
40705W        W 9099  26.149  40.034  12.649
40706W        W 9100   5.190  44.369  11.666
40707W        W 9101  26.948  33.543  10.767
40708W        W 9102  13.855  23.183  13.787
40709W        W 9103  10.726  31.434   2.683
40710W        W 9104  34.977  28.767  12.325
40711W        W 9105  13.253  30.670   1.405
40712W        W 9106  38.928  32.270   2.148
40713W        W 9107  28.628  19.256   2.279
40714W        W 9108  34.025   8.626   3.747
40715W        W 9109  28.435  18.603   4.170
40716W        W 9110  24.106  23.543  11.484
40717W        W 9111  26.606  11.601   3.478
40718W        W 9112  12.134  38.118  10.586
40719W        W 9113  18.186  16.738  12.210
40720W        W 9114  14.529  43.988   4.904
40721W        W 9115  36.432  20.099  13.451
40722W        W 9116  10.203  16.225   4.553
40723W        W 9117  27.652  41.786  13.976
40724W        W 9118  19.633  16.419   1.041
40725W        W 9119   7.691  35.766   1.500
40726W        W 9120  42.232  42.554  14.894
40727W        W 9121  16.678  19.855   3.661
40728W        W 9122  19.533  34.965  13.199
40729W        W 9123  34.797  39.520   2.208
40730W        W 9124   5.716  23.440   1.020
40731W        W 9125  40.973  29.484   4.630
40732W        W 9126  43.715   1.709   2.360
40733W        W 9127  11.723   3.444   2.302
40734W        W 9128  26.010  22.646   0.479
40735W        W 9129  31.924   0.392   3.817
40736W        W 9130  35.079  12.585   0.425
40737W        W 9131  10.251   6.798   3.593
40738W        W 9132   5.229  16.407  10.149
40739W        W 9133  11.329  38.491   1.782
40740W        W 9134  24.714  22.139  10.413
40741W        W 9135  44.416   2.715   1.389
40742W        W 9136  17.608  34.786  10.416
40743W        W 9137  11.961   3.876  10.744
40744W        W 9138  12.280  23.305   0.931
40745W        W 9139  16.410  17.963  10.660
40746W        W 9140  20.724  14.398   4.940
40747W        W 9141  29.697  30.220  14.333
40748W        W 9142  27.683  32.828  13.942
40749W        W 9143   9.877  22.023   2.756
40750W        W 9144   6.123  37.018   2.336
40751W        W 9145  40.527  37.441   4.496
40752W        W 9146  13.754  22.256  10.325
40753W        W 9147  41.481  22.158   3.908
40754W        W 9148  25.119  17.097   2.860
40755W        W 9149  34.094  22.639   2.195
40756W        W 9150  37.358   2.796  13.505
40757W        W 9151   9.737  44.237  12.339
40758W        W 9152  34.391  18.371  14.140
40759W        W 9153  23.072   1.024  12.023
40760W        W 9154  36.936  11.389   1.867
40761W        W 9155  23.964  17.832  11.125
40762W        W 9156   4.820  33.383  13.438
40763W        W 9157  37.857  28.735  13.338
40764W        W 9158  18.634  39.311  11.611
40765W        W 9159  18.668   9.405  13.869
40766W        W 9160  26.759  29.284   5.129
40767W        W 9161  16.232   6.384   3.153
40768W        W 9162  10.338  35.443  12.553
40769W        W 9163   3.151   6.396   3.251
40770W        W 9164  38.309  40.432  13.389
40771W        W 9165  30.081   8.390   2.885
40772W        W 9166  26.918  15.522   3.031
40773W        W 9167  31.945  44.852   4.899
40774W        W 9168  25.661  24.160  14.842
40775W        W 9169  39.199   1.794   4.717
40776W        W 9170   8.567  27.168   0.727
40777W        W 9171  25.962  27.996   2.946
40778W        W 9172  18.604  11.102   3.340
40779W        W 9173  23.293  11.888   3.165
40780W        W 9174  10.959  23.774   1.119
40781W        W 9175  13.670   9.943  13.086
40782W        W 9176  10.575  35.536   1.275
40783W        W 9177  42.303  44.396   1.879
40784W        W 9178  25.670  26.080   0.300
40785W        W 9179  22.486  30.450   0.456
40786W        W 9180  36.377  25.649   1.892
40787W        W 9181  19.448  19.955  14.454
40788W        W 9182  33.695   3.849   3.140
40789W        W 9183  38.013  14.089   1.710
40790W        W 9184   5.424  38.073   2.491
40791W        W 9185  10.192  34.490   3.313
40792W        W 9186   2.234   1.425  12.037
40793W        W 9187  26.658  44.410   1.872
40794W        W 9188  13.002   6.527   5.525
40795W        W 9189  22.074   8.765  12.580
40796W        W 9190  24.732   1.412   4.009
40797W        W 9191  20.429  41.820  13.759
40798W        W 9192  27.904   3.075   4.159
40799W        W 9193  12.060  19.674  12.927
40800W        W 9194   6.634  31.221  12.154
40801W        W 9195  36.012  39.054  14.803
40802W        W 9196   1.395  31.961  12.093
40803W        W 9197  23.632  41.833   4.225
40804W        W 9198  28.513  30.431   3.671
40805W        W 9199  28.974  17.377  11.662
40806W        W 9200   3.776  19.150  12.638
40807W        W 9201  30.110  23.022   0.741
40808W        W 9202  37.945  24.153  11.084
40809W        W 9203  28.523  31.827  13.531
40810W        W 9204  36.450  27.041  13.344
40811W        W 9205  17.077  11.087  11.117
40812W        W 9206  14.125  37.671   1.889
40813W        W 9207  30.167  11.683   4.129
40814W        W 9208  37.828  33.026  10.295
40815W        W 9209  17.402  31.412  13.919
40816W        W 9210  42.929  11.763  12.871
40817W        W 9211  19.765  44.677   4.624
40818W        W 9212  20.199  14.341   3.463
40819W        W 9213  24.001  31.001  13.374
40820W        W 9214  36.831  27.056  11.125
40821W        W 9215  22.242  23.016   0.396
40822W        W 9216   7.025  41.342   3.165
40823W        W 9217   5.938  41.070  12.534
40824W        W 9218  34.881   0.225  13.301
40825W        W 9219  12.744  10.123   1.270
40826W        W 9220  30.591  39.014  12.847
40827W        W 9221  11.355  21.684  11.903
40828W        W 9222   4.233  22.539  10.685
40829W        W 9223  17.602  32.156  11.232
40830W        W 9224   5.802  26.684  11.882
40831W        W 9225  28.175  28.671   1.273
40832W        W 9226  13.243  41.085  13.382
40833W        W 9227  17.579  29.640   4.132
40834W        W 9228   3.394  42.825  10.986
40835W        W 9229  36.481   7.356   1.829
40836W        W 9230  25.079  24.030   2.097
40837W        W 9231  24.868   8.380  12.738
40838W        W 9232  26.912  23.014   4.325
40839W        W 9233  34.414  32.715  12.984
40840W        W 9234  34.468  29.647   4.713
40841W        W 9235   7.718  29.338   0.888
40842W        W 9236  14.152  18.323   0.030
40843W        W 9237   6.229  34.396   2.690
40844W        W 9238  17.864  35.300   2.938
40845W        W 9239   5.257   1.527   2.198
40846W        W 9240   9.003  35.474   1.470
40847W        W 9241   2.192  28.939   4.498
40848W        W 9242   3.832  30.652  14.365
40849W        W 9243  39.317  23.709   4.546
40850W        W 9244  37.348  23.663   3.645
40851W        W 9245  12.221  36.060  13.757
40852W        W 9246  44.866  27.877  14.291
40853W        W 9247  38.824  28.394   4.976
40854W        W 9248  37.688   9.372  11.155
40855W        W 9249  31.206  13.041  13.022
40856W        W 9250  37.098  28.614  11.186
40857W        W 9251  20.440  10.786   0.670
40858W        W 9252  30.507  13.388   0.738
40859W        W 9253  19.899  11.073   1.445
40860W        W 9254  28.495   1.569   1.872
40861W        W 9255  17.305  15.069  12.565
40862W        W 9256  23.784  12.233  12.128
40863W        W 9257  23.939  30.197   2.493
40864W        W 9258  23.000  15.051   1.846
40865W        W 9259  34.148   4.373  14.248
40866W        W 9260  13.637  36.888  11.778
40867W        W 9261   6.218  35.086  13.649
40868W        W 9262   2.695  14.791   2.748
40869W        W 9263  22.417  14.133   4.051
40870W        W 9264  35.940  31.752  12.638
40871W        W 9265  23.557   4.086  12.368
40872W        W 9266  44.297  12.652   4.259
40873W        W 9267   2.290   2.632  13.291
40874W        W 9268   7.727  22.411   1.255
40875W        W 9269  32.974   9.845   1.998
40876W        W 9270  25.917  20.990   4.558
40877W        W 9271  39.111  38.096   4.238
40878W        W 9272   8.870  38.319   0.159
40879W        W 9273  17.996  20.032  14.865
40880W        W 9274   0.393   0.965  13.129
40881W        W 9275  19.315  15.648   1.876
40882W        W 9276   7.053  36.757   0.419
40883W        W 9277  26.753  16.613   3.229
40884W        W 9278  24.963  28.906  14.462
40885W        W 9279  26.124  29.472   2.858
40886W        W 9280  38.151  37.043   2.356
40887W        W 9281  11.181  12.952   1.029
40888W        W 9282  25.149   9.344   1.877
40889W        W 9283  28.415  10.692  13.142
40890W        W 9284   2.365  40.352  11.119
40891W        W 9285  35.911  32.399  11.223
40892W        W 9286  12.746  21.072   4.345
40893W        W 9287  39.558  17.796  12.076
40894W        W 9288  10.549  12.745   4.063
40895W        W 9289  33.085   1.769   3.399
40896W        W 9290  29.521   2.741  12.974
40897W        W 9291  17.600  31.570  13.469
40898W        W 9292   0.935  18.542  14.420
40899W        W 9293   0.843   3.839  10.700
40900W        W 9294  44.087  42.068  11.036
40901W        W 9295   1.675  12.477   2.917
40902W        W 9296  26.606  13.063  14.011
40903W        W 9297   1.037  36.302   3.227
40904W        W 9298  14.125  19.279   2.145
40905W        W 9299   4.857  21.145   1.362
40906W        W 9300  17.137   4.174  10.224
40907W        W 9301   6.403  26.589   4.841
40908W        W 9302   1.697  31.971   3.102
40909W        W 9303  36.893   4.717  14.881
40910W        W 9304  41.102  20.790  12.466
40911W        W 9305  32.410   4.959  11.198
40912W        W 9306  31.293   1.928   1.719
40913W        W 9307  42.185  37.897   0.002
40914W        W 9308  15.113  20.182   1.903
40915W        W 9309  41.914   2.899   0.810
40916W        W 9310  18.640  14.276   1.937
40917W        W 9311  25.466  20.355   1.402
40918W        W 9312  40.893   4.212  11.683
40919W        W 9313  29.676   9.769   2.606
40920W        W 9314  40.466   0.730  13.323
40921W        W 9315  22.036  21.222  10.406
40922W        W 9316   3.654  37.569  11.197
40923W        W 9317  25.160  15.685  10.720
40924W        W 9318  25.496  37.595  13.056
40925W        W 9319  30.050  20.877   1.012
40926W        W 9320  39.037   9.740   2.810
40927W        W 9321   2.930  17.173   4.754
40928W        W 9322  11.666   1.256   4.815
40929W        W 9323   4.437  19.188  12.002
40930W        W 9324  29.758  19.781  12.207
40931W        W 9325  39.594  17.057  13.545
40932W        W 9326  40.870  39.836  10.494
40933W        W 9327  28.091  30.896  10.752
40934W        W 9328  21.552  30.486  13.802
40935W        W 9329   1.855  34.364   1.915
40936W        W 9330  17.026  23.673  12.898
40937W        W 9331   7.579   5.027  11.171
40938W        W 9332  30.659  20.535  14.690
40939W        W 9333  11.418  19.812   1.174
40940W        W 9334  42.968  19.963   5.145
40941W        W 9335  24.702  17.675  12.339
40942W        W 9336  26.094   5.483  14.872
40943W        W 9337  36.102  43.435   3.352
40944W        W 9338   9.257   0.088  14.004
40945W        W 9339  23.749  18.036  11.935
40946W        W 9340  44.128  31.184   5.378
40947W        W 9341  40.225  29.458   4.056
40948W        W 9342  44.306  27.673   4.090
40949W        W 9343  35.923  14.223   0.805
40950W        W 9344  13.141  38.393   1.392
40951W        W 9345  37.753  33.187  11.686
40952W        W 9346  41.692  23.098  12.755
40953W        W 9347   6.710  34.926  13.522
40954W        W 9348  43.608  40.374   4.629
40955W        W 9349  24.025  20.690  12.965
40956W        W 9350  43.920  36.889  12.908
40957W        W 9351  39.129  31.124  11.516
40958W        W 9352   4.383  36.144  12.426
40959W        W 9353  16.250   3.200   3.602
40960W        W 9354  17.485  29.481  13.807
40961W        W 9355  26.506   0.764  14.598
40962W        W 9356  32.004  24.503   4.784
40963W        W 9357  28.952   8.644   0.818
40964W        W 9358   8.414  15.882  11.423
40965W        W 9359  40.800  12.119   1.029
40966W        W 9360  43.858  29.633   1.727
40967W        W 9361  36.274  36.395  13.429
40968W        W 9362  19.684   4.256   4.953
40969W        W 9363  18.296   2.241  13.959
40970W        W 9364  35.885  19.515   3.281
40971W        W 9365  22.391  20.012  13.321
40972W        W 9366   3.404  42.986  10.506
40973W        W 9367  33.521  18.422   5.105
40974W        W 9368  27.000  13.537  13.546
40975W        W 9369  26.871  21.683   0.259
40976W        W 9370  13.119  29.707   2.447
40977W        W 9371  42.776  30.250  12.005
40978W        W 9372   0.378  29.622  12.562
40979W        W 9373  36.813  37.616   4.114
40980W        W 9374   3.519   5.648   1.314
40981W        W 9375  19.096  23.076   1.773
40982W        W 9376   9.272  10.714  11.044
40983W        W 9377  34.924  31.998   0.828
40984W        W 9378   1.055  33.055   2.484
40985W        W 9379   6.810  41.559   0.359
40986W        W 9380  35.402  21.737   4.716
40987W        W 9381  40.414  34.495  11.244
40988W        W 9382  25.920  29.414   3.332
40989W        W 9383  18.799  14.354   1.443
40990W        W 9384  10.778  41.395  12.950
40991W        W 9385  37.989  27.671  14.880
40992W        W 9386  40.397   5.809  10.350
40993W        W 9387  33.334   6.565  13.176
40994W        W 9388  10.649  25.157  13.843
40995W        W 9389  15.797   0.737   2.300
40996W        W 9390   0.722  11.370  11.582
40997W        W 9391  38.071   3.056   1.373
40998W        W 9392   6.319  32.187   3.241
40999W        W 9393  30.570   2.474   3.172
41000W        W 9394  42.320  33.641   3.151
41001W        W 9395  30.018  40.934   2.712
41002W        W 9396   4.955  44.673   4.820
41003W        W 9397   7.239  41.008   4.299
41004W        W 9398  15.889  21.657  14.534
41005W        W 9399  29.587  20.260  13.888
41006W        W 9400  13.146  24.341   5.098
41007W        W 9401  19.204  11.653  13.211
41008W        W 9402  30.078   1.378   0.013
41009W        W 9403  11.637  40.498  13.817
41010W        W 9404  42.520  34.092   0.778
41011W        W 9405   1.556  29.585   1.281
41012W        W 9406  21.937  25.667   4.913
41013W        W 9407  11.176  22.539   2.676
41014W        W 9408  25.176  43.314  14.821
41015W        W 9409  44.028   1.267  14.328
41016W        W 9410  12.324  27.146   3.821
41017W        W 9411  11.607  43.388   1.214
41018W        W 9412  26.349  29.636   2.396
41019W        W 9413  33.787  23.130  13.129
41020W        W 9414   7.102  21.920   4.121
41021W        W 9415  19.560  23.150   4.218
41022W        W 9416  21.165  42.384   2.759
41023W        W 9417  14.244  14.283   3.517
41024W        W 9418  25.804  33.883   1.657
41025W        W 9419  19.080   4.859  12.863
41026W        W 9420  31.394  11.736   3.326
41027W        W 9421   6.957  28.557  10.701
41028W        W 9422  39.377   3.240  14.305
41029W        W 9423  11.754  12.101  11.054
41030W        W 9424   1.637  36.005   0.402
41031W        W 9425   6.894   0.172  11.398
41032W        W 9426  11.727   2.413  11.985
41033W        W 9427   0.325  22.030  14.974
41034W        W 9428  27.040  37.331  11.132
41035W        W 9429  41.296  32.084  13.859
41036W        W 9430  40.958  37.024  13.904
41037W        W 9431  43.786  36.050   5.397
41038W        W 9432  11.813   0.844   4.550
41039W        W 9433   5.176  18.598   0.888
41040W        W 9434  10.168  42.514   3.119
41041W        W 9435  31.462  33.015  12.455
41042W        W 9436   1.729  12.530  12.241
41043W        W 9437   6.680  22.478   4.354
41044W        W 9438   3.969  30.335  13.955
41045W        W 9439  37.508   7.763  13.297
41046W        W 9440  38.794  31.456   4.940
41047W        W 9441  11.360  37.745  10.205
41048W        W 9442  36.540  27.502  13.107
41049W        W 9443  18.323  13.902  12.050
41050W        W 9444  44.420  10.252   1.866
41051W        W 9445   7.888  41.353   1.440
41052W        W 9446  10.775  37.675   0.552
41053W        W 9447   6.876  31.130  11.027
41054W        W 9448  13.209   4.951  10.294
41055W        W 9449  12.661  31.973   3.465
41056W        W 9450  33.042  18.974   3.654
41057W        W 9451   7.941  21.594   1.710
41058W        W 9452  21.336  28.192   2.701
41059W        W 9453  15.622  36.495   4.967
41060W        W 9454  42.834  34.685   0.865
41061W        W 9455  27.744  37.158   2.260
41062W        W 9456  14.783   6.660   0.373
41063W        W 9457  38.456  17.814  14.194
41064W        W 9458  41.930  10.850  12.653
41065W        W 9459  41.934   8.035  14.993
41066W        W 9460   4.001  23.885  12.965
41067W        W 9461   3.865  10.859  10.875
41068W        W 9462  15.561  28.140   4.323
41069W        W 9463  23.076  32.900   1.465
41070W        W 9464  11.842  27.019   1.333
41071W        W 9465  32.313  21.483   2.921
41072W        W 9466  37.166  35.966   3.695
41073W        W 9467  36.148   9.231   4.456
41074W        W 9468   7.861  22.506   2.142
41075W        W 9469  43.457  41.709  12.985
41076W        W 9470  16.861  10.649  10.993
41077W        W 9471  38.003   3.628  12.438
41078W        W 9472  32.992   3.633   4.037
41079W        W 9473   8.830  24.977   2.645
41080W        W 9474  41.923  27.692   1.329
41081W        W 9475  34.463  39.774   2.889
41082W        W 9476  13.184  20.538  10.852
41083W        W 9477   1.255  33.490   4.577
41084W        W 9478  27.465   7.351   0.722
41085W        W 9479  37.176  34.322   4.173
41086W        W 9480  21.796   7.343  11.127
41087W        W 9481  22.220  34.979   3.813
41088W        W 9482  18.222  15.400   4.167
41089W        W 9483  13.589  41.390  13.856
41090W        W 9484  11.135  41.768  11.088
41091W        W 9485   5.099   6.625  14.270
41092W        W 9486  15.176  17.771  12.497
41093W        W 9487  19.831  27.591  13.870
41094W        W 9488  28.085   5.605   2.837
41095W        W 9489  18.789  34.356   2.477
41096W        W 9490  22.052  10.107   3.662
41097W        W 9491   9.221   4.272   0.591
41098W        W 9492   4.573  25.735  10.961
41099W        W 9493  41.445   5.705   4.601
41100W        W 9494   4.527  36.018   5.233
41101W        W 9495  23.544  17.600   1.395
41102W        W 9496  14.786  30.069  13.842
41103W        W 9497   3.938  39.939   3.403
41104W        W 9498  19.079   4.825  13.791
41105W        W 9499   2.295   4.193  13.505
41106W        W 9500   2.645   8.655   1.152
41107W        W 9501  43.340  13.269   1.345
41108W        W 9502   9.842   0.928   4.649
41109W        W 9503  36.492  36.048  13.082
41110W        W 9504  11.955  41.406  12.196
41111W        W 9505  21.280  11.573  14.483
41112W        W 9506   4.288  30.901  12.331
41113W        W 9507  44.989   0.598  12.926
41114W        W 9508  35.680  27.192  11.967
41115W        W 9509  23.986   9.269   1.357
41116W        W 9510  44.296   5.317   2.318
41117W        W 9511  30.764  37.419  13.914
41118W        W 9512  34.322  28.688   1.096
41119W        W 9513  39.827   1.884  12.378
41120W        W 9514  10.799  26.842   3.321
41121W        W 9515  44.966  18.334   1.437
41122W        W 9516  28.217   5.580  13.049
41123W        W 9517  19.980  40.128   0.001
41124W        W 9518   2.877  21.194   2.328
41125W        W 9519  28.626  42.701   4.568
41126W        W 9520  20.155  42.163  14.487
41127W        W 9521   9.217  29.635  12.214
41128W        W 9522  17.163  44.095  12.569
41129W        W 9523  44.281  38.050  14.227
41130W        W 9524  22.040  31.656   1.404
41131W        W 9525  10.482  22.977   1.988
41132W        W 9526  43.827   8.590   0.952
41133W        W 9527   9.930  20.398   1.834
41134W        W 9528  40.137  37.996   3.291
41135W        W 9529  32.842  40.553  14.882
41136W        W 9530  28.737  40.026   1.411
41137W        W 9531  16.862   5.466   4.190
41138W        W 9532  32.930  23.754  11.970
41139W        W 9533  31.125   8.509  13.077
41140W        W 9534   8.485  18.502  13.426
41141W        W 9535  41.839  29.587  13.121
41142W        W 9536   2.890  25.045   3.711
41143W        W 9537  29.244  41.477   3.201
41144W        W 9538   6.882  18.347   0.777
41145W        W 9539  39.115   1.442   1.891
41146W        W 9540  38.795  26.096  11.092
41147W        W 9541  44.117  30.557   1.427
41148W        W 9542   3.086  43.515  11.398
41149W        W 9543  32.119  20.235   1.266
41150W        W 9544  16.710  16.603   2.757
41151W        W 9545   2.536  41.234  11.057
41152W        W 9546  14.655  23.691  10.883
41153W        W 9547  32.403  29.072  11.705
41154W        W 9548   7.990   2.507   1.605
41155W        W 9549   5.858  12.099  12.439
41156W        W 9550   3.115  22.592   4.203
41157W        W 9551  38.133  29.893  11.914
41158W        W 9552  38.753  38.457   1.882
41159W        W 9553  16.673  22.574   0.491
41160W        W 9554   8.926  40.014   1.823
41161W        W 9555   0.885  22.767   0.304
41162W        W 9556  41.350  37.661   1.688
41163W        W 9557  20.316  43.513  12.038
41164W        W 9558  38.031  42.830  14.844
41165W        W 9559  24.643  14.235   1.705
41166W        W 9560  31.366  31.729   2.175
41167W        W 9561  35.502   8.630  14.262
41168W        W 9562   9.489  38.773   2.660
41169W        W 9563  28.661  19.161   1.328
41170W        W 9564  38.467  36.092  11.183
41171W        W 9565  44.830  21.500   0.589
41172W        W 9566  11.641  38.894  14.580
41173W        W 9567   3.743  35.976  13.069
41174W        W 9568   3.798  10.437   3.185
41175W        W 9569  30.979  38.288   2.689
41176W        W 9570  16.567  36.055   2.134
41177W        W 9571   8.997  26.085  11.529
41178W        W 9572  41.329  15.231   4.584
41179W        W 9573  27.543  31.184   1.885
41180W        W 9574  25.103  41.567  10.665
41181W        W 9575  16.026  43.676  13.480
41182W        W 9576  31.015   0.797  11.621
41183W        W 9577  30.933   5.323   3.756
41184W        W 9578   4.106  43.253  10.635
41185W        W 9579  19.188  36.489   1.729
41186W        W 9580  44.303  19.309   3.013
41187W        W 9581  28.452  38.708  11.167
41188W        W 9582  22.003  27.910  11.356
41189W        W 9583  16.352  34.673   4.726
41190W        W 9584  13.556   9.877  13.591
41191W        W 9585  32.913  12.457   0.909
41192W        W 9586  25.379   8.364  12.567
41193W        W 9587  35.834  12.817  13.471
41194W        W 9588   0.553  11.900  11.341
41195W        W 9589   0.200  33.598   0.280
41196W        W 9590   9.944  42.359   0.360
41197W        W 9591   2.174  30.508  12.076
41198W        W 9592  21.330  14.810   1.384
41199W        W 9593  17.739   9.991  12.672
41200W        W 9594   4.776  14.148   3.227
41201W        W 9595  12.421   0.859   0.730
41202W        W 9596  42.184  38.624   3.756
41203W        W 9597   4.337  44.558   1.849
41204W        W 9598  14.931  42.777   5.041
41205W        W 9599  43.987   7.186   1.661
41206W        W 9600   3.123  31.017   3.710
41207W        W 9601  36.039  21.426  11.285
41208W        W 9602   2.219  11.688   2.924
41209W        W 9603  23.627   5.850  10.723
41210W        W 9604  37.970  11.469   3.163
41211W        W 9605  16.910   0.669  14.402
41212W        W 9606  26.284   5.429   4.151
41213W        W 9607   1.278  38.450   0.793
41214W        W 9608  41.224  28.072  12.121
41215W        W 9609  17.805  18.510   2.682
41216W        W 9610  15.583  40.519  12.862
41217W        W 9611  32.102  36.899  12.986
41218W        W 9612  39.120   4.433  12.104
41219W        W 9613  21.213  22.112   4.200
41220W        W 9614   7.153  10.194   0.614
41221W        W 9615  12.879  44.972  12.352
41222W        W 9616   0.078  32.083  13.024
41223W        W 9617  10.123  39.334  12.451
41224W        W 9618  35.461  18.132  12.432
41225W        W 9619  31.384  16.969  11.054
41226W        W 9620   8.312   0.072  14.025
41227W        W 9621  10.794  14.570   4.226
41228W        W 9622   1.757   3.606   0.050
41229W        W 9623  26.926  18.607  14.531
41230W        W 9624  32.867   5.244   3.352
41231W        W 9625   3.713   4.379  12.961
41232W        W 9626  40.367  18.732   1.637
41233W        W 9627  26.599  33.895  10.864
41234W        W 9628  30.138  22.175   0.433
41235W        W 9629  27.018  42.986   4.843
41236W        W 9630  23.008  43.521  13.448
41237W        W 9631   2.223  13.324  11.579
41238W        W 9632   6.262  24.328  12.890
41239W        W 9633   0.942  10.968  11.899
41240W        W 9634  38.214   2.539   2.756
41241W        W 9635  32.262   7.242   1.626
41242W        W 9636  10.805  30.355  11.968
41243W        W 9637   7.273  17.108  10.850
41244W        W 9638  33.250  24.060   0.790
41245W        W 9639  30.665  14.783  12.979
41246W        W 9640  18.452   6.801   3.179
41247W        W 9641  13.477  26.642  10.263
41248W        W 9642  10.942  41.052   0.266
41249W        W 9643  29.544  29.186  13.749
41250W        W 9644  39.035  32.062  14.749
41251W        W 9645  18.458  40.560  10.261
41252W        W 9646   6.243  30.918  12.009
41253W        W 9647  34.540  23.762   1.257
41254W        W 9648  12.785  23.232  12.436
41255W        W 9649  11.234  32.969  14.323
41256W        W 9650  36.805   1.034  11.243
41257W        W 9651  22.118  44.465  10.845
41258W        W 9652  24.836   6.364  10.675
41259W        W 9653   0.215  29.570  14.254
41260W        W 9654  29.803  11.730  14.061
41261W        W 9655  36.974  39.675   4.101
41262W        W 9656  11.517   5.258  10.427
41263W        W 9657  18.701  29.206  11.270
41264W        W 9658  21.139   1.427  12.530
41265W        W 9659  16.490   8.676   4.020
41266W        W 9660  27.045  16.238   0.669
41267W        W 9661  40.559  35.451  13.333
41268W        W 9662  24.695  13.236   4.247
41269W        W 9663  21.915  12.844  10.705
41270W        W 9664  12.317   8.430  13.955
41271W        W 9665  14.220   0.818   2.330
41272W        W 9666  30.514  22.274   1.915
41273W        W 9667  39.269  17.066   3.354
41274W        W 9668  30.144  30.496  13.049
41275W        W 9669   0.020  22.286   0.342
41276W        W 9670   4.953  17.020   3.712
41277W        W 9671  37.281   1.976  13.077
41278W        W 9672  35.131  42.345   2.055
41279W        W 9673  40.468   9.422   4.132
41280W        W 9674   8.921  35.252   1.935
41281W        W 9675  18.302  36.037   2.093
41282W        W 9676  19.205  12.169  11.950
41283W        W 9677  38.846   6.945   3.132
41284W        W 9678  12.350  14.602  14.965
41285W        W 9679   1.213  23.265  12.964
41286W        W 9680  21.438  11.160   3.289
41287W        W 9681  34.038  22.284  13.930
41288W        W 9682   4.737  31.651   1.220
41289W        W 9683  18.063  11.722   5.024
41290W        W 9684   8.182  22.189  14.277
41291W        W 9685  42.342   0.447   3.927
41292W        W 9686  20.780  23.715   4.550
41293W        W 9687  22.489   2.282  14.449
41294W        W 9688   2.490  39.085   2.583
41295W        W 9689  33.128  18.467   1.904
41296W        W 9690  16.190  32.496   0.354
41297W        W 9691   3.936   3.627   0.384
41298W        W 9692  10.610   7.374  12.542
41299W        W 9693  38.829  15.096   1.543
41300W        W 9694   8.025  32.988   1.362
41301W        W 9695   0.567   6.809   2.766
41302W        W 9696  26.000   2.808   3.183
41303W        W 9697  29.463  16.061   4.163
41304W        W 9698  22.447  20.548   0.440
41305W        W 9699  32.330   6.902   0.692
41306W        W 9700  41.407  40.831  13.302
41307W        W 9701  14.618  29.025  12.470
41308W        W 9702  33.696  15.147  12.905
41309W        W 9703  34.648  14.093  14.954
41310W        W 9704  33.419   1.487   0.476
41311W        W 9705  31.491  43.795   0.035
41312W        W 9706   1.721  34.354   4.229
41313W        W 9707  18.508  17.589   2.255
41314W        W 9708  20.616  15.282   4.727
41315W        W 9709  22.697  16.806   4.145
41316W        W 9710  40.894  40.354   2.272
41317W        W 9711  32.634  27.005  11.250
41318W        W 9712  25.108  32.274  10.411
41319W        W 9713  20.361  16.242  11.069
41320W        W 9714  37.100   2.454   3.936
41321W        W 9715  20.037  19.727   4.171
41322W        W 9716  26.629   2.313   0.342
41323W        W 9717   7.133  29.204  14.922
41324W        W 9718   5.734  28.546   1.189
41325W        W 9719  44.522   3.316  11.057
41326W        W 9720   3.188  43.910  12.896
41327W        W 9721  32.332  15.162  12.508
41328W        W 9722   5.335   0.440  11.091
41329W        W 9723   8.359  36.356   3.680
41330W        W 9724  36.872   0.255  10.935
41331W        W 9725  31.408  30.900   1.913
41332W        W 9726  24.404   2.100   4.641
41333W        W 9727   8.653  15.769   4.272
41334W        W 9728  19.197  13.758  12.173
41335W        W 9729  43.458  36.632  11.415
41336W        W 9730  18.043  37.753  12.318
41337W        W 9731  35.510   1.520   1.047
41338W        W 9732  23.639  44.529  11.619
41339W        W 9733  23.720   9.278  10.289
41340W        W 9734  15.327  42.460  14.760
41341W        W 9735  40.030   5.911   3.635
41342W        W 9736   8.189  35.917   4.583
41343W        W 9737  11.874  13.834  13.029
41344W        W 9738  31.898  39.881  12.484
41345W        W 9739  44.426  11.344  11.252
41346W        W 9740   0.490  16.287   3.524
41347W        W 9741  40.381  31.731  10.564
41348W        W 9742  16.006  42.404   2.146
41349W        W 9743  31.571  43.294   4.524
41350W        W 9744  24.885  31.496  14.958
41351W        W 9745  33.613  38.817   4.495
41352W        W 9746  33.285  15.685  10.512
41353W        W 9747   6.547   1.876   3.230
41354W        W 9748  15.037  20.062   1.372
41355W        W 9749  39.366  27.560   4.508
41356W        W 9750  27.847  42.842   3.350
41357W        W 9751  25.537  20.517  14.851
41358W        W 9752   6.925  18.873  11.905
41359W        W 9753  20.499   5.882   1.267
41360W        W 9754  15.761  27.231  13.882
41361W        W 9755  35.865   1.372   4.436
41362W        W 9756  38.369   2.115  11.080
41363W        W 9757  41.362   2.239   1.139
41364W        W 9758  19.829   4.722   0.391
41365W        W 9759  13.126  28.095  13.976
41366W        W 9760   1.438  43.818   1.319
41367W        W 9761   7.643  17.677  11.627
41368W        W 9762   2.596   2.241  12.561
41369W        W 9763  39.582  32.171   4.362
41370W        W 9764  29.138  43.613  11.881
41371W        W 9765  23.149  38.514  11.109
41372W        W 9766  27.662   6.861   0.744
41373W        W 9767  39.322  26.478   3.574
41374W        W 9768   9.192  31.504   2.936
41375W        W 9769  29.148   7.216   3.266
41376W        W 9770  40.807  22.026  12.394
41377W        W 9771   5.815   6.457   4.370
41378W        W 9772  37.899  31.629   0.050
41379W        W 9773   8.219  19.254   1.688
41380W        W 9774   5.306  17.779   1.738
41381W        W 9775  44.578  32.037  10.775
41382W        W 9776  38.055   3.135  13.852
41383W        W 9777  31.260  34.581  12.482
41384W        W 9778  36.505  14.378  10.936
41385W        W 9779  37.488  31.677  11.932
41386W        W 9780  27.109  19.855   1.010
41387W        W 9781  26.502  27.640   1.324
41388W        W 9782  19.684  34.057   0.455
41389W        W 9783  11.897  39.084  14.994
41390W        W 9784  43.367  25.968   1.606
41391W        W 9785  21.612  13.642  10.936
41392W        W 9786  15.572  20.994   4.147
41393W        W 9787  37.435  13.648   4.640
41394W        W 9788  10.322  44.473   4.585
41395W        W 9789  13.228  16.046   4.576
41396W        W 9790  26.144  28.598  14.329
41397W        W 9791  12.746  43.029  13.054
41398W        W 9792   3.233  38.217  12.550
41399W        W 9793  22.084  28.537   3.268
41400W        W 9794  15.350  16.302   0.723
41401W        W 9795  34.935  41.231   0.738
41402W        W 9796   7.742  10.817   0.337
41403W        W 9797  36.890  21.059   4.073
41404W        W 9798  15.208  43.363   0.747
41405W        W 9799  30.458  26.563   4.087
41406W        W 9800  24.918  23.705   0.762
41407W        W 9801   2.481  28.853   0.394
41408W        W 9802  11.618  42.470  11.654
41409W        W 9803   2.526  12.775  11.766
41410W        W 9804  35.773  33.843  12.854
41411W        W 9805  40.874  43.887   0.798
41412W        W 9806   4.548  21.685   0.766
41413W        W 9807  41.306  33.668  12.392
41414W        W 9808  25.151  37.911   4.683
41415W        W 9809   1.820  40.313  13.348
41416W        W 9810  44.862   1.943  12.633
41417W        W 9811  18.165  18.132  14.304
41418W        W 9812  22.689   9.889  12.482
41419W        W 9813  17.317  28.801   4.253
41420W        W 9814  41.533   7.947   4.673
41421W        W 9815  40.750  19.585  10.346
41422W        W 9816   1.031  39.394   2.782
41423W        W 9817  17.293  37.372   0.583
41424W        W 9818   2.520  27.065   2.437
41425W        W 9819  13.188  10.825  13.399
41426W        W 9820  20.240   5.919  14.446
41427W        W 9821   6.169  10.837   3.249
41428W        W 9822  18.164  42.946   0.678
41429W        W 9823  12.767  30.091  13.814
41430W        W 9824   2.981  40.257  12.497
41431W        W 9825  42.928  14.403   0.802
41432W        W 9826  19.510  14.024  14.507
41433W        W 9827  13.235  36.151  13.986
41434W        W 9828  27.471  16.241   0.973
41435W        W 9829  37.062  25.951  10.620
41436W        W 9830  11.257  25.987   1.944
41437W        W 9831  43.428  20.949   3.738
41438W        W 9832  35.529  10.386   0.232
41439W        W 9833   6.004  19.975  11.975
41440W        W 9834  29.685  15.819   4.640
41441W        W 9835  29.266  13.747  11.890
41442W        W 9836  10.995  14.788  12.879
41443W        W 9837  37.105  30.602  10.739
41444W        W 9838  33.798  17.806  13.017
41445W        W 9839  20.027  33.157  12.820
41446W        W 9840  42.008  38.540  10.471
41447W        W 9841  19.077  32.739   2.698
41448W        W 9842  20.384  44.983   1.768
41449W        W 9843   2.822  15.144   2.258
41450W        W 9844  21.126  22.257  10.112
41451W        W 9845  28.831  24.518  11.591
41452W        W 9846  10.349   4.688   2.389
41453W        W 9847  28.383  22.419  12.653
41454W        W 9848  44.723  10.271  12.903
41455W        W 9849  42.415   5.957   1.846
41456W        W 9850   3.544  27.234   1.367
41457W        W 9851  44.347   0.245   1.435
41458W        W 9852  26.131  19.784   2.594
41459W        W 9853  43.042  44.913  10.825
41460W        W 9854   7.929  20.808   3.116
41461W        W 9855   5.936  43.518  12.955
41462W        W 9856   0.376  28.956   1.603
41463W        W 9857   1.225   3.797  12.369
41464W        W 9858  19.588   1.036   1.721
41465W        W 9859  20.173   1.205   2.247
41466W        W 9860  25.768  18.732  11.212
41467W        W 9861  20.217  30.942   2.858
41468W        W 9862   7.811  31.452   5.017
41469W        W 9863  16.100  43.018   3.009
41470W        W 9864  32.156  32.981  14.858
41471W        W 9865  23.678  25.070   3.776
41472W        W 9866   9.513  35.635  14.409
41473W        W 9867  27.082  37.603   0.119
41474W        W 9868  31.940  27.649   0.432
41475W        W 9869  12.475  30.162  11.317
41476W        W 9870  27.187  42.611   3.652
41477W        W 9871  43.344  13.126  14.114
41478W        W 9872   6.708  19.485   4.393
41479W        W 9873  43.478  15.312   0.493
41480W        W 9874  20.836  19.191  13.286
41481W        W 9875  34.889  36.335  13.929
41482W        W 9876  32.529  16.326  10.530
41483W        W 9877  27.774  31.664   1.294
41484W        W 9878  13.558  14.132   2.696
41485W        W 9879  43.333  17.222   3.382
41486W        W 9880  42.241  12.952  12.128
41487W        W 9881  34.584   8.791  11.539
41488W        W 9882   8.317  33.873   3.317
41489W        W 9883  29.233  14.542   1.285
41490W        W 9884  36.837  15.788  10.485
41491W        W 9885  29.948  28.490  13.427
41492W        W 9886  28.441  31.939   0.320
41493W        W 9887  36.431  43.501  13.465
41494W        W 9888  26.510  31.946  13.483
41495W        W 9889  41.591  39.877  14.833
41496W        W 9890  24.571  30.964   2.344
41497W        W 9891   3.774  44.904   0.816
41498W        W 9892   4.822   0.697   2.923
41499W        W 9893   0.393   3.854   3.335
41500W        W 9894   5.871   6.929   1.253
41501W        W 9895  12.059   7.216  14.247
41502W        W 9896  27.913  28.475   3.246
41503W        W 9897   4.959  24.245  10.592
41504W        W 9898   8.288  21.568  11.180
41505W        W 9899  12.854  15.682  10.873
41506W        W 9900  38.776   8.731  13.421
41507W        W 9901  41.996   6.229  11.649
41508W        W 9902  17.569  16.861  13.425
41509W        W 9903  25.160  31.083  14.777
41510W        W 9904  44.532  29.991  14.033
41511W        W 9905  24.316  23.412  11.998
41512W        W 9906  19.059  37.020  12.559
41513W        W 9907  19.559  39.125  13.597
41514W        W 9908   9.702  13.799   1.981
41515W        W 9909  38.525  32.543  13.074
41516W        W 9910  12.661  43.460   3.598
41517W        W 9911  26.413  30.598   2.346
41518W        W 9912  43.425  33.354  13.386
41519W        W 9913  14.101  33.893  14.007
41520W        W 9914   4.447  21.538  10.477
41521W        W 9915  44.827   9.583  13.593
41522W        W 9916  19.112  13.601   1.812
41523W        W 9917  43.060  37.612   3.556
41524W        W 9918   7.702  42.591   3.361
41525W        W 9919  29.680  41.214  13.966
41526W        W 9920  28.058  12.779  14.720
41527W        W 9921  14.228  44.829   1.722
41528W        W 9922  15.127  31.880   2.434
41529W        W 9923  40.823   3.607   3.845
41530W        W 9924  27.435   1.765   0.461
41531W        W 9925  31.600  27.382   4.659
41532W        W 9926  10.288   7.577  10.461
41533W        W 9927  23.761  27.607   1.886
41534W        W 9928  21.826  11.861  12.437
41535W        W 9929   4.828  32.601  13.073
41536W        W 9930  31.078  22.760   3.723
41537W        W 9931  16.775  33.492   4.985
41538W        W 9932  27.719  13.371  12.434
41539W        W 9933  14.228  25.214  12.906
41540W        W 9934  32.754  25.588  12.507
41541W        W 9935   0.948   0.927  13.764
41542W        W 9936  24.694  44.621  11.046
41543W        W 9937  25.028  40.556  14.521
41544W        W 9938  31.224  17.654   1.730
41545W        W 9939   8.887  17.073   1.739
41546W        W 9940  10.197   2.846   1.757
41547W        W 9941  11.344  24.473  12.963
41548W        W 9942  32.073   8.056   4.571
41549W        W 9943  44.890   9.806  11.906
41550W        W 9944  10.755  12.667   1.097
41551W        W 9945  43.411  10.035   1.757
41552W        W 9946  28.835  32.311  12.552
41553W        W 9947  10.052  34.667  14.955
41554W        W 9948  26.648  22.013   0.661
41555W        W 9949  27.708  10.094  12.185
41556W        W 9950  37.000  26.784   1.934
41557W        W 9951   6.859   6.094   5.037
41558W        W 9952  14.732  38.539  14.491
41559W        W 9953  27.783  21.599   9.925
41560W        W 9954   7.963   9.703  13.231
41561W        W 9955   3.738  23.293  11.132
41562W        W 9956  38.478  37.071   3.872
41563W        W 9957   9.887  31.320   1.842
41564W        W 9958  40.624  30.158   0.353
41565W        W 9959  41.911  42.956  11.712
41566W        W 9960  18.420   0.492   0.132
41567W        W 9961  18.797  27.975   0.417
41568W        W 9962  11.248  23.526   3.098
41569W        W 9963  20.685  23.647  14.719
41570W        W 9964   2.200  21.554  13.404
41571W        W 9965   1.340  25.609   2.174
41572W        W 9966   7.811  31.021   0.738
41573W        W 9967  28.583   1.253  11.927
41574W        W 9968   4.927  27.811   3.468
41575W        W 9969  16.747  11.007   4.123
41576W        W 9970  14.279   3.435  13.991
41577W        W 9971  24.918  20.726  14.762
41578W        W 9972  30.429  30.535   3.310
41579W        W 9973  27.301  10.307  11.952
41580W        W 9974  27.624  22.245  14.864
41581W        W 9975  32.449   3.413   0.357
41582W        W 9976  41.835  27.614  13.538
41583W        W 9977  30.908  12.153   4.450
41584W        W 9978  37.844  25.159  14.829
41585W        W 9979   2.383   8.294  12.981
41586W        W 9980  28.862  26.127   0.787
41587W        W 9981  22.708  15.361   0.613
41588W        W 9982   5.738  17.149   0.891
41589W        W 9983   2.920  43.581   1.213
41590W        W 9984  36.616  22.038  10.733
41591W        W 9985   5.090  27.081  12.174
41592W        W 9986  36.534  14.735  11.683
41593W        W 9987  44.404  43.127   3.203
41594W        W 9988   3.991  33.189   3.751
41595W        W 9989  44.627  24.516   0.347
41596W        W 9990   5.424  21.507  12.570
41597W        W 9991  26.660  11.213   2.219
41598W        W 9992  32.462   1.797  13.999
41599W        W 9993  23.457  23.333   1.016
41600W        W 9994  37.389  26.850   0.761
41601W        W 9995   1.921  42.441   3.257
41602W        W 9996  17.635  44.144   3.319
41603W        W 9997  34.604  10.890   2.619
41604W        W 9998  35.814   4.627   0.443
41605W        W 9999  18.685  38.794   3.595
41606W        W10000   5.337  20.500  11.569
41607W        W10001  33.482  30.679  14.990
41608W        W10002  20.586  34.292   0.327
41609W        W10003  34.991  31.672   4.300
41610W        W10004   4.748  15.329  13.865
41611W        W10005   1.602  19.182   3.734
41612W        W10006  40.355   2.889   0.716
41613W        W10007   2.423  20.116   3.340
41614W        W10008  18.756   8.204  14.567
41615W        W10009  15.511  44.287   0.100
41616W        W10010  26.844  40.884  14.117
41617W        W10011  27.912  19.731  13.571
41618W        W10012  37.756  42.543   3.817
41619W        W10013  24.879  35.876   4.791
41620W        W10014  24.459  24.705  13.435
41621W        W10015  39.332  41.983   0.747
41622W        W10016   2.672  37.606   3.734
41623W        W10017  42.382  14.018   3.612
41624W        W10018   7.896  36.311   1.422
41625W        W10019  27.410  44.344  11.684
41626W        W10020  32.969  36.650  14.700
41627W        W10021  43.952  40.912   2.247
41628W        W10022  20.625  30.013  14.364
41629W        W10023   3.837  18.538   3.787
41630W        W10024  25.942  42.587   2.393
41631W        W10025   0.119   2.954  10.773
41632W        W10026  31.469  27.373   4.159
41633W        W10027   9.630  34.177  12.962
41634W        W10028  31.578  17.025  14.329
41635W        W10029  25.990  27.990  12.020
41636W        W10030  25.444  39.351  14.915
41637W        W10031  39.474  13.193  12.163
41638W        W10032  16.849  29.323  13.416
41639W        W10033   9.740  36.411  13.969
41640W        W10034  36.978  17.925   0.594
41641W        W10035  15.224  37.657   3.222
41642W        W10036  17.999  38.277   0.424
41643W        W10037  11.282  23.532   4.063
41644W        W10038  13.683  36.597   1.362
41645W        W10039   9.251  36.573  13.923
41646W        W10040  12.872  43.969  12.480
41647W        W10041  29.012   9.384  12.541
41648W        W10042  37.963  27.988   1.187
41649W        W10043  19.768  37.567   4.596
41650W        W10044  34.185  18.756  13.103
41651W        W10045  35.659  30.159  12.041
41652W        W10046  31.018  22.136   4.147
41653W        W10047  10.513   8.278   3.161
41654W        W10048  35.615  28.773   3.180
41655W        W10049  30.384  23.032   4.821
41656W        W10050   3.470  39.641  11.185
41657W        W10051  30.706  41.308   3.713
41658W        W10052  39.972  21.244   0.981
41659W        W10053  21.742  20.174  13.996
41660W        W10054  29.939   0.884  11.614
41661W        W10055  11.503  21.604   1.098
41662W        W10056  28.084  20.787   1.351
41663W        W10057  15.301  26.106   3.449
41664W        W10058  41.509   0.826  14.296
41665W        W10059  34.208  37.430   4.873
41666W        W10060  29.454   6.819  13.303
41667W        W10061   7.727  43.553   2.479
41668W        W10062  15.430  43.999   3.405
41669W        W10063  13.127  19.662   4.175
41670W        W10064   7.277  19.758   2.632
41671W        W10065  10.706  23.087  12.445
41672W        W10066  25.673  26.086  14.762
41673W        W10067  44.828  21.162  12.197
41674W        W10068  29.406  18.267   5.024
41675W        W10069  32.429  40.315   0.680
41676W        W10070  35.795  28.563   1.458
41677W        W10071  28.537  18.023   1.820
41678W        W10072   1.768   7.383  12.568
41679W        W10073   6.406  12.600  12.291
41680W        W10074  37.967  42.342   3.264
41681W        W10075  27.542  20.338  14.214
41682W        W10076  12.331  14.000   2.529
41683W        W10077  33.023   2.215  11.993
41684W        W10078   3.421  38.635   1.866
41685W        W10079   9.839  21.022  10.636
41686W        W10080  21.202  14.069  10.696
41687W        W10081  40.778  31.995   1.955
41688W        W10082  23.829   4.641   0.982
41689W        W10083  20.794  22.244   0.176
41690W        W10084  39.470   9.481   2.829
41691W        W10085   1.930  12.689   1.331
41692W        W10086   9.431  20.546   1.915
41693W        W10087  17.922  21.051   0.946
41694W        W10088  16.535   9.146  14.329
41695W        W10089  41.929  26.168   2.792
41696W        W10090  37.679  35.950   3.926
41697W        W10091   7.771  39.351   2.767
41698W        W10092  12.385  42.474   3.802
41699W        W10093  23.908  42.111   3.281
41700W        W10094  24.047  22.207   2.174
41701W        W10095  10.492   3.052  12.063
41702W        W10096  28.068  23.627  11.079
41703W        W10097  44.028  43.549  12.136
41704W        W10098   0.160  38.447  12.962
41705W        W10099  43.561  40.205   5.128
41706W        W10100   8.952  16.147   4.008
41707W        W10101  31.358  10.188   2.216
41708W        W10102  43.326  43.801   3.606
41709W        W10103  30.126   6.234  10.801
41710W        W10104  18.272  31.366   2.820
41711W        W10105  34.066   7.360  13.819
41712W        W10106  13.352   0.944   4.414
41713W        W10107  41.412  13.019   5.000
41714W        W10108   9.292  20.784   4.727
41715W        W10109  30.534  43.259   1.800
41716W        W10110  44.400  21.625   0.299
41717W        W10111  26.997  14.862  13.910
41718W        W10112  15.078   5.611   0.121
41719W        W10113  38.900  41.606   1.441
41720W        W10114  36.226  20.688   5.026
41721W        W10115  15.277  36.542  14.293
41722W        W10116  27.962  18.457  11.679
41723W        W10117  10.848   8.450  11.237
41724W        W10118  42.366  39.948   0.727
41725W        W10119   7.331  23.036  10.576
41726W        W10120  40.920  10.597   4.323
41727W        W10121  21.563  16.137   2.123
41728W        W10122   3.073  35.473   4.165
41729W        W10123   2.696  38.722   1.234
41730W        W10124   6.273  16.754  10.994
41731W        W10125  15.385  26.932  13.425
41732W        W10126  20.350  33.455   4.134
41733W        W10127  22.212  28.037   3.276
41734W        W10128   2.674  17.388   5.149
41735W        W10129  10.370  29.537   0.833
41736W        W10130  38.472  38.334  13.332
41737W        W10131  16.344  40.089  13.923
41738W        W10132  44.650   4.755   3.726
41739W        W10133  14.095  43.096  11.217
41740W        W10134   1.155  24.365   5.070
41741W        W10135  37.005   4.397  14.021
41742W        W10136  35.302   1.205  12.024
41743W        W10137  14.554  18.625  11.179
41744W        W10138   3.958  44.284  13.468
41745W        W10139  31.667  21.686  14.501
41746W        W10140  35.493  28.965   0.867
41747W        W10141   8.177  41.388  12.535
41748W        W10142   4.910   4.506   3.130
41749W        W10143  12.764  13.386   1.194
41750W        W10144  44.070   1.277  13.798
41751W        W10145  22.536  31.379   0.249
41752W        W10146  32.248  42.328  14.926
41753W        W10147  29.329  44.605  11.890
41754W        W10148  14.700  37.438  13.085
41755W        W10149   5.128  42.806   2.799
41756W        W10150   9.398  29.268   2.375
41757W        W10151  24.540  25.529  12.416
41758W        W10152  32.149  20.053  12.042
41759W        W10153  44.747  22.911  11.003
41760W        W10154  15.381  38.112   1.418
41761W        W10155  23.049  17.544   3.159
41762W        W10156   0.521  20.106  11.203
41763W        W10157   0.208   7.777  14.999
41764W        W10158  31.510  36.984   4.396
41765W        W10159  16.018   8.289   1.820
41766W        W10160  15.116   4.880   4.590
41767W        W10161   9.845  41.896  13.111
41768W        W10162  16.129  17.224   1.222
41769W        W10163   6.700   1.740  12.943
41770W        W10164  16.781  18.515  12.407
41771W        W10165  16.042  25.203  14.503
41772W        W10166   1.961  12.993   0.905
41773W        W10167  37.199  37.935  13.407
41774W        W10168   6.315  32.512   1.918
41775W        W10169  17.128  35.120   2.685
41776W        W10170   1.945  38.173   0.825
41777W        W10171  37.957  42.646   1.793
41778W        W10172  15.715  23.277  11.180
41779W        W10173  27.450  10.912   1.879
41780W        W10174  26.831   1.959  14.450
41781W        W10175  14.763  17.768  12.180
41782W        W10176  37.365  14.895  13.988
41783W        W10177  42.367   1.808  11.104
41784W        W10178  36.161  31.579  14.823
41785W        W10179  40.372   8.655   1.665
41786W        W10180   6.332  15.452  10.270
41787W        W10181  14.793  17.728   2.263
41788W        W10182  17.532  32.560  11.550
41789W        W10183  33.524  10.149  14.423
41790W        W10184  12.959  19.678   0.479
41791W        W10185  18.826  16.654   4.338
41792W        W10186  25.115   0.281   0.614
41793W        W10187  15.300  34.896   3.406
41794W        W10188  28.526  13.855   4.107
41795W        W10189  23.400  34.232   0.418
41796W        W10190  10.296  16.045  13.266
41797W        W10191  33.895   3.920  13.009
41798W        W10192   8.546  36.314   4.580
41799W        W10193  16.781  39.941  12.050
41800W        W10194  19.213  11.322  14.591
41801W        W10195   5.359  14.145   0.822
41802W        W10196  39.355  42.845   2.209
41803W        W10197   4.191  25.083  11.640
41804W        W10198  31.490  36.045   4.597
41805W        W10199  39.617  44.930  13.528
41806W        W10200  15.321  14.734   3.915
41807W        W10201  34.929  25.453   4.949
41808W        W10202  17.612  41.767   2.161
41809W        W10203  38.819  40.516   4.025
41810W        W10204  24.795  35.982   2.614
41811W        W10205  44.248  35.423  12.414
41812W        W10206  24.727   2.010   1.330
41813W        W10207  35.490   6.718   4.197
41814W        W10208  22.199   5.278  13.416
41815W        W10209  41.812  42.638   1.741
41816W        W10210  11.351  34.755  11.197
41817W        W10211  15.097  30.211  10.525
41818W        W10212  18.785  30.927   4.719
41819W        W10213   7.129  24.744   0.238
41820W        W10214  28.973   7.689   1.341
41821W        W10215   5.812  29.748   3.942
41822W        W10216   5.036  23.365  11.562
41823W        W10217  22.666  39.062   5.101
41824W        W10218  30.497  43.505  13.088
41825W        W10219  20.723  42.247  13.807
41826W        W10220   6.283  24.607   0.672
41827W        W10221  24.077   4.214   3.172
41828W        W10222   3.151   6.270  11.072
41829W        W10223  14.826   6.335  12.695
41830W        W10224   7.718   5.154   0.995
41831W        W10225   8.127  18.566  11.526
41832W        W10226   5.677  28.065  14.753
41833W        W10227  11.368  25.160   4.489
41834W        W10228   4.645  35.864  11.051
41835W        W10229   9.033  39.410  13.902
41836W        W10230  19.282   2.194  12.983
41837W        W10231   0.271  42.341  11.130
41838W        W10232  18.094   1.998   3.843
41839W        W10233  13.325   3.194  14.403
41840W        W10234   2.456  30.973  14.850
41841W        W10235  38.543  44.847   4.063
41842W        W10236  33.895  25.041   1.706
41843W        W10237  22.103  15.122   2.367
41844W        W10238  25.752  42.383   1.423
41845W        W10239  44.701  39.846   1.032
41846W        W10240  12.844  15.341   3.673
41847W        W10241  24.024   0.534   0.880
41848W        W10242  36.082   3.123   3.284
41849W        W10243  40.173  33.920  14.262
41850W        W10244  13.651   5.678  14.805
41851W        W10245   1.209  25.416  10.957
41852W        W10246  43.783   5.567  14.047
41853W        W10247  11.030  38.937   1.884
41854W        W10248  25.470  24.165   0.941
41855W        W10249  32.950  41.290  12.539
41856W        W10250  33.064  19.254  10.791
41857W        W10251  31.704  22.759   4.332
41858W        W10252   2.848  27.069  14.220
41859W        W10253  25.013  42.879   2.916
41860W        W10254  35.512  44.038  12.563
41861W        W10255  23.426   2.202   2.803
41862W        W10256  18.067  44.294  14.775
41863W        W10257  30.137   6.915  11.052
41864W        W10258  11.725  18.556  14.060
41865W        W10259  12.693  17.625   0.724
41866W        W10260   3.925  16.593   5.219
41867W        W10261  44.490  18.076  10.244
41868W        W10262   4.180   9.482  11.226
41869W        W10263  20.416   0.261  13.350
41870W        W10264  30.153   6.469   1.761
41871W        W10265   3.270  40.936   3.184
41872W        W10266  39.782  41.443  12.315
41873W        W10267  44.958  28.691  11.892
41874W        W10268  43.715   0.916   3.754
41875W        W10269   7.780  42.313   2.479
41876W        W10270  21.304  36.033   2.736
41877W        W10271  33.433   2.158   0.932
41878W        W10272  34.325  33.523   1.692
41879W        W10273  30.941  13.378  14.935
41880W        W10274  39.603  25.618   1.775
41881W        W10275  28.694  26.206  10.726
41882W        W10276  40.878  43.422   3.206
41883W        W10277   9.837  24.787  12.302
41884W        W10278  35.567  12.131   1.911
41885W        W10279  11.404  24.781   3.061
41886W        W10280  31.798  44.389  14.503
41887W        W10281  20.327  38.493   0.462
41888W        W10282  22.769  41.841  11.644
41889W        W10283   6.652  19.225  11.641
41890W        W10284  38.903  25.921   1.477
41891W        W10285  30.883  25.576   4.276
41892W        W10286  32.021   2.322  11.957
41893W        W10287  37.387  39.480   4.367
41894W        W10288   7.313  37.908  14.290
41895W        W10289  18.469  11.541   1.118
41896W        W10290   3.442  11.141   2.499
41897W        W10291  14.626   1.445   1.200
41898W        W10292  28.203  24.457   2.005
41899W        W10293   5.782  26.544  14.915
41900W        W10294  40.369  22.120   0.409
41901W        W10295  38.954  23.712  10.213
41902W        W10296   9.183  25.707  13.963
41903W        W10297  43.786  14.572   3.910
41904W        W10298  39.554  23.470   3.101
41905W        W10299  35.777  14.188  11.229
41906W        W10300  27.706  13.363   1.463
41907W        W10301   0.764   3.415   0.934
41908W        W10302  42.771  25.516   0.950
41909W        W10303   6.936  26.723   4.993
41910W        W10304   7.156   0.023   0.405
41911W        W10305  11.773  26.586  10.628
41912W        W10306   3.931   6.225   4.366
41913W        W10307  24.108  21.118   2.115
41914W        W10308  38.433  31.929   1.427
41915W        W10309   6.075  25.990  14.363
41916W        W10310  26.464  16.740   2.308
41917W        W10311   6.908  29.250  10.800
41918W        W10312  22.302  13.056   0.486
41919W        W10313  34.077  33.641  12.581
41920W        W10314  25.136  27.180   3.128
41921W        W10315  18.023   4.889  12.871
41922W        W10316  11.664  15.952   4.557
41923W        W10317   3.864  11.094  12.996
41924W        W10318  22.735  22.048  12.213
41925W        W10319  23.738  21.231  13.387
41926W        W10320  22.546  41.812  14.814
41927W        W10321  21.319   0.438  13.951
41928W        W10322  19.816  39.089   4.204
41929W        W10323   9.143  19.522  12.443
41930W        W10324  22.123  38.910   4.007
41931W        W10325  41.585   0.126   0.873
41932W        W10326  16.824  25.060  13.886
41933W        W10327  21.184  23.692  11.474
41934W        W10328  18.470  11.406   4.208
41935W        W10329  24.690  24.891  10.760
41936W        W10330  18.381   9.208   1.943
41937W        W10331  19.298  14.380   1.293
41938W        W10332   8.344  24.840  14.872
41939W        W10333   4.875  44.185   4.567
41940W        W10334  15.946  12.938  13.337
41941W        W10335  10.699   8.161   4.774
41942W        W10336  15.982  43.347  10.999
41943W        W10337   2.279  10.282  12.975
41944W        W10338  28.413  21.149   1.156
41945W        W10339   8.391  19.640   3.847
41946W        W10340  26.205  18.838   3.716
41947W        W10341  32.675   7.153  12.862
41948W        W10342  27.450  21.414  14.509
41949W        W10343  38.487  30.560  12.181
41950W        W10344  23.213  20.346  13.245
41951W        W10345  21.252  17.682  11.608
41952W        W10346  43.045  36.006   4.081
41953W        W10347  44.392  38.395   0.409
41954W        W10348  33.175  43.351   4.523
41955W        W10349  38.414  24.128  12.376
41956W        W10350  29.615  26.506   4.974
41957W        W10351  27.413   3.875   3.604
41958W        W10352   7.778   2.016   1.431
41959W        W10353  17.619  32.853  14.269
41960W        W10354  19.116  19.302  14.738
41961W        W10355  35.058  23.084   2.185
41962W        W10356   7.344   8.107   0.686
41963W        W10357  10.784  37.466   1.983
41964W        W10358  40.257  24.410  11.978
41965W        W10359  21.360  13.148   0.810
41966W        W10360  29.004  34.193   1.155
41967W        W10361  29.831  39.021  12.137
41968W        W10362  16.368  10.226   1.660
41969W        W10363  22.106  37.256   1.229
41970W        W10364   9.220  32.198  10.621
41971W        W10365  13.577   2.939  13.422
41972W        W10366  10.455  15.544   5.096
41973W        W10367  11.366  37.921  13.529
41974W        W10368   8.124  23.733   1.146
41975W        W10369  16.529  27.677  14.844
41976W        W10370   1.349  43.660  11.869
41977W        W10371   1.904  17.330   1.468
41978W        W10372  24.980   2.946   1.779
41979W        W10373  11.327  27.960  12.891
41980W        W10374   8.286  43.022  13.914
41981W        W10375  28.257  29.633   1.266
41982W        W10376  38.348  40.416  10.606
41983W        W10377  41.621  22.710  11.602
41984W        W10378  30.060  25.079   4.423
41985W        W10379   0.512  18.143  12.913
41986W        W10380  39.764  33.881  11.369
41987W        W10381   6.084   0.480   4.250
41988W        W10382  36.635   2.251  13.680
41989W        W10383   0.746  13.681   2.649
41990W        W10384   0.766  39.380   5.039
41991W        W10385   7.666  26.919  12.053
41992W        W10386   6.163  17.743   1.839
41993W        W10387  43.915  43.740  13.779
41994W        W10388  29.422   6.715  12.816
41995W        W10389   2.759   6.229   3.586
41996W        W10390   6.761  16.166   1.406
41997W        W10391   9.629  15.093   0.293
41998W        W10392  10.709  39.656   4.111
41999W        W10393  44.262   5.875   4.960
42000W        W10394  41.594   8.957   2.304
42001W        W10395   9.686  42.801   0.294
42002W        W10396  29.517  24.460   4.195
42003W        W10397  36.856  22.683  13.874
42004W        W10398  32.223  33.501  10.625
42005W        W10399   0.382  20.177  10.342
42006W        W10400  14.249   5.697   2.302
42007W        W10401  26.512   3.496  10.319
42008W        W10402  25.484  38.976  10.686
42009W        W10403  23.081  28.989  10.894
42010W        W10404  17.583  21.047   2.742
42011W        W10405  10.672  19.700  13.139
42012W        W10406  25.595  32.440  10.592
42013W        W10407  28.957  42.508   0.408
42014W        W10408  22.067  43.315   4.619
42015W        W10409   9.156  31.430  12.915
42016W        W10410  40.714  26.188   4.216
42017W        W10411  20.074  23.470   5.021
42018W        W10412  23.304  44.801   4.916
42019W        W10413  22.376  37.623   4.320
42020W        W10414  29.236  15.180  13.485
42021W        W10415   0.871  31.478  11.868
42022W        W10416  22.938   1.741   0.828
42023W        W10417  12.632  17.017  12.857
42024W        W10418  35.933  42.874   0.064
42025W        W10419  40.707  18.341  10.147
42026W        W10420  31.083  16.565  11.178
42027W        W10421  32.436  29.082   0.283
42028W        W10422   0.701  21.036   9.981
42029W        W10423   5.912  28.013   0.399
42030W        W10424  26.710  10.142  14.833
42031W        W10425  33.926  13.190  11.060
42032W        W10426  29.508  36.437   4.893
42033W        W10427  18.313  31.662  13.925
42034W        W10428  44.254  32.386  12.050
42035W        W10429   5.513  44.994  11.314
42036W        W10430  32.451   9.622  10.896
42037W        W10431   6.285  26.520  11.827
42038W        W10432  33.118  20.122   4.193
42039W        W10433  22.748  43.039   0.379
42040W        W10434  15.797  21.009   3.284
42041W        W10435  44.978  29.459   3.695
42042W        W10436  32.950  36.435  10.879
42043W        W10437  30.433  32.480  14.708
42044W        W10438  36.859  28.904  14.837
42045W        W10439  19.296  44.952  14.950
42046W        W10440  24.768  24.556   2.876
42047W        W10441   6.445  17.198  11.184
42048W        W10442   4.850  29.574   0.533
42049W        W10443  39.367   0.999  12.978
42050W        W10444  21.736  36.977  11.277
42051W        W10445  25.577   2.753   3.850
42052W        W10446  23.799  28.663   4.541
42053W        W10447  44.313  34.451  14.121
42054W        W10448  28.878  18.732   1.567
42055W        W10449  34.694  33.416  14.728
42056W        W10450   6.392  31.370   1.591
42057W        W10451  44.217  10.134   3.669
42058W        W10452  36.851  12.089  10.664
42059W        W10453  20.246  22.083   3.968
42060W        W10454  28.699  35.153  13.071
42061W        W10455  37.563  17.901  12.614
42062W        W10456   5.128  14.275  11.618
42063W        W10457   4.312  40.535  11.473
42064W        W10458   6.370   0.391  13.822
42065W        W10459  26.779   2.485   1.656
42066W        W10460   5.868  25.632  14.030
42067W        W10461  15.225   9.304  12.247
42068W        W10462   1.706  38.596  14.413
42069W        W10463  22.947   1.447  12.905
42070W        W10464  14.478   3.374   1.772
42071W        W10465  27.390  32.876   2.363
42072W        W10466   6.754  23.730   0.782
42073W        W10467  27.088  13.689   2.828
42074W        W10468   5.904   5.696   0.303
42075W        W10469  35.151  15.845   3.538
42076W        W10470   9.252  19.784   0.908
42077W        W10471  43.247  44.003   0.279
42078W        W10472  25.662  31.965  14.816
42079W        W10473  33.874   8.211   1.172
42080W        W10474   5.389  31.964   4.676
42081W        W10475  19.384  22.804   0.787
42082W        W10476  39.322  22.947  10.908
42083W        W10477   1.603  36.655   0.777
42084W        W10478   5.376  40.869  12.130
42085W        W10479  25.693  34.785  14.169
42086W        W10480  20.312  21.180   5.070
42087W        W10481  27.638   4.318  11.831
42088W        W10482  29.636  10.034  10.638
42089W        W10483  25.659   6.337  12.084
42090W        W10484  18.703   7.340   0.329
42091W        W10485   2.444   7.748  14.432
42092W        W10486   9.191  30.942  14.837
42093W        W10487  18.946  23.547  11.245
42094W        W10488  15.715  20.206  11.660
42095W        W10489  22.926  39.003  11.765
42096W        W10490  25.791  21.671  11.649
42097W        W10491  22.481   0.950  14.167
42098W        W10492   0.714   4.451   4.581
42099W        W10493   3.965  29.024  13.478
42100W        W10494  22.197  41.757   0.281
42101W        W10495  13.172   0.741   0.464
42102W        W10496  18.528  24.663  12.070
42103W        W10497  44.087  24.982   4.762
42104W        W10498  36.470  33.564  10.752
42105W        W10499  33.439   3.922   4.113
42106W        W10500  39.659  36.526   0.287
42107W        W10501  31.044  17.229  12.965
42108W        W10502  24.840  43.972   0.351
42109W        W10503  28.667  32.815   1.846
42110W        W10504   9.844  25.667   4.020
42111W        W10505  19.587  24.467   3.326
42112W        W10506  21.979   9.871  11.501
42113W        W10507   5.895  12.791   3.666
42114W        W10508  16.146  19.713   0.425
42115W        W10509  22.503  14.213   2.368
42116W        W10510  43.554  13.313  10.672
42117W        W10511  15.867   0.944  12.821
42118W        W10512  42.668   2.250   3.134
42119W        W10513  38.108  40.594   3.288
42120W        W10514  38.716  40.462  11.928
42121W        W10515  14.347  23.595  10.049
42122W        W10516   2.160  27.676  14.364
42123W        W10517  36.442   1.858  11.946
42124W        W10518  21.020  10.576  11.416
42125W        W10519   8.894   8.796  14.891
42126W        W10520  30.914  23.933  11.217
42127W        W10521  40.083  21.575   4.089
42128W        W10522   1.156  24.056  12.473
42129W        W10523  12.660   1.708  10.751
42130W        W10524  11.169  20.618  11.895
42131W        W10525  27.510  43.033   3.686
42132W        W10526  33.185  39.858  11.088
42133W        W10527  30.828  40.028  10.426
42134W        W10528  29.527   7.295   0.537
42135W        W10529  18.112  32.377   0.019
42136W        W10530  11.442  35.544   4.539
42137W        W10531  30.975  38.576   0.930
42138W        W10532  19.166  37.430   0.541
42139W        W10533  25.186  44.755   0.659
42140W        W10534  41.431  14.868  13.811
42141W        W10535  27.672  15.669  10.420
42142W        W10536  28.881  24.199  14.752
42143W        W10537  30.448  26.723  14.148
42144W        W10538   2.462  31.100   3.032
42145W        W10539  36.360  30.474   1.221
42146W        W10540  14.181   1.381   3.637
42147W        W10541   7.348  13.181   0.812
42148W        W10542  22.589  34.069   0.707
42149W        W10543  40.049  36.168  14.704
42150W        W10544  16.042  34.184  11.092
42151W        W10545  18.002   0.984   1.276
42152W        W10546   0.357  42.070   2.774
42153W        W10547   5.722  29.133   1.837
42154W        W10548  17.662  20.309   4.838
42155W        W10549   8.128   1.314   4.597
42156W        W10550  26.986  37.946   3.095
42157W        W10551   4.571   6.475   5.102
42158W        W10552  25.509  42.434  11.136
42159W        W10553  22.450   6.304   3.837
42160W        W10554  34.979  42.741   0.683
42161W        W10555  26.416  25.508  14.981
42162W        W10556  19.383  39.856   9.954
42163W        W10557  20.867  41.396  10.428
42164W        W10558  21.941  23.444   4.599
42165W        W10559  13.232  34.171  11.675
42166W        W10560  32.805   1.915  10.741
42167W        W10561  12.565  10.184  11.032
42168W        W10562  16.569  36.840   2.688
42169W        W10563  39.436  36.443  11.176
42170W        W10564  31.707  34.106  14.381
42171W        W10565  25.843   9.651  12.128
42172W        W10566   5.272  32.537   4.095
42173W        W10567  37.529  29.028   4.675
42174W        W10568  12.141  39.083  12.411
42175W        W10569  42.742  40.385  14.719
42176W        W10570  33.649  18.131   4.681
42177W        W10571  39.057  15.019  12.165
42178W        W10572  14.337   6.294  11.654
42179W        W10573   6.641  37.199  11.546
42180W        W10574  15.964  30.653   1.355
42181W        W10575  43.560  37.142   1.449
42182W        W10576  40.610   9.189  13.528
42183W        W10577  15.127  37.111   0.444
42184W        W10578  25.358  32.165   0.218
42185W        W10579  27.489   4.642  12.911
42186W        W10580  38.459  40.982  12.419
42187W        W10581  43.262  19.136  14.965
42188W        W10582  34.177   1.309  13.307
42189W        W10583  37.513  33.037   4.763
42190W        W10584  41.964  35.369  14.180
42191W        W10585  35.874   6.864  10.681
42192W        W10586   1.361  43.526   4.502
42193W        W10587  30.534  21.395   5.074
42194W        W10588  34.097   3.839   0.965
42195W        W10589  40.240  22.672  13.662
42196W        W10590  20.253  43.960  13.946
42197W        W10591  34.083   3.325   3.669
42198W        W10592  34.410  37.517   0.899
42199W        W10593  19.678   2.425   0.262
42200W        W10594  14.784   3.762   1.161
42201W        W10595  13.186  31.392   0.889
42202W        W10596  11.448  36.304  14.053
42203W        W10597  31.076   5.453   2.868
42204W        W10598  21.993   3.931  14.774
42205W        W10599  15.183  26.211   4.972
42206W        W10600  44.780   2.832   0.987
42207W        W10601  15.223  43.067  12.322
42208W        W10602  16.754  11.094  10.707
42209W        W10603   4.155  33.659   1.104
42210W        W10604  14.737   0.054   2.384
42211W        W10605  10.546  17.576   3.114
42212W        W10606  22.786  36.788  11.180
42213W        W10607  44.975  27.612   4.065
42214W        W10608   0.612   9.838  12.373
42215W        W10609   0.265  14.770  12.987
42216W        W10610  17.274  39.807   3.740
42217W        W10611   9.433  22.817   0.554
42218W        W10612  27.462  42.545   2.008
42219W        W10613  17.045   5.804  14.935
42220W        W10614  30.374  11.242  14.053
42221W        W10615  33.392  15.201  11.590
42222W        W10616  25.476  14.599   4.611
42223W        W10617  17.508  38.511  11.830
42224W        W10618  33.852  21.426   0.830
42225W        W10619  14.317  32.098   1.708
42226W        W10620  26.197  25.833   4.269
42227W        W10621  21.299  12.622  10.149
42228W        W10622  32.759   6.092  12.252
42229W        W10623   1.993  21.664   4.820
42230W        W10624  41.835  42.859   2.226
42231W        W10625  44.699   3.723  12.505
42232W        W10626  14.005  11.482  14.957
42233W        W10627  36.468  14.393  14.019
42234W        W10628  29.196  39.011   4.691
42235W        W10629   5.378  24.421  13.543
42236W        W10630  28.596  34.615  14.383
42237W        W10631  21.265  32.606  14.664
42238W        W10632  27.035  24.217  11.515
42239W        W10633  28.558  29.956  13.117
42240W        W10634  23.033  32.909   4.181
42241W        W10635   6.371  18.476   3.546
42242W        W10636   0.202  15.909  10.333
42243W        W10637  33.470  10.878   4.516
42244W        W10638  36.520   9.364   4.089
42245W        W10639   4.812  43.649   2.649
42246W        W10640  44.523  10.142  12.461
42247W        W10641  13.291  33.478  12.084
42248W        W10642  31.986   2.217  11.442
42249W        W10643  15.556   7.279  10.888
42250W        W10644   5.891  39.089   1.547
42251W        W10645  20.330  25.436  12.329
42252W        W10646  41.490  14.833  14.830
42253W        W10647  44.485  36.126  13.629
42254W        W10648  27.133  25.549  13.894
42255W        W10649  10.663  22.109  13.295
42256W        W10650  24.474  44.903   3.820
42257W        W10651  33.539  25.268   0.033
42258W        W10652  39.897   6.963  13.298
42259W        W10653  39.443  13.077  14.058
42260W        W10654  35.114   0.685  13.365
42261W        W10655  37.856   1.908  11.059
42262W        W10656   4.942  12.353   0.715
42263W        W10657  12.806  34.019  13.218
42264W        W10658   8.072  19.462  14.928
42265W        W10659  40.688  43.184  11.446
42266W        W10660  16.140  25.580   0.253
42267W        W10661  26.404  28.096   1.535
42268W        W10662  28.472  37.819  13.999
42269W        W10663   9.932  17.298  13.838
42270W        W10664   0.777  33.040  12.648
42271W        W10665  10.288  16.567   2.641
42272W        W10666   4.001  34.630   0.498
42273W        W10667  29.116  22.089   3.782
42274W        W10668   5.282  19.545  10.612
42275W        W10669  17.195   1.339   4.556
42276W        W10670  14.206  20.620   0.640
42277W        W10671  44.431  12.911  12.550
42278W        W10672  31.686  21.268   0.271
42279W        W10673   6.645  13.683   3.220
42280W        W10674  27.061  31.650   0.915
42281W        W10675   9.870  35.965  14.206
42282W        W10676  12.256  12.591  11.691
42283W        W10677  25.603  35.267  12.521
42284W        W10678  13.125  44.547  12.475
42285W        W10679  14.383  36.780   9.929
42286W        W10680  31.454  24.153   3.680
42287W        W10681  42.585  39.758   2.133
42288W        W10682  33.112  14.177  12.043
42289W        W10683  23.552  29.369  12.491
42290W        W10684   2.039   6.267   2.416
42291W        W10685  23.344  21.382   3.887
42292W        W10686  44.799  10.293   2.843
42293W        W10687   3.691  10.757   1.274
42294W        W10688  40.333   5.150   2.399
42295W        W10689  17.652  28.176  12.450
42296W        W10690  41.519  12.266   2.705
42297W        W10691  34.051   0.724  14.457
42298W        W10692  41.845  40.219   2.464
42299W        W10693  40.904  19.295   2.668
42300W        W10694  16.105  15.224   2.113
42301W        W10695   3.374  23.003   0.821
42302W        W10696   1.347  25.471  14.240
42303W        W10697  13.261  22.679  12.479
42304W        W10698   5.190  28.887   0.464
42305W        W10699  17.108  12.261  14.302
42306W        W10700  10.652  21.012   2.962
42307W        W10701  39.575  14.127   0.832
42308W        W10702  19.390  15.892  14.230
42309W        W10703   5.960  12.910  10.634
42310W        W10704   4.491  31.463   1.735
42311W        W10705  18.049   5.685  14.917
42312W        W10706  30.244  30.481   1.227
42313W        W10707  10.286   6.275   3.600
42314W        W10708  33.313  33.864  11.519
42315W        W10709  24.085  43.033  10.273
42316W        W10710   6.350   6.000  14.255
42317W        W10711  43.813  23.436  12.937
42318W        W10712   0.358  13.645  12.537
42319W        W10713  44.726   8.009  12.607
42320W        W10714   8.946  10.183   0.446
42321W        W10715  37.076  26.634  11.723
42322W        W10716  29.189  26.342  13.844
42323W        W10717  28.970   9.201   0.826
42324W        W10718   1.048   6.655  14.997
42325W        W10719  17.291  28.152  13.776
42326W        W10720  21.620  31.058  12.175
42327W        W10721  35.394  18.119   1.360
42328W        W10722  14.564   1.692  12.139
42329W        W10723  20.272  16.470   3.225
42330W        W10724  25.147   7.918  12.802
42331W        W10725  19.868  40.205   3.322
42332W        W10726   7.464  20.789   4.568
42333W        W10727  23.771   9.721   1.738
42334W        W10728  32.395  26.526   1.919
42335W        W10729  33.626  21.746   2.927
42336W        W10730  36.854  16.495  11.118
42337W        W10731  26.567   5.921   2.786
42338W        W10732  40.566   9.834   3.850
42339W        W10733  41.842  34.993   3.763
42340W        W10734  21.130  20.188  13.970
42341W        W10735  10.272  35.009   0.496
42342W        W10736  28.941  28.069  13.019
42343W        W10737  18.329  28.481  14.962
42344W        W10738  12.640   6.734  12.137
42345W        W10739  15.307  19.292  10.252
42346W        W10740  36.770   9.170   0.369
42347W        W10741   9.800  16.531   3.443
42348W        W10742  44.139  14.220  10.294
42349W        W10743  17.836   4.734   3.674
42350W        W10744  31.980  14.377  10.229
42351W        W10745  18.805   9.104  10.696
42352W        W10746  19.561  18.988   5.164
42353W        W10747   4.194  40.893   3.217
42354W        W10748  31.494  44.669  10.222
42355W        W10749  25.678  29.077   4.593
42356W        W10750  39.567   0.589  11.090
42357W        W10751   4.153  21.584  13.502
42358W        W10752  11.127  36.937  13.650
42359W        W10753   3.795  26.957   4.394
42360W        W10754  25.564   5.690   3.198
42361W        W10755  26.729  13.768   0.935
42362W        W10756  12.763  39.307  14.904
42363W        W10757   0.585   1.650  14.461
42364W        W10758  36.056   5.232  14.606
42365W        W10759   3.911  41.875  12.140
42366W        W10760   9.350  38.543   4.048
42367W        W10761  35.954  33.815   4.342
42368W        W10762  28.251  31.555   4.196
42369W        W10763  33.837  43.349  14.085
42370W        W10764  36.888  13.889   1.002
42371W        W10765   8.878  24.965  14.007
42372W        W10766  33.532  12.080   4.169
42373W        W10767  31.788   1.897  12.122
42374W        W10768  33.060  29.696  14.883
42375W        W10769  17.304  22.750  11.619
42376W        W10770  26.428   1.464   4.733
42377W        W10771  37.322  31.204  11.881
42378W        W10772  12.545  23.249   4.776
42379W        W10773  14.470   9.930  13.794
42380W        W10774   0.839  41.380  12.348
42381W        W10775   9.629  23.473   2.260
42382W        W10776  21.312  27.210  14.309
42383W        W10777   0.250   7.393   0.785
42384W        W10778  13.690  12.812   2.789
42385W        W10779   8.348  42.543  11.199
42386W        W10780  43.754  22.400  11.046
42387W        W10781  13.819  22.736   4.619
42388W        W10782  27.573  11.334   0.728
42389W        W10783  37.584  29.155   2.591
42390W        W10784  43.751  14.757  12.357
42391W        W10785  13.755  26.080  12.727
42392W        W10786  37.305   1.680  11.980
42393W        W10787  14.366  20.400   2.821
42394W        W10788  38.821   4.125  14.230
42395W        W10789  10.863  38.838  14.840
42396W        W10790  41.469  35.953   3.292
42397W        W10791  15.054  44.962   3.261
42398W        W10792  21.702   5.220  13.555
42399W        W10793  30.507  41.354   0.744
42400W        W10794   2.856  32.473  14.018
42401W        W10795  14.838  30.569  13.834
42402W        W10796  11.057   9.676   4.740
42403W        W10797  23.776  32.634   4.083
42404W        W10798  13.913  11.599  11.641
42405W        W10799  22.778  32.617  12.002
42406W        W10800  34.876  34.986  11.600
42407W        W10801   2.976  21.797   2.877
42408W        W10802  19.199  38.289  12.883
42409W        W10803  32.657  29.534  10.555
42410W        W10804  14.769   9.790   1.399
42411W        W10805  14.376  21.877  13.849
42412W        W10806  31.014   6.914   4.534
42413W        W10807  10.375   0.358  11.946
42414W        W10808  17.544   4.258  10.691
42415W        W10809   4.922  31.957   0.822
42416W        W10810   7.682  10.634   1.649
42417W        W10811  28.741  31.441   2.580
42418W        W10812  29.084  30.880  14.499
42419W        W10813   9.816  23.981  14.333
42420W        W10814  38.834  29.541   0.578
42421W        W10815   6.768   5.094   4.934
42422W        W10816  27.961   6.485  12.100
42423W        W10817  40.407  30.420   2.187
42424W        W10818   0.252  36.432   3.722
42425W        W10819   2.931  15.525  12.515
42426W        W10820  43.411  13.792   4.606
42427W        W10821  26.397  17.079  13.563
42428W        W10822   1.731  28.543  11.032
42429W        W10823  42.882  11.304  14.728
42430W        W10824  43.950   5.121   4.209
42431W        W10825  24.053  36.387   2.195
42432W        W10826  32.620  23.636   4.170
42433W        W10827  20.674   5.861   4.725
42434W        W10828  17.682  17.562   2.915
42435W        W10829  27.438  19.877   4.176
42436W        W10830  10.088  39.841   4.799
42437W        W10831  27.121  44.530  14.459
42438W        W10832  36.920  20.625   3.760
42439W        W10833   1.776  43.888  12.549
42440W        W10834  44.755  10.910  12.567
42441W        W10835  19.027   0.831   3.943
42442W        W10836  13.638  13.910  14.774
42443W        W10837   7.097  12.828  14.014
42444W        W10838  22.672  29.042   2.194
42445W        W10839  35.276  23.457  12.694
42446W        W10840  11.658  18.069   4.301
42447W        W10841  15.231  29.688  14.955
42448W        W10842   8.263   3.906  12.978
42449W        W10843   3.935  14.011  10.969
42450W        W10844  38.084  30.031   2.395
42451W        W10845  34.553  32.096  11.684
42452W        W10846   6.890  12.095   3.247
42453W        W10847  20.479  18.557   2.266
42454W        W10848  30.390  36.000   1.799
42455W        W10849  28.987   9.200   3.869
42456W        W10850  11.793  41.846  13.592
42457W        W10851  15.760  35.381  10.703
42458W        W10852  38.814  22.077   0.181
42459W        W10853  43.652  10.750  14.412
42460W        W10854  38.497  18.290   0.756
42461W        W10855   0.391   5.590  14.402
42462W        W10856  12.397  28.479  13.058
42463W        W10857  27.049  12.403   1.490
42464W        W10858  40.882  38.875   2.771
42465W        W10859  38.370  24.178   3.205
42466W        W10860  38.784   4.754  12.345
42467W        W10861  28.928   6.702   3.266
42468W        W10862  24.049  17.710   4.985
42469W        W10863   2.011  18.702  13.583
42470W        W10864   6.458  42.720   3.251
42471W        W10865  25.559   7.224   4.051
42472W        W10866  38.754  25.650  10.817
42473W        W10867  35.631  26.113  14.813
42474W        W10868  40.022   6.761   1.734
42475W        W10869  22.025  27.457  12.874
42476W        W10870  31.437  32.408  12.057
42477W        W10871  31.559  15.353   2.175
42478W        W10872  27.184  44.833   0.425
42479W        W10873  42.040  11.565   2.760
42480W        W10874  43.596  40.868   1.311
42481W        W10875  26.585  28.078   1.047
42482W        W10876  38.143  24.584  12.592
42483W        W10877  20.145  44.101   3.214
42484W        W10878  12.255   4.947   2.631
42485W        W10879   8.971  17.650   0.626
42486W        W10880  17.179   5.338   2.278
42487W        W10881  20.510  10.368  12.606
42488W        W10882  39.060  10.329  13.818
42489W        W10883  19.016  22.049   2.349
42490W        W10884   7.498  37.056  10.711
42491W        W10885  31.420  22.280  13.743
42492W        W10886  17.027   9.973   2.163
42493W        W10887   8.466   1.883   5.040
42494W        W10888  24.747  42.404   1.221
42495W        W10889  20.639  18.570   3.291
42496W        W10890  22.700  44.901   1.497
42497W        W10891  20.602  36.497   1.908
42498W        W10892  42.253  15.078  10.939
42499W        W10893  25.596  31.397  11.494
42500W        W10894  15.111  38.910  12.502
42501W        W10895  18.660   7.558   0.820
42502W        W10896  24.301  15.215  12.429
42503W        W10897  12.647   4.905   4.114
42504W        W10898  17.271   9.208   4.814
42505W        W10899  27.039  10.087  12.384
42506W        W10900  30.730  19.169  12.616
42507W        W10901  18.623  12.796   4.337
42508W        W10902   0.339  42.870  13.576
42509W        W10903  23.743  14.042   3.765
42510W        W10904  28.588  41.943  14.786
42511W        W10905  27.132  13.649   3.848
42512W        W10906   8.322  28.338   1.299
42513W        W10907  32.599  37.781  11.942
42514W        W10908   7.895  19.953   1.372
42515W        W10909  21.011   7.578   2.048
42516W        W10910  13.357  39.361  11.580
42517W        W10911  25.924  26.713   1.743
42518W        W10912  11.810  28.986  12.458
42519W        W10913  25.173  28.068   3.359
42520W        W10914  15.035  25.537  13.695
42521W        W10915   3.993   1.472  12.566
42522W        W10916  13.875  21.639  12.107
42523W        W10917  44.369  32.559   2.824
42524W        W10918   8.652   2.014  13.058
42525W        W10919  32.200  12.723   3.621
42526W        W10920  26.448  30.174   0.493
42527W        W10921  30.572  25.391  10.710
42528W        W10922  33.054  41.020  12.127
42529W        W10923  27.167  11.880   5.229
42530W        W10924  35.036  35.493   2.621
42531W        W10925  10.852  23.905  13.780
42532W        W10926   3.035  24.905  10.984
42533W        W10927  15.540  13.632   0.143
42534W        W10928  35.806  40.240  11.574
42535W        W10929  33.922  28.298   1.872
42536W        W10930   9.109  11.300   0.293
42537W        W10931   1.439   7.911   2.209
42538W        W10932  43.057  12.218   3.866
42539W        W10933  36.374   1.497  11.139
42540W        W10934  13.828   2.846   3.393
42541W        W10935  28.160  33.058   0.869
42542W        W10936  41.863  19.046  10.776
42543W        W10937   0.992  20.164   4.181
42544W        W10938  29.531   4.200  12.976
42545W        W10939   4.778  28.646   0.260
42546W        W10940   3.276  13.158  13.485
42547W        W10941  21.784  32.033   2.194
42548W        W10942  26.684  40.330   0.844
42549W        W10943  40.651  30.680   1.788
42550W        W10944  40.890  30.162  13.484
42551W        W10945  30.480   4.327  12.013
42552W        W10946  29.994  15.905  13.147
42553W        W10947   9.677  43.727  13.962
42554W        W10948  19.130  30.403   0.550
42555W        W10949  30.911  44.875  12.946
42556W        W10950  13.510  27.942  11.462
42557W        W10951  38.296  36.570  14.982
42558W        W10952  42.479  14.033   2.180
42559W        W10953  39.080  39.818   3.779
42560W        W10954  20.161  42.020   4.188
42561W        W10955  33.675  43.770   0.884
42562W        W10956  38.366  40.875  11.897
42563W        W10957  40.004  26.207   2.869
42564W        W10958  11.633  30.907   1.753
42565W        W10959  34.156  34.118   3.393
42566W        W10960   2.704  34.349   0.729
42567W        W10961  28.585  23.224   1.952
42568W        W10962   9.231  38.392  12.044
42569W        W10963   6.823  36.890   4.282
42570W        W10964  28.045  41.186   3.853
42571W        W10965  14.542  15.333  11.577
42572W        W10966   8.983   1.541  14.529
42573W        W10967  30.168  37.670   4.101
42574W        W10968   0.360  44.585   0.372
42575W        W10969  11.329  29.432  12.539
42576W        W10970  15.708  28.211  12.398
42577W        W10971   2.103  20.152  13.514
42578W        W10972  16.407   5.312  10.263
42579W        W10973  28.664   0.928  12.331
42580W        W10974  39.504  16.521  10.749
42581W        W10975   9.732  18.602   0.854
42582W        W10976   9.754  43.877   3.101
42583W        W10977   1.261  37.419   3.802
42584W        W10978  30.015  22.508  10.725
42585W        W10979  13.335   7.883   0.396
42586W        W10980   6.797  12.743   0.114
42587W        W10981  21.677  33.183   4.366
42588W        W10982   3.013  39.966   0.801
42589W        W10983  42.562  16.217   3.781
42590W        W10984   0.563  38.819  13.864
42591W        W10985  39.281  29.908  10.472
42592W        W10986  13.976  35.347   3.235
42593W        W10987  34.024  17.811   0.289
42594W        W10988  29.480  34.545   1.701
42595W        W10989   5.066  34.729  14.665
42596W        W10990  33.122  39.140   4.044
42597W        W10991  43.859  26.043  12.055
42598W        W10992  41.685  37.342   0.229
42599W        W10993   9.834  22.507   1.341
42600W        W10994   1.719  41.368   0.994
42601W        W10995  36.038  42.498   1.302
42602W        W10996   6.388   6.948   1.337
42603W        W10997  39.362  11.902  12.901
42604W        W10998  29.099  16.050   1.374
42605W        W10999  14.357  27.332   0.306
42606W        W11000  32.062  40.017  11.926
42607W        W11001  39.977   3.953  12.589
42608W        W11002  28.936  16.081   4.158
42609W        W11003   0.290  18.550   4.362
42610W        W11004  33.656  24.690   1.359
42611W        W11005   0.791  27.495   0.782
42612W        W11006  35.295  25.655  13.371
42613W        W11007  43.369  20.987  13.009
42614W        W11008  26.975  38.490  14.874
42615W        W11009  12.753  36.870  10.624
42616W        W11010  43.619  30.451  12.184
42617W        W11011  23.663  39.247  14.843
42618W        W11012  43.784  25.104  10.694
42619W        W11013   6.775  22.569  13.599
42620W        W11014  25.974  22.600  12.375
42621W        W11015  44.070  30.436  11.958
42622W        W11016  16.990  37.058   1.351
42623W        W11017  20.099  44.516   4.245
42624W        W11018  43.426  19.298  10.323
42625W        W11019  20.475   0.443   3.243
42626W        W11020  32.673  12.139  12.680
42627W        W11021   6.407  21.824  11.871
42628W        W11022  16.325  26.461   2.148
42629W        W11023  19.501  19.032   0.771
42630W        W11024  35.421  22.918  10.570
42631W        W11025   6.735  40.514  14.326
42632W        W11026   3.232  28.130   3.580
42633W        W11027   1.030  19.855  14.876
42634W        W11028  31.120   8.619  14.624
42635W        W11029  23.580  23.737   4.390
42636W        W11030  31.973  26.974  13.394
42637W        W11031  29.134   9.214  14.898
42638W        W11032  18.012  10.705   3.693
42639W        W11033  29.664   6.894  11.850
42640W        W11034  25.726  42.366   3.636
42641W        W11035   9.638  35.970  11.732
42642W        W11036   8.256   1.709  12.120
42643W        W11037  10.377  21.638  12.972
42644W        W11038   4.302  26.139  11.280
42645W        W11039  38.395  13.773  14.929
42646W        W11040  42.836  42.978  10.436
42647W        W11041  35.087  41.969  13.858
42648W        W11042  10.453  29.538  14.467
42649W        W11043  35.586   2.473   2.861
42650W        W11044  21.184   6.945  11.591
42651W        W11045   1.409  19.417  10.827
42652W        W11046  10.212   1.760   0.765
42653W        W11047  29.701  16.497  13.888
42654W        W11048   6.146  26.655   3.898
42655W        W11049  25.317  33.738   1.674
42656W        W11050  21.477   4.770  13.731
42657W        W11051  31.141  20.331   1.666
42658W        W11052  21.754  39.126   0.343
42659W        W11053  44.831  34.357   2.754
42660W        W11054   0.780  17.705  14.037
42661W        W11055   6.795   4.868   1.682
42662W        W11056  23.078  36.678  14.064
42663W        W11057  43.333  12.333   1.313
42664W        W11058  15.320  24.169   0.811
42665W        W11059  31.659  15.610   1.745
42666W        W11060  16.168  39.483   0.157
42667W        W11061  39.767   9.800   3.114
42668W        W11062  24.826   1.416  11.423
42669W        W11063  31.080  19.849  14.999
42670W        W11064   0.913  35.193  12.573
42671W        W11065  24.778  15.343  13.361
42672W        W11066  10.444  23.963   4.193
42673W        W11067  36.460  38.650  13.375
42674W        W11068  20.309  40.464   3.304
42675W        W11069  14.604  37.883  10.598
42676W        W11070  29.257  42.106   4.003
42677W        W11071  35.046   8.269   2.274
42678W        W11072  22.710  27.221   4.213
42679W        W11073  19.987  40.528   2.915
42680W        W11074  41.753   1.820  13.212
42681W        W11075  39.187   3.953  13.881
42682W        W11076   4.834  16.304   1.045
42683W        W11077   8.583   8.747   2.385
42684W        W11078   4.955  16.294  13.410
42685W        W11079  27.470   4.754  14.313
42686W        W11080   6.896   6.955   1.220
42687W        W11081  13.627  29.829  13.014
42688W        W11082  39.778  25.049  14.837
42689W        W11083  19.326   7.791   3.194
42690W        W11084  37.865  19.613  13.754
42691W        W11085  14.671  13.873   4.192
42692W        W11086  14.933  28.373  14.980
42693W        W11087  34.690  41.228  11.219
42694W        W11088  23.340   7.921   2.103
42695W        W11089   8.906  34.360  11.216
42696W        W11090   1.959   6.695  13.649
42697W        W11091  44.598  31.982  13.144
42698W        W11092   0.256  34.488   4.842
42699W        W11093  27.177   6.150   4.117
42700W        W11094   5.015   1.851  13.380
42701W        W11095  21.704  16.043  12.928
42702W        W11096  25.332  12.746  14.152
42703W        W11097  39.607  37.050  13.083
42704W        W11098  23.190  38.454   3.397
42705W        W11099  32.526   9.463  14.873
42706W        W11100  21.232  24.046   4.609
42707W        W11101  18.964  28.704   4.734
42708W        W11102  27.655  34.117   3.691
42709W        W11103  12.626  24.693   4.419
42710W        W11104  20.204  32.483  11.584
42711W        W11105   2.933  29.221   2.924
42712W        W11106  36.966  11.602  10.806
42713W        W11107  14.082  15.314   0.782
42714W        W11108  13.635  17.088  12.134
42715W        W11109  17.079  36.928  12.171
42716W        W11110   3.004  15.715   0.310
42717W        W11111  11.140  20.691   0.819
42718W        W11112   8.808  38.286  12.922
42719W        W11113  17.681  16.749  14.360
42720W        W11114  26.481  12.861   0.577
42721W        W11115  17.889  35.097   4.197
42722W        W11116  40.703  25.173  14.408
42723W        W11117  36.142  44.355  12.945
42724W        W11118  11.389  10.750   2.341
42725W        W11119  38.406  30.569   4.533
42726W        W11120  15.471  30.531   1.413
42727W        W11121  27.412  39.494   2.247
42728W        W11122  11.524  22.551  12.645
42729W        W11123  20.216  10.896  11.155
42730W        W11124   6.268  35.303  12.303
42731W        W11125   6.525  12.931  12.709
42732W        W11126  37.113  20.640   0.693
42733W        W11127   5.427  21.513  14.427
42734W        W11128  19.024   5.723  12.344
42735W        W11129  25.168   4.266   4.581
42736W        W11130  26.714   2.091  11.773
42737W        W11131  28.682  22.629   4.292
42738W        W11132  32.048  22.047   0.841
42739W        W11133   4.844  19.525   2.766
42740W        W11134  13.579  23.901  12.199
42741W        W11135  16.685  14.338  14.013
42742W        W11136   8.184  20.058  13.563
42743W        W11137  40.638  39.400  10.993
42744W        W11138  20.888  19.933   4.149
42745W        W11139  20.825  27.729   1.830
42746W        W11140  14.657  35.910   3.634
42747W        W11141  41.534  23.726   1.251
42748W        W11142  40.994  27.085   3.799
42749W        W11143  25.266  35.921   1.025
42750W        W11144  30.621  43.252  10.535
42751W        W11145  17.076   9.121  11.199
42752W        W11146  31.897  29.779   3.514
42753W        W11147  37.847  20.064   1.480
42754W        W11148  22.980  28.173   0.501
42755W        W11149  12.140  27.433   0.489
42756W        W11150  33.394  25.008   1.814
42757W        W11151  18.714   5.391  12.633
42758W        W11152  44.214  16.038   2.838
42759W        W11153  31.201  37.177  13.791
42760W        W11154  40.452  19.535  14.397
42761W        W11155  23.613  18.653   2.845
42762W        W11156   5.211  24.146   4.966
42763W        W11157  15.070  26.427   2.123
42764W        W11158  31.534  38.312   0.486
42765W        W11159  16.113  40.358   0.914
42766W        W11160  40.793  29.037   1.533
42767W        W11161  43.349  40.343  13.021
42768W        W11162  29.306  32.549  11.729
42769W        W11163  18.810  26.032  12.973
42770W        W11164  21.045   5.443  14.133
42771W        W11165  22.964   4.806  14.782
42772W        W11166  37.386  18.704   3.647
42773W        W11167  14.339   1.511   0.625
42774W        W11168   0.177  27.218  10.719
42775W        W11169  34.598  41.684   0.524
42776W        W11170  41.483  41.822  10.520
42777W        W11171  14.782  20.467   3.146
42778W        W11172  19.231  43.302  14.821
42779W        W11173  41.334   8.647  12.405
42780W        W11174  32.032   5.749   4.183
42781W        W11175  24.659   4.618  12.950
42782W        W11176  11.278  35.579   1.898
42783W        W11177  27.665  19.969   3.289
42784W        W11178  27.984  40.913   2.292
42785W        W11179  42.923   4.924  13.412
42786W        W11180  12.806   3.842   1.771
42787W        W11181  21.134  13.229  14.409
42788W        W11182  14.660   4.658   4.368
42789W        W11183  29.878  11.670  12.896
42790W        W11184  12.488  40.738   3.253
42791W        W11185  39.609  12.895  13.573
42792W        W11186  40.049  41.290   3.424
42793W        W11187  30.874   6.298   0.226
42794W        W11188   8.841  40.567  10.657
42795W        W11189  21.175  39.967   3.122
42796W        W11190  35.875  22.219   0.472
42797W        W11191  26.594  39.791   4.270
42798W        W11192   8.580  21.314  13.065
42799W        W11193  11.769   1.962  12.983
42800W        W11194   8.834   3.274  14.704
42801W        W11195  27.635   8.301   1.310
42802W        W11196  21.556  33.968  14.763
42803W        W11197  32.031  35.441   2.349
42804W        W11198  30.586  24.929  12.115
42805W        W11199  41.895   8.118  13.856
42806W        W11200  44.821   5.694  11.687
42807W        W11201  19.686   4.331   2.780
42808W        W11202  22.165  36.096   4.797
42809W        W11203  41.767   6.349  13.448
42810W        W11204  13.305   1.191  13.561
42811W        W11205  26.315   9.267  14.313
42812W        W11206   9.069  38.403   2.413
42813W        W11207  15.538   3.036   1.370
42814W        W11208  29.406   3.043   4.386
42815W        W11209  20.009  30.342   1.877
42816W        W11210  37.354  36.507   1.002
42817W        W11211  43.995  40.593  14.432
42818W        W11212  40.849   4.170  11.170
42819W        W11213   1.711  16.830  12.556
42820W        W11214  29.191  42.010   4.638
42821W        W11215   3.854  31.105  14.955
42822W        W11216  27.681  42.457  12.008
42823W        W11217  16.239  34.845  13.421
42824W        W11218  15.876  13.354  14.851
42825W        W11219  29.238  26.424  11.610
42826W        W11220   7.545  31.493   2.126
42827W        W11221  32.100  25.528   1.205
42828W        W11222  21.650  18.139  13.308
42829W        W11223  34.617  19.282  11.645
42830W        W11224  39.429   8.669   3.052
42831W        W11225  34.513   3.758   4.809
42832W        W11226  43.360  14.899   1.434
42833W        W11227  34.437  21.806  13.052
42834W        W11228   4.011   6.670  12.880
42835W        W11229   6.840  14.621   1.476
42836W        W11230  21.730  11.163   4.555
42837W        W11231  33.719  24.579  10.670
42838W        W11232   7.795  18.386   9.851
42839W        W11233  12.478   9.679  11.383
42840W        W11234  12.528  29.502   3.269
42841W        W11235   5.628  33.167  14.921
42842W        W11236   9.304  14.257   3.677
42843W        W11237  31.939  34.708  12.096
42844W        W11238  16.168  31.940  12.339
42845W        W11239  25.576  39.086   3.709
42846W        W11240  10.134  35.667  10.762
42847W        W11241  28.829  10.301  13.307
42848W        W11242  35.896  15.097  13.890
42849W        W11243  27.384  43.480   1.863
42850W        W11244  34.036  13.531  11.560
42851W        W11245  14.097  14.382   0.851
42852W        W11246  11.007  17.830   4.302
42853W        W11247   4.281  10.796   2.230
42854W        W11248  12.364  28.003  14.407
42855W        W11249  11.833  31.329  12.119
42856W        W11250   3.962  13.505  10.897
42857W        W11251  10.316  27.262   0.240
42858W        W11252  18.974  38.319   1.885
42859W        W11253   8.341  36.907  13.556
42860W        W11254   4.849  43.523   0.416
42861W        W11255  14.187  21.765   1.017
42862W        W11256  14.627   7.543  13.444
42863W        W11257  31.126  40.383   1.737
42864W        W11258  42.792  19.768   0.313
42865W        W11259  28.657  35.011   3.787
42866W        W11260  32.004  33.696   1.863
42867W        W11261  29.901   5.237  11.605
42868W        W11262  28.303   2.257  13.567
42869W        W11263  16.582  26.571   4.561
42870W        W11264  17.692  34.365   4.772
42871W        W11265   0.977  21.758   0.800
42872W        W11266   3.755  15.187   3.566
42873W        W11267  10.330  19.632  11.931
42874W        W11268  25.697  13.317   3.550
42875W        W11269  24.720  12.550  12.965
42876W        W11270  13.897  40.322   1.798
42877W        W11271  23.966   0.031   0.747
42878W        W11272  20.788  18.457  10.929
42879W        W11273   1.785   5.614  12.573
42880W        W11274  12.670  18.395  12.417
42881W        W11275  35.412   8.636   0.628
42882W        W11276   6.328  44.594   5.198
42883W        W11277  35.934  31.638   1.900
42884W        W11278  36.581   4.505  10.659
42885W        W11279   7.955  44.204   4.989
42886W        W11280  43.032   7.157  10.758
42887W        W11281  39.320  30.000   1.788
42888W        W11282  37.314  18.089  11.621
42889W        W11283  11.645  18.668  14.571
42890W        W11284  28.032  43.247   0.131
42891W        W11285  27.934  32.883  12.959
42892W        W11286  27.830  21.655   1.767
42893W        W11287  23.094   6.546  12.120
42894W        W11288  44.996  28.094   0.749
42895W        W11289  40.350  30.038  11.988
42896W        W11290  10.454  26.486   3.465
42897W        W11291  34.407  30.000  12.514
42898W        W11292  24.594  42.748  13.901
42899W        W11293   0.018  42.491   3.102
42900W        W11294  44.282  18.754   1.764
42901W        W11295  20.926  31.914  11.671
42902W        W11296  22.251  19.072  14.124
42903W        W11297  19.160  32.409   1.600
42904W        W11298  44.877  44.019   1.730
42905W        W11299   6.539  20.292   3.605
42906W        W11300   7.544   2.068  14.382
42907W        W11301   5.633   7.475  14.377
42908W        W11302  18.567  27.524   2.711
42909W        W11303  26.172  30.671   0.975
42910W        W11304  24.692   4.857   4.564
42911W        W11305  22.419  17.333   0.434
42912W        W11306   3.732  28.964  10.802
42913W        W11307  30.104  28.204   0.791
42914W        W11308  36.999  26.969   3.772
42915W        W11309  18.571  43.667  13.344
42916W        W11310  33.767  23.922  10.302
42917W        W11311  14.516   8.242  11.046
42918W        W11312  18.611  11.532   4.699
42919W        W11313  17.593  15.559  10.389
42920W        W11314  27.626  15.786   3.470
42921W        W11315  33.648   6.366   0.404
42922W        W11316  16.290  37.643  10.719
42923W        W11317  34.167   9.933   3.247
42924W        W11318  27.413  10.645   0.591
42925W        W11319  27.667  28.811   1.937
42926W        W11320  12.180  22.112   2.421
42927W        W11321  10.357   2.086   2.168
42928W        W11322  35.677  10.152  11.170
42929W        W11323   0.506   1.426   4.287
42930W        W11324  44.077   3.272  11.897
42931W        W11325  31.968  19.073  12.989
42932W        W11326  17.675  28.067  10.625
42933W        W11327  40.238  27.410  14.992
42934W        W11328  13.810  32.307   2.896
42935W        W11329  37.385   6.643   5.317
42936W        W11330   8.828  33.006  12.288
42937W        W11331  43.933  28.039   3.995
42938W        W11332  17.162  31.033   4.554
42939W        W11333  10.792  28.605  14.205
42940W        W11334   0.156  31.575  14.810
42941W        W11335  32.426   8.449  14.934
42942W        W11336   4.679   1.568  10.741
42943W        W11337  37.332   4.549   0.312
42944W        W11338  38.435  32.660   0.967
42945W        W11339  41.335  23.285  14.926
42946W        W11340  20.716  30.488  14.534
42947W        W11341  20.296  41.549  14.445
42948W        W11342  20.938   8.986   5.076
42949W        W11343  11.795  44.020   3.647
42950W        W11344  39.386  33.183   2.312
42951W        W11345  36.076  18.107   2.422
42952W        W11346  33.872  13.272  14.838
42953W        W11347  38.576  12.303  11.200
42954W        W11348  41.519  35.913  14.075
42955W        W11349  43.301  29.964   3.298
42956W        W11350  15.465   7.453   1.971
42957W        W11351  14.132   9.843  12.349
42958W        W11352  18.913  34.413   0.853
42959W        W11353   3.923  39.386   4.636
42960W        W11354  38.729   0.888   1.285
42961W        W11355   7.749  34.343   4.328
42962W        W11356  43.420   0.202   3.141
42963W        W11357  15.615  14.681  13.553
42964W        W11358  11.449  41.462  11.339
42965W        W11359   6.641  26.027   3.270
42966W        W11360   4.341   9.096  13.520
42967W        W11361  40.050  23.176  12.421
42968W        W11362  17.560  29.114  12.336
42969W        W11363  38.105   3.856   0.254
42970W        W11364  37.822  37.363   2.640
42971W        W11365  11.646   2.383   4.618
42972W        W11366   3.687  25.754   3.080
42973W        W11367  35.460  43.516  10.372
42974W        W11368  10.657  10.345  14.952
42975W        W11369  25.372  40.339  11.585
42976W        W11370  44.806  37.471   1.756
42977W        W11371  10.159  25.804  10.921
42978W        W11372  14.489  38.684   5.122
42979W        W11373  13.242  25.436  13.154
42980W        W11374  14.395  15.740   4.097
42981W        W11375  27.795  12.672  11.160
42982W        W11376  23.087  43.476   0.263
42983W        W11377  23.477   5.648   1.704
42984W        W11378  25.810  22.256  14.170
42985W        W11379   8.258  44.547   0.847
42986W        W11380  40.841  13.758  12.965
42987W        W11381   6.258  19.744   0.929
42988W        W11382  31.229  29.588  10.076
42989W        W11383  24.737  44.231  14.877
42990W        W11384  33.078  22.538  12.109
42991W        W11385  16.007   1.558  12.289
42992W        W11386  37.876   6.276   4.516
42993W        W11387  25.065  35.616   1.823
42994W        W11388  26.433   7.867   4.198
42995W        W11389  34.295  31.503  12.649
42996W        W11390  11.760  35.513  12.413
42997W        W11391   4.348  15.856   3.641
42998W        W11392   0.074  17.218  14.595
42999W        W11393  13.811  33.074   0.855
43000W        W11394  20.635  22.156   0.675
43001W        W11395  17.047  10.353   0.505
43002W        W11396  27.675   9.208   2.203
43003W        W11397  20.969  35.090   2.904
43004W        W11398  21.795   0.384   2.835
43005W        W11399  22.547   3.233   0.384
43006W        W11400   9.400  20.614   3.711
43007W        W11401  37.719  18.244  14.425
43008W        W11402   6.201  41.591   2.128
43009W        W11403   9.366  20.794  13.830
43010W        W11404  38.491  26.738  13.623
43011W        W11405  32.134   9.962  14.090
43012W        W11406   5.937  24.065  14.855
43013W        W11407   4.309  16.320  11.493
43014W        W11408  33.121  27.027   1.000
43015W        W11409  44.844  41.010  12.107
43016W        W11410  36.081  23.197  11.600
43017W        W11411  41.658  18.566  13.467
43018W        W11412  36.851  29.565   0.849
43019W        W11413  10.336  23.788  12.996
43020W        W11414  26.729  25.027   0.836
43021W        W11415   8.826  42.361   2.230
43022W        W11416  44.472   6.776   3.048
43023W        W11417  12.855  19.147   4.890
43024W        W11418  24.675   9.844  13.791
43025W        W11419   7.333   3.810   0.736
43026W        W11420  26.964  40.217  10.462
43027W        W11421  33.516  22.715  14.020
43028W        W11422  41.794  28.117  13.786
43029W        W11423  40.871   2.242   0.416
43030W        W11424  30.090  30.777  10.641
43031W        W11425  34.044   7.234   1.280
43032W        W11426   5.747  31.122  13.046
43033W        W11427   2.931  14.112  12.438
43034W        W11428  24.547  15.372   3.240
43035W        W11429  24.055  15.864  12.066
43036W        W11430  22.731  23.177  13.030
43037W        W11431   5.284  10.873   4.547
43038W        W11432  19.485  35.539   0.735
43039W        W11433   2.505  15.827   4.595
43040W        W11434  38.749  23.071   2.751
43041W        W11435  18.057  14.691   0.855
43042W        W11436  35.061  33.529  11.645
43043W        W11437  18.801  24.740   4.626
43044W        W11438  24.624  18.634  11.957
43045W        W11439  28.485  12.262  11.605
43046W        W11440   3.737  16.700  11.104
43047W        W11441   9.632  22.033   4.015
43048W        W11442  15.024  24.257  11.862
43049W        W11443  43.765  38.932   2.444
43050W        W11444  36.088  44.738   2.384
43051W        W11445  32.163  15.788  14.344
43052W        W11446   0.483  16.081   0.900
43053W        W11447   0.284  20.309   1.187
43054W        W11448   3.158  12.660  14.417
43055W        W11449  10.822  35.944   0.368
43056W        W11450  22.615  24.028  11.696
43057W        W11451  37.602  23.917   4.007
43058W        W11452   2.442   6.831  12.341
43059W        W11453  39.013  42.977   5.135
43060W        W11454  31.257  15.619   2.657
43061W        W11455  27.398   5.152  12.941
43062W        W11456   8.806  41.702  13.926
43063W        W11457  12.197   7.195   9.977
43064W        W11458  40.958  42.525  14.541
43065W        W11459  12.133   4.798   0.099
43066W        W11460  43.921  37.916   0.490
43067W        W11461   2.275   2.195  13.610
43068W        W11462  30.062  12.848   2.851
43069W        W11463  38.027  21.019   4.164
43070W        W11464  42.905  22.035  14.240
43071W        W11465  27.175  42.851  13.194
43072W        W11466  17.127  39.795  14.453
43073W        W11467  33.733   4.382   4.637
43074W        W11468  35.927  41.922   0.431
43075W        W11469   9.614  36.460   4.618
43076W        W11470   2.449  15.061   5.075
43077W        W11471   6.829  43.488   0.379
43078W        W11472  40.529  40.025   4.558
43079W        W11473   1.243  44.525   2.567
43080W        W11474  18.541  27.955  12.484
43081W        W11475  19.520  35.433  12.312
43082W        W11476  24.098  17.208   4.844
43083W        W11477   3.689   5.372   2.215
43084W        W11478  22.243   4.114   0.168
43085W        W11479  13.694  43.777  14.508
43086W        W11480  35.324  11.271  12.542
43087W        W11481   2.269  27.950   1.218
43088W        W11482  34.196  32.541   0.694
43089W        W11483  23.156  36.931   0.763
43090W        W11484  19.131  11.620   1.952
43091W        W11485  37.068   4.308   0.930
43092W        W11486  16.616  32.173  12.979
43093W        W11487   5.165  41.592  12.556
43094W        W11488  23.450  17.306   0.472
43095W        W11489  29.186  20.686  10.678
43096W        W11490   5.401  19.065   1.125
43097W        W11491  43.011  29.458  14.263
43098W        W11492   1.335   3.292  13.884
43099W        W11493  44.093  40.911   1.219
43100W        W11494  10.366   6.802   2.740
43101W        W11495  34.533  35.749  13.471
43102W        W11496  13.143  44.385   1.174
43103W        W11497  10.830  30.510  12.808
43104W        W11498   3.186  43.824   3.421
43105W        W11499  10.220  44.881  14.244
43106W        W11500   2.848  14.452   3.155
43107W        W11501  33.627  21.957   3.414
43108W        W11502  36.283  17.559   3.364
43109W        W11503  41.531  16.723  12.533
43110W        W11504   0.442  13.590   4.295
43111W        W11505  17.016   9.272  14.228
43112W        W11506  40.412  39.643  14.333
43113W        W11507  43.876  25.561   1.839
43114W        W11508  11.107  39.692   3.580
43115W        W11509  10.901  20.148  11.901
43116W        W11510   3.111   7.887  13.328
43117W        W11511  18.287  20.185  10.325
43118W        W11512  23.020  40.087   3.367
43119W        W11513  36.647   7.444   1.333
43120W        W11514   8.329  20.498  14.850
43121W        W11515  30.000  35.918  10.621
43122W        W11516  41.541   0.215   0.016
43123W        W11517   7.157  18.467   2.109
43124W        W11518  36.508  28.662   2.106
43125W        W11519  37.130  36.870   3.721
43126W        W11520  32.549  29.073  13.486
43127W        W11521   4.274  21.059  14.380
43128W        W11522  19.044  39.020  12.520
43129W        W11523  23.597   1.015  10.548
43130W        W11524  31.555   3.828   1.413
43131W        W11525  36.592   8.148   3.260
43132W        W11526  33.669  11.221  14.393
43133W        W11527  12.023  23.959  11.213
43134W        W11528   2.573  40.988  11.845
43135W        W11529  19.053  33.241   2.592
43136W        W11530   4.851  32.056   4.664
43137W        W11531   0.606  35.892   0.406
43138W        W11532  11.888  44.441  13.008
43139W        W11533  17.618   2.251  11.379
43140W        W11534  10.149  18.997  11.209
43141W        W11535  22.782   7.335   2.332
43142W        W11536  36.929  35.034  13.328
43143W        W11537  30.431  10.717  10.271
43144W        W11538  12.855  40.131   2.853
43145W        W11539   9.511  17.361   3.787
43146W        W11540  26.732  12.038  13.807
43147W        W11541  39.904  10.231  14.493
43148W        W11542   9.922  16.384  12.600
43149W        W11543  33.440  14.584   2.743
43150W        W11544  43.810  31.024  14.981
43151W        W11545  23.041   1.183   3.916
43152W        W11546  24.046  24.736  12.551
43153W        W11547  33.630   1.338  10.996
43154W        W11548  26.270  41.547  13.832
43155W        W11549  22.534  14.898   2.573
43156W        W11550   9.703  12.277  12.819
43157W        W11551   6.452  37.658  11.586
43158W        W11552  27.637  19.248  11.469
43159W        W11553  35.393  24.261   1.223
43160W        W11554  23.030  16.488   3.894
43161W        W11555   9.493  39.875  12.049
43162W        W11556  28.691  19.708   1.359
43163W        W11557  25.012  34.533  12.829
43164W        W11558  15.827  44.236   2.251
43165W        W11559  42.748  20.808   4.003
43166W        W11560  32.597   1.902   3.255
43167W        W11561  18.472  20.930  14.735
43168W        W11562   7.284  27.107  14.275
43169W        W11563  37.276  13.199   0.305
43170W        W11564  28.424   2.410  10.693
43171W        W11565  42.443  38.487   2.409
43172W        W11566  26.004  36.061  12.413
43173W        W11567  17.040  12.099  11.987
43174W        W11568  24.025  10.833  12.186
43175W        W11569  40.513   8.595  12.023
43176W        W11570   9.898  25.465  14.308
43177W        W11571   1.422  33.429  12.904
43178W        W11572  24.616  40.547   3.749
43179W        W11573  21.143   4.943   1.818
43180W        W11574  18.620  39.379  12.161
43181W        W11575  14.627   3.751  14.247
43182W        W11576  18.835  12.157  11.574
43183W        W11577  41.908  33.083  14.366
43184W        W11578  20.093  21.405  13.119
43185W        W11579  42.054   6.284  13.881
43186W        W11580  22.686  32.872   3.182
43187W        W11581  36.149   5.293  13.095
43188W        W11582  16.036  18.174   3.105
43189W        W11583   6.396  17.592  10.577
43190W        W11584  35.513  21.678   4.184
43191W        W11585  25.449  27.888  14.767
43192W        W11586  20.451   8.245  14.282
43193W        W11587  22.491  39.470  11.072
43194W        W11588  26.727  28.414  13.035
43195W        W11589  44.672  25.913  12.538
43196W        W11590  32.905   8.098  14.916
43197W        W11591   4.551   4.103   2.298
43198W        W11592  28.489   7.670  10.688
43199W        W11593  28.597  21.193  13.859
43200W        W11594  36.712  22.109  12.024
43201W        W11595   5.222  25.111   1.240
43202W        W11596   2.001  23.961  11.615
43203W        W11597   9.082   6.946   4.892
43204W        W11598   8.218  44.718   4.480
43205W        W11599  30.697  41.871   4.025
43206W        W11600  35.363  13.738   4.328
43207W        W11601  34.939  41.433  14.770
43208W        W11602  36.996  44.930   3.657
43209W        W11603  17.210  40.926  11.919
43210W        W11604  14.486  17.064  13.943
43211W        W11605  23.179  28.701   1.349
43212W        W11606  33.762  24.251  14.884
43213W        W11607   0.852  21.975   3.068
43214W        W11608  20.464  22.536   3.508
43215W        W11609  29.620  44.229   0.740
43216W        W11610   1.400  15.402  11.030
43217W        W11611  31.168   6.397   2.631
43218W        W11612  29.468  21.195   2.455
43219W        W11613  38.835  24.368  14.433
43220W        W11614  18.713   1.197   4.622
43221W        W11615  26.628  30.778  13.509
43222W        W11616  30.176  42.988  13.891
43223W        W11617  24.118  12.086   2.168
43224W        W11618   1.671   1.316   2.849
43225W        W11619  38.439  12.121  14.984
43226W        W11620  31.668   0.611  14.445
43227W        W11621  40.290   9.750  11.186
43228W        W11622  10.531  28.790  12.252
43229W        W11623  42.016  18.259  13.175
43230W        W11624   3.749  16.058  12.379
43231W        W11625  11.819  30.021  14.211
43232W        W11626  35.478  26.107  14.303
43233W        W11627  24.564  13.562  14.859
43234W        W11628   9.200  13.297  12.542
43235W        W11629  44.706  27.438  14.017
43236W        W11630   1.493   1.740  13.867
43237W        W11631  26.183  36.828   2.227
43238W        W11632  35.754  37.052  12.189
43239W        W11633  14.097  20.728  10.751
43240W        W11634  24.132  44.529   5.038
43241W        W11635  10.353  36.306  13.405
43242W        W11636  29.788  25.178   1.043
43243W        W11637  34.815  38.617  11.519
43244W        W11638  24.245  12.756   1.685
43245W        W11639  37.989  37.074  12.422
43246W        W11640  16.685  16.315   0.136
43247W        W11641  11.201  15.384   4.064
43248W        W11642  33.410  11.918  11.952
43249W        W11643  31.345  44.043   3.411
43250W        W11644  36.575  11.960   9.888
43251W        W11645  35.693  40.727   1.298
43252W        W11646  31.692   2.608   4.492
43253W        W11647  34.518  30.499  12.577
43254W        W11648  41.759   9.805  10.447
43255W        W11649  31.092  35.381  14.853
43256W        W11650  25.107  16.847  12.079
43257W        W11651   1.785  16.300   1.101
43258W        W11652  43.327   1.850  13.323
43259W        W11653  15.560  10.150  12.144
43260W        W11654  19.038  37.446  14.567
43261W        W11655  30.509   0.161  12.725
43262W        W11656  32.427  17.108   1.380
43263W        W11657   8.243  40.461   3.912
43264W        W11658  26.163  25.790  12.009
43265W        W11659  38.767  16.341   2.354
43266W        W11660  15.262  30.819   0.642
43267W        W11661  22.921  22.588   3.910
43268W        W11662  20.749  44.029  14.351
43269W        W11663  19.292  30.023   0.868
43270W        W11664  24.515  39.505  10.342
43271W        W11665  18.569   3.755   1.476
43272W        W11666   9.570   1.268  12.443
43273W        W11667  29.518   9.719   3.721
43274W        W11668  34.998   6.353  12.266
43275W        W11669   4.315  22.990   2.022
43276W        W11670   3.932   0.915   0.958
43277W        W11671  12.703  20.993   2.117
43278W        W11672  13.606  26.054  13.624
43279W        W11673  29.950  26.984   2.766
43280W        W11674   9.078   6.791  11.253
43281W        W11675  26.023  18.272  11.209
43282W        W11676  19.213   0.442   2.758
43283W        W11677  40.971  33.152   2.784
43284W        W11678  15.651   5.801   1.778
43285W        W11679  24.455  36.282  11.573
43286W        W11680   3.404   1.538   1.960
43287W        W11681  24.082  43.616  10.299
43288W        W11682   2.414  12.294  10.497
43289W        W11683   7.816   1.918  10.409
43290W        W11684  21.232  14.669   2.696
43291W        W11685   5.997  31.906   3.996
43292W        W11686  15.187  28.355   4.657
43293W        W11687  20.204  31.467   3.255
43294W        W11688  37.092  11.104   2.279
43295W        W11689  14.521   5.879   1.893
43296W        W11690  40.048  34.527   0.834
43297W        W11691  42.426  39.443  10.236
43298W        W11692   4.025  20.641  11.930
43299W        W11693  22.198  16.311  10.602
43300W        W11694  38.555  10.820  14.354
43301W        W11695  15.922  31.960   0.582
43302W        W11696  31.025  37.272  12.095
43303W        W11697  15.212  12.892  11.058
43304W        W11698  44.172   4.587   3.510
43305W        W11699  16.886  21.077   0.990
43306W        W11700  31.390  25.573   4.373
43307W        W11701  38.203  18.458  12.905
43308W        W11702  44.906  26.748   0.534
43309W        W11703  32.081   7.894  12.082
43310W        W11704  34.117  44.443  14.752
43311W        W11705  21.178  34.665   1.422
43312W        W11706   7.949  23.552   3.212
43313W        W11707  27.695  13.548   0.229
43314W        W11708  34.857  23.129  13.131
43315W        W11709  25.510  44.252  13.813
43316W        W11710  43.072   9.724  12.348
43317W        W11711  36.411  28.587   0.708
43318W        W11712  19.082  11.287   3.145
43319W        W11713  22.767   7.425  14.876
43320W        W11714  27.189   3.767   2.817
43321W        W11715  13.118  16.563   4.480
43322W        W11716  12.889  39.346   4.515
43323W        W11717  23.552  19.948   4.784
43324W        W11718  38.371  24.565  12.100
43325W        W11719  17.584  28.553  13.967
43326W        W11720  34.960  17.307   3.098
43327W        W11721  34.475   3.832  12.960
43328W        W11722  44.539   8.330   0.684
43329W        W11723  36.409  22.305  13.548
43330W        W11724   0.433  11.211   2.135
43331W        W11725  16.593  11.220  11.192
43332W        W11726  27.048  26.196  12.204
43333W        W11727  33.052  38.158  10.518
43334W        W11728  38.349  13.622  12.652
43335W        W11729   5.753  21.130   2.798
43336W        W11730  28.154  39.397  11.587
43337W        W11731  21.478  19.806   1.306
43338W        W11732  28.543  14.307  11.051
43339W        W11733   7.395  32.085   3.773
43340W        W11734  37.917  31.571  14.549
43341W        W11735  44.203  33.847  13.144
43342W        W11736  35.117  18.234   2.443
43343W        W11737  10.642  44.952  11.342
43344W        W11738  12.567  41.293  14.524
43345W        W11739  25.086  14.740   3.670
43346W        W11740  17.817   1.429  14.918
43347W        W11741  15.371  15.636   3.217
43348W        W11742  31.033  42.938   4.107
43349W        W11743  33.058  37.997   2.348
43350W        W11744  31.497   5.181   2.083
43351W        W11745  40.333  34.484   3.642
43352W        W11746   1.289   4.301   0.410
43353W        W11747  38.714   6.019   3.583
43354W        W11748   5.669  12.177   4.661
43355W        W11749  26.181  13.043  14.338
43356W        W11750  33.096   3.301   0.969
43357W        W11751  32.390  12.152  13.979
43358W        W11752  31.210  27.605  14.792
43359W        W11753  22.563   7.983   1.834
43360W        W11754  43.233  17.798  13.954
43361W        W11755  32.375  36.341   3.263
43362W        W11756  26.748  30.399  14.460
43363W        W11757  26.674  41.774   4.596
43364W        W11758  19.146  43.124  10.328
43365W        W11759  36.916  38.128   4.134
43366W        W11760  38.015  36.648  10.691
43367W        W11761  21.160   0.086   0.065
43368W        W11762  20.230  42.559   3.255
43369W        W11763  32.454  25.368   3.329
43370W        W11764  18.313   1.509   0.021
43371W        W11765  21.183   2.529   0.351
43372W        W11766   3.087  40.255  10.377
43373W        W11767   3.768   3.884   4.550
43374W        W11768  13.232  31.844  12.523
43375W        W11769  42.810   5.247  10.614
43376W        W11770   0.919  40.597   3.587
43377W        W11771  33.297  15.444   1.893
43378W        W11772   3.308   9.796   2.872
43379W        W11773  21.125  33.811   1.466
43380W        W11774  19.240  21.448   0.835
43381W        W11775  43.976  32.391  14.971
43382W        W11776  20.217  23.628  10.313
43383W        W11777  17.843  29.507   0.105
43384W        W11778  20.686  23.264  10.830
43385W        W11779  44.285   2.650   2.164
43386W        W11780  14.602  19.101   3.265
43387W        W11781  31.938  42.091  13.004
43388W        W11782  17.870  25.913  11.796
43389W        W11783  36.665  25.748  13.567
43390W        W11784  34.284   9.409   3.218
43391W        W11785  30.011  16.781  12.875
43392W        W11786  27.045  10.374  10.511
43393W        W11787  31.664  22.168   3.352
43394W        W11788  40.866  30.263   2.413
43395W        W11789  17.744  33.548  10.674
43396W        W11790  15.104  22.923   0.783
43397W        W11791  22.145  28.878  10.407
43398W        W11792   2.268  38.567  10.712
43399W        W11793  11.396   5.949  10.544
43400W        W11794  20.937  13.083   1.130
43401W        W11795  22.967   9.914  13.133
43402W        W11796  42.365  31.512  11.420
43403W        W11797  38.517   0.843  12.437
43404W        W11798  12.936   7.754   5.168
43405W        W11799  44.443  35.618   1.879
43406W        W11800  44.348  42.835   0.397
43407W        W11801  26.564   4.235   4.573
43408W        W11802  12.137   2.774  13.557
43409W        W11803  34.710  20.576   0.997
43410W        W11804  21.971  28.738   5.013
43411W        W11805  39.999  28.758   1.798
43412W        W11806   4.605   8.770  11.133
43413W        W11807   1.772   2.720   4.534
43414W        W11808   9.426  23.426   3.735
43415W        W11809  32.407  15.224   1.858
43416W        W11810  10.459  26.013   3.658
43417W        W11811  28.032   7.545  12.865
43418W        W11812  29.139  18.615  14.468
43419W        W11813  37.294  32.969  11.600
43420W        W11814  20.735   8.432  10.630
43421W        W11815   1.269  39.972  12.465
43422W        W11816  22.676   4.886   0.259
43423W        W11817  38.983  27.449   1.360
43424W        W11818  40.038   3.282   4.248
43425W        W11819  31.932  41.521   2.770
43426W        W11820  32.025  40.818  12.571
43427W        W11821  42.808   0.858  14.515
43428W        W11822   5.179  19.126  14.761
43429W        W11823  34.854  35.934   1.140
43430W        W11824   1.365  20.081   1.814
43431W        W11825  28.059   4.168  12.085
43432W        W11826  33.907   4.212   4.153
43433W        W11827  21.140  31.289   3.666
43434W        W11828  23.997  36.354   4.670
43435W        W11829  42.859   7.269   1.276
43436W        W11830  33.065   8.967  12.096
43437W        W11831  10.802  17.213   2.815
43438W        W11832   8.164  32.376   3.144
43439W        W11833  37.656  11.829   4.402
43440W        W11834  34.003  14.543   0.753
43441W        W11835  16.914  29.709   3.361
43442W        W11836  33.418  14.705  12.069
43443W        W11837  33.983  31.051   3.529
43444W        W11838   3.352  36.548   1.444
43445W        W11839  22.780   9.842   3.747
43446W        W11840  44.952  24.082  13.515
43447W        W11841  31.670   3.000   2.396
43448W        W11842  32.829  10.328   3.609
43449W        W11843  39.535  33.416   4.548
43450W        W11844  17.272  26.509   0.743
43451W        W11845   4.621  38.348  12.620
43452W        W11846  17.879  28.129  14.973
43453W        W11847  20.908  17.143   1.544
43454W        W11848  19.274  44.527   2.689
43455W        W11849   0.248  30.974  14.371
43456W        W11850  10.212  35.671   1.867
43457W        W11851  33.517  42.924   1.535
43458W        W11852  16.108   9.341   2.776
43459W        W11853  25.237  22.178   0.984
43460W        W11854   9.829   3.418   2.193
43461W        W11855  34.471  42.915   2.963
43462W        W11856  23.761  33.315   4.852
43463W        W11857   8.865   4.363   4.453
43464W        W11858  26.702  16.808  11.217
43465W        W11859  29.196  24.014  11.012
43466W        W11860  28.622  16.848  11.929
43467W        W11861  26.382   1.704  14.515
43468W        W11862   5.619  42.983   2.785
43469W        W11863  10.584  16.840   2.210
43470W        W11864  27.194  38.229   1.821
43471W        W11865   3.985  16.663  14.852
43472W        W11866  29.235  42.425  10.983
43473W        W11867  33.007  32.009   1.085
43474W        W11868  15.788   7.357   3.372
43475W        W11869  16.486  33.649  11.101
43476W        W11870   6.671  30.419  14.821
43477W        W11871  41.092  13.843   1.168
43478W        W11872  11.201  37.695  14.030
43479W        W11873  26.789  34.446   1.406
43480W        W11874  19.962   0.292  12.476
43481W        W11875   8.664  37.013  12.480
43482W        W11876  41.362  36.957   2.429
43483W        W11877  39.114  36.869  13.011
43484W        W11878  42.044  29.586   1.415
43485W        W11879  22.100   4.551  12.139
43486W        W11880  18.773  21.032   1.536
43487W        W11881   6.451  12.752  10.573
43488W        W11882  16.288   2.745  11.618
43489W        W11883  34.584  40.337   0.341
43490W        W11884  31.661  25.595  11.556
43491W        W11885  14.618  17.750  11.691
43492W        W11886  30.034  12.640  11.131
43493W        W11887  34.516  42.906   0.998
43494W        W11888   8.801   7.183  11.102
43495W        W11889  29.125  36.113  11.887
43496W        W11890   3.348  36.178  10.305
43497W        W11891   5.457  22.134  14.875
43498W        W11892  24.899  22.788   2.294
43499W        W11893  17.652  39.643  12.039
43500W        W11894  30.506  31.285  14.575
43501W        W11895  33.645  37.691  14.887
43502W        W11896  13.266  11.167  11.535
43503W        W11897   8.812  40.251  13.062
43504W        W11898  20.108  37.503   9.782
43505W        W11899  33.093   2.920  11.540
43506W        W11900   9.865   5.203  11.518
43507W        W11901  27.751  24.594  14.738
43508W        W11902   4.809  19.765  10.719
43509W        W11903  41.974  24.937   4.987
43510W        W11904  15.297  33.955   2.416
43511W        W11905   2.919   1.525  10.604
43512W        W11906  41.510  24.874  13.857
43513W        W11907   5.004   0.406   0.478
43514W        W11908  40.405   2.812   4.927
43515W        W11909   9.546   4.941  14.512
43516W        W11910  28.921  14.739   0.831
43517W        W11911  10.875  28.084  11.535
43518W        W11912  14.831  37.921  13.364
43519W        W11913  23.517  20.630  11.200
43520W        W11914  22.547  23.765  13.916
43521W        W11915  41.651  42.880   3.718
43522W        W11916  17.751   1.797  11.194
43523W        W11917   7.255  10.874   1.378
43524W        W11918   5.944  12.616   0.348
43525W        W11919   0.214  42.945   2.846
43526W        W11920  41.305  26.982   0.291
43527W        W11921  40.827  32.707  12.403
43528W        W11922  22.992  22.890  12.693
43529W        W11923  41.985  33.954  14.031
43530W        W11924  27.139  27.652  11.104
43531W        W11925   6.639  32.393   0.721
43532W        W11926  10.334  41.312   4.707
43533W        W11927  21.273  35.024   0.574
43534W        W11928  10.436  20.072  11.637
43535W        W11929  30.850   2.134   1.018
43536W        W11930  23.228  44.078   0.931
43537W        W11931  15.010  30.479   1.621
43538W        W11932  21.344  35.181   2.010
43539W        W11933  43.912  13.761   3.293
43540W        W11934  10.662  37.972  11.944
43541W        W11935  10.207  23.216   0.986
43542W        W11936  16.827  44.024  13.968
43543W        W11937  38.818   5.624   4.409
43544W        W11938   9.894  10.165   3.439
43545W        W11939  30.567   4.802  12.369
43546W        W11940  31.944  34.482  11.601
43547W        W11941  41.022   8.221   1.435
43548W        W11942  26.965  11.430   5.056
43549W        W11943  23.491  34.990  14.285
43550W        W11944   2.759  16.647  12.983
43551W        W11945  16.781  19.014   2.691
43552W        W11946  28.877  22.016  11.136
43553W        W11947  34.469  11.769  11.460
43554W        W11948  28.459  43.893  14.475
43555W        W11949   2.346  43.819  11.655
43556W        W11950  17.188  21.272  10.675
43557W        W11951  10.508   4.872  11.087
43558W        W11952  22.703  44.404   1.760
43559W        W11953  29.661  20.068  13.011
43560W        W11954  17.061  25.247   3.389
43561W        W11955  29.270   1.424   3.707
43562W        W11956  21.079  24.692  11.555
43563W        W11957   0.054  42.430  13.605
43564W        W11958   2.721  21.311  12.599
43565W        W11959  22.310   6.327  14.766
43566W        W11960  42.191  40.829  12.133
43567W        W11961  41.260  19.989  13.452
43568W        W11962  30.150   0.851  12.081
43569W        W11963  36.359  39.448  12.652
43570W        W11964  17.689   7.919   0.244
43571W        W11965  30.082  23.433  12.489
43572W        W11966  15.546  35.967  12.769
43573W        W11967  10.254  39.936  14.930
43574W        W11968  14.749  33.657  12.396
43575W        W11969  42.948  38.810  12.506
43576W        W11970  13.787  43.051  14.879
43577W        W11971  13.726   5.450  12.516
43578W        W11972  40.535  37.367   1.401
43579W        W11973  31.897  33.067   3.642
43580W        W11974   2.152  30.754  12.919
43581W        W11975  31.127  19.755   0.904
43582W        W11976  28.921  21.823  14.401
43583W        W11977  29.734  29.003   1.344
43584W        W11978   5.771   9.326  11.244
43585W        W11979   8.954  18.313   3.246
43586W        W11980  20.296   8.696  12.528
43587W        W11981  44.944  40.564   0.421
43588W        W11982   3.187  39.451   2.954
43589W        W11983  33.273  18.726  14.241
43590W        W11984  17.162  21.998   3.437
43591W        W11985   8.362   4.781  12.596
43592W        W11986  12.122  38.323   0.931
43593W        W11987  22.978  44.683   2.818
43594W        W11988   0.088  39.026   2.433
43595W        W11989  31.115  37.262   2.657
43596W        W11990  20.762  23.533  13.301
43597W        W11991  29.597   4.304  10.697
43598W        W11992   7.268   0.856  13.397
43599W        W11993  36.632  39.092   1.716
43600W        W11994  34.333  10.837   0.231
43601W        W11995  10.204  37.093   4.559
43602W        W11996   4.197  14.278   3.854
43603W        W11997  13.819   6.936   2.412
43604W        W11998  16.594  43.344   3.708
43605W        W11999  42.277  41.778   0.415
43606W        W12000  29.519  16.686  11.494
43607W        W12001  17.377  11.591   9.703
43608W        W12002   3.239  24.557  13.420
43609W        W12003  14.285   0.265   0.514
43610W        W12004  15.701   6.770   2.686
43611W        W12005  25.891  19.518   0.451
43612W        W12006  43.547  28.122  10.782
43613W        W12007   5.801  34.835  13.401
43614W        W12008  33.408  33.909   4.607
43615W        W12009   0.953   5.766  12.911
43616W        W12010  39.395  41.473  10.710
43617W        W12011  36.418  23.613   0.477
43618W        W12012   7.055  34.487  12.421
43619W        W12013  36.866  41.329  10.531
43620W        W12014  39.100  11.691  11.624
43621W        W12015  25.096   5.683   0.759
43622W        W12016  33.654  40.082   0.470
43623W        W12017  17.220  26.915   2.171
43624W        W12018  38.575  38.777   0.028
43625W        W12019   4.915   2.738   3.706
43626W        W12020   3.263  30.260  13.472
43627W        W12021  37.189  42.405  14.821
43628W        W12022  23.152  24.951   0.303
43629W        W12023  17.354  29.560  12.909
43630W        W12024  10.618  33.175  13.550
43631W        W12025  22.581  34.891  11.626
43632W        W12026  12.038   4.282  14.888
43633W        W12027  17.483  10.166   3.198
43634W        W12028  22.327  20.069   2.249
43635W        W12029   2.842  10.579   3.584
43636W        W12030   9.821   8.290   2.680
43637W        W12031  18.728  17.998   1.012
43638W        W12032  20.819   2.993   1.671
43639W        W12033  11.714  24.099   3.657
43640W        W12034  41.161  27.678   1.988
43641W        W12035   8.821  13.766  11.492
43642W        W12036  35.273  30.954   1.653
43643W        W12037  23.462  29.627  13.327
43644W        W12038  15.265   9.854  10.385
43645W        W12039  39.922  36.589  11.350
43646W        W12040  37.457  30.489   2.770
43647W        W12041  42.972  27.736  10.997
43648W        W12042  14.020   9.006  12.064
43649W        W12043  41.219  16.242  13.958
43650W        W12044  17.138  20.412   4.713
43651W        W12045  13.375   5.214  14.383
43652W        W12046   7.555  18.352   5.141
43653W        W12047  32.302  38.677  12.902
43654W        W12048  27.473  29.694   4.719
43655W        W12049  19.047  30.206  13.279
43656W        W12050  22.195  25.203   4.642
43657W        W12051  42.539   9.727  12.427
43658W        W12052   7.558  32.417   4.737
43659W        W12053  25.904  30.988  14.272
43660W        W12054  13.484   6.386  14.330
43661W        W12055  41.937  23.123  10.451
43662W        W12056  38.951  31.950   3.134
43663W        W12057  17.706  29.164   4.283
43664W        W12058  22.247  13.702  11.977
43665W        W12059  12.355  36.941   3.286
43666W        W12060  27.752  43.168  12.449
43667W        W12061  20.233  27.179  11.901
43668W        W12062   6.648  10.335   1.458
43669W        W12063   5.328  31.363  12.885
43670W        W12064  14.224  14.886   4.713
43671W        W12065  10.713  39.808   3.238
43672W        W12066  28.153  44.768   3.353
43673W        W12067  33.990  41.443   4.673
43674W        W12068  23.546   5.373   0.462
43675W        W12069  25.136   8.334  11.067
43676W        W12070  44.009  37.943   1.012
43677W        W12071  13.828  31.153  12.493
43678W        W12072  22.024  40.972  12.799
43679W        W12073  14.693   0.693   1.671
43680W        W12074   7.364  28.794  14.641
43681W        W12075  16.848  25.074  13.010
43682W        W12076   7.100  13.869   0.148
43683W        W12077  13.896  28.685   2.791
43684W        W12078  31.572  40.525   4.098
43685W        W12079  33.930   1.850  13.058
43686W        W12080  27.163  22.762  11.521
43687W        W12081  18.607  25.148  14.001
43688W        W12082  27.531  14.031   0.114
43689W        W12083   3.202  15.326   4.970
43690W        W12084  11.404  16.185  14.867
43691W        W12085  10.145  24.592  12.650
43692W        W12086  35.636  34.620  10.627
43693W        W12087  25.259  35.564   3.264
43694W        W12088  14.397  16.060  14.783
43695W        W12089   7.975  35.984   1.015
43696W        W12090  25.302   5.826   3.620
43697W        W12091  42.395  31.934  11.705
43698W        W12092  16.286  15.820   3.305
43699W        W12093  39.824   4.336   2.819
43700W        W12094   0.452  42.290   1.052
43701W        W12095  12.054  19.306  13.840
43702W        W12096  34.372  22.205   2.892
43703W        W12097  39.812   6.967  11.555
43704W        W12098  42.448   4.948   2.074
43705W        W12099  31.613  24.291  11.594
43706W        W12100  15.533  18.075   1.213
43707W        W12101  17.118   7.734   0.903
43708W        W12102  43.347  18.058  11.645
43709W        W12103  43.804   1.810   3.369
43710W        W12104   6.387   3.867   3.675
43711W        W12105   4.690  44.276  12.039
43712W        W12106  19.008   9.986  12.918
43713W        W12107  44.806  25.083  12.586
43714W        W12108  33.394  27.776  10.550
43715W        W12109  42.721  16.140  11.926
43716W        W12110   9.266  35.652  13.467
43717W        W12111   2.998  12.751  12.894
43718W        W12112  23.727  33.121   4.314
43719W        W12113  25.729  37.105   0.406
43720W        W12114  21.681  15.244   2.624
43721W        W12115  43.955  29.618   2.828
43722W        W12116  38.426  20.076   2.685
43723W        W12117   2.894  22.536  14.028
43724W        W12118  38.494  35.333  12.284
43725W        W12119  24.702  37.504   2.230
43726W        W12120   5.310  34.951  10.749
43727W        W12121  10.914  40.014  13.537
43728W        W12122  20.506  11.046  14.436
43729W        W12123  34.363  38.595  13.781
43730W        W12124   1.145  17.733  12.123
43731W        W12125  35.924  17.990  12.618
43732W        W12126  21.131   4.285   4.178
43733W        W12127  36.440  23.762  11.142
43734W        W12128   3.345  40.550   0.015
43735W        W12129  39.359   8.828   1.458
43736W        W12130  40.262  41.654  10.744
43737W        W12131  26.730  32.489   1.225
43738W        W12132  21.591   7.680   0.464
43739W        W12133  28.259  29.976   3.699
43740W        W12134  38.474   3.834  12.526
43741W        W12135   3.871  39.724  13.887
43742W        W12136  38.787  44.756  14.752
43743W        W12137  38.593  11.798  13.476
43744W        W12138  35.948  23.696   1.319
43745W        W12139  22.111  18.538   4.831
43746W        W12140  11.838  18.566   4.316
43747W        W12141  43.621  33.321   3.035
43748W        W12142  10.698   8.640  10.365
43749W        W12143  40.000  34.637  11.585
43750W        W12144  22.046  39.386  11.568
43751W        W12145  17.224  44.390   1.486
43752W        W12146  30.681   6.229  12.447
43753W        W12147   4.802  37.302  12.864
43754W        W12148  25.039  13.260   3.820
43755W        W12149  16.093  43.329   0.510
43756W        W12150  39.620   1.373  10.937
43757W        W12151  19.584   6.221   1.499
43758W        W12152  17.817  27.657   3.514
43759W        W12153  34.213  23.653  14.320
43760W        W12154  38.575  41.637   5.218
43761W        W12155  40.791  43.860   0.268
43762W        W12156  18.694  42.462   3.957
43763W        W12157  19.998  42.188  12.497
43764W        W12158  13.151  23.928  10.610
43765W        W12159  13.723  36.373  14.123
43766W        W12160  37.060  13.314   3.276
43767W        W12161  39.318   0.390   3.666
43768W        W12162  11.912  31.844  14.938
43769W        W12163   1.016  44.754  13.006
43770W        W12164  32.889   3.178   0.505
43771W        W12165   7.566  42.883   1.905
43772W        W12166  35.966  16.799  14.371
43773W        W12167  33.994  25.078  14.711
43774W        W12168  15.455   4.143   3.671
43775W        W12169  26.402   5.130  11.938
43776W        W12170  42.903  38.898  13.398
43777W        W12171  12.887  19.599   1.900
43778W        W12172   5.784  42.479   4.757
43779W        W12173  15.421  32.013   4.255
43780W        W12174  28.027  19.059  14.418
43781W        W12175  17.808  41.562   4.535
43782W        W12176  26.102   8.631   2.657
43783W        W12177  21.140   9.095   2.861
43784W        W12178   0.876  20.244   2.416
43785W        W12179   7.238  30.010   4.215
43786W        W12180  44.278  36.519  14.175
43787W        W12181   9.813  32.142  12.515
43788W        W12182  12.269  13.283  14.295
43789W        W12183  23.494  12.168   4.308
43790W        W12184   9.839  36.558   2.556
43791W        W12185  13.823  23.693   4.199
43792W        W12186  11.318  26.591   4.723
43793W        W12187   7.427  28.811   1.274
43794W        W12188  38.907  40.470  14.231
43795W        W12189  40.363  44.090   2.312
43796W        W12190  28.960  43.001   2.929
43797W        W12191  35.035   0.944   1.422
43798W        W12192   9.147   7.169  13.917
43799W        W12193  39.065  43.305   3.099
43800W        W12194   8.190  15.663  13.599
43801W        W12195  38.103   7.263   4.266
43802W        W12196   9.681  33.988   4.619
43803W        W12197   6.276  42.471   4.093
43804W        W12198  33.161  35.636   0.133
43805W        W12199  22.225  37.406   2.200
43806W        W12200  22.035  39.512   1.769
43807W        W12201  11.328  31.579   2.198
43808W        W12202  16.344  19.746   5.437
43809W        W12203  15.027  39.934   3.659
43810W        W12204  23.087   2.985   4.656
43811W        W12205   0.329   1.766  14.895
43812W        W12206   2.162  42.341  14.524
43813W        W12207  26.968   6.977   0.391
43814W        W12208  25.454  10.858   2.876
43815W        W12209   2.345   1.175  13.871
43816W        W12210   4.000  34.413   2.301
43817W        W12211  10.794   0.356  11.658
43818W        W12212  25.181  16.710  11.192
43819W        W12213   4.229  35.887  11.896
43820W        W12214  23.564  32.656   4.545
43821W        W12215  25.811  27.537   0.366
43822W        W12216  28.217  12.616  10.853
43823W        W12217  28.993  41.368   1.743
43824W        W12218   6.222  37.374   1.517
43825W        W12219  39.010  17.406  12.830
43826W        W12220  31.819  12.470   3.409
43827W        W12221  41.049  26.193  10.776
43828W        W12222  44.322  26.099  13.350
43829W        W12223  39.391  35.082  11.991
43830W        W12224  43.732  35.116   2.417
43831W        W12225  43.379   9.191  10.612
43832W        W12226   8.909  39.919  13.865
43833W        W12227  40.434  17.822   1.699
43834W        W12228  25.224   1.871   2.271
43835W        W12229  39.830  39.049  11.904
43836W        W12230  32.023  41.561   3.599
43837W        W12231   0.563  12.124  11.858
43838W        W12232  31.914  26.487  10.737
43839W        W12233  14.199  37.266  14.384
43840W        W12234  25.513  10.951  14.931
43841W        W12235  10.251  24.446   4.183
43842W        W12236  29.498  22.554  13.508
43843W        W12237   2.672  19.225  13.087
43844W        W12238  16.136  30.910   1.968
43845W        W12239  35.639  43.031  12.405
43846W        W12240  11.124  23.204  11.607
43847W        W12241   3.509  34.044   1.744
43848W        W12242  19.069  34.339   3.762
43849W        W12243  17.528  36.469   2.252
43850W        W12244   5.898  25.983   0.318
43851W        W12245  17.065  39.385  14.118
43852W        W12246  36.569  30.323   4.431
43853W        W12247  43.065   3.741   2.293
43854W        W12248  34.779  27.262  13.841
43855W        W12249  21.574  36.479  13.776
43856W        W12250  21.277   0.392  12.088
43857W        W12251  10.800  26.557  14.932
43858W        W12252  28.173  20.293  12.894
43859W        W12253  19.145   8.096   1.466
43860W        W12254   9.314  11.699   2.158
43861W        W12255   7.320  12.839   4.425
43862W        W12256  27.222  22.704   4.048
43863W        W12257  26.105  35.134   3.404
43864W        W12258  27.185  36.217   5.142
43865W        W12259  31.702  31.457   1.857
43866W        W12260   1.364  41.996   2.690
43867W        W12261  40.895  43.092   4.400
43868W        W12262  29.445   6.421  14.919
43869W        W12263  35.558  23.275   2.234
43870W        W12264  27.681  18.161  12.606
43871W        W12265  20.952   8.351   3.439
43872W        W12266   9.706  32.600   3.807
43873W        W12267  21.999   6.674  14.542
43874W        W12268  35.823  16.570   2.024
43875W        W12269  31.482  32.137  11.618
43876W        W12270  32.120  34.452   3.690
43877W        W12271  10.679  13.772   0.021
43878W        W12272  36.997  39.441  14.807
43879W        W12273  26.607  42.473  12.645
43880W        W12274  36.336   0.064   1.806
43881W        W12275  33.588   7.774  14.946
43882W        W12276  33.970  36.940   0.002
43883W        W12277   1.055   4.376   1.414
43884W        W12278   7.694  18.289  11.881
43885W        W12279  32.377  15.205  14.858
43886W        W12280  19.614  22.290   3.724
43887W        W12281  40.465  37.594  12.313
43888W        W12282  21.152  39.469   4.472
43889W        W12283   4.950  42.872   3.609
43890W        W12284  42.923  44.389   1.677
43891W        W12285   5.790  27.005   3.696
43892W        W12286  11.784  15.084  14.361
43893W        W12287   3.671  36.471  13.760
43894W        W12288   4.437   7.420   0.824
43895W        W12289   6.507  17.346   2.784
43896W        W12290  18.595   9.699   4.857
43897W        W12291  39.519   3.250  12.842
43898W        W12292  14.648   6.837  12.704
43899W        W12293  28.635  43.618  10.714
43900W        W12294  12.685  35.422  10.610
43901W        W12295  44.358  24.448  12.347
43902W        W12296   4.401  14.999   2.824
43903W        W12297   7.290  12.110  11.990
43904W        W12298   1.310  29.765  14.835
43905W        W12299  15.036   9.326   2.682
43906W        W12300  25.399   1.758  11.018
43907W        W12301   9.741   2.384  10.816
43908W        W12302  28.997  39.803   3.216
43909W        W12303  33.709  35.964  11.603
43910W        W12304  33.894   7.765   2.230
43911W        W12305   0.806  42.640  13.071
43912W        W12306  25.525  29.878  11.726
43913W        W12307   5.213  36.772   2.752
43914W        W12308   4.969  13.836  11.395
43915W        W12309  32.334  43.031  11.817
43916W        W12310  30.446  22.089  15.000
43917W        W12311  38.883  35.079   4.703
43918W        W12312  22.719   4.309  10.418
43919W        W12313   9.973  39.432  14.080
43920W        W12314  44.823   2.310   0.321
43921W        W12315  40.097  17.381  14.989
43922W        W12316  14.288   2.702   1.719
43923W        W12317  36.328   7.236   3.835
43924W        W12318  37.114   5.545  12.181
43925W        W12319  20.327  16.734  12.917
43926W        W12320  31.156  33.869  10.376
43927W        W12321  28.142  27.088  10.942
43928W        W12322  19.700  28.175   4.105
43929W        W12323  31.910   1.751  10.109
43930W        W12324  31.319  24.515   0.368
43931W        W12325  26.722   0.649  10.850
43932W        W12326  11.144  25.463   1.874
43933W        W12327  21.815  24.287   1.888
43934W        W12328  32.480  37.270  11.969
43935W        W12329  36.287  27.017  11.120
43936W        W12330   0.823   1.605   4.679
43937W        W12331   5.833  32.633  10.765
43938W        W12332   8.876  23.166   4.647
43939W        W12333  13.037  24.641   3.586
43940W        W12334   2.510  15.594   0.231
43941W        W12335  42.384   7.321   4.201
43942W        W12336  28.416  41.846   1.378
43943W        W12337  43.485  34.136   2.701
43944W        W12338  42.710  25.628   0.044
43945W        W12339   1.241  42.841   3.128
43946W        W12340  12.741  26.207  12.429
43947W        W12341  25.630  40.496  14.858
43948W        W12342  11.141  37.005   3.548
43949W        W12343  12.115   8.219  14.417
43950W        W12344  42.087  43.115   0.834
43951W        W12345  13.736  22.935   2.794
43952W        W12346   8.564  32.575  12.402
43953W        W12347  16.158  12.988  13.800
43954W        W12348   6.122  33.375   1.288
43955W        W12349  18.728  35.013  12.576
43956W        W12350  16.135  13.147  12.101
43957W        W12351   0.536  23.770  11.710
43958W        W12352   3.269  13.293   3.139
43959W        W12353  31.567  11.230   0.968
43960W        W12354  10.854  11.261  10.568
43961W        W12355   9.212  20.997   1.725
43962W        W12356  30.296   4.550   4.033
43963W        W12357  23.332  40.885   2.641
43964W        W12358  41.258   2.303  12.571
43965W        W12359  42.984  41.801  13.925
43966W        W12360  34.508  26.977   4.491
43967W        W12361  17.207   9.138   3.335
43968W        W12362   4.903  43.727  12.628
43969W        W12363  31.611  36.909  13.926
43970W        W12364  17.028  21.596   2.281
43971W        W12365   1.032  17.529  10.628
43972W        W12366  26.600  30.617  11.144
43973W        W12367  34.912  23.207  14.023
43974W        W12368   6.973  19.052  14.516
43975W        W12369  41.140  16.295  14.520
43976W        W12370   6.638  24.594   0.299
43977W        W12371   3.965  14.203  14.923
43978W        W12372  30.434  22.592  14.887
43979W        W12373  14.308   2.836  13.062
43980W        W12374  12.818   7.489   0.391
43981W        W12375  39.072  31.525  13.237
43982W        W12376  35.854   0.442   3.222
43983W        W12377  28.365  11.199  12.574
43984W        W12378  21.524  28.705  13.662
43985W        W12379  39.609  13.989   3.053
43986W        W12380  16.062  28.743   0.253
43987W        W12381  42.745  23.112  11.049
43988W        W12382   5.417  35.845   4.428
43989W        W12383  20.112  15.392   4.592
43990W        W12384  19.170  24.611   1.759
43991W        W12385  12.104  41.271   0.455
43992W        W12386  19.097  33.731   2.678
43993W        W12387  32.596  18.494   4.492
43994W        W12388  27.204  26.221  11.704
43995W        W12389  14.765  31.697  14.259
43996W        W12390   3.931  39.895   2.900
43997W        W12391  27.977  20.987   4.277
43998W        W12392   0.987  18.122   2.992
43999W        W12393  33.515  13.573   4.555
44000W        W12394  21.047   9.999   0.490
44001W        W12395  30.716  18.307   1.706
44002W        W12396   7.655  23.956   1.383
44003W        W12397  13.799  17.859  13.013
44004W        W12398  30.633   1.222   1.378
44005W        W12399  43.341   4.124  10.653
44006W        W12400  41.496  19.019   0.352
44007W        W12401  12.868  13.894   1.263
44008W        W12402  19.764  17.188  14.216
44009W        W12403  29.921  38.129   0.962
44010W        W12404  37.970  44.000   2.296
44011W        W12405  40.353  37.501   0.201
44012W        W12406   8.835   0.207   4.082
44013W        W12407  40.508   2.851   1.246
44014W        W12408  10.993   2.635   4.141
44015W        W12409  16.533  35.875   1.642
44016W        W12410  22.537  18.206   3.006
44017W        W12411  24.715  16.984   0.968
44018W        W12412  38.001  15.480  12.547
44019W        W12413   3.953  27.733  13.481
44020W        W12414  25.561  28.614  14.471
44021W        W12415   1.520  31.115   4.146
44022W        W12416  33.074  19.102   4.145
44023W        W12417  37.956   5.309  10.662
44024W        W12418  38.202  23.588  14.424
44025W        W12419  26.987  39.374  13.773
44026W        W12420  36.690  37.810  11.113
44027W        W12421  25.597  28.549   3.207
44028W        W12422  15.610  13.389   2.798
44029W        W12423  25.250  41.022  13.311
44030W        W12424   6.718   5.149  11.634
44031W        W12425  32.860   7.969   1.316
44032W        W12426  41.785   4.335   1.877
44033W        W12427  31.076  25.538   2.604
44034W        W12428  38.971   6.980   3.642
44035W        W12429  25.725  33.442  13.851
44036W        W12430   2.917  20.879   3.142
44037W        W12431  31.891  13.240   1.698
44038W        W12432  11.320  20.711   4.870
44039W        W12433   0.119  19.818   2.266
44040W        W12434  12.295   8.310  13.029
44041W        W12435  28.923  37.456   2.216
44042W        W12436  15.731  16.306  12.872
44043W        W12437   4.374   7.002  12.695
44044W        W12438  25.007  27.905  13.366
44045W        W12439  27.890   9.105  11.590
44046W        W12440  41.822  40.538  12.436
44047W        W12441   7.884   8.647   0.313
44048W        W12442   1.989  10.457   3.089
44049W        W12443  38.450  38.789  14.386
44050W        W12444  24.093  28.435  14.534
44051W        W12445  28.298  37.347  11.621
44052W        W12446  31.544  14.156   4.492
44053W        W12447  18.520  37.912  12.469
44054W        W12448   0.594  29.554  10.810
44055W        W12449  37.681  35.350   3.304
44056W        W12450   4.844   6.802   1.393
44057W        W12451  32.525  21.234   0.739
44058W        W12452  21.784   6.783  10.502
44059W        W12453  19.045  37.865  10.697
44060W        W12454   2.551  14.556   0.451
44061W        W12455  25.169  41.562   1.226
44062W        W12456  17.880  45.000  11.136
44063W        W12457  16.137  42.886   2.391
44064W        W12458   3.878  40.036  12.080
44065W        W12459  14.077  24.644  14.344
44066W        W12460  25.140  34.908  13.159
44067W        W12461  40.452  22.211  12.005
44068W        W12462  32.522  37.341  13.769
44069W        W12463  44.734   1.414  12.007
44070W        W12464  22.007  43.781   1.767
44071W        W12465  38.885   3.341   3.843
44072W        W12466  37.462  30.626   1.905
44073W        W12467  36.060  37.582  13.515
44074W        W12468  11.612  43.862  14.958
44075W        W12469  11.730  36.115   3.202
44076W        W12470  10.098  16.300  14.118
44077W        W12471  11.142  17.761  14.398
44078W        W12472  40.715   6.210  11.261
44079W        W12473  20.901  34.726   1.940
44080W        W12474  14.116  41.962  14.369
44081W        W12475  43.687  25.677  14.779
44082W        W12476  20.598   2.265   4.472
44083W        W12477  12.709   1.344   4.626
44084W        W12478   5.702  18.040   4.255
44085W        W12479  35.579   6.364  14.029
44086W        W12480  21.763  23.052  13.125
44087W        W12481  21.542  32.735  11.522
44088W        W12482  39.768  18.551   3.262
44089W        W12483  28.142  13.306   2.114
44090W        W12484  35.339  13.764  12.595
44091W        W12485  13.240   1.982   4.017
44092W        W12486  32.957  24.153  13.908
44093W        W12487  39.533  42.784  14.297
44094W        W12488   1.089  22.561  11.174
44095W        W12489   6.489  27.906   2.831
44096W        W12490  21.707  29.157  13.829
44097W        W12491  34.721  25.580   0.141
44098W        W12492  23.903  29.667   2.510
44099W        W12493   2.125  14.804   4.762
44100W        W12494   8.064  42.816  14.363
44101W        W12495  42.759  36.227   4.968
44102W        W12496   6.211   4.032   1.628
44103W        W12497   4.233  34.341  11.836
44104W        W12498  30.660  13.794  12.057
44105W        W12499  43.985  43.974  14.233
44106W        W12500  32.221  22.018   4.233
44107W        W12501  17.183   2.943  13.648
44108W        W12502  27.983   9.098  13.815
44109W        W12503  27.321  42.355   2.622
44110W        W12504  17.763   6.392  12.907
44111W        W12505  18.991  29.008  12.576
44112W        W12506   0.547   8.189  11.966
44113W        W12507  24.440  10.327  13.957
44114W        W12508   4.991  13.116  12.510
44115W        W12509  21.264   2.867  14.271
44116W        W12510  29.677  37.271   0.019
44117W        W12511  13.283  29.018   3.614
44118W        W12512  23.731  23.000  13.809
44119W        W12513  24.695  12.748  11.138
44120W        W12514  39.871  23.204  13.364
44121W        W12515  43.335  29.496   4.101
44122W        W12516  12.756  11.559   3.629
44123W        W12517  31.727  41.800  13.850
44124W        W12518  18.845  39.704   5.075
44125W        W12519  14.511  38.572   4.285
44126W        W12520  36.585  30.316  13.507
44127W        W12521   6.419  27.210  10.238
44128W        W12522  35.354  21.765  12.571
44129W        W12523  39.771  18.414  13.403
44130W        W12524  23.007  16.253  10.629
44131W        W12525  42.041  10.338   1.364
44132W        W12526  42.715  38.597   3.732
44133W        W12527  24.064  14.167  12.539
44134W        W12528  35.658   1.798   0.305
44135W        W12529  22.144  28.175   1.741
44136W        W12530   4.761  38.430   4.841
44137W        W12531   2.417  31.467  10.813
44138W        W12532   2.551   3.377  10.147
44139W        W12533  38.395  43.950   4.063
44140W        W12534  22.110  42.508   2.160
44141W        W12535  15.674  14.178  12.487
44142W        W12536  41.023  14.713   0.974
44143W        W12537  25.475  37.389   2.639
44144W        W12538  24.650   5.841  10.648
44145W        W12539  18.129  18.571  12.905
44146W        W12540   1.026   0.594   1.687
44147W        W12541  34.379  21.200  10.937
44148W        W12542  19.215  30.940  12.089
44149W        W12543  19.027  21.696   3.556
44150W        W12544   8.853  16.833   3.009
44151W        W12545  30.529  25.681   4.619
44152W        W12546  17.749  11.025   2.257
44153W        W12547  29.528  23.429   4.221
44154W        W12548  27.425   5.144   1.275
44155W        W12549  37.131   7.190   1.258
44156W        W12550  35.897  36.279   3.840
44157W        W12551  37.938   1.967   4.249
44158W        W12552   8.817  34.231  13.905
44159W        W12553  18.151  38.030   1.675
44160W        W12554  10.422  28.121  12.511
44161W        W12555  32.989  22.499  12.889
44162W        W12556  22.981  29.921  14.492
44163W        W12557  44.360   9.149   2.715
44164W        W12558  17.342  33.480   1.584
44165W        W12559  12.606  30.175  14.829
44166W        W12560  43.927  14.662   3.419
44167W        W12561  24.923  15.362   2.251
44168W        W12562   9.494  44.891  14.958
44169W        W12563  44.429  35.067   2.811
44170W        W12564  15.857  37.942   2.271
44171W        W12565  27.079  13.657  11.073
44172W        W12566   3.823  39.973   2.027
44173W        W12567  15.566   2.532   1.497
44174W        W12568   3.057  23.880   2.408
44175W        W12569   7.316  12.475  12.371
44176W        W12570  40.404  36.832  10.179
44177W        W12571   5.768  36.392  10.899
44178W        W12572  29.585  15.848  14.286
44179W        W12573  41.902  31.469  14.006
44180W        W12574  21.098  24.393   3.046
44181W        W12575   8.176  33.441  12.432
44182W        W12576  21.991   6.332   2.165
44183W        W12577  41.754  11.137  13.886
44184W        W12578  37.799  30.559   4.485
44185W        W12579  29.865  25.700   4.191
44186W        W12580  20.257   9.012   0.443
44187W        W12581  17.628  40.162  10.272
44188W        W12582  26.394  27.823   4.951
44189W        W12583   1.698   1.855  12.295
44190W        W12584  17.347  14.277   2.164
44191W        W12585  25.968   0.088  14.160
44192W        W12586  39.382  33.147   1.394
44193W        W12587  25.739  39.309  11.604
44194W        W12588   4.522  28.186   2.192
44195W        W12589  31.061  34.418   3.556
44196W        W12590  10.788  33.681  11.534
44197W        W12591  41.063  38.939  14.934
44198W        W12592  17.065  44.419  13.500
44199W        W12593  26.697  42.895   0.329
44200W        W12594  26.551  20.704  11.189
44201W        W12595  33.027  21.470  14.044
44202W        W12596  23.760  40.553   0.432
44203W        W12597   8.488  15.257  13.573
44204W        W12598  36.984  12.798  14.375
44205W        W12599   3.211  30.627  14.833
44206W        W12600  42.015   6.638   3.933
44207W        W12601  33.407  24.037   3.789
44208W        W12602   9.170  36.110  11.576
44209W        W12603  30.399   2.742   4.609
44210W        W12604  27.624  18.086   0.332
44211W        W12605   8.628   5.226   1.774
44212W        W12606  23.038  15.592   1.793
44213W        W12607  15.255  22.342   0.723
44214W        W12608  30.614  16.391  12.148
44215W        W12609  30.016   2.863   1.321
44216W        W12610  29.023  17.162   0.842
44217W        W12611  13.576  41.431  11.378
44218W        W12612  39.515  29.872  13.471
44219W        W12613  39.596   4.766   1.308
44220W        W12614  38.516  41.706  10.790
44221W        W12615  20.822  18.594   0.633
44222W        W12616  27.129  40.279   1.271
44223W        W12617  16.604  41.605   4.996
44224W        W12618  20.951   4.711   2.243
44225W        W12619  21.643   5.310   4.325
44226W        W12620  20.277   0.977   0.909
44227W        W12621  38.933   4.818   4.164
44228W        W12622   6.795  34.170  11.669
44229W        W12623  31.585  23.756   2.248
44230W        W12624  42.380   3.956   3.180
44231W        W12625   6.438  44.166   3.362
44232W        W12626   0.165  32.146   3.235
44233W        W12627  35.046  13.774  14.481
44234W        W12628  42.082  21.677  14.425
44235W        W12629  19.023  33.837   3.661
44236W        W12630   8.916  27.400  11.822
44237W        W12631  34.608   1.478  12.466
44238W        W12632  30.411  32.398  13.896
44239W        W12633  13.883   3.545  12.954
44240W        W12634  25.242  18.646   1.918
44241W        W12635  27.038  11.455   3.222
44242W        W12636   8.744  40.527   4.114
44243W        W12637  31.631  14.866   3.055
44244W        W12638  43.972  18.211   4.590
44245W        W12639  15.366  18.597  13.836
44246W        W12640  32.444  24.764  10.762
44247W        W12641  39.307  35.984   2.676
44248W        W12642  35.356  29.793  14.407
44249W        W12643  28.657  27.461  14.957
44250W        W12644  40.231  26.634   3.097
44251W        W12645  24.599  19.599   2.323
44252W        W12646  15.058  11.558   2.240
44253W        W12647  16.722  39.405  12.390
44254W        W12648  36.662  27.588  14.105
44255W        W12649  10.154  22.108   0.422
44256W        W12650  43.867  38.390   0.710
44257W        W12651  24.205  40.453  11.632
44258W        W12652  34.449   4.969   3.248
44259W        W12653  38.356  38.326   3.159
44260W        W12654  12.124   8.263  10.903
44261W        W12655  32.177  33.430   2.802
44262W        W12656  17.405  20.973   4.059
44263W        W12657   1.203  41.863   4.156
44264W        W12658  40.712  28.537  11.568
44265W        W12659  21.097  16.330  13.380
44266W        W12660  44.316  17.238   3.146
44267W        W12661  23.826   6.011   3.834
44268W        W12662  42.314  23.806  14.462
44269W        W12663  29.355  26.002   0.761
44270W        W12664  37.924  14.822   4.153
44271W        W12665   5.451  15.529   4.665
44272W        W12666   9.372  42.618  14.529
44273W        W12667  43.736  38.824  13.259
44274W        W12668   8.782  41.890  11.465
44275W        W12669  22.452  38.312  13.574
44276W        W12670  29.513   8.863  11.178
44277W        W12671  10.549  24.595  11.211
44278W        W12672  19.391  44.829  12.889
44279W        W12673  16.638  11.303   0.036
44280W        W12674   8.190   1.530   2.716
44281W        W12675   0.472   0.788  14.079
44282W        W12676  12.220  20.716  13.702
44283W        W12677   8.720  12.219  12.412
44284W        W12678   6.268   3.186  13.599
44285W        W12679  43.116   6.837  14.357
44286W        W12680  19.651  12.586  11.155
44287W        W12681   4.664   9.127  13.003
44288W        W12682  34.389  17.735   0.801
44289W        W12683  43.293  16.913   1.311
44290W        W12684   8.767  40.275  12.193
44291W        W12685  16.363  38.022  13.362
44292W        W12686   9.092  27.933   3.437
44293W        W12687   9.610  11.259   1.319
44294W        W12688  29.231  43.014   0.360
44295W        W12689  19.747  30.228  12.038
44296W        W12690  40.410  36.192   0.504
44297W        W12691  39.905  41.343  10.585
44298W        W12692  24.350  41.538  13.375
44299W        W12693  17.066  23.606   3.889
44300W        W12694   4.480   0.944   4.649
44301W        W12695   1.768  44.258  11.182
44302W        W12696  30.534  43.482   2.257
44303W        W12697  30.730  39.330  10.690
44304W        W12698  32.940  26.649  13.285
44305W        W12699   4.301  29.627   5.048
44306W        W12700   7.678  10.590   1.143
44307W        W12701  31.369  20.062  11.565
44308W        W12702  26.736  36.507   3.738
44309W        W12703  36.204  41.984  13.544
44310W        W12704  32.876  24.923   3.995
44311W        W12705  29.088  43.764  10.971
44312W        W12706  14.148   3.769   2.433
44313W        W12707  20.464   5.833  14.888
44314W        W12708  15.637  36.839   0.803
44315W        W12709  30.375  35.679   0.164
44316W        W12710  11.866  14.196   3.540
44317W        W12711  33.097  28.448   1.691
44318W        W12712  19.143  23.483   0.420
44319W        W12713  14.027   5.723   1.800
44320W        W12714   0.528  33.108   1.780
44321W        W12715   4.221  29.194  10.891
44322W        W12716  40.676  17.035  10.292
44323W        W12717   0.319  10.112  12.002
44324W        W12718   0.804   8.148   0.659
44325W        W12719  16.273  36.936   0.213
44326W        W12720  41.856  43.253  12.942
44327W        W12721   1.831  17.370   3.788
44328W        W12722  27.100   0.474   4.549
44329W        W12723  40.819  41.973  13.606
44330W        W12724  13.119  34.955   2.433
44331W        W12725   7.505  21.661  14.533
44332W        W12726  20.754  32.906   1.781
44333W        W12727  22.636  33.054   1.744
44334W        W12728  12.223   1.909  10.937
44335W        W12729   7.638   6.210   4.194
44336W        W12730  23.265  29.014  11.389
44337W        W12731  15.157  15.013   2.970
44338W        W12732  28.246  30.890   0.695
44339W        W12733   3.593  11.051   4.298
44340W        W12734  39.070   0.563  13.121
44341W        W12735  35.386  20.182  12.459
44342W        W12736  21.654   3.343   1.021
44343W        W12737  13.814  36.936   2.579
44344W        W12738  23.174   7.289   1.515
44345W        W12739   1.930  12.116  13.055
44346W        W12740  25.619  37.544   0.143
44347W        W12741   8.090  20.532  11.699
44348W        W12742  24.652  33.729   0.410
44349W        W12743  12.330  13.764   2.070
44350W        W12744   0.339  43.388   4.922
44351W        W12745  42.802  34.761   2.261
44352W        W12746  14.975   8.621  10.210
44353W        W12747   5.695  31.622  10.717
44354W        W12748   5.253  10.360   4.498
44355W        W12749  19.569  41.949  12.724
44356W        W12750  16.333  26.505  10.599
44357W        W12751  43.016  38.972   3.549
44358W        W12752   5.281  34.585   2.748
44359W        W12753  23.510  31.998  14.353
44360W        W12754  17.963  41.497  14.883
44361W        W12755  20.134  19.491   4.611
44362W        W12756  22.832  17.362  13.421
44363W        W12757   2.823   1.986   3.623
44364W        W12758  34.610  44.458  13.850
44365W        W12759  12.197  28.550  10.851
44366W        W12760  16.393   1.393   1.000
44367W        W12761   7.978  24.441  11.744
44368W        W12762  32.524  12.075   3.405
44369W        W12763  29.451  17.244   0.503
44370W        W12764  36.042  24.144  12.350
44371W        W12765  19.217  37.380   0.042
44372W        W12766   8.503  17.407  11.503
44373W        W12767  33.815  35.334   3.659
44374W        W12768  17.016   1.569   3.268
44375W        W12769  40.515  44.542   4.951
44376W        W12770   3.211  37.390  12.829
44377W        W12771  17.718  10.790   2.726
44378W        W12772  29.472  44.849   2.391
44379W        W12773   3.213  38.909  12.550
44380W        W12774  15.362   7.950   0.150
44381W        W12775   7.244   1.952   2.101
44382W        W12776   9.443  28.675   1.016
44383W        W12777  11.660  25.208  11.661
44384W        W12778  28.356   6.052   4.105
44385W        W12779  38.558  35.355  13.778
44386W        W12780  44.209   7.554  14.837
44387W        W12781  36.606   4.725  10.186
44388W        W12782   5.270  41.305  10.514
44389W        W12783  15.275  18.256  14.234
44390W        W12784  27.592  13.148  11.178
44391W        W12785  27.220   4.283   2.742
44392W        W12786  22.478   6.390   0.792
44393W        W12787  38.942  21.561  11.364
44394W        W12788  21.908  10.599   0.841
44395W        W12789  10.159   4.447  14.060
44396W        W12790   5.147   4.784   0.460
44397W        W12791  27.340   6.737  11.421
44398W        W12792  19.115  26.620  12.413
44399W        W12793  13.062  31.660   4.291
44400W        W12794  27.727  21.726  14.840
44401W        W12795  40.384  25.035   3.198
44402W        W12796  25.067  27.994  13.856
44403W        W12797  21.904   4.454   3.081
44404W        W12798   6.541   9.850   2.165
44405W        W12799  14.538  16.779   1.940
44406W        W12800  42.846  27.958  11.588
44407W        W12801  34.083  28.397  10.728
44408W        W12802  21.000   1.743   0.909
44409W        W12803  28.167   6.279   0.476
44410W        W12804  31.027  29.582   3.561
44411W        W12805  18.115  32.963   1.567
44412W        W12806  17.969  12.665  12.105
44413W        W12807  38.290   7.566   2.823
44414W        W12808  16.017  38.377  12.797
44415W        W12809   0.315   5.692  12.413
44416W        W12810  44.204  19.697   3.842
44417W        W12811  32.848  14.674  10.894
44418W        W12812  12.849   0.846  14.291
44419W        W12813   3.503  16.187  11.933
44420W        W12814   2.356  42.463  14.036
44421W        W12815  20.796  20.029  11.967
44422W        W12816   5.403  21.493  11.684
44423W        W12817  20.003  33.458  13.558
44424W        W12818  12.914  20.504   1.654
44425W        W12819  18.868  41.045   4.945
44426W        W12820  34.216  14.762   0.302
44427W        W12821  33.339  42.568  10.787
44428W        W12822  36.737  20.602   4.887
44429W        W12823   7.368  17.588   1.901
44430W        W12824  44.378   6.253   0.893
44431W        W12825  26.670  28.031   2.427
44432W        W12826  28.683  42.440  14.551
44433W        W12827  18.808  30.658  13.028
44434W        W12828  36.415  10.172   0.703
44435W        W12829  32.006  41.526  11.173
44436W        W12830  14.900  11.400   1.062
44437W        W12831   3.546  27.558  14.438
44438W        W12832  19.451  33.317   1.705
44439W        W12833  16.577  36.361   4.914
44440W        W12834   5.437  22.038   2.733
44441W        W12835  28.119  12.753  12.951
44442W        W12836  18.062  39.059  14.398
44443W        W12837   2.768  16.770   4.110
44444W        W12838  14.085  41.543   2.830
44445W        W12839   5.796  11.638  13.145
44446W        W12840  32.163  34.356  14.367
44447W        W12841  37.696   0.909   2.516
44448W        W12842   5.734   7.174   2.944
44449W        W12843  12.795  33.292   5.165
44450W        W12844  12.805  29.197  11.105
44451W        W12845  12.358   4.771  10.915
44452W        W12846  12.562  29.181   2.854
44453W        W12847  22.176  17.079   0.798
44454W        W12848  30.180  37.801   1.342
44455W        W12849  28.523  36.659   2.188
44456W        W12850  14.516  10.143  10.049
44457W        W12851  23.596  24.011   2.729
44458W        W12852  20.604  20.066  12.823
44459W        W12853  26.486  25.218  12.962
44460W        W12854  26.566  14.231   1.087
44461W        W12855  36.837   9.330   1.899
44462W        W12856  43.286  44.800  11.643
44463W        W12857  38.060  10.682   3.787
44464W        W12858  44.384  13.648  11.054
44465W        W12859  16.832  20.142   3.249
44466W        W12860  28.473   4.774  14.445
44467W        W12861  36.137   5.586  11.279
44468W        W12862   1.718  34.969  13.784
44469W        W12863  21.382   8.787   4.876
44470W        W12864   3.240  11.622   2.659
44471W        W12865  27.589  17.529   2.821
44472W        W12866   3.001  16.384   3.760
44473W        W12867   0.732  10.643  11.068
44474W        W12868  23.820  17.596   2.805
44475W        W12869  33.852  41.320   3.221
44476W        W12870  32.047  17.950  13.259
44477W        W12871  42.843  30.005   1.052
44478W        W12872   5.202  17.998   4.113
44479W        W12873  12.616  37.070  12.431
44480W        W12874   2.017  35.623   3.735
44481W        W12875  35.784  29.188  13.673
44482W        W12876   3.452   6.683  14.817
44483W        W12877  10.220  13.750  14.771
44484W        W12878  37.321  35.097  14.975
44485W        W12879   8.118  43.059  14.816
44486W        W12880  15.261  21.980  11.063
44487W        W12881  43.006  20.577   0.745
44488W        W12882   7.119  32.155   4.637
44489W        W12883   0.899  18.347   1.780
44490W        W12884  17.703  23.784   2.661
44491W        W12885   7.236   6.257   3.181
44492W        W12886  14.777  12.186  10.716
44493W        W12887  37.813  11.686  13.889
44494W        W12888   7.647   1.676  14.700
44495W        W12889  10.172  26.214   4.977
44496W        W12890   4.669   5.032   0.370
44497W        W12891   6.331  44.414  14.481
44498W        W12892  10.301  12.294   0.003
44499W        W12893   9.382  16.764  12.996
44500W        W12894  13.261  12.491   3.622
44501W        W12895  36.266   9.137   0.396
44502W        W12896  17.614  20.685  12.332
44503W        W12897  10.310  42.350  11.357
44504W        W12898  43.500  42.281   4.093
44505W        W12899  33.047  40.854  13.404
44506W        W12900   9.538  41.124   4.078
44507W        W12901  23.147  24.753   3.205
44508W        W12902  13.375  26.065   4.230
44509W        W12903  15.701  36.999   2.553
44510W        W12904  32.915  43.920  11.206
44511W        W12905   6.918  43.558  11.103
44512W        W12906  20.288  28.377   4.638
44513W        W12907  24.158  18.669  10.867
44514W        W12908  27.760  39.125   3.757
44515W        W12909  34.871   6.248   3.708
44516W        W12910  35.067   2.193  14.515
44517W        W12911  10.441  42.796   1.325
44518W        W12912  44.951  39.502   5.850
44519W        W12913   4.037  25.563  13.519
44520W        W12914   7.601  13.009   1.812
44521W        W12915  21.046  29.830   4.998
44522W        W12916  20.984  24.151   5.048
44523W        W12917  35.888  38.365   1.843
44524W        W12918  20.725   1.507  12.245
44525W        W12919   5.283  20.526   3.701
44526W        W12920  38.141  40.002   3.690
44527W        W12921   1.222  31.669   1.694
44528W        W12922  40.336   1.266  13.900
44529W        W12923  35.164  35.937  12.977
44530W        W12924  21.887  38.469   4.128
44531W        W12925   1.600   1.943   0.037
44532W        W12926  21.725  25.895  13.429
44533W        W12927  30.701  39.020   0.897
44534W        W12928  25.738  42.388   1.937
44535W        W12929  39.740  37.009   4.544
44536W        W12930   4.157  18.963   3.085
44537W        W12931  26.667  20.868  11.955
44538W        W12932  23.586  27.056  10.568
44539W        W12933  39.958  32.031  10.623
44540W        W12934  26.698  25.507   3.652
44541W        W12935  23.690  18.371  10.642
44542W        W12936  13.088  15.074   2.320
44543W        W12937  25.275  35.894   2.809
44544W        W12938  22.836   6.395  14.789
44545W        W12939  24.272  33.861  11.991
44546W        W12940   2.428   6.312   4.018
44547W        W12941  11.224  38.104   1.406
44548W        W12942   2.028  40.480  14.438
44549W        W12943  20.072  10.710   1.009
44550W        W12944  34.992  26.554   3.042
44551W        W12945  12.573  35.838  14.600
44552W        W12946  41.492   5.693  14.804
44553W        W12947  38.781  14.314  14.433
44554W        W12948  39.972  11.072   4.242
44555W        W12949  14.163   1.894  11.924
44556W        W12950  24.183   8.221   1.782
44557W        W12951  10.608  36.180   2.351
44558W        W12952  35.055  16.629   3.338
44559W        W12953   2.332   6.261  11.637
44560W        W12954  13.292  29.012   0.702
44561W        W12955   3.959  19.605  13.478
44562W        W12956  18.789  43.769   4.379
44563W        W12957  32.480  43.810  12.397
44564W        W12958  16.643  19.782  13.834
44565W        W12959  18.312   0.848  14.036
44566W        W12960  31.642   0.194   1.824
44567W        W12961  14.986  16.982   2.617
44568W        W12962   9.742   5.754  13.993
44569W        W12963  27.165  26.075   2.739
44570W        W12964   1.827  30.106  10.909
44571W        W12965  30.952  43.898  14.466
44572W        W12966  44.754  34.523   4.642
44573W        W12967  25.598  41.623  12.986
44574W        W12968  17.288   7.356   2.208
44575W        W12969  20.449   6.389  12.513
44576W        W12970   7.758  39.513   1.189
44577W        W12971  11.395   1.964  10.826
44578W        W12972   2.312  43.339   3.784
44579W        W12973  14.193  18.915  11.473
44580W        W12974   5.153  15.121  11.240
44581W        W12975   1.678  28.177  11.988
44582W        W12976  21.206  12.329   2.375
44583W        W12977  13.693   8.887   1.801
44584W        W12978  26.129  19.012  11.534
44585W        W12979  40.040   2.582   3.393
44586W        W12980  38.871   0.157   3.611
44587W        W12981  22.553   4.122  13.282
44588W        W12982  32.454   5.461   4.139
44589W        W12983  42.688   4.792   1.637
44590W        W12984  27.084  22.147  13.887
44591W        W12985  30.254   6.603   0.828
44592W        W12986  35.419  36.891   0.470
44593W        W12987  37.756   4.125   3.271
44594W        W12988  28.655  39.387  13.852
44595W        W12989  39.966  30.167   2.382
44596W        W12990   1.485  13.178   2.376
44597W        W12991  36.544  21.551   0.324
44598W        W12992   0.366  41.303   3.869
44599W        W12993  23.943  31.014  11.156
44600W        W12994   4.401   6.179  12.077
44601W        W12995  42.485   4.153  14.425
44602W        W12996  29.683  19.751  13.965
44603W        W12997   5.712  30.943  11.224
44604W        W12998  12.735   0.773   1.142
44605W        W12999  13.075  11.864  14.888
44606W        W13000  30.451  20.608  12.011
44607W        W13001  21.457  43.590   3.068
44608W        W13002  17.993  35.782  14.232
44609W        W13003  38.493  43.380  11.159
44610W        W13004  37.461  34.191   4.589
44611W        W13005  43.543  15.657   4.453
44612W        W13006  22.008  31.490   3.583
44613W        W13007  23.662  43.282  14.913
44614W        W13008  16.545  29.902   0.921
44615W        W13009   3.003  35.701   1.227
44616W        W13010  31.776   0.440  11.133
44617W        W13011  32.507  21.973   2.921
44618W        W13012  44.846  16.320  12.395
44619W        W13013  36.548   2.364   0.823
44620W        W13014  22.682  24.488  13.424
44621W        W13015  21.271  22.095  14.997
44622W        W13016  16.274   9.217  11.375
44623W        W13017  36.498  43.380   3.707
44624W        W13018   1.487   1.273  10.734
44625W        W13019  13.761   0.427  13.008
44626W        W13020  16.875  44.984  11.291
44627W        W13021   6.147  33.984   0.890
44628W        W13022   5.454  44.174  11.187
44629W        W13023  34.770  38.868  13.010
44630W        W13024  32.392   2.355   0.396
44631W        W13025  24.150  43.161   1.134
44632W        W13026  18.717   8.092  10.565
44633W        W13027  21.739  31.816  13.965
44634W        W13028  32.389  32.938   3.692
44635W        W13029  39.983   3.788   1.655
44636W        W13030  32.086  34.877  12.831
44637W        W13031  35.571  23.722  13.056
44638W        W13032  17.522   9.154  12.110
44639W        W13033  35.298  18.636  14.039
44640W        W13034  19.135  19.772   4.190
44641W        W13035  18.191  37.355  14.505
44642W        W13036  41.379   7.698   4.241
44643W        W13037  18.214  19.400  11.977
44644W        W13038  32.956  42.757  14.534
44645W        W13039  40.799  33.752  14.778
44646W        W13040  31.695   5.713   2.403
44647W        W13041   2.956  41.981  12.973
44648W        W13042  19.265   9.222  10.434
44649W        W13043  43.972  28.739   3.213
44650W        W13044  33.248   0.438   1.038
44651W        W13045  38.143   6.235   0.843
44652W        W13046  22.012  27.518   0.344
44653W        W13047   8.811  44.879  10.448
44654W        W13048  28.368  43.171   1.433
44655W        W13049  14.172   9.893  14.233
44656W        W13050   5.323  27.610   1.019
44657W        W13051   6.892  10.703  10.908
44658W        W13052  18.781  23.386  12.525
44659W        W13053   1.097  36.805  10.767
44660W        W13054  33.397  10.119   0.332
44661W        W13055   3.017  29.510   4.688
44662W        W13056  24.081  14.795   0.425
44663W        W13057  15.529  26.519   4.517
44664W        W13058  23.146  15.961  11.992
44665W        W13059  34.891  37.380  12.926
44666W        W13060  27.558  35.844   2.655
44667W        W13061  23.546   7.574   4.874
44668W        W13062   8.699   4.458   1.374
44669W        W13063  31.961   6.117  14.429
44670W        W13064  28.863   3.984   0.414
44671W        W13065  36.973  20.787   3.254
44672W        W13066  21.078  37.291   3.075
44673W        W13067  20.406  13.625  11.606
44674W        W13068  42.031   3.134  13.036
44675W        W13069  34.378  23.786  11.487
44676W        W13070   2.802  31.390  13.319
44677W        W13071  18.212  13.303  14.731
44678W        W13072  44.338  28.198  11.228
44679W        W13073  20.315   3.794   0.850
44680W        W13074  28.076  14.776   2.314
44681W        W13075   4.739  42.427   1.800
44682W        W13076  26.436   3.272   4.233
44683W        W13077  21.465  11.917   2.634
44684W        W13078   6.803   5.253  14.252
44685W        W13079  41.505  21.717   2.694
44686W        W13080   6.429  37.474  13.355
44687W        W13081  42.267  14.752   2.702
44688W        W13082  37.075  10.647  11.187
44689W        W13083  10.307  31.956   2.817
44690W        W13084  30.083  42.251   2.094
44691W        W13085  30.923   7.315  10.744
44692W        W13086   7.897  10.379  14.358
44693W        W13087  21.029  31.984   2.594
44694W        W13088  32.536  11.086   3.842
44695W        W13089  41.958   6.697  12.617
44696W        W13090  15.232  19.933   2.914
44697W        W13091  21.609  38.054   2.598
44698W        W13092   3.668  14.759   3.847
44699W        W13093   6.336  26.998  14.351
44700W        W13094  19.000   0.199  13.975
44701W        W13095  18.565  26.323  10.700
44702W        W13096  35.955  41.279  10.737
44703W        W13097   8.827  43.985   2.821
44704W        W13098  36.491  14.095   0.719
44705W        W13099  31.850  40.717  13.031
44706W        W13100  26.241  10.456   0.740
44707W        W13101  17.193  42.364   4.131
44708W        W13102   7.150  20.609  11.402
44709W        W13103  17.748  19.521   1.849
44710W        W13104  33.190  39.484   4.739
44711W        W13105   9.162  12.671   2.041
44712W        W13106  10.195  33.709  13.699
44713W        W13107  35.866  43.830   4.635
44714W        W13108  22.184  11.938   2.268
44715W        W13109   2.881  33.727   1.341
44716W        W13110   8.779  44.769  11.895
44717W        W13111  32.610  33.161  14.718
44718W        W13112  23.604  37.887   3.924
44719W        W13113   7.418  14.227   0.837
44720W        W13114  25.223   6.617  13.895
44721W        W13115  26.015  38.059  14.887
44722W        W13116  43.923  34.633   3.606
44723W        W13117   9.253  10.825   0.425
44724W        W13118  31.868   1.899  14.905
44725W        W13119  42.362   1.484   3.006
44726W        W13120  43.376   0.572  12.937
44727W        W13121  33.679  24.626  12.013
44728W        W13122  13.698  18.260  11.074
44729W        W13123  17.515  21.238  11.105
44730W        W13124  31.987  38.810   3.674
44731W        W13125  33.408  26.769  12.492
44732W        W13126   9.292  16.904   0.753
44733W        W13127  27.083  16.829  11.606
44734W        W13128  23.649   0.216  11.021
44735W        W13129  43.259  21.753   4.772
44736W        W13130  39.331  13.717   4.759
44737W        W13131   7.892   7.665   2.543
44738W        W13132  20.812  41.953  13.389
44739W        W13133   7.406  36.949   0.103
44740W        W13134  26.949  25.098   4.130
44741W        W13135  43.609   9.606   0.800
44742W        W13136  13.836   3.036  12.977
44743W        W13137  21.705  38.073  12.016
44744W        W13138  36.799  34.577  14.420
44745W        W13139   9.295  40.824  10.744
44746W        W13140   0.780  12.767   2.877
44747W        W13141   6.669  36.334   0.636
44748W        W13142  16.161   7.317  11.279
44749W        W13143  14.502  14.744  14.522
44750W        W13144  15.278  22.956   4.972
44751W        W13145  13.418  23.317   4.158
44752W        W13146  39.208  36.002  14.135
44753W        W13147  11.162  39.981  14.927
44754W        W13148   7.456  26.694   4.995
44755W        W13149  11.989  29.599   2.133
44756W        W13150  40.919  21.030  12.901
44757W        W13151  28.083  29.126  11.466
44758W        W13152  26.670  27.519  12.986
44759W        W13153  17.827  29.003  11.886
44760W        W13154  43.777  15.478   2.374
44761W        W13155   5.346   6.734   4.914
44762W        W13156  12.840  39.257  10.949
44763W        W13157   9.784  36.444  12.052
44764W        W13158  32.533  38.825   2.816
44765W        W13159   3.751  22.669  12.767
44766W        W13160  17.358  15.759  14.572
44767W        W13161  12.741  23.707  14.911
44768W        W13162   5.748  41.433   2.963
44769W        W13163   2.357  25.036  13.389
44770W        W13164  26.387  11.332  14.855
44771W        W13165  43.367   0.343  13.405
44772W        W13166   9.342  27.409   1.368
44773W        W13167  40.943  15.116   1.276
44774W        W13168  37.732   0.349  10.664
44775W        W13169  21.465  43.759  11.103
44776W        W13170  37.582  33.389   3.313
44777W        W13171   7.191  43.855   0.331
44778W        W13172  27.515  27.435  14.753
44779W        W13173  20.352  15.941   3.321
44780W        W13174  32.635  10.259   3.133
44781W        W13175  40.506  30.326  13.829
44782W        W13176  43.257   2.277   4.212
44783W        W13177  17.213  23.513  11.096
44784W        W13178   9.327  41.973  12.529
44785W        W13179  26.519  13.197  11.168
44786W        W13180  42.400  37.515   2.776
44787W        W13181  15.293  20.220  13.411
44788W        W13182   3.427  41.004   1.739
44789W        W13183  40.792  29.170  14.517
44790W        W13184  17.064  15.696  11.455
44791W        W13185  37.488  18.505  14.800
44792W        W13186   0.430   5.932  12.889
44793W        W13187   5.658  33.611  11.631
44794W        W13188  10.473  30.640  11.148
44795W        W13189   4.351   2.529   1.535
44796W        W13190  28.879  26.270   3.402
44797W        W13191  16.282  33.508  13.309
44798W        W13192  12.842  26.038   1.178
44799W        W13193   3.858  16.822  11.842
44800W        W13194  12.869   2.989  11.505
44801W        W13195  24.663  34.434  11.577
44802W        W13196   7.784  23.642   0.758
44803W        W13197   2.149  24.732   1.688
44804W        W13198   3.981  23.270   2.318
44805W        W13199  17.906  40.935   9.908
44806W        W13200  25.631  17.642  14.125
44807W        W13201  34.640  37.510  13.580
44808W        W13202  44.261  19.474  12.592
44809W        W13203  14.542  39.058   2.613
44810W        W13204  11.706  30.410  12.433
44811W        W13205  27.507   6.159   4.855
44812W        W13206   4.808   8.635  13.021
44813W        W13207   6.821  30.955   0.353
44814W        W13208   3.039  34.378   3.663
44815W        W13209  22.429   6.293   1.815
44816W        W13210  30.990   1.751   3.071
44817W        W13211   7.385   5.375  14.076
44818W        W13212   0.457  14.661  14.455
44819W        W13213  43.062  37.287   2.166
44820W        W13214  15.523   6.857  14.917
44821W        W13215   3.928  17.074   2.339
44822W        W13216  32.165  21.190  12.984
44823W        W13217  39.548  40.020   0.301
44824W        W13218  38.481   8.821   1.595
44825W        W13219  11.281  35.517   2.782
44826W        W13220  43.352  30.683   2.792
44827W        W13221  32.132  10.453   1.833
44828W        W13222  12.090  32.644  10.726
44829W        W13223  34.921   4.990  14.479
44830W        W13224  20.236  41.986   0.915
44831W        W13225  29.423  11.854   3.149
44832W        W13226  18.597  12.858  14.762
44833W        W13227   6.813   3.709   2.823
44834W        W13228   3.795  10.196   4.965
44835W        W13229  18.616  14.693   2.762
44836W        W13230   6.440  22.621  11.585
44837W        W13231  18.275  31.195   0.485
44838W        W13232  31.081  42.346   4.597
44839W        W13233  42.346  13.692   3.130
44840W        W13234  11.610  28.440   3.157
44841W        W13235  14.630  33.880  14.089
44842W        W13236  12.601  41.065  12.969
44843W        W13237   1.732  30.817  12.599
44844W        W13238  10.750  10.368   4.147
44845W        W13239  13.204   1.226  14.706
44846W        W13240  27.912   0.103   5.474
44847W        W13241  12.522   5.703   9.751
44848W        W13242  23.048   3.234  14.534
44849W        W13243  20.631  29.237   1.679
44850W        W13244  19.225  44.053   4.290
44851W        W13245  35.562  24.188   3.020
44852W        W13246   8.391  22.993  12.472
44853W        W13247  17.656  37.314   5.697
44854W        W13248  11.682  14.570   1.245
44855W        W13249  39.907  29.522   2.139
44856W        W13250   4.792  40.239   1.136
44857W        W13251  20.542  27.868  11.133
44858W        W13252  34.715  14.664   3.225
44859W        W13253  31.780  19.837  13.426
44860W        W13254  20.780  43.682   3.796
44861W        W13255  11.122   9.893  14.154
44862W        W13256   9.886  36.313  10.463
44863W        W13257  14.176  14.846   1.770
44864W        W13258  22.615  11.910   4.002
44865W        W13259   7.707  21.134  10.647
44866W        W13260  18.847   5.276  13.992
44867W        W13261  11.404  34.919  13.038
44868W        W13262   2.953  34.805  13.946
44869W        W13263  26.463  19.122   4.702
44870W        W13264   9.479   7.203   2.701
44871W        W13265   6.826  41.277  13.556
44872W        W13266  43.742  28.735  13.108
44873W        W13267  17.218  11.001   4.609
44874W        W13268  37.781  31.369   1.549
44875W        W13269  14.686  32.845   0.989
44876W        W13270  41.338  12.440   4.104
44877W        W13271  44.819   6.901  14.257
44878W        W13272  10.579  11.864  10.818
44879W        W13273  41.313   0.466   4.022
44880W        W13274   5.847   0.906   4.519
44881W        W13275  23.515  19.045  14.893
44882W        W13276  23.744  11.245   1.841
44883W        W13277   1.872   5.328  12.145
44884W        W13278  14.689  28.031  10.763
44885W        W13279  42.604  35.386   4.123
44886W        W13280  17.685  12.223   0.417
44887W        W13281  39.877  26.085   1.860
44888W        W13282  27.156  44.343   3.136
44889W        W13283   9.889  24.154  10.176
44890W        W13284  11.969  34.395  12.401
44891W        W13285  41.529  14.158  12.633
44892W        W13286  20.666  28.209   4.979
44893W        W13287  22.252   9.841   1.210
44894W        W13288  28.329  25.540  10.562
44895W        W13289  20.657  18.002  14.948
44896W        W13290  33.200  25.572   0.948
44897W        W13291  14.093  37.552   3.746
44898W        W13292   1.427   7.027   0.893
44899W        W13293  41.583   9.275  10.469
44900W        W13294  10.697  42.839  12.527
44901W        W13295  10.227  31.448   2.871
44902W        W13296  21.842  16.174   0.331
44903W        W13297  20.722   6.990  13.795
44904W        W13298  26.099  27.119   4.528
44905W        W13299  16.833   9.760   1.307
44906W        W13300  43.143  23.299  14.315
44907W        W13301  24.128   4.643  11.992
44908W        W13302   9.017  25.280   4.137
44909W        W13303  27.140  19.079  14.506
44910W        W13304  40.763  29.543  14.897
44911W        W13305  22.486  18.649   0.372
44912W        W13306   4.851  41.729  10.347
44913W        W13307   7.872   7.849  13.412
44914W        W13308  33.540  40.750  13.513
44915W        W13309  16.465   1.158  10.926
44916W        W13310   7.816  26.637  10.277
44917W        W13311   9.690  29.002   2.707
44918W        W13312  35.867  28.409   1.958
44919W        W13313  15.521  11.924  14.296
44920W        W13314  16.318  25.520   4.193
44921W        W13315  33.367   7.797   2.232
44922W        W13316  41.071  35.286  11.459
44923W        W13317   1.552  33.117   1.792
44924W        W13318  39.466  40.646   3.358
44925W        W13319   4.013  25.829   0.505
44926W        W13320   1.451   3.782   0.484
44927W        W13321  41.855   4.347   3.654
44928W        W13322  35.055  41.546   2.184
44929W        W13323  15.994  16.998  14.052
44930W        W13324   4.889  19.255  10.803
44931W        W13325   7.110  20.764   0.875
44932W        W13326  28.222  19.647  10.771
44933W        W13327  17.700  34.366   3.732
44934W        W13328  38.558  10.882  12.422
44935W        W13329  26.646  29.163   2.236
44936W        W13330   8.768  34.123   2.383
44937W        W13331  22.508   5.198   1.900
44938W        W13332  39.524  42.465   4.155
44939W        W13333   6.236   5.595   0.695
44940W        W13334   5.489  32.978  14.381
44941W        W13335   4.848  24.033   3.282
44942W        W13336   2.820  34.548   4.622
44943W        W13337  36.791  11.308  12.381
44944W        W13338  29.874  13.573   4.162
44945W        W13339  24.710  19.720   4.197
44946W        W13340  13.826   6.102  11.698
44947W        W13341  18.711  16.567   1.283
44948W        W13342  38.619  31.050   4.521
44949W        W13343  20.577  37.466  13.532
44950W        W13344   6.193  36.872   3.255
44951W        W13345   3.708   7.310   0.417
44952W        W13346  16.752  10.154   2.565
44953W        W13347  31.078  27.047   0.595
44954W        W13348  30.686   9.844  10.890
44955W        W13349  28.088  28.865  10.605
44956W        W13350  32.666  28.868  14.853
44957W        W13351   2.968  19.038  12.302
44958W        W13352   0.060  20.605   4.136
44959W        W13353   5.200  27.471   9.620
44960W        W13354   1.318  36.386  13.027
44961W        W13355   5.022   8.221   1.385
44962W        W13356   5.290   4.360  14.463
44963W        W13357  29.473  14.509  14.999
44964W        W13358  17.985   2.259  11.782
44965W        W13359   8.323   2.530   2.809
44966W        W13360  12.335  36.908   0.967
44967W        W13361  32.636   7.819  13.666
44968W        W13362   9.324  25.694   1.851
44969W        W13363  41.164  39.821  13.994
44970W        W13364  33.588  36.012   1.651
44971W        W13365   2.654  12.898  14.493
44972W        W13366  38.868   9.110  12.412
44973W        W13367  22.453  23.687   1.769
44974W        W13368  35.671  12.345  13.348
44975W        W13369  28.550  25.109  14.491
44976W        W13370  38.727  34.219   2.613
44977W        W13371  12.557  23.559   2.337
44978W        W13372  39.877  12.214  13.395
44979W        W13373  28.223   9.206   1.870
44980W        W13374  15.120   7.773  14.710
44981W        W13375   9.582   2.860  12.318
44982W        W13376  40.329  28.397  14.777
44983W        W13377  42.504   4.482   2.265
44984W        W13378  13.733  38.556   0.050
44985W        W13379   6.953  34.430  13.795
44986W        W13380   4.899  14.619   0.186
44987W        W13381   5.167   9.928   1.933
44988W        W13382  10.327  20.400  10.961
44989W        W13383   2.047   3.679   3.194
44990W        W13384  21.236  38.507  14.836
44991W        W13385  13.663  33.988   1.264
44992W        W13386  37.589  27.965   0.423
44993W        W13387  33.403  20.246  12.406
44994W        W13388  39.468  24.079   1.445
44995W        W13389  41.164  25.004   0.398
44996W        W13390  36.795  40.104   1.263
44997W        W13391  40.674  24.427  13.416
44998W        W13392   8.863  27.188   3.886
44999W        W13393  33.177  43.821   4.252
45000W        W13394  10.695  18.865   4.433
45001W        W13395  20.803  37.881   0.868
45002W        W13396  28.640   2.221   2.231
45003W        W13397  44.220   4.961   0.268
45004W        W13398  22.751  14.127   0.554
45005W        W13399  12.789  41.553   3.578
45006W        W13400  41.797  24.239   1.291
45007W        W13401  29.828  28.841  14.474
45008W        W13402  35.822  12.379  12.541
45009W        W13403  11.717   2.798   1.298
45010W        W13404  16.721  27.923  11.592
45011W        W13405  39.494   5.408   1.957
45012W        W13406   7.399  29.350   1.316
45013W        W13407  17.801   4.560   1.890
45014W        W13408  12.427  34.273   3.198
45015W        W13409  39.536  31.048  12.427
45016W        W13410  30.605  35.122   2.602
45017W        W13411  24.030  33.472   2.206
45018W        W13412  43.543  14.810   1.918
45019W        W13413  36.304   9.367   3.237
45020W        W13414  36.740  32.059  14.255
45021W        W13415  20.687  11.740   2.158
45022W        W13416  40.502  41.052  13.176
45023W        W13417   9.924  39.436  12.919
45024W        W13418   8.819  12.852  14.859
45025W        W13419  14.003  44.637   4.267
45026W        W13420  40.084  35.986  14.225
45027W        W13421  37.322  30.803  11.579
45028W        W13422  31.935  20.563  11.328
45029W        W13423  32.617  42.810   0.659
45030W        W13424  27.423  38.957  12.047
45031W        W13425  15.395  22.939   1.361
45032W        W13426  10.579   0.934  11.323
45033W        W13427  14.720  35.057   4.150
45034W        W13428  18.716  13.408  14.813
45035W        W13429   5.182  15.015  12.532
45036W        W13430   8.034  27.247   4.144
45037W        W13431  18.059  27.452  11.919
45038W        W13432  34.110  33.503  11.532
45039W        W13433  22.443  21.399  12.596
45040W        W13434  21.815  12.271   2.834
45041W        W13435  43.931  38.812  12.040
45042W        W13436  32.944  21.219  12.328
45043W        W13437   2.724   5.695   3.408
45044W        W13438   1.615   9.650  12.191
45045W        W13439  22.773  14.186  12.628
45046W        W13440   6.203  10.779  13.520
45047W        W13441  17.106  14.619   3.372
45048W        W13442  26.122   6.425   0.854
45049W        W13443   2.258  16.788   4.046
45050W        W13444  13.389  13.826  13.909
45051W        W13445  22.681  44.259   0.828
45052W        W13446  33.529  34.584   1.738
45053W        W13447  28.521   7.245  12.484
45054W        W13448  10.704  34.402   1.633
45055W        W13449  13.588   2.431   2.256
45056W        W13450  24.072   7.499   1.078
45057W        W13451  35.853  39.959  13.074
45058W        W13452   1.449  11.880   3.795
45059W        W13453  11.214  24.188  14.279
45060W        W13454  17.606  33.120   2.799
45061W        W13455  23.227   8.841   2.304
45062W        W13456  44.192   1.679   2.139
45063W        W13457  26.021  16.279   0.228
45064W        W13458   3.770  38.881  14.892
45065W        W13459  21.976  39.579  11.092
45066W        W13460   5.150  39.387   1.308
45067W        W13461   5.386  37.454   4.287
45068W        W13462   8.133  19.151  12.195
45069W        W13463  22.880  27.664  10.418
45070W        W13464   7.760  14.306  13.076
45071W        W13465   6.421  12.208   4.211
45072W        W13466  25.724  31.107  10.875
45073W        W13467   1.185  13.532   4.999
45074W        W13468  39.068  26.057  12.930
45075W        W13469   7.103  14.289   0.450
45076W        W13470   5.268  22.000   4.057
45077W        W13471  23.945  14.084   2.286
45078W        W13472   9.983  11.241   2.555
45079W        W13473  31.185  40.004   2.292
45080W        W13474  14.227  20.742   1.141
45081W        W13475  11.117   3.686   1.376
45082W        W13476  14.061   6.701   3.642
45083W        W13477  20.945  14.078   0.755
45084W        W13478   0.016  19.067   2.020
45085W        W13479  18.121  43.875   1.491
45086W        W13480  20.495  25.638   0.765
45087W        W13481  34.698  38.293  11.130
45088W        W13482   0.954  15.494  11.546
45089W        W13483  32.421  28.072   1.305
45090W        W13484  11.878  34.023   0.228
45091W        W13485  32.643   1.867   0.394
45092W        W13486  29.343   0.749   2.148
45093W        W13487  10.541  34.633  14.537
45094W        W13488  13.214  37.880   1.433
45095W        W13489  31.796   8.694  13.397
45096W        W13490  42.427  33.027  13.112
45097W        W13491  12.796  42.048   3.246
45098W        W13492  12.688  43.425  14.362
45099W        W13493  31.152   3.436   1.405
45100W        W13494  33.407  36.261   3.480
45101W        W13495  20.132  10.201  13.238
45102W        W13496   1.769  42.339   1.885
45103W        W13497  12.355  19.076  11.015
45104W        W13498  40.342  13.703  14.926
45105W        W13499   6.713  36.410   3.342
45106W        W13500  43.813  28.995   0.556
45107W        W13501  43.826  15.133  11.465
45108W        W13502  33.001  30.985  10.754
45109W        W13503  23.301   9.582  10.190
45110W        W13504  37.795  24.705   4.169
45111W        W13505  38.942  12.673   0.339
45112W        W13506  21.287  22.753  11.052
45113W        W13507  17.326  34.210  13.413
45114W        W13508  11.112   7.020   4.566
45115W        W13509  29.993  10.195   3.800
45116W        W13510   8.335  13.176   0.703
45117W        W13511  30.057  16.869   1.928
45118W        W13512  30.935  31.452  14.995
45119W        W13513  35.810  32.103  13.578
45120W        W13514  18.717   0.913   2.330
45121W        W13515  11.667  44.238  13.442
45122W        W13516  41.818   9.876  13.559
45123W        W13517  16.011  40.418   1.452
45124W        W13518  25.708  18.773   3.746
45125W        W13519  41.050  33.642  11.538
45126W        W13520  20.894   2.331  12.025
45127W        W13521  44.428   8.405   0.193
45128W        W13522  13.409  28.469   2.886
45129W        W13523   3.736  10.227  12.182
45130W        W13524  29.636   0.990   2.513
45131W        W13525  14.469  38.989  14.909
45132W        W13526  14.216  28.203   0.237
45133W        W13527  29.581  44.911  10.275
45134W        W13528  37.580  21.070   4.408
45135W        W13529  42.926  38.495  11.104
45136W        W13530   3.731  33.967   2.218
45137W        W13531  28.239  35.576  13.762
45138W        W13532  27.586  13.121  12.011
45139W        W13533  22.115  20.728  10.532
45140W        W13534  29.881  28.064  14.877
45141W        W13535  21.878  23.887   3.269
45142W        W13536  20.027  43.151  14.264
45143W        W13537  41.603  32.125  14.291
45144W        W13538  15.730  31.245   1.884
45145W        W13539   5.326   0.269  10.603
45146W        W13540  34.553  11.322  11.080
45147W        W13541  25.575  39.989   2.574
45148W        W13542  26.197  32.861   3.523
45149W        W13543   7.772  42.965   0.197
45150W        W13544   2.643  25.231  13.836
45151W        W13545   5.130   7.369  14.524
45152W        W13546   9.409  33.954  12.530
45153W        W13547  21.104   0.332   1.455
45154W        W13548  19.773  16.381   2.654
45155W        W13549  19.215  30.184   4.473
45156W        W13550   1.863   7.201   0.339
45157W        W13551  38.791  11.447   2.371
45158W        W13552  38.969  39.278  11.691
45159W        W13553   4.698  17.748  12.947
45160W        W13554  26.445  23.266   1.957
45161W        W13555  27.136  41.555   4.632
45162W        W13556   6.400  20.293  11.110
45163W        W13557  13.594  20.516  14.820
45164W        W13558  29.089  35.459  13.400
45165W        W13559  31.939  44.449   0.010
45166W        W13560  26.856  41.838   5.088
45167W        W13561  33.905   1.235   3.157
45168W        W13562  13.288   5.389   4.549
45169W        W13563  44.800  44.430  12.245
45170W        W13564   3.429  32.631   1.617
45171W        W13565  21.220  12.157   9.902
45172W        W13566   9.767  43.737   1.331
45173W        W13567  39.388   0.272   2.219
45174W        W13568  24.354  44.717   1.276
45175W        W13569   5.776   6.944  12.187
45176W        W13570   2.880  12.656  11.417
45177W        W13571  24.985  23.688  14.714
45178W        W13572  15.117   6.168  10.729
45179W        W13573  36.286  25.059  12.592
45180W        W13574  37.572  25.536   0.070
45181W        W13575  44.325  19.494   2.516
45182W        W13576  18.675  16.629  12.055
45183W        W13577  23.535  29.969   1.680
45184W        W13578  37.881  25.169  12.026
45185W        W13579   3.153  30.774  11.371
45186W        W13580  32.412  40.460   3.538
45187W        W13581  19.632  19.599  12.835
45188W        W13582  21.144  15.702  14.769
45189W        W13583  24.879  43.148   4.789
45190W        W13584  41.685  43.755  11.181
45191W        W13585  35.417   0.266  12.015
45192W        W13586  41.407  37.960   3.647
45193W        W13587  19.538  38.402  13.848
45194W        W13588   2.424  22.981  14.439
45195W        W13589  36.458   0.697  14.667
45196W        W13590  40.504  25.007  10.319
45197W        W13591  35.087  38.587   4.632
45198W        W13592  41.048   8.257   2.709
45199W        W13593  43.737   9.963  12.790
45200W        W13594  39.508   9.162   3.230
45201W        W13595   1.955  19.618   4.932
45202W        W13596  13.948  14.050  13.440
45203W        W13597   0.893  30.459  11.162
45204W        W13598  24.898  11.172   1.612
45205W        W13599  14.277   2.394   4.736
45206W        W13600   0.121  32.703  10.631
45207W        W13601   7.258  28.496  13.806
45208W        W13602  33.172  15.756   0.895
45209W        W13603   4.750   6.738  13.591
45210W        W13604  44.261  22.658  14.767
45211W        W13605  41.262  14.537   2.805
45212W        W13606   4.232  44.041  12.219
45213W        W13607  42.894   2.931   2.664
45214W        W13608  37.884  22.441   0.813
45215W        W13609  29.158  23.953   3.568
45216W        W13610  23.525   0.206   4.627
45217W        W13611  28.762  43.845   4.111
45218W        W13612  16.957  11.173  11.603
45219W        W13613  44.196  17.322  12.987
45220W        W13614  15.298  10.259  13.991
45221W        W13615   4.120   2.384   3.575
45222W        W13616  13.407  19.573  12.753
45223W        W13617  10.143  42.288  14.840
45224W        W13618   8.561   9.922   4.276
45225W        W13619  23.556   6.932  13.541
45226W        W13620  24.722   9.265   2.855
45227W        W13621   4.812  38.292  14.368
45228W        W13622  33.375  36.676   3.806
45229W        W13623  41.253  32.512  14.179
45230W        W13624  17.247  43.826   3.219
45231W        W13625  43.690  38.346   1.196
45232W        W13626  30.164  21.965  11.689
45233W        W13627   9.217  39.824  14.251
45234W        W13628  42.332  42.307  10.529
45235W        W13629   8.320  23.496   0.067
45236W        W13630  12.552  24.499  11.195
45237W        W13631  27.147  14.308  10.749
45238W        W13632  13.427  20.498   1.759
45239W        W13633  20.100  30.151   0.232
45240W        W13634  32.788   1.788   1.745
45241W        W13635  39.417  23.735   4.033
45242W        W13636  25.413  19.772   0.551
45243W        W13637  37.017  10.850  14.914
45244W        W13638  44.775  44.122  14.823
45245W        W13639  25.050  41.337   2.274
45246W        W13640  15.177  10.438  13.523
45247W        W13641  27.793  31.672   1.816
45248W        W13642   8.637   9.376  12.520
45249W        W13643   1.182   5.236  10.416
45250W        W13644  33.587   0.289   4.398
45251W        W13645   6.120  35.995  10.297
45252W        W13646  27.865   1.747   5.090
45253W        W13647  14.649  38.218  11.082
45254W        W13648  23.872   6.741   0.069
45255W        W13649  31.707   3.409   3.213
45256W        W13650  34.641  33.854  10.943
45257W        W13651  13.653  12.301   2.655
45258W        W13652  36.937  22.045  14.631
45259W        W13653  37.851  36.458  14.693
45260W        W13654  29.120  11.248  13.480
45261W        W13655  36.215   4.741  13.813
45262W        W13656  17.740  17.611   1.503
45263W        W13657  31.906  40.328  13.927
45264W        W13658  15.179  31.500  13.908
45265W        W13659   5.872  33.341   1.760
45266W        W13660  36.389  35.619  13.833
45267W        W13661  25.124   8.569   2.788
45268W        W13662   6.735  20.235   2.254
45269W        W13663  19.663  21.160   1.204
45270W        W13664   5.356  43.867  11.623
45271W        W13665  23.804  21.405  12.490
45272W        W13666  34.505  43.035   3.466
45273W        W13667  40.403  29.088   1.866
45274W        W13668  25.295  20.279   0.462
45275W        W13669  28.884  30.359  12.403
45276W        W13670  24.154  32.958  14.514
45277W        W13671  20.673  43.725   1.936
45278W        W13672  33.648  44.850   4.137
45279W        W13673  17.628   8.289  11.199
45280W        W13674  43.161  13.337   2.638
45281W        W13675  18.072  39.380   2.375
45282W        W13676  13.156  21.709  14.295
45283W        W13677   9.421   9.250  14.597
45284W        W13678  22.653   0.764  12.672
45285W        W13679  37.048  34.453  11.162
45286W        W13680  10.953  35.645   3.592
45287W        W13681  21.179   5.454   1.886
45288W        W13682  41.459  42.346  14.567
45289W        W13683  21.607  21.472  10.623
45290W        W13684  24.753  27.064  12.000
45291W        W13685  27.912  10.922  11.871
45292W        W13686  28.551  33.060  14.647
45293W        W13687  20.344  25.260  13.983
45294W        W13688  21.466   7.912  13.493
45295W        W13689   8.895   1.004   3.418
45296W        W13690  14.772  10.268  10.939
45297W        W13691  40.242  39.059   1.285
45298W        W13692  22.693  41.290  13.553
45299W        W13693   7.983  39.365  11.564
45300W        W13694  13.534  23.946   0.404
45301W        W13695  20.111  41.579   0.287
45302W        W13696  17.551  20.002   3.690
45303W        W13697   9.728  27.492  11.603
45304W        W13698   4.236  27.752   3.938
45305W        W13699   1.407  24.585  13.192
45306W        W13700  13.781  12.799   0.354
45307W        W13701  28.605  24.037   1.143
45308W        W13702  44.398  33.974  11.872
45309W        W13703  43.549  26.025   4.092
45310W        W13704  26.252  30.486  14.280
45311W        W13705  23.259   0.748   3.723
45312W        W13706  38.870  15.855  14.857
45313W        W13707  23.796  19.511   4.588
45314W        W13708  43.410   3.103   3.756
45315W        W13709   4.872   8.804  14.533
45316W        W13710  20.655  19.459   3.154
45317W        W13711  36.283  39.076  11.723
45318W        W13712   2.391   1.560   3.276
45319W        W13713  36.469   8.671   0.379
45320W        W13714  40.523  25.349  12.027
45321W        W13715   7.271   7.127   0.494
45322W        W13716  29.668   4.023   2.318
45323W        W13717  30.120  15.704   4.333
45324W        W13718   8.669   1.586   4.041
45325W        W13719  25.537  27.662   1.383
45326W        W13720  43.377  12.047   2.363
45327W        W13721   1.077  24.406   2.541
45328W        W13722  34.837  40.718  12.915
45329W        W13723  23.793   5.460  12.064
45330W        W13724  42.262   3.840  11.335
45331W        W13725  21.653  28.711   1.405
45332W        W13726  37.838   9.255   3.708
45333W        W13727  17.378  43.092   0.630
45334W        W13728  36.433  28.579  13.006
45335W        W13729  29.094  34.648   3.696
45336W        W13730  27.913  13.157   2.551
45337W        W13731  43.556  20.724   0.643
45338W        W13732  13.698  15.808  10.945
45339W        W13733  40.378  35.575   3.604
45340W        W13734  38.036  11.870  14.369
45341W        W13735   7.311  32.347  11.851
45342W        W13736  21.154   8.874   0.981
45343W        W13737  20.729  12.864  12.115
45344W        W13738   2.670  21.286  14.382
45345W        W13739  31.241  36.016   1.422
45346W        W13740   5.874  29.326  12.574
45347W        W13741  18.462  41.510   0.771
45348W        W13742  15.158  29.840   0.444
45349W        W13743  41.762  40.849   1.017
45350W        W13744  20.266  11.377  11.014
45351W        W13745   7.409  44.871  11.069
45352W        W13746  12.576  15.047   4.051
45353W        W13747  40.973  21.627  10.620
45354W        W13748   7.622  27.433  12.886
45355W        W13749  13.142   1.506   1.472
45356W        W13750  26.433   1.249   1.059
45357W        W13751  10.785  31.344  12.166
45358W        W13752  17.291  15.816   4.184
45359W        W13753   5.296   3.552   2.260
45360W        W13754  36.555  28.514  11.142
45361W        W13755  23.175  28.908  14.467
45362W        W13756  19.363   5.317   0.777
45363W        W13757  41.860  39.514  14.036
45364W        W13758  36.900  39.586  11.426
45365W        W13759  32.295  35.470   1.636
45366W        W13760   5.868  26.529   1.339
45367W        W13761  21.699  25.899   3.672
45368W        W13762  21.865  44.495   2.823
45369W        W13763  16.117   4.044  10.744
45370W        W13764  28.646  36.408   2.845
45371W        W13765  28.983  35.509  14.244
45372W        W13766  34.547  42.011  14.010
45373W        W13767  29.451  44.944   4.629
45374W        W13768  14.717  26.002   1.613
45375W        W13769   5.195  31.727  14.089
45376W        W13770  14.590  29.761  13.487
45377W        W13771   6.808  10.070  14.308
45378W        W13772  40.395   4.983   1.898
45379W        W13773  13.790  42.603   3.869
45380W        W13774  19.581  21.057  12.588
45381W        W13775  11.293  31.440   4.589
45382W        W13776  24.553  27.856  14.894
45383W        W13777   0.890   1.082   1.492
45384W        W13778  38.988  35.288   0.546
45385W        W13779   2.895  28.591  14.301
45386W        W13780  15.866   5.234  14.385
45387W        W13781  36.743  22.658   3.245
45388W        W13782  14.188   4.119   3.340
45389W        W13783  20.284  39.896   3.650
45390W        W13784  25.482  31.876   3.639
45391W        W13785  20.376  28.603   1.230
45392W        W13786   8.446  23.333   1.338
45393W        W13787   9.710   9.703   2.611
45394W        W13788   1.373  42.267   1.262
45395W        W13789  24.573  16.070  12.086
45396W        W13790  24.228  10.098  11.114
45397W        W13791  19.608  12.440   2.813
45398W        W13792  39.419   4.136   2.139
45399W        W13793  27.462  36.994  13.799
45400W        W13794  16.483  26.300  11.230
45401W        W13795  41.939  38.350   3.211
45402W        W13796   0.262  39.103   0.853
45403W        W13797  11.416   3.962  12.003
45404W        W13798   7.555  37.781   0.297
45405W        W13799  22.665   3.298   4.030
45406W        W13800  18.091  11.139  12.860
45407W        W13801  41.246  30.509  12.106
45408W        W13802  44.727  43.992   0.691
45409W        W13803   1.282  35.370   4.550
45410W        W13804  25.508  31.108  12.787
45411W        W13805  37.268  12.925  10.178
45412W        W13806  24.379  35.397  12.113
45413W        W13807  42.904  13.086   2.223
45414W        W13808  38.817  19.175   2.727
45415W        W13809  15.589   4.559   1.708
45416W        W13810  41.931   1.715   2.298
45417W        W13811  42.030  39.971   1.134
45418W        W13812   5.178  19.093   3.624
45419W        W13813  18.571   9.057  11.528
45420W        W13814  24.553  39.015  11.974
45421W        W13815   1.047   3.217   2.908
45422W        W13816  34.365   8.383   2.683
45423W        W13817  32.544  32.791  11.725
45424W        W13818  30.239  28.885   1.425
45425W        W13819  16.620   8.108   2.653
45426W        W13820   4.010  35.652   0.440
45427W        W13821  14.725  39.431   2.270
45428W        W13822  10.291  13.571  11.430
45429W        W13823  34.889  18.826   4.323
45430W        W13824  25.692  12.816   4.895
45431W        W13825  18.259   3.423  14.859
45432W        W13826  33.023  34.506  13.625
45433W        W13827   5.975  43.169   1.213
45434W        W13828   7.872  21.532  14.916
45435W        W13829  35.775  37.492   2.826
45436W        W13830   4.335  26.151  10.768
45437W        W13831  19.333  36.359   4.349
45438W        W13832  42.561  40.502  12.093
45439W        W13833  42.907  27.419   3.888
45440W        W13834  12.790  17.958  11.048
45441W        W13835  33.314  32.690   0.409
45442W        W13836  29.569  34.380  11.141
45443W        W13837  39.518   6.737   2.703
45444W        W13838  11.146   6.380  14.886
45445W        W13839  19.868  12.852   3.721
45446W        W13840  15.740   9.334  13.994
45447W        W13841  25.868  34.839  13.622
45448W        W13842  40.231   0.235   3.373
45449W        W13843   1.662   9.098   4.130
45450W        W13844  35.865   1.655  11.171
45451W        W13845  17.207  13.359  14.545
45452W        W13846   0.811  34.292   3.373
45453W        W13847  21.515  25.698   0.833
45454W        W13848  33.169  21.111  12.867
45455W        W13849  10.456  42.951   3.131
45456W        W13850   6.436  22.478   3.483
45457W        W13851   4.756  24.631   0.411
45458W        W13852   1.057   2.896  13.661
45459W        W13853  11.554  20.597  13.565
45460W        W13854  34.309   6.716  12.184
45461W        W13855  25.674  40.419  11.134
45462W        W13856   3.798  23.716  12.488
45463W        W13857   5.943  13.274   2.695
45464W        W13858  31.478  40.922  11.498
45465W        W13859   9.015   4.901  14.396
45466W        W13860  11.714   4.759   1.347
45467W        W13861  19.810  41.635  12.411
45468W        W13862   1.726   3.024  10.951
45469W        W13863   6.239   0.520   1.236
45470W        W13864  10.244  37.576   0.626
45471W        W13865   1.360   3.950  13.734
45472W        W13866  35.123  42.652   3.058
45473W        W13867  20.248  10.740  10.666
45474W        W13868  31.150  42.591   3.697
45475W        W13869   8.663  21.663  10.404
45476W        W13870  17.469  38.241  10.862
45477W        W13871  18.361   2.755  11.281
45478W        W13872  25.907  11.833  11.042
45479W        W13873  14.332  19.443  11.527
45480W        W13874   6.265  12.101   2.934
45481W        W13875   2.452  28.802  14.520
45482W        W13876   4.720  27.112   0.303
45483W        W13877  13.332  17.716   1.394
45484W        W13878  17.082  21.647  12.855
45485W        W13879  18.350  18.094  10.699
45486W        W13880  12.748  42.682   2.850
45487W        W13881  18.553  18.135   2.265
45488W        W13882  20.836  17.776   2.706
45489W        W13883  33.713  10.365   1.192
45490W        W13884  18.085  14.225  13.068
45491W        W13885  32.876  24.621  11.026
45492W        W13886   1.451  25.564  13.389
45493W        W13887  34.914  35.470  14.232
45494W        W13888  28.628  41.595   2.340
45495W        W13889  20.991  40.776  14.412
45496W        W13890  14.796  42.863   1.894
45497W        W13891  41.382  42.519  13.147
45498W        W13892   4.778   3.639   2.266
45499W        W13893  24.991   8.259   4.332
45500W        W13894  24.706  18.199   0.738
45501W        W13895  11.552  26.550   0.235
45502W        W13896  12.662  31.890   2.144
45503W        W13897  36.844  26.485  10.691
45504W        W13898  21.516  34.402   2.879
45505W        W13899  14.666  27.648  12.191
45506W        W13900  35.959  37.447   0.035
45507W        W13901   5.262  32.507   1.129
45508W        W13902  17.614  37.364  13.152
45509W        W13903   1.191   1.292   3.680
45510W        W13904   5.289   6.614  12.365
45511W        W13905  26.177  23.597   1.398
45512W        W13906  39.451  18.359   3.750
45513W        W13907  44.375  10.895  10.993
45514W        W13908  15.622  12.361  12.076
45515W        W13909  21.734   0.690   3.250
45516W        W13910  31.031   8.702   0.345
45517W        W13911  36.989  30.961   3.247
45518W        W13912  37.453  17.982  12.111
45519W        W13913   3.027   6.154  14.307
45520W        W13914  22.190   2.393   4.604
45521W        W13915  14.838  26.192   3.197
45522W        W13916  21.526  36.914  12.524
45523W        W13917   2.016  23.668  14.937
45524W        W13918  40.988  10.668   1.940
45525W        W13919   5.652   4.802   3.396
45526W        W13920  15.945  31.143  10.680
45527W        W13921  11.548  34.789  13.553
45528W        W13922  33.496  12.373   3.732
45529W        W13923   2.964  24.295   0.840
45530W        W13924  21.718  29.835  12.901
45531W        W13925  31.448  35.365   3.439
45532W        W13926  33.989  23.025   5.183
45533W        W13927  27.900   4.825   0.206
45534W        W13928  10.572   4.761  14.307
45535W        W13929  43.770  33.523   2.316
45536W        W13930  42.786   5.276   2.304
45537W        W13931  21.596  13.641   1.707
45538W        W13932  28.705   5.194  12.537
45539W        W13933  21.203  10.903   3.698
45540W        W13934  16.329  37.187   3.795
45541W        W13935  33.369  36.853  13.879
45542W        W13936   2.489  36.678  12.903
45543W        W13937   1.197  16.550  13.613
45544W        W13938  31.852  31.464  13.590
45545W        W13939  25.547  23.271   1.902
45546W        W13940  25.395  38.366   4.616
45547W        W13941  40.860  37.334  12.516
45548W        W13942  14.425   4.677   9.861
45549W        W13943  43.720  37.013   0.549
45550W        W13944  26.229  36.435   1.883
45551W        W13945  22.062  25.490   1.324
45552W        W13946   9.160  20.013  11.153
45553W        W13947   9.585  22.643  13.924
45554W        W13948  26.933   7.778  14.650
45555W        W13949  37.289  34.136   1.942
45556W        W13950   6.221  22.004   3.269
45557W        W13951  37.501  21.780  11.585
45558W        W13952  16.721  10.876   3.187
45559W        W13953  22.801  30.871   5.009
45560W        W13954  44.967  37.070  14.355
45561W        W13955   3.448   1.390  10.694
45562W        W13956  30.549  22.914  12.094
45563W        W13957   1.947  22.967  13.782
45564W        W13958   5.305  33.447  14.155
45565W        W13959  44.175  40.993   0.535
45566W        W13960  21.615  41.968   3.409
45567W        W13961  22.555   6.830   0.513
45568W        W13962  21.212  23.519  14.513
45569W        W13963  36.907  10.391  11.642
45570W        W13964  30.150  37.121   0.139
45571W        W13965  31.177  41.377  11.552
45572W        W13966  42.457   0.464  13.055
45573W        W13967  17.477   2.780  15.000
45574W        W13968  18.776  36.200   0.333
45575W        W13969  13.368  28.336  10.230
45576W        W13970   7.370  33.179  13.841
45577W        W13971  12.606  42.020   3.737
45578W        W13972  27.931  26.620   0.914
45579W        W13973  11.357   7.663   3.639
45580W        W13974  28.513  32.508  11.753
45581W        W13975   0.022  43.881  11.457
45582W        W13976   0.335   9.898   3.523
45583W        W13977  32.513   0.725   0.002
45584W        W13978  11.646  31.913  13.574
45585W        W13979   7.187  29.579   3.699
45586W        W13980  41.466  30.037  10.724
45587W        W13981   4.441  23.459   1.322
45588W        W13982   8.604  41.278  13.693
45589W        W13983  23.158  18.751  13.480
45590W        W13984   2.070  39.877   1.890
45591W        W13985  28.582  15.852  13.473
45592W        W13986  27.125   6.701   4.114
45593W        W13987  42.309  28.675  12.900
45594W        W13988   8.777  28.286  10.726
45595W        W13989  38.773  14.236   0.364
45596W        W13990  18.768  31.581  13.099
45597W        W13991  44.976   7.796   0.960
45598W        W13992  22.832   0.410  12.988
45599W        W13993   7.547  19.140  11.496
45600W        W13994   2.667  27.693   0.404
45601W        W13995   8.124   1.438  14.737
45602W        W13996  26.442   3.222  14.040
45603W        W13997  19.343  29.419   5.456
45604W        W13998  33.403  35.557  11.555
45605W        W13999  44.295  12.338  14.437
45606W        W14000   5.740  19.240  11.370
45607W        W14001  10.466  35.280   4.882
45608W        W14002   4.142  42.677   3.646
45609W        W14003  39.014  25.175  10.639
45610W        W14004  32.183   0.432   4.256
45611W        W14005  37.363  14.588   5.028
45612W        W14006  26.934  42.675  13.605
45613W        W14007   8.688   3.905  12.014
45614W        W14008  24.327  19.593   3.199
45615W        W14009  21.265  36.136   1.802
45616W        W14010  28.217   3.656  11.963
45617W        W14011   0.736  30.563   4.112
45618W        W14012  38.597   0.243   1.400
45619W        W14013  14.068  43.453  12.045
45620W        W14014   0.879   1.324   0.399
45621W        W14015  21.984  34.379  12.996
45622W        W14016   2.757   1.799  14.242
45623W        W14017  38.732  11.242   1.253
45624W        W14018   8.635  31.574  11.281
45625W        W14019   9.773   0.152  11.340
45626W        W14020  30.190  31.426   0.533
45627W        W14021  24.088  26.221   1.591
45628W        W14022   1.835  20.539  13.707
45629W        W14023  15.726  14.856  10.616
45630W        W14024  14.397  28.184  14.345
45631W        W14025   8.198  16.970  12.253
45632W        W14026  36.464   3.702   0.763
45633W        W14027  10.888  20.557   2.834
45634W        W14028  39.759  14.287   2.176
45635W        W14029  42.445  34.663  10.908
45636W        W14030  25.185  24.541   2.229
45637W        W14031  21.602  23.861   3.714
45638W        W14032  38.050   7.556   0.553
45639W        W14033  18.191  24.547   3.406
45640W        W14034  10.094  26.722  12.624
45641W        W14035  40.506  20.824  14.855
45642W        W14036  30.995   6.931   3.509
45643W        W14037  29.464  21.342   3.179
45644W        W14038  30.318  26.007   2.700
45645W        W14039   9.849  25.593   1.169
45646W        W14040  12.105  12.927  12.099
45647W        W14041   9.646   4.886   1.153
45648W        W14042   9.005   3.468  11.871
45649W        W14043  25.260   0.329   1.953
45650W        W14044  38.416  11.607   0.326
45651W        W14045  20.796  16.552  11.151
45652W        W14046   2.319  36.626   0.027
45653W        W14047  26.628  13.453   2.691
45654W        W14048  38.136  29.607   2.118
45655W        W14049  11.830  26.983   0.403
45656W        W14050  39.042  19.619   1.553
45657W        W14051  32.624   1.996  11.732
45658W        W14052  29.353  26.057   1.886
45659W        W14053  35.109  16.976  10.694
45660W        W14054   7.623  16.360   3.715
45661W        W14055  36.908  10.165   0.432
45662W        W14056  35.594  10.799  14.344
45663W        W14057  13.499   5.656   4.087
45664W        W14058  15.556  27.914  12.003
45665W        W14059   8.216  37.573  13.021
45666W        W14060  40.289   2.937   1.746
45667W        W14061  43.502  30.585  14.996
45668W        W14062  14.153  24.661   1.350
45669W        W14063  19.192  41.849  13.486
45670W        W14064  25.043  16.574   2.853
45671W        W14065  15.317   9.750   2.225
45672W        W14066  28.004  35.038   2.955
45673W        W14067  23.830  27.889   0.334
45674W        W14068  36.674  42.303   1.664
45675W        W14069  18.853  30.139  11.987
45676W        W14070  31.695   3.854   2.471
45677W        W14071  38.452  26.205   1.311
45678W        W14072   2.879  36.423   0.700
45679W        W14073  28.705  36.485  13.019
45680W        W14074  25.377   0.140   5.377
45681W        W14075  26.673   8.429  11.516
45682W        W14076  37.871  25.693   1.954
45683W        W14077  19.966  21.644  10.809
45684W        W14078  10.641  44.258   3.395
45685W        W14079  32.892   3.682   1.230
45686W        W14080  10.269  20.864  12.240
45687W        W14081  11.752  37.057  10.824
45688W        W14082  25.436  13.600   3.894
45689W        W14083  34.177  42.429   2.645
45690W        W14084  20.076  43.890   0.496
45691W        W14085  12.845   9.739  14.086
45692W        W14086  12.194  42.882   4.726
45693W        W14087  10.276  33.507  13.231
45694W        W14088  40.822  28.273  13.698
45695W        W14089  35.546  33.795  11.214
45696W        W14090   7.352  33.848  14.536
45697W        W14091  24.540  29.170  10.678
45698W        W14092  32.127  35.925   0.451
45699W        W14093  35.190   2.817   0.328
45700W        W14094  18.383  21.437  14.504
45701W        W14095   4.462  10.143  10.552
45702W        W14096  35.526   8.607  14.770
45703W        W14097   3.222  15.912   0.788
45704W        W14098  28.934  10.444  13.790
45705W        W14099  39.263  23.440  10.778
45706W        W14100  33.445  11.625   5.013
45707W        W14101   7.292  17.602   0.225
45708W        W14102  29.684  33.779  14.427
45709W        W14103  13.123  24.766   1.277
45710W        W14104  26.530  19.076   3.082
45711W        W14105  31.506  41.058   3.215
45712W        W14106  28.653  22.953  14.891
45713W        W14107   6.239  31.661   0.264
45714W        W14108  22.735  44.240   2.737
45715W        W14109  10.252   5.991  14.728
45716W        W14110  19.005  43.756   1.484
45717W        W14111  29.312  35.152   4.732
45718W        W14112  20.494  37.654   2.250
45719W        W14113   3.798  12.157  10.267
45720W        W14114  14.130  29.141  12.333
45721W        W14115  22.877   7.850   2.372
45722W        W14116  36.474   1.482   1.901
45723W        W14117  40.595  24.023   0.200
45724W        W14118  12.990   2.869   2.741
45725W        W14119  21.960  26.280   3.432
45726W        W14120   4.871   4.497   2.239
45727W        W14121  14.996  18.603  14.846
45728W        W14122  23.927  26.643  12.072
45729W        W14123  27.506   1.715   5.459
45730W        W14124   4.154  44.292   2.771
45731W        W14125  24.887  21.991   0.598
45732W        W14126  29.464  40.124  12.813
45733W        W14127   5.297  43.237   0.420
45734W        W14128   3.490  29.211  13.330
45735W        W14129  11.634  29.438  13.450
45736W        W14130  43.757  16.323  14.790
45737W        W14131  19.924   1.440   4.365
45738W        W14132  12.727  25.007   2.213
45739W        W14133  25.120  31.188   4.072
45740W        W14134  33.441  34.605  10.567
45741W        W14135  11.129  14.478   1.291
45742W        W14136  38.522  41.284  14.297
45743W        W14137  10.776  35.053   0.377
45744W        W14138  15.575   0.966   0.677
45745W        W14139  44.758  32.048  14.082
45746W        W14140  28.976  36.945   0.726
45747W        W14141   2.780  24.172  12.186
45748W        W14142  35.270  13.800  10.716
45749W        W14143  41.318  30.962   2.973
45750W        W14144  21.745  14.750  11.080
45751W        W14145   1.122  37.903   5.020
45752W        W14146   4.729  18.274  12.918
45753W        W14147  26.238  25.921  12.793
45754W        W14148  19.321  17.196  12.886
45755W        W14149   5.277  44.739   2.884
45756W        W14150  39.993  39.847  14.514
45757W        W14151  14.446   5.913   3.754
45758W        W14152  13.840   0.002   1.405
45759W        W14153  12.705  34.481   0.470
45760W        W14154  39.500  18.262  13.926
45761W        W14155  21.114  28.558  13.034
45762W        W14156  10.181  29.682  13.046
45763W        W14157  22.430  21.592  11.021
45764W        W14158  29.463  21.994  14.335
45765W        W14159  16.258  16.119  11.660
45766W        W14160  34.781  35.519   3.084
45767W        W14161   8.482  27.008  11.114
45768W        W14162  35.673  26.656  14.880
45769W        W14163  43.409  37.890  13.339
45770W        W14164  27.855  21.738  11.911
45771W        W14165   6.881   5.839  14.408
45772W        W14166  31.038  40.065   1.014
45773W        W14167   0.509  35.351   1.262
45774W        W14168  26.653  26.063   4.370
45775W        W14169   5.688  16.253   0.568
45776W        W14170  32.673  25.020  12.966
45777W        W14171  19.222  44.109   1.767
45778W        W14172  20.111   9.200  10.640
45779W        W14173  21.328  19.200   4.645
45780W        W14174  31.884  43.450  11.289
45781W        W14175  19.365  36.819   3.169
45782W        W14176   4.190   1.441  10.663
45783W        W14177  31.091   7.319   0.462
45784W        W14178  36.392  14.147   2.118
45785W        W14179  38.194   9.899  13.905
45786W        W14180  40.237  10.487   3.587
45787W        W14181  41.395   7.764  11.399
45788W        W14182  37.786  27.922  12.799
45789W        W14183  21.630   9.665  12.891
45790W        W14184  33.129   4.222   2.770
45791W        W14185   6.703   3.185   0.298
45792W        W14186  12.345  38.537   0.398
45793W        W14187   5.671  30.368   0.629
45794W        W14188  23.229  13.837  11.198
45795W        W14189  35.090   1.918   2.237
45796W        W14190  32.387  10.754   1.201
45797W        W14191   8.193  12.823   4.097
45798W        W14192  10.053   4.611  12.803
45799W        W14193  33.900   2.569  12.921
45800W        W14194  30.043  18.840   0.807
45801W        W14195  26.769  13.231   5.078
45802W        W14196   7.582  27.078   0.647
45803W        W14197  27.096  16.772  12.127
45804W        W14198  22.226  38.536  11.172
45805W        W14199  44.698  16.210   1.190
45806W        W14200  13.203   8.020  14.066
45807W        W14201  23.508  24.354  14.921
45808W        W14202  12.345  42.378   4.620
45809W        W14203   2.453  15.911   1.042
45810W        W14204  35.608  32.937   1.466
45811W        W14205  16.142   8.186  11.737
45812W        W14206  39.383   7.948  11.015
45813W        W14207  16.067  41.926   3.622
45814W        W14208  16.294  25.782   1.933
45815W        W14209   4.849  26.457   4.394
45816W        W14210  27.523  19.517  14.818
45817W        W14211  21.101   4.418   1.813
45818W        W14212  23.108  28.787  13.481
45819W        W14213  35.498   1.289   4.038
45820W        W14214  13.694  41.423   3.185
45821W        W14215  28.402  39.592   2.101
45822W        W14216  15.109  27.529  12.445
45823W        W14217   2.030  42.193   4.128
45824W        W14218  16.755   3.502   4.110
45825W        W14219  19.194  40.145  10.373
45826W        W14220   4.942  28.897   4.817
45827W        W14221   1.400  41.528   1.542
45828W        W14222  42.949   2.787  13.091
45829W        W14223  33.448  15.316   2.365
45830W        W14224   1.405   2.548  13.434
45831W        W14225   8.015  43.077   4.120
45832W        W14226  15.730  16.282  10.749
45833W        W14227  32.174  43.556   0.318
45834W        W14228  11.157  38.826  12.867
45835W        W14229  29.082  23.910  10.513
45836W        W14230  29.005   5.179   0.808
45837W        W14231   8.646  37.262  13.116
45838W        W14232  28.099  11.276   3.204
45839W        W14233  31.538  26.612   1.806
45840W        W14234   3.390  18.815  12.485
45841W        W14235  37.129  36.812  13.990
45842W        W14236  17.448  41.466  14.957
45843W        W14237   9.667  35.998   4.386
45844W        W14238   0.404  19.375  10.764
45845W        W14239  17.532  29.917   0.005
45846W        W14240  41.352  25.840   0.818
45847W        W14241  11.918   5.219  14.498
45848W        W14242  39.717  21.399   2.818
45849W        W14243  13.340   7.475  11.429
45850W        W14244  31.190   4.295   3.532
45851W        W14245   3.702  43.204  14.458
45852W        W14246  12.497  12.747  14.041
45853W        W14247  39.533  34.609  14.896
45854W        W14248  43.078  36.336   5.360
45855W        W14249   5.429  35.289  11.123
45856W        W14250  18.832  32.477   3.070
45857W        W14251  20.668  16.141   5.105
45858W        W14252  31.054  32.914   3.319
45859W        W14253  35.867  35.112   3.207
45860W        W14254  21.191  15.398   4.021
45861W        W14255  41.186  10.304   3.672
45862W        W14256  32.189   6.149   0.948
45863W        W14257   7.690  15.631   3.228
45864W        W14258   3.310  33.616  13.455
45865W        W14259  14.718  34.687  11.126
45866W        W14260   9.692  27.055  10.605
45867W        W14261  19.665   3.479  12.217
45868W        W14262   2.290   7.251  12.586
45869W        W14263  27.975   9.822   4.280
45870W        W14264  41.770   7.655  12.877
45871W        W14265  39.137  17.345  14.744
45872W        W14266   7.367  11.858  13.820
45873W        W14267  32.224   9.799  14.611
45874W        W14268   6.193  22.054  10.605
45875W        W14269   7.046   0.842  12.046
45876W        W14270  26.101  18.395  13.829
45877W        W14271  21.516  42.557  10.755
45878W        W14272  12.189  43.859   2.608
45879W        W14273  43.702  41.770   1.749
45880W        W14274  37.815   6.273  14.328
45881W        W14275   2.886  16.293   0.873
45882W        W14276  43.287   6.085  11.068
45883W        W14277  28.238  33.911  10.720
45884W        W14278  20.732  21.440   4.241
45885W        W14279  39.293  20.284   0.859
45886W        W14280  37.494  11.805   2.505
45887W        W14281  13.810  36.316   0.780
45888W        W14282  18.122   6.739   4.577
45889W        W14283  28.629  30.954  10.739
45890W        W14284  24.925  15.219   1.399
45891W        W14285  14.387  18.728  12.353
45892W        W14286  33.304  14.320  10.797
45893W        W14287  21.686  29.910  12.000
45894W        W14288  30.125   6.622  14.789
45895W        W14289  31.373  32.235  13.391
45896W        W14290  23.013  23.118   1.189
45897W        W14291  17.230  36.975  11.191
45898W        W14292  29.975  34.553   1.528
45899W        W14293  43.818  10.693   0.391
45900W        W14294  34.198  33.584  11.021
45901W        W14295  35.400  42.909   3.875
45902W        W14296  27.687  27.089   4.037
45903W        W14297  26.175  40.096  13.139
45904W        W14298   3.220  35.673  10.417
45905W        W14299  38.932  21.105   4.889
45906W        W14300  16.174  22.524  11.105
45907W        W14301  40.122  14.623  14.146
45908W        W14302  10.101   3.452   2.647
45909W        W14303   7.151  31.046  13.949
45910W        W14304   0.981   1.379  10.693
45911W        W14305  16.026  33.475  10.623
45912W        W14306  29.445  11.499   1.939
45913W        W14307  15.251   6.789   1.027
45914W        W14308   8.713  11.248   3.740
45915W        W14309  43.332  37.959   3.262
45916W        W14310  23.445  36.174   1.809
45917W        W14311  10.794  37.917  13.642
45918W        W14312  19.871  10.374  14.052
45919W        W14313  38.916  40.815   3.600
45920W        W14314  39.069  34.868  14.963
45921W        W14315   4.449   9.191  14.404
45922W        W14316  36.158  26.667  13.530
45923W        W14317  40.754  10.578  11.220
45924W        W14318  22.499   6.813  14.390
45925W        W14319  28.007  34.379  11.626
45926W        W14320  41.107  22.850   2.708
45927W        W14321  26.128   5.618   2.796
45928W        W14322  22.519  17.059  10.085
45929W        W14323   5.972  41.267   4.520
45930W        W14324  35.938  41.743   3.789
45931W        W14325  15.625  44.073   2.696
45932W        W14326   5.453  38.328  13.469
45933W        W14327   4.153  32.208  11.197
45934W        W14328   6.930  11.209  13.456
45935W        W14329  39.914  19.077  11.493
45936W        W14330   1.753  11.534   0.787
45937W        W14331  42.239  35.058  12.960
45938W        W14332  18.849  16.621   3.364
45939W        W14333   0.295  36.697   0.635
45940W        W14334  13.137  13.376   2.439
45941W        W14335  17.653   0.380  12.957
45942W        W14336  36.415  17.118  10.392
45943W        W14337   7.073  32.198   0.433
45944W        W14338  37.301  42.326  12.963
45945W        W14339  22.851  37.545  11.553
45946W        W14340   7.571  32.109   0.258
45947W        W14341  37.602   9.666   0.834
45948W        W14342  16.077   2.381   4.156
45949W        W14343  13.382  38.617  11.034
45950W        W14344  10.315  17.291   2.061
45951W        W14345  27.653  18.759  13.517
45952W        W14346  33.729  21.843   0.230
45953W        W14347  23.106  22.726  14.300
45954W        W14348  10.397  16.933  13.007
45955W        W14349  19.626  16.709   1.452
45956W        W14350  15.535  26.207  12.634
45957W        W14351  24.782  22.220  14.123
45958W        W14352  32.104  29.050   5.111
45959W        W14353  18.086  38.248  11.158
45960W        W14354  33.949  39.465   1.396
45961W        W14355  22.229  24.631  14.717
45962W        W14356  22.550  14.832  13.856
45963W        W14357  42.808  38.088  12.034
45964W        W14358  11.297   0.466   1.190
45965W        W14359  39.901  11.701  13.445
45966W        W14360  31.635  37.202   1.502
45967W        W14361   9.330  30.920  14.008
45968W        W14362  42.980  28.655  11.068
45969W        W14363  39.924  15.694   3.179
45970W        W14364   8.916  41.401  11.519
45971W        W14365  38.804  13.331   2.367
45972W        W14366   9.700  15.120   4.465
45973W        W14367  27.049   0.923  11.164
45974W        W14368   9.035  32.283  10.124
45975W        W14369  38.673  20.291  11.062
45976W        W14370   6.298  28.125   2.397
45977W        W14371  16.614  25.663   0.495
45978W        W14372   7.815  34.989  12.033
45979W        W14373  44.537  16.929  11.018
45980W        W14374   4.821  17.131  11.644
45981W        W14375  39.929  36.077  11.481
45982W        W14376  17.781  41.838  11.988
45983W        W14377  11.765  13.217   4.655
45984W        W14378  39.910   8.839   3.146
45985W        W14379  31.190  29.171  14.942
45986W        W14380   6.578   9.852  11.116
45987W        W14381  18.058  24.013  11.160
45988W        W14382  23.228  14.171   2.746
45989W        W14383  27.195  26.188  10.547
45990W        W14384   7.435  38.444   4.119
45991W        W14385   6.717  16.649  10.769
45992W        W14386  28.984  26.472   0.019
45993W        W14387  11.315   3.361  11.917
45994W        W14388  21.805   6.495  13.861
45995W        W14389  42.015  25.942   3.299
45996W        W14390  27.086   6.665   2.697
45997W        W14391   4.179  40.289   0.062
45998W        W14392  44.359  11.276   4.617
45999W        W14393  21.188   8.332  11.471
46000W        W14394  18.772   9.867   0.340
46001W        W14395  10.314  30.330  10.786
46002W        W14396  22.928  26.699   3.318
46003W        W14397  35.018  11.288  14.467
46004W        W14398  11.265   5.941  14.037
46005W        W14399  44.811  31.566   3.164
46006W        W14400  18.647  12.337  11.119
46007W        W14401  26.801  10.228  10.056
46008W        W14402  23.627  32.104   2.131
46009W        W14403   7.975  20.817  12.992
46010W        W14404  34.217  26.540  13.115
46011W        W14405  39.942  22.328  14.463
46012W        W14406  29.941  42.172   4.013
46013W        W14407  32.147  29.534  10.547
46014W        W14408  12.761   0.583   0.177
46015W        W14409  26.466  10.310   2.152
46016W        W14410   2.874   2.407  14.009
46017W        W14411  34.980  17.406   4.038
46018W        W14412  24.975   0.442   3.311
46019W        W14413  20.322  29.968  13.934
46020W        W14414  18.377  17.161  13.830
46021W        W14415  31.631  16.765   1.421
46022W        W14416  34.322  40.781  12.841
46023W        W14417  13.042   7.720   1.701
46024W        W14418  30.513  18.242   0.254
46025W        W14419  33.064  13.788  13.860
46026W        W14420  37.456  12.739   3.884
46027W        W14421  40.252  29.144  14.556
46028W        W14422  12.172  44.497  12.038
46029W        W14423   0.037  15.130   1.562
46030W        W14424  41.309   0.061   4.359
46031W        W14425  25.689   8.945  13.396
46032W        W14426  23.347  44.511  13.479
46033W        W14427  41.226  14.511   4.176
46034W        W14428  37.533  26.407   0.960
46035W        W14429  30.514  43.612   3.213
46036W        W14430   5.424  42.678   3.713
46037W        W14431   2.793  29.981  14.942
46038W        W14432  13.869  20.981   1.443
46039W        W14433  30.982  32.024  11.501
46040W        W14434  32.389  26.280  10.686
46041W        W14435  11.752  32.823  12.023
46042W        W14436  36.827  26.112  12.397
46043W        W14437  37.478  36.335  14.340
46044W        W14438  17.800  11.255  10.599
46045W        W14439  29.941   3.634  14.477
46046W        W14440  37.300  25.955   0.217
46047W        W14441  39.307  27.869  11.223
46048W        W14442  25.534  29.405  12.100
46049W        W14443  15.018   6.726  11.601
46050W        W14444  18.347  20.095   2.352
46051W        W14445   0.198  39.878   2.640
46052W        W14446   6.412  26.479   3.127
46053W        W14447  12.828  40.115  14.116
46054W        W14448  34.815  33.014   3.401
46055W        W14449   8.475  21.566   1.768
46056W        W14450  15.342  39.794   0.998
46057W        W14451  31.561  32.899   3.084
46058W        W14452  10.307  40.057   1.343
46059W        W14453   8.595  32.628   0.780
46060W        W14454  33.933  31.142  13.353
46061W        W14455  22.024  36.507   3.314
46062W        W14456  35.381   2.442   0.938
46063W        W14457  19.741  39.762   1.292
46064W        W14458   4.333  34.068   1.334
46065W        W14459  19.226  19.966  11.669
46066W        W14460  34.115  15.357  14.288
46067W        W14461  23.774  16.598   4.575
46068W        W14462  16.315  15.662  11.936
46069W        W14463  22.668  31.170   2.452
46070W        W14464  29.475   3.920   0.993
46071W        W14465  21.550  21.427   2.641
46072W        W14466  36.744  18.832   0.322
46073W        W14467  17.673  15.229  13.922
46074W        W14468  16.828  11.558   2.368
46075W        W14469  26.992  44.636  11.571
46076W        W14470   6.790  23.091   1.381
46077W        W14471  36.110  35.553  11.509
46078W        W14472   7.694   1.228  14.958
46079W        W14473  37.315   8.759   2.929
46080W        W14474   2.784  28.030  12.633
46081W        W14475  23.998  11.709   1.808
46082W        W14476  16.306  12.120  13.922
46083W        W14477  15.027   2.459   3.187
46084W        W14478  36.695  34.098  12.411
46085W        W14479  26.022   2.221   4.182
46086W        W14480  40.786  12.698   1.843
46087W        W14481  41.589  39.386  10.675
46088W        W14482  12.092  11.431  12.548
46089W        W14483  28.531  28.831   4.628
46090W        W14484   5.465   2.898  10.650
46091W        W14485  36.804   8.790   1.135
46092W        W14486  37.411  11.378   1.670
46093W        W14487   2.640  27.943  11.163
46094W        W14488  36.083  11.792  14.734
46095W        W14489  42.266   9.313  12.023
46096W        W14490  10.619  24.717  14.500
46097W        W14491  17.153  27.221   1.304
46098W        W14492  37.752  38.612   1.691
46099W        W14493  21.694   1.966   1.280
46100W        W14494  32.529  39.392  10.974
46101W        W14495  24.785  35.119   4.124
46102W        W14496  44.696   0.895  10.648
46103W        W14497   0.760  16.309  13.951
46104W        W14498  14.768  28.468  10.479
46105W        W14499  18.691  14.762   1.745
46106W        W14500  15.761  28.422  14.952
46107W        W14501  25.433  30.743  14.397
46108W        W14502  34.830  14.758  14.551
46109W        W14503  25.086  43.734  13.403
46110W        W14504  30.420   9.299  12.457
46111W        W14505  30.179  34.477  12.538
46112W        W14506  41.016   9.616   4.067
46113W        W14507  42.002  24.546   4.598
46114W        W14508  18.338  16.732   4.479
46115W        W14509   9.613   5.354   9.821
46116W        W14510  11.575  13.949   1.904
46117W        W14511   4.198  28.512  11.955
46118W        W14512  21.752  24.051  14.481
46119W        W14513  24.985  29.095   3.295
46120W        W14514  15.978  22.662   4.053
46121W        W14515   8.490  16.677   3.384
46122W        W14516  44.778   0.991   1.950
46123W        W14517   6.441  35.038  12.684
46124W        W14518  11.426   1.503  12.129
46125W        W14519  40.448  31.943   2.391
46126W        W14520   4.852   0.867   4.225
46127W        W14521   8.383  29.387  11.476
46128W        W14522  31.800  15.729   9.976
46129W        W14523  18.100  37.636   4.091
46130W        W14524  36.303  28.171   2.128
46131W        W14525   1.980  40.978   0.630
46132W        W14526  31.146  21.369   1.718
46133W        W14527   7.655  30.480  13.826
46134W        W14528  18.506  16.281   0.906
46135W        W14529  40.192  15.212  13.716
46136W        W14530   9.073  33.563  14.555
46137W        W14531  23.996  43.711  11.531
46138W        W14532   4.131  36.082   1.341
46139W        W14533  12.679  14.503  12.385
46140W        W14534  32.640  35.163  11.598
46141W        W14535  17.235  15.681  12.748
46142W        W14536  31.367   2.420   0.267
46143W        W14537  39.025  15.204   4.601
46144W        W14538   1.765  31.517   3.362
46145W        W14539  36.578  17.606   3.931
46146W        W14540   8.280  38.915   4.516
46147W        W14541  32.443  38.309  13.873
46148W        W14542  16.289  19.030  14.724
46149W        W14543   2.943   6.290   4.083
46150W        W14544  22.606   2.292  13.456
46151W        W14545   6.273  36.492   3.662
46152W        W14546  36.871  20.640   4.364
46153W        W14547  10.989  17.270   4.358
46154W        W14548  11.185  23.057  13.873
46155W        W14549  23.550   3.035   3.125
46156W        W14550  11.458  20.190  14.013
46157W        W14551   0.830  41.427   0.939
46158W        W14552  39.532  22.017   2.309
46159W        W14553   9.256  11.923  11.439
46160W        W14554  16.952  21.358  10.173
46161W        W14555  18.133  40.788   1.869
46162W        W14556  31.273  33.066  14.200
46163W        W14557  43.990  37.511   1.332
46164W        W14558  17.306  32.213   2.220
46165W        W14559  32.677  17.941   3.227
46166W        W14560  18.882  43.121   5.002
46167W        W14561  33.713  15.393   3.381
46168W        W14562  23.530  34.494  12.622
46169W        W14563   8.233  44.261   2.694
46170W        W14564  19.060  12.539   0.402
46171W        W14565  31.161  17.721  13.013
46172W        W14566  10.702   9.935   3.884
46173W        W14567  43.727  25.047   3.113
46174W        W14568  37.370  18.068  14.095
46175W        W14569  10.386  14.086  13.532
46176W        W14570  25.940  13.265   4.702
46177W        W14571  23.812  44.011  10.557
46178W        W14572  19.167  31.745   4.177
46179W        W14573  15.573  40.275  10.373
46180W        W14574  30.182  41.170  13.814
46181W        W14575  15.625  34.992  11.041
46182W        W14576   4.936  21.575  11.469
46183W        W14577   0.306  26.323  10.869
46184W        W14578  22.928  37.361  13.234
46185W        W14579   5.001  18.650  14.862
46186W        W14580  29.068  39.628   1.360
46187W        W14581  20.085  33.489   4.573
46188W        W14582  20.486  37.363  14.518
46189W        W14583   4.787  39.390   2.270
46190W        W14584  41.905  34.335   1.926
46191W        W14585  11.579  39.603   4.060
46192W        W14586   4.348  40.788  14.271
46193W        W14587   5.360  10.789   2.275
46194W        W14588  42.457  39.378  11.937
46195W        W14589   8.252  42.304   2.236
46196W        W14590  28.966   1.678   0.757
46197W        W14591  36.076   7.854   5.051
46198W        W14592  32.451   3.805   1.470
46199W        W14593  40.565  21.797   0.782
46200W        W14594   5.315  26.805   3.612
46201W        W14595  39.007  11.441  10.749
46202W        W14596  24.728  35.987   4.320
46203W        W14597  12.365  40.288  14.309
46204W        W14598  36.636  44.434  11.982
46205W        W14599  43.590  23.708  10.506
46206W        W14600  31.972  23.508  14.165
46207W        W14601  13.620  30.905   1.707
46208W        W14602   8.434  42.524   1.759
46209W        W14603  14.815  15.263   0.222
46210W        W14604  20.981  23.988   3.336
46211W        W14605  25.337  26.744   3.382
46212W        W14606  23.437  37.452  14.435
46213W        W14607  10.129   9.165  12.988
46214W        W14608  32.413   1.690   3.967
46215W        W14609  27.676  22.933  12.842
46216W        W14610  18.638  31.394   4.874
46217W        W14611  11.179  24.756  14.304
46218W        W14612  41.128  20.565  10.584
46219W        W14613  22.999   2.851   1.226
46220W        W14614  16.225  27.698   0.264
46221W        W14615   8.821  11.984   2.147
46222W        W14616  32.878  38.984  12.125
46223W        W14617  21.264  21.466   2.208
46224W        W14618  23.807  20.167   3.916
46225W        W14619  13.129  20.322  14.955
46226W        W14620  19.422  40.229  11.655
46227W        W14621  27.287  10.167  14.817
46228W        W14622  40.240   0.081  12.165
46229W        W14623  22.717  21.861   1.865
46230W        W14624  39.267  13.318   2.130
46231W        W14625  27.549  23.213   2.804
46232W        W14626  11.578  25.492  12.974
46233W        W14627  35.443  26.723   2.195
46234W        W14628  27.921  29.477   4.516
46235W        W14629  34.455  40.362   3.663
46236W        W14630  20.649  23.946   0.964
46237W        W14631  36.285  15.075   4.164
46238W        W14632  32.379   7.583  12.908
46239W        W14633  41.575  43.338   0.478
46240W        W14634  30.875  17.089   3.865
46241W        W14635  14.431  13.084  13.576
46242W        W14636  13.734  12.797  11.750
46243W        W14637  11.205   8.491  10.451
46244W        W14638  24.717  35.059  11.879
46245W        W14639  34.497   4.835  14.767
46246W        W14640  10.718  39.721  14.828
46247W        W14641  41.454  29.170  11.196
46248W        W14642  35.902  33.089   0.935
46249W        W14643  29.540  34.880  11.234
46250W        W14644  44.128   5.668  10.612
46251W        W14645   6.155  26.116   2.338
46252W        W14646  18.017  20.242   3.709
46253W        W14647  43.314  17.295   4.692
46254W        W14648  36.808  11.387  14.506
46255W        W14649  35.429  43.994  13.850
46256W        W14650  13.059  12.277  13.520
46257W        W14651  31.301  33.531   4.869
46258W        W14652  42.345  32.122   0.941
46259W        W14653   1.118  12.236  10.034
46260W        W14654  13.858  33.351  13.327
46261W        W14655   1.005  18.799   1.369
46262W        W14656  31.644  29.340   4.847
46263W        W14657  15.933  15.227   1.261
46264W        W14658   5.426  41.669   0.135
46265W        W14659  23.669  33.086  11.863
46266W        W14660  21.064  12.618  13.408
46267W        W14661  12.767  33.459  12.039
46268W        W14662  22.539  44.443   4.519
46269W        W14663  22.114  12.276   4.314
46270W        W14664  39.330  20.995  11.300
46271W        W14665   4.347  10.395  13.441
46272W        W14666  37.753   9.798   2.264
46273W        W14667  13.111   5.169  11.009
46274W        W14668  38.554  16.697  11.585
46275W        W14669  39.304  19.086   0.373
46276W        W14670  28.460  30.032  13.635
46277W        W14671   5.106   6.278   5.083
46278W        W14672  16.430   8.409  12.091
46279W        W14673  16.601  31.074   0.424
46280W        W14674   3.637   7.182  14.866
46281W        W14675  13.837  40.322  11.167
46282W        W14676  31.246  44.995   0.361
46283W        W14677  14.624   2.316   4.370
46284W        W14678   0.564  37.356   2.379
46285W        W14679  24.919   0.575  11.652
46286W        W14680  33.447   8.989  11.733
46287W        W14681   5.753  34.096  10.730
46288W        W14682  28.114   6.819  10.801
46289W        W14683  12.152  23.627  13.868
46290W        W14684  36.396  44.656   4.971
46291W        W14685   4.064  16.800  13.574
46292W        W14686   9.893  22.778   3.072
46293W        W14687  39.777   7.324  14.919
46294W        W14688  38.435  43.032   0.115
46295W        W14689  23.275  34.909  14.767
46296W        W14690  16.204  22.122  14.910
46297W        W14691   9.236  38.880  13.952
46298W        W14692  30.243  30.540  13.966
46299W        W14693   5.796  42.235  13.463
46300W        W14694  40.326  44.448   2.709
46301W        W14695  33.175  11.375  11.585
46302W        W14696  13.786  28.101  11.912
46303W        W14697  28.512   2.842   1.221
46304W        W14698  34.108  20.824  13.031
46305W        W14699  38.608   8.198   4.208
46306W        W14700   8.738  25.498  13.010
46307W        W14701  31.985  27.246   4.065
46308W        W14702  34.094  37.893   0.014
46309W        W14703  33.484  43.261   0.235
46310W        W14704   4.799  35.368  11.223
46311W        W14705   2.921  37.469  10.698
46312W        W14706   4.421   7.573  10.735
46313W        W14707  13.058  38.799  12.440
46314W        W14708   8.040  11.957  12.954
46315W        W14709  35.655  19.446  13.633
46316W        W14710   9.203  26.567  10.776
46317W        W14711  12.388   2.906   1.683
46318W        W14712  33.607  30.034   2.908
46319W        W14713  41.848  13.720  14.532
46320W        W14714   2.856  37.713   0.776
46321W        W14715  20.582  13.466   4.869
46322W        W14716  41.513  21.139  11.905
46323W        W14717  12.348  16.688   1.048
46324W        W14718   7.890  30.077  11.220
46325W        W14719  13.630   3.192   0.472
46326W        W14720  21.475  32.291  13.450
46327W        W14721   5.760  21.611   0.325
46328W        W14722   9.161  37.332   2.359
46329W        W14723  25.775  38.236  12.661
46330W        W14724  18.319  18.092  12.864
46331W        W14725  29.591  43.538  14.529
46332W        W14726  33.958   0.386   1.670
46333W        W14727  16.583  12.249  14.359
46334W        W14728  34.081  22.893   4.195
46335W        W14729  10.248  36.641  10.837
46336W        W14730  44.391  30.023   2.318
46337W        W14731  26.139  38.513   1.788
46338W        W14732  39.845  29.962  14.428
46339W        W14733  23.072  29.689   0.411
46340W        W14734  36.381   9.987   1.201
46341W        W14735  26.694  41.089  12.055
46342W        W14736   0.959  39.422   1.799
46343W        W14737  12.929  23.694  11.074
46344W        W14738   2.322   4.660   3.355
46345W        W14739   4.290  27.961  12.585
46346W        W14740  35.135  34.106   3.315
46347W        W14741  20.740  15.599  11.443
46348W        W14742  24.242  35.537   1.280
46349W        W14743  18.998  37.548   2.534
46350W        W14744  18.596  26.911   1.798
46351W        W14745   8.749  14.123  12.199
46352W        W14746  17.477  30.408  12.217
46353W        W14747  34.872  21.172   5.321
46354W        W14748  22.231  22.999   4.514
46355W        W14749  23.689  34.427   2.685
46356W        W14750   3.540  30.969  12.975
46357W        W14751  44.541   1.658  11.612
46358W        W14752  10.604   4.882   0.225
46359W        W14753  21.738   2.737  12.046
46360W        W14754  35.599  18.677  11.572
46361W        W14755  15.189  12.595   0.336
46362W        W14756  18.785   2.308  13.789
46363W        W14757  33.586  22.483   2.206
46364W        W14758  40.763  34.191  10.741
46365W        W14759  10.377   0.923   3.040
46366W        W14760  33.479  25.979  11.994
46367W        W14761  23.128  37.594   4.722
46368W        W14762  31.904   0.465   0.233
46369W        W14763  36.975   2.681   2.108
46370W        W14764  15.720  42.088   0.328
46371W        W14765  14.293  10.667   2.925
46372W        W14766  15.824  44.718   1.339
46373W        W14767  32.878   5.140  11.596
46374W        W14768  34.009  11.598  13.659
46375W        W14769  38.760   6.150   3.084
46376W        W14770  27.463  41.959  13.029
46377W        W14771  30.414  18.717   0.460
46378W        W14772  26.033  10.973  14.362
46379W        W14773   0.279  35.973  14.893
46380W        W14774  24.246  32.794   1.006
46381W        W14775   1.830  22.499   2.793
46382W        W14776  38.600  33.888  14.341
46383W        W14777  27.193  21.551   3.025
46384W        W14778  32.926   2.890  10.665
46385W        W14779  30.052  43.032   1.844
46386W        W14780   1.235  20.869   1.291
46387W        W14781   9.671  40.092  13.426
46388W        W14782  40.145  29.538   3.058
46389W        W14783  26.710   8.627  13.821
46390W        W14784  31.627  40.116   1.724
46391W        W14785  38.524  38.746   0.932
46392W        W14786   4.459  14.883  12.071
46393W        W14787  18.747  43.082  12.304
46394W        W14788  32.392  36.860   4.132
46395W        W14789  23.449  26.701  13.326
46396W        W14790  37.795   6.866   2.439
46397W        W14791   9.657  21.490  10.629
46398W        W14792  28.756   8.700   4.483
46399W        W14793  13.651  43.621  11.783
46400W        W14794   8.787  34.075   4.062
46401W        W14795  12.196  41.838   1.467
46402W        W14796  28.939  13.915   2.125
46403W        W14797  10.818   7.254   0.747
46404W        W14798  17.097   6.843  13.397
46405W        W14799  21.151   7.676   2.868
46406W        W14800  13.835  21.116  12.036
46407W        W14801  12.599  23.778   4.636
46408W        W14802  23.343   4.706  11.178
46409W        W14803   8.850  36.944  13.463
46410W        W14804  25.968  40.445   3.362
46411W        W14805  27.903   0.885   0.840
46412W        W14806  32.872  27.158  14.105
46413W        W14807  41.035  23.070  14.011
46414W        W14808  44.372  39.758  14.354
46415W        W14809  14.500  29.445  10.792
46416W        W14810  38.778  23.510  12.036
46417W        W14811  24.711  33.727  14.472
46418W        W14812  21.623  18.524  11.865
46419W        W14813  13.428  44.303   3.780
46420W        W14814  16.167  15.206  14.987
46421W        W14815  35.956  15.670   4.026
46422W        W14816  36.070  35.047  12.451
46423W        W14817  28.222  33.815   4.483
46424W        W14818  34.383   5.336  14.774
46425W        W14819   2.933  32.918  13.481
46426W        W14820   7.381   8.471   0.325
46427W        W14821  38.890  10.418  14.381
46428W        W14822  42.774  12.253  12.946
46429W        W14823  19.471  11.822   0.855
46430W        W14824   5.330  28.649   0.904
46431W        W14825  43.448  22.851   4.630
46432W        W14826   7.251  27.999  14.529
46433W        W14827  34.197  29.169   1.943
46434W        W14828   1.932   7.731  14.529
46435W        W14829  15.688  21.169  11.133
46436W        W14830   6.900   6.656   3.071
46437W        W14831  12.247   1.794   2.129
46438W        W14832  10.810  11.455  11.049
46439W        W14833  11.717  22.534  13.129
46440W        W14834  24.059   2.370  14.366
46441W        W14835  12.281  44.885  13.323
46442W        W14836  18.831  21.258   3.338
46443W        W14837   9.332  39.450   3.881
46444W        W14838  19.125  24.941  14.008
46445W        W14839  15.231  18.502   1.283
46446W        W14840   5.746  31.642  13.060
46447W        W14841  41.037  16.023  13.480
46448W        W14842  12.224  15.618  13.080
46449W        W14843  20.766  33.550  12.941
46450W        W14844  26.136  35.064  13.993
46451W        W14845  31.171   7.797  14.232
46452W        W14846  42.839  43.987   1.316
46453W        W14847  15.364  35.349   3.155
46454W        W14848  44.437  15.297  13.964
46455W        W14849  10.665  44.458  14.413
46456W        W14850  43.311  22.505  12.227
46457W        W14851  18.580  19.305  10.276
46458W        W14852  43.872  11.731  10.952
46459W        W14853   0.944  25.984   2.881
46460W        W14854  42.829   1.078  11.552
46461W        W14855  14.692   0.418   3.735
46462W        W14856   9.303  10.200  13.037
46463W        W14857  24.002  29.061  14.783
46464W        W14858   2.399  28.918   1.584
46465W        W14859  15.571  28.966  10.605
46466W        W14860  41.863  20.986  12.993
46467W        W14861   5.328  18.433   0.420
46468W        W14862  37.237  33.319   0.524
46469W        W14863   7.251  27.944  12.096
46470W        W14864   2.081  37.270   4.154
46471W        W14865  32.191  32.686   0.419
46472W        W14866  33.008  15.351   2.693
46473W        W14867  26.523  22.260  13.072
46474W        W14868  37.890  37.368   0.295
46475W        W14869  40.262  27.959  10.750
46476W        W14870  20.240   5.814  10.549
46477W        W14871  42.100  19.167  11.240
46478W        W14872   6.519  13.781   2.296
46479W        W14873  20.666  13.940  14.108
46480W        W14874  30.974  25.561   3.356
46481W        W14875  26.762  26.820  11.159
46482W        W14876   9.383  27.078  11.573
46483W        W14877  11.239  20.166  13.546
46484W        W14878  16.152  22.586  12.760
46485W        W14879  15.005   8.857  12.087
46486W        W14880  15.090  23.806  10.659
46487W        W14881  20.224   8.744  13.047
46488W        W14882   5.265  11.623   0.979
46489W        W14883  25.696  22.166  12.380
46490W        W14884   8.375  43.539  11.051
46491W        W14885  11.257  10.403  14.102
46492W        W14886  41.076  27.111  12.556
46493W        W14887  12.676  40.587  13.963
46494W        W14888  25.635  43.016  13.005
46495W        W14889  16.537  36.616   2.138
46496W        W14890   0.566  10.216  10.710
46497W        W14891  33.388  44.089  11.190
46498W        W14892   8.123  37.326   2.329
46499W        W14893   2.834  21.853   3.358
46500W        W14894  19.276  43.247   2.324
46501W        W14895  29.532  35.949  12.394
46502W        W14896  40.021  33.683   0.431
46503W        W14897  44.373  10.374   5.140
46504W        W14898  38.070  43.837   3.218
46505W        W14899  32.591  21.176   2.311
46506W        W14900   2.846  38.408  13.356
46507W        W14901  37.978   9.462  11.641
46508W        W14902   4.416  39.140  12.952
46509W        W14903  24.910   1.968   0.406
46510W        W14904  39.310   0.064   1.497
46511W        W14905  21.002  12.042   5.220
46512W        W14906  44.755  38.083  10.935
46513W        W14907  31.801  39.304   1.352
46514W        W14908  41.497  11.834  13.910
46515W        W14909  34.945   9.801   4.554
46516W        W14910  23.631   0.856   0.678
46517W        W14911  13.640  40.514   2.213
46518W        W14912  24.680   6.910   3.108
46519W        W14913  28.744  28.366   4.514
46520W        W14914  11.262  28.048  10.621
46521W        W14915  32.141   7.718  14.503
46522W        W14916  20.352  12.354  11.377
46523W        W14917  21.057  13.435   4.179
46524W        W14918   2.194   9.363  14.965
46525W        W14919  14.317  40.823  11.718
46526W        W14920  40.595  27.989   3.850
46527W        W14921   4.273  15.703   2.309
46528W        W14922  44.832  12.671   0.641
46529W        W14923   5.995  33.122   2.280
46530W        W14924  17.099  15.971  12.353
46531W        W14925  11.822  11.595   2.880
46532W        W14926  25.854  11.281   1.774
46533W        W14927  22.617  17.476  11.102
46534W        W14928  24.537   6.366   0.926
46535W        W14929  12.904  43.880   1.217
46536W        W14930  35.552  31.896   2.192
46537W        W14931  32.201   0.558  10.174
46538W        W14932  18.279  41.697   3.991
46539W        W14933  41.318  23.109   4.286
46540W        W14934  42.008  42.845  10.264
46541W        W14935  18.845   2.500  10.710
46542W        W14936   8.448  41.324   2.335
46543W        W14937  42.607  37.316  13.801
46544W        W14938  23.926  17.555   1.762
46545W        W14939  41.534  17.554  14.387
46546W        W14940  44.194  27.534   2.669
46547W        W14941  39.034  23.332  14.814
46548W        W14942   2.817  10.680   0.510
46549W        W14943  33.161   3.752   4.529
46550W        W14944  28.915  13.572   4.276
46551W        W14945  40.330  28.076   9.970
46552W        W14946  44.054  26.013  13.862
46553W        W14947  14.995  32.325   4.328
46554W        W14948  10.021   6.966  13.861
46555W        W14949  32.468  34.902   3.436
46556W        W14950  35.478   9.709   4.592
46557W        W14951  23.359  11.620  11.600
46558W        W14952  15.081  19.559  14.019
46559W        W14953  19.327  25.940  12.962
46560W        W14954   8.925  39.258  12.005
46561W        W14955  32.037  30.870   4.149
46562W        W14956  37.744  22.069  13.291
46563W        W14957  23.961  38.365  11.780
46564W        W14958   0.497  36.122   2.878
46565W        W14959  44.841  10.937  14.705
46566W        W14960  30.731   9.969   0.519
46567W        W14961  21.703  28.116  14.179
46568W        W14962  14.198  20.660  12.684
46569W        W14963  18.815  20.176  14.982
46570W        W14964  16.807   7.817  13.982
46571W        W14965  19.249  36.511  10.324
46572W        W14966  25.642  15.207  13.788
46573W        W14967  35.074  13.719   0.898
46574W        W14968  33.752  37.468   4.588
46575W        W14969  29.679   6.907  14.827
46576W        W14970  12.888  24.964  12.113
46577W        W14971  26.188  19.323   0.890
46578W        W14972   8.318  28.050  12.899
46579W        W14973  18.651  25.485  14.820
46580W        W14974   4.339   4.037   4.904
46581W        W14975  17.478  41.531  10.549
46582W        W14976  22.150  33.571   3.376
46583W        W14977   2.434   0.468   2.283
46584W        W14978  41.071   9.295  13.333
46585W        W14979  36.175  13.853  11.205
46586W        W14980  17.624  24.268  11.148
46587W        W14981   8.883  34.786  12.479
46588W        W14982  14.358  14.083   0.478
46589W        W14983  44.442   9.878   5.004
46590W        W14984  29.702   9.868  11.131
46591W        W14985  25.293  26.733   4.307
46592W        W14986   4.502  41.550   4.182
46593W        W14987  24.536  29.459  11.125
46594W        W14988  31.622  13.847  12.109
46595W        W14989   2.607   0.287   0.430
46596W        W14990  21.917  37.574  12.124
46597W        W14991  17.813   2.441   1.377
46598W        W14992  12.519  21.587   1.264
46599W        W14993   0.466  31.161  11.465
46600W        W14994  32.089  34.322   2.757
46601W        W14995  38.560  38.034  11.473
46602W        W14996  13.990  17.160  13.941
46603W        W14997  24.710  17.969  11.497
46604W        W14998  32.518  41.543  12.613
46605W        W14999  36.099   1.401   3.144
46606W        W15000   8.642  27.239  12.291
46607W        W15001  15.775   3.778  14.989
46608W        W15002  10.670  39.117   4.122
46609W        W15003   1.480  41.452   2.832
46610W        W15004  43.138  35.379   4.995
46611W        W15005  36.949   7.572   2.890
46612W        W15006  12.869  11.840  12.644
46613W        W15007   3.725  42.546   3.366
46614W        W15008  16.251   2.978  12.084
46615W        W15009  19.844   1.225   3.920
46616W        W15010  16.208  16.594  14.998
46617W        W15011  10.728  21.014   1.624
46618W        W15012   0.859  36.058   4.069
46619W        W15013  10.297  23.677  14.489
46620W        W15014  43.555  36.103  13.014
46621W        W15015  31.841  23.913  10.702
46622W        W15016  20.212  17.768   1.760
46623W        W15017  37.042  35.027  14.545
46624W        W15018  33.428  24.844  13.604
46625W        W15019   3.723   3.394   4.830
46626W        W15020   5.977  37.925  12.629
46627W        W15021  27.594  16.916   3.611
46628W        W15022  17.531  42.589  14.022
46629W        W15023  28.138   3.003   0.448
46630W        W15024  28.075  36.666  12.173
46631W        W15025   5.809  21.685   2.925
46632W        W15026  43.370  42.869   4.097
46633W        W15027   3.001  42.496  13.027
46634W        W15028  14.367   0.953   1.327
46635W        W15029   0.484  15.103   4.621
46636W        W15030   0.176  40.310   2.319
46637W        W15031  13.728  15.765  12.685
46638W        W15032  16.602   8.451   3.554
46639W        W15033  36.879  29.676   2.571
46640W        W15034  14.281  38.269  10.736
46641W        W15035   2.003  41.651   2.269
46642W        W15036  13.764  20.827  12.951
46643W        W15037  21.181  13.195   2.144
46644W        W15038  42.476  10.754   2.217
46645W        W15039  39.523   1.271   2.392
46646W        W15040  20.427  18.989   3.044
46647W        W15041  30.712  22.560   4.087
46648W        W15042  20.588   6.394   0.452
46649W        W15043  14.260  44.189   3.270
46650W        W15044  13.151  20.258   2.402
46651W        W15045  41.544  26.711   3.580
46652W        W15046  22.007  14.754  10.607
46653W        W15047  35.079  32.550  11.981
46654W        W15048  21.763  17.594   0.404
46655W        W15049  35.916  42.536  14.664
46656W        W15050  10.455   8.782   9.898
46657W        W15051  14.570  39.777  10.207
46658W        W15052   6.684  17.958   3.594
46659W        W15053  37.517  33.504  12.402
46660W        W15054  29.133  43.324   5.040
46661W        W15055  19.617   9.142   0.773
46662W        W15056   3.705  34.659  14.976
46663W        W15057  42.763  17.594   2.288
46664W        W15058  36.404  19.356  12.988
46665W        W15059  31.231  29.590   4.050
46666W        W15060   1.710  31.483  11.431
46667W        W15061  33.504  40.880   2.386
46668W        W15062  34.213  20.402   4.121
46669W        W15063  34.014  19.576  14.913
46670W        W15064  43.525  32.424  13.801
46671W        W15065  24.692  10.195   1.949
46672W        W15066  44.001  18.743   1.201
46673W        W15067   4.525  23.750  12.924
46674W        W15068  39.586   5.674  13.380
46675W        W15069  31.294  30.621  13.854
46676W        W15070  10.776  25.619   4.494
46677W        W15071  10.130  32.694  14.927
46678W        W15072  38.976  32.975  14.514
46679W        W15073   5.694  23.227  14.302
46680W        W15074  19.958  20.003  12.907
46681W        W15075  41.515  43.509   4.222
46682W        W15076  36.078  20.088  10.583
46683W        W15077   4.930  12.022  14.357
46684W        W15078  34.008  33.818   2.559
46685W        W15079  28.237  22.603   0.856
46686W        W15080  31.512  15.147   2.640
46687W        W15081  32.745  28.046  11.017
46688W        W15082  26.656   0.119   9.609
46689W        W15083  44.448   1.441   3.373
46690W        W15084  26.101  23.057  14.680
46691W        W15085  34.564   0.780  14.522
46692W        W15086  25.458  41.505  12.040
46693W        W15087  28.228  29.599   2.691
46694W        W15088   8.676  24.458  13.406
46695W        W15089   7.261  23.878  14.249
46696W        W15090  24.616   5.459  12.353
46697W        W15091   8.832   7.826  14.908
46698W        W15092  10.102  23.465   0.494
46699W        W15093   3.704  36.591  12.480
46700W        W15094  43.019  15.808   2.993
46701W        W15095  40.957  21.084   2.591
46702W        W15096  42.718  23.545   4.142
46703W        W15097  16.593  26.000   3.248
46704W        W15098  24.215  24.425   1.701
46705W        W15099   7.655  30.531  14.340
46706W        W15100   4.666  14.000  14.451
46707W        W15101  31.863   9.205  13.458
46708W        W15102  35.961  35.845   3.587
46709W        W15103  34.684   0.155  12.815
46710W        W15104  41.984  43.770   4.386
46711W        W15105  28.453  14.069   1.216
46712W        W15106  43.464   0.488  11.036
46713W        W15107  43.243  21.290   3.361
46714W        W15108   2.456  13.132   0.801
46715W        W15109  27.393   3.396  10.750
46716W        W15110   2.777  27.314  13.758
46717W        W15111  10.232  11.334  14.100
46718W        W15112  41.978  17.606   4.528
46719W        W15113  23.262  38.883   0.423
46720W        W15114  34.968  18.949   3.786
46721W        W15115   8.184  24.614   0.362
46722W        W15116  39.808   9.833   2.201
46723W        W15117   7.901   2.297   2.068
46724W        W15118  23.917   8.137  12.887
46725W        W15119  38.336  29.883   4.111
46726W        W15120  10.706  32.436   3.594
46727W        W15121  15.624  17.914   5.449
46728W        W15122   9.521  43.002  14.860
46729W        W15123  18.719  13.703  11.396
46730W        W15124  25.390   3.208   1.558
46731W        W15125  34.609  36.893   1.817
46732W        W15126  34.082  38.078  13.604
46733W        W15127  43.366  18.411   1.418
46734W        W15128  16.791  22.782   3.619
46735W        W15129  23.798  41.619  14.360
46736W        W15130   3.040   9.661  14.940
46737W        W15131   3.260  19.026   4.928
46738W        W15132  37.767  26.546  12.369
46739W        W15133   1.490   4.527  11.639
46740W        W15134  34.495   9.010   3.492
46741W        W15135  11.135  34.242   2.281
46742W        W15136  11.150   4.833  13.434
46743W        W15137  16.794  15.440   1.753
46744W        W15138   9.644  34.444  11.987
46745W        W15139  31.970  42.942  11.457
46746W        W15140  18.230  15.070  13.849
46747W        W15141  40.942  30.004   3.916
46748W        W15142  21.817  10.852  12.383
46749W        W15143   7.820  24.067  12.095
46750W        W15144  21.634  17.622   1.387
46751W        W15145  37.901   3.103  12.406
46752W        W15146  18.137   2.703   3.140
46753W        W15147  17.525  34.390  13.897
46754W        W15148  33.320  20.220  14.117
46755W        W15149  19.529  20.241   1.452
46756W        W15150   7.457  13.877  12.011
46757W        W15151   3.284   8.841   3.907
46758W        W15152   8.123  40.296   1.756
46759W        W15153  11.290  41.727   1.230
46760W        W15154  28.979  41.418  10.652
46761W        W15155   3.243  36.856  14.006
46762W        W15156  32.676  35.549  14.868
46763W        W15157   3.007   0.887  14.950
46764W        W15158  31.762  43.916  13.028
46765W        W15159  15.181  15.685  10.402
46766W        W15160  15.738  34.157   1.433
46767W        W15161  21.172  12.526   5.062
46768W        W15162   1.168   0.221  11.702
46769W        W15163  12.064  24.212   3.303
46770W        W15164  18.030  19.631  11.549
46771W        W15165  19.031  31.410  14.406
46772W        W15166  11.643   8.810  13.140
46773W        W15167  24.604  43.994   4.245
46774W        W15168  15.121  15.484   2.786
46775W        W15169   7.817  37.913  12.401
46776W        W15170  13.159  44.859   0.895
46777W        W15171  28.968  15.960   2.275
46778W        W15172  36.389  36.515  13.905
46779W        W15173  26.986  42.315   4.927
46780W        W15174  16.925  28.987   3.663
46781W        W15175  30.409  28.630  13.626
46782W        W15176  12.196  13.382   1.367
46783W        W15177   2.372  33.633   1.363
46784W        W15178  15.100   0.188   1.947
46785W        W15179  25.164  16.767   0.551
46786W        W15180   3.389  40.792  12.841
46787W        W15181  11.779  27.048   4.656
46788W        W15182  22.443  13.554  11.532
46789W        W15183  13.324  22.500   1.686
46790W        W15184  34.918   4.732  13.944
46791W        W15185   2.866  27.808  13.885
46792W        W15186  26.674   0.300  12.059
46793W        W15187  42.346  34.264   0.302
46794W        W15188  15.534   3.889   4.706
46795W        W15189  11.690  21.464  14.685
46796W        W15190  43.731  20.985  13.797
46797W        W15191   5.430   2.658   3.688
46798W        W15192   6.346   0.268  14.799
46799W        W15193  10.335  19.209   4.623
46800W        W15194   7.146  44.874   3.498
46801W        W15195   1.601   4.565   4.586
46802W        W15196  22.558  27.866   3.667
46803W        W15197  16.791  35.352  12.986
46804W        W15198  41.447  44.878  13.465
46805W        W15199  11.793  12.254   3.421
46806W        W15200  16.913  32.065   9.901
46807W        W15201  44.789  30.504  12.478
46808W        W15202  27.193  38.402   3.258
46809W        W15203  37.441  37.488   1.260
46810W        W15204  30.417   6.880  11.465
46811W        W15205  30.778  14.326   4.129
46812W        W15206  43.414  10.780  12.162
46813W        W15207  27.227  28.737   0.948
46814W        W15208   7.905   0.345  14.143
46815W        W15209  12.114  36.057  13.249
46816W        W15210  40.065   6.886   0.698
46817W        W15211  13.111  30.671   1.907
46818W        W15212  26.049  42.258  10.063
46819W        W15213   4.258  35.376   3.087
46820W        W15214  11.189   2.471  12.105
46821W        W15215   4.354   1.856   3.776
46822W        W15216  28.588  38.602   1.823
46823W        W15217   6.406   1.753   5.409
46824W        W15218  42.864  16.327  13.818
46825W        W15219  14.189   8.296   2.491
46826W        W15220   3.833   3.728   3.064
46827W        W15221  22.010   8.097   2.433
46828W        W15222  23.186  17.117   0.895
46829W        W15223  34.887  17.800   0.696
46830W        W15224  17.537  43.547   0.390
46831W        W15225  31.887  33.886  10.790
46832W        W15226  44.015  11.111  14.362
46833W        W15227  24.369   1.837  11.264
46834W        W15228  11.304  33.462   2.668
46835W        W15229  37.596   6.294   0.975
46836W        W15230   2.468  13.553  13.942
46837W        W15231  11.234  30.876  13.014
46838W        W15232  27.845  24.291   0.858
46839W        W15233  18.152  38.528  14.446
46840W        W15234  43.943  29.544  14.453
46841W        W15235   6.481  43.381  13.983
46842W        W15236  39.991  33.399   0.877
46843W        W15237   8.763   1.491   1.966
46844W        W15238  13.282  31.678  11.606
46845W        W15239   0.204   1.702   1.459
46846W        W15240   2.431  19.583  13.982
46847W        W15241   6.080  16.073   0.846
46848W        W15242  20.930   4.856   5.128
46849W        W15243   3.142   6.602  11.489
46850W        W15244   5.470  18.679   3.591
46851W        W15245  28.737  18.347   3.211
46852W        W15246   1.745  11.219  11.626
46853W        W15247  12.926   9.291  13.516
46854W        W15248  40.628   1.007   3.791
46855W        W15249   0.820  12.366   4.222
46856W        W15250  40.901   4.948   0.848
46857W        W15251   0.736  11.100  13.921
46858W        W15252  22.997  31.560  12.554
46859W        W15253  25.112  29.441   0.486
46860W        W15254  33.460  25.446  11.241
46861W        W15255  32.160   9.159   3.426
46862W        W15256   8.371   5.149  12.982
46863W        W15257  39.891   3.801  11.248
46864W        W15258  20.981   0.639   5.048
46865W        W15259  16.396  23.977   0.848
46866W        W15260  21.947   7.196   4.154
46867W        W15261  44.778  23.215   3.789
46868W        W15262  21.173  27.192   3.282
46869W        W15263  28.555  21.378   0.297
46870W        W15264  22.587  20.960  11.785
46871W        W15265  17.476  19.249   4.120
46872W        W15266  31.708  32.978   2.173
46873W        W15267  27.698  21.971   1.333
46874W        W15268   7.676  18.674   4.346
46875W        W15269  11.326  33.343  13.947
46876W        W15270  27.223   3.234  12.076
46877W        W15271  24.853  16.703  13.920
46878W        W15272  29.996  35.430  13.961
46879W        W15273  10.391  17.161  14.070
46880W        W15274  20.580  43.995   2.938
46881W        W15275  11.822   2.647   3.666
46882W        W15276   8.258  22.033  12.451
46883W        W15277  14.772  30.636   3.244
46884W        W15278  29.120  38.546  13.444
46885W        W15279   6.391  10.308  13.996
46886W        W15280  17.080  41.124  12.895
46887W        W15281  41.456  23.545   4.544
46888W        W15282   9.426   0.879  12.907
46889W        W15283   0.152  16.465   4.698
46890W        W15284  20.245  44.069  12.922
46891W        W15285  39.865  38.317   4.043
46892W        W15286   1.158  24.223  13.800
46893W        W15287   2.016  19.942  13.975
46894W        W15288  27.136   1.266  11.542
46895W        W15289  40.205  11.629  14.440
46896W        W15290   5.198  13.696   1.920
46897W        W15291   1.736  13.213  11.605
46898W        W15292  27.728   4.213   1.009
46899W        W15293  44.339  41.937   4.503
46900W        W15294  19.041  20.728   4.573
46901W        W15295  41.772  19.430   2.837
46902W        W15296  38.908  39.943  13.055
46903W        W15297  35.386  11.135   3.122
46904W        W15298  23.864  30.615  11.467
46905W        W15299  44.083   4.862   2.451
46906W        W15300   0.504   6.434  13.961
46907W        W15301   9.339  29.652  11.723
46908W        W15302  28.095  25.755  11.427
46909W        W15303  29.254  15.414  12.969
46910W        W15304  41.703  21.142  10.084
46911W        W15305  38.821  34.830  10.975
46912W        W15306  19.628  16.466   3.721
46913W        W15307  35.494  14.324  12.575
46914W        W15308   2.821  38.007  10.692
46915W        W15309  36.582  11.685   3.772
46916W        W15310  42.896  27.466  14.440
46917W        W15311   2.933  14.326   1.703
46918W        W15312   4.261  21.243  11.425
46919W        W15313  20.710  17.031  10.263
46920W        W15314  13.217  19.791   0.048
46921W        W15315  15.204   3.810   1.960
46922W        W15316  10.376   6.589  11.515
46923W        W15317  37.121  11.250  13.741
46924W        W15318  42.177   1.375  14.073
46925W        W15319  27.976  12.125   1.486
46926W        W15320   4.745  24.225  11.451
46927W        W15321  11.801  14.716  11.035
46928W        W15322  26.468  40.291  13.501
46929W        W15323   2.861  42.906   1.721
46930W        W15324  39.922  35.434   1.013
46931W        W15325   3.697  15.773  11.118
46932W        W15326  38.536  26.995  10.846
46933W        W15327   8.985  36.906   1.628
46934W        W15328  26.156  30.258  14.955
46935W        W15329  37.563  38.575   3.541
46936W        W15330  11.549   0.732   4.977
46937W        W15331  41.261  19.084   4.311
46938W        W15332   0.035  11.329  14.395
46939W        W15333   3.339  21.574   1.223
46940W        W15334  28.124  15.496   3.965
46941W        W15335  11.677  19.262  12.113
46942W        W15336  43.526  16.899  11.080
46943W        W15337   1.753  38.021  12.421
46944W        W15338  39.404  26.129   4.601
46945W        W15339   6.550  19.843  11.502
46946W        W15340   1.682   4.378   1.869
46947W        W15341  34.956  44.003   0.239
46948W        W15342  23.545  40.855  13.566
46949W        W15343  27.469   5.584  14.669
46950W        W15344  38.819   2.285   4.721
46951W        W15345  29.853   5.905   2.604
46952W        W15346  44.262   4.049  14.248
46953W        W15347  22.848   9.772   2.823
46954W        W15348   4.335  16.225   1.055
46955W        W15349  12.460   9.448   0.821
46956W        W15350  18.135  24.556   1.835
46957W        W15351  22.751  33.885   3.363
46958W        W15352  44.858  33.630   4.281
46959W        W15353  34.486  19.283  13.849
46960W        W15354  39.577  23.182  11.648
46961W        W15355  20.966   3.867  11.546
46962W        W15356  29.581  24.809  14.355
46963W        W15357   3.913  20.692  14.372
46964W        W15358   4.715  12.749  13.387
46965W        W15359  27.304  36.064   0.724
46966W        W15360  22.259  24.241  14.384
46967W        W15361  30.494   4.453   0.324
46968W        W15362   8.756  37.982   2.643
46969W        W15363  10.124  42.036  11.961
46970W        W15364   7.570  39.247  14.949
46971W        W15365  24.277  34.763  13.520
46972W        W15366  19.439   4.878   2.236
46973W        W15367  10.275   3.366  13.847
46974W        W15368  39.754  16.331   3.722
46975W        W15369  11.449  28.423  13.091
46976W        W15370   7.908  31.949   1.123
46977W        W15371  17.743  16.160  13.471
46978W        W15372   6.249  11.994  13.018
46979W        W15373  11.307   5.220   2.226
46980W        W15374  35.922   0.844   4.480
46981W        W15375  16.794  13.783   1.867
46982W        W15376   4.022  23.119  10.740
46983W        W15377  37.491  43.439   0.343
46984W        W15378  15.381  14.590   2.149
46985W        W15379   0.777  41.017   2.719
46986W        W15380  26.947  22.621   1.228
46987W        W15381  33.166  16.934   4.046
46988W        W15382  16.699  40.170  11.574
46989W        W15383   4.137   5.821   2.805
46990W        W15384  17.362  24.657   1.331
46991W        W15385  26.894  42.607   4.083
46992W        W15386  20.574  14.286  14.794
46993W        W15387  42.857  25.432   1.798
46994W        W15388  15.666  19.831   1.248
46995W        W15389  20.624  41.925  12.859
46996W        W15390  40.930   9.557   2.302
46997W        W15391  22.982  36.333  11.301
46998W        W15392  34.286  10.148   2.237
46999W        W15393  41.766  40.934   3.782
47000W        W15394   3.757  41.414   0.932
47001W        W15395  31.709   8.302  13.878
47002W        W15396  35.659  30.918  12.669
47003W        W15397  42.734  22.508  12.083
47004W        W15398  41.866  26.922  11.917
47005W        W15399  38.518  15.784   2.909
47006W        W15400  22.148  25.239   5.145
47007W        W15401  34.980   1.565   1.888
47008W        W15402  11.719  19.823   0.018
47009W        W15403   1.511  18.835   2.671
47010W        W15404   3.371  39.399   0.310
47011W        W15405   2.531   8.387   4.735
47012W        W15406  37.330  16.981  11.942
47013W        W15407  27.045  42.821   2.819
47014W        W15408  17.285   6.762  12.012
47015W        W15409   8.675  34.535  13.468
47016W        W15410  21.677  41.445  13.541
47017W        W15411  36.836  14.624  14.808
47018W        W15412   4.626   5.658  14.980
47019W        W15413  44.164   6.758  14.995
47020W        W15414  20.002  16.082   1.286
47021W        W15415  36.489  44.959   4.501
47022W        W15416  38.940  37.515  12.983
47023W        W15417  38.597  32.174   0.999
47024W        W15418  29.965  10.757  14.101
47025W        W15419   4.512  21.929  12.106
47026W        W15420  32.011   0.879   4.036
47027W        W15421  38.540  35.418  10.655
47028W        W15422   7.308  32.067  12.894
47029W        W15423  16.797  38.531  14.980
47030W        W15424  44.720  15.791   3.651
47031W        W15425  35.278  40.379   2.757
47032W        W15426  10.164  35.336   3.910
47033W        W15427  17.708   2.978  11.921
47034W        W15428   9.250  25.098  11.832
47035W        W15429   3.611  33.513   3.637
47036W        W15430   0.923  35.883   1.798
47037W        W15431  19.069   4.411  13.467
47038W        W15432  11.698  30.352   1.710
47039W        W15433  33.357  21.385  10.135
47040W        W15434  16.995  29.711  11.119
47041W        W15435   4.470   4.423  13.510
47042W        W15436  29.944   0.703   4.898
47043W        W15437  30.149  10.311  14.293
47044W        W15438  32.425  35.007  11.172
47045W        W15439  31.571  22.619   3.839
47046W        W15440  10.556  29.301   3.211
47047W        W15441  21.127  32.238  12.596
47048W        W15442  18.774  21.084  11.187
47049W        W15443   8.195  24.541  13.549
47050W        W15444  44.194  27.492  13.878
47051W        W15445   1.350  12.240   2.008
47052W        W15446   4.304  15.279  10.400
47053W        W15447  36.528  33.920   4.899
47054W        W15448  28.767  22.648   0.824
47055W        W15449  31.379   2.986   4.667
47056W        W15450  40.003  15.128   3.902
47057W        W15451  32.311   2.254  12.591
47058W        W15452   5.655  13.491   4.206
47059W        W15453   9.400  40.927  12.104
47060W        W15454  18.740   3.404  13.828
47061W        W15455  18.659  36.975   4.456
47062W        W15456  14.556  24.898   4.463
47063W        W15457   6.996  12.723  12.839
47064W        W15458   5.598   2.545  10.219
47065W        W15459  11.094  14.644   3.758
47066W        W15460  34.350  29.060  11.709
47067W        W15461  13.910   1.722   0.421
47068W        W15462  10.227  25.394   1.468
47069W        W15463   9.913  12.379  11.459
47070W        W15464  39.911  16.635   2.683
47071W        W15465  17.116  11.117  14.890
47072W        W15466  30.839  12.967   0.754
47073W        W15467  19.827  27.013  14.955
47074W        W15468  15.270  28.171   3.114
47075W        W15469  10.960  31.550   1.742
47076W        W15470  34.973  33.600   2.258
47077W        W15471  35.045  26.486  12.001
47078W        W15472  17.593  19.798  12.025
47079W        W15473  43.196  41.789  14.958
47080W        W15474  16.128  20.508   1.031
47081W        W15475  40.379  30.454  12.317
47082W        W15476  10.138  18.033  10.579
47083W        W15477  15.824  43.941   1.800
47084W        W15478  42.059  44.147   3.623
47085W        W15479   8.309  16.219  10.753
47086W        W15480  24.052  41.384  12.047
47087W        W15481   5.307   0.055   3.280
47088W        W15482  19.158  38.940  11.602
47089W        W15483   7.633  43.878   4.666
47090W        W15484  44.321  43.696  12.520
47091W        W15485  27.519  41.561   3.369
47092W        W15486  44.373   2.846  11.171
47093W        W15487   6.343  34.006  14.697
47094W        W15488   2.097   0.343   0.641
47095W        W15489  27.146   6.400  12.683
47096W        W15490  10.730  40.906  11.642
47097W        W15491   8.906  35.796   1.897
47098W        W15492  21.805  35.760   0.974
47099W        W15493   8.902   4.770   1.856
47100W        W15494   7.705  19.335  12.926
47101W        W15495  11.253  13.638  13.811
47102W        W15496  31.872  30.613   2.799
47103W        W15497   1.820   1.444   0.037
47104W        W15498  43.061  27.174   1.789
47105W        W15499  35.332  28.002  13.448
47106W        W15500  32.518  23.036   2.912
47107W        W15501  18.256   6.947   2.255
47108W        W15502  29.433   5.211   0.455
47109W        W15503  41.464  22.816   0.733
47110W        W15504  12.649  22.334   4.789
47111W        W15505  38.043  27.480   1.241
47112W        W15506  15.080  41.077  13.608
47113W        W15507   2.061  40.832  14.801
47114W        W15508  13.264  35.851   1.356
47115W        W15509  20.681  10.477   2.150
47116W        W15510  23.571   8.959  10.661
47117W        W15511  17.702  31.618  12.602
47118W        W15512  22.973  42.723   2.287
47119W        W15513  35.337  22.642   4.254
47120W        W15514   2.206  32.867   3.291
47121W        W15515   6.882   1.179   1.252
47122W        W15516  20.709  20.364  12.373
47123W        W15517  26.147   7.106   1.676
47124W        W15518  17.099  12.901  12.397
47125W        W15519  25.248   8.538  14.473
47126W        W15520  38.837  19.118   4.684
47127W        W15521   5.585  30.369   5.013
47128W        W15522   8.599  13.426  13.324
47129W        W15523  33.552  29.557  11.663
47130W        W15524   4.003  21.350  10.587
47131W        W15525  29.066   4.303  11.578
47132W        W15526  42.943  24.206   0.270
47133W        W15527   1.434  16.674  13.170
47134W        W15528  22.509   8.234   2.290
47135W        W15529  27.531   7.861   1.900
47136W        W15530  31.154  13.543  14.025
47137W        W15531  14.403  31.607   3.037
47138W        W15532  29.151  10.148   0.787
47139W        W15533  43.724  27.646  13.681
47140W        W15534   8.900  26.469  10.367
47141W        W15535  13.764  31.409  10.762
47142W        W15536   4.989  11.252  13.670
47143W        W15537  17.383  25.854  11.595
47144W        W15538   0.460   4.496  14.281
47145W        W15539  30.966  34.868  11.197
47146W        W15540   8.872   0.603  11.484
47147W        W15541  38.442  14.675  11.637
47148W        W15542   5.733   3.210   0.239
47149W        W15543  19.378  36.345   9.833
47150W        W15544  32.428  31.491   4.588
47151W        W15545  16.232  29.050  14.372
47152W        W15546  23.017   3.972  10.724
47153W        W15547   5.850  11.248  12.833
47154W        W15548  10.286  36.601   2.264
47155W        W15549  28.141   0.027   4.983
47156W        W15550   1.417  37.151   3.386
47157W        W15551  10.580  39.075   0.224
47158W        W15552  18.076  23.233  13.461
47159W        W15553   8.781  31.382   3.862
47160W        W15554  14.028  37.651  11.616
47161W        W15555  17.296  18.517  13.903
47162W        W15556  14.258  14.402   4.581
47163W        W15557  16.104  30.907   0.523
47164W        W15558  26.148   1.080  14.310
47165W        W15559  35.076  39.853  14.393
47166W        W15560  29.526  21.068  14.293
47167W        W15561  29.316   9.659  11.377
47168W        W15562   6.226  41.586   3.651
47169W        W15563   1.840  18.298  12.760
47170W        W15564  24.730  30.554  13.755
47171W        W15565  33.060  28.239   4.136
47172W        W15566  13.227  41.393   2.845
47173W        W15567  32.886  37.240   4.286
47174W        W15568  10.957  32.051   3.889
47175W        W15569   7.794  20.547   4.214
47176W        W15570   5.863  13.143  10.195
47177W        W15571  21.741  17.060   2.209
47178W        W15572  23.226  31.867   2.410
47179W        W15573  11.355   4.272   2.161
47180W        W15574  27.431   8.904  14.934
47181W        W15575  29.870  30.375  11.206
47182W        W15576   1.469  21.559   4.079
47183W        W15577  16.218  25.706  10.455
47184W        W15578  26.509  42.936  14.829
47185W        W15579   9.379  39.315  10.742
47186W        W15580  15.849  24.156   0.848
47187W        W15581  20.551  26.101   4.560
47188W        W15582  18.568  12.824  13.446
47189W        W15583  31.618   4.442  13.398
47190W        W15584   4.314  32.410   4.042
47191W        W15585  44.994  22.448   2.832
47192W        W15586  41.859  21.490   0.897
47193W        W15587   8.909  34.443   1.206
47194W        W15588  37.045  18.147   1.972
47195W        W15589  43.099  23.645  10.661
47196W        W15590  21.479  25.188   1.709
47197W        W15591  43.888  30.713  11.571
47198W        W15592   5.928  36.908  11.080
47199W        W15593  39.327  20.742  10.846
47200W        W15594   9.759  18.785  14.993
47201W        W15595  39.322   5.741  12.513
47202W        W15596   3.690  12.585  10.809
47203W        W15597  33.464  38.159  14.999
47204W        W15598  31.423  13.668  12.581
47205W        W15599  26.425  30.488  10.110
47206W        W15600  38.949  24.396   2.321
47207W        W15601  27.046   1.478  13.828
47208W        W15602  24.490   0.338   4.575
47209W        W15603  29.073  39.999  11.219
47210W        W15604  41.028   4.237   0.396
47211W        W15605  26.498   9.376   2.138
47212W        W15606  25.565  31.089  13.831
47213W        W15607  13.546  27.726  13.926
47214W        W15608  24.909  21.216  11.641
47215W        W15609  36.971  19.662   1.767
47216W        W15610   3.717  31.868   3.349
47217W        W15611  21.290  33.958   4.211
47218W        W15612  35.551  10.261  10.693
47219W        W15613  27.364   0.396   2.823
47220W        W15614  19.002  39.000   2.303
47221W        W15615   8.569  12.466   0.241
47222W        W15616  41.502   4.335   1.434
47223W        W15617  30.090   6.945   0.446
47224W        W15618  13.643  13.288   0.344
47225W        W15619  40.500  36.888  14.234
47226W        W15620  19.193  27.944   4.187
47227W        W15621   7.156  25.967   0.920
47228W        W15622  34.926  24.463   0.360
47229W        W15623  23.527  36.554  14.313
47230W        W15624  43.755   0.461   3.461
47231W        W15625   1.243  19.923  10.750
47232W        W15626   7.770  44.867  13.319
47233W        W15627  31.106  16.157   1.946
47234W        W15628  21.062  28.603  14.438
47235W        W15629  43.453  39.238   0.286
47236W        W15630  24.155  16.797  13.372
47237W        W15631  10.245  12.616  11.085
47238W        W15632  25.120  34.342   4.543
47239W        W15633   6.378  39.547  13.365
47240W        W15634  17.641  43.298  11.723
47241W        W15635  33.662   8.899  11.272
47242W        W15636  31.939  25.423  10.754
47243W        W15637  43.008   4.485  12.488
47244W        W15638  20.062  33.023   1.455
47245W        W15639  27.248  37.483  13.864
47246W        W15640  32.294   6.812  14.205
47247W        W15641  38.081  35.551  11.531
47248W        W15642  30.684  11.660  13.299
47249W        W15643  24.706   3.686  12.970
47250W        W15644  35.647   6.612   2.817
47251W        W15645  41.281  20.511  13.519
47252W        W15646  30.080  30.959   1.343
47253W        W15647  32.248  16.991   0.371
47254W        W15648  30.184  10.358  13.255
47255W        W15649  29.363  18.026  11.068
47256W        W15650  32.022  17.644   4.635
47257W        W15651  36.074  18.573  14.590
47258W        W15652  29.240  28.399   3.680
47259W        W15653  41.514  44.797   3.285
47260W        W15654  19.982  29.484   4.806
47261W        W15655  26.576  30.060   1.403
47262W        W15656  34.970  36.573  10.641
47263W        W15657  17.820  16.801   4.490
47264W        W15658  38.674  12.838  11.630
47265W        W15659  41.537  39.955   1.307
47266W        W15660  19.801   4.709  14.292
47267W        W15661  24.582  31.021  13.979
47268W        W15662  11.564  11.065   3.763
47269W        W15663  34.049   2.826  12.429
47270W        W15664   6.618   0.271   4.525
47271W        W15665  38.149  25.635   1.549
47272W        W15666  29.022  22.019  13.105
47273W        W15667  29.680   3.808  10.835
47274W        W15668  41.636   5.297  13.972
47275W        W15669  11.660  35.795  13.297
47276W        W15670  41.507  42.803  10.425
47277W        W15671  10.863  33.155   0.320
47278W        W15672  30.204  26.512   0.351
47279W        W15673  29.419   0.053   2.858
47280W        W15674  24.016  21.457  12.037
47281W        W15675  37.508  31.052  13.028
47282W        W15676   8.695   7.607   0.345
47283W        W15677  42.253   9.563   3.335
47284W        W15678  31.540  25.116  10.709
47285W        W15679  24.071  28.938  14.283
47286W        W15680  10.095   4.121   4.550
47287W        W15681   2.504  28.713  13.993
47288W        W15682   4.885  16.498   2.741
47289W        W15683   5.083  26.760   2.219
47290W        W15684   5.611  11.661   3.129
47291W        W15685  28.027  33.890  11.540
47292W        W15686  38.356  43.496  13.873
47293W        W15687  12.107  36.194  11.120
47294W        W15688  44.809  24.603   4.330
47295W        W15689  14.345   4.185   1.131
47296W        W15690   2.163  12.549  12.003
47297W        W15691   0.961   1.963  14.321
47298W        W15692   4.929  20.526   1.830
47299W        W15693  24.357  36.527  13.404
47300W        W15694  11.711  42.737   4.879
47301W        W15695   9.045  30.043   0.774
47302W        W15696  40.762  38.385   0.718
47303W        W15697   2.697  17.060   2.395
47304W        W15698  22.560   3.395   0.922
47305W        W15699  38.931  10.665   0.338
47306W        W15700  26.409  13.334  10.319
47307W        W15701   1.380  17.501   4.038
47308W        W15702  21.305  27.447   1.613
47309W        W15703  12.593  30.250   3.740
47310W        W15704  24.979   3.438   2.289
47311W        W15705  22.352   0.842   1.460
47312W        W15706  29.066  30.937  11.127
47313W        W15707  35.366  29.111   3.918
47314W        W15708  17.133  13.846  10.746
47315W        W15709  14.276  26.266   1.767
47316W        W15710  15.883  15.837  14.783
47317W        W15711  27.093  23.130  13.987
47318W        W15712  40.640  33.912   2.425
47319W        W15713   1.899  13.170   4.550
47320W        W15714  36.939   5.902  13.433
47321W        W15715  37.983  39.292  11.144
47322W        W15716  41.366   1.752  14.680
47323W        W15717  24.702  13.875   1.292
47324W        W15718  24.459  34.664   0.792
47325W        W15719  30.606  19.667   0.252
47326W        W15720  36.358   8.613  13.952
47327W        W15721  28.878  27.552  13.605
47328W        W15722   4.304  36.260  11.101
47329W        W15723   8.169  13.358   1.455
47330W        W15724  18.178  10.681   1.894
47331W        W15725  22.260   0.637  12.396
47332W        W15726   9.414  33.526   4.612
47333W        W15727  24.559   7.399   2.987
47334W        W15728  13.367  14.052  11.472
47335W        W15729  36.841  23.970  13.567
47336W        W15730  27.591  44.542   2.452
47337W        W15731   1.966  22.443  11.441
47338W        W15732  42.578  22.951  13.485
47339W        W15733  14.916  38.309   0.950
47340W        W15734  23.763  22.827   3.602
47341W        W15735  31.681  30.829   0.336
47342W        W15736  12.948  36.882   2.089
47343W        W15737  16.348  32.113   4.530
47344W        W15738  22.755  35.064   2.147
47345W        W15739   5.399  35.809   1.885
47346W        W15740  35.129  37.516   2.157
47347W        W15741   7.804   4.946   1.875
47348W        W15742   9.326   3.273  10.976
47349W        W15743  10.777  23.425  10.689
47350W        W15744  40.480  23.627   3.533
47351W        W15745  42.329  11.859   1.827
47352W        W15746   7.101  17.604  10.863
47353W        W15747  33.013  13.406   3.128
47354W        W15748  31.847  23.700  11.435
47355W        W15749  34.963  25.626   3.929
47356W        W15750  41.196  31.936  10.013
47357W        W15751  44.696  11.608  11.631
47358W        W15752  34.357  18.542   0.087
47359W        W15753   1.714  37.782   1.771
47360W        W15754  23.914  37.279   4.597
47361W        W15755  26.969  10.786   0.313
47362W        W15756  30.011  21.749   4.834
47363W        W15757   3.912  25.011   0.767
47364W        W15758   6.257  18.036  11.205
47365W        W15759  36.584  28.072   3.168
47366W        W15760  24.994   9.259  12.945
47367W        W15761  21.210  21.731   2.864
47368W        W15762  20.200  31.201   3.741
47369W        W15763  35.446  32.695  12.881
47370W        W15764   7.224   0.536   3.280
47371W        W15765  14.123  16.139  11.698
47372W        W15766   5.517  23.466  11.552
47373W        W15767  15.245  22.017  14.985
47374W        W15768  17.706  19.301  12.033
47375W        W15769  21.084  37.254  10.713
47376W        W15770  43.083  33.928  11.245
47377W        W15771  24.317  12.427   0.769
47378W        W15772  36.907  25.812   1.016
47379W        W15773  20.185  27.248  12.413
47380W        W15774  14.095  38.033  12.994
47381W        W15775  29.095  10.133   3.296
47382W        W15776  10.076  28.978   4.061
47383W        W15777  14.995  35.262  12.547
47384W        W15778  20.411  29.492   0.892
47385W        W15779   6.438  29.482  10.781
47386W        W15780  34.891  38.078  11.641
47387W        W15781   5.796   9.773  14.033
47388W        W15782   8.508  13.784   1.430
47389W        W15783  16.365   5.966   1.278
47390W        W15784   8.847   3.409  13.289
47391W        W15785  26.768  20.704  13.914
47392W        W15786  15.518  37.911  11.073
47393W        W15787  41.575  16.803  13.389
47394W        W15788  22.413   1.746   0.889
47395W        W15789  43.541   0.896   2.322
47396W        W15790  36.538  28.072  10.789
47397W        W15791  31.053   4.604   3.971
47398W        W15792   1.787  32.701  12.361
47399W        W15793  32.530   7.678   3.859
47400W        W15794   8.955  11.928  11.871
47401W        W15795  34.321  20.657   2.264
47402W        W15796   2.715  14.898  13.494
47403W        W15797  23.871   9.121   5.275
47404W        W15798  36.681  27.072  14.250
47405W        W15799  20.576  15.393   0.760
47406W        W15800   3.000   1.715   2.658
47407W        W15801  22.752   5.590  11.190
47408W        W15802  40.203  37.607   2.899
47409W        W15803  29.097  28.704  11.605
47410W        W15804  39.430   5.982  12.980
47411W        W15805   6.964  18.748   0.200
47412W        W15806  25.494  34.282  14.366
47413W        W15807   6.908  33.177   1.967
47414W        W15808   2.370   5.049  10.939
47415W        W15809   3.280  39.522   0.850
47416W        W15810  34.600  14.239   4.876
47417W        W15811  34.977   7.491   1.307
47418W        W15812  26.602  16.019   0.867
47419W        W15813  28.167  13.587  11.110
47420W        W15814   1.579  44.057  12.101
47421W        W15815  24.611   2.260   0.717
47422W        W15816   9.797   8.664  11.028
47423W        W15817  27.162  31.989  14.887
47424W        W15818  24.820  32.488   4.611
47425W        W15819  36.570  12.885  14.056
47426W        W15820  11.641  11.561   0.157
47427W        W15821  36.635  31.042   2.885
47428W        W15822   4.263  44.964  11.911
47429W        W15823  26.531  19.666  14.041
47430W        W15824   0.375  25.986  12.565
47431W        W15825  16.708  13.202  14.450
47432W        W15826  22.552  19.812  12.409
47433W        W15827  21.092  35.016  11.987
47434W        W15828  10.749  36.358  13.945
47435W        W15829  14.245  36.576   1.881
47436W        W15830  11.800  23.238  12.412
47437W        W15831   8.893   6.753  14.930
47438W        W15832  13.873  34.525  11.441
47439W        W15833  16.515  26.153  14.302
47440W        W15834  31.936   4.647  11.083
47441W        W15835   2.007   6.758   2.657
47442W        W15836  37.750  37.314   4.053
47443W        W15837  10.389  28.001  11.489
47444W        W15838  10.460  16.704  13.812
47445W        W15839  32.317  32.346  10.082
47446W        W15840  33.679   0.705  14.954
47447W        W15841  31.396  21.231   2.965
47448W        W15842  21.394   5.674   1.290
47449W        W15843  39.453  38.897  14.999
47450W        W15844   1.330  30.299  12.830
47451W        W15845  32.177  32.920   1.227
47452W        W15846  23.911  18.326  11.121
47453W        W15847  20.882  10.300   4.856
47454W        W15848  16.390  14.707   1.904
47455W        W15849  40.235   7.905  10.743
47456W        W15850   6.097  11.634   0.293
47457W        W15851  26.674  10.159  13.823
47458W        W15852  29.973  25.826  12.997
47459W        W15853  39.529   2.382  11.161
47460W        W15854  23.801  16.707  13.792
47461W        W15855  17.871  27.508   0.703
47462W        W15856  12.799  40.821  14.565
47463W        W15857   0.241   6.281   1.912
47464W        W15858  33.398  23.266   0.494
47465W        W15859  26.716  44.838   0.135
47466W        W15860   3.509  42.295  11.138
47467W        W15861  19.738  39.533  13.879
47468W        W15862   3.321  32.009   2.343
47469W        W15863  22.419  26.962   2.870
47470W        W15864  18.693  13.324   1.676
47471W        W15865  24.278  12.690   0.302
47472W        W15866  27.949  37.239  14.661
47473W        W15867  22.139  35.907   2.293
47474W        W15868  14.684  35.085   2.622
47475W        W15869   6.486   1.752  14.225
47476W        W15870   1.384  23.235  13.826
47477W        W15871  17.706  43.052   4.978
47478W        W15872  21.094  10.121   4.427
47479W        W15873  27.250   2.272   1.798
47480W        W15874  31.479  12.824   4.506
47481W        W15875  12.094   9.367  14.850
47482W        W15876   1.820  36.809  13.952
47483W        W15877  30.099   4.125  10.842
47484W        W15878  19.299   2.980   0.796
47485W        W15879  41.818  10.342   3.511
47486W        W15880  26.697  36.948   4.055
47487W        W15881   3.629  24.077  10.664
47488W        W15882   4.280  37.816   4.390
47489W        W15883  30.988  10.344   0.239
47490W        W15884  16.578  28.458   1.349
47491W        W15885  25.729  35.478  13.546
47492W        W15886  16.095  30.654  10.783
47493W        W15887  32.968  38.014   1.821
47494W        W15888  27.981  36.675  14.536
47495W        W15889  18.948  44.699  13.110
47496W        W15890  32.470  17.036   3.336
47497W        W15891  41.560  18.991  14.384
47498W        W15892  24.247  18.016  14.801
47499W        W15893  29.093  23.406  12.558
47500W        W15894   7.102  21.078   0.179
47501W        W15895   5.309  42.447  12.361
47502W        W15896   8.188  20.560  13.434
47503W        W15897  17.883  21.007  11.386
47504W        W15898   0.945  39.329  12.152
47505W        W15899  31.614  23.078  14.362
47506W        W15900   3.939  24.686  11.395
47507W        W15901  35.825  29.416  12.662
47508W        W15902  29.843  37.446  11.503
47509W        W15903   4.142  34.375   0.951
47510W        W15904   0.269   1.375   3.833
47511W        W15905  28.695   7.871   1.748
47512W        W15906  43.263  32.134  12.443
47513W        W15907  10.614  38.436   4.750
47514W        W15908   2.979  41.792   4.582
47515W        W15909  31.705   0.415   3.347
47516W        W15910  18.607  36.030  11.425
47517W        W15911  11.879  43.326   0.780
47518W        W15912  27.166  33.682  10.305
47519W        W15913  26.227  32.630   1.137
47520W        W15914  36.986  37.365   1.466
47521W        W15915  21.896  18.393   2.312
47522W        W15916   8.842  12.074   3.141
47523W        W15917  37.307  31.416   4.289
47524W        W15918  17.708  24.695   0.945
47525W        W15919  35.599  18.566   5.119
47526W        W15920  15.127  13.837   3.929
47527W        W15921   6.722  17.368  14.548
47528W        W15922  24.245   2.766  12.982
47529W        W15923  16.315  15.149  13.499
47530W        W15924   9.196   2.223  10.119
47531W        W15925  19.314  23.900  11.387
47532W        W15926  41.894  44.369   0.426
47533W        W15927  32.575  21.711  13.838
47534W        W15928  26.205  13.237   0.338
47535W        W15929  43.282  17.091   2.904
47536W        W15930  25.266  11.882  12.621
47537W        W15931  34.559  11.916   0.548
47538W        W15932   5.590  16.403  11.930
47539W        W15933  14.186   0.522  11.266
47540W        W15934   4.723  20.297  10.655
47541W        W15935  34.847  26.018   0.400
47542W        W15936   7.206  32.008   3.306
47543W        W15937  10.501  37.620   5.245
47544W        W15938  30.017  31.868   0.250
47545W        W15939  38.502  30.989   2.268
47546W        W15940  42.957  17.057  14.329
47547W        W15941  33.639  14.698  12.548
47548W        W15942  35.193  34.964  10.624
47549W        W15943  27.298   0.967   4.574
47550W        W15944  26.221  26.172  11.672
47551W        W15945   0.015   2.355   2.181
47552W        W15946   6.224  42.563   2.236
47553W        W15947   3.585  38.156   1.817
47554W        W15948  27.283   0.857   3.181
47555W        W15949  19.866  37.111  10.030
47556W        W15950  43.555   1.755   0.252
47557W        W15951  40.554  36.290   2.521
47558W        W15952  16.887   8.183   0.788
47559W        W15953  44.776  34.641   2.312
47560W        W15954  32.670  36.857  10.610
47561W        W15955  15.133   7.209   1.331
47562W        W15956  41.586  15.903  13.854
47563W        W15957  29.783   7.838   3.608
47564W        W15958   6.326  31.986   0.886
47565W        W15959  32.707  26.196  14.037
47566W        W15960  42.565   3.417  11.478
47567W        W15961  32.068   3.241  13.989
47568W        W15962  29.354  22.080   3.322
47569W        W15963  11.356  11.737  13.465
47570W        W15964  26.270  44.267  10.952
47571W        W15965   9.267   8.298   4.605
47572W        W15966  23.083  12.371   0.303
47573W        W15967  15.296  36.500  11.066
47574W        W15968  39.326   8.417   1.761
47575W        W15969  27.477  23.181  13.253
47576W        W15970   7.394  14.564   3.624
47577W        W15971  40.301  35.811  12.617
47578W        W15972   8.486  31.275   0.712
47579W        W15973  44.869  23.522  14.544
47580W        W15974  17.701  14.684  10.518
47581W        W15975  30.431  44.320  11.939
47582W        W15976  19.065  21.010  12.395
47583W        W15977   9.832  31.490   1.325
47584W        W15978  33.243  22.040  12.125
47585W        W15979  15.688  38.767   0.309
47586W        W15980   2.837   4.147   1.673
47587W        W15981  25.602  25.089  10.627
47588W        W15982  23.774   8.959   3.082
47589W        W15983  37.473   0.068  12.747
47590W        W15984   1.728  33.460   3.069
47591W        W15985  25.875   8.266  12.412
47592W        W15986  34.067   8.715  11.564
47593W        W15987  24.733  41.510   1.520
47594W        W15988  39.352  29.493  13.916
47595W        W15989   8.993  41.443   0.560
47596W        W15990   6.249   8.216   4.672
47597W        W15991  18.508  26.934  14.474
47598W        W15992  16.602  35.992  13.322
47599W        W15993  43.593  29.065   3.375
47600W        W15994  25.631  12.564  13.031
47601W        W15995  13.160   4.022   0.379
47602W        W15996  17.730  36.951   9.988
47603W        W15997  35.613  37.086  11.291
47604W        W15998  41.137  38.378  12.134
47605W        W15999  42.000  33.355  13.062
47606W        W16000  17.134  14.244   4.307
47607W        W16001  30.258  18.303  12.115
47608W        W16002  21.797  24.756  14.995
47609W        W16003   9.597  30.898  11.967
47610W        W16004  19.692   4.247  11.766
47611W        W16005  31.246  10.793   2.735
47612W        W16006  42.288  32.909   4.510
47613W        W16007   7.755  22.134   5.274
47614W        W16008   9.496  41.282   3.222
47615W        W16009  23.132  22.300   3.541
47616W        W16010  21.450  15.638   2.332
47617W        W16011  22.187  24.690   1.680
47618W        W16012   8.344  14.314   1.768
47619W        W16013  43.985  22.502  12.175
47620W        W16014  33.004  11.338   1.521
47621W        W16015   7.287  35.959   4.179
47622W        W16016  38.774   1.814  11.273
47623W        W16017  32.308   4.243   3.083
47624W        W16018  27.384   0.029   3.681
47625W        W16019  40.843   3.226   2.921
47626W        W16020  21.726  40.907   1.649
47627W        W16021  18.998  36.661   4.758
47628W        W16022  26.548   0.055  12.878
47629W        W16023  31.557  25.530  13.249
47630W        W16024   8.415  13.771   0.097
47631W        W16025  23.860  31.353  14.270
47632W        W16026  16.676  24.243   0.394
47633W        W16027  42.832  33.403  14.221
47634W        W16028  15.225  43.856   0.562
47635W        W16029   3.023  26.655   0.773
47636W        W16030   5.206   3.407   1.036
47637W        W16031  27.552  27.594  12.404
47638W        W16032  24.670  44.713   1.747
47639W        W16033  30.271   9.876  10.565
47640W        W16034  27.100  30.727  10.986
47641W        W16035  41.847  33.405   0.832
47642W        W16036  21.005  11.569   4.328
47643W        W16037  25.798   0.312  10.611
47644W        W16038  25.696  33.927  13.482
47645W        W16039  10.817  19.194   0.274
47646W        W16040  32.264  40.679   1.001
47647W        W16041  23.541  13.980  12.567
47648W        W16042  11.898  32.354   4.093
47649W        W16043  39.902  27.768   2.712
47650W        W16044   2.223  12.663   0.303
47651W        W16045   3.343  44.189  14.950
47652W        W16046  39.502  22.128  13.911
47653W        W16047  30.442  25.668  12.837
47654W        W16048  19.358  21.739  13.538
47655W        W16049  10.391   1.233  14.638
47656W        W16050  11.292   2.259   0.568
47657W        W16051  36.770  36.538  14.231
47658W        W16052  43.392  18.307  11.205
47659W        W16053  19.491  35.270   3.648
47660W        W16054  21.740  42.801  12.720
47661W        W16055  39.859   7.778   3.853
47662W        W16056   2.949  11.171   1.795
47663W        W16057  26.538  32.159   0.254
47664W        W16058  40.209  33.586   3.598
47665W        W16059   3.651  42.803  12.239
47666W        W16060  34.471  19.421   3.186
47667W        W16061  16.817  39.880   2.912
47668W        W16062  27.926  35.524   4.582
47669W        W16063  33.693  31.245   0.001
47670W        W16064  24.746  40.429   2.881
47671W        W16065  34.001  30.016   3.298
47672W        W16066  22.675  27.874  12.533
47673W        W16067  40.021  42.602   1.420
47674W        W16068  22.654  17.720   0.176
47675W        W16069  35.817  29.211  11.131
47676W        W16070   5.357  14.815  12.083
47677W        W16071  17.543  36.020  12.898
47678W        W16072  28.097  24.902  13.186
47679W        W16073  18.431  36.215  12.619
47680W        W16074  21.069  44.315   3.248
47681W        W16075  31.362  12.775   2.269
47682W        W16076  35.604   0.264  12.897
47683W        W16077  35.681   3.556  11.919
47684W        W16078  39.034  37.055  13.849
47685W        W16079  30.712   6.970  14.730
47686W        W16080  32.233  16.686  10.253
47687W        W16081  22.730  34.600   3.796
47688W        W16082  44.269  18.034   0.440
47689W        W16083  42.040  25.455  13.884
47690W        W16084  31.933  14.356  14.448
47691W        W16085  12.822  29.446  11.701
47692W        W16086   0.035  39.434   1.797
47693W        W16087   6.326  38.857  14.969
47694W        W16088  28.740  34.798   0.152
47695W        W16089  32.633  38.592  14.889
47696W        W16090  43.155  40.892   1.857
47697W        W16091  31.864  12.146  14.935
47698W        W16092  20.006   7.403   1.276
47699W        W16093  23.241  18.305   1.715
47700W        W16094  42.435   9.834   2.870
47701W        W16095  30.937  43.319   3.213
47702W        W16096   4.853   8.196   0.840
47703W        W16097  10.707  42.645  11.570
47704W        W16098  27.528   2.626   1.567
47705W        W16099  38.181  18.095   3.859
47706W        W16100  36.879  38.379  11.445
47707W        W16101  35.587  22.779  13.785
47708W        W16102  34.368  20.736  11.669
47709W        W16103  40.854  20.111  10.505
47710W        W16104   1.803  27.310  14.178
47711W        W16105  13.162   4.812   2.404
47712W        W16106  27.775  15.727   0.396
47713W        W16107   0.899  37.026  12.551
47714W        W16108   0.305   3.793   1.804
47715W        W16109  17.368  27.650  13.929
47716W        W16110  41.145  39.163  14.486
47717W        W16111  36.770  25.153  14.857
47718W        W16112  11.685  36.747   2.847
47719W        W16113  21.177  23.285  11.102
47720W        W16114  24.119  34.552  12.849
47721W        W16115  39.493  35.040  10.661
47722W        W16116  39.008  36.757  11.048
47723W        W16117  12.751   3.169  10.509
47724W        W16118  29.731  44.730   5.009
47725W        W16119  26.111  31.016  13.794
47726W        W16120  11.029  15.017   4.414
47727W        W16121   2.376  36.931  11.177
47728W        W16122  39.351   9.615  12.071
47729W        W16123   7.793  33.289   2.931
47730W        W16124   5.711  18.750   3.128
47731W        W16125  36.134  12.591  13.942
47732W        W16126  39.465  16.499   4.632
47733W        W16127  14.763  16.137   4.706
47734W        W16128  18.019  27.929  12.144
47735W        W16129  23.187   9.409  14.364
47736W        W16130   7.761  22.123  10.748
47737W        W16131  37.903   4.235   3.801
47738W        W16132  14.808  41.417  14.467
47739W        W16133   2.707   0.669  12.550
47740W        W16134   9.434  17.322  13.953
47741W        W16135  43.028  28.136   2.885
47742W        W16136  38.032  23.928  13.489
47743W        W16137  38.575  16.428   0.380
47744W        W16138   0.886  44.211  11.200
47745W        W16139   6.547  30.483   2.444
47746W        W16140  36.123  44.987   3.249
47747W        W16141  27.447   2.575  11.214
47748W        W16142  21.150  12.204   4.645
47749W        W16143  30.971  29.923   1.266
47750W        W16144  29.552  35.543   3.915
47751W        W16145  35.378  29.613   3.375
47752W        W16146  30.137  31.044  11.889
47753W        W16147  16.779  31.621  12.095
47754W        W16148  18.334  16.252  12.626
47755W        W16149  34.817  20.352  11.202
47756W        W16150  22.404  17.552  10.275
47757W        W16151  44.340   4.555  14.069
47758W        W16152  16.666   5.341   3.751
47759W        W16153  12.182  20.074  14.912
47760W        W16154   7.754  16.845  13.129
47761W        W16155  16.022   3.912   0.455
47762W        W16156  33.954   6.402  13.850
47763W        W16157  20.497  39.877   0.838
47764W        W16158   7.292  44.390   3.726
47765W        W16159  15.266  10.200  10.766
47766W        W16160  20.114   3.218  12.364
47767W        W16161  19.868   1.959   1.925
47768W        W16162  19.003  11.218   1.636
47769W        W16163  27.100  32.876   3.490
47770W        W16164   5.898  12.178   4.205
47771W        W16165   0.840  41.398  14.307
47772W        W16166  12.135  33.278  11.618
47773W        W16167  25.413   1.672   4.577
47774W        W16168  24.461  18.596  12.844
47775W        W16169  39.867  42.783   3.910
47776W        W16170   5.644  26.049   1.410
47777W        W16171   9.014  25.621   5.151
47778W        W16172  32.015  34.193  12.062
47779W        W16173  32.660  35.969   2.336
47780W        W16174  39.943   2.754  14.876
47781W        W16175  23.581  19.597   1.314
47782W        W16176  36.198   6.452   0.804
47783W        W16177  11.718   0.402   1.911
47784W        W16178  26.122  12.488  14.297
47785W        W16179  36.089  15.757  13.351
47786W        W16180   7.726   1.735   2.880
47787W        W16181   9.927   6.505  11.262
47788W        W16182  43.375  25.779  12.067
47789W        W16183  22.261  41.468   4.106
47790W        W16184  35.866  32.626  14.274
47791W        W16185   5.012  42.870   5.039
47792W        W16186  40.975  13.531   3.114
47793W        W16187  37.640  37.408  13.306
47794W        W16188   4.754  31.591  12.234
47795W        W16189  41.279  29.533  14.829
47796W        W16190  41.766  43.833   0.596
47797W        W16191  18.280  32.742  11.460
47798W        W16192   9.339  15.814   1.821
47799W        W16193  11.411  42.765  10.929
47800W        W16194  32.683   4.233   4.652
47801W        W16195   8.170  15.234   3.319
47802W        W16196  30.589   4.397   1.250
47803W        W16197  41.833  10.417   1.845
47804W        W16198  30.551  13.578  11.555
47805W        W16199  44.435  39.461   4.478
47806W        W16200   2.202   7.913   4.764
47807W        W16201  11.304  34.500  13.982
47808W        W16202  35.146   4.567  10.721
47809W        W16203  25.986  44.082  13.734
47810W        W16204  31.676  32.890  12.006
47811W        W16205   1.853  38.379   2.836
47812W        W16206  22.787  21.692   2.789
47813W        W16207  40.278  31.373   1.277
47814W        W16208  16.211   8.923  14.760
47815W        W16209   3.134  40.146  13.388
47816W        W16210  19.685  41.477  11.013
47817W        W16211  28.152  25.371   4.557
47818W        W16212  41.634  22.218  14.872
47819W        W16213  43.159  35.703  11.506
47820W        W16214  31.611  30.128  12.428
47821W        W16215  41.398  43.961   1.544
47822W        W16216   9.701  44.379   3.335
47823W        W16217  11.775   6.198   3.860
47824W        W16218  29.080  22.446  12.325
47825W        W16219  30.934   9.733  12.988
47826W        W16220  12.812  18.243   3.188
47827W        W16221  11.815   7.175  13.717
47828W        W16222   9.750   8.186   4.782
47829W        W16223   5.075   2.823   0.398
47830W        W16224  17.554  39.911  11.563
47831W        W16225  40.505  14.461   0.840
47832W        W16226   3.860  33.603  12.123
47833W        W16227  30.046  20.412  12.986
47834W        W16228  37.994  20.900   1.854
47835W        W16229   4.669  30.624   2.160
47836W        W16230   9.729  24.491  10.556
47837W        W16231  17.234  32.761  14.655
47838W        W16232  24.535  27.369   0.055
47839W        W16233  15.948  31.804   4.091
47840W        W16234  11.215   7.729   1.359
47841W        W16235   6.713  42.516   4.642
47842W        W16236  26.183  36.855   4.102
47843W        W16237  18.772  15.162  14.436
47844W        W16238   3.554   2.106  13.788
47845W        W16239  14.160  13.626   0.326
47846W        W16240  12.108  23.601  12.031
47847W        W16241  30.213   9.253   0.004
47848W        W16242   3.839  25.940  13.787
47849W        W16243  42.629   9.215  13.401
47850W        W16244  39.333   2.506   4.079
47851W        W16245  29.925  40.552   4.752
47852W        W16246  35.590  42.489   0.047
47853W        W16247   8.336  43.894  12.036
47854W        W16248   9.847   6.303  10.780
47855W        W16249  29.500  14.082   1.257
47856W        W16250   7.399  21.706   0.830
47857W        W16251  44.689   7.333   3.557
47858W        W16252  37.495  28.431   2.379
47859W        W16253  23.588  44.954   3.583
47860W        W16254  29.566  26.603  14.086
47861W        W16255  21.922  36.877  10.803
47862W        W16256  26.061  21.075   2.834
47863W        W16257  21.920  33.744  11.098
47864W        W16258  32.681  16.100  13.883
47865W        W16259  31.166   3.273  14.776
47866W        W16260  40.270  13.834   4.677
47867W        W16261  34.928  36.531  12.449
47868W        W16262  15.744  30.417  11.658
47869W        W16263  17.628  32.884   3.720
47870W        W16264  31.554  43.801   3.817
47871W        W16265  13.062  37.986  14.977
47872W        W16266  17.797  31.119   2.799
47873W        W16267  35.932  21.515  10.775
47874W        W16268  38.539  44.784   3.532
47875W        W16269  43.739  24.147  14.410
47876W        W16270  43.457  42.990  13.910
47877W        W16271  39.829  24.511   3.715
47878W        W16272  39.043   1.062  11.593
47879W        W16273  21.133  18.785   1.847
47880W        W16274  14.762  40.802  13.953
47881W        W16275  17.765   0.806  12.266
47882W        W16276   7.853  43.287  11.086
47883W        W16277  15.943  21.208   2.834
47884W        W16278  28.811  41.334  12.699
47885W        W16279  19.748  11.354   3.745
47886W        W16280   1.712  25.617  11.043
47887W        W16281  24.974   7.678  14.579
47888W        W16282  31.834  18.010   0.863
47889W        W16283   1.261  10.741   0.477
47890W        W16284  36.428  41.307   2.798
47891W        W16285  42.427  31.481   1.742
47892W        W16286  12.769  40.742  12.558
47893W        W16287  25.832   4.301   1.683
47894W        W16288  19.383   5.799   1.767
47895W        W16289  39.584  23.930  14.352
47896W        W16290  16.298   3.730   0.888
47897W        W16291  23.560   0.838   3.199
47898W        W16292  41.321  22.922   5.014
47899W        W16293  44.853  14.108  14.955
47900W        W16294  11.874  19.225  10.823
47901W        W16295  21.217   2.513   3.707
47902W        W16296   0.938  24.664  14.997
47903W        W16297   8.641  27.582   2.367
47904W        W16298  11.714  11.751  11.422
47905W        W16299   7.197  21.189   4.293
47906W        W16300  37.959  21.987   2.748
47907W        W16301  33.379  37.425  12.789
47908W        W16302  37.059  23.271  14.811
47909W        W16303  11.144  30.456  11.067
47910W        W16304  21.313  33.195  11.545
47911W        W16305  31.450  41.083   4.641
47912W        W16306  26.486  19.959  11.679
47913W        W16307  22.226   8.545   2.638
47914W        W16308  43.024   9.173   3.408
47915W        W16309  19.057   7.707   3.691
47916W        W16310  23.066   6.496  10.681
47917W        W16311   5.379  25.081   4.023
47918W        W16312  41.270  24.959   1.599
47919W        W16313   8.640   6.530   0.342
47920W        W16314  23.538  30.548  13.762
47921W        W16315   1.325   1.010  11.927
47922W        W16316   8.932  16.764  14.184
47923W        W16317  21.740  22.744   1.005
47924W        W16318   5.913  21.066  11.180
47925W        W16319  20.211  18.271   0.057
47926W        W16320  16.749  20.505  10.515
47927W        W16321  10.023   1.698   2.348
47928W        W16322  26.610   3.877   0.487
47929W        W16323  28.150  41.397   2.358
47930W        W16324   2.856  14.884  12.025
47931W        W16325  11.980  24.543  14.038
47932W        W16326  23.950  15.187   3.772
47933W        W16327  35.166  43.457   4.983
47934W        W16328   2.330  35.331  14.510
47935W        W16329  37.888   5.347   0.878
47936W        W16330   1.959  11.891  13.526
47937W        W16331  36.509  22.007   1.648
47938W        W16332  27.460  15.019  14.853
47939W        W16333  13.368   2.824  11.552
47940W        W16334   5.757   0.562   1.046
47941W        W16335   4.348  42.813   0.289
47942W        W16336  40.749  44.774   0.751
47943W        W16337  10.281  31.475  12.321
47944W        W16338  43.489  24.425   2.439
47945W        W16339  22.883  44.216   3.647
47946W        W16340  43.492  10.245  14.504
47947W        W16341  24.247   9.884   3.653
47948W        W16342   9.258  43.036   1.063
47949W        W16343  30.353   6.333   1.308
47950W        W16344  23.142  12.682   2.780
47951W        W16345  30.397   8.893   2.786
47952W        W16346  39.999  42.069  12.465
47953W        W16347  24.135   5.223  14.260
47954W        W16348  20.269  21.642   4.217
47955W        W16349   0.628  43.644  14.945
47956W        W16350  37.421   8.189  12.380
47957W        W16351   9.609  34.502   0.225
47958W        W16352  17.408  22.922  12.773
47959W        W16353  39.053  26.237   3.210
47960W        W16354  28.315  38.686  10.331
47961W        W16355  30.434  40.794  12.424
47962W        W16356  25.296  33.842  12.090
47963W        W16357  28.437  24.913   0.966
47964W        W16358  10.366  28.339  12.970
47965W        W16359  11.460  21.047   0.503
47966W        W16360  27.896  13.832  13.589
47967W        W16361  26.070  14.991   3.195
47968W        W16362  26.756  17.578   1.726
47969W        W16363  22.736  12.697   1.296
47970W        W16364  36.579  13.513   0.745
47971W        W16365  16.559  43.879   3.832
47972W        W16366  26.673  42.402  12.099
47973W        W16367  35.825  19.286  12.021
47974W        W16368  43.355  30.855   4.860
47975W        W16369   0.559  17.177  14.785
47976W        W16370  14.535  23.143   0.865
47977W        W16371   6.447   6.942  10.568
47978W        W16372   3.380   9.848  13.979
47979W        W16373  28.098   9.784   3.057
47980W        W16374  29.358   5.184  10.734
47981W        W16375  38.758  21.014  12.565
47982W        W16376  24.271  34.869  12.007
47983W        W16377  19.236  19.777   3.131
47984W        W16378   0.841  26.172  12.043
47985W        W16379  15.636  43.015   4.570
47986W        W16380   1.446  11.314   1.168
47987W        W16381  36.605  42.827  12.617
47988W        W16382   9.173   4.315  13.212
47989W        W16383   1.196  29.100  11.693
47990W        W16384  25.530   1.091  12.596
47991W        W16385  39.728  13.724   2.620
47992W        W16386   6.592  28.653  11.944
47993W        W16387  22.751   2.521  14.020
47994W        W16388   1.671  26.116  12.708
47995W        W16389  24.717  20.249  12.101
47996W        W16390  39.859  25.071   4.735
47997W        W16391  12.304  19.761  11.543
47998W        W16392  17.732  14.671   4.520
47999W        W16393  24.016  35.549  11.656
48000W        W16394   0.857   9.128   2.694
48001W        W16395  16.865  32.323   2.471
48002W        W16396  23.467  14.759  11.552
48003W        W16397  11.563  17.364   5.004
48004W        W16398  32.512  39.439   3.161
48005W        W16399   3.651  18.126  14.120
48006W        W16400  13.454  40.413  11.841
48007W        W16401  41.010  31.977  10.685
48008W        W16402  27.078  18.528  10.757
48009W        W16403  22.186  18.490   2.750
48010W        W16404  41.540  14.654   3.219
48011W        W16405  15.833  25.363  12.510
48012W        W16406  27.915  33.393  11.563
48013W        W16407   2.912  19.847   1.841
48014W        W16408   8.718  15.769   4.889
48015W        W16409  43.868  16.943   2.085
48016W        W16410  28.234  42.785  11.590
48017W        W16411  34.377   7.392  13.411
48018W        W16412  17.259   2.849   2.748
48019W        W16413  16.053   5.917  11.924
48020W        W16414  17.008  21.657   4.195
48021W        W16415  15.349   5.035   5.449
48022W        W16416  28.074   1.850   1.121
48023W        W16417  21.666  27.718  10.370
48024W        W16418   5.770   3.567  13.290
48025W        W16419  10.401  27.480   0.704
48026W        W16420  39.410   5.645   0.477
48027W        W16421   3.698  42.048  14.406
48028W        W16422   5.679  12.548  10.400
48029W        W16423  12.341   2.701  13.053
48030W        W16424   2.751  44.077   1.160
48031W        W16425  31.632  29.550  10.589
48032W        W16426  29.752  30.463   5.192
48033W        W16427   6.364  20.498   0.513
48034W        W16428  18.106   9.182   3.330
48035W        W16429  14.797  30.609   0.772
48036W        W16430  36.283  40.409  11.584
48037W        W16431  10.726  27.812   1.225
48038W        W16432  41.879   9.172  12.607
48039W        W16433  34.435   9.308  11.621
48040W        W16434   9.350  33.173  14.268
48041W        W16435  16.031  41.452  13.806
48042W        W16436   6.776  15.700  11.879
48043W        W16437  18.236  39.589  11.857
48044W        W16438  31.129  16.759   0.814
48045W        W16439  33.538  18.728   1.689
48046W        W16440  39.106  36.868   2.612
48047W        W16441  27.137  38.066  12.586
48048W        W16442  41.562  27.142   3.303
48049W        W16443   0.556   0.911  12.641
48050W        W16444  30.999  31.693  14.147
48051W        W16445  27.466  29.403   2.285
48052W        W16446  17.349   7.627   1.758
48053W        W16447  26.994  14.017   2.339
48054W        W16448  26.886  42.383  14.016
48055W        W16449  39.634  16.149  14.510
48056W        W16450  19.999   8.247   0.762
48057W        W16451  34.397  19.210  12.916
48058W        W16452  42.073  37.476   3.738
48059W        W16453  20.387  30.063  10.092
48060W        W16454  17.423   0.471  14.930
48061W        W16455   2.702  18.788   0.833
48062W        W16456  27.478   2.691   2.094
48063W        W16457  39.961   2.886   4.637
48064W        W16458  43.785  19.686  14.478
48065W        W16459  34.892  37.045  12.484
48066W        W16460  19.253  38.059  14.866
48067W        W16461  26.781  25.179  13.385
48068W        W16462   2.753  37.731   1.406
48069W        W16463  37.569  20.042   3.402
48070W        W16464  38.139  19.185  13.744
48071W        W16465   5.356  12.920   1.542
48072W        W16466  44.249   8.784  12.354
48073W        W16467  10.839  30.334   2.161
48074W        W16468  16.054  35.964   1.453
48075W        W16469  44.563  40.268   5.006
48076W        W16470  28.303  13.682  12.644
48077W        W16471  32.419  28.386   2.266
48078W        W16472   4.928   9.113   0.489
48079W        W16473   4.744  16.189  12.942
48080W        W16474  26.520  12.278   4.127
48081W        W16475  10.425  10.729   3.268
48082W        W16476  41.788  36.480   0.207
48083W        W16477   3.834   7.399  14.422
48084W        W16478   9.772  43.407  14.584
48085W        W16479  36.841  29.215  11.851
48086W        W16480  24.771   5.422  10.342
48087W        W16481  22.771   3.402   3.530
48088W        W16482  43.241  24.948   1.690
48089W        W16483  26.555  38.552   0.248
48090W        W16484  26.821  42.021  10.399
48091W        W16485  23.975  31.948   1.265
48092W        W16486  15.953   7.072  14.054
48093W        W16487   6.057  42.390   1.295
48094W        W16488  13.410  22.988   3.760
48095W        W16489  35.006   3.953  12.647
48096W        W16490  39.180   0.753  13.957
48097W        W16491   5.129   1.337  10.496
48098W        W16492  13.210  29.209   4.863
48099W        W16493  24.386   4.684   5.009
48100W        W16494  14.706  14.681   0.506
48101W        W16495  28.103  34.511   1.806
48102W        W16496  13.219  21.480   4.526
48103W        W16497   1.466  28.442   0.720
48104W        W16498   4.349  14.412  12.959
48105W        W16499  43.356  20.810   3.227
48106W        W16500   6.706  41.760  13.416
48107W        W16501  17.308  29.726   1.710
48108W        W16502  10.362  20.423  13.761
48109W        W16503   6.294   8.861  10.656
48110W        W16504  22.802  24.156   0.402
48111W        W16505   4.195   3.337   1.875
48112W        W16506   1.794  23.721   1.384
48113W        W16507  14.318   8.285  11.779
48114W        W16508  44.621   8.136   1.171
48115W        W16509  24.297  43.478   2.717
48116W        W16510  38.575  39.981   1.452
48117W        W16511   3.815  20.254  12.651
48118W        W16512  16.031   3.201  11.656
48119W        W16513  28.571  35.045  11.387
48120W        W16514  27.174   5.635  12.881
48121W        W16515  24.733  30.873  11.619
48122W        W16516  27.155   8.802  13.554
48123W        W16517  32.415   4.231  11.610
48124W        W16518  12.115  19.220   1.716
48125W        W16519  43.882  26.909   3.738
48126W        W16520  37.817   3.544   1.527
48127W        W16521  18.006  25.655   2.635
48128W        W16522  11.727  29.374   4.050
48129W        W16523  37.898  21.034   2.351
48130W        W16524  44.406  20.874  10.927
48131W        W16525  29.615  12.641   2.636
48132W        W16526  34.842  29.110   4.084
48133W        W16527  31.637  22.726  13.551
48134W        W16528   1.503   0.281   3.834
48135W        W16529  32.458  22.630   2.359
48136W        W16530   4.248  44.048  14.956
48137W        W16531  23.015  39.401   0.357
48138W        W16532   7.962  10.299   3.225
48139W        W16533  43.029  25.836  14.011
48140W        W16534  43.974  39.919   3.329
48141W        W16535  34.530  42.849  10.940
48142W        W16536  24.544  20.815  11.038
48143W        W16537  41.957  19.618   3.279
48144W        W16538   9.319  15.619  10.302
48145W        W16539  20.957   8.886   3.745
48146W        W16540  17.751  31.187  11.301
48147W        W16541   5.390  38.780  12.158
48148W        W16542   3.445  41.584   4.250
48149W        W16543   9.808  21.527  14.563
48150W        W16544   8.642   3.319  11.510
48151W        W16545   5.045  19.576   3.590
48152W        W16546  19.769  33.818  14.297
48153W        W16547   9.437  14.565   2.469
48154W        W16548  33.823  14.168   3.818
48155W        W16549  16.183  34.598   0.991
48156W        W16550  29.664  11.284   4.753
48157W        W16551  34.105  13.771  14.279
48158W        W16552  39.802  29.301   2.677
48159W        W16553  22.131   5.847   2.210
48160W        W16554  43.793  29.947   2.448
48161W        W16555   7.315  28.620   4.418
48162W        W16556  33.302  17.969  10.074
48163W        W16557   1.016  43.262   2.870
48164W        W16558  35.366  38.740   3.563
48165W        W16559   1.958  10.635  13.156
48166W        W16560  10.777  18.621   0.907
48167W        W16561  17.387  43.793   4.113
48168W        W16562  16.614  31.742  11.120
48169W        W16563  38.373  38.125  12.866
48170W        W16564  11.107  30.627  14.308
48171W        W16565  41.121  15.231  13.366
48172W        W16566  40.122  44.669  14.350
48173W        W16567   0.766   8.273   1.196
48174W        W16568  14.056   8.329   3.729
48175W        W16569  28.969   2.160  14.049
48176W        W16570  21.066   0.863   4.171
48177W        W16571  13.050  22.160  13.510
48178W        W16572  37.919   4.335  10.842
48179W        W16573   3.259  35.811   2.760
48180W        W16574  41.248  22.622   2.250
48181W        W16575  36.913  38.360  13.456
48182W        W16576  40.030  15.225  11.927
48183W        W16577  24.877   6.844  14.866
48184W        W16578  35.462  38.476   2.610
48185W        W16579  19.250  17.243  12.385
48186W        W16580  32.601  16.842  10.586
48187W        W16581  13.850  33.633   3.169
48188W        W16582   6.439  44.655   3.571
48189W        W16583   0.275  15.855  11.170
48190W        W16584  27.646  14.333  10.686
48191W        W16585   3.008  40.346   2.861
48192W        W16586  33.625  23.573   3.662
48193W        W16587  33.851  37.114  11.035
48194W        W16588  25.166  34.418  10.984
48195W        W16589  41.832  28.127   2.756
48196W        W16590  16.240  18.817   4.662
48197W        W16591   1.001  39.262  10.866
48198W        W16592   6.208  41.738  10.624
48199W        W16593  10.635  29.061   2.713
48200W        W16594  24.867   5.740  13.595
48201W        W16595  29.666  33.702  12.711
48202W        W16596  28.241  39.883  10.736
48203W        W16597   2.814   7.396  14.522
48204W        W16598   1.800  30.173   1.674
48205W        W16599  36.652  31.217   0.127
48206W        W16600  41.523  25.003  12.079
48207W        W16601  41.020  29.114   0.024
48208W        W16602  10.671  14.773  12.496
48209W        W16603   0.222   8.625   4.877
48210W        W16604  41.851  16.430   2.363
48211W        W16605  43.326  40.345   4.147
48212W        W16606  42.993  29.135  13.495
48213W        W16607  29.106  20.835  13.483
48214W        W16608   2.145  34.807   4.987
48215W        W16609  28.019  27.404  13.423
48216W        W16610   1.743  26.544   3.681
48217W        W16611   3.719   5.801   4.631
48218W        W16612  33.300  33.183  12.092
48219W        W16613  44.061  41.005   4.242
48220W        W16614  26.510  24.676  11.059
48221W        W16615  10.393  25.481   5.086
48222W        W16616  27.524  34.059  13.285
48223W        W16617   8.870  42.974   3.882
48224W        W16618  17.003  22.050   2.953
48225W        W16619  23.956  35.115   0.499
48226W        W16620  28.695  42.119  10.671
48227W        W16621  25.100  37.555   1.869
48228W        W16622  25.430  41.200  13.910
48229W        W16623   6.949  25.601   1.238
48230W        W16624  13.639  11.741   4.202
48231W        W16625   9.888  15.217   2.135
48232W        W16626  27.866  27.410  14.343
48233W        W16627  10.537  24.737   3.234
48234W        W16628   9.310   4.637   4.533
48235W        W16629  39.542  36.892   1.102
48236W        W16630  32.560  10.140   1.725
48237W        W16631  41.850  41.525  12.559
48238W        W16632  12.213  30.943  14.639
48239W        W16633   6.386  19.304  10.809
48240W        W16634  42.416  22.681  13.079
48241W        W16635  21.056  39.243   1.336
48242W        W16636  12.260  37.717   3.786
48243W        W16637  10.229  27.770   3.764
48244W        W16638   0.540  10.984   2.963
48245W        W16639  41.471   0.672  11.506
48246W        W16640  42.506  23.408  12.601
48247W        W16641  36.139   7.836  11.694
48248W        W16642   2.623   0.805   3.608
48249W        W16643  15.886  14.624  14.489
48250W        W16644  23.750  29.433   2.046
48251W        W16645  17.052  44.353  10.006
48252W        W16646  17.322  36.170  10.134
48253W        W16647  29.285   5.118   3.355
48254W        W16648   0.533  17.634   1.431
48255W        W16649  15.796  33.499  11.547
48256W        W16650  22.711  29.117  14.331
48257W        W16651  23.046   7.086   1.966
48258W        W16652  14.657   1.788  10.806
48259W        W16653  13.819  22.780  11.050
48260W        W16654  25.555  24.293   1.940
48261W        W16655  24.159  43.621   4.539
48262W        W16656  44.936   7.939  14.478
48263W        W16657  11.102  44.279   1.426
48264W        W16658  18.231  29.642   0.436
48265W        W16659  25.899  32.381  14.622
48266W        W16660   2.994  13.767  14.541
48267W        W16661  36.262  28.995  13.807
48268W        W16662   1.834  28.487  11.524
48269W        W16663  35.921  33.505  12.486
48270W        W16664  30.432  39.058  13.904
48271W        W16665   4.037  37.017   0.462
48272W        W16666   5.080   7.947   4.406
48273W        W16667  11.587  15.474   0.381
48274W        W16668  20.717  10.635  10.487
48275W        W16669  34.234  18.625  14.579
48276W        W16670  18.690  38.232  11.615
48277W        W16671  43.376  38.441   4.203
48278W        W16672  32.042  14.134  13.444
48279W        W16673  24.489   6.163   0.358
48280W        W16674  29.138  28.908  13.919
48281W        W16675  20.351  13.677   4.009
48282W        W16676  39.125  36.453  13.390
48283W        W16677  41.312  22.282  13.508
48284W        W16678  21.808  42.381  11.143
48285W        W16679   8.606  35.563   3.988
48286W        W16680   0.375  42.692  10.759
48287W        W16681  39.720  33.815   3.566
48288W        W16682   4.761  11.697  11.562
48289W        W16683  38.313  29.548   3.716
48290W        W16684  29.393  10.122  12.213
48291W        W16685   4.899  37.381  14.379
48292W        W16686   4.176  12.708   0.833
48293W        W16687  29.510  36.880  10.393
48294W        W16688  38.572   0.851  11.594
48295W        W16689  15.943   7.248   1.915
48296W        W16690   0.413  18.070  14.208
48297W        W16691  25.456  35.408  10.660
48298W        W16692  33.017  10.644   3.246
48299W        W16693  21.887  33.070  11.723
48300W        W16694  19.664  24.995   3.224
48301W        W16695  21.200  26.652   4.648
48302W        W16696  29.232  27.569  11.699
48303W        W16697  24.972   1.521   1.460
48304W        W16698  32.413  30.445  11.596
48305W        W16699   2.304  16.743   0.360
48306W        W16700   1.718  36.720  10.905
48307W        W16701   7.497   9.048  11.122
48308W        W16702   5.426  25.500  14.734
48309W        W16703  13.676   3.927   0.360
48310W        W16704  21.443  28.001   4.532
48311W        W16705   5.161   5.337   4.425
48312W        W16706   5.971  42.749  14.331
48313W        W16707  26.119  39.489   3.084
48314W        W16708  11.339  32.111  12.391
48315W        W16709   8.017   1.900  11.675
48316W        W16710  12.691  39.715   4.144
48317W        W16711  37.950  17.742   4.482
48318W        W16712   4.446  18.731   1.518
48319W        W16713  17.607  42.641   0.407
48320W        W16714   7.172  40.570  14.605
48321W        W16715  40.557  14.632   3.365
48322W        W16716   2.076  27.203   2.167
48323W        W16717   7.912  39.867  11.639
48324W        W16718  41.310  26.001   1.337
48325W        W16719  34.551  42.965  10.429
48326W        W16720  24.190  43.295   3.803
48327W        W16721  40.802  42.745   3.471
48328W        W16722  24.276  14.906  12.032
48329W        W16723  36.451  42.752  12.111
48330W        W16724  28.486  42.556  12.425
48331W        W16725  16.693  31.595   1.775
48332W        W16726  28.739  13.250  13.039
48333W        W16727  36.660  29.059  12.973
48334W        W16728  19.308   6.124   0.598
48335W        W16729  22.444  12.694  11.557
48336W        W16730  11.676  42.066   1.332
48337W        W16731  19.513   9.894   3.056
48338W        W16732  11.526   5.977   1.436
48339W        W16733   1.774  40.847  13.541
48340W        W16734  24.885  40.195   1.453
48341W        W16735  35.334   7.441  12.682
48342W        W16736  42.015  14.762   4.588
48343W        W16737  17.202  44.755   4.383
48344W        W16738  21.566  17.780   0.876
48345W        W16739  12.405  23.708   1.339
48346W        W16740   4.920  14.573  12.377
48347W        W16741  33.269  19.154  11.249
48348W        W16742  27.225  25.400  11.129
48349W        W16743  27.709  39.898   2.388
48350W        W16744  30.384  26.005   4.966
48351W        W16745  13.231  39.847  12.894
48352W        W16746  30.261  38.835  14.344
48353W        W16747  20.216  35.316   1.973
48354W        W16748   6.266  44.753  10.303
48355W        W16749   6.655  14.797  10.754
48356W        W16750  25.593  25.721  12.915
48357W        W16751   5.848   4.930  11.882
48358W        W16752   2.417  29.582  13.946
48359W        W16753  36.630  18.811   3.655
48360W        W16754  40.036  23.687   3.188
48361W        W16755   3.089  19.847  11.714
48362W        W16756  39.038   9.736   1.861
48363W        W16757  25.748  35.937   4.070
48364W        W16758  43.941  19.124   3.336
48365W        W16759  23.853  43.778   0.367
48366W        W16760   2.445   3.856   0.291
48367W        W16761   0.999   0.454  10.321
48368W        W16762  40.922  40.442  12.588
48369W        W16763   0.244  21.971   3.925
48370W        W16764   4.359  35.081   1.243
48371W        W16765   0.533  24.443   3.795
48372W        W16766  26.006  32.601  13.633
48373W        W16767  44.007  10.364  11.603
48374W        W16768  15.779  29.832  10.434
48375W        W16769   6.279   9.986  13.044
48376W        W16770  27.648  27.710   0.183
48377W        W16771   4.254  40.345   0.571
48378W        W16772  31.419   1.251   3.931
48379W        W16773  24.719   8.010  11.514
48380W        W16774  12.093  32.354  14.864
48381W        W16775  25.326   4.456   1.677
48382W        W16776  21.000  38.440  13.110
48383W        W16777   4.861  34.871  14.200
48384W        W16778   9.848  36.130   0.712
48385W        W16779   4.272  35.576   3.560
48386W        W16780  26.568   6.254  11.590
48387W        W16781  21.477  39.558  12.471
48388W        W16782  16.907  44.777  14.442
48389W        W16783  19.700  40.845   3.889
48390W        W16784  32.355  32.336  11.585
48391W        W16785  10.206  10.745   3.734
48392W        W16786  13.657  35.604   3.652
48393W        W16787   2.006   0.461   1.600
48394W        W16788  26.694  38.314  12.475
48395W        W16789   9.221  16.105   1.388
48396W        W16790  10.758   7.717   4.481
48397W        W16791  26.944  19.199  12.056
48398W        W16792  11.243  43.868   0.459
48399W        W16793  34.176  39.038   2.427
48400W        W16794  32.343  19.762   1.033
48401W        W16795   9.852   1.965   0.265
48402W        W16796   5.826  24.313   1.411
48403W        W16797  24.440  25.722  13.929
48404W        W16798  26.231  31.081   2.300
48405W        W16799  22.273  36.019   0.985
48406W        W16800  26.246  40.217   1.260
48407W        W16801  35.638  27.189   0.007
48408W        W16802  42.725  26.068  14.352
48409W        W16803  25.654  34.929  10.608
48410W        W16804  34.406  16.707  13.816
48411W        W16805   8.835  22.644   2.253
48412W        W16806   2.327  37.824  14.469
48413W        W16807  25.018  24.063  11.598
48414W        W16808  32.921  17.197  12.131
48415W        W16809  37.327  24.468  12.189
48416W        W16810   8.285   7.955   0.274
48417W        W16811  40.444  37.057  13.372
48418W        W16812  12.860  12.536  14.365
48419W        W16813  13.121  10.703  14.448
48420W        W16814  13.778  33.485  14.205
48421W        W16815  25.788  43.089   4.868
48422W        W16816  28.605  37.147   4.016
48423W        W16817   5.571  43.687  11.185
48424W        W16818  27.088  35.461  13.410
48425W        W16819  29.864   6.681  10.688
48426W        W16820  29.625  41.464  14.928
48427W        W16821  41.565  10.240   0.205
48428W        W16822   4.955  24.148   1.630
48429W        W16823  43.127   1.366  14.210
48430W        W16824  17.627   1.927   1.372
48431W        W16825  13.263   1.254   3.576
48432W        W16826  26.449   8.306   0.397
48433W        W16827  15.653  11.089  14.200
48434W        W16828  38.044  42.446  13.517
48435W        W16829  37.730  39.375   2.893
48436W        W16830  16.139   4.351  11.186
48437W        W16831   5.228   1.933   1.295
48438W        W16832   4.027   7.826  12.531
48439W        W16833  40.542  14.964   0.919
48440W        W16834   5.128  12.262   3.743
48441W        W16835  24.828  26.126   3.809
48442W        W16836   5.175  16.279  10.640
48443W        W16837  26.907  18.574  12.503
48444W        W16838  35.060  43.077  12.155
48445W        W16839   4.502  15.755  13.979
48446W        W16840   0.233  16.538  13.580
48447W        W16841  26.145   9.518  14.808
48448W        W16842  44.979   3.474   4.520
48449W        W16843  25.150   1.347  14.133
48450W        W16844   9.722  44.294  10.616
48451W        W16845  25.966   2.067  14.602
48452W        W16846   3.080   0.437   0.248
48453W        W16847  43.741   1.605  13.549
48454W        W16848  26.289  43.454  13.408
48455W        W16849  24.979  22.031   3.844
48456W        W16850  27.211  12.149   0.483
48457W        W16851   0.583  41.453   1.957
48458W        W16852  36.068   5.079   2.586
48459W        W16853  38.326  42.853   2.578
48460W        W16854  27.951   1.729  10.260
48461W        W16855   1.935  40.704  13.998
48462W        W16856  17.710  16.526  11.397
48463W        W16857  12.903  29.141   3.258
48464W        W16858  22.559  15.279  13.055
48465W        W16859  19.017   4.313   2.917
48466W        W16860  22.662  28.118   2.490
48467W        W16861  28.526  39.602   3.096
48468W        W16862  28.720  23.428   4.317
48469W        W16863  27.087   2.449   2.631
48470W        W16864  28.631  37.540  11.963
48471W        W16865  12.732  43.463  11.649
48472W        W16866  35.224  30.648  12.604
48473W        W16867  34.005  39.229   4.178
48474W        W16868  38.300   7.378  11.483
48475W        W16869  40.003   3.174  12.986
48476W        W16870  16.209  10.454  10.574
48477W        W16871  15.636  30.312  10.618
48478W        W16872  37.034  10.141   5.012
48479W        W16873  39.876   2.972  14.416
48480W        W16874  36.048  11.308   4.154
48481W        W16875   2.933  20.317  12.556
48482W        W16876  18.204   6.340  12.644
48483W        W16877  22.651   8.727   0.286
48484W        W16878  40.901  34.355   4.028
48485W        W16879  42.699  27.744   2.992
48486W        W16880  38.408  32.983  13.668
48487W        W16881   5.669  33.722   4.576
48488W        W16882   0.018   0.214   4.118
48489W        W16883  23.279  18.191  11.746
48490W        W16884  13.554  31.352   2.961
48491W        W16885  26.218  15.801   3.599
48492W        W16886  43.230  31.497   2.477
48493W        W16887   4.420   9.672   3.751
48494W        W16888  29.207  29.952  12.334
48495W        W16889  19.588  35.402  10.298
48496W        W16890  23.553   1.042  14.209
48497W        W16891  27.459  36.852  11.152
48498W        W16892  44.390  37.761  12.840
48499W        W16893  14.813  42.479  12.551
48500W        W16894  37.001  35.990  11.238
48501W        W16895   3.335  15.183  14.247
48502W        W16896  32.980  31.219  11.212
48503W        W16897  37.944  20.319   5.158
48504W        W16898  38.045   4.661  14.872
48505W        W16899  21.529  37.938   2.085
48506W        W16900  32.928  15.984   4.222
48507W        W16901  37.533  26.848  14.370
48508W        W16902  38.562  27.159  10.362
48509W        W16903  35.988  32.478  12.106
48510W        W16904  34.579  29.265   2.384
48511W        W16905  43.326  32.463   2.459
48512W        W16906  33.295  11.903   2.169
48513W        W16907  36.907  22.331   1.505
48514W        W16908  33.556  40.020   2.345
48515W        W16909  36.304  19.067  12.061
48516W        W16910   2.815  44.520   3.595
48517W        W16911   4.660   6.258  10.195
48518W        W16912  24.822  21.762  10.773
48519W        W16913   5.718  12.105  12.948
48520W        W16914  16.348  30.328   4.112
48521W        W16915  32.421   4.472  11.128
48522W        W16916  41.417  31.146  14.227
48523W        W16917  28.020   5.782   0.310
48524W        W16918  36.748  13.069   4.880
48525W        W16919   5.025  19.612  11.164
48526W        W16920   8.213  19.980  14.873
48527W        W16921  10.103  17.585   4.759
48528W        W16922  15.192   4.800   3.015
48529W        W16923  23.087  14.109  11.628
48530W        W16924  28.966   7.696   3.141
48531W        W16925  28.978  44.232  12.667
48532W        W16926  30.123  40.044  10.990
48533W        W16927  42.819   4.414   4.695
48534W        W16928  40.905  20.338   4.720
48535W        W16929  23.474   1.045   4.149
48536W        W16930  14.692  13.665  14.613
48537W        W16931  11.808  44.061   1.711
48538W        W16932   5.229  21.629  11.016
48539W        W16933   1.886  24.309   3.181
48540W        W16934  25.686  31.775   0.317
48541W        W16935  21.989   6.777   2.392
48542W        W16936   2.434  14.027   0.364
48543W        W16937  11.814  30.572   0.422
48544W        W16938  30.507  23.898   2.699
48545W        W16939  25.417  26.011  12.461
48546W        W16940  38.591  39.590   2.753
48547W        W16941  22.691   2.266  12.405
48548W        W16942  30.155  14.332   1.854
48549W        W16943   9.968  42.526   3.948
48550W        W16944   5.119  30.450   1.866
48551W        W16945   8.786  16.002   1.661
48552W        W16946  29.569   0.032   0.411
48553W        W16947  20.744  42.340   4.375
48554W        W16948   9.098  26.628  13.463
48555W        W16949   0.008  20.409   0.315
48556W        W16950  31.905   8.351  12.077
48557W        W16951  14.866   5.315  14.237
48558W        W16952  21.543   9.811   4.372
48559W        W16953  24.574  20.224   0.704
48560W        W16954  16.079  23.593  13.871
48561W        W16955   0.218  33.093  10.966
48562W        W16956  17.020   9.299  10.721
48563W        W16957   4.264   0.089   0.812
48564W        W16958  31.129  27.215  13.148
48565W        W16959  20.943  39.058  14.793
48566W        W16960  28.668   3.721  14.973
48567W        W16961  24.092  42.719  13.803
48568W        W16962   8.353  27.881  11.394
48569W        W16963  35.960  14.399   3.328
48570W        W16964  31.824  14.151  11.524
48571W        W16965  36.616   3.228   0.793
48572W        W16966  31.138  15.411  10.582
48573W        W16967  35.346  15.097   4.126
48574W        W16968  29.671  36.321   0.879
48575W        W16969   4.017  30.950   2.423
48576W        W16970  13.836  44.581   4.812
48577W        W16971  32.166  26.622  13.744
48578W        W16972  43.285  10.321  11.201
48579W        W16973   9.212  28.318   3.731
48580W        W16974  35.164   6.927  11.764
48581W        W16975  37.062  26.725  14.115
48582W        W16976  28.750   4.634  10.654
48583W        W16977  27.444   5.233   0.766
48584W        W16978  27.664  38.469   0.252
48585W        W16979  44.247  41.797   1.731
48586W        W16980  11.280  12.229   3.207
48587W        W16981  18.816  15.214   0.424
48588W        W16982  42.991   6.666   0.762
48589W        W16983  41.448  23.163   3.789
48590W        W16984  14.259  23.825  11.685
48591W        W16985   0.509  35.565  13.609
48592W        W16986  33.314   9.569   3.093
48593W        W16987  39.688  22.593   3.803
48594W        W16988  25.660   6.151  10.807
48595W        W16989  28.675  21.109  12.829
48596W        W16990  17.450  22.116  12.074
48597W        W16991  12.936  32.855  12.507
48598W        W16992  27.651  44.513  13.171
48599W        W16993  27.650  20.994   0.571
48600W        W16994   3.329   3.854   3.762
48601W        W16995  26.055  35.582  12.568
48602W        W16996   0.758  27.994   0.338
48603W        W16997  38.461  39.393   4.087
48604W        W16998  16.794  14.050   3.662
48605W        W16999  18.102   0.462   2.164
48606W        W17000  15.574  35.400   0.801
48607W        W17001  21.548  21.956  14.201
48608W        W17002  35.983  21.300   1.441
48609W        W17003  23.154  25.643   1.385
48610W        W17004  33.078  38.064  12.999
48611W        W17005  43.132   2.240  14.540
48612W        W17006  35.326  17.864   3.164
48613W        W17007  39.855  26.998   0.204
48614W        W17008  15.195  30.266   3.352
48615W        W17009  20.100  20.098   0.759
48616W        W17010  17.547  40.783  14.273
48617W        W17011   5.938  35.087  12.927
48618W        W17012  11.059   0.871   2.281
48619W        W17013   5.242   8.693   1.364
48620W        W17014  17.911  26.417   0.486
48621W        W17015  39.576   6.488  14.987
48622W        W17016  25.840  33.373   4.976
48623W        W17017  36.467  41.742  11.003
48624W        W17018  23.407  10.360   2.273
48625W        W17019   6.350  34.104  13.335
48626W        W17020  42.601  11.976  11.941
48627W        W17021   0.742  37.071   4.085
48628W        W17022  36.993  39.318  13.811
48629W        W17023   0.404  31.823   4.435
48630W        W17024  16.684  29.593   2.908
48631W        W17025  20.534  21.302  11.864
48632W        W17026  35.322  31.956  10.653
48633W        W17027  19.092  22.804   1.251
48634W        W17028  43.351  38.503   0.825
48635W        W17029  32.466   8.720   5.070
48636W        W17030  26.541  24.733  13.261
48637W        W17031  43.004  19.404   2.607
48638W        W17032  26.912  43.488  10.931
48639W        W17033  17.137  29.663   4.399
48640W        W17034  41.804  10.471  14.810
48641W        W17035  12.359   2.416  10.710
48642W        W17036  26.701   2.138  10.391
48643W        W17037   3.942  38.320   0.090
48644W        W17038  19.474  32.453  10.815
48645W        W17039  12.818  23.332  12.950
48646W        W17040  43.009  23.086   4.195
48647W        W17041  18.660  36.309  13.566
48648W        W17042  26.924  23.693   0.179
48649W        W17043  22.938  36.166   4.850
48650W        W17044  12.647  28.553   3.244
48651W        W17045  37.266  33.895  13.051
48652W        W17046  34.692  40.822  10.865
48653W        W17047  13.634  31.421  12.910
48654W        W17048  29.192  17.257   1.843
48655W        W17049  44.895  10.616   0.096
48656W        W17050  37.519   1.385   2.732
48657W        W17051   0.551  12.120  14.572
48658W        W17052   3.313  41.276  11.168
48659W        W17053   2.553  13.082  13.741
48660W        W17054  17.309  21.864  13.557
48661W        W17055  23.604  11.581  13.868
48662W        W17056  19.810  34.472   3.327
48663W        W17057  34.329  20.195  11.317
48664W        W17058  38.349  30.470   2.299
48665W        W17059  10.280  41.891   0.998
48666W        W17060  36.982  18.240   2.470
48667W        W17061  20.195  19.023   2.331
48668W        W17062   0.496  37.355   4.843
48669W        W17063   9.402  26.512   4.993
48670W        W17064  23.371  34.347   3.198
48671W        W17065  17.182  22.999  11.162
48672W        W17066  26.634  29.677   3.212
48673W        W17067  28.123  34.449   3.670
48674W        W17068  30.875   0.906  10.744
48675W        W17069  36.082  31.525  13.890
48676W        W17070  40.590  40.671   2.921
48677W        W17071   7.450   2.369  11.035
48678W        W17072  21.243  21.940  13.435
48679W        W17073  33.678  21.186  12.996
48680W        W17074  27.429  34.025   3.234
48681W        W17075  41.608  24.096   2.458
48682W        W17076  35.441  11.893  13.286
48683W        W17077   6.743  31.318   3.282
48684W        W17078   5.761  37.969   0.529
48685W        W17079  16.613   6.033   3.253
48686W        W17080  44.739  18.730   5.056
48687W        W17081  22.533   0.974   0.420
48688W        W17082  33.494   7.839   2.828
48689W        W17083  38.581  34.977   3.142
48690W        W17084  33.083  31.398   1.871
48691W        W17085  38.540   4.805   1.861
48692W        W17086   9.832  25.522  10.623
48693W        W17087  22.308  43.565   1.323
48694W        W17088  41.525  17.229   3.686
48695W        W17089  21.953  33.616  14.059
48696W        W17090  39.295   6.423   1.701
48697W        W17091  30.941  30.686  10.322
48698W        W17092   4.872  37.799  10.725
48699W        W17093   4.878  15.924   0.201
48700W        W17094  11.832  28.602  12.119
48701W        W17095  30.824  11.313   9.929
48702W        W17096  41.037  21.065   3.099
48703W        W17097  29.735   3.739  11.724
48704W        W17098  42.778  14.428  10.604
48705W        W17099   3.970  32.318  12.581
48706W        W17100  40.296  38.876   0.527
48707W        W17101  18.688  34.519  14.892
48708W        W17102  42.500  44.835   1.202
48709W        W17103   7.271  12.631  14.920
48710W        W17104  27.647  44.324   3.301
48711W        W17105   0.687  10.226   4.610
48712W        W17106  34.817   7.345   0.839
48713W        W17107  11.104  30.358   3.562
48714W        W17108  35.742  39.041  12.977
48715W        W17109  25.426  34.638   3.845
48716W        W17110   6.087   6.679  11.818
48717W        W17111   4.873   2.249   2.799
48718W        W17112  37.432  44.503  11.513
48719W        W17113  16.002  29.965  11.434
48720W        W17114   6.457   5.813   3.880
48721W        W17115  42.662   1.274  10.694
48722W        W17116  14.146  12.748   4.730
48723W        W17117  15.652  18.554  10.696
48724W        W17118  35.985  22.813  12.934
48725W        W17119  12.916  34.874  11.957
48726W        W17120  39.946  38.341  14.301
48727W        W17121  14.586  29.690   4.418
48728W        W17122  39.260  32.692  13.621
48729W        W17123  31.027   7.984  12.973
48730W        W17124  11.873   2.938  13.145
48731W        W17125  19.305   7.885  11.588
48732W        W17126  31.531  25.139  11.709
48733W        W17127  15.565  27.990   0.499
48734W        W17128  30.844  22.119  11.185
48735W        W17129  26.183  29.738  14.888
48736W        W17130  43.629  17.192  14.867
48737W        W17131  44.629   0.207  12.311
48738W        W17132   3.114  31.352   4.628
48739W        W17133  42.044  43.891  12.167
48740W        W17134   4.732   5.727   1.780
48741W        W17135  38.813  21.536   1.833
48742W        W17136  10.856  43.063   4.144
48743W        W17137  25.419  25.803   3.245
48744W        W17138  28.688  27.077   4.040
48745W        W17139  14.062   2.881  12.114
48746W        W17140  41.038   9.800  14.212
48747W        W17141  12.919  35.075   0.157
48748W        W17142  25.539  20.195  10.827
48749W        W17143  40.454  37.576  13.381
48750W        W17144   1.277  32.433  13.205
48751W        W17145  10.397  33.332  14.006
48752W        W17146  27.688  27.130  10.692
48753W        W17147   2.484  15.957  10.764
48754W        W17148  10.184  44.424   3.137
48755W        W17149  11.852  40.848  12.380
48756W        W17150  17.114  26.040   3.319
48757W        W17151  10.971  43.233  13.189
48758W        W17152  29.489  37.746   3.706
48759W        W17153   9.339   7.154  10.420
48760W        W17154  27.157  14.110   0.963
48761W        W17155   5.836  20.691  12.452
48762W        W17156  35.799  36.430  14.393
48763W        W17157  14.502  26.567   4.594
48764W        W17158  44.559   1.724   2.482
48765W        W17159  15.609  22.514  10.711
48766W        W17160  16.055   0.489  13.020
48767W        W17161  41.261  19.970   1.136
48768W        W17162  43.301  35.892   1.212
48769W        W17163  11.644  34.583   1.460
48770W        W17164   0.963   7.809   1.314
48771W        W17165  36.106  12.880   3.135
48772W        W17166  30.886   9.901  14.980
48773W        W17167   7.342  27.615   1.358
48774W        W17168  12.677  39.949  11.534
48775W        W17169  31.330  29.053  13.759
48776W        W17170  40.586  13.851   1.296
48777W        W17171  19.583  15.657  11.127
48778W        W17172  22.841  12.092  12.590
48779W        W17173  40.150  36.585   3.435
48780W        W17174  16.621  23.559   3.143
48781W        W17175  16.281  13.541  13.907
48782W        W17176   0.806  16.333   1.256
48783W        W17177  35.977   6.513   4.116
48784W        W17178  26.371  17.598   4.218
48785W        W17179  44.485  41.731   3.696
48786W        W17180  25.028  21.011  11.174
48787W        W17181  41.457  13.279   4.539
48788W        W17182  36.572   2.051  14.500
48789W        W17183  34.074  35.866  12.588
48790W        W17184  23.637  32.054  10.624
48791W        W17185  11.089  36.371  10.906
48792W        W17186  34.364   8.909  11.983
48793W        W17187  28.081  22.512  10.889
48794W        W17188   5.691  12.607  12.453
48795W        W17189  32.364  29.654   3.700
48796W        W17190  39.868  17.702  12.478
48797W        W17191  32.828   1.727   0.888
48798W        W17192   2.653  15.770   1.749
48799W        W17193  23.567  34.981   4.680
48800W        W17194  44.819  39.497  10.318
48801W        W17195  27.409  27.441   1.202
48802W        W17196  42.521  22.708   4.637
48803W        W17197  11.322  33.733  13.331
48804W        W17198  20.718  17.732  11.602
48805W        W17199  30.495  32.602  11.096
48806W        W17200  19.129  10.389   0.825
48807W        W17201  13.026   6.937   9.975
48808W        W17202  34.036  12.396   3.417
48809W        W17203   7.466  33.118   2.225
48810W        W17204   3.252  34.112  13.385
48811W        W17205  29.104  37.851   4.630
48812W        W17206   6.632  36.700  13.040
48813W        W17207  13.307  26.959  14.292
48814W        W17208  38.978  44.760   1.214
48815W        W17209   4.287  38.236   4.760
48816W        W17210  22.668  24.615   1.845
48817W        W17211  38.324  21.802   1.902
48818W        W17212  14.213  24.067   4.084
48819W        W17213  28.143  44.599   0.191
48820W        W17214  17.245  31.428  11.373
48821W        W17215  23.590   9.856   0.733
48822W        W17216   2.464  40.670   0.119
48823W        W17217   3.386  16.722   2.873
48824W        W17218   0.506  27.617  10.775
48825W        W17219  26.606  34.869  14.808
48826W        W17220  36.945  25.268   3.167
48827W        W17221   8.723  28.106   2.518
48828W        W17222  12.558  44.342  10.759
48829W        W17223  19.228   2.046   2.739
48830W        W17224  39.917  37.255   5.559
48831W        W17225  39.843   0.664  14.404
48832W        W17226  24.691  19.705  12.076
48833W        W17227  18.744  13.802   2.134
48834W        W17228  40.763  35.165   1.318
48835W        W17229  33.118  20.502  12.049
48836W        W17230   5.881  35.349   1.774
48837W        W17231  35.468  14.139   1.040
48838W        W17232  34.164  26.026   3.157
48839W        W17233  10.900  30.029   2.856
48840W        W17234  25.221  24.589   1.251
48841W        W17235   4.231  11.644   4.599
48842W        W17236  18.704  44.819   2.384
48843W        W17237  35.935  23.176   4.292
48844W        W17238  44.786  36.068   3.977
48845W        W17239  25.932  31.562   2.283
48846W        W17240  10.744   7.179   2.134
48847W        W17241  42.521  25.925   3.144
48848W        W17242  24.626  34.398  13.640
48849W        W17243   3.303  14.891   0.881
48850W        W17244  30.934  27.644   0.756
48851W        W17245   7.393  28.226  11.676
48852W        W17246   5.332  23.591   1.649
48853W        W17247  24.397   4.803   0.616
48854W        W17248  24.692  20.052  11.212
48855W        W17249   7.257  43.125   2.241
48856W        W17250   7.474  39.614   1.917
48857W        W17251  30.207  24.985  10.744
48858W        W17252  18.370  12.753   3.878
48859W        W17253  37.497  15.284  11.948
48860W        W17254  14.358  14.719   2.293
48861W        W17255  14.805  22.142   0.938
48862W        W17256  17.266  15.487  12.269
48863W        W17257  11.107  25.942  13.967
48864W        W17258   9.328  28.535  13.844
48865W        W17259  12.094  11.882   4.720
48866W        W17260  11.282   0.112  12.395
48867W        W17261  36.836   0.936  13.353
48868W        W17262  27.682  30.096   0.368
48869W        W17263  42.260  40.258  12.512
48870W        W17264  17.401  42.777  11.590
48871W        W17265  22.421  40.577  12.115
48872W        W17266  41.812  25.162   2.868
48873W        W17267   6.173   5.289  11.549
48874W        W17268  37.338  42.821   3.621
48875W        W17269  43.431  38.337   1.740
48876W        W17270   9.982  18.110  12.573
48877W        W17271  37.050  34.576   4.632
48878W        W17272  23.632  10.245   2.747
48879W        W17273  24.366   8.389  12.865
48880W        W17274  24.517   5.362   4.385
48881W        W17275  18.610  33.380  10.251
48882W        W17276  24.095   5.780   0.548
48883W        W17277  33.846  16.018  11.310
48884W        W17278   8.779  15.112  13.993
48885W        W17279  16.740  25.167  11.581
48886W        W17280  11.400   3.940   4.146
48887W        W17281  26.445  18.177   1.958
48888W        W17282  24.813   5.252  14.364
48889W        W17283  26.672  29.673   4.206
48890W        W17284  14.646  10.651  10.592
48891W        W17285  18.217   3.179  13.961
48892W        W17286  11.350   4.305  14.375
48893W        W17287  22.094   4.722   2.690
48894W        W17288  12.749  36.414   4.281
48895W        W17289  37.441  28.652   3.835
48896W        W17290  18.211  15.662   2.190
48897W        W17291  35.576  27.036  10.593
48898W        W17292   5.538  28.016   0.766
48899W        W17293  30.722  24.690   3.763
48900W        W17294  29.416  30.372  13.356
48901W        W17295  44.491  15.348   3.815
48902W        W17296   0.941  23.545   1.908
48903W        W17297  32.375  25.907   4.670
48904W        W17298  15.322   2.112   1.878
48905W        W17299  10.670   3.437   2.438
48906W        W17300   0.301   7.295   2.846
48907W        W17301   0.650   5.725  11.918
48908W        W17302  24.884  33.014  14.003
48909W        W17303  34.461   1.728  12.912
48910W        W17304   1.846   3.320  13.107
48911W        W17305  40.318  40.849   0.997
48912W        W17306   8.570   4.775  11.170
48913W        W17307  33.537  33.045  10.694
48914W        W17308  43.515  19.268   4.564
48915W        W17309  28.405  41.261   4.244
48916W        W17310  12.250  38.500  11.002
48917W        W17311   2.701  19.456  11.605
48918W        W17312  34.505  39.817   0.366
48919W        W17313  11.277  25.185  10.811
48920W        W17314  12.097  25.662   1.173
48921W        W17315  20.010  24.541   0.279
48922W        W17316   4.738  14.649   3.069
48923W        W17317  19.949  19.398  11.151
48924W        W17318  30.606  23.967   1.374
48925W        W17319  37.795   6.682   0.342
48926W        W17320  32.016  28.834  13.463
48927W        W17321  35.237  13.298   4.093
48928W        W17322  22.157  29.336  12.588
48929W        W17323  27.011  24.498   4.239
48930W        W17324  18.996  31.966  14.856
48931W        W17325   5.819   1.781   4.169
48932W        W17326  34.644  31.963   1.429
48933W        W17327  35.022  26.933  12.257
48934W        W17328  22.205  39.740  12.544
48935W        W17329  10.786   9.787  11.103
48936W        W17330   4.023  43.551   1.171
48937W        W17331  27.236  16.810   1.805
48938W        W17332  37.659   0.879   3.936
48939W        W17333  15.171  11.011  11.227
48940W        W17334   3.427  15.606   2.720
48941W        W17335   4.959  29.574   3.589
48942W        W17336   8.210  35.866   1.465
48943W        W17337  25.596  35.158  13.121
48944W        W17338  16.975  25.989  11.289
48945W        W17339  14.665  44.909   3.622
48946W        W17340  22.344   5.240  11.204
48947W        W17341  38.894  44.291  13.390
48948W        W17342  13.412  18.658   4.128
48949W        W17343   0.318  39.886  12.368
48950W        W17344  39.279  15.629   2.413
48951W        W17345  36.946  16.347   4.445
48952W        W17346  14.840  21.794  13.643
48953W        W17347  31.892  29.516  11.984
48954W        W17348  31.038  23.757   0.878
48955W        W17349  11.422   3.281  12.422
48956W        W17350  21.698  40.912   0.217
48957W        W17351  37.536  36.899  12.574
48958W        W17352   3.168   0.431  13.575
48959W        W17353  36.983  13.232  12.058
48960W        W17354  11.515  35.134  10.904
48961W        W17355   7.339  10.675  12.052
48962W        W17356  43.475  10.543  13.902
48963W        W17357  28.664  43.155   9.773
48964W        W17358  29.021  37.309  14.478
48965W        W17359   3.884  17.277   4.548
48966W        W17360  10.884   1.338  11.471
48967W        W17361  29.609  12.347  14.148
48968W        W17362   9.257  18.654  14.225
48969W        W17363  10.306  31.409  13.865
48970W        W17364   7.150   2.895   3.221
48971W        W17365  34.628  42.314   1.359
48972W        W17366  14.227  22.189   1.724
48973W        W17367  33.538  29.126   1.784
48974W        W17368  13.780   8.337   2.148
48975W        W17369   4.525  19.548  11.125
48976W        W17370  43.426  31.520   3.345
48977W        W17371  21.467  35.309  13.917
48978W        W17372  25.647  18.152   4.578
48979W        W17373  31.025   0.362   0.033
48980W        W17374   8.844   3.644   0.914
48981W        W17375  14.932  16.747  11.218
48982W        W17376  16.805  31.439  13.084
48983W        W17377  27.920  25.391   3.212
48984W        W17378  11.852  18.367  11.082
48985W        W17379   5.152   9.937  11.209
48986W        W17380  41.793  30.693  13.527
48987W        W17381   3.235  14.160  14.300
48988W        W17382  11.670  18.339   3.875
48989W        W17383  43.563  12.123   4.557
48990W        W17384  32.004  22.565   3.577
48991W        W17385   4.401  33.442   3.517
48992W        W17386  29.034  10.915  14.523
48993W        W17387  43.884  24.469  12.043
48994W        W17388  14.857  37.846  14.952
48995W        W17389   7.481  19.620   3.922
48996W        W17390  31.680  32.112   4.761
48997W        W17391  20.588  38.032  11.502
48998W        W17392  24.149  29.191   3.844
48999W        W17393  34.423  35.247  11.555
49000W        W17394  12.241  10.612  12.794
49001W        W17395  19.519  31.777  10.283
49002W        W17396  16.673  20.249   1.905
49003W        W17397  20.533  36.113  11.535
49004W        W17398   6.383  29.045   3.655
49005W        W17399   4.992  21.782   2.024
49006W        W17400  26.657  32.918   3.762
49007W        W17401  25.088   2.685  13.789
49008W        W17402   5.943   4.495   3.684
49009W        W17403  15.793  31.553  13.638
49010W        W17404  35.496  10.358   1.440
49011W        W17405  15.037  10.133  12.116
49012W        W17406  39.261  26.701   3.096
49013W        W17407  28.062  11.461   5.039
49014W        W17408  33.165  30.467  10.713
49015W        W17409   4.341  33.135  13.365
49016W        W17410  23.134   1.387   2.996
49017W        W17411  33.240  14.935   1.929
49018W        W17412  40.655   8.712   3.621
49019W        W17413  43.768  41.486   2.964
49020W        W17414  25.351  15.203  10.673
49021W        W17415  25.610  10.247  13.778
49022W        W17416  42.889  11.535   0.213
49023W        W17417   8.387  38.771  14.480
49024W        W17418  10.658  11.013   1.372
49025W        W17419  44.848  14.184  14.045
49026W        W17420  20.664  28.189   3.724
49027W        W17421  26.470   6.924   0.272
49028W        W17422  40.953  19.665  10.802
49029W        W17423  28.737  17.806  11.527
49030W        W17424   0.702  28.172  14.369
49031W        W17425  36.540  27.423   0.860
49032W        W17426  39.951  27.932   0.484
49033W        W17427  38.125  42.687  11.395
49034W        W17428  19.665  25.526   1.865
49035W        W17429   7.703  31.011   4.276
49036W        W17430  42.014  19.508   0.773
49037W        W17431  44.997   5.212  12.404
49038W        W17432  13.785  39.998   0.529
49039W        W17433  26.588  35.576  11.583
49040W        W17434  37.953  36.093  14.289
49041W        W17435  36.559  32.915  14.505
49042W        W17436   0.575  35.802   4.481
49043W        W17437  12.883  38.786  11.140
49044W        W17438  22.038   8.407  10.621
49045W        W17439  27.981  24.731   1.093
49046W        W17440  36.313   6.564  12.074
49047W        W17441  18.108   3.939  11.929
49048W        W17442  21.594  39.460  10.635
49049W        W17443  10.291  37.485   2.157
49050W        W17444   0.987  28.527   3.212
49051W        W17445  35.109  10.638  11.253
49052W        W17446  25.951   1.733   4.140
49053W        W17447  14.827  39.362  14.923
49054W        W17448  42.382  22.520  11.596
49055W        W17449  15.285  11.427   1.386
49056W        W17450  20.025  16.328  11.449
49057W        W17451  38.638  30.305   4.098
49058W        W17452  40.498  32.457  11.107
49059W        W17453  17.164  29.695   4.924
49060W        W17454  22.135  28.331  13.964
49061W        W17455   1.737   2.528   3.547
49062W        W17456  10.200  19.118   1.641
49063W        W17457  22.535  29.066   3.753
49064W        W17458  17.072   7.472   1.338
49065W        W17459   9.273   3.881  11.720
49066W        W17460  15.109  16.005  11.516
49067W        W17461  18.555   4.881  12.871
49068W        W17462  18.029  27.156  14.537
49069W        W17463  40.365   7.225  14.074
49070W        W17464  39.293  14.284   1.264
49071W        W17465  21.156  22.122  14.486
49072W        W17466   7.171  21.627   4.555
49073W        W17467  43.550  23.554  13.993
49074W        W17468  24.187  35.989   2.749
49075W        W17469  22.016  41.899   0.773
49076W        W17470  22.882  37.312  12.039
49077W        W17471   1.679  20.465  14.836
49078W        W17472  30.640  15.229   0.421
49079W        W17473   8.417  18.737   0.265
49080W        W17474  44.783  28.542   4.064
49081W        W17475   3.752   0.487  12.573
49082W        W17476   9.107  39.820  13.005
49083W        W17477  26.496  32.878   2.479
49084W        W17478  30.086  38.908  12.669
49085W        W17479  19.528  22.023   4.153
49086W        W17480   9.846  25.965  14.388
49087W        W17481  42.798  14.721   2.358
49088W        W17482  12.886  18.106  12.044
49089W        W17483  39.306  14.613   4.914
49090W        W17484   1.894  26.163   3.345
49091W        W17485  35.960  33.745   3.320
49092W        W17486   3.852  43.712   1.617
49093W        W17487  12.606  43.702  13.919
49094W        W17488  24.477  12.095  13.052
49095W        W17489  39.243   9.065  14.823
49096W        W17490  41.111  12.816  13.589
49097W        W17491  22.986  30.047   2.866
49098W        W17492   5.940   8.761   3.396
49099W        W17493  40.797  35.215  11.017
49100W        W17494  36.075  25.210   4.369
49101W        W17495  20.029  43.964  12.127
49102W        W17496  24.212  26.475  10.749
49103W        W17497  44.553  30.982   0.683
49104W        W17498   4.418   3.307  13.531
49105W        W17499  25.674   4.359   4.646
49106W        W17500  28.669   6.210   0.323
49107W        W17501  17.779  26.379   4.079
49108W        W17502   6.308  32.850   4.241
49109W        W17503  13.073  42.817   0.338
49110W        W17504  25.528  25.525   1.089
49111W        W17505  15.106  13.382  10.891
49112W        W17506  18.419  36.068  14.376
49113W        W17507  39.362  17.827   2.910
49114W        W17508  25.941  21.346  10.250
49115W        W17509  37.017  35.357   1.915
49116W        W17510  22.107   4.210   5.167
49117W        W17511  33.120  14.719  12.506
49118W        W17512  14.925  10.241   5.041
49119W        W17513  23.241  24.097  11.441
49120W        W17514  16.050  20.562  13.902
49121W        W17515  29.515  42.486  11.442
49122W        W17516   7.716  35.727   4.435
49123W        W17517  35.303   4.700  14.260
49124W        W17518   0.806   9.898  13.311
49125W        W17519  13.158   8.164  14.984
49126W        W17520   1.362  22.029  12.529
49127W        W17521  22.982  29.017  10.361
49128W        W17522   3.751  38.268   2.745
49129W        W17523  31.986  17.377  12.416
49130W        W17524  30.566   7.712  12.089
49131W        W17525  20.295  41.516  12.340
49132W        W17526  36.400  35.863   0.588
49133W        W17527   3.187  14.833   3.143
49134W        W17528  37.895  18.369   1.406
49135W        W17529  29.086  32.503   1.976
49136W        W17530   4.336  29.434   1.281
49137W        W17531  30.139  41.235  12.434
49138W        W17532  41.261   2.918  13.764
49139W        W17533   5.438   6.695  13.312
49140W        W17534  14.730  25.183  10.983
49141W        W17535  42.801  15.350  12.959
49142W        W17536  35.788  14.238  12.178
49143W        W17537  29.109  44.706   0.858
49144W        W17538  38.844  28.959  12.001
49145W        W17539   1.665   8.824  10.658
49146W        W17540  27.977   9.994   0.276
49147W        W17541   5.562  16.036   1.023
49148W        W17542  23.724  23.324  14.778
49149W        W17543  18.519  15.133  12.287
49150W        W17544   7.387  20.268   3.960
49151W        W17545  21.529  25.461   2.133
49152W        W17546  38.909  26.763  14.793
49153W        W17547  26.637  28.088  13.810
49154W        W17548  38.533   9.778   3.589
49155W        W17549  25.403  11.333   4.037
49156W        W17550  26.599  37.120   5.066
49157W        W17551  17.218  38.125  12.533
49158W        W17552  27.903  36.523   0.390
49159W        W17553  36.514  24.803  11.259
49160W        W17554  37.860  20.516   2.232
49161W        W17555  22.095  24.057  10.478
49162W        W17556   9.098   0.195   1.959
49163W        W17557  22.143  36.724   2.791
49164W        W17558  30.205  39.049  13.178
49165W        W17559   5.293   0.952  10.818
49166W        W17560  32.645   9.123  13.070
49167W        W17561  39.529  40.554  11.583
49168W        W17562   5.902  16.230   2.778
49169W        W17563   1.447  32.814   2.218
49170W        W17564  24.146  27.140   2.186
49171W        W17565  44.875  18.580   3.136
49172W        W17566  36.443  43.938  13.748
49173W        W17567   7.173   2.888   2.324
49174W        W17568  26.896  44.995   1.839
49175W        W17569  12.033  20.197  13.000
49176W        W17570  11.316  37.229  11.044
49177W        W17571   6.448  13.958  14.769
49178W        W17572   7.452  22.652   0.906
49179W        W17573  28.726  30.642  11.968
49180W        W17574   0.502  10.255   1.707
49181W        W17575   4.135  10.373   4.020
49182W        W17576   4.671  19.920  11.446
49183W        W17577  24.515  31.575  10.680
49184W        W17578   0.997  39.605   1.270
49185W        W17579  20.949  12.724   2.131
49186W        W17580  14.255  15.382  12.530
49187W        W17581  41.130  11.731  14.254
49188W        W17582  13.129  16.101   3.716
49189W        W17583  38.556  29.786  11.609
49190W        W17584  16.669  17.234   1.275
49191W        W17585  25.583  19.414   2.869
49192W        W17586  26.420   8.118   3.727
49193W        W17587  17.794  35.798   2.788
49194W        W17588  13.028  43.494   3.234
49195W        W17589  28.705   0.412  10.790
49196W        W17590  10.530  34.986  14.916
49197W        W17591  35.376  24.974   5.027
49198W        W17592   5.841   0.458  10.551
49199W        W17593  42.283  29.436  13.345
49200W        W17594  27.458   7.085   0.286
49201W        W17595  39.466  17.986  13.463
49202W        W17596  29.996  20.210   2.798
49203W        W17597  21.674  12.586   3.556
49204W        W17598  43.219   0.459   2.313
49205W        W17599  30.655  30.620  13.127
49206W        W17600  36.471  17.748   1.852
49207W        W17601  11.083  42.914   3.708
49208W        W17602  29.829  16.113  11.101
49209W        W17603  40.739   2.743   4.090
49210W        W17604  24.528  37.975   3.624
49211W        W17605   1.295   4.351   0.947
49212W        W17606  40.699   0.361  14.108
49213W        W17607  39.573  19.872   0.924
49214W        W17608  22.294  16.713  14.019
49215W        W17609   8.130  14.706  12.019
49216W        W17610   6.988  23.035  10.997
49217W        W17611   8.428  43.038   3.359
49218W        W17612   6.011  10.730  14.002
49219W        W17613  12.259  15.537   0.936
49220W        W17614  12.144   1.296   0.295
49221W        W17615  11.644  43.233  12.491
49222W        W17616  33.192  28.949  12.993
49223W        W17617  24.379  18.750   0.926
49224W        W17618  35.982   1.406   1.227
49225W        W17619  24.098  26.155  11.950
49226W        W17620   0.659  32.890  11.135
49227W        W17621  31.106  43.458  12.047
49228W        W17622  12.744  28.082  13.018
49229W        W17623   5.119  20.326  12.949
49230W        W17624  17.552  32.569   1.449
49231W        W17625  17.136   1.922   1.492
49232W        W17626  36.272  15.723   1.083
49233W        W17627  39.924  26.010   4.741
49234W        W17628  18.033   5.243  10.446
49235W        W17629   0.771  11.354   4.054
49236W        W17630  10.595  32.622  12.484
49237W        W17631  23.564  28.382  12.704
49238W        W17632   6.016  17.308   3.206
49239W        W17633  25.351   4.978   1.411
49240W        W17634  13.561  38.008   4.425
49241W        W17635  40.972  23.127   2.265
49242W        W17636  10.208  14.358   4.708
49243W        W17637   9.242  29.395  10.772
49244W        W17638  20.987   4.802   3.609
49245W        W17639  11.379  10.089  14.557
49246W        W17640  34.747  21.129   0.396
49247W        W17641   5.664  26.505  13.332
49248W        W17642  37.760  14.089  13.578
49249W        W17643  38.644  35.690  11.463
49250W        W17644  39.899  35.077  11.888
49251W        W17645  14.079  27.357   2.684
49252W        W17646   7.173  24.510   1.171
49253W        W17647  36.018  38.130   3.242
49254W        W17648  24.160  11.671  14.519
49255W        W17649   5.112  30.512   2.391
49256W        W17650  11.948  26.940  14.104
49257W        W17651  40.067  31.876  12.869
49258W        W17652  17.909   0.640  14.969
49259W        W17653  19.823   7.947  12.892
49260W        W17654  18.341   2.870  12.978
49261W        W17655  27.977  33.577   0.975
49262W        W17656  12.760  43.835   1.724
49263W        W17657  39.787  38.257  12.313
49264W        W17658   0.909  22.591  14.465
49265W        W17659   1.310  20.151  13.037
49266W        W17660  30.299  37.293  12.443
49267W        W17661  12.085  13.177  13.818
49268W        W17662   2.165  43.104   4.219
49269W        W17663   5.723  11.684   0.694
49270W        W17664  22.739   6.448   1.228
49271W        W17665   6.733  36.363  14.787
49272W        W17666  35.511  27.553   0.820
49273W        W17667  36.274  38.458  10.480
49274W        W17668  28.933  25.308   3.213
49275W        W17669  34.720   3.742   1.849
49276W        W17670  21.223   6.280   3.275
49277W        W17671  10.184  24.410   3.000
49278W        W17672  29.959  32.155  14.402
49279W        W17673  14.550  22.498  11.430
49280W        W17674  15.523   4.626  12.070
49281W        W17675   0.249  15.336  11.121
49282W        W17676  38.404  17.283  14.155
49283W        W17677  30.640  11.355   2.204
49284W        W17678  12.716  44.842   4.777
49285W        W17679   5.431  35.089  14.521
49286W        W17680  27.298  14.297   4.063
49287W        W17681  13.687   2.059   2.687
49288W        W17682  34.302   2.956  11.116
49289W        W17683  26.003  18.004   1.231
49290W        W17684  15.890  21.324  13.453
49291W        W17685  16.689  10.091   4.411
49292W        W17686  21.665  22.063   3.365
49293W        W17687   3.222  16.777  11.047
49294W        W17688   0.380  41.782   3.690
49295W        W17689  33.655  37.406  13.230
49296W        W17690   9.689   6.967   1.145
49297W        W17691   5.238  17.438   2.135
49298W        W17692  12.251  27.664   3.094
49299W        W17693  29.658  11.711   4.110
49300W        W17694  10.094  26.844  14.346
49301W        W17695   9.151  30.677   2.723
49302W        W17696  24.662   4.153  12.721
49303W        W17697  38.051  30.416  11.906
49304W        W17698  23.188   7.343   0.944
49305W        W17699  20.031  34.953   0.143
49306W        W17700  11.541   2.500   4.107
49307W        W17701  40.072   6.798  11.128
49308W        W17702  14.418  43.902   1.354
49309W        W17703  16.554  27.455  11.562
49310W        W17704  34.620  17.524   2.754
49311W        W17705  23.209  33.372   0.521
49312W        W17706  28.387  17.761  12.504
49313W        W17707   2.472   9.742  12.026
49314W        W17708   9.348  36.409  14.886
49315W        W17709   7.180  42.549  12.987
49316W        W17710   9.249   3.179   4.971
49317W        W17711  29.440  37.446   4.136
49318W        W17712  13.322  38.120  11.057
49319W        W17713  10.625  14.565   0.237
49320W        W17714  32.126  14.285   0.474
49321W        W17715   8.710  11.891  14.780
49322W        W17716  19.816  29.574  10.734
49323W        W17717   8.338  44.243   3.585
49324W        W17718   9.688  25.335   0.728
49325W        W17719   8.651  33.446  12.681
49326W        W17720  23.627  22.044   0.437
49327W        W17721  43.129  22.363  11.105
49328W        W17722   8.148   1.135  11.513
49329W        W17723  40.732  31.454   4.549
49330W        W17724  28.825  32.475  10.954
49331W        W17725  18.580  29.037  14.990
49332W        W17726   4.754  27.054  11.184
49333W        W17727   4.913  26.221  12.886
49334W        W17728   3.776  34.415  14.518
49335W        W17729  10.383  12.272  12.053
49336W        W17730  29.643  41.889   4.914
49337W        W17731  44.692  11.719   4.599
49338W        W17732  40.029  35.627  13.811
49339W        W17733  33.046  27.148   0.501
49340W        W17734   8.683  15.178   0.813
49341W        W17735  16.075  39.087   0.955
49342W        W17736  11.783  10.265   3.171
49343W        W17737  20.158  43.981   4.230
49344W        W17738  10.769  20.585  11.108
49345W        W17739   8.731  34.974   1.195
49346W        W17740  24.691  44.489   2.647
49347W        W17741  12.325  10.105   0.385
49348W        W17742  29.322  14.110  14.092
49349W        W17743   1.720  43.112  13.011
49350W        W17744  14.151  22.360  13.832
49351W        W17745  38.108  15.601  13.884
49352W        W17746   5.314  38.012   4.558
49353W        W17747  13.434  44.079  11.840
49354W        W17748  25.098   5.914  14.906
49355W        W17749  18.853  26.229   1.365
49356W        W17750  27.633  16.478   1.878
49357W        W17751  41.055  26.010   3.835
49358W        W17752  41.544   8.765  14.494
49359W        W17753  21.236  38.011  12.981
49360W        W17754  24.723   4.293  14.418
49361W        W17755  20.654   8.829   0.763
49362W        W17756  10.802  22.996   0.699
49363W        W17757   0.937  43.074  13.909
49364W        W17758  27.530  20.790  13.153
49365W        W17759  23.665  22.173  11.295
49366W        W17760  15.600  42.311   2.487
49367W        W17761  36.971   3.303  12.960
49368W        W17762  14.848  44.880   4.122
49369W        W17763   2.192  35.242   2.388
49370W        W17764  35.447   3.157  12.845
49371W        W17765  28.829   9.427   0.242
49372W        W17766  41.479  18.271   4.753
49373W        W17767  40.450  21.534   1.617
49374W        W17768  41.634  35.069   1.131
49375W        W17769  40.962  25.513   3.719
49376W        W17770  29.366  26.193  14.807
49377W        W17771   5.670  12.607  12.963
49378W        W17772  32.904   5.212  11.090
49379W        W17773  17.683  28.543   3.479
49380W        W17774  32.805  33.145  11.987
49381W        W17775   7.644   6.368   4.708
49382W        W17776  41.053   0.513  11.238
49383W        W17777   4.191  26.974   4.755
49384W        W17778  22.821  26.062   0.923
49385W        W17779  36.146  17.329  12.058
49386W        W17780  15.298  39.455   3.682
49387W        W17781  38.483  22.451   3.698
49388W        W17782  18.148  43.353  14.324
49389W        W17783  15.080   4.769  14.923
49390W        W17784  34.160  16.889   3.268
49391W        W17785  26.062  19.016   1.348
49392W        W17786  38.560  40.411   0.220
49393W        W17787   3.746  43.952   2.593
49394W        W17788  15.170  11.460   2.739
49395W        W17789  37.970  30.625  12.380
49396W        W17790  35.605  11.396  13.381
49397W        W17791  25.659  44.435  11.529
49398W        W17792  22.242  37.511   3.127
49399W        W17793  41.000  32.172   0.804
49400W        W17794  40.232   7.616  14.387
49401W        W17795   7.859  29.268   2.202
49402W        W17796  42.332  35.883  12.523
49403W        W17797  42.216   2.187  10.651
49404W        W17798  25.519  36.606  12.879
49405W        W17799  42.300  31.774   1.316
49406W        W17800  41.056  41.849  12.664
49407W        W17801  23.148  36.550   3.737
49408W        W17802  27.641  30.154   4.280
49409W        W17803   4.820  13.753   2.302
49410W        W17804  44.400   0.433   5.317
49411W        W17805  12.162  12.095  10.732
49412W        W17806  18.609   3.998  12.837
49413W        W17807  36.635  26.166  14.702
49414W        W17808   3.923  31.665  14.193
49415W        W17809  31.127  27.553  10.663
49416W        W17810  21.703  12.745  13.435
49417W        W17811  18.746  33.378   5.004
49418W        W17812   0.803  19.484  14.522
49419W        W17813  22.609  40.934   3.102
49420W        W17814   0.726  20.087  11.662
49421W        W17815  21.482  26.810   9.973
49422W        W17816   6.741  23.751   2.256
49423W        W17817  25.744  14.594   0.344
49424W        W17818   0.945  43.461   0.942
49425W        W17819  24.250  25.439   1.948
49426W        W17820  29.246  40.677   0.283
49427W        W17821  10.107  19.016  14.693
49428W        W17822  17.127  43.366  13.390
49429W        W17823  39.396  11.780   3.356
49430W        W17824  36.429   2.678   4.464
49431W        W17825   3.799  36.409   1.103
49432W        W17826   5.287  31.109  13.414
49433W        W17827  22.064  44.546  11.352
49434W        W17828  16.317  36.319   3.570
49435W        W17829  38.480  42.290   0.958
49436W        W17830  38.883  19.990  10.698
49437W        W17831  32.081   2.232  13.910
49438W        W17832  35.723  35.356   2.368
49439W        W17833   9.854  33.801   1.664
49440W        W17834  33.648  36.167  12.425
49441W        W17835  43.383  42.414  12.633
49442W        W17836  11.274   7.251   2.716
49443W        W17837  14.145   7.612  10.648
49444W        W17838  13.833   0.585   3.131
49445W        W17839  30.682   2.530   1.293
49446W        W17840  36.938  18.157   3.030
49447W        W17841  20.200  19.289  10.238
49448W        W17842  25.854  37.234  11.675
49449W        W17843  41.088  13.720   3.886
49450W        W17844   1.379  39.647  12.061
49451W        W17845  42.407  35.100  10.670
49452W        W17846  30.325   5.758  12.002
49453W        W17847   5.380  17.688  10.473
49454W        W17848  11.624  42.865  12.101
49455W        W17849  10.874  43.838  14.505
49456W        W17850  34.753  40.780   0.551
49457W        W17851  16.777  21.652   2.722
49458W        W17852   2.393  44.403  11.987
49459W        W17853  42.230   6.107   4.092
49460W        W17854   9.773   2.035   0.795
49461W        W17855   6.906  16.092   9.986
49462W        W17856  10.623   2.271  11.170
49463W        W17857  25.440  41.940   2.739
49464W        W17858  33.964  27.411   3.698
49465W        W17859   5.728  36.104  13.020
49466W        W17860  41.603  14.179   2.947
49467W        W17861   0.442  32.252   0.482
49468W        W17862  15.584  36.884  13.967
49469W        W17863   8.651   2.252  10.148
49470W        W17864  41.238  10.935  12.025
49471W        W17865  37.442  31.054   4.969
49472W        W17866  20.304   4.720  12.497
49473W        W17867  15.006  42.363  10.789
49474W        W17868   9.777   2.865   3.640
49475W        W17869  41.932   7.267  11.578
49476W        W17870  17.206   7.266  12.043
49477W        W17871   8.125  33.395   0.482
49478W        W17872  36.310   1.206   4.658
49479W        W17873   5.864   6.960  13.508
49480W        W17874  18.338  11.273  11.585
49481W        W17875  33.018   2.276   2.717
49482W        W17876  24.679   6.282  13.623
49483W        W17877  26.648  36.842  13.472
49484W        W17878  20.779  34.399   1.232
49485W        W17879  41.459   1.336   0.838
49486W        W17880  14.776  28.074  14.015
49487W        W17881  10.123  12.829  14.003
49488W        W17882  16.534  29.165  10.216
49489W        W17883  36.726  32.484  13.341
49490W        W17884  26.682  17.229  13.941
49491W        W17885  18.707  18.355  12.159
49492W        W17886  40.217  21.579   2.659
49493W        W17887   6.775  11.751  13.164
49494W        W17888  38.162  13.960  10.687
49495W        W17889  11.104  11.544  12.638
49496W        W17890  37.390  20.573  10.732
49497W        W17891   1.286  24.034   2.867
49498W        W17892  35.915  42.073   3.315
49499W        W17893  42.848  30.126   3.518
49500W        W17894   8.861  16.763   3.961
49501W        W17895  27.168  11.593  14.918
49502W        W17896  35.395   3.396   4.450
49503W        W17897  13.615  27.046  13.188
49504W        W17898  27.956   7.015  12.853
49505W        W17899  33.107  36.606   0.226
49506W        W17900   2.862  17.230  10.839
49507W        W17901   5.759  11.298   1.080
49508W        W17902  34.020  18.710  14.028
49509W        W17903   9.054  14.055   4.330
49510W        W17904  20.672  40.195   2.697
49511W        W17905  21.603   8.139  10.746
49512W        W17906  37.554  32.046   4.024
49513W        W17907  30.937  25.031   4.967
49514W        W17908  35.631   9.910   4.152
49515W        W17909  15.258  17.162   4.851
49516W        W17910  27.674   4.524   2.382
49517W        W17911  43.790  16.443  11.177
49518W        W17912  23.562  13.164  14.704
49519W        W17913  38.201  30.164  12.350
49520W        W17914  24.450  17.796   4.351
49521W        W17915  27.704   3.695   2.758
49522W        W17916  31.826  36.662   1.629
49523W        W17917  38.955  18.093   2.752
49524W        W17918  32.498  14.828  13.319
49525W        W17919   6.104   0.847  13.945
49526W        W17920  19.261  43.818  14.727
49527W        W17921  11.989   4.432  13.356
49528W        W17922  40.103  12.972  14.376
49529W        W17923  37.168  11.791   4.622
49530W        W17924   3.393  23.988   2.789
49531W        W17925  13.182   9.356   0.267
49532W        W17926  32.639  20.239  12.013
49533W        W17927  26.183  16.908  11.737
49534W        W17928  40.272   5.624   0.431
49535W        W17929  28.653   0.216   2.385
49536W        W17930  43.251  13.883   1.847
49537W        W17931  10.872  37.788   4.166
49538W        W17932   5.485  16.343   4.394
49539W        W17933  42.470  15.970   1.148
49540W        W17934  30.510  32.528   3.618
49541W        W17935  36.475  26.940   3.327
49542W        W17936  40.592   8.205   2.352
49543W        W17937  26.691  35.924  12.071
49544W        W17938  26.910  38.661  12.811
49545W        W17939  21.768  29.928   0.436
49546W        W17940  36.561  13.871  13.370
49547W        W17941  43.810  31.425  11.939
49548W        W17942  36.065  20.381   2.419
49549W        W17943   2.467  41.489  12.380
49550W        W17944  31.086  16.273  10.745
49551W        W17945   7.684  41.248  14.730
49552W        W17946  11.655   8.999  12.142
49553W        W17947  16.514  21.684   1.402
49554W        W17948  27.125   6.465   4.564
49555W        W17949  29.715  10.870   4.147
49556W        W17950   5.889   7.963  11.952
49557W        W17951  29.897  42.889  14.312
49558W        W17952   2.330  42.995   1.866
49559W        W17953   2.407  41.962  13.244
49560W        W17954  33.428   3.825   2.710
49561W        W17955  42.156  22.502   4.953
49562W        W17956  26.275   4.973   5.086
49563W        W17957  13.820  29.846   0.369
49564W        W17958  18.593  10.335  12.568
49565W        W17959  30.963  33.061  12.468
49566W        W17960  16.073  28.182   3.083
49567W        W17961   9.638   5.737  13.477
49568W        W17962  15.476  41.988   4.602
49569W        W17963  39.082  33.559  13.822
49570W        W17964  20.779  32.558  12.858
49571W        W17965  36.843  37.317   3.688
49572W        W17966  20.169  19.636  12.607
49573W        W17967  44.469  21.682  14.790
49574W        W17968  41.421  21.296  14.890
49575W        W17969  27.681  22.988   1.293
49576W        W17970  26.098  43.081  11.542
49577W        W17971  13.767  26.993  14.532
49578W        W17972  30.896   3.707  13.522
49579W        W17973   9.013  43.491   2.808
49580W        W17974   7.164  26.045   3.319
49581W        W17975  42.221  39.454   2.336
49582W        W17976  29.624  23.340  10.775
49583W        W17977  14.156  35.476   1.032
49584W        W17978  28.920  10.038  11.506
49585W        W17979   6.921  13.717  13.086
49586W        W17980   6.759  11.258   4.623
49587W        W17981  22.242  14.089   2.810
49588W        W17982  25.619  16.121   3.054
49589W        W17983   0.397  41.676  10.713
49590W        W17984  42.771   7.429   2.221
49591W        W17985   4.461   8.958   0.698
49592W        W17986  42.401  10.905  11.175
49593W        W17987   4.073  21.617   4.613
49594W        W17988  28.953   2.642   2.269
49595W        W17989  40.941  13.296  12.757
49596W        W17990   8.807  24.449  12.091
49597W        W17991   0.488  41.435  13.068
49598W        W17992  26.426  36.874   2.698
49599W        W17993  29.213  34.077   1.635
49600W        W17994  17.149   5.669   2.659
49601W        W17995  20.571  28.202   4.228
49602W        W17996  15.547   2.430   3.115
49603W        W17997  44.531  35.980   2.730
49604W        W17998   9.079   0.216  11.220
49605W        W17999  14.038  22.980   3.214
49606W        W18000   8.528  12.588   2.776
49607W        W18001   9.639  16.856   4.363
49608W        W18002  12.519  23.868  13.568
49609W        W18003  23.965   9.309  13.061
49610W        W18004  18.985  36.711  11.296
49611W        W18005  38.976  32.019   2.623
49612W        W18006   4.500  30.232  13.845
49613W        W18007  30.464  16.086   2.694
49614W        W18008  30.942  31.632  11.157
49615W        W18009  25.500   1.960   4.154
49616W        W18010  29.968  26.627   0.939
49617W        W18011  35.987  25.906  14.199
49618W        W18012   4.690  29.095   1.465
49619W        W18013  44.053  21.491   3.359
49620W        W18014   1.850  24.738  11.177
49621W        W18015  32.460  36.279   0.970
49622W        W18016  37.472  32.523   3.867
49623W        W18017   7.689  11.148  11.072
49624W        W18018   7.341  40.582  14.105
49625W        W18019  38.252  13.087  10.832
49626W        W18020   2.866  12.868  13.386
49627W        W18021  20.517  41.367  14.998
49628W        W18022  35.534  26.557  11.348
49629W        W18023   4.340  32.082  13.401
49630W        W18024  21.212  18.451  10.151
49631W        W18025  14.688  15.025   1.980
49632W        W18026  14.751   5.313   1.186
49633W        W18027   9.078  15.653   4.545
49634W        W18028   5.834   2.674  13.021
49635W        W18029  11.160   5.702   2.177
49636W        W18030  17.677   8.627  13.445
49637W        W18031  13.383  11.356   2.248
49638W        W18032   1.102   1.923   0.174
49639W        W18033   1.335   2.249  10.610
49640W        W18034  24.019  10.129   4.081
49641W        W18035  28.737  36.694   4.252
49642W        W18036  21.792  42.826   2.917
49643W        W18037   3.936   5.722  11.417
49644W        W18038  29.578  11.083   2.865
49645W        W18039   5.280  26.637  11.962
49646W        W18040  14.868  34.612   0.346
49647W        W18041  18.744  40.589  11.091
49648W        W18042  36.294  10.335   3.690
49649W        W18043   8.966   8.233   1.748
49650W        W18044  28.007  21.613  10.423
49651W        W18045  11.338  24.988  13.046
49652W        W18046  31.304  30.377   5.021
49653W        W18047  35.662  26.609  13.472
49654W        W18048  41.766  16.176  11.998
49655W        W18049  20.577   3.885   2.144
49656W        W18050  34.004  31.991  13.324
49657W        W18051  19.756   7.356   2.095
49658W        W18052  16.595  22.497  12.490
49659W        W18053   1.505  16.782   1.743
49660W        W18054  39.971  21.974  10.816
49661W        W18055   5.866   1.675  12.535
49662W        W18056  19.518  26.165  12.547
49663W        W18057  10.191  18.898  12.996
49664W        W18058   1.364  27.203   4.543
49665W        W18059   8.869  13.776   1.031
49666W        W18060  26.660  29.224  13.913
49667W        W18061  11.786  18.488  12.457
49668W        W18062   2.348  44.086  12.602
49669W        W18063  34.909  37.904  13.041
49670W        W18064  44.018  16.809   2.573
49671W        W18065   2.873  15.452  14.317
49672W        W18066  44.417  30.406  12.840
49673W        W18067   5.999  44.809   3.824
49674W        W18068  39.042  33.460  11.446
49675W        W18069   8.638   8.386   3.587
49676W        W18070   9.217   2.596  11.473
49677W        W18071   9.425  27.244   4.601
49678W        W18072  15.624   9.703   4.083
49679W        W18073  33.697  38.452   4.133
49680W        W18074  13.097  44.345   2.119
49681W        W18075  15.364  15.943  14.866
49682W        W18076  22.491   7.684   4.799
49683W        W18077   7.174  16.057  11.936
49684W        W18078  22.786  32.496  11.120
49685W        W18079   6.921  25.256  11.204
49686W        W18080   9.839  19.307   4.419
49687W        W18081  32.589  21.642   1.167
49688W        W18082  16.362  32.252   2.361
49689W        W18083  23.046   1.932  12.775
49690W        W18084  17.064  30.010  12.926
49691W        W18085  14.700   4.209   3.360
49692W        W18086   9.069  31.915   0.621
49693W        W18087  41.005  10.039  13.755
49694W        W18088  39.945  19.071   4.127
49695W        W18089  36.010  24.988  12.098
49696W        W18090   8.116  14.274  14.414
49697W        W18091  24.750  14.187   2.855
49698W        W18092  33.896  30.186  10.481
49699W        W18093  33.594  20.145   2.885
49700W        W18094  24.617   7.093   2.595
49701W        W18095  40.461   4.134  12.513
49702W        W18096  34.898  32.384   1.177
49703W        W18097  29.033  28.750   0.905
49704W        W18098  30.169   6.812   1.324
49705W        W18099  42.297  10.442  13.882
49706W        W18100   5.741  28.941   0.799
49707W        W18101  31.068  21.453  12.173
49708W        W18102  20.723  27.923  12.568
49709W        W18103   8.613  24.981  13.526
49710W        W18104  18.004   4.248   2.805
49711W        W18105  27.931   3.980  13.546
49712W        W18106   4.786  10.369   4.793
49713W        W18107   6.283  44.965  12.976
49714W        W18108  25.207   0.235   2.618
49715W        W18109  23.783  14.378   1.306
49716W        W18110  14.322  12.891  14.091
49717W        W18111  36.987  21.554  14.772
49718W        W18112  22.082  18.760  11.783
49719W        W18113  22.992  22.037  10.803
49720W        W18114  35.336  10.928   4.057
49721W        W18115  43.764   8.333  12.396
49722W        W18116   2.419  21.632  13.891
49723W        W18117  35.822  37.476  14.514
49724W        W18118  41.828  32.614  10.724
49725W        W18119  23.892   8.909   0.948
49726W        W18120  23.126  16.734  14.308
49727W        W18121   6.024  25.520   0.545
49728W        W18122  10.404  20.778  14.508
49729W        W18123  32.532  20.120  10.638
49730W        W18124  35.679   9.297  13.842
49731W        W18125   7.771  38.009  13.517
49732W        W18126  44.963  37.916   1.454
49733W        W18127  21.509  19.062   0.157
49734W        W18128  12.900  32.010  14.778
49735W        W18129  36.099  42.036   4.209
49736W        W18130   9.363   6.046   3.240
49737W        W18131   6.688  28.130   3.261
49738W        W18132  23.457  25.157  14.329
49739W        W18133  23.436  13.810   1.383
49740W        W18134  14.312  17.083  14.838
49741W        W18135  43.373  44.265   2.796
49742W        W18136  31.846  18.614   2.801
49743W        W18137  16.331  23.602   1.417
49744W        W18138  32.404  35.049   0.948
49745W        W18139  10.737  38.456  13.863
49746W        W18140  14.791  10.126  13.364
49747W        W18141  33.410  41.588  13.739
49748W        W18142   4.269   8.234   0.403
49749W        W18143   0.580  16.357  10.720
49750W        W18144  44.333  24.147  10.669
49751W        W18145  32.389  21.673  12.872
49752W        W18146  44.052   8.663   1.884
49753W        W18147  39.643  26.382   0.921
49754W        W18148  22.743  30.606  10.376
49755W        W18149   0.697  14.523  14.902
49756W        W18150   5.745  35.881  12.023
49757W        W18151   1.833  14.530  12.012
49758W        W18152   0.525  22.549   2.816
49759W        W18153  27.177  44.665  14.951
49760W        W18154  42.995  25.354  10.411
49761W        W18155  44.331  11.830   3.731
49762W        W18156  23.155  29.333  12.156
49763W        W18157  20.765  13.872  11.962
49764W        W18158  15.291  38.863  13.382
49765W        W18159   2.216   0.336  13.422
49766W        W18160  36.711  25.342   4.319
49767W        W18161   0.345  12.314   2.114
49768W        W18162  28.155  43.401  10.441
49769W        W18163  14.136  11.661   3.274
49770W        W18164  41.412  43.388   1.959
49771W        W18165   2.789  10.152  11.953
49772W        W18166  35.615  44.655   1.479
49773W        W18167  39.093  11.862   2.302
49774W        W18168  42.461  17.325  10.637
49775W        W18169  36.511  30.289   4.943
49776W        W18170  22.977  14.293  11.164
49777W        W18171  30.848  39.629  11.156
49778W        W18172  36.885   4.909  12.560
49779W        W18173  32.356  22.106  12.515
49780W        W18174  37.904   7.666   1.806
49781W        W18175  44.328  31.402  12.037
49782W        W18176   7.315   6.962  10.218
49783W        W18177  10.793  28.849   3.199
49784W        W18178  35.086   8.765  11.119
49785W        W18179  42.545   9.306  11.157
49786W        W18180  37.763   2.771   2.852
49787W        W18181  34.021  28.611   4.432
49788W        W18182  26.513   9.747  14.332
49789W        W18183  18.177  35.061  11.907
49790W        W18184  29.845   8.857   3.362
49791W        W18185  44.624  20.728   3.802
49792W        W18186   5.192   5.493  11.566
49793W        W18187   3.668  12.862   1.640
49794W        W18188  24.041  43.916   2.590
49795W        W18189   5.646   7.794  13.882
49796W        W18190  41.846  21.119  13.875
49797W        W18191   7.296  20.307   2.596
49798W        W18192  23.546  23.264   3.269
49799W        W18193   7.189  40.754  12.106
49800W        W18194  29.968  11.963   2.347
49801W        W18195  22.747  12.761   0.378
49802W        W18196  16.606  16.531  11.772
49803W        W18197   6.275  16.393  12.973
49804W        W18198  15.487  27.774   5.144
49805W        W18199  35.533  40.623  11.238
49806W        W18200   0.743   2.082   2.402
49807W        W18201  28.318  34.852  14.745
49808W        W18202  34.490  39.828   4.583
49809W        W18203   9.765  40.106  14.881
49810W        W18204   4.254  36.016  13.159
49811W        W18205  34.422  33.772   3.840
49812W        W18206  44.357   8.414  11.074
49813W        W18207  30.840  28.572   0.653
49814W        W18208  19.064  18.671  12.385
49815W        W18209  16.832  43.844  11.634
49816W        W18210  19.590  24.932  12.865
49817W        W18211  27.801   0.741   3.165
49818W        W18212  38.557  23.506   2.242
49819W        W18213  15.705   6.388   3.189
49820W        W18214  31.621  21.710   3.673
49821W        W18215  44.425  40.602  11.090
49822W        W18216  24.686  13.079  12.930
49823W        W18217  36.049  30.935  13.990
49824W        W18218  16.606  23.783   3.620
49825W        W18219  16.094  41.319  10.555
49826W        W18220  17.163   7.093  13.885
49827W        W18221  25.283  31.893  13.421
49828W        W18222  43.716  38.309  12.082
49829W        W18223  17.375  13.922   5.240
49830W        W18224  30.906  33.304  12.032
49831W        W18225  26.696  40.008   3.256
49832W        W18226   8.715  43.969   0.354
49833W        W18227  39.865  10.107  12.463
49834W        W18228   0.503   7.005   3.694
49835W        W18229  22.422  42.791  11.287
49836W        W18230  25.056  15.765   4.225
49837W        W18231   8.371   1.210  11.999
49838W        W18232  25.268  43.232   4.148
49839W        W18233  43.517  14.120   2.232
49840W        W18234  31.379  26.962   0.161
49841W        W18235  33.486  39.048  11.745
49842W        W18236  31.957  35.763   2.755
49843W        W18237   7.721  30.467   2.819
49844W        W18238  28.194   8.373  10.782
49845W        W18239  29.854  36.840  11.231
49846W        W18240  28.312  24.082  11.155
49847W        W18241  37.500  12.582  13.405
49848W        W18242   8.749  12.145   0.595
49849W        W18243  25.000  25.617   0.821
49850W        W18244  42.666   9.129   1.461
49851W        W18245  33.740  39.778  10.612
49852W        W18246  23.142   6.406   4.702
49853W        W18247  29.623   2.287   2.918
49854W        W18248  42.610  40.971  11.864
49855W        W18249  20.248  37.133   3.170
49856W        W18250  34.518  39.897   1.957
49857W        W18251  43.195  21.571   4.277
49858W        W18252   0.279   9.765   0.407
49859W        W18253  35.126  17.252  11.419
49860W        W18254  16.200  19.013  12.010
49861W        W18255  25.172  44.871   4.440
49862W        W18256  27.453   8.361   0.679
49863W        W18257  32.749  44.653  14.284
49864W        W18258  14.390  18.535  12.858
49865W        W18259  44.836   0.458  13.787
49866W        W18260  27.408   9.518   3.752
49867W        W18261  40.879   8.778  10.758
49868W        W18262  34.488  20.813  14.853
49869W        W18263  44.279  27.255   3.185
49870W        W18264  36.018  17.244  13.543
49871W        W18265  11.810   2.153   2.858
49872W        W18266  32.348  23.808   0.534
49873W        W18267  25.124  18.292   1.089
49874W        W18268   8.186  16.473   0.834
49875W        W18269  32.581   2.865  11.467
49876W        W18270  43.463  13.157  12.455
49877W        W18271  35.847  16.067   0.188
49878W        W18272   4.938  39.065   3.097
49879W        W18273  21.792  43.004  14.922
49880W        W18274  29.641  13.165   1.452
49881W        W18275   8.991   3.126  13.714
49882W        W18276  21.040   0.270   2.366
49883W        W18277   7.747   5.502   2.767
49884W        W18278  41.390   7.372  13.536
49885W        W18279  42.744  25.182  13.424
49886W        W18280  21.727  43.552  14.074
49887W        W18281  10.011  28.713   0.495
49888W        W18282  17.751  42.323   3.725
49889W        W18283  16.142  27.047  10.581
49890W        W18284  16.425  27.632  13.890
49891W        W18285  12.403  30.441   1.079
49892W        W18286  35.045   3.012   4.441
49893W        W18287  27.577  42.406   3.356
49894W        W18288  26.638  35.075  11.557
49895W        W18289  37.074   8.982  13.905
49896W        W18290  11.894   5.684   1.786
49897W        W18291  17.328  39.107   1.397
49898W        W18292  26.962  27.459   1.474
49899W        W18293  37.027  39.414   1.827
49900W        W18294  33.922  16.177   2.123
49901W        W18295  13.158  24.561  12.849
49902W        W18296  17.236  32.300   2.819
49903W        W18297   3.351  43.017   4.935
49904W        W18298  10.356  37.430   1.628
49905W        W18299  20.750  28.414  13.372
49906W        W18300  37.761  15.004  14.902
49907W        W18301  35.113  24.194   1.804
49908W        W18302  16.538  18.956  13.370
49909W        W18303  27.886  21.006  12.405
49910W        W18304  28.850  33.231  12.379
49911W        W18305  14.338  36.359   0.171
49912W        W18306   3.212  17.194   0.710
49913W        W18307  11.873   0.336   1.384
49914W        W18308   2.246  30.396  11.023
49915W        W18309  31.522   1.367  13.060
49916W        W18310  24.790  26.605   4.268
49917W        W18311  43.907  35.059   3.866
49918W        W18312  15.108  21.047   0.338
49919W        W18313  14.097  24.677  13.481
49920W        W18314  22.935  27.688   3.254
49921W        W18315   3.650  25.434   1.786
49922W        W18316  35.605  18.202   2.239
49923W        W18317  21.314   4.530  12.021
49924W        W18318   2.309  19.996   1.841
49925W        W18319  41.420   8.472   2.382
49926W        W18320  10.851   6.425   2.786
49927W        W18321  12.183  17.519  10.308
49928W        W18322  42.722  17.852  13.864
49929W        W18323  18.278  37.781  10.970
49930W        W18324  21.269  13.720  11.933
49931W        W18325  11.954  16.230  12.434
49932W        W18326  42.411  42.023  11.001
49933W        W18327  34.892  44.457   0.499
49934W        W18328  43.914  31.968  10.048
49935W        W18329   3.021  39.361  11.872
49936W        W18330  22.243  28.473   1.326
49937W        W18331  19.764  23.285   3.746
49938W        W18332  24.614  39.382   1.887
49939W        W18333  29.826   1.835  14.933
49940W        W18334   4.290  15.311  12.328
49941W        W18335  18.485  35.026  10.645
49942W        W18336  39.714  36.859  11.731
49943W        W18337   9.123  27.967  12.100
49944W        W18338  16.849  44.879  13.598
49945W        W18339   6.731  42.267   3.300
49946W        W18340  26.083  11.554  10.625
49947W        W18341  34.378   4.975  13.461
49948W        W18342   5.971  30.470   3.221
49949W        W18343  26.982  31.555   3.687
49950W        W18344  22.972  39.104   1.217
49951W        W18345  10.057  15.531  10.782
49952W        W18346  31.650  13.602  11.613
49953W        W18347  33.867   4.868   4.488
49954W        W18348  37.483  15.485   3.672
49955W        W18349   6.665  32.025  14.092
49956W        W18350   3.548  11.559   4.290
49957W        W18351  20.017  12.806   1.458
49958W        W18352  13.505   0.218   2.795
49959W        W18353  33.943  31.686  11.262
49960W        W18354  11.781  42.070  14.495
49961W        W18355  12.626   0.745  12.959
49962W        W18356  30.109  43.522  13.953
49963W        W18357  27.667   1.471  10.668
49964W        W18358   8.710  24.208  11.646
49965W        W18359  40.516  19.650   3.113
49966W        W18360  16.741  24.525  12.466
49967W        W18361  44.340  13.817  11.547
49968W        W18362   2.173  11.330  10.496
49969W        W18363  33.530   4.479   1.419
49970W        W18364  21.919   6.955   1.558
49971W        W18365  37.011   2.237   2.404
49972W        W18366  12.131  33.180  12.117
49973W        W18367  34.017  11.916   0.994
49974W        W18368   1.030  20.003  12.086
49975W        W18369  40.040   8.875  12.025
49976W        W18370  23.194  34.644   3.583
49977W        W18371  19.594   6.349   2.405
49978W        W18372  16.757  39.773   3.681
49979W        W18373  26.299  34.840   3.808
49980W        W18374   5.972  10.676  11.131
49981W        W18375  42.267   5.306   2.414
49982W        W18376  28.175  23.936  10.676
49983W        W18377   2.636  16.745   3.625
49984W        W18378  35.370  36.348   4.617
49985W        W18379  37.076  20.752  13.888
49986W        W18380   0.193  28.240  14.452
49987W        W18381   0.919  21.514   1.401
49988W        W18382  23.228  26.528  14.301
49989W        W18383  34.834  22.670  13.412
49990W        W18384  26.217  35.615   0.199
49991W        W18385  40.326  11.209  12.098
49992W        W18386  41.834  19.653   4.661
49993W        W18387  43.372   2.863   5.030
49994W        W18388   9.242  14.821  12.007
49995W        W18389  21.283   3.322  10.484
49996W        W18390   2.005  23.449  14.006
49997W        W18391   5.455   0.868  11.376
49998W        W18392  18.134  10.361  14.645
49999W        W18393  17.325  36.027   2.824
50000W        W18394   0.458   8.395  10.088
50001W        W18395  11.540  38.473   1.178
50002W        W18396  13.176   1.212   0.249
50003W        W18397  23.555   7.278   4.440
50004W        W18398  32.142  39.850   1.430
50005W        W18399  19.980   5.263   4.256
50006W        W18400  15.359  43.623   4.195
50007W        W18401  44.341  17.701   1.909
50008W        W18402   0.741   2.903  14.711
50009W        W18403   4.507  28.972  11.311
50010W        W18404  28.911  28.964  14.410
50011W        W18405  39.814  17.801  11.642
50012W        W18406  36.977  24.286  11.447
50013W        W18407  11.489   4.169   0.713
50014W        W18408  22.262  14.106  12.770
50015W        W18409  25.205  33.500  13.829
50016W        W18410   8.068   8.457  14.468
50017W        W18411   5.722  44.446  14.763
50018W        W18412  28.592  43.618   2.273
50019W        W18413  42.402  40.538  13.920
50020W        W18414   5.162  17.196   4.141
50021W        W18415  11.291   9.305   0.604
50022W        W18416  26.695  37.777   0.954
50023W        W18417   8.316  36.556  11.423
50024W        W18418  43.647   7.732   2.286
50025W        W18419   7.395  18.320   0.754
50026W        W18420  15.878  13.872  13.929
50027W        W18421   9.476  32.945   1.784
50028W        W18422  40.815  24.746   3.218
50029W        W18423  43.685  36.638   2.734
50030W        W18424   5.671  37.438   2.391
50031W        W18425  36.831  39.853  11.999
50032W        W18426  13.316  25.267   0.252
50033W        W18427  13.642  26.274  14.086
50034W        W18428  42.006  26.502   3.701
50035W        W18429   7.267  15.596  11.710
50036W        W18430   8.815  43.500   4.027
50037W        W18431  43.765  27.531   3.853
50038W        W18432   8.125  39.803  13.513
50039W        W18433  41.450  15.671  13.412
50040W        W18434  25.139  12.947   4.219
50041W        W18435  12.763  22.824  12.796
50042W        W18436  11.809  14.165  12.625
50043W        W18437  28.493   3.507  11.531
50044W        W18438  19.002  28.113  12.687
50045W        W18439  27.512   5.778   0.135
50046W        W18440  27.753  10.382  14.859
50047W        W18441  27.189  35.978  14.300
50048W        W18442  38.298   1.717   3.218
50049W        W18443  13.214  36.843  12.988
50050W        W18444   3.062  31.808  11.598
50051W        W18445  44.816  10.807  14.216
50052W        W18446  28.700  35.355  13.834
50053W        W18447   9.779   1.515   0.928
50054W        W18448  27.292  20.008  12.872
50055W        W18449  19.969  31.423   1.184
50056W        W18450   4.639  34.645  12.546
50057W        W18451   1.855  24.257  14.412
50058W        W18452  33.986  29.066   1.008
50059W        W18453  21.436  25.938  13.868
50060W        W18454  40.495  16.623   1.898
50061W        W18455  42.164  39.573   4.510
50062W        W18456   8.702  23.526  14.534
50063W        W18457   8.820  33.519   1.195
50064W        W18458  16.298  10.836  14.378
50065W        W18459  21.930  43.102   3.761
50066W        W18460  14.769   7.863  13.040
50067W        W18461  33.108  31.394  12.518
50068W        W18462   5.277   8.719   9.843
50069W        W18463   8.205  12.355  12.243
50070W        W18464  42.474   5.618  11.253
50071W        W18465  37.826  40.998   3.544
50072W        W18466   9.194   4.668   1.272
50073W        W18467  15.824   3.326  11.171
50074W        W18468  10.002  28.195   0.354
50075W        W18469  12.192  26.749   3.272
50076W        W18470  35.906   9.328  14.479
50077W        W18471  20.298  10.490   3.285
50078W        W18472   5.175  11.254  12.167
50079W        W18473  37.339  14.669   2.087
50080W        W18474  11.813   2.234   0.364
50081W        W18475   0.077  10.229   0.380
50082W        W18476   0.329  28.505   1.344
50083W        W18477  13.626  12.533  14.915
50084W        W18478  11.756  21.641   0.576
50085W        W18479  13.663  44.445   2.474
50086W        W18480  39.090  13.526   4.343
50087W        W18481  23.986   2.350  10.654
50088W        W18482  39.699  16.981   1.269
50089W        W18483   1.960  18.743   2.403
50090W        W18484  37.517  32.998   1.283
50091W        W18485  14.599   8.303   3.651
50092W        W18486  30.581  17.605  10.346
50093W        W18487  30.578  43.470   1.306
50094W        W18488  44.141  29.534  12.065
50095W        W18489  40.327  20.995   1.293
50096W        W18490  10.411  12.194   2.788
50097W        W18491  26.665  23.689   2.754
50098W        W18492   9.206  24.050   4.497
50099W        W18493  10.378   7.272  13.073
50100W        W18494  36.874  28.550  12.452
50101W        W18495  12.123  29.482   0.434
50102W        W18496  15.942   8.046   5.076
50103W        W18497  28.245  29.154   1.073
50104W        W18498   1.884  23.797   0.786
50105W        W18499  31.007  21.352  13.868
50106W        W18500  43.460   9.729   3.933
50107W        W18501  30.859  37.392   4.633
50108W        W18502  28.277   2.351   1.867
50109W        W18503  33.916  30.821   0.250
50110W        W18504  18.083  22.640  13.509
50111W        W18505  19.053  44.213   1.238
50112W        W18506  36.966  35.046   1.488
50113W        W18507  27.101   9.784   3.323
50114W        W18508   5.649   6.861   4.033
50115W        W18509  28.606  38.535  13.525
50116W        W18510  17.233  15.331  11.784
50117W        W18511   2.716  20.332   1.828
50118W        W18512  28.520  27.656   0.413
50119W        W18513   9.857  10.106  14.478
50120W        W18514  30.653  34.064  14.373
50121W        W18515   7.137   0.911   0.325
50122W        W18516  33.197   0.330  12.701
50123W        W18517  13.711  17.166   4.528
50124W        W18518  39.046  10.405  14.890
50125W        W18519  16.456  32.298  13.495
50126W        W18520   3.377  18.270   2.794
50127W        W18521  40.131   1.268  11.140
50128W        W18522  41.481  17.272  10.769
50129W        W18523  11.276  43.441   1.657
50130W        W18524   4.468  36.859   5.004
50131W        W18525  32.049  42.286   4.125
50132W        W18526  17.480  13.616   1.359
50133W        W18527   0.391   6.165  14.416
50134W        W18528  40.375  10.706  14.917
50135W        W18529  11.160   8.017   2.321
50136W        W18530  20.703  27.118  13.959
50137W        W18531   6.103   1.816  12.079
50138W        W18532  25.043  30.127   4.438
50139W        W18533  38.609  11.301  13.596
50140W        W18534  17.163  32.812   2.858
50141W        W18535  44.922  26.571  10.122
50142W        W18536  44.488  31.353  11.325
50143W        W18537   3.900  19.274   0.709
50144W        W18538  27.964   6.992  11.980
50145W        W18539   3.659  16.211  12.865
50146W        W18540  28.163   4.864  13.691
50147W        W18541  14.637  28.068   0.902
50148W        W18542  37.929  15.309  11.682
50149W        W18543   0.003  28.113   1.664
50150W        W18544  33.346   0.968  14.031
50151W        W18545  15.905   3.388  13.942
50152W        W18546  14.247  24.957  13.912
50153W        W18547   1.480  31.265   2.388
50154W        W18548  26.707   0.679  11.430
50155W        W18549  12.256  18.866  13.329
50156W        W18550  36.256  43.056  11.182
50157W        W18551  27.356  29.594  11.726
50158W        W18552  43.423  44.702  12.626
50159W        W18553  35.904  34.315  13.113
50160W        W18554  25.531  28.612   0.427
50161W        W18555  22.210  18.383  14.715
50162W        W18556  23.958   8.118   2.254
50163W        W18557  11.370   9.716   1.646
50164W        W18558  13.314  23.965   2.257
50165W        W18559  13.148  22.754   1.265
50166W        W18560  31.109  16.585  12.079
50167W        W18561  21.132   2.286   4.376
50168W        W18562  25.623   3.716  10.351
50169W        W18563  33.845  41.245  10.778
50170W        W18564  39.459  11.715   1.017
50171W        W18565  18.794   9.220  13.417
50172W        W18566   9.960  22.014  14.555
50173W        W18567  18.766  35.737   1.930
50174W        W18568  31.378  40.826   2.465
50175W        W18569  16.585   7.722  13.497
50176W        W18570  16.313  44.333   3.920
50177W        W18571  27.492  25.686  14.258
50178W        W18572  43.906  33.499  13.464
50179W        W18573  26.575  32.728  12.079
50180W        W18574  26.600  43.200   5.085
50181W        W18575   8.870  24.229   0.970
50182W        W18576   1.490  14.180   1.650
50183W        W18577  11.202  40.872  11.327
50184W        W18578  15.742  26.978   2.340
50185W        W18579  44.977  36.574   1.565
50186W        W18580   0.579  26.133  13.917
50187W        W18581  26.958  37.349   1.876
50188W        W18582  38.139   1.714   0.502
50189W        W18583  12.375  19.536   2.775
50190W        W18584  12.858  31.022  12.314
50191W        W18585  40.053  29.450   3.561
50192W        W18586  21.302   7.391  11.963
50193W        W18587  44.471  43.874   5.049
50194W        W18588  43.023  33.950   0.706
50195W        W18589  42.113  43.298   3.070
50196W        W18590  25.442   3.729  14.936
50197W        W18591  17.286   3.916   3.390
50198W        W18592  21.930   8.192   2.936
50199W        W18593  38.775  34.529  10.118
50200W        W18594  29.452  35.124  12.671
50201W        W18595  21.540  14.707   1.867
50202W        W18596  42.215  35.015  13.884
50203W        W18597  17.312  23.231  10.693
50204W        W18598  25.032   5.441   2.383
50205W        W18599  24.592  25.032  11.611
50206W        W18600   5.332  41.878  11.683
50207W        W18601  17.197  44.996  14.923
50208W        W18602  33.546  19.089   4.855
50209W        W18603   4.841  41.068   1.739
50210W        W18604  31.966  20.660  14.869
50211W        W18605  12.877  44.492   1.637
50212W        W18606   0.964   6.213   2.339
50213W        W18607   0.987  37.464   0.732
50214W        W18608   5.015  26.293   0.260
50215W        W18609   0.070  40.343  13.564
50216W        W18610   8.304  12.898   3.256
50217W        W18611  34.767  30.957   1.629
50218W        W18612   9.096  40.415  14.578
50219W        W18613   9.266  31.072  12.335
50220W        W18614  38.842  27.505   1.872
50221W        W18615   3.845  43.455   2.392
50222W        W18616  36.105  20.092   2.007
50223W        W18617  19.499  36.185   0.234
50224W        W18618  31.046  24.245   4.022
50225W        W18619  13.535  17.315  11.256
50226W        W18620  43.460  32.873   3.225
50227W        W18621  30.900  37.963  11.993
50228W        W18622  30.444   4.053  11.224
50229W        W18623  34.579  34.097  14.956
50230W        W18624  31.741  42.284   0.032
50231W        W18625   4.406  23.789  13.917
50232W        W18626  30.884  15.498  11.663
50233W        W18627  10.910  20.026   2.747
50234W        W18628  30.901  24.455  13.109
50235W        W18629  32.964  25.006   0.685
50236W        W18630  11.377   1.724   2.219
50237W        W18631  16.682   8.972   3.181
50238W        W18632  22.102  25.649   3.913
50239W        W18633  15.310  12.570   2.355
50240W        W18634   2.319   4.485  13.933
50241W        W18635  25.521  15.756   0.909
50242W        W18636   7.318  20.297   1.704
50243W        W18637   6.733   8.330  12.752
50244W        W18638  44.040  30.396   2.367
50245W        W18639  18.778  23.903  13.340
50246W        W18640   7.178  26.587  14.335
50247W        W18641  35.001  28.830   3.701
50248W        W18642   9.216  13.582  14.416
50249W        W18643  30.561   5.783   0.218
50250W        W18644  35.887  32.194  14.570
50251W        W18645  12.665  34.131   2.664
50252W        W18646   9.427  20.173  11.588
50253W        W18647  41.455  18.651   1.005
50254W        W18648  30.475  27.541   4.104
50255W        W18649  22.581   9.722   3.287
50256W        W18650   9.484  24.267   4.122
50257W        W18651  21.806  37.824  13.832
50258W        W18652  18.361  39.332  12.885
50259W        W18653   2.028  26.547   4.123
50260W        W18654  16.247  17.532  12.463
50261W        W18655   7.673  30.184  11.664
50262W        W18656  16.469  11.726  11.101
50263W        W18657  12.354  17.299   3.064
50264W        W18658  41.823  37.571  14.357
50265W        W18659   6.219   4.160   0.367
50266W        W18660  15.609  33.704  12.571
50267W        W18661  22.745  35.069  11.160
50268W        W18662  12.659   7.481   2.420
50269W        W18663  38.812  34.873   1.832
50270W        W18664  26.689   7.663   3.804
50271W        W18665   0.261   6.444  14.839
50272W        W18666  26.147  15.766   1.430
50273W        W18667  20.363  12.592   2.668
50274W        W18668  17.393  13.614  11.137
50275W        W18669  38.059  25.399   0.263
50276W        W18670  18.037   5.660  13.947
50277W        W18671  44.004  10.382  14.513
50278W        W18672  18.878   0.941  10.931
50279W        W18673  41.798  33.450  13.959
50280W        W18674  41.065  40.316   0.903
50281W        W18675  44.017  33.864  12.622
50282W        W18676  44.033  24.670  13.396
50283W        W18677  10.687  20.670  12.630
50284W        W18678   6.242  31.748  10.742
50285W        W18679  39.488  12.750   1.571
50286W        W18680   2.098  16.391   3.793
50287W        W18681  27.514  20.755  12.645
50288W        W18682  11.819  35.228  11.972
50289W        W18683  43.012  44.504   3.692
50290W        W18684  42.438  44.585  14.748
50291W        W18685   4.857   1.211   2.020
50292W        W18686  12.232  44.539   2.199
50293W        W18687  33.160  43.351  14.750
50294W        W18688  34.594  12.142  13.964
50295W        W18689  19.301  25.243  14.786
50296W        W18690  43.735  13.433   4.301
50297W        W18691   7.828  31.513  10.714
50298W        W18692  42.978   8.765   1.189
50299W        W18693  26.529   0.260   2.374
50300W        W18694  25.565   6.444   1.886
50301W        W18695  38.856  23.181  10.993
50302W        W18696  33.046  43.526  12.107
50303W        W18697  24.903  10.167   0.660
50304W        W18698  33.942   9.581   3.593
50305W        W18699  29.610  37.921   4.627
50306W        W18700  11.637  13.087  11.199
50307W        W18701  39.456  21.174  13.745
50308W        W18702  21.077  22.909   1.206
50309W        W18703  16.520   1.248   4.068
50310W        W18704  29.439  44.447   4.065
50311W        W18705  37.271  21.105  12.508
50312W        W18706   2.601  35.625  11.177
50313W        W18707  19.697  20.498   4.165
50314W        W18708  16.118   0.766  13.440
50315W        W18709  25.636   8.633  12.918
50316W        W18710   1.795   6.259   1.976
50317W        W18711  37.337  10.829  13.949
50318W        W18712   0.893  39.152   4.564
50319W        W18713   7.669   1.976   2.417
50320W        W18714  22.081  30.228  12.137
50321W        W18715  23.749  13.592   0.400
50322W        W18716  21.740  14.168  11.624
50323W        W18717  17.488  19.422  13.390
50324W        W18718   9.901  36.868  11.700
50325W        W18719  43.320  29.038   4.883
50326W        W18720  32.519  20.982  13.548
50327W        W18721  38.001  15.829   2.801
50328W        W18722   6.918  18.309   3.311
50329W        W18723  32.583  28.302  12.966
50330W        W18724   0.804  10.150  14.266
50331W        W18725  23.521  39.369   0.324
50332W        W18726  21.265  19.285  13.000
50333W        W18727  23.740  44.953  14.015
50334W        W18728  17.053  18.009  12.420
50335W        W18729  26.678  22.094   1.640
50336W        W18730  11.851  39.453  11.772
50337W        W18731  16.517   6.963   1.772
50338W        W18732   2.015   7.527  14.043
50339W        W18733  31.995  27.785   1.441
50340W        W18734   1.329  27.146   2.382
50341W        W18735  21.543   6.515   9.908
50342W        W18736  31.919  29.605   1.621
50343W        W18737  20.277  40.822   3.673
50344W        W18738  29.905  42.449   0.920
50345W        W18739  39.031  24.291  14.937
50346W        W18740  24.744  20.584   0.253
50347W        W18741  22.920  16.796  11.560
50348W        W18742  18.272  31.409  14.968
50349W        W18743   0.017  13.741   1.281
50350W        W18744  44.663  18.763  12.146
50351W        W18745  29.185  42.851   4.654
50352W        W18746  17.129  41.129   2.845
50353W        W18747  33.237  42.461   3.165
50354W        W18748  38.764  10.906   3.209
50355W        W18749  14.621   5.999  12.374
50356W        W18750  32.976  13.147   3.590
50357W        W18751  35.140  36.479   4.169
50358W        W18752   0.389  11.584   4.279
50359W        W18753  44.108  32.659   3.598
50360W        W18754  29.716   6.354   4.477
50361W        W18755  14.642  12.951   3.136
50362W        W18756  40.088  30.259   3.028
50363W        W18757   6.371  32.711   3.267
50364W        W18758   4.988  41.097  12.378
50365W        W18759   7.445   4.868   5.191
50366W        W18760  24.226  39.339   2.408
50367W        W18761   4.733  27.624   3.931
50368W        W18762  27.983  35.106   4.920
50369W        W18763  10.429  19.946  14.926
50370W        W18764  32.278  15.514   9.874
50371W        W18765  20.490  42.597   1.277
50372W        W18766  21.760  21.497   1.761
50373W        W18767  31.069  39.084   3.734
50374W        W18768  33.819  20.111  14.499
50375W        W18769  34.607  33.200   1.346
50376W        W18770  42.890  28.172   1.967
50377W        W18771  43.866  44.201   0.710
50378W        W18772  29.324  42.057  11.648
50379W        W18773  23.510  29.586  13.831
50380W        W18774   1.251  39.938   2.972
50381W        W18775   4.850  42.716   2.254
50382W        W18776   9.052  40.418  12.622
50383W        W18777  27.839  35.404  12.833
50384W        W18778  34.560   2.028   2.278
50385W        W18779  18.319  32.493  13.799
50386W        W18780  34.675  42.519   1.835
50387W        W18781  16.986   0.547  11.108
50388W        W18782  15.461  29.683   1.725
50389W        W18783   5.839  10.265  13.838
50390W        W18784  35.604  12.547  12.066
50391W        W18785  33.520  20.652   2.694
50392W        W18786   5.069  32.655   2.304
50393W        W18787  24.226  26.737  13.030
50394W        W18788  13.414  22.762   0.388
50395W        W18789  12.359  38.594  13.107
50396W        W18790  21.843  15.493  12.073
50397W        W18791  37.095  11.740  14.870
50398W        W18792  39.126   4.497  14.013
50399W        W18793   6.763  21.181  13.382
50400W        W18794  44.352  37.159  13.661
50401W        W18795  28.146  29.657  14.770
50402W        W18796  22.837  18.657   4.856
50403W        W18797  14.558  25.786  12.022
50404W        W18798  30.541  35.858  12.339
50405W        W18799  31.436  28.285  14.300
50406W        W18800  29.138  38.046  13.319
50407W        W18801  18.225  37.831  12.891
50408W        W18802  25.623  34.518  10.175
50409W        W18803  36.113  19.615   1.769
50410W        W18804  41.482  26.581  14.376
50411W        W18805  14.163  10.239   0.902
50412W        W18806  31.530  21.550  14.001
50413W        W18807  14.243  25.982   0.760
50414W        W18808  24.259   3.717  11.059
50415W        W18809  35.597  27.994  10.567
50416W        W18810  25.036  14.538  12.581
50417W        W18811  29.070  29.741   4.191
50418W        W18812  25.172  29.025   2.811
50419W        W18813   5.737  13.898  14.077
50420W        W18814   1.288   3.524   3.798
50421W        W18815  34.522  29.135   0.913
50422W        W18816  25.057  40.827   2.345
50423W        W18817   3.409  28.505  10.764
50424W        W18818   6.225  27.956  11.201
50425W        W18819  25.023  12.044  13.207
50426W        W18820   2.432  43.515  14.959
50427W        W18821  32.978  37.450   3.824
50428W        W18822  12.650  13.068   0.227
50429W        W18823  24.174  26.553   2.818
50430W        W18824  16.663  24.443  14.425
50431W        W18825  20.789   3.199  10.641
50432W        W18826  39.581  24.697   4.117
50433W        W18827  37.383  36.323   1.481
50434W        W18828   3.139  15.124   2.718
50435W        W18829  38.603  38.376  11.959
50436W        W18830  10.567   6.312   2.353
50437W        W18831  40.874   6.550  13.484
50438W        W18832   2.531  32.506  12.630
50439W        W18833  17.840   7.191   0.880
50440W        W18834  32.134   8.748   2.114
50441W        W18835  42.222  23.620  13.961
50442W        W18836  41.435  12.627   1.393
50443W        W18837   2.987  29.517  10.714
50444W        W18838  30.423  11.716  12.833
50445W        W18839  25.423  21.008   0.698
50446W        W18840  14.698   0.617   9.736
50447W        W18841  28.235  13.017   3.597
50448W        W18842  23.489   8.476   0.320
50449W        W18843  12.240   3.478   4.201
50450W        W18844   4.801  16.331  11.243
50451W        W18845  32.253   0.327  13.791
50452W        W18846  17.235  32.892   3.351
50453W        W18847   3.353  12.952   2.505
50454W        W18848  25.734  10.659  14.069
50455W        W18849  35.534  42.251   0.525
50456W        W18850  44.386   2.841  11.927
50457W        W18851  18.497  23.595   3.350
50458W        W18852  30.976  20.288  12.881
50459W        W18853  35.565  21.624  11.206
50460W        W18854  15.247   4.660  10.721
50461W        W18855  43.763  42.295   4.596
50462W        W18856   6.085  44.427   3.052
50463W        W18857   5.422  31.951  11.043
50464W        W18858  33.367   4.350  12.451
50465W        W18859   3.910  26.226   2.213
50466W        W18860  41.170  43.413   4.689
50467W        W18861  21.031  38.338   0.869
50468W        W18862   5.430  26.670  11.464
50469W        W18863  12.762  26.683   1.933
50470W        W18864  22.534   9.699  12.940
50471W        W18865  12.370  30.206  13.527
50472W        W18866  22.312  14.995  13.418
50473W        W18867   7.716  37.980  11.887
50474W        W18868  30.084  12.142  12.890
50475W        W18869  31.540  44.738  13.585
50476W        W18870   0.304  34.395  12.841
50477W        W18871  20.978  25.094  13.309
50478W        W18872  43.234   8.275   1.918
50479W        W18873   4.076  41.590   2.196
50480W        W18874  13.186  14.815  12.364
50481W        W18875   5.857  27.499   3.866
50482W        W18876  41.945  31.773  14.435
50483W        W18877  27.309  24.744  12.631
50484W        W18878   1.116  34.359  11.954
50485W        W18879  14.079  35.071  14.105
50486W        W18880  31.074   0.002   4.855
50487W        W18881  20.819  25.035   0.116
50488W        W18882  15.251  23.171   2.745
50489W        W18883  29.096  40.004   4.752
50490W        W18884  38.302  35.269  13.333
50491W        W18885  40.020  16.027   4.044
50492W        W18886   9.142   1.040  11.452
50493W        W18887  36.006  10.932  12.211
50494W        W18888  20.044  30.414  13.814
50495W        W18889  22.233  40.009   1.750
50496W        W18890  11.866  28.539   4.624
50497W        W18891  17.201   8.192   4.755
50498W        W18892  12.406  25.776  11.541
50499W        W18893  11.215  29.612   2.845
50500W        W18894  42.369   4.734   4.665
50501W        W18895  16.862  11.806  14.394
50502W        W18896  13.129   7.817   3.215
50503W        W18897  17.199  44.040  14.849
50504W        W18898  29.972  43.286   4.777
50505W        W18899  37.658  16.202  12.248
50506W        W18900   9.881  32.579  12.937
50507W        W18901  10.470  42.586   2.718
50508W        W18902   5.845   3.729  11.988
50509W        W18903   4.173  43.292   1.592
50510W        W18904  24.156  22.278  11.105
50511W        W18905  29.235  25.512  11.520
50512W        W18906  31.221   1.981  14.390
50513W        W18907  37.491  21.444  13.808
50514W        W18908   2.090  31.376   1.445
50515W        W18909  37.598  36.044  13.376
50516W        W18910  44.782  34.472  13.854
50517W        W18911  42.425  16.369  11.580
50518W        W18912   2.344  37.464   0.975
50519W        W18913  44.346  36.147   4.663
50520W        W18914  40.114   3.714  14.824
50521W        W18915  11.382  32.489   2.612
50522W        W18916  27.099  41.800   1.495
50523W        W18917  29.345  20.629   1.755
50524W        W18918   1.265  30.733  10.423
50525W        W18919  40.774   0.788  12.457
50526W        W18920  42.695  38.027  11.167
50527W        W18921   5.202  12.722  14.419
50528W        W18922  30.999  16.748  14.689
50529W        W18923  44.243  14.254  12.943
50530W        W18924  14.532  42.062  11.503
50531W        W18925  35.038  24.945  12.103
50532W        W18926  33.920  32.001   0.313
50533W        W18927  24.994  28.919  13.366
50534W        W18928  24.619  37.320  12.581
50535W        W18929  42.511  14.805  11.658
50536W        W18930  24.673  37.310   1.738
50537W        W18931  11.771  44.027   0.412
50538W        W18932  39.876  39.800   3.772
50539W        W18933  38.516   9.844   1.827
50540W        W18934   9.090   7.791  13.000
50541W        W18935  18.716  24.414   0.890
50542W        W18936   0.760   6.264  12.628
50543W        W18937  23.767  30.117   3.808
50544W        W18938  32.144  12.520  11.267
50545W        W18939  33.388  21.147  13.568
50546W        W18940  43.456   9.516   1.719
50547W        W18941  41.994  25.777   0.501
50548W        W18942   7.419  34.041   3.870
50549W        W18943  12.337  24.090  14.012
50550W        W18944  22.223  11.482  14.430
50551W        W18945  36.394  19.113  14.757
50552W        W18946  18.716  23.786   2.245
50553W        W18947  32.662  31.882  11.934
50554W        W18948  21.946   2.794  12.540
50555W        W18949   1.819  29.723  13.454
50556W        W18950  18.869  19.574   3.770
50557W        W18951  13.351  30.061  11.049
50558W        W18952  15.286  10.821   4.551
50559W        W18953  41.472  16.776   0.706
50560W        W18954  18.142  37.164  11.596
50561W        W18955  23.710  39.010   2.162
50562W        W18956   4.452   8.712  14.217
50563W        W18957   5.136  39.012   2.098
50564W        W18958  25.226  10.637  12.897
50565W        W18959  13.696  42.526   0.014
50566W        W18960   5.388  30.197  13.823
50567W        W18961  28.934  26.019   0.278
50568W        W18962  28.932  23.582  13.854
50569W        W18963  40.398  36.658  14.767
50570W        W18964  22.671   5.355  14.016
50571W        W18965   6.399   2.937   4.956
50572W        W18966   5.477   4.192  12.123
50573W        W18967  36.156  28.702   3.169
50574W        W18968  11.122  29.556   0.285
50575W        W18969  41.178   9.456  11.233
50576W        W18970  27.288  13.269   1.794
50577W        W18971  17.232  29.507  14.788
50578W        W18972  22.701  31.935   3.935
50579W        W18973  30.635   6.386  12.986
50580W        W18974  42.523   4.665  12.519
50581W        W18975  34.307   6.407  14.235
50582W        W18976  21.859  10.909  11.326
50583W        W18977  24.923  27.110  10.858
50584W        W18978  38.487  25.938  13.973
50585W        W18979  16.898  16.676   0.439
50586W        W18980  41.257  35.789  13.609
50587W        W18981  14.524  11.361   0.723
50588W        W18982  20.788  19.942   3.340
50589W        W18983  26.618   5.729  11.587
50590W        W18984  41.093  13.687   0.255
50591W        W18985  18.769  41.559  13.541
50592W        W18986  29.935  16.132   3.572
50593W        W18987  19.945   4.920  13.478
50594W        W18988  28.489  10.421  11.974
50595W        W18989   3.737  14.112   0.838
50596W        W18990   8.220  38.342   2.184
50597W        W18991  12.309   2.929  10.828
50598W        W18992   5.910   3.928   0.830
50599W        W18993  39.935  44.955  10.756
50600W        W18994  18.170   7.115  12.013
50601W        W18995  32.032  21.104  11.412
50602W        W18996  27.222   1.853  14.129
50603W        W18997  20.412  12.836   3.643
50604W        W18998  19.502  35.090  11.163
50605W        W18999  27.475  22.475   3.172
50606W        W19000  19.543  18.323  12.596
50607W        W19001  41.801   8.874  13.615
50608W        W19002  39.597  11.731   2.282
50609W        W19003  20.437  22.695  11.482
50610W        W19004  22.133  29.224  13.529
50611W        W19005  22.153  11.263  11.072
50612W        W19006  43.555  24.515   0.319
50613W        W19007  22.721  13.226   1.305
50614W        W19008  20.983  40.432   0.396
50615W        W19009  40.050  44.241  11.941
50616W        W19010  31.860   5.990  13.394
50617W        W19011  13.152  40.824  13.833
50618W        W19012  16.479  33.826  13.722
50619W        W19013  41.000   5.475  14.801
50620W        W19014  36.135  38.320  12.287
50621W        W19015  33.746  37.470   1.315
50622W        W19016  19.872  15.686  13.360
50623W        W19017  18.589  27.362  13.345
50624W        W19018  33.711  42.953  11.733
50625W        W19019  25.032  44.377   3.023
50626W        W19020  22.684  20.055  14.546
50627W        W19021  42.348   0.045   4.748
50628W        W19022  17.153  17.112   1.670
50629W        W19023  25.999  34.266  14.358
50630W        W19024  40.051  28.674  11.915
50631W        W19025   3.032  33.865  13.823
50632W        W19026   9.980   7.562  14.464
50633W        W19027  13.478   2.945  13.965
50634W        W19028  32.042  13.731   1.695
50635W        W19029   3.762  27.592  13.949
50636W        W19030  29.454   4.671  12.454
50637W        W19031  30.718  17.502   2.645
50638W        W19032  41.101  10.320  14.249
50639W        W19033   9.661  38.956  10.513
50640W        W19034  22.197   5.082   0.170
50641W        W19035   4.285  37.662   2.137
50642W        W19036  22.617   1.769  12.573
50643W        W19037  35.377   9.141   0.797
50644W        W19038  37.516   2.386   3.119
50645W        W19039  14.815  19.174  14.382
50646W        W19040  25.198   6.686   0.717
50647W        W19041   1.103   2.663   1.198
50648W        W19042  26.043  22.685   1.050
50649W        W19043  30.979  15.270   4.091
50650W        W19044  27.133   6.902  14.913
50651W        W19045  31.579  27.950   4.673
50652W        W19046  43.389  21.026  11.219
50653W        W19047  36.284   8.206   0.765
50654W        W19048  41.806  24.055  10.820
50655W        W19049  20.836  29.665  11.623
50656W        W19050  36.044  14.097   3.766
50657W        W19051  34.616  12.823   0.040
50658W        W19052   7.355   1.536   0.210
50659W        W19053  35.282  41.018   0.400
50660W        W19054  37.495   0.002  11.404
50661W        W19055  31.091   1.003   3.611
50662W        W19056   0.896  17.897  14.921
50663W        W19057  19.043  44.913   1.962
50664W        W19058  34.758  32.956  14.969
50665W        W19059  37.462  42.724   2.644
50666W        W19060  28.719  41.526  11.862
50667W        W19061  16.779   5.276  13.120
50668W        W19062   9.969  21.047  11.422
50669W        W19063   7.784  40.504   2.077
50670W        W19064  43.063  25.501   4.097
50671W        W19065   2.300  24.552  13.035
50672W        W19066  30.556  36.863  13.878
50673W        W19067   3.185   6.153   1.437
50674W        W19068  14.339  23.730   1.555
50675W        W19069  30.669  12.106  12.608
50676W        W19070   7.315  10.390   2.644
50677W        W19071  35.454  10.083  12.018
50678W        W19072  29.440  25.440   3.204
50679W        W19073  44.802  18.770   1.648
50680W        W19074  17.553  34.912  14.474
50681W        W19075  14.638   7.227   1.137
50682W        W19076   2.618  31.552   0.576
50683W        W19077  24.604  30.371   4.557
50684W        W19078  13.194  34.694   0.385
50685W        W19079  26.878   9.336   3.205
50686W        W19080  32.648  31.090   1.201
50687W        W19081  23.784   2.264   1.261
50688W        W19082  44.849   7.359  13.982
50689W        W19083  40.026   7.346   0.415
50690W        W19084  39.344  19.161   4.609
50691W        W19085  30.159   6.993   3.224
50692W        W19086  31.470   3.642  14.487
50693W        W19087  21.469   8.685  14.706
50694W        W19088  32.169  11.894   0.502
50695W        W19089   5.411   5.765   0.360
50696W        W19090  30.654  10.276  12.119
50697W        W19091   5.819  35.350  13.405
50698W        W19092  28.048  25.133   0.241
50699W        W19093   1.897  14.517   0.925
50700W        W19094  16.420  40.664  13.076
50701W        W19095  19.376  37.934   5.019
50702W        W19096  11.957   7.932  13.097
50703W        W19097  28.148  11.991  14.003
50704W        W19098  33.653  11.760  13.991
50705W        W19099  11.615  44.695   0.910
50706W        W19100  14.245  36.322  12.666
50707W        W19101  29.913  14.750  13.798
50708W        W19102  35.592  16.779   2.457
50709W        W19103  13.739  20.062  11.207
50710W        W19104  32.949  44.268   4.397
50711W        W19105   9.225  15.362  11.357
50712W        W19106   7.262   4.640  11.007
50713W        W19107  31.419  38.534  12.671
50714W        W19108   8.585  26.251  14.823
50715W        W19109  35.889  24.843   1.824
50716W        W19110  24.324  16.243   0.967
50717W        W19111  29.804  16.760  12.399
50718W        W19112  21.081   8.930  14.473
50719W        W19113  27.573   9.683   0.303
50720W        W19114  13.126  36.511  10.647
50721W        W19115  15.821  41.478   3.741
50722W        W19116   1.888  24.074  13.905
50723W        W19117   3.022  35.062   0.617
50724W        W19118  20.566  39.362   3.090
50725W        W19119   5.239  43.268  11.667
50726W        W19120   5.003  34.499   1.443
50727W        W19121  15.818  21.676   4.683
50728W        W19122  14.182  14.843  13.438
50729W        W19123  11.790   6.413  12.495
50730W        W19124  22.148  15.261   1.440
50731W        W19125  16.153  19.636  14.346
50732W        W19126   3.774   0.516   2.296
50733W        W19127  17.053   7.834   2.146
50734W        W19128  40.942  43.881   1.311
50735W        W19129  44.312  31.382  14.365
50736W        W19130   2.958  28.217   2.560
50737W        W19131  30.018  37.918   2.971
50738W        W19132  37.561  20.835  12.188
50739W        W19133  39.592   9.311  13.392
50740W        W19134  22.191  21.948   3.706
50741W        W19135   1.860   3.966  13.634
50742W        W19136  31.936  41.574  12.055
50743W        W19137  11.592  43.328   2.634
50744W        W19138  16.276   0.577  12.029
50745W        W19139  34.520   9.421   2.739
50746W        W19140  25.967  22.529  13.442
50747W        W19141   7.622   5.307   0.516
50748W        W19142  16.841  33.418  14.447
50749W        W19143  33.497  28.216   2.806
50750W        W19144  38.079   7.172  13.421
50751W        W19145  29.488  36.367  13.342
50752W        W19146   0.727  13.733  12.968
50753W        W19147  10.770  11.913  11.859
50754W        W19148   0.964  37.862  12.120
50755W        W19149  27.508  38.949  12.570
50756W        W19150  16.125  16.604  12.943
50757W        W19151  20.700   9.755   4.418
50758W        W19152  20.468  44.318  14.808
50759W        W19153   4.697   9.884  10.044
50760W        W19154  29.833   1.314  14.501
50761W        W19155  12.390  26.529  12.917
50762W        W19156   4.415  19.116   0.818
50763W        W19157  15.052  44.300   0.366
50764W        W19158  23.114  36.793   0.270
50765W        W19159  22.958  39.981  14.325
50766W        W19160  22.632  27.715  14.441
50767W        W19161  31.051  13.326  11.699
50768W        W19162  44.450  34.092   4.644
50769W        W19163  39.105  44.042  11.035
50770W        W19164   8.750   3.858   4.660
50771W        W19165  24.505  42.950  11.594
50772W        W19166  43.967  17.320   1.290
50773W        W19167  26.522  30.024   4.578
50774W        W19168   1.679   7.983  14.910
50775W        W19169  34.048  20.858   3.121
50776W        W19170  23.093  41.879  12.074
50777W        W19171  13.673   8.863  10.744
50778W        W19172  20.460   6.464  10.370
50779W        W19173  28.698  24.954   5.012
50780W        W19174  28.398  31.260  14.282
50781W        W19175   8.413  44.291   4.699
50782W        W19176  15.804  28.943  14.854
50783W        W19177  14.582   7.158  14.388
50784W        W19178  10.146   2.613  12.951
50785W        W19179  12.628  24.096   0.270
50786W        W19180   9.917  23.657  13.890
50787W        W19181  36.526  22.566   1.243
50788W        W19182  37.990  33.049   2.038
50789W        W19183   1.374  37.635   0.002
50790W        W19184  29.789  20.269   2.315
50791W        W19185  38.079  14.605  14.936
50792W        W19186   6.265  44.974   1.311
50793W        W19187  14.175  25.192  13.439
50794W        W19188  28.640   9.394  12.026
50795W        W19189   9.954  29.527  12.495
50796W        W19190  42.717  41.028   3.130
50797W        W19191  40.793   3.326   3.417
50798W        W19192  26.655  36.670   4.496
50799W        W19193  42.471  11.065   3.266
50800W        W19194  25.393  29.529  10.775
50801W        W19195  37.184   4.586   1.362
50802W        W19196   4.841   6.749   2.894
50803W        W19197  42.242  25.141  13.456
50804W        W19198  32.894  22.104  11.179
50805W        W19199  20.510   0.708  12.414
50806W        W19200  13.771  30.219   2.206
50807W        W19201  19.361  16.318   2.335
50808W        W19202  25.065  28.079  12.879
50809W        W19203  17.102  32.680   2.166
50810W        W19204  34.839  27.871   3.522
50811W        W19205  22.145  43.253  10.675
50812W        W19206  25.512   5.696   2.268
50813W        W19207  23.739   9.201   1.818
50814W        W19208   7.482  31.431   0.867
50815W        W19209  14.175  35.571  14.006
50816W        W19210  44.606   8.923   3.134
50817W        W19211  14.175   0.656   0.891
50818W        W19212  24.685   0.348  14.676
50819W        W19213  33.027  28.389   4.629
50820W        W19214  38.865  16.499   3.762
50821W        W19215   9.614  22.501   2.710
50822W        W19216  30.596  21.881   0.459
50823W        W19217  27.146  33.076   0.718
50824W        W19218   9.116  42.364   3.970
50825W        W19219  27.927   7.834   1.221
50826W        W19220   9.270  32.332   5.020
50827W        W19221  32.752   7.357   3.410
50828W        W19222  17.085  23.415   2.952
50829W        W19223  28.669  30.066   0.358
50830W        W19224  39.129  38.784   2.023
50831W        W19225  42.820  10.172  13.132
50832W        W19226  36.950  14.154   1.466
50833W        W19227   6.718  43.361  12.511
50834W        W19228   4.673  11.826  12.429
50835W        W19229  27.474  16.757   2.306
50836W        W19230  38.801  41.914  14.764
50837W        W19231  26.234  30.018   2.757
50838W        W19232  39.727  25.755  12.105
50839W        W19233  19.442  23.158   1.385
50840W        W19234  29.054   9.425   1.287
50841W        W19235   0.057  18.457  14.246
50842W        W19236  15.576  33.589  14.701
50843W        W19237  30.414   8.230   4.694
50844W        W19238  10.636  28.093  14.058
50845W        W19239  33.399   6.416   1.297
50846W        W19240  16.757  41.308   4.568
50847W        W19241   1.028  44.669   1.358
50848W        W19242  26.099  15.091  10.722
50849W        W19243  21.009  20.077   1.369
50850W        W19244  24.686  19.031   4.594
50851W        W19245   8.009   9.103  11.127
50852W        W19246  27.991  23.867  11.512
50853W        W19247  26.358   5.402  14.393
50854W        W19248  27.719   0.286  14.346
50855W        W19249   5.435  27.731   3.662
50856W        W19250  37.427  18.477  13.313
50857W        W19251  39.499  10.338  13.475
50858W        W19252  21.816  18.314   1.302
50859W        W19253  17.427  41.846   4.294
50860W        W19254   6.164  28.135   3.207
50861W        W19255  29.656  37.489   4.931
50862W        W19256  43.497  43.000   2.368
50863W        W19257  24.502   9.587   9.845
50864W        W19258  27.050  17.725  14.783
50865W        W19259  11.368  17.127  11.610
50866W        W19260   3.256  36.046   4.422
50867W        W19261  26.978  23.219  13.089
50868W        W19262  10.461   1.749   4.543
50869W        W19263   6.311   2.018  11.639
50870W        W19264  27.531  10.709  12.173
50871W        W19265  36.070  13.869  14.854
50872W        W19266  27.143  25.989   4.230
50873W        W19267  30.042   9.669  12.497
50874W        W19268  26.120  37.822   2.434
50875W        W19269  16.852  43.568   4.128
50876W        W19270  29.360  40.288   3.867
50877W        W19271  28.694  14.894   1.628
50878W        W19272  28.382  11.258   4.200
50879W        W19273  10.542  26.598   4.291
50880W        W19274  24.761  17.682  11.073
50881W        W19275  29.978  32.811   4.625
50882W        W19276  44.988  34.814   3.708
50883W        W19277  20.114  25.555  11.154
50884W        W19278  18.778   3.961  13.539
50885W        W19279  25.345  25.956   1.667
50886W        W19280   3.276  34.255  10.657
50887W        W19281  44.742   4.740  13.791
50888W        W19282   3.733  34.685   4.213
50889W        W19283   1.358   1.322   2.284
50890W        W19284  42.033   2.991   1.812
50891W        W19285   1.223  39.540   0.772
50892W        W19286  43.516  13.885   0.308
50893W        W19287  25.680  29.120  12.589
50894W        W19288  42.372  43.414  12.988
50895W        W19289  15.682   5.761   2.704
50896W        W19290   7.809  30.012   1.681
50897W        W19291  28.263  44.527  13.836
50898W        W19292  40.863  11.035  13.862
50899W        W19293  21.125  39.800   1.350
50900W        W19294  33.898   4.735   3.575
50901W        W19295  43.852   6.349   0.830
50902W        W19296  34.858  22.923   1.306
50903W        W19297  27.212  34.458   3.057
50904W        W19298  29.005  38.571   1.249
50905W        W19299  20.447  27.957   2.142
50906W        W19300  14.893  20.380   0.219
50907W        W19301  30.408   8.385   2.086
50908W        W19302  34.526  40.106   1.480
50909W        W19303  23.689  15.038   0.749
50910W        W19304  40.803  10.071   2.148
50911W        W19305   3.693   9.425  14.826
50912W        W19306  11.184   8.697  13.359
50913W        W19307  11.266   2.301   2.889
50914W        W19308  39.239  36.751  11.557
50915W        W19309  20.176  19.481   2.617
50916W        W19310  33.638   3.707  13.889
50917W        W19311  40.755   6.069  13.491
50918W        W19312  27.030  34.659   4.151
50919W        W19313  37.960  33.441  12.113
50920W        W19314  12.940   0.901   2.844
50921W        W19315  12.659  16.756   0.246
50922W        W19316   7.930  44.388   1.703
50923W        W19317   0.612  27.246   4.266
50924W        W19318  41.365  43.311  14.494
50925W        W19319  41.289  19.450   1.207
50926W        W19320   2.315   0.206  14.060
50927W        W19321  12.799  25.122   4.137
50928W        W19322  41.427  18.043   0.167
50929W        W19323  32.398  10.209   2.225
50930W        W19324  15.016   9.375   3.578
50931W        W19325   0.458  21.737   2.271
50932W        W19326  23.051   4.664  13.433
50933W        W19327  40.920  27.093   4.699
50934W        W19328   3.038   1.956  12.445
50935W        W19329  29.507  11.262   1.500
50936W        W19330  26.997   4.403  13.580
50937W        W19331  23.174  15.901   0.438
50938W        W19332  29.487  34.928  13.542
50939W        W19333  43.871  34.905   1.955
50940W        W19334  26.370  42.601   4.078
50941W        W19335   4.460  12.873  13.851
50942W        W19336  34.939  19.265  12.083
50943W        W19337  21.429  17.431   2.361
50944W        W19338  14.841  25.216   3.517
50945W        W19339  32.518   7.910   0.837
50946W        W19340  10.764  43.427  10.557
50947W        W19341  36.608  19.616  13.421
50948W        W19342  10.200  17.059  13.464
50949W        W19343   2.519   4.963   3.755
50950W        W19344  38.599   5.261   1.621
50951W        W19345  10.348  25.971  12.141
50952W        W19346  42.912  22.485   2.389
50953W        W19347   7.364  40.208   3.755
50954W        W19348   7.630  13.623   0.858
50955W        W19349  35.630  21.013  12.972
50956W        W19350  21.118   0.476   4.562
50957W        W19351  26.392  24.768   1.633
50958W        W19352  36.984  11.124   1.445
50959W        W19353  28.562   1.947  10.471
50960W        W19354   9.359  10.899  11.531
50961W        W19355  43.902  37.358  12.008
50962W        W19356  22.532  37.971  12.418
50963W        W19357  36.173  21.238  14.040
50964W        W19358  21.774  21.017  10.814
50965W        W19359  42.303  38.292   1.927
50966W        W19360  14.831  36.781  14.972
50967W        W19361   0.610  12.171  13.298
50968W        W19362  34.386  10.200  10.995
50969W        W19363   7.914  28.561  11.183
50970W        W19364  28.365   4.224   4.239
50971W        W19365  44.815  23.957   0.514
50972W        W19366  39.020  19.669  10.295
50973W        W19367  31.471   4.751   3.339
50974W        W19368  21.693   3.834   1.392
50975W        W19369   1.696  37.513  12.481
50976W        W19370  32.605  21.649  14.344
50977W        W19371   3.060  43.875   4.711
50978W        W19372  44.649   1.338   2.847
50979W        W19373  32.798   4.667   1.278
50980W        W19374  35.167  16.399  11.543
50981W        W19375   5.074  35.387   1.916
50982W        W19376   6.159   5.775   2.805
50983W        W19377   3.852  31.071  12.567
50984W        W19378  18.157  18.709   0.872
50985W        W19379   0.308  31.746  12.636
50986W        W19380   8.805  15.101  12.089
50987W        W19381  41.522  21.699   4.147
50988W        W19382  27.980  26.135   3.857
50989W        W19383  38.295  24.735   2.421
50990W        W19384  18.765   1.369  14.822
50991W        W19385  33.050  18.520  13.831
50992W        W19386   2.706  42.790   2.197
50993W        W19387  10.675   9.260  10.975
50994W        W19388   2.762   5.643   0.756
50995W        W19389  34.803   0.888   3.689
50996W        W19390  33.011  37.484  12.008
50997W        W19391  34.660  28.276  10.896
50998W        W19392  17.246  18.440  11.521
50999W        W19393   5.740  32.387   0.301
51000W        W19394   8.610  33.565  10.740
51001W        W19395  29.443   6.466   1.198
51002W        W19396  11.674   0.946  12.876
51003W        W19397  30.308  20.150   0.952
51004W        W19398  27.690  11.346  12.107
51005W        W19399  18.184  37.502   1.791
51006W        W19400  30.904  13.086   2.043
51007W        W19401  40.215  39.370   0.840
51008W        W19402  17.419  17.979   3.658
51009W        W19403  32.154  11.656  11.211
51010W        W19404  13.532  38.502   4.227
51011W        W19405  37.379  34.901   3.309
51012W        W19406  21.058  36.677  14.337
51013W        W19407   0.326   9.813   1.511
51014W        W19408  15.618  27.256   4.967
51015W        W19409  42.441  33.982   4.330
51016W        W19410  26.120  44.568  11.346
51017W        W19411  32.830  34.722  11.438
51018W        W19412  28.565   8.089  11.507
51019W        W19413   6.856   2.899   1.467
51020W        W19414  22.111  36.161   1.859
51021W        W19415   0.673  35.656  12.454
51022W        W19416  38.374  30.628   0.941
51023W        W19417  15.640  21.581   0.840
51024W        W19418  42.953   3.112  13.521
51025W        W19419  38.007  24.127  10.538
51026W        W19420  37.010  29.250   3.377
51027W        W19421  28.162   5.183   2.559
51028W        W19422  35.473   4.919  10.886
51029W        W19423  17.242  13.768   4.540
51030W        W19424  16.708  44.363  12.384
51031W        W19425  33.014   9.611  13.926
51032W        W19426  41.805   9.778  10.964
51033W        W19427   5.673  41.793   0.928
51034W        W19428   1.356   0.517   2.915
51035W        W19429   6.943  22.769  11.514
51036W        W19430  33.843  12.365  14.774
51037W        W19431   7.963  15.633   2.314
51038W        W19432   8.953  36.446   2.855
51039W        W19433   5.488  44.835   2.392
51040W        W19434  23.423  17.824   3.350
51041W        W19435  10.261  17.159   5.051
51042W        W19436  13.633  40.907  14.084
51043W        W19437  20.608  37.527   3.120
51044W        W19438  29.089  32.506  14.554
51045W        W19439  27.613  14.097   2.200
51046W        W19440  32.162  10.137  12.588
51047W        W19441  25.227   4.382  14.581
51048W        W19442  42.739  44.926  13.009
51049W        W19443  32.827  29.865   2.380
51050W        W19444   4.924  43.674   3.143
51051W        W19445  43.985  27.151   2.408
51052W        W19446   8.559  33.111   1.398
51053W        W19447  16.414  34.446   3.941
51054W        W19448  13.182  42.931   3.177
51055W        W19449  30.073  32.371   1.075
51056W        W19450  24.878  43.851   2.316
51057W        W19451  28.058   0.693  14.358
51058W        W19452  34.453  15.234  13.345
51059W        W19453  35.078  23.960   0.482
51060W        W19454  43.735  26.700  13.450
51061W        W19455  19.308  29.072  13.888
51062W        W19456  27.004  29.212  14.291
51063W        W19457  15.217  20.036  11.628
51064W        W19458  38.341  42.569  14.013
51065W        W19459  14.577  32.513   1.913
51066W        W19460  32.734  37.553   1.135
51067W        W19461  35.636   8.147   3.960
51068W        W19462   7.423   8.835  10.656
51069W        W19463  34.879  22.175   2.741
51070W        W19464  23.081  33.947   1.457
51071W        W19465   7.640  37.577  10.262
51072W        W19466  20.180  24.729  13.290
51073W        W19467   3.627   6.872  14.357
51074W        W19468   1.221   5.714  11.172
51075W        W19469   0.719  43.819   2.729
51076W        W19470  38.263  30.854  14.437
51077W        W19471  14.943  15.712   0.465
51078W        W19472   3.379  27.928  13.905
51079W        W19473  34.397  18.010  14.496
51080W        W19474   4.777   1.733  12.915
51081W        W19475   4.752  41.976   0.313
51082W        W19476  43.469   9.462   2.981
51083W        W19477  13.210  26.177  11.659
51084W        W19478   4.845  12.821   0.017
51085W        W19479   3.242  25.565  14.239
51086W        W19480  27.384  21.198  12.387
51087W        W19481  23.974  17.162  12.516
51088W        W19482  37.200  35.399   2.430
51089W        W19483  36.111  12.705  12.200
51090W        W19484  25.192  35.040   3.179
51091W        W19485  37.855   5.696   4.520
51092W        W19486  22.483  13.396  11.050
51093W        W19487  22.632  40.327  10.816
51094W        W19488  34.039  29.526   3.081
51095W        W19489  20.922  42.428  12.371
51096W        W19490  43.585  41.016   4.044
51097W        W19491  29.229  36.569  12.896
51098W        W19492  24.506   1.232  10.234
51099W        W19493   0.554   8.411  12.981
51100W        W19494  37.961  43.809  14.007
51101W        W19495  36.750  20.209  11.659
51102W        W19496   9.915  28.128  12.616
51103W        W19497  11.164   2.984  14.780
51104W        W19498   3.914  28.546  10.563
51105W        W19499  30.895  26.098  14.931
51106W        W19500   4.406  30.710   0.777
51107W        W19501  18.606   0.941   4.206
51108W        W19502  10.862  24.101   2.852
51109W        W19503  43.031  10.239  10.725
51110W        W19504  36.948   6.287   4.547
51111W        W19505   1.365   8.816   1.610
51112W        W19506  35.596  42.512   3.392
51113W        W19507  29.411   7.067   4.981
51114W        W19508  41.050  10.336  11.558
51115W        W19509  27.426  31.081   0.498
51116W        W19510  25.383  19.617   2.412
51117W        W19511   6.454  22.345   2.960
51118W        W19512  29.990  13.895   1.442
51119W        W19513   6.789  44.839  12.883
51120W        W19514  31.166  14.568   4.409
51121W        W19515  20.681  20.480  13.838
51122W        W19516   8.010  28.426  13.527
51123W        W19517  32.479  19.183   3.197
51124W        W19518  11.479  21.139  13.372
51125W        W19519  34.899   8.927  12.544
51126W        W19520  37.345  18.107  10.680
51127W        W19521  22.180  13.351  14.806
51128W        W19522  39.418  41.036   0.477
51129W        W19523   2.700  20.843   3.906
51130W        W19524  39.568   1.769   3.282
51131W        W19525  17.160  21.788  10.566
51132W        W19526  17.221  44.918   2.361
51133W        W19527  31.644   3.282   0.650
51134W        W19528  35.895   8.586   3.909
51135W        W19529  21.398  22.420   4.615
51136W        W19530  29.700  17.808   3.288
51137W        W19531  33.297  11.872   3.079
51138W        W19532  44.226  21.399  11.076
51139W        W19533  27.133  15.542  11.114
51140W        W19534  36.476   5.453  13.450
51141W        W19535  44.306  14.647   2.485
51142W        W19536  27.451   4.941   3.195
51143W        W19537   6.310  31.930   2.771
51144W        W19538  32.878  16.478  14.679
51145W        W19539  14.644  41.365   0.844
51146W        W19540  30.633   6.684   1.658
51147W        W19541  22.172   4.332  13.053
51148W        W19542  34.013  17.176   2.874
51149W        W19543  23.411  15.409  12.619
51150W        W19544   2.685  42.450  14.456
51151W        W19545  31.140   2.408   1.855
51152W        W19546  19.262  19.794   1.293
51153W        W19547   9.351  30.046   4.019
51154W        W19548  32.369   0.089  12.536
51155W        W19549  15.626   0.930   1.854
51156W        W19550   1.259  27.579   2.673
51157W        W19551  16.528   1.822   0.737
51158W        W19552  33.885   5.886   0.255
51159W        W19553   3.682   9.071  12.981
51160W        W19554  37.792  22.800  13.084
51161W        W19555  43.070  18.163  12.059
51162W        W19556  33.684  35.490   0.416
51163W        W19557  21.121  40.549   4.627
51164W        W19558  21.784   4.302  11.413
51165W        W19559  34.854  11.383  12.348
51166W        W19560   5.057  15.282  13.467
51167W        W19561  20.145  24.073   3.369
51168W        W19562  41.336  38.209  12.624
51169W        W19563  37.028   2.395   2.918
51170W        W19564   5.352  34.134   4.603
51171W        W19565  10.847  35.401   4.508
51172W        W19566  40.897  18.106   3.367
51173W        W19567   3.097  42.572  11.320
51174W        W19568   6.597  13.042  14.029
51175W        W19569  33.543  31.968  11.964
51176W        W19570  13.407  22.135  11.673
51177W        W19571  38.423  33.313  12.486
51178W        W19572  39.077   9.427   4.520
51179W        W19573   9.716  12.055  13.313
51180W        W19574  30.085  14.342   4.673
51181W        W19575  38.751   2.888   1.935
51182W        W19576  14.243   5.443  12.909
51183W        W19577  32.918   9.822   2.896
51184W        W19578  21.597  42.682   2.173
51185W        W19579  25.147   3.925  12.670
51186W        W19580   5.864  27.437   1.707
51187W        W19581   4.915  26.283   4.900
51188W        W19582  35.261  37.004   2.334
51189W        W19583  31.652  12.350  12.451
51190W        W19584  37.289  21.739  14.345
51191W        W19585  25.261   2.933  14.723
51192W        W19586  31.401  13.213   0.822
51193W        W19587   2.216  33.991   1.877
51194W        W19588  19.166  16.673  13.857
51195W        W19589   2.216  32.128  14.856
51196W        W19590  44.431  40.977   4.599
51197W        W19591  16.356  21.412  11.935
51198W        W19592  30.762  20.551  12.474
51199W        W19593   9.641  29.163   1.055
51200W        W19594  15.152  23.719   4.275
51201W        W19595   5.403   2.942  12.921
51202W        W19596  18.263  28.006   1.212
51203W        W19597  40.536  18.810  10.727
51204W        W19598  24.594   1.472  14.334
51205W        W19599  32.409  29.606   1.975
51206W        W19600   3.178   7.825   2.084
51207W        W19601  29.015  22.184   4.286
51208W        W19602   8.367  12.103   2.868
51209W        W19603  24.715  30.572  10.867
51210W        W19604  23.184  43.396   3.754
51211W        W19605  13.879  25.662  11.550
51212W        W19606  13.907   0.952  14.250
51213W        W19607  21.121  23.604   0.429
51214W        W19608  21.225  32.109  14.893
51215W        W19609  27.121   4.446  11.665
51216W        W19610  32.350   7.812  11.128
51217W        W19611   4.204  20.569   4.758
51218W        W19612  18.720   6.923  13.431
51219W        W19613  24.561  41.939  11.707
51220W        W19614  25.014  42.337  12.023
51221W        W19615  27.489  36.792  14.654
51222W        W19616   6.206  38.952   0.801
51223W        W19617  15.623   0.411  12.717
51224W        W19618   4.937   3.003  10.651
51225W        W19619  39.917  42.801  13.412
51226W        W19620  18.068  34.042  12.005
51227W        W19621  11.373  24.756  14.859
51228W        W19622  30.908  30.371  13.535
51229W        W19623  21.011  13.291   0.457
51230W        W19624  18.068  21.438  12.409
51231W        W19625  17.040  25.066  14.376
51232W        W19626  12.591  32.416  11.660
51233W        W19627  34.795  12.338   0.810
51234W        W19628   1.947   5.188   0.020
51235W        W19629  16.306  24.788  11.119
51236W        W19630   2.969  30.921   1.045
51237W        W19631  44.751   4.826  12.745
51238W        W19632   4.220  16.161  13.855
51239W        W19633  34.406  40.032  12.638
51240W        W19634  23.574  36.572   0.192
51241W        W19635  17.461   1.222  10.681
51242W        W19636  26.183  40.449   4.724
51243W        W19637  12.609   6.306   2.839
51244W        W19638  12.727  26.252   1.635
51245W        W19639  26.780  13.350  12.420
51246W        W19640  23.719  19.663  12.200
51247W        W19641  27.037  12.648  14.780
51248W        W19642  44.761  22.762   2.475
51249W        W19643  28.623  24.546   1.297
51250W        W19644  26.848   9.628  13.016
51251W        W19645   2.635  21.063   2.763
51252W        W19646  37.481   6.757   0.740
51253W        W19647  29.177   1.013  12.524
51254W        W19648   6.363   2.316  11.166
51255W        W19649  37.089  31.994  11.936
51256W        W19650  27.728  16.864   1.538
51257W        W19651  44.029  25.559  10.723
51258W        W19652  31.195  41.211   0.396
51259W        W19653  36.927  44.798  10.716
51260W        W19654   1.867  25.959  13.988
51261W        W19655  21.142   0.786  10.476
51262W        W19656  11.648  44.494   3.451
51263W        W19657  13.081  16.200  11.973
51264W        W19658  39.002  28.395  10.690
51265W        W19659  36.013   8.345  14.731
51266W        W19660  26.473   1.410  10.112
51267W        W19661  16.917  39.334  14.607
51268W        W19662  40.308  36.111   3.622
51269W        W19663   9.728  21.071  12.698
51270W        W19664  21.937   8.873  14.627
51271W        W19665  42.735  36.116  13.485
51272W        W19666  28.960  30.087  13.413
51273W        W19667  14.047  39.000   1.751
51274W        W19668  37.824  41.394  13.452
51275W        W19669  38.490  30.220  10.657
51276W        W19670   2.848   8.683   3.652
51277W        W19671  11.104  21.971   0.471
51278W        W19672  31.964  11.813   2.298
51279W        W19673  14.894  34.332  14.100
51280W        W19674   8.399  25.725   0.883
51281W        W19675  23.661  22.295   3.695
51282W        W19676  19.849  44.189  14.203
51283W        W19677  11.956  20.942  11.639
51284W        W19678  13.250  40.576   0.832
51285W        W19679   5.828   7.488   3.910
51286W        W19680   0.761  21.968   3.927
51287W        W19681  15.143  37.752  10.453
51288W        W19682  34.438  30.526   3.096
51289W        W19683  15.681  30.016   4.075
51290W        W19684  15.596  41.082   0.404
51291W        W19685  36.324   5.162  12.066
51292W        W19686  26.240   7.326   2.148
51293W        W19687   3.433   6.994   4.053
51294W        W19688  33.489  42.980  14.415
51295W        W19689  31.523  30.431  11.108
51296W        W19690  20.169   7.712  10.749
51297W        W19691   0.464  12.827   1.140
51298W        W19692  17.106  32.137   3.689
51299W        W19693   9.899  17.041   3.636
51300W        W19694  27.862  26.001  14.696
51301W        W19695  29.697  13.147  14.264
51302W        W19696   2.381  23.250  14.894
51303W        W19697  34.412  23.582   2.961
51304W        W19698  18.641  10.787   1.224
51305W        W19699  41.759  21.169  12.515
51306W        W19700  35.317  27.818   3.260
51307W        W19701  34.622  16.338  14.896
51308W        W19702  44.989  30.640   5.049
51309W        W19703  29.608  41.880  12.036
51310W        W19704  20.489  20.095   2.950
51311W        W19705  28.713   5.336   1.729
51312W        W19706  32.265  30.286  10.074
51313W        W19707  21.963  19.533   0.440
51314W        W19708  35.052  23.992  10.579
51315W        W19709   1.726  44.603   0.285
51316W        W19710  27.947  26.906   1.717
51317W        W19711   8.306  24.978  12.626
51318W        W19712  11.706  24.064   0.003
51319W        W19713  35.047  38.832  12.554
51320W        W19714  28.440   3.276   3.574
51321W        W19715  37.824   4.695  12.968
51322W        W19716  35.842  29.628  14.513
51323W        W19717   3.450   3.868  14.277
51324W        W19718  22.990  10.311  12.449
51325W        W19719  13.772  29.033  11.497
51326W        W19720  44.568  37.278   3.723
51327W        W19721  21.087  23.324  14.049
51328W        W19722  33.561  34.475   0.344
51329W        W19723  19.708  36.622   0.001
51330W        W19724  22.871   1.429   0.404
51331W        W19725  25.531   4.234  14.975
51332W        W19726  44.463  17.985  12.864
51333W        W19727  16.329  19.150  14.225
51334W        W19728   9.781   8.483   1.176
51335W        W19729  18.639  23.035   1.181
51336W        W19730  25.584   8.854   2.786
51337W        W19731  10.309   9.274   0.263
51338W        W19732  22.250  22.687  14.256
51339W        W19733  32.475  13.127   3.434
51340W        W19734   2.092  29.137   0.237
51341W        W19735  31.107  41.463  10.796
51342W        W19736  12.590  38.008   4.580
51343W        W19737  11.193   4.095   0.275
51344W        W19738  11.829  29.614   0.025
51345W        W19739  36.754  11.562  11.938
51346W        W19740  10.107  22.110   2.308
51347W        W19741  40.736  20.975  11.100
51348W        W19742  31.469   7.707  12.953
51349W        W19743  17.566  32.130   1.723
51350W        W19744  28.924  32.614  13.493
51351W        W19745   5.796  29.642   0.159
51352W        W19746   5.876  38.970  13.950
51353W        W19747  14.211  20.587  13.658
51354W        W19748  22.453   5.800  13.815
51355W        W19749  41.741  21.617  14.004
51356W        W19750  20.318   9.349  11.942
51357W        W19751  22.676  34.251  10.845
51358W        W19752  41.172  20.758   4.953
51359W        W19753   0.028  38.063  14.490
51360W        W19754  26.733  44.002   1.598
51361W        W19755  29.552   7.898  13.707
51362W        W19756  30.713  19.675  11.002
51363W        W19757  37.357  33.442  10.952
51364W        W19758  27.266  18.297   3.316
51365W        W19759   0.315   9.188   3.568
51366W        W19760  12.779   9.243   1.923
51367W        W19761   8.334  24.097   2.714
51368W        W19762  33.899  18.027  11.444
51369W        W19763  39.510  18.767  13.105
51370W        W19764  16.567  31.984  14.791
51371W        W19765  36.007  20.985   0.875
51372W        W19766  20.777  34.887  12.366
51373W        W19767  28.091  17.947   0.523
51374W        W19768  33.664  33.967   1.350
51375W        W19769   6.706  24.254   2.544
51376W        W19770  18.812  11.065  11.449
51377W        W19771  38.375  41.581  14.740
51378W        W19772  15.417   5.964  14.841
51379W        W19773  33.683  15.288   2.848
51380W        W19774  44.551  27.087  11.497
51381W        W19775  32.593  25.999   4.198
51382W        W19776  28.836  16.304  13.989
51383W        W19777  32.141   2.255   1.237
51384W        W19778  36.594  30.111   2.788
51385W        W19779  25.755  10.141  14.274
51386W        W19780  36.890  32.623   0.756
51387W        W19781   6.362  24.405   3.715
51388W        W19782  27.750  39.800  10.635
51389W        W19783  17.166   8.419  13.351
51390W        W19784  26.390  11.162   2.701
51391W        W19785  37.116  10.158  12.084
51392W        W19786  42.375  18.759  11.422
51393W        W19787   9.142   5.247   9.997
51394W        W19788  20.718  30.001  12.027
51395W        W19789   6.730  10.292   1.947
51396W        W19790  31.720  43.426  13.664
51397W        W19791  33.398   0.900   2.774
51398W        W19792  25.316  15.599   4.681
51399W        W19793  21.460  12.274  13.458
51400W        W19794  23.142  25.005   3.682
51401W        W19795  24.578  13.599  12.972
51402W        W19796   0.454  11.162   0.392
51403W        W19797  44.105  14.498  12.031
51404W        W19798  33.175  35.328  12.544
51405W        W19799  30.492  25.168   3.662
51406W        W19800  44.906   7.586   4.979
51407W        W19801  10.394  37.488  14.752
51408W        W19802   2.736  37.578   0.279
51409W        W19803  39.127  29.143  11.575
51410W        W19804   9.983  14.872  13.057
51411W        W19805  26.050  44.088  11.535
51412W        W19806  15.970   1.987   4.508
51413W        W19807  41.987   5.243  12.555
51414W        W19808   2.407  33.645  10.631
51415W        W19809   6.263   8.713   1.272
51416W        W19810  24.710  41.070  11.504
51417W        W19811  30.369  29.573  14.914
51418W        W19812  36.875  42.587  13.419
51419W        W19813  22.732  15.768  14.004
51420W        W19814  32.382  28.182  11.867
51421W        W19815  36.361  36.895  13.511
51422W        W19816  28.160  26.744  12.351
51423W        W19817  15.231  34.395   0.650
51424W        W19818  13.613  38.946  10.636
51425W        W19819  37.374  14.283   1.205
51426W        W19820  16.695   9.648   2.411
51427W        W19821  30.184  17.632   1.335
51428W        W19822  44.005  36.669  12.455
51429W        W19823  41.890  42.855   0.390
51430W        W19824  31.511  38.052   2.688
51431W        W19825  38.579  32.233   2.930
51432W        W19826   5.651  14.998   0.814
51433W        W19827  24.843  26.083   2.407
51434W        W19828  14.286  30.173   4.251
51435W        W19829  42.546  11.628   2.317
51436W        W19830   9.219   8.759   3.217
51437W        W19831  28.914  32.898   2.318
51438W        W19832  40.258  15.722  10.591
51439W        W19833   9.467  35.188   2.838
51440W        W19834  18.706  13.567   4.769
51441W        W19835  19.737  13.440  14.871
51442W        W19836  20.066  25.553  10.273
51443W        W19837  10.144  21.646   2.475
51444W        W19838  31.675   9.631  10.460
51445W        W19839   5.209  43.467  14.517
51446W        W19840  16.148  16.025   2.474
51447W        W19841   7.778  44.201   3.675
51448W        W19842  44.085  14.717   4.880
51449W        W19843  24.087  32.567   3.094
51450W        W19844  29.120  35.760   0.241
51451W        W19845  30.896  27.031  14.993
51452W        W19846  22.658  43.360  10.594
51453W        W19847  41.192  25.149  14.193
51454W        W19848  42.240  24.488   4.142
51455W        W19849  39.508   7.920   4.679
51456W        W19850   9.776  16.639   3.929
51457W        W19851  23.105  41.069   3.091
51458W        W19852  41.389  37.459   2.584
51459W        W19853  11.338  24.046  13.776
51460W        W19854  26.692  36.962  11.603
51461W        W19855  36.535  29.229   2.097
51462W        W19856  31.626  17.502  14.144
51463W        W19857  13.669  33.082  13.785
51464W        W19858   6.743  26.334   4.528
51465W        W19859  40.981  35.043  10.552
51466W        W19860  29.591  18.251   3.609
51467W        W19861  31.914  41.392  10.254
51468W        W19862  22.995  16.662   2.384
51469W        W19863   4.890   6.230  13.845
51470W        W19864   4.651   3.401   4.945
51471W        W19865   3.980  36.858   2.899
51472W        W19866   2.922  23.706   2.970
51473W        W19867  43.378  32.929  13.050
51474W        W19868  41.902  29.390   2.372
51475W        W19869   9.822  17.748   0.989
51476W        W19870  33.391  43.804   2.387
51477W        W19871  13.222  30.144   4.365
51478W        W19872  33.243  27.232   4.192
51479W        W19873   3.430   8.166   0.756
51480W        W19874   8.280  28.384   2.552
51481W        W19875   1.911  25.727  14.448
51482W        W19876  25.524  19.813  11.709
51483W        W19877   3.194  32.494   2.616
51484W        W19878  10.318   0.819  13.434
51485W        W19879  32.090   0.249   3.022
51486W        W19880  38.274  26.919   9.970
51487W        W19881  25.282  15.748   2.234
51488W        W19882  29.984  24.525  10.484
51489W        W19883  17.628  42.576   4.772
51490W        W19884  12.700  33.617   2.651
51491W        W19885  10.098  18.217   0.957
51492W        W19886  23.352  10.511   3.090
51493W        W19887  41.979  21.609  13.530
51494W        W19888   5.635  38.286   1.419
51495W        W19889  35.592   7.207  11.748
51496W        W19890  17.358   0.520   0.870
51497W        W19891  38.733  28.986  14.831
51498W        W19892  25.665   4.960   3.835
51499W        W19893  28.176  32.009  14.849
51500W        W19894  33.850  30.185  12.429
51501W        W19895  20.825  21.094  12.877
51502W        W19896  26.265  28.692  13.017
51503W        W19897  12.231  33.136   0.312
51504W        W19898   4.339  31.111   4.508
51505W        W19899  37.602   6.870   3.152
51506W        W19900   8.389  20.607   1.263
51507W        W19901   5.378   7.624   0.877
51508W        W19902  35.824  15.866   4.492
51509W        W19903  37.379  10.216   4.550
51510W        W19904  40.005  17.418   2.197
51511W        W19905  36.299   6.848   2.306
51512W        W19906  29.374   4.137  11.148
51513W        W19907  29.422  14.303  12.452
51514W        W19908  34.355  19.695   2.393
51515W        W19909  35.383  16.112  11.152
51516W        W19910  19.941  23.100  13.571
51517W        W19911  26.974  18.797  14.046
51518W        W19912  37.812   4.635   3.458
51519W        W19913  26.231  36.192  11.990
51520W        W19914  31.072   0.722   3.178
51521W        W19915   2.074  15.117   1.288
51522W        W19916  21.206   3.713   4.139
51523W        W19917  22.599  43.087  13.770
51524W        W19918  21.343  12.797   3.877
51525W        W19919   8.950  16.747   4.468
51526W        W19920  17.091  30.657   1.909
51527W        W19921  36.302   4.391  14.599
51528W        W19922   9.675  21.745  11.063
51529W        W19923  10.083  40.423   2.812
51530W        W19924  43.084   8.443   4.140
51531W        W19925  27.909  16.352   2.305
51532W        W19926  43.919  43.879  10.380
51533W        W19927  35.458  20.982  11.077
51534W        W19928   4.180  30.196   1.707
51535W        W19929  40.930  26.039  11.660
51536W        W19930  37.418  18.178   2.744
51537W        W19931  32.142  17.600  14.126
51538W        W19932  18.989  35.139  11.061
51539W        W19933  23.122  19.514  13.158
51540W        W19934  24.757  35.422   3.200
51541W        W19935  42.568  43.864  10.838
51542W        W19936  27.163   6.309  11.111
51543W        W19937   2.043  40.525   2.781
51544W        W19938  20.375  42.642   0.341
51545W        W19939   5.350  18.171   2.667
51546W        W19940  20.504  11.983  14.496
51547W        W19941  38.974   2.045  12.929
51548W        W19942  41.763  13.761  12.892
51549W        W19943  39.906  27.616   4.519
51550W        W19944  18.427  14.085  10.688
51551W        W19945  39.065  44.073  12.918
51552W        W19946   5.346   9.844   2.784
51553W        W19947   1.281  39.594  13.829
51554W        W19948   6.887  34.968   4.835
51555W        W19949   0.549   4.892  12.719
51556W        W19950   2.448  32.034   9.911
51557W        W19951  40.894  43.774  12.887
51558W        W19952  41.089  33.635   0.191
51559W        W19953  33.488  13.171  12.179
51560W        W19954  28.154  14.211   4.104
51561W        W19955  44.403  40.111  11.031
51562W        W19956  12.424  24.558  11.675
51563W        W19957  36.088  38.745  12.596
51564W        W19958  30.907   6.429  12.026
51565W        W19959  40.549   9.225   0.250
51566W        W19960  19.263  30.706  13.298
51567W        W19961  27.987  30.573  13.153
51568W        W19962  29.960  19.589   3.546
51569W        W19963   6.580  10.334   4.991
51570W        W19964  22.097   3.345   2.771
51571W        W19965  20.457   3.820  11.606
51572W        W19966  20.727   1.550  14.525
51573W        W19967   0.713   5.598  11.237
51574W        W19968  39.590  22.573  12.829
51575W        W19969  17.079  21.977  11.107
51576W        W19970  38.348  15.148  11.487
51577W        W19971  31.109  29.451  13.296
51578W        W19972  22.706  12.284  13.041
51579W        W19973  15.302  32.633   0.306
51580W        W19974  42.674  15.698   4.944
51581W        W19975  17.460  31.280   4.902
51582W        W19976  14.159  30.900   2.840
51583W        W19977  33.563  27.824  14.883
51584W        W19978  24.804  16.561   4.549
51585W        W19979  30.229   3.741  11.588
51586W        W19980  15.546  26.726   2.775
51587W        W19981   0.816   5.793   4.363
51588W        W19982  11.577   2.463  12.468
51589W        W19983  16.686  10.625  10.494
51590W        W19984   1.545  12.149  10.330
51591W        W19985   5.400  29.495  13.953
51592W        W19986  25.585   1.750  14.806
51593W        W19987  10.246  12.798  14.905
51594W        W19988  44.287  32.928  12.871
51595W        W19989  32.013  30.810   2.306
51596W        W19990  29.865  19.750   2.593
51597W        W19991   2.250  18.267  13.105
51598W        W19992   6.484  38.366  13.542
51599W        W19993  10.292  37.830  11.601
51600W        W19994  30.117  27.375   4.519
51601W        W19995  18.055  20.462  12.730
51602W        W19996   5.010  22.476   0.953
51603W        W19997  15.068  18.732  14.341
51604W        W19998  28.957  20.230   3.651
51605W        W19999  44.893  27.071   2.017
51606W        W20000   8.614  16.317  11.599
51607W        W20001  15.133  42.516   0.227
51608W        W20002  32.085  28.229  14.660
51609W        W20003  18.108   8.673   3.308
51610W        W20004   1.979  14.238   0.209
51611W        W20005  21.766  15.028   1.205
51612W        W20006  34.951  19.450  14.931
51613W        W20007  15.588  44.978   1.751
51614W        W20008  34.650   2.782   4.677
51615W        W20009   4.843  36.658   1.940
51616W        W20010  16.790   9.672  12.496
51617W        W20011  34.050  19.557   1.942
51618W        W20012  42.016  36.025   4.055
51619W        W20013  12.161  18.008  10.483
51620W        W20014  10.168  36.013  11.716
51621W        W20015  21.701   3.705  12.009
51622W        W20016  23.837  28.634  13.062
51623W        W20017   6.392   5.624   1.444
51624W        W20018  16.109  32.143  12.854
51625W        W20019   9.703  13.700  10.718
51626W        W20020   3.879  13.701  12.864
51627W        W20021  35.364   3.779  14.778
51628W        W20022   4.196  15.671   3.170
51629W        W20023  21.637   1.357   3.685
51630W        W20024  27.440  44.783   3.228
51631W        W20025  42.859  26.068  14.842
51632W        W20026  10.330  39.137   2.677
51633W        W20027   4.393  24.056   3.538
51634W        W20028   4.753  25.639  12.895
51635W        W20029  13.447  33.059  11.648
51636W        W20030  12.533  42.592  12.865
51637W        W20031  28.299   7.941  11.089
51638W        W20032  39.132  28.461  13.128
51639W        W20033  43.095  39.835  12.381
51640W        W20034   4.515  13.267  12.462
51641W        W20035  23.780  19.084   0.330
51642W        W20036   7.301  18.553  10.659
51643W        W20037  33.733  15.120   1.916
51644W        W20038  32.376  30.709   2.722
51645W        W20039  38.052  43.156   1.889
51646W        W20040  41.933  42.066  10.746
51647W        W20041   6.404  42.962  11.302
51648W        W20042   9.983  37.002  12.817
51649W        W20043  13.916  19.200   0.014
51650W        W20044  11.323  19.629   3.358
51651W        W20045  11.233   0.410   1.687
51652W        W20046  40.970  36.644   2.511
51653W        W20047  15.891  11.779   0.913
51654W        W20048  18.634  26.243   5.050
51655W        W20049   8.120  36.804  14.557
51656W        W20050  36.495  18.820   4.166
51657W        W20051  33.164   6.013   5.281
51658W        W20052  18.810  25.962   5.436
51659W        W20053  36.324  13.375   0.086
51660W        W20054  12.960  16.726  13.422
51661W        W20055  35.131  25.610   0.985
51662W        W20056  12.331   2.309  13.454
51663W        W20057  19.701  29.024   5.418
51664W        W20058   4.641  28.083   5.218
51665W        W20059   1.408  18.738  14.372
51666W        W20060  27.256  41.940   0.315
51667W        W20061  16.164  32.745   2.318
51668W        W20062  35.784  28.566  12.391
51669W        W20063   1.965  30.902  13.921
51670W        W20064  36.616   3.472  13.560
51671W        W20065  31.785  24.078  14.020
51672W        W20066   1.362  39.451  10.536
51673W        W20067  13.878  22.076  14.646
51674W        W20068  36.941  19.258  13.573
51675W        W20069  26.683  37.059   2.252
51676W        W20070  20.293   9.882  11.102
51677W        W20071  20.913  19.246  12.086
51678W        W20072  38.868   0.865  13.515
51679W        W20073  37.285  43.302   3.812
51680W        W20074  10.936  11.083   4.577
51681W        W20075  27.099  40.781  12.164
51682W        W20076  19.543   9.398   2.862
51683W        W20077  41.462  12.696   2.414
51684W        W20078  24.398  40.024  13.560
51685W        W20079  25.798  33.933  12.084
51686W        W20080  22.067  28.702   2.690
51687W        W20081  30.904  34.530  14.368
51688W        W20082  24.773  26.321   5.044
51689W        W20083  22.603  12.159   0.190
51690W        W20084  24.108   9.715  10.213
51691W        W20085  24.048   7.066  11.891
51692W        W20086  19.930   3.844  10.572
51693W        W20087  43.829  16.052  13.240
51694W        W20088  10.423   0.764  10.876
51695W        W20089  21.478  37.967  12.504
51696W        W20090  33.976   4.230   1.827
51697W        W20091  19.115   3.388  10.632
51698W        W20092  38.260  21.709  13.997
51699W        W20093   1.171  28.879   0.820
51700W        W20094  43.749   7.775  14.847
51701W        W20095  16.272  22.948  13.366
51702W        W20096  28.697  27.528   3.775
51703W        W20097  28.219  11.096  11.248
51704W        W20098   4.990   8.774   3.411
51705W        W20099  41.372  12.685  12.593
51706W        W20100  16.550  28.278   3.237
51707W        W20101  17.501   4.481  14.232
51708W        W20102  14.589  28.614   3.455
51709W        W20103  39.016  21.537  10.514
51710W        W20104  25.632  40.497   2.434
51711W        W20105  24.665  18.980   1.412
51712W        W20106  19.181  17.853   0.301
51713W        W20107  17.213  16.222   3.235
51714W        W20108  29.034  12.221  10.553
51715W        W20109  21.734  23.496  14.510
51716W        W20110  28.272   5.624   1.645
51717W        W20111  42.550  34.200   4.788
51718W        W20112  16.175  38.430   3.620
51719W        W20113  42.114  35.743  10.186
51720W        W20114  37.506  28.097   1.448
51721W        W20115  12.606  22.301   0.185
51722W        W20116   6.936  31.911   0.014
51723W        W20117   4.857  23.308  14.675
51724W        W20118  34.184  27.128   3.299
51725W        W20119  36.230  22.538   3.209
51726W        W20120  34.099   8.235  14.370
51727W        W20121   7.878  33.207   0.912
51728W        W20122  39.071  44.190   5.104
51729W        W20123  14.389  10.059   0.478
51730W        W20124  42.365  44.200   3.204
51731W        W20125  23.973   9.800  12.391
51732W        W20126  36.923   8.644   3.741
51733W        W20127   5.360   0.805   2.712
51734W        W20128  14.287   0.946  10.646
51735W        W20129  25.356  22.640  11.552
51736W        W20130  40.771  31.180  13.479
51737W        W20131  37.140   2.060   1.349
51738W        W20132  36.580  17.760  11.297
51739W        W20133  30.105  22.659   4.081
51740W        W20134  38.348  31.096   3.627
51741W        W20135  43.088  15.788  12.933
51742W        W20136  31.925  31.653  14.986
51743W        W20137  37.733  43.591  14.427
51744W        W20138  10.308  44.977   4.425
51745W        W20139  40.648  43.733   2.070
51746W        W20140  38.347  23.123  11.227
51747W        W20141  29.159  11.100   2.144
51748W        W20142   3.582  12.863   4.112
51749W        W20143  42.829   1.262   0.686
51750W        W20144  37.456  13.447   1.697
51751W        W20145  35.839   2.130   3.196
51752W        W20146  14.330   8.764   0.393
51753W        W20147  38.822  18.243   4.555
51754W        W20148  22.734  27.513   1.860
51755W        W20149  41.745   0.306   3.276
51756W        W20150   1.560  13.227  13.896
51757W        W20151   1.871  37.488  12.967
51758W        W20152  35.940  11.786  13.397
51759W        W20153   8.216  10.942   4.812
51760W        W20154  12.743  41.271  12.520
51761W        W20155  26.191  19.715  13.265
51762W        W20156  31.096  10.747   0.543
51763W        W20157  37.956  17.668   3.140
51764W        W20158  10.065  36.374   0.319
51765W        W20159   0.582  21.013  14.111
51766W        W20160  30.485  10.309   3.049
51767W        W20161  32.602  14.908   1.407
51768W        W20162   6.420  22.723  14.492
51769W        W20163  22.922  43.610   4.160
51770W        W20164  27.608  42.544   0.969
51771W        W20165  18.512   4.185   0.285
51772W        W20166  12.514   5.669  13.083
51773W        W20167  27.484  12.432   2.828
51774W        W20168  26.008   6.694  13.312
51775W        W20169  17.013  39.944   4.554
51776W        W20170  24.057  30.913   1.332
51777W        W20171   4.251   1.046   0.494
51778W        W20172  44.806  22.759  12.999
51779W        W20173  40.159  15.804   0.790
51780W        W20174  27.584  34.424  14.223
51781W        W20175  19.295  24.022  14.506
51782W        W20176  43.207  32.440  13.365
51783W        W20177  34.827   3.399   1.392
51784W        W20178   2.037   1.513  12.497
51785W        W20179  24.334   1.436  12.846
51786W        W20180  32.934  12.289  10.932
51787W        W20181   3.438  27.581  13.426
51788W        W20182  18.071  28.537   3.122
51789W        W20183  15.518   9.761  11.467
51790W        W20184  29.706  24.713   3.654
51791W        W20185  19.710  44.665  13.240
51792W        W20186  37.132  31.730  13.943
51793W        W20187  29.551  19.569   4.781
51794W        W20188  44.777  10.715   3.208
51795W        W20189  23.913  36.888   2.344
51796W        W20190  38.443  17.797   3.400
51797W        W20191  41.454  25.407  10.814
51798W        W20192  18.571  28.321  14.527
51799W        W20193  43.949  27.128  11.341
51800W        W20194  21.951   6.447   1.670
51801W        W20195  14.074  37.571   4.987
51802W        W20196  12.077   5.486   2.600
51803W        W20197  32.238   4.429   0.850
51804W        W20198   2.784  18.262   4.093
51805W        W20199  28.505   8.845  14.854
51806W        W20200  43.511  43.495   0.364
51807W        W20201  26.462  34.968  13.021
51808W        W20202  36.571   6.358  11.566
51809W        W20203  24.272  34.573   2.214
51810W        W20204  22.119  17.537  13.827
51811W        W20205   5.048  14.008   4.080
51812W        W20206  23.274   8.277   2.737
51813W        W20207  44.757  30.124  14.777
51814W        W20208  39.368  30.210  13.068
51815W        W20209  43.557  12.165  11.009
51816W        W20210  22.857  21.706  12.572
51817W        W20211  44.370  41.497  14.461
51818W        W20212  42.944  18.335   2.709
51819W        W20213  17.532  23.183  13.603
51820W        W20214  20.035   3.800   1.289
51821W        W20215   8.693   2.357   1.008
51822W        W20216  15.258   5.635  13.812
51823W        W20217  41.146  33.971   2.280
51824W        W20218  36.395  37.710  13.133
51825W        W20219  11.567  31.013   1.145
51826W        W20220  13.910  29.159   3.015
51827W        W20221  12.533  31.180   4.852
51828W        W20222  39.067  13.230   0.819
51829W        W20223   0.337  30.467  14.282
51830W        W20224  16.543  28.519  13.903
51831W        W20225   1.105  16.055  12.677
51832W        W20226  22.700  13.854  11.196
51833W        W20227  16.910  44.888   3.612
51834W        W20228  32.631  42.914   3.319
51835W        W20229   0.845  36.408  10.490
51836W        W20230  41.595   0.892   3.341
51837W        W20231  39.815  36.833   3.739
51838W        W20232  15.911   1.631  13.376
51839W        W20233  35.500   7.658   3.831
51840W        W20234  43.764  35.898   3.199
51841W        W20235   0.418  28.606  13.173
51842W        W20236  29.124  39.370   1.833
51843W        W20237  25.217  42.410   0.982
51844W        W20238   2.781   0.615   1.291
51845W        W20239  33.714  41.938   1.421
51846W        W20240  26.688  25.582   4.167
51847W        W20241  19.638  20.997  10.951
51848W        W20242   7.334   7.120   0.992
51849W        W20243   8.329  10.122  13.335
51850W        W20244   6.533  31.507  14.799
51851W        W20245   3.368  25.694   1.444
51852W        W20246  25.988  29.511  12.515
51853W        W20247  16.672   0.222  14.400
51854W        W20248  28.497   4.408  11.944
51855W        W20249  31.900  39.427   2.778
51856W        W20250  25.875  12.088   3.215
51857W        W20251   9.381   3.483  11.436
51858W        W20252  19.816   4.820  10.621
51859W        W20253   5.029   2.965   1.884
51860W        W20254   5.198  25.463  14.190
51861W        W20255  37.634  11.541  14.436
51862W        W20256  13.855  23.269   3.853
51863W        W20257   5.502   1.689  14.954
51864W        W20258  14.477  31.255  11.493
51865W        W20259  40.046   1.551   2.225
51866W        W20260   8.865   3.181   0.662
51867W        W20261   4.640  33.500   2.405
51868W        W20262  39.967  27.946  11.394
51869W        W20263  31.543  20.873  11.191
51870W        W20264  14.255   3.091  14.412
51871W        W20265  32.359  29.953  10.773
51872W        W20266  30.836   8.900  13.249
51873W        W20267  32.363   5.750   4.578
51874W        W20268  14.144  36.087  11.552
51875W        W20269  42.332  35.572  11.446
51876W        W20270  40.365  32.949  12.342
51877W        W20271   0.615  12.670   3.879
51878W        W20272  43.005  41.877  12.063
51879W        W20273  20.792  33.465  14.957
51880W        W20274   6.874  37.456   2.849
51881W        W20275  29.878  22.270  13.283
51882W        W20276   4.699   8.304  14.415
51883W        W20277  17.184  15.838  10.613
51884W        W20278  25.880  39.310  10.563
51885W        W20279   5.706  30.325   4.027
51886W        W20280  19.063   8.185   3.387
51887W        W20281  18.768  41.891  14.994
51888W        W20282  37.399  34.626   3.774
51889W        W20283   6.203  23.349   1.756
51890W        W20284  20.501  38.471  10.595
51891W        W20285  32.953  16.639   0.167
51892W        W20286  43.353  35.576   5.428
51893W        W20287  36.215  36.665   2.425
51894W        W20288   7.912   2.235  11.249
51895W        W20289  39.012   9.349   0.683
51896W        W20290  28.648  40.097  11.541
51897W        W20291   4.985  40.412  12.531
51898W        W20292  36.968  23.159  10.694
51899W        W20293  30.503  22.113   4.312
51900W        W20294   6.782  21.734  14.990
51901W        W20295  36.921  34.078   4.568
51902W        W20296  35.152  21.058   1.588
51903W        W20297  42.689  20.117   1.643
51904W        W20298  34.685  35.523   3.659
51905W        W20299   4.635  42.642   3.218
51906W        W20300  29.095  35.135  11.582
51907W        W20301  19.141  12.446  11.165
51908W        W20302  12.778  38.339  11.734
51909W        W20303  22.070  14.348   1.864
51910W        W20304  12.688  11.082   0.387
51911W        W20305   9.420  14.773  12.504
51912W        W20306  23.921  10.109   0.447
51913W        W20307   1.232  44.134  10.436
51914W        W20308  26.761   4.205   0.897
51915W        W20309  13.505  35.464  11.303
51916W        W20310   8.168   1.434   4.107
51917W        W20311   8.156  17.326   1.211
51918W        W20312  37.999   4.855   1.081
51919W        W20313   0.965  26.322   2.387
51920W        W20314  21.699  36.848   2.530
51921W        W20315   4.635   0.703  13.669
51922W        W20316  11.791  38.136  12.603
51923W        W20317  17.933  12.584  10.617
51924W        W20318  20.710  41.814   0.146
51925W        W20319  35.844  37.224   4.326
51926W        W20320  28.498  43.101  12.488
51927W        W20321  19.998  36.037  13.198
51928W        W20322  10.987  11.313  11.508
51929W        W20323  34.551  37.175  14.882
51930W        W20324  39.452  14.643  10.428
51931W        W20325   1.145   5.137  14.343
51932W        W20326  40.570  42.605   2.251
51933W        W20327  43.342   7.566  13.367
51934W        W20328   3.585  31.628   2.079
51935W        W20329  22.048  30.881   5.080
51936W        W20330   9.283  18.976  11.176
51937W        W20331  39.597  44.030  12.869
51938W        W20332  15.401  21.424   4.897
51939W        W20333   1.591   3.167  14.378
51940W        W20334  33.967   0.731   3.317
51941W        W20335  15.124   9.681   4.045
51942W        W20336  22.551  29.626  14.343
51943W        W20337  24.488  40.818   3.279
51944W        W20338  14.865  44.763   2.793
51945W        W20339  37.108   2.350  13.429
51946W        W20340  34.710   1.211   3.276
51947W        W20341  18.228  38.490  11.598
51948W        W20342   2.312  32.628  10.753
51949W        W20343  43.121  24.722   1.221
51950W        W20344  11.563  38.924   1.918
51951W        W20345  43.028  34.100   1.614
51952W        W20346  32.993  33.124  13.074
51953W        W20347  12.542   6.877   1.159
51954W        W20348   1.384  17.208   3.078
51955W        W20349   6.232  18.669   3.068
51956W        W20350  36.023  28.220   3.269
51957W        W20351  28.775  23.566   2.331
51958W        W20352  40.935  13.170   4.559
51959W        W20353   6.143   0.272  12.509
51960W        W20354  39.287  21.470   3.816
51961W        W20355  14.305  33.864   3.324
51962W        W20356  23.292   2.577  11.354
51963W        W20357  10.937  32.747  13.434
51964W        W20358  22.469  20.864  14.223
51965W        W20359  11.754   1.358  11.376
51966W        W20360  28.596  11.601   3.863
51967W        W20361   1.902  28.766   3.431
51968W        W20362  40.953  22.512   0.314
51969W        W20363   9.687   7.806   3.382
51970W        W20364  39.640   2.802  13.048
51971W        W20365   4.292   4.915  11.007
51972W        W20366  30.596  44.649  11.104
51973W        W20367  26.968  14.059  13.441
51974W        W20368  33.282  39.581  14.657
51975W        W20369  21.149  26.667   3.230
51976W        W20370  16.119  20.971   3.761
51977W        W20371   4.042   9.367   4.128
51978W        W20372  12.263  27.099   2.912
51979W        W20373  14.681   2.726   4.050
51980W        W20374  11.395   8.296  13.611
51981W        W20375   3.681   2.501  13.467
51982W        W20376  15.755  15.764  12.804
51983W        W20377   0.971   6.447  11.740
51984W        W20378  25.488  24.070  11.365
51985W        W20379  12.576  22.749   2.856
51986W        W20380  32.024  18.860   1.145
51987W        W20381   3.989  44.919  12.521
51988W        W20382  42.424  31.529  10.922
51989W        W20383  31.690  32.081  14.741
51990W        W20384   4.861  12.306   2.187
51991W        W20385  21.984  22.248  14.114
51992W        W20386  22.014  32.267   3.269
51993W        W20387  43.296  43.818   2.569
51994W        W20388  35.125  10.763   1.237
51995W        W20389  44.800  41.278   2.204
51996W        W20390  26.925  32.010   4.068
51997W        W20391  42.997  15.418   3.331
51998W        W20392  32.116  24.978  13.809
51999W        W20393  37.959  39.418   1.479
52000W        W20394  41.768  34.618   4.112
52001W        W20395  37.532  36.790  11.212
52002W        W20396   2.037  36.941   0.331
52003W        W20397  14.836  39.266   3.806
52004W        W20398  24.035  35.412   1.737
52005W        W20399  10.653  29.827   3.277
52006W        W20400  26.051   4.172  11.037
52007W        W20401  30.292  44.936   4.180
52008W        W20402  42.035   3.380  13.931
52009W        W20403  41.266  42.581   3.266
52010W        W20404  42.851   5.355   1.017
52011W        W20405  15.681  31.095   3.348
52012W        W20406  38.419  20.638   3.384
52013W        W20407  22.769  28.609   4.539
52014W        W20408  19.293  16.897   3.210
52015W        W20409  13.208  22.083   2.676
52016W        W20410  33.576   1.003   2.288
52017W        W20411  14.681  12.185  13.286
52018W        W20412   1.555  16.138  12.955
52019W        W20413  15.808  38.182  11.532
52020W        W20414   1.729  21.242   4.654
52021W        W20415  31.826  42.305   0.844
52022W        W20416  32.033  29.090   4.102
52023W        W20417  17.088  39.420  13.619
52024W        W20418  42.296  44.424   2.403
52025W        W20419   4.984  43.790   1.786
52026W        W20420  36.423  38.639  11.465
52027W        W20421  21.499  34.287  10.680
52028W        W20422  20.566  23.277   3.853
52029W        W20423   9.234   9.084  13.087
52030W        W20424  40.637  35.388  10.193
52031W        W20425  17.238   4.889  10.705
52032W        W20426  21.022  41.629   4.558
52033W        W20427   1.555  34.882   4.400
52034W        W20428  19.471  40.021  14.979
52035W        W20429   9.100  40.842  14.911
52036W        W20430  28.972  39.162  10.659
52037W        W20431  30.911  36.431  14.359
52038W        W20432  11.533   5.587  14.813
52039W        W20433  20.834  18.127   4.991
52040W        W20434  27.720   1.992   9.849
52041W        W20435   3.688  32.092  11.019
52042W        W20436  12.217   7.571   5.048
52043W        W20437  36.473  21.230   0.741
52044W        W20438  39.814   4.188  10.743
52045W        W20439  32.582  42.326   2.063
52046W        W20440  38.128  21.065  10.716
52047W        W20441  44.483  43.683  13.493
52048W        W20442  16.271  10.624   0.414
52049W        W20443  32.861  44.000  12.080
52050W        W20444  19.977  24.122  12.359
52051W        W20445   2.836  42.572  12.130
52052W        W20446  20.248  22.897   2.248
52053W        W20447  41.902  34.766   0.255
52054W        W20448  32.926  18.956   0.714
52055W        W20449   6.833  11.970  14.573
52056W        W20450  17.285  29.533  10.737
52057W        W20451  35.334   7.329   0.967
52058W        W20452  31.436  41.854  14.275
52059W        W20453  40.179   0.810  14.028
52060W        W20454  40.863  40.891   1.555
52061W        W20455  16.597  15.185   2.716
52062W        W20456  23.700  32.050  14.851
52063W        W20457   8.799   3.429   3.868
52064W        W20458  34.648  39.887   0.878
52065W        W20459  29.537  40.198   3.007
52066W        W20460  37.079  26.602  11.190
52067W        W20461  16.034   0.309  14.472
52068W        W20462  29.045  22.795   1.274
52069W        W20463   2.212  42.764   0.366
52070W        W20464  43.512  32.868  14.102
52071W        W20465  38.548  25.588   0.396
52072W        W20466   8.383   6.308   2.661
52073W        W20467  22.076  42.304   3.118
52074W        W20468  40.396  34.684   0.018
52075W        W20469  37.063  25.100   0.296
52076W        W20470  22.118  24.557   1.176
52077W        W20471  28.939  44.104  14.522
52078W        W20472  34.474  31.239   0.781
52079W        W20473  37.942  26.642  13.753
52080W        W20474  40.523   4.201   3.307
52081W        W20475  15.955  44.219   3.537
52082W        W20476   0.708  12.790   4.500
52083W        W20477  13.805  14.167   4.525
52084W        W20478  22.272  44.002  10.656
52085W        W20479  42.956  10.601   2.889
52086W        W20480  18.769   2.431  11.212
52087W        W20481  38.343   1.050   1.575
52088W        W20482   1.399  16.072  13.570
52089W        W20483  28.748  19.494  10.618
52090W        W20484   1.565  32.537  14.536
52091W        W20485  16.472  34.829  11.124
52092W        W20486  10.902  37.455   1.474
52093W        W20487  27.137   2.424  12.616
52094W        W20488  11.590  39.036   0.453
52095W        W20489  33.340  31.269   3.295
52096W        W20490  30.404   4.597  14.625
52097W        W20491  15.508  23.658  11.459
52098W        W20492  18.659  15.620  12.162
52099W        W20493   7.647   7.872  10.908
52100W        W20494  43.242   4.893   3.594
52101W        W20495  44.025  21.874   3.708
52102W        W20496   4.921  38.958   4.025
52103W        W20497  22.642  38.589   0.372
52104W        W20498  40.323  17.660  13.811
52105W        W20499   1.053  33.053   1.948
52106W        W20500  14.602  31.977   4.220
52107W        W20501  15.397  20.078   4.412
52108W        W20502  36.491   9.604  11.482
52109W        W20503  16.461   4.788  10.307
52110W        W20504  14.299   4.981   0.938
52111W        W20505   5.365  35.526   0.126
52112W        W20506  43.289  18.795  11.399
52113W        W20507  24.775  35.067   0.920
52114W        W20508  33.953  36.904   0.552
52115W        W20509  19.731   0.025   0.266
52116W        W20510  24.545  10.273   1.464
52117W        W20511  39.070  22.854   3.705
52118W        W20512  32.043   5.250  13.468
52119W        W20513  20.813  26.093  11.143
52120W        W20514  12.118  11.655  12.078
52121W        W20515   1.911  44.976   1.484
52122W        W20516  15.101   8.861   4.233
52123W        W20517   1.785  10.765  10.886
52124W        W20518  35.093  33.639   1.307
52125W        W20519  10.339  36.050  10.406
52126W        W20520  44.758  17.219  11.683
52127W        W20521  23.600  21.135  14.942
52128W        W20522  18.508  11.207  14.876
52129W        W20523   2.859  36.831  12.008
52130W        W20524  27.316  37.529  11.640
52131W        W20525  44.251   8.615  12.829
52132W        W20526   9.694  41.932   0.557
52133W        W20527  22.822   1.710  11.124
52134W        W20528  34.856  39.057  10.717
52135W        W20529  28.121  33.549  12.895
52136W        W20530   4.374  19.546  14.870
52137W        W20531   5.800  18.339   1.434
52138W        W20532  22.164  42.017   1.983
52139W        W20533   6.005   7.907   4.315
52140W        W20534  39.564   0.751   2.300
52141W        W20535  17.382  10.302   4.081
52142W        W20536  29.069  28.689  10.691
52143W        W20537  40.700   8.642  10.295
52144W        W20538  44.899  29.209   0.918
52145W        W20539  25.609  30.566  10.796
52146W        W20540  35.225   9.875  10.761
52147W        W20541   8.179  11.152  13.338
52148W        W20542  13.600  41.817   3.639
52149W        W20543  15.604  40.824   1.407
52150W        W20544  34.325   0.313   0.248
52151W        W20545  24.795  33.638   2.647
52152W        W20546  40.509  26.688  11.352
52153W        W20547  32.075  40.966  11.607
52154W        W20548  19.579   0.567  11.458
52155W        W20549  18.603  33.107  14.449
52156W        W20550  43.322  18.495  14.341
52157W        W20551   3.451  24.954   3.485
52158W        W20552  40.786   6.001  12.572
52159W        W20553  36.531  35.551  12.858
52160W        W20554  15.893  14.365  10.708
52161W        W20555  17.862  19.884   4.548
52162W        W20556  42.669   4.896  14.583
52163W        W20557  42.994  42.937   2.227
52164W        W20558  22.727  42.335  11.405
52165W        W20559  20.360   1.411   4.085
52166W        W20560   3.887  30.178   0.337
52167W        W20561  15.398  21.211  13.393
52168W        W20562  19.008  33.782  13.762
52169W        W20563   9.137   0.301  14.878
52170W        W20564  16.661   0.430  11.585
52171W        W20565  43.284  11.014  11.726
52172W        W20566   8.825  36.413   5.025
52173W        W20567   9.400  32.218   0.296
52174W        W20568  39.397  12.445  13.412
52175W        W20569  17.732   8.477   0.410
52176W        W20570   5.333  43.749   0.493
52177W        W20571  17.276  14.782   2.292
52178W        W20572  28.882  38.040  11.949
52179W        W20573   0.316   6.789  10.782
52180W        W20574  22.660  44.995   3.763
52181W        W20575   9.129   7.731  13.908
52182W        W20576  20.068  26.293  10.674
52183W        W20577   6.435  40.373   0.195
52184W        W20578  22.403  13.713   2.313
52185W        W20579  38.457  22.644  11.403
52186W        W20580  35.869  35.971   0.683
52187W        W20581  22.453   8.417   3.116
52188W        W20582  19.582  24.296   1.606
52189W        W20583  22.525  29.161  10.192
52190W        W20584  22.147   3.044  11.922
52191W        W20585  12.336   5.382  14.825
52192W        W20586  19.109   4.372   0.824
52193W        W20587  36.761  36.576  13.524
52194W        W20588  44.401  26.434  10.837
52195W        W20589   8.859  34.054  10.808
52196W        W20590   0.970  20.577  12.462
52197W        W20591  24.115  44.544   0.829
52198W        W20592  29.481  25.084   0.369
52199W        W20593  19.292  34.529   1.345
52200W        W20594  10.832  24.496  13.048
52201W        W20595  26.245   1.892  10.655
52202W        W20596   1.017  36.503  11.388
52203W        W20597  30.977  29.946   4.364
52204W        W20598  13.540  33.519  12.955
52205W        W20599   6.698  40.335   2.672
52206W        W20600  34.175  18.700  11.146
52207W        W20601  24.624  25.187   3.957
52208W        W20602  39.161   9.291   1.628
52209W        W20603  41.818   9.433   3.939
52210W        W20604   8.810  11.603   3.359
52211W        W20605  20.033  28.664  14.226
52212W        W20606  26.582  13.329   4.545
52213W        W20607  25.839  33.323  12.618
52214W        W20608   2.230  15.731  12.141
52215W        W20609   5.890   0.760  14.573
52216W        W20610   6.831   0.740   4.334
52217W        W20611  36.399  18.844   1.212
52218W        W20612  29.929  42.070   3.423
52219W        W20613   2.299  13.630   3.082
52220W        W20614  36.952  20.505   1.172
52221W        W20615  15.866  10.299   0.346
52222W        W20616  16.240  11.382  11.554
52223W        W20617   4.344   1.966  10.678
52224W        W20618  13.148  13.779  12.590
52225W        W20619  13.316  30.514   2.874
52226W        W20620   0.904  32.408   3.959
52227W        W20621  36.513   3.355  10.780
52228W        W20622  42.736  29.959   2.399
52229W        W20623   5.133  38.152   3.261
52230W        W20624  37.471  40.388  13.122
52231W        W20625  24.527   1.549   3.537
52232W        W20626  39.849  40.309   3.201
52233W        W20627   8.606   5.883  13.226
52234W        W20628  13.004  10.661   3.674
52235W        W20629  29.407  14.847   0.855
52236W        W20630   9.779   1.900  12.100
52237W        W20631  42.743  29.594   0.722
52238W        W20632   5.819   1.271   4.143
52239W        W20633  44.791  29.979   2.724
52240W        W20634  34.821  22.659   5.040
52241W        W20635  30.035  41.214   0.984
52242W        W20636  24.987   8.715   4.541
52243W        W20637  27.556  14.608   2.231
52244W        W20638  42.271  11.118  11.688
52245W        W20639  21.460   2.885  14.754
52246W        W20640   7.358   1.445  11.084
52247W        W20641  27.633  34.899   0.803
52248W        W20642  16.220  27.159  11.873
52249W        W20643  28.200  27.932  14.089
52250W        W20644  34.664  10.666  13.916
52251W        W20645  30.537  11.681   3.764
52252W        W20646  24.801  32.870   1.416
52253W        W20647  25.634  18.680  12.067
52254W        W20648  16.230  14.235   1.304
52255W        W20649   2.475  13.244  12.595
52256W        W20650  20.884  44.695  11.336
52257W        W20651  26.007  13.548  13.377
52258W        W20652  44.541  17.274  12.151
52259W        W20653   0.369   7.927   1.874
52260W        W20654  24.961  34.448   3.612
52261W        W20655  14.442  23.521   2.424
52262W        W20656   5.600  22.141   3.220
52263W        W20657  42.577  26.564   0.840
52264W        W20658  20.865   5.436   0.503
52265W        W20659   3.890  30.343   1.245
52266W        W20660  15.185   7.716   5.442
52267W        W20661  28.446  21.123   2.777
52268W        W20662  34.680  15.222   3.420
52269W        W20663  30.098   9.942  12.954
52270W        W20664  37.288  11.851   3.410
52271W        W20665  10.836  19.314  12.514
52272W        W20666   7.667  14.154   2.811
52273W        W20667  17.310  11.281   2.467
52274W        W20668  40.071  19.246   2.234
52275W        W20669  41.803  40.037   3.834
52276W        W20670  43.840  14.390  13.255
52277W        W20671  41.455   1.446  12.528
52278W        W20672  41.566  16.862   1.709
52279W        W20673  14.803  11.213   1.566
52280W        W20674   0.518  32.517  12.105
52281W        W20675   9.214  12.008   5.152
52282W        W20676  14.808   2.142   1.891
52283W        W20677  33.593  14.191   3.360
52284W        W20678   8.870   4.449   2.591
52285W        W20679  34.540  29.681  13.015
52286W        W20680   3.592  30.248   4.032
52287W        W20681  38.116  28.540  12.924
52288W        W20682  32.531  24.294   0.321
52289W        W20683  10.272  23.183   4.699
52290W        W20684  22.222  18.245  12.035
52291W        W20685  41.543  20.520  10.889
52292W        W20686  12.393  27.898  12.098
52293W        W20687  18.196   6.708  10.517
52294W        W20688  42.539  26.470  10.706
52295W        W20689  11.177  16.642  12.402
52296W        W20690  24.112  37.796   2.380
52297W        W20691   5.194  34.920   4.474
52298W        W20692  35.989  19.726  13.941
52299W        W20693   8.376   9.912   3.798
52300W        W20694   6.630  19.015  14.905
52301W        W20695  32.676  13.137   2.181
52302W        W20696  37.360  22.516   1.355
52303W        W20697  14.227   5.996  13.941
52304W        W20698  34.337   0.331  14.326
52305W        W20699  13.862  15.852   3.205
52306W        W20700   1.428  40.510   1.647
52307W        W20701   8.670  21.677   0.299
52308W        W20702  25.999   9.128   4.328
52309W        W20703  21.273  32.434   1.245
52310W        W20704  35.105  11.569  13.536
52311W        W20705   1.681   8.266  10.525
52312W        W20706  25.235  16.222   0.970
52313W        W20707  26.978  19.494   1.365
52314W        W20708  36.025  21.855  12.031
52315W        W20709  25.630  37.510   1.286
52316W        W20710  25.088  38.976  14.355
52317W        W20711   2.160   2.877  11.199
52318W        W20712   4.345  35.062  10.542
52319W        W20713  22.677  42.261  14.398
52320W        W20714  25.489  38.592  12.923
52321W        W20715  35.254  34.543  10.274
52322W        W20716  19.627  29.846  14.433
52323W        W20717  14.425  26.966   4.302
52324W        W20718   8.141  13.715   4.171
52325W        W20719  18.264  43.961   1.977
52326W        W20720  12.796  35.869  13.858
52327W        W20721  44.498  10.246  14.508
52328W        W20722   1.922   1.774   2.749
52329W        W20723  28.115  24.295  13.051
52330W        W20724  34.884  32.162   4.377
52331W        W20725  11.652  33.546   3.089
52332W        W20726  11.812  10.395   2.286
52333W        W20727  19.543  26.032   9.831
52334W        W20728  14.628  24.034  14.759
52335W        W20729  37.682  17.646  13.901
52336W        W20730  10.768   7.512   1.168
52337W        W20731  18.760   2.309  14.704
52338W        W20732  24.027  15.269   4.692
52339W        W20733  15.264   9.936  13.564
52340W        W20734  10.276   9.325  14.235
52341W        W20735   4.847  44.223  10.298
52342W        W20736   8.923  41.035  10.430
52343W        W20737  17.944  41.460  13.872
52344W        W20738   9.382  31.963  11.072
52345W        W20739   3.491  20.031  14.898
52346W        W20740  19.760   0.440  11.930
52347W        W20741   8.096  34.553  14.919
52348W        W20742   1.722  43.033  11.947
52349W        W20743   9.761  23.646   1.769
52350W        W20744  16.027  43.175  13.319
52351W        W20745  28.744   2.000   2.914
52352W        W20746   3.257  23.114   3.014
52353W        W20747  44.047  16.652   3.058
52354W        W20748  22.096  34.427   0.805
52355W        W20749  11.326  25.299   3.090
52356W        W20750  14.906   6.204   1.980
52357W        W20751  27.136  24.257   3.378
52358W        W20752  33.129  12.234   4.479
52359W        W20753  27.624  13.664  11.156
52360W        W20754  29.309  12.867   4.452
52361W        W20755  10.911   9.188   4.600
52362W        W20756  35.438  42.009   0.976
52363W        W20757  44.171  23.065   3.652
52364W        W20758  31.837  19.740   3.710
52365W        W20759  22.390  37.104   0.768
52366W        W20760  17.322  30.546  14.404
52367W        W20761  34.017  36.626   4.584
52368W        W20762  23.601  39.387   1.709
52369W        W20763   2.849  11.309   0.729
52370W        W20764  32.007  18.342   1.223
52371W        W20765  38.622   0.291   4.412
52372W        W20766  11.290  24.383   0.242
52373W        W20767  32.598  24.268  10.764
52374W        W20768  22.855  28.510  11.887
52375W        W20769   8.332  13.845  13.791
52376W        W20770  29.889  16.849  13.370
52377W        W20771  25.451  25.691  13.458
52378W        W20772  27.539  31.280  13.969
52379W        W20773  15.905  26.982  13.431
52380W        W20774  42.231  34.169   3.235
52381W        W20775  17.479  41.258  14.053
52382W        W20776  15.719  26.528   1.490
52383W        W20777   9.150  33.807  12.089
52384W        W20778  44.548   5.532  14.445
52385W        W20779  18.564  26.891  11.623
52386W        W20780  34.682  20.686   1.880
52387W        W20781   3.743  11.188  14.066
52388W        W20782   8.265  39.482  14.521
52389W        W20783  41.336  36.805   3.666
52390W        W20784  43.397   9.515   3.478
52391W        W20785  21.116  21.363  12.523
52392W        W20786  11.825  22.477  13.630
52393W        W20787   1.397  18.188  10.998
52394W        W20788  29.524   0.892  13.126
52395W        W20789   0.156   6.493  11.760
52396W        W20790  13.947  28.096   3.170
52397W        W20791  23.974  22.466   3.237
52398W        W20792  22.940  34.928   2.635
52399W        W20793   1.577  19.658  13.607
52400W        W20794  30.972   0.437  13.542
52401W        W20795  38.853  36.564  13.864
52402W        W20796  17.787  40.345   5.232
52403W        W20797  21.152  37.588  11.114
52404W        W20798  29.051  37.160  13.509
52405W        W20799  12.402   8.876  14.794
52406W        W20800  44.962  37.794  14.965
52407W        W20801  22.516   9.747   2.410
52408W        W20802  19.226  36.013   2.804
52409W        W20803  42.890  31.298   1.574
52410W        W20804  12.102  34.000  13.884
52411W        W20805   3.359  40.264   3.800
52412W        W20806  23.035  14.161  13.420
52413W        W20807  40.309  30.144  14.499
52414W        W20808  41.463  22.930  14.250
52415W        W20809  14.027  28.955   4.284
52416W        W20810  37.438  15.560  13.386
52417W        W20811  15.840  28.812  11.918
52418W        W20812   0.829  20.973  12.116
52419W        W20813   9.472  22.063  12.002
52420W        W20814  13.332  17.104  10.592
52421W        W20815   5.670  43.892   2.410
52422W        W20816  13.084  29.907   1.139
52423W        W20817   9.535  43.406   2.871
52424W        W20818  17.743  38.935   1.665
52425W        W20819  39.941  13.437  10.674
52426W        W20820  35.032  36.578   0.402
52427W        W20821  35.565   7.123   2.883
52428W        W20822  25.460   9.731   1.210
52429W        W20823  16.315  11.346  10.781
52430W        W20824  36.397  37.616   1.872
52431W        W20825  35.900  42.718   2.550
52432W        W20826  29.007  36.020  14.246
52433W        W20827  34.502   0.653   4.065
52434W        W20828  12.620  20.793   1.349
52435W        W20829  23.728  19.987  13.591
52436W        W20830  34.053  36.118   1.888
52437W        W20831  24.766  12.825   0.322
52438W        W20832   0.472  17.177  11.184
52439W        W20833  31.115  43.447  10.666
52440W        W20834  12.735  26.987   4.644
52441W        W20835  15.139  23.834  12.154
52442W        W20836   0.238  27.568   3.625
52443W        W20837  20.630  26.474  12.835
52444W        W20838  15.378  42.910   0.949
52445W        W20839  39.470  18.757   1.878
52446W        W20840   7.233   5.852  14.834
52447W        W20841  14.628  10.871   2.572
52448W        W20842   4.901  25.974  11.972
52449W        W20843  27.521  14.531  14.046
52450W        W20844  12.650  26.529   1.181
52451W        W20845  14.700  36.292   1.736
52452W        W20846  14.463  23.504  14.777
52453W        W20847  40.543  19.572   5.109
52454W        W20848  39.829  33.449   3.929
52455W        W20849  44.930  25.154  11.197
52456W        W20850  40.022   0.259   0.883
52457W        W20851  39.911   0.263  13.011
52458W        W20852   3.709  25.878   3.574
52459W        W20853  15.474  34.849   2.040
52460W        W20854  30.439   3.881   1.223
52461W        W20855  24.044   0.488  14.947
52462W        W20856  11.298  29.452   1.999
52463W        W20857  15.784   8.634   2.692
52464W        W20858  27.974  27.955  10.879
52465W        W20859   2.171  25.048   2.579
52466W        W20860  37.639  28.060  11.583
52467W        W20861  44.980   4.283   1.410
52468W        W20862  33.072  30.171  13.910
52469W        W20863  10.692  26.173   4.582
52470W        W20864  10.004  25.495   5.463
52471W        W20865   6.370  10.173  12.547
52472W        W20866  34.033  38.982   3.725
52473W        W20867  38.400   4.047  13.018
52474W        W20868  16.070  27.454   4.636
52475W        W20869  33.959  20.349   3.209
52476W        W20870  16.653  42.443  12.955
52477W        W20871   9.274  36.171   3.694
52478W        W20872   7.754  44.576   1.239
52479W        W20873  10.080  19.514  14.843
52480W        W20874  16.286  21.562   2.787
52481W        W20875  23.736   2.421  11.581
52482W        W20876   5.342   6.804   1.227
52483W        W20877  21.480  20.461   3.612
52484W        W20878  14.234   7.224  13.372
52485W        W20879  19.051   0.025   3.353
52486W        W20880  15.619   5.708  12.952
52487W        W20881  25.305  19.723   3.391
52488W        W20882  12.875   4.153  14.452
52489W        W20883   6.466  20.168   3.069
52490W        W20884  13.029  10.693   0.441
52491W        W20885  34.730  21.231   3.681
52492W        W20886   7.836  14.647   3.915
52493W        W20887  29.919  15.335   4.653
52494W        W20888  36.557   0.588  11.210
52495W        W20889   5.214  17.577   2.664
52496W        W20890   7.605  18.055   0.306
52497W        W20891  21.523  41.498   3.756
52498W        W20892  18.943  41.308   0.762
52499W        W20893  36.885   5.151  13.556
52500W        W20894  28.316  42.357  14.190
52501W        W20895   0.551   8.575   0.801
52502W        W20896  24.678  30.380   1.806
52503W        W20897  23.332  21.541  12.583
52504W        W20898  44.648  43.073  12.942
52505W        W20899  15.947  10.020  12.462
52506W        W20900  24.326  22.696   4.865
52507W        W20901  10.893  14.831   3.330
52508W        W20902   7.249  41.540  12.486
52509W        W20903  16.537   1.932   2.159
52510W        W20904  12.305  14.827  10.991
52511W        W20905   8.268  23.184   3.855
52512W        W20906  20.549  42.208   3.938
52513W        W20907  42.775  34.812  13.022
52514W        W20908  23.718  41.108  14.507
52515W        W20909  35.352  18.230  14.822
52516W        W20910   3.325  33.614   4.080
52517W        W20911  34.150  21.055   1.082
52518W        W20912  20.982  15.896   4.015
52519W        W20913   5.083   0.644  13.378
52520W        W20914  34.999  35.400   4.530
52521W        W20915   0.490  41.756  13.881
52522W        W20916  41.609  10.692  12.290
52523W        W20917  21.453  34.282  12.999
52524W        W20918  21.776  32.682   4.281
52525W        W20919  28.143  38.273   2.704
52526W        W20920   3.320   4.692  14.069
52527W        W20921   8.717  32.287   4.111
52528W        W20922  19.098  44.557   4.273
52529W        W20923  35.586  31.419  11.526
52530W        W20924  20.287  20.517  12.100
52531W        W20925   4.780  32.573  12.146
52532W        W20926   3.418  36.233  13.381
52533W        W20927  39.635  36.029   0.887
52534W        W20928   2.194  36.194   2.005
52535W        W20929   8.621  35.349  12.985
52536W        W20930  29.541  25.252  10.256
52537W        W20931  31.585  17.303  12.812
52538W        W20932  20.567   7.308   1.978
52539W        W20933  42.302  27.830   2.657
52540W        W20934  15.091  16.308   1.179
52541W        W20935  30.041  44.384   1.682
52542W        W20936  31.436  24.560   2.736
52543W        W20937  33.452  43.753   4.706
52544W        W20938  36.398   7.117  13.847
52545W        W20939  35.278   1.030  12.490
52546W        W20940   9.325   3.419  13.481
52547W        W20941  17.031   5.618  13.884
52548W        W20942  31.943  27.020  11.073
52549W        W20943  33.962  35.313  14.799
52550W        W20944  19.172  21.552  12.984
52551W        W20945   4.710  21.657  10.916
52552W        W20946  44.047  10.738  11.956
52553W        W20947  21.206  39.306   3.744
52554W        W20948  19.565  37.817  10.673
52555W        W20949  20.120  34.005   4.679
52556W        W20950  31.030  11.641  12.015
52557W        W20951  37.058   1.466  11.533
52558W        W20952  25.715  13.097   0.323
52559W        W20953  28.376  28.002  11.218
52560W        W20954  26.224  20.169  12.053
52561W        W20955   6.020   1.293  11.983
52562W        W20956  19.163   7.085   1.862
52563W        W20957  35.719  32.662   4.157
52564W        W20958  31.806  11.953   0.926
52565W        W20959  43.792  27.194  10.857
52566W        W20960  40.326   3.206  13.363
52567W        W20961  21.628   8.252  11.729
52568W        W20962  17.119  36.253  11.436
52569W        W20963  25.752   3.373   2.913
52570W        W20964  17.290  10.704  12.144
52571W        W20965   1.094  21.182   1.748
52572W        W20966  11.228  13.414  11.138
52573W        W20967  11.450  12.791   0.597
52574W        W20968   4.823  17.982   3.738
52575W        W20969  17.543   3.173   1.928
52576W        W20970  17.283  40.914  14.897
52577W        W20971  26.695   5.370   0.259
52578W        W20972   5.981  42.876  12.519
52579W        W20973   0.948  16.808  10.090
52580W        W20974  41.822   8.879  10.735
52581W        W20975  38.346  41.228   0.167
52582W        W20976  33.241  17.315   1.724
52583W        W20977  39.968  43.358   1.658
52584W        W20978  41.091   2.025  13.838
52585W        W20979  20.650  39.833   3.289
52586W        W20980  15.540  38.094   3.707
52587W        W20981  22.376  13.293   5.058
52588W        W20982  23.741  19.542  13.916
52589W        W20983  39.632  36.337  13.460
52590W        W20984   8.624  10.135  10.818
52591W        W20985  15.401   8.399  14.873
52592W        W20986   4.866  21.690   5.008
52593W        W20987  15.685  21.219  12.507
52594W        W20988  12.184   6.285  14.966
52595W        W20989  23.614   9.681  11.504
52596W        W20990  30.312  27.964  10.480
52597W        W20991  44.038  33.912   0.782
52598W        W20992  29.292  39.031  13.314
52599W        W20993   6.105  21.980   0.417
52600W        W20994  11.887  21.946   2.022
52601W        W20995  40.086  40.821  14.414
52602W        W20996  35.016  28.868  12.848
52603W        W20997  30.618  31.043   3.165
52604W        W20998  14.157  17.084  12.078
52605W        W20999   7.805  15.592  10.672
52606W        W21000  20.739  38.939   2.758
52607W        W21001   2.296  39.385   3.386
52608W        W21002   4.749  21.248  14.494
52609W        W21003   6.788   3.464  12.460
52610W        W21004   1.732  43.489   3.580
52611W        W21005  30.510  12.721   3.590
52612W        W21006  28.097  13.761   3.834
52613W        W21007   9.048  30.017   1.665
52614W        W21008  29.241  30.670  11.920
52615W        W21009  39.419   4.663  11.722
52616W        W21010  18.523  31.099  13.096
52617W        W21011  28.085   3.741   3.125
52618W        W21012  25.228  32.541   1.412
52619W        W21013  42.026  10.107   2.656
52620W        W21014  19.593  34.951   1.335
52621W        W21015  31.362  42.555   3.184
52622W        W21016  39.637  29.016   2.075
52623W        W21017  31.067  25.191   2.986
52624W        W21018   4.532  20.751   3.187
52625W        W21019  31.431  21.785   4.144
52626W        W21020  23.972  11.890  14.943
52627W        W21021  39.437  21.595  14.484
52628W        W21022  40.750  39.852   2.322
52629W        W21023  13.698  29.375   1.906
52630W        W21024  29.606  38.982  14.352
52631W        W21025  24.509   5.342   3.840
52632W        W21026  18.461   8.983   3.707
52633W        W21027  37.494  11.027  13.039
52634W        W21028  38.131   6.221  11.045
52635W        W21029   2.174  21.120   2.564
52636W        W21030   6.172  18.240  12.105
52637W        W21031  32.558  32.094  13.325
52638W        W21032   9.749  35.103   2.225
52639W        W21033  44.219  10.018   4.160
52640W        W21034  44.345   9.382  13.788
52641W        W21035  10.659  10.376  11.986
52642W        W21036  27.798  34.632   4.652
52643W        W21037  42.034  29.982  14.600
52644W        W21038  24.014  38.358  13.096
52645W        W21039  12.247  15.745  14.540
52646W        W21040   4.595  41.461  11.714
52647W        W21041  22.394  28.731  11.883
52648W        W21042  42.066  17.082  11.961
52649W        W21043  39.151  36.762   2.086
52650W        W21044  13.094  33.455   3.376
52651W        W21045  17.157  39.114  12.361
52652W        W21046  41.542  36.806   1.964
52653W        W21047   5.705   6.237  12.982
52654W        W21048   0.671  20.414   0.708
52655W        W21049  15.360   4.640   1.221
52656W        W21050   4.275  21.217   0.797
52657W        W21051  19.280   2.393  14.881
52658W        W21052   4.237  16.585   4.113
52659W        W21053  12.598  19.778   4.048
52660W        W21054  24.493   0.553  14.248
52661W        W21055  18.778  20.640   9.820
52662W        W21056  17.628  23.759  11.243
52663W        W21057   4.835   9.666  12.897
52664W        W21058   6.611  43.018   4.577
52665W        W21059  17.962   4.796  10.184
52666W        W21060  24.308  18.923  12.206
52667W        W21061  10.928  18.747   3.985
52668W        W21062  26.730  31.559  12.518
52669W        W21063   7.414  37.397   3.615
52670W        W21064  23.498  28.122  11.467
52671W        W21065  19.269  21.653  11.971
52672W        W21066  24.474  26.985   4.095
52673W        W21067  42.482  18.070   4.840
52674W        W21068  41.946   6.439  12.129
52675W        W21069  18.119  13.347  13.337
52676W        W21070   3.798  43.760  13.462
52677W        W21071   3.566  39.774  14.465
52678W        W21072  27.668  14.293   0.899
52679W        W21073   2.513  30.157   2.107
52680W        W21074  38.127  17.668  12.530
52681W        W21075  29.968  41.941   2.929
52682W        W21076  24.058  15.866   1.646
52683W        W21077  10.662  37.327   3.356
52684W        W21078  10.924  42.627  11.094
52685W        W21079   9.372  43.033  10.306
52686W        W21080  10.827  36.347  13.020
52687W        W21081   2.166  36.498  10.982
52688W        W21082   7.498   9.585   4.078
52689W        W21083  38.655  36.676   1.140
52690W        W21084  39.727  21.730   0.893
52691W        W21085  12.822  14.831   3.610
52692W        W21086  17.320   0.094   4.001
52693W        W21087  15.283  39.315  11.140
52694W        W21088  14.980  30.979  12.963
52695W        W21089  23.271  17.198  14.524
52696W        W21090  19.523  41.385  14.780
52697W        W21091  26.158   0.409  12.947
52698W        W21092  29.412  15.340  11.141
52699W        W21093   5.309  44.277   4.867
52700W        W21094  14.249   0.896  11.638
52701W        W21095  39.948   9.876  12.907
52702W        W21096  30.363   3.623  13.508
52703W        W21097   5.033  10.254  10.283
52704W        W21098  13.349  42.463   4.101
52705W        W21099  22.346  23.199   2.630
52706W        W21100  20.469  34.152  11.924
52707W        W21101  15.805  10.521  12.434
52708W        W21102  24.510   6.680   4.474
52709W        W21103  12.750   8.293  13.324
52710W        W21104  42.054  43.666   1.753
52711W        W21105  26.086  36.472  11.009
52712W        W21106   9.881   0.962   3.168
52713W        W21107  33.981   6.882  14.525
52714W        W21108  39.699   7.468  11.619
52715W        W21109  31.735  26.504   2.694
52716W        W21110  31.077  16.936  14.214
52717W        W21111  23.785   2.309   3.628
52718W        W21112  34.475  14.082  14.458
52719W        W21113  37.614  11.310  11.875
52720W        W21114  18.072  26.439  13.337
52721W        W21115  12.258  44.780  14.418
52722W        W21116   9.164   9.710   3.311
52723W        W21117  28.670   3.315  13.286
52724W        W21118  44.274  12.103  14.898
52725W        W21119  37.854   5.826  13.275
52726W        W21120  31.146  16.626   3.179
52727W        W21121  36.685  39.379  10.532
52728W        W21122  13.890  42.288   1.819
52729W        W21123  44.250  13.872  14.870
52730W        W21124   4.594  37.753  11.152
52731W        W21125  19.790  39.528   9.817
52732W        W21126  41.289  17.610  11.691
52733W        W21127   5.622   3.495   1.339
52734W        W21128  18.449  42.742   3.613
52735W        W21129  29.656  26.306  11.070
52736W        W21130  34.987  21.394  12.445
52737W        W21131  35.264  43.558   0.809
52738W        W21132   4.782  28.625  13.892
52739W        W21133  30.520  13.752  10.607
52740W        W21134  33.610  33.472  12.413
52741W        W21135  34.828  30.083   1.434
52742W        W21136  23.093   5.251   4.298
52743W        W21137  22.036  24.457  12.974
52744W        W21138  21.446  20.263   2.669
52745W        W21139   9.250  15.212  12.354
52746W        W21140  25.878  40.319  11.644
52747W        W21141  16.329  43.939   1.671
52748W        W21142   2.167  20.623  13.311
52749W        W21143  28.988  21.603   3.868
52750W        W21144  27.748  13.937   2.835
52751W        W21145  42.428  18.120  12.866
52752W        W21146  22.987  41.370   3.732
52753W        W21147  10.383  36.307   4.205
52754W        W21148  25.899  23.663  13.302
52755W        W21149  22.177  44.280   1.888
52756W        W21150  12.755   5.660   0.532
52757W        W21151  19.131   7.426   4.146
52758W        W21152  21.409   4.500   3.175
52759W        W21153  34.415  24.028  11.940
52760W        W21154  19.944  24.657  14.266
52761W        W21155   8.295  33.054  14.156
52762W        W21156  40.129  30.231   4.797
52763W        W21157  12.815  17.655  13.766
52764W        W21158  44.317   9.120  12.926
52765W        W21159  23.839  44.413   9.903
52766W        W21160  41.094  27.979  12.720
52767W        W21161  13.198   2.001   1.705
52768W        W21162  44.303  40.199   2.758
52769W        W21163  12.265   3.330   3.718
52770W        W21164  15.357   1.378  12.047
52771W        W21165  15.514  28.463  13.362
52772W        W21166   1.136  36.028   3.636
52773W        W21167  32.453  30.307  13.122
52774W        W21168  44.617  19.014   0.438
52775W        W21169  18.113  21.767  14.016
52776W        W21170  17.360  19.960   4.636
52777W        W21171  27.368  11.396  13.966
52778W        W21172   0.088  25.983   2.353
52779W        W21173  33.347  27.553  12.867
52780W        W21174  39.555  17.251  14.023
52781W        W21175   1.632  16.180  11.521
52782W        W21176  22.494  18.620  14.356
52783W        W21177  29.982  35.075  13.427
52784W        W21178   4.456  32.946   4.316
52785W        W21179  19.778  24.912  11.676
52786W        W21180  44.766  17.319   1.008
52787W        W21181  19.369  34.386  14.492
52788W        W21182   0.470  30.894  11.907
52789W        W21183  11.580  29.577  12.116
52790W        W21184   4.383  25.391  11.278
52791W        W21185  28.157   4.444   4.658
52792W        W21186   4.795  10.543   0.279
52793W        W21187  39.454  32.335  11.021
52794W        W21188  43.305  31.485   4.372
52795W        W21189  32.524  27.199  11.697
52796W        W21190   3.379   7.299   3.163
52797W        W21191   6.753   9.771   4.608
52798W        W21192  27.072  38.535  11.444
52799W        W21193  20.458  35.440  14.781
52800W        W21194   6.731   6.701  12.440
52801W        W21195  16.295  36.070   0.951
52802W        W21196  37.913  13.802  13.133
52803W        W21197   8.710  44.997   0.362
52804W        W21198  41.918  21.259   3.556
52805W        W21199  33.547   0.206   0.707
52806W        W21200  34.065   5.907  10.893
52807W        W21201  38.085  25.640   2.403
52808W        W21202  13.483  25.681  11.901
52809W        W21203  17.485  33.825  13.760
52810W        W21204  33.174  10.363  11.566
52811W        W21205  26.324  42.398  14.103
52812W        W21206   9.629   8.921   4.224
52813W        W21207  16.894  41.604  12.867
52814W        W21208   7.705  25.938  14.793
52815W        W21209  21.479  42.925   4.754
52816W        W21210   1.284  40.453   0.757
52817W        W21211  41.930   0.484  14.321
52818W        W21212  28.908  37.404  12.707
52819W        W21213  37.463  15.890   5.031
52820W        W21214   3.258  42.952  14.300
52821W        W21215   1.020  12.419  13.503
52822W        W21216  35.092  19.793   4.150
52823W        W21217  19.653  27.742  12.020
52824W        W21218  39.903  30.945   3.577
52825W        W21219  12.073   1.203   2.967
52826W        W21220  10.166  34.300  13.658
52827W        W21221  26.280  43.079   9.746
52828W        W21222  31.219  34.114  11.660
52829W        W21223   4.234   6.370   1.517
52830W        W21224  16.045  38.731  12.239
52831W        W21225   1.264  27.971  13.549
52832W        W21226  10.647  35.922  14.886
52833W        W21227  35.710  13.159   3.311
52834W        W21228   0.682  17.118   0.934
52835W        W21229   6.707  24.033  13.581
52836W        W21230  42.375  29.950  12.139
52837W        W21231  22.659   0.344   1.787
52838W        W21232  27.837   6.770  11.545
52839W        W21233  15.885  21.618  11.968
52840W        W21234  30.090  18.065  14.585
52841W        W21235  26.585   5.371   2.703
52842W        W21236   6.499  17.744   4.366
52843W        W21237  41.622   6.672   2.977
52844W        W21238   5.418  37.112  10.749
52845W        W21239  14.234   5.749   0.419
52846W        W21240   7.062  16.000  14.017
52847W        W21241  28.107  10.959   4.861
52848W        W21242  11.024  30.892   0.403
52849W        W21243  27.505   2.289  14.878
52850W        W21244  31.717  17.572  11.094
52851W        W21245  35.621  12.298   1.427
52852W        W21246  33.369   5.422  14.425
52853W        W21247  14.293  34.110  14.824
52854W        W21248  29.141  19.904   4.856
52855W        W21249   7.611  15.386   1.500
52856W        W21250  27.416  19.996   4.702
52857W        W21251  23.138  16.468  11.889
52858W        W21252  13.794   8.252   4.176
52859W        W21253   8.944  31.136   2.659
52860W        W21254  25.922   6.675   4.591
52861W        W21255  29.571  12.803  13.892
52862W        W21256  43.958  26.443   2.902
52863W        W21257  40.275  21.511  14.333
52864W        W21258  41.390  29.432  13.439
52865W        W21259  23.548  38.632  12.015
52866W        W21260  27.364  10.116   1.339
52867W        W21261   0.016  25.511  13.326
52868W        W21262  34.547  28.569   3.144
52869W        W21263  19.311   4.746   0.472
52870W        W21264  12.809   4.792  12.086
52871W        W21265  33.857  41.516   3.706
52872W        W21266  23.754   5.666   2.843
52873W        W21267  10.585  27.011  13.463
52874W        W21268  23.339  16.393   0.332
52875W        W21269  13.651  15.799  10.422
52876W        W21270  11.666   5.689   2.292
52877W        W21271  16.877   9.482   5.074
52878W        W21272  17.994   4.375  14.359
52879W        W21273  18.553   9.549   4.374
52880W        W21274  13.363  13.357  11.095
52881W        W21275  17.321  29.996  13.843
52882W        W21276  11.044  35.063  14.859
52883W        W21277  10.877   5.391   1.854
52884W        W21278  13.564   7.171   2.817
52885W        W21279  12.465  34.139  11.474
52886W        W21280  43.978  44.732   4.727
52887W        W21281  32.660  31.125   0.340
52888W        W21282   8.874  43.706  14.079
52889W        W21283  25.752  18.125  10.792
52890W        W21284  21.830   7.897   1.319
52891W        W21285  21.821  15.583  13.465
52892W        W21286  27.030   7.061  13.121
52893W        W21287  16.287  32.164  14.380
52894W        W21288  31.335  42.931  12.162
52895W        W21289  41.316  34.104   0.206
52896W        W21290   6.316  29.884  13.822
52897W        W21291  25.953  22.670   3.348
52898W        W21292  20.641  31.533   3.626
52899W        W21293  20.753  36.805   3.910
52900W        W21294  31.186  18.243  11.957
52901W        W21295  23.089  17.048   3.231
52902W        W21296  11.762  23.761  10.818
52903W        W21297  39.004  29.224   9.940
52904W        W21298  18.744  21.671   0.886
52905W        W21299  18.401  16.365   3.235
52906W        W21300  16.019  30.835   4.991
52907W        W21301  32.965  23.900   1.171
52908W        W21302  13.163   8.366   1.401
52909W        W21303  21.893  39.451  12.848
52910W        W21304   4.851   4.244   3.597
52911W        W21305   0.559  18.240   4.753
52912W        W21306  40.541  23.220   0.482
52913W        W21307   3.984   2.043  12.726
52914W        W21308   6.364  16.110   4.003
52915W        W21309   2.247  34.485   2.265
52916W        W21310  38.142  34.695   0.889
52917W        W21311  28.398  23.783   0.182
52918W        W21312  10.101  42.223   1.335
52919W        W21313  35.472  22.425  10.749
52920W        W21314  21.107  12.187   2.879
52921W        W21315  24.502  37.457  13.557
52922W        W21316  38.081   5.726  10.387
52923W        W21317  11.829  40.071   4.059
52924W        W21318  37.595  15.802   4.103
52925W        W21319  39.060   7.331   2.380
52926W        W21320  40.724   8.782   2.766
52927W        W21321   9.429  35.348   4.549
52928W        W21322  34.582   3.426  11.988
52929W        W21323   1.297  11.114   4.085
52930W        W21324  27.983  23.922   3.711
52931W        W21325  34.141  38.703   4.206
52932W        W21326   0.307  28.074   3.521
52933W        W21327   8.436  16.918   1.000
52934W        W21328  31.703  21.188  14.340
52935W        W21329  41.761  17.116  14.528
52936W        W21330   2.517  27.604   4.676
52937W        W21331  28.137  17.604  12.076
52938W        W21332  19.872  39.960   4.798
52939W        W21333   3.475  17.128  11.995
52940W        W21334  23.665  40.030   0.491
52941W        W21335  16.840   6.974  11.205
52942W        W21336  32.976  40.527  13.009
52943W        W21337  37.019  33.307   2.387
52944W        W21338  23.159  40.567  12.506
52945W        W21339  18.129  23.594  14.857
52946W        W21340   4.468   8.860   2.611
52947W        W21341   3.863   2.527   4.321
52948W        W21342  35.389   8.437   3.124
52949W        W21343  18.152  22.493   0.508
52950W        W21344  43.526  39.853   4.194
52951W        W21345  29.803  15.249  14.691
52952W        W21346  38.327  32.980   2.966
52953W        W21347   3.796  43.207  11.068
52954W        W21348   8.206  11.299   3.862
52955W        W21349   1.570  26.863  13.941
52956W        W21350   0.700  39.718  14.057
52957W        W21351  22.795  41.855  10.491
52958W        W21352  11.031  35.102   4.089
52959W        W21353  26.205  38.002   1.877
52960W        W21354  39.517  26.653   0.478
52961W        W21355   6.255  23.006  14.936
52962W        W21356   4.254  10.273  11.881
52963W        W21357   2.893   2.656   2.763
52964W        W21358  28.416  26.677   1.830
52965W        W21359  26.443  40.531  13.013
52966W        W21360  10.371  14.576  14.371
52967W        W21361  18.233  21.898  10.965
52968W        W21362  31.129  31.374  14.522
52969W        W21363  31.993  43.927  14.902
52970W        W21364  39.034  28.658  14.540
52971W        W21365  20.671  42.818   0.844
52972W        W21366  17.627  29.187  14.749
52973W        W21367  15.785   1.136  13.311
52974W        W21368  42.049   0.690   2.338
52975W        W21369  20.351   8.483  12.051
52976W        W21370  15.680  13.416  12.119
52977W        W21371  14.256  31.590   4.116
52978W        W21372  10.160  37.849   1.189
52979W        W21373   5.675   1.737  11.118
52980W        W21374  21.406  11.178   4.170
52981W        W21375  11.887  27.429   0.978
52982W        W21376  38.860   9.334   3.541
52983W        W21377  25.670  32.971   3.523
52984W        W21378  30.325  40.412   1.206
52985W        W21379   8.691  19.670   2.418
52986W        W21380  31.191  28.452   3.403
52987W        W21381  40.000  40.535  14.885
52988W        W21382  11.613  35.890   4.125
52989W        W21383  16.690  13.678  12.527
52990W        W21384  18.804   8.087   1.860
52991W        W21385  36.864  32.105   3.261
52992W        W21386  38.767  12.340   3.540
52993W        W21387  30.868  37.229   3.773
52994W        W21388  21.220  33.834  12.868
52995W        W21389   0.959  41.471  12.830
52996W        W21390  13.009  22.028  12.985
52997W        W21391   7.193  10.385   1.560
52998W        W21392   8.441   5.825  10.706
52999W        W21393  16.385  16.774   1.335
53000W        W21394   0.385   4.810  10.543
53001W        W21395  27.134  20.522  12.913
53002W        W21396  11.160  34.772   2.305
53003W        W21397  14.532   7.435   0.634
53004W        W21398  26.713   3.368  14.475
53005W        W21399  26.451  13.612   3.158
53006W        W21400  21.626   6.677   0.740
53007W        W21401  34.664   9.762   3.180
53008W        W21402  22.062  42.804  14.350
53009W        W21403  36.178   7.386   3.341
53010W        W21404  17.803   6.854  12.661
53011W        W21405  43.378  15.287  10.701
53012W        W21406  35.154  16.572   2.824
53013W        W21407  32.670  30.132   3.230
53014W        W21408  29.169   0.263   2.305
53015W        W21409   8.215  42.411   3.445
53016W        W21410   1.303  43.352  12.734
53017W        W21411   6.989   6.223   2.223
53018W        W21412  44.590  24.333  11.078
53019W        W21413  35.566  31.730  11.932
53020W        W21414  34.340   6.347  11.494
53021W        W21415  32.998   5.166   0.342
53022W        W21416  28.666   7.240   3.097
53023W        W21417  13.136  13.855  15.000
53024W        W21418  25.618  18.558   0.963
53025W        W21419  22.025  33.887   3.769
53026W        W21420  24.959  35.478   3.683
53027W        W21421  17.787  41.505  14.387
53028W        W21422   6.344  31.502   2.488
53029W        W21423   9.258   5.198   1.298
53030W        W21424  24.760  22.196   1.319
53031W        W21425  25.188  33.787   2.346
53032W        W21426   8.605  34.004   1.360
53033W        W21427  10.934  32.573   1.656
53034W        W21428  40.496  37.149  12.032
53035W        W21429  33.802  12.446   2.493
53036W        W21430  27.514  27.449   2.360
53037W        W21431  31.890  17.329  11.501
53038W        W21432  37.122  30.975   2.713
53039W        W21433  42.246  30.088   2.295
53040W        W21434  15.810  37.365  13.972
53041W        W21435   0.442  34.004  11.688
53042W        W21436  27.404  37.434  12.972
53043W        W21437  40.476   4.451  11.932
53044W        W21438  36.994  25.890   4.462
53045W        W21439   2.704  30.844  11.630
53046W        W21440   1.876  28.670  12.876
53047W        W21441  25.306   9.385  13.387
53048W        W21442  41.238   6.336  12.544
53049W        W21443   8.073   4.287   3.220
53050W        W21444  40.314  19.773  13.925
53051W        W21445  13.119  32.191  11.661
53052W        W21446  11.299  37.451   1.861
53053W        W21447  33.876  27.072   0.297
53054W        W21448  43.337  17.227  13.317
53055W        W21449  16.008  23.470  12.979
53056W        W21450  15.779  30.095  12.324
53057W        W21451  21.349  25.400  14.522
53058W        W21452  24.463  26.568  11.194
53059W        W21453   3.977  26.417  13.862
53060W        W21454  40.597   2.120  13.942
53061W        W21455  12.762  13.740  11.664
53062W        W21456   2.926  37.331  14.842
53063W        W21457  19.175  25.918  14.226
53064W        W21458  17.665   9.876  11.335
53065W        W21459  24.967   8.670  10.120
53066W        W21460  18.241   8.757  12.541
53067W        W21461  18.017  10.301  11.426
53068W        W21462  38.113  22.131  12.139
53069W        W21463  23.513  22.581  14.022
53070W        W21464  25.743  36.974  13.549
53071W        W21465   0.072  14.331  13.230
53072W        W21466  39.338   2.949   0.665
53073W        W21467  23.130  23.767   0.483
53074W        W21468  26.677  20.376  12.156
53075W        W21469  39.389   1.874   1.236
53076W        W21470  31.613  42.012  12.230
53077W        W21471  28.180  21.862  12.606
53078W        W21472  15.153  36.923   2.785
53079W        W21473  28.763   2.554   1.799
53080W        W21474  10.250  22.720  13.159
53081W        W21475  39.130   6.816   4.087
53082W        W21476  15.129  39.309  14.305
53083W        W21477  20.580  19.605   3.699
53084W        W21478   8.153   0.956   2.749
53085W        W21479   2.335  13.067   1.684
53086W        W21480  13.859   0.938   1.208
53087W        W21481  22.555  10.905  13.515
53088W        W21482   7.827   4.582   3.616
53089W        W21483  43.894   3.888   0.020
53090W        W21484  21.902  20.486   0.552
53091W        W21485  14.185  22.725   0.718
53092W        W21486  11.137   2.240   3.377
53093W        W21487  19.298  21.308  14.910
53094W        W21488  22.607  14.347  14.074
53095W        W21489   1.553  27.960  12.512
53096W        W21490  39.461  34.951   0.295
53097W        W21491  11.360   5.950  11.843
53098W        W21492  44.350   4.762  13.073
53099W        W21493  35.386  34.978  11.429
53100W        W21494  30.265  41.832   0.341
53101W        W21495  15.824  29.357  11.915
53102W        W21496   7.386  44.952  11.575
53103W        W21497  30.403   3.340  14.733
53104W        W21498  16.316   6.029  11.502
53105W        W21499   7.606   0.754  14.231
53106W        W21500  42.315   1.281   0.501
53107W        W21501  38.381   3.971   4.237
53108W        W21502  29.091  42.249  13.617
53109W        W21503   3.151  39.658  13.633
53110W        W21504   7.982  32.220  11.007
53111W        W21505  12.347  44.996   2.415
53112W        W21506   6.875  18.938   1.931
53113W        W21507  28.440  31.313   3.794
53114W        W21508  44.572  35.289  14.742
53115W        W21509   9.699   8.697   3.005
53116W        W21510   9.630  21.734  13.449
53117W        W21511  41.876  12.394  12.429
53118W        W21512  19.445  10.275   3.398
53119W        W21513  27.971  39.383   1.884
53120W        W21514  10.148  44.039  12.086
53121W        W21515  16.532  24.573  14.910
53122W        W21516  43.046  37.387  11.697
53123W        W21517   8.261  38.101   2.656
53124W        W21518  25.104  15.569   1.766
53125W        W21519  18.591   0.854  13.175
53126W        W21520  10.093  43.691  11.698
53127W        W21521  32.192   0.895   0.351
53128W        W21522  14.047   3.616   3.376
53129W        W21523  22.742  19.408  10.300
53130W        W21524  14.311   2.817   3.204
53131W        W21525  12.880  23.889  14.406
53132W        W21526   4.937  31.951  11.306
53133W        W21527  25.657  44.801  11.158
53134W        W21528  11.701   1.501   9.964
53135W        W21529  33.533  37.025   0.277
53136W        W21530  43.020  35.979  13.951
53137W        W21531  29.482  15.693   1.652
53138W        W21532  29.028  29.685  14.901
53139W        W21533  13.168   8.652  10.737
53140W        W21534  20.130  35.845  14.008
53141W        W21535  42.346  13.726  12.483
53142W        W21536  26.503  33.192  14.098
53143W        W21537   1.309  33.366  12.090
53144W        W21538  26.985   9.139   4.077
53145W        W21539   7.793  25.662  14.364
53146W        W21540   1.902  36.296   3.918
53147W        W21541  15.720  30.970  14.304
53148W        W21542  21.531   8.171  14.578
53149W        W21543  15.723  37.458  14.974
53150W        W21544  31.870  28.412   2.887
53151W        W21545   6.326  26.279   3.602
53152W        W21546  40.173  25.100  10.720
53153W        W21547   1.879  44.156   2.281
53154W        W21548  19.222  40.933  14.834
53155W        W21549  22.847  40.801   0.958
53156W        W21550   1.204  35.080  14.951
53157W        W21551  38.037  16.804   3.157
53158W        W21552  23.548  44.764   0.883
53159W        W21553   8.142  40.494   0.875
53160W        W21554  25.935  36.405   4.145
53161W        W21555  42.393  20.776   3.083
53162W        W21556  14.428  24.280   4.569
53163W        W21557  30.650  16.968   0.855
53164W        W21558  23.716  40.834   0.002
53165W        W21559  33.693  16.380   0.490
53166W        W21560  40.233  18.327   2.308
53167W        W21561  19.618  26.884  10.741
53168W        W21562   8.441  34.548   1.781
53169W        W21563   6.533   4.456   1.485
53170W        W21564  36.031  41.064  14.793
53171W        W21565   1.778  38.912   2.762
53172W        W21566  18.854   8.713   3.931
53173W        W21567  40.230  34.681   4.536
53174W        W21568  20.589  39.599  12.957
53175W        W21569   6.359  23.777  12.185
53176W        W21570  15.540  35.041   4.921
53177W        W21571  40.342  33.467  13.552
53178W        W21572  22.107  44.392  10.326
53179W        W21573   7.680  20.343   2.249
53180W        W21574   6.214  16.699   2.649
53181W        W21575  11.740   6.436   2.775
53182W        W21576  39.964  27.572  10.573
53183W        W21577  14.709  30.196   4.572
53184W        W21578  24.150   7.956  11.151
53185W        W21579  31.369  19.656   4.512
53186W        W21580  28.050  18.753   2.853
53187W        W21581  19.720  30.739  11.992
53188W        W21582  32.210  19.136  11.247
53189W        W21583  29.869  44.167   1.230
53190W        W21584  34.447   5.869   0.268
53191W        W21585  29.379  41.600   0.442
53192W        W21586   4.707   8.498  11.560
53193W        W21587  30.920  11.230   1.769
53194W        W21588  32.245  14.740   1.749
53195W        W21589  29.603  35.429  13.608
53196W        W21590  25.471  26.542  14.979
53197W        W21591  18.203  18.137  11.540
53198W        W21592  18.619  13.260   4.105
53199W        W21593   4.464  43.324  13.804
53200W        W21594  37.949  21.443   1.843
53201W        W21595  40.317  10.851  11.241
53202W        W21596  22.434   1.497  11.420
53203W        W21597  11.938  28.054  13.459
53204W        W21598  43.226  19.827   2.825
53205W        W21599  25.734  10.580  14.586
53206W        W21600  35.627   6.820  13.388
53207W        W21601  19.194  22.985   0.309
53208W        W21602  42.083  12.331   1.846
53209W        W21603  25.738  11.772  12.442
53210W        W21604  21.342  29.309   2.602
53211W        W21605  44.692  36.624  14.437
53212W        W21606   5.653  42.038   0.444
53213W        W21607  44.294   5.408   1.717
53214W        W21608  43.386  11.867  12.217
53215W        W21609  43.855  33.027  13.247
53216W        W21610   9.641  17.401  14.447
53217W        W21611  17.654  23.236  11.167
53218W        W21612  24.706  10.579  14.773
53219W        W21613  28.412  19.240  14.731
53220W        W21614  38.455  42.306  11.529
53221W        W21615  32.626  11.797  12.034
53222W        W21616   3.958  29.125  12.127
53223W        W21617  31.621   0.387   2.794
53224W        W21618  17.568  20.213   5.348
53225W        W21619  17.077  36.665   2.093
53226W        W21620  14.685  36.095  12.543
53227W        W21621  17.999  43.833   0.384
53228W        W21622  15.183  13.253  12.011
53229W        W21623  37.742   5.429   4.094
53230W        W21624  18.143  25.177  12.516
53231W        W21625  31.442   2.942   1.951
53232W        W21626  21.444  20.170   1.698
53233W        W21627  35.738  20.713   2.186
53234W        W21628  14.591   1.298  12.455
53235W        W21629  15.218   6.438  14.788
53236W        W21630  10.282   5.644   3.704
53237W        W21631   4.316  16.160  10.514
53238W        W21632  11.371  28.024  11.500
53239W        W21633  35.919  19.173  13.070
53240W        W21634  20.676  10.382  11.761
53241W        W21635   6.781  21.560  11.612
53242W        W21636  27.640  27.558  10.347
53243W        W21637  41.529   6.871   3.850
53244W        W21638  16.657  14.725  13.294
53245W        W21639  34.082  11.506   3.375
53246W        W21640   3.610  42.557  14.332
53247W        W21641  29.650  21.215   0.427
53248W        W21642  16.001  36.383   3.156
53249W        W21643  36.446   9.392  14.459
53250W        W21644  17.170  22.154  14.518
53251W        W21645   2.520  33.667  12.909
53252W        W21646  37.263  44.059   0.777
53253W        W21647  37.534  42.327   2.302
53254W        W21648  41.940  12.346  14.736
53255W        W21649   9.778   5.936   1.337
53256W        W21650  15.655  22.015   3.215
53257W        W21651   5.623  37.543  12.762
53258W        W21652  43.617   4.054  11.866
53259W        W21653   3.189  37.599   3.640
53260W        W21654  27.306  15.729  12.828
53261W        W21655  26.347  11.919   3.183
53262W        W21656   2.715   4.693  13.289
53263W        W21657  44.080  11.328   1.667
53264W        W21658  12.278  31.356   2.862
53265W        W21659  10.352  21.415  11.493
53266W        W21660   7.471  37.290   1.214
53267W        W21661  10.672   4.314   2.767
53268W        W21662  37.324  34.062   1.407
53269W        W21663  11.880   9.829  12.947
53270W        W21664  32.050   1.773  11.695
53271W        W21665   1.760   7.608   1.907
53272W        W21666   3.178  28.570  14.993
53273W        W21667  13.646   5.682  10.312
53274W        W21668   8.373  21.508  12.478
53275W        W21669  33.074  21.188  14.993
53276W        W21670  41.341   4.872  13.750
53277W        W21671  30.744  43.973  13.164
53278W        W21672   3.825  43.450   3.832
53279W        W21673  35.990  31.681  13.351
53280W        W21674  25.036  39.483  11.858
53281W        W21675  38.162  37.464  13.333
53282W        W21676  22.173   2.444   0.742
53283W        W21677  11.917  19.251   2.238
53284W        W21678   4.152   6.432   3.280
53285W        W21679   1.560  40.393  13.783
53286W        W21680  29.359  20.750  12.257
53287W        W21681  20.173  38.549   4.996
53288W        W21682  14.649  30.936   3.741
53289W        W21683  21.851  21.258  14.971
53290W        W21684  12.399  31.938  14.809
53291W        W21685  38.751  17.112  14.521
53292W        W21686   4.425  42.591  11.231
53293W        W21687  17.074  23.717  13.783
53294W        W21688  15.847  15.883  11.918
53295W        W21689   3.259  10.978   3.896
53296W        W21690   8.136   8.692  11.646
53297W        W21691  29.624  13.653   0.319
53298W        W21692  38.275   8.352   4.576
53299W        W21693  26.850  35.291  12.975
53300W        W21694   2.101   3.613  12.368
53301W        W21695   1.785  29.654   1.734
53302W        W21696  30.975  17.605   3.584
53303W        W21697  18.433  12.002   5.277
53304W        W21698  41.057  23.990  12.145
53305W        W21699   8.223  17.020  13.285
53306W        W21700  20.253  28.192  12.369
53307W        W21701  36.399  24.335   2.420
53308W        W21702  11.582  35.396   0.364
53309W        W21703  29.110  36.715   1.716
53310W        W21704  32.709  15.130  11.146
53311W        W21705  21.231   8.177  13.906
53312W        W21706  39.970  41.397   2.381
53313W        W21707  22.796  25.306  11.198
53314W        W21708  14.063   4.887   0.045
53315W        W21709  21.025  30.621  13.891
53316W        W21710  39.307  32.052  10.152
53317W        W21711   1.271  31.697   5.003
53318W        W21712  28.511  44.813  13.012
53319W        W21713   4.147  16.817  11.415
53320W        W21714  28.705  40.644  11.627
53321W        W21715  14.365  34.910  14.494
53322W        W21716  12.665   8.824  10.706
53323W        W21717  32.591  30.652  14.322
53324W        W21718  14.329  19.309   4.520
53325W        W21719  38.927  20.640   3.218
53326W        W21720   0.549  12.271   3.102
53327W        W21721  40.011  24.734   3.318
53328W        W21722   1.254  29.974   4.652
53329W        W21723  26.549   1.436   5.228
53330W        W21724  32.648   4.137   2.653
53331W        W21725  33.099  27.739   4.259
53332W        W21726  11.469  32.995   2.450
53333W        W21727  42.720  27.465   2.537
53334W        W21728  27.899  26.014  14.163
53335W        W21729  36.496   7.742   3.573
53336W        W21730   8.957  33.440  13.528
53337W        W21731  16.315   0.742   4.653
53338W        W21732  41.346  28.643  14.367
53339W        W21733  33.913  22.580   4.590
53340W        W21734  14.806  27.464   1.602
53341W        W21735   1.196  24.919   4.974
53342W        W21736  31.375  26.447   0.906
53343W        W21737  11.872  12.585   0.303
53344W        W21738   9.208   2.293  11.911
53345W        W21739  14.459  30.608  12.161
53346W        W21740  22.175  44.165  14.500
53347W        W21741  40.285  21.081   1.907
53348W        W21742  27.185  20.269   1.832
53349W        W21743  29.988  43.861  14.389
53350W        W21744  21.638   3.445  12.441
53351W        W21745   3.421  11.102  11.642
53352W        W21746  32.927  27.563  10.694
53353W        W21747  16.845  40.510   4.151
53354W        W21748  17.540  34.332  12.495
53355W        W21749   9.302  40.904  12.603
53356W        W21750  40.260  35.003  10.157
53357W        W21751  11.211  39.903   3.104
53358W        W21752  37.530  43.521  10.623
53359W        W21753  17.127  32.712   0.167
53360W        W21754  42.276  22.029  13.531
53361W        W21755  39.084  22.491  14.454
53362W        W21756   4.439  22.116  11.032
53363W        W21757  22.508  27.021   1.692
53364W        W21758  14.838  27.439   2.952
53365W        W21759  16.896  30.018   2.687
53366W        W21760  10.246  36.818  13.421
53367W        W21761  22.486  22.372   3.712
53368W        W21762  12.651  33.542  13.330
53369W        W21763  15.756   3.655  13.002
53370W        W21764  36.399   9.324   2.218
53371W        W21765   2.093  30.154   4.075
53372W        W21766   9.154   1.437   2.344
53373W        W21767  33.873  19.851   3.278
53374W        W21768   1.461  13.913   9.786
53375W        W21769  15.139   4.311   3.136
53376W        W21770   0.369  31.118   1.290
53377W        W21771  43.308  33.323   3.453
53378W        W21772   2.050  25.356   4.562
53379W        W21773  38.234  22.029  13.368
53380W        W21774   4.685  43.284  12.365
53381W        W21775  12.045  25.856  11.095
53382W        W21776  31.642  44.565  11.566
53383W        W21777  39.457  30.397  10.706
53384W        W21778  24.677  20.020   3.709
53385W        W21779  27.491  24.660   3.266
53386W        W21780  30.746  27.040   3.258
53387W        W21781  39.939  31.960  14.248
53388W        W21782  10.524  28.734   1.162
53389W        W21783  26.612   6.424  14.379
53390W        W21784  33.098   4.277   3.731
53391W        W21785   5.724  14.356   3.778
53392W        W21786   8.969  36.593  12.482
53393W        W21787  38.978  18.124  13.534
53394W        W21788  44.113  12.156   3.159
53395W        W21789   8.018  15.410   1.149
53396W        W21790  44.958  44.955  14.629
53397W        W21791  31.081  35.346  12.110
53398W        W21792  26.445  44.374  12.205
53399W        W21793   2.507   1.182  10.749
53400W        W21794  13.193  25.413  12.251
53401W        W21795   5.000  31.235   1.365
53402W        W21796  30.097  13.797  11.635
53403W        W21797  17.807  25.579  14.522
53404W        W21798  13.915   9.380  11.182
53405W        W21799   2.426  23.034   4.556
53406W        W21800  11.133  35.130  13.566
53407W        W21801  36.852  41.066   4.722
53408W        W21802  37.804  22.345  14.982
53409W        W21803  16.811  36.120  10.049
53410W        W21804  25.164  26.653  14.531
53411W        W21805   9.063  44.197   4.151
53412W        W21806   9.262  17.086   3.176
53413W        W21807  15.589  20.461   4.112
53414W        W21808   2.835   4.763   4.222
53415W        W21809   6.837  14.382  13.535
53416W        W21810   9.869   9.298   2.264
53417W        W21811   0.734   1.938   3.276
53418W        W21812  24.160  33.448   0.322
53419W        W21813  10.254  38.614  10.925
53420W        W21814  32.899  26.138   3.358
53421W        W21815   9.748  17.071  11.066
53422W        W21816  18.766   1.414   2.208
53423W        W21817  36.643  21.582  11.974
53424W        W21818  20.643  24.475  11.359
53425W        W21819  28.394  39.918   3.878
53426W        W21820  32.651   7.181  14.243
53427W        W21821  19.000  34.478   4.640
53428W        W21822  21.241  43.608  13.875
53429W        W21823   5.706  30.437  14.719
53430W        W21824  38.742  44.149   2.578
53431W        W21825  31.838  18.571  13.069
53432W        W21826  25.050   8.729  14.909
53433W        W21827  23.452  13.761  11.665
53434W        W21828  15.626   1.230   1.424
53435W        W21829  10.054  19.089   2.149
53436W        W21830  26.488  29.603  12.576
53437W        W21831   3.020  36.673  13.056
53438W        W21832  20.813   3.651  12.929
53439W        W21833  37.917  12.920  10.468
53440W        W21834  28.059  42.491   0.720
53441W        W21835  25.136  20.053   2.267
53442W        W21836   9.670  14.299   4.782
53443W        W21837  10.403  27.527   4.165
53444W        W21838  17.195   8.650   0.778
53445W        W21839  17.272  33.718  13.299
53446W        W21840  14.220  33.379  11.197
53447W        W21841  23.100  23.966   0.004
53448W        W21842  32.879   1.054  10.448
53449W        W21843  39.985  19.742   2.394
53450W        W21844  25.945  32.824  12.698
53451W        W21845   1.759   1.162  14.598
53452W        W21846  13.320  12.149   0.238
53453W        W21847  21.529  39.961  14.222
53454W        W21848  28.568   5.678   3.143
53455W        W21849  26.608   6.398   4.666
53456W        W21850  38.044  21.639   2.332
53457W        W21851  10.788  40.385   0.769
53458W        W21852   5.335   8.737  12.761
53459W        W21853  41.913   4.387   4.564
53460W        W21854  15.161   3.518  14.354
53461W        W21855   1.779  11.622  12.871
53462W        W21856   4.070  16.887   1.827
53463W        W21857  13.758  28.867   1.921
53464W        W21858  34.567  36.373  14.386
53465W        W21859  21.441  43.512   5.097
53466W        W21860  36.948  32.222   1.299
53467W        W21861   5.164  26.307   3.710
53468W        W21862  21.700   6.764   2.807
53469W        W21863  27.625  12.225   4.673
53470W        W21864  36.424   1.544  12.901
53471W        W21865  12.770  40.278  14.635
53472W        W21866   7.974   8.216  11.082
53473W        W21867   8.307  20.779   2.710
53474W        W21868  20.259  37.923   3.698
53475W        W21869  37.302  18.599   2.158
53476W        W21870  13.242  41.932   2.310
53477W        W21871  24.412  28.310   2.878
53478W        W21872  27.015  44.262   0.768
53479W        W21873  39.758  41.443   4.355
53480W        W21874  15.922  37.523   4.617
53481W        W21875  24.994  15.364  13.833
53482W        W21876  18.800  10.054  11.642
53483W        W21877  12.760   6.225  13.991
53484W        W21878  17.754  19.497   3.713
53485W        W21879  36.337  42.504  14.966
53486W        W21880  17.212  40.630   2.812
53487W        W21881  13.186  27.267  11.090
53488W        W21882  36.420  33.941  14.265
53489W        W21883  14.539  20.127  14.398
53490W        W21884  32.038  44.854  11.366
53491W        W21885  41.853  25.932   0.977
53492W        W21886  42.002  28.104  10.689
53493W        W21887   8.130  34.295  12.469
53494W        W21888  27.418  26.714  14.465
53495W        W21889  28.735  31.440  12.409
53496W        W21890  33.357  16.251   0.935
53497W        W21891   8.397  26.181  12.124
53498W        W21892   6.278  27.224   3.688
53499W        W21893  23.717   2.401   0.774
53500W        W21894  18.579  14.702   3.681
53501W        W21895  27.902  12.270  12.592
53502W        W21896  41.406  26.062   0.320
53503W        W21897  42.716  19.845   2.599
53504W        W21898  39.837  16.537   4.186
53505W        W21899  36.162  15.094  11.783
53506W        W21900  24.330  28.767  12.947
53507W        W21901  21.225  32.581  13.806
53508W        W21902  36.022  10.223   9.605
53509W        W21903  13.405   5.890   1.034
53510W        W21904  34.730  12.649   1.371
53511W        W21905  20.152   7.873   3.820
53512W        W21906  44.493  30.723   4.691
53513W        W21907   2.794   1.250   3.410
53514W        W21908  14.391  12.168   4.284
53515W        W21909  26.934  30.724   4.925
53516W        W21910   8.899   1.912   9.832
53517W        W21911  25.745   9.042   0.646
53518W        W21912  44.961  10.262  13.367
53519W        W21913  33.492  26.629   3.128
53520W        W21914  26.320   9.102  11.618
53521W        W21915  37.831  43.008   1.398
53522W        W21916  14.559  22.504  12.860
53523W        W21917  22.038   8.833   4.313
53524W        W21918  14.854  27.618   0.695
53525W        W21919  29.770  23.057   3.305
53526W        W21920   7.227  27.105   9.816
53527W        W21921  32.497  42.503  10.588
53528W        W21922  36.194  10.471  12.071
53529W        W21923  10.044  10.625   4.233
53530W        W21924   6.799  28.249  14.785
53531W        W21925  41.692  31.780   3.356
53532W        W21926  30.473  18.300   3.795
53533W        W21927   2.895  27.160   3.687
53534W        W21928  41.836  43.058  12.469
53535W        W21929   3.501   2.891   0.774
53536W        W21930  11.518  40.876   3.361
53537W        W21931  28.178  34.434  10.310
53538W        W21932  18.734  31.143  12.122
53539W        W21933  15.765  13.356   4.057
53540W        W21934  26.094  35.191  13.317
53541W        W21935  42.759  29.545   0.181
53542W        W21936  20.092   3.613  14.850
53543W        W21937  40.198   1.758   1.804
53544W        W21938  43.318  44.413   0.826
53545W        W21939  16.801  10.632   1.698
53546W        W21940   2.637  35.501   1.800
53547W        W21941   4.899  31.281  14.412
53548W        W21942  25.651  26.360   4.241
53549W        W21943  27.527  27.586  13.928
53550W        W21944  37.403  32.445   1.483
53551W        W21945  38.561  23.728   0.472
53552W        W21946  17.930  22.702  14.441
53553W        W21947   5.408  27.540   0.525
53554W        W21948   4.804  31.382   3.230
53555W        W21949  22.126   7.336   3.675
53556W        W21950  14.060  18.838  13.136
53557W        W21951   6.876  37.387   4.363
53558W        W21952  30.562  19.178   4.690
53559W        W21953  16.248  36.462  11.279
53560W        W21954  30.621  25.538   1.741
53561W        W21955  16.259   5.338  13.739
53562W        W21956  14.252   8.162   1.976
53563W        W21957  15.720  19.258  10.933
53564W        W21958  25.494  44.443   3.888
53565W        W21959  37.350  44.149  12.634
53566W        W21960   7.067  30.055   4.893
53567W        W21961  13.750  22.699  13.950
53568W        W21962  20.667  13.720  13.290
53569W        W21963  16.098  39.371  14.401
53570W        W21964  41.623  33.663   1.819
53571W        W21965  36.056   3.769   0.469
53572W        W21966  44.718  11.090  11.621
53573W        W21967  41.277  40.457   1.339
53574W        W21968  24.549  14.879  13.342
53575W        W21969  17.782  10.702  14.483
53576W        W21970  42.523   7.153  10.671
53577W        W21971  25.420  15.298   2.445
53578W        W21972   8.466  28.334   2.078
53579W        W21973  29.938  30.532   3.551
53580W        W21974   8.336  31.617  13.855
53581W        W21975  41.951  16.846  13.047
53582W        W21976  35.039  24.700  13.045
53583W        W21977   6.809  39.450   2.262
53584W        W21978  21.614   8.460  14.149
53585W        W21979   6.305   2.465  13.014
53586W        W21980  21.440  39.600  12.992
53587W        W21981  26.720  37.244   0.066
53588W        W21982  38.386   0.872  13.179
53589W        W21983  20.847  20.588   1.306
53590W        W21984   2.107  27.026  14.824
53591W        W21985  15.613   0.917  11.956
53592W        W21986  10.698  34.965  13.335
53593W        W21987   2.110  13.162   0.422
53594W        W21988   0.411  20.735  13.082
53595W        W21989   5.028  35.124   2.797
53596W        W21990  14.171  15.738   3.617
53597W        W21991  29.931  35.983   3.320
53598W        W21992  36.170  24.610   3.758
53599W        W21993   0.264  25.937  13.509
53600W        W21994  29.406  26.101   2.872
53601W        W21995  26.528  37.369   2.662
53602W        W21996  17.639   1.915   4.351
53603W        W21997  23.334  21.659   4.440
53604W        W21998  20.470  14.621   3.071
53605W        W21999  21.327  23.192  12.131
53606W        W22000  42.936  39.083   2.713
53607W        W22001  41.780  26.706  13.945
53608W        W22002  18.214  39.943   1.928
53609W        W22003  44.293   2.552  12.539
53610W        W22004  23.866  26.107  12.473
53611W        W22005  20.150  40.070  10.268
53612W        W22006   5.942  14.613  14.280
53613W        W22007  44.617  21.566  12.481
53614W        W22008  15.851  37.909  14.745
53615W        W22009  34.516  18.674  10.466
53616W        W22010  16.712  27.916   1.011
53617W        W22011  11.340   9.721   0.247
53618W        W22012  18.061  18.323  11.084
53619W        W22013  21.204  15.250  14.470
53620W        W22014   9.636  30.329  11.065
53621W        W22015  17.134  13.786  11.572
53622W        W22016  11.182  13.730  11.569
53623W        W22017  13.066  20.990   1.743
53624W        W22018  44.539  12.854   2.005
53625W        W22019  10.039   4.774  14.431
53626W        W22020  11.727  35.640  14.471
53627W        W22021  26.062  10.957   0.789
53628W        W22022  30.418  19.247  12.214
53629W        W22023  41.458  21.505   1.244
53630W        W22024  44.539  41.239   3.483
53631W        W22025  40.102  27.998   3.966
53632W        W22026  19.700  43.534  14.896
53633W        W22027  19.182  23.016  14.291
53634W        W22028  24.117  26.635   2.295
53635W        W22029  26.545  14.888  10.528
53636W        W22030  15.140  11.533  11.143
53637W        W22031  13.159  36.489  12.095
53638W        W22032  14.156  25.476   0.753
53639W        W22033  32.439  36.786   0.815
53640W        W22034  26.419  18.583  14.630
53641W        W22035   9.054  26.588   1.820
53642W        W22036   5.752  37.937  12.039
53643W        W22037  40.716  36.804   4.699
53644W        W22038  22.051  20.934   0.344
53645W        W22039  43.436  11.051  14.021
53646W        W22040  30.995  39.487   2.263
53647W        W22041  21.241   2.504   3.187
53648W        W22042  41.406   6.390  12.040
53649W        W22043  39.045  42.373   3.926
53650W        W22044   5.927  34.940  14.827
53651W        W22045   8.901  20.528  12.981
53652W        W22046  43.879  42.393  12.476
53653W        W22047  31.351   8.968  13.343
53654W        W22048  43.250  32.458  12.854
53655W        W22049   3.349  26.933   2.801
53656W        W22050  43.052  21.093   1.883
53657W        W22051  44.772  42.435   2.159
53658W        W22052  16.419  27.486   0.702
53659W        W22053  27.545  29.663   4.208
53660W        W22054   9.857   3.914   2.418
53661W        W22055  39.004  34.696   1.379
53662W        W22056  25.065  25.024   4.839
53663W        W22057  42.324  17.132  13.241
53664W        W22058  29.324  23.176   2.668
53665W        W22059  41.843  20.385   3.765
53666W        W22060  17.033  22.468   1.975
53667W        W22061   7.954  17.340  12.922
53668W        W22062   1.970  11.597  11.390
53669W        W22063  27.936  35.418   2.183
53670W        W22064   2.955  42.763   0.839
53671W        W22065  17.734  34.098  11.468
53672W        W22066  32.956  24.016   2.170
53673W        W22067   6.161  18.785   0.832
53674W        W22068  30.978  32.740   4.702
53675W        W22069  38.470  21.210  13.834
53676W        W22070   5.219  43.338   2.808
53677W        W22071   6.746   7.797  12.871
53678W        W22072   6.469  35.367   2.883
53679W        W22073   6.449  41.918  13.831
53680W        W22074  41.742   8.889   4.669
53681W        W22075   1.845   5.111   0.549
53682W        W22076   5.954   5.257  11.077
53683W        W22077  27.093  14.569   3.304
53684W        W22078  11.777  37.484   9.971
53685W        W22079  44.833  15.281  11.650
53686W        W22080  42.808  23.468  12.029
53687W        W22081  25.480  13.172  11.229
53688W        W22082  26.766  43.498  12.562
53689W        W22083   8.815   8.730   1.412
53690W        W22084  43.253  40.848  10.723
53691W        W22085  11.218  26.562  11.345
53692W        W22086  40.764  24.958  13.319
53693W        W22087  19.708  16.037   0.293
53694W        W22088  37.062  13.618  13.987
53695W        W22089  31.001  30.445   0.769
53696W        W22090  28.023   6.452   3.228
53697W        W22091  38.976   4.380   2.177
53698W        W22092   7.878   3.797  11.812
53699W        W22093   8.852  32.610  12.950
53700W        W22094  10.871  12.317  12.195
53701W        W22095  42.072   3.387   0.915
53702W        W22096  32.874  38.621  13.930
53703W        W22097  24.627  13.603   3.740
53704W        W22098  42.688  35.922  11.553
53705W        W22099  30.856  33.161   1.680
53706W        W22100  11.869  23.955   1.526
53707W        W22101   3.206  30.123  12.492
53708W        W22102  12.821  43.616   0.692
53709W        W22103  41.310  12.813   3.740
53710W        W22104   6.862  20.062   2.739
53711W        W22105  19.395  41.575   0.818
53712W        W22106  21.626  23.493   4.105
53713W        W22107  14.085   4.702  11.567
53714W        W22108  28.004   5.313  13.455
53715W        W22109  35.208  21.890   1.811
53716W        W22110   0.745  44.964  13.910
53717W        W22111  36.330  11.750  12.982
53718W        W22112  38.090  42.239   4.094
53719W        W22113  29.167  16.642   3.420
53720W        W22114  28.321  36.094  11.252
53721W        W22115   7.931  19.843   3.814
53722W        W22116  16.309  40.860  12.410
53723W        W22117  17.898   1.755  11.683
53724W        W22118  14.238  42.427   0.743
53725W        W22119  32.627   9.018   1.392
53726W        W22120  28.543  31.703  11.150
53727W        W22121  28.913  34.439  12.500
53728W        W22122  16.274  22.227   0.401
53729W        W22123  36.558  39.470  11.840
53730W        W22124  33.591  22.428  12.077
53731W        W22125   4.375  40.127   2.816
53732W        W22126  28.578  30.940  13.328
53733W        W22127   2.176  44.878   4.616
53734W        W22128  23.011  27.007  12.000
53735W        W22129  42.779  24.981   3.425
53736W        W22130  39.258  21.966   3.690
53737W        W22131  21.304  34.652  12.696
53738W        W22132  39.807  37.437  12.801
53739W        W22133  31.474  38.273  13.656
53740W        W22134  34.316  11.592  12.136
53741W        W22135  36.470  42.104   3.340
53742W        W22136  15.406   2.660  14.031
53743W        W22137   6.833  21.149   4.661
53744W        W22138  36.047   8.012  13.203
53745W        W22139  36.885  26.209  14.246
53746W        W22140  39.622  10.161  13.977
53747W        W22141  26.364  23.312  11.076
53748W        W22142  22.451  24.285  13.878
53749W        W22143   0.808  11.778   4.492
53750W        W22144  40.582  42.759   4.619
53751W        W22145   7.009  34.569  11.391
53752W        W22146  17.795  13.754   1.747
53753W        W22147  13.648  18.025  12.551
53754W        W22148   5.658   4.675   0.381
53755W        W22149  33.434  41.863  11.214
53756W        W22150  22.031  12.292   3.296
53757W        W22151  10.347  15.130  12.705
53758W        W22152  30.978  40.882  11.606
53759W        W22153  12.890   3.451   4.971
53760W        W22154  28.708   5.193   0.373
53761W        W22155  43.991  22.661  11.460
53762W        W22156  41.023  40.417   1.788
53763W        W22157  11.770   6.530  14.497
53764W        W22158  44.901  13.532  10.991
53765W        W22159   2.864  27.371   4.178
53766W        W22160  25.930  35.600  12.044
53767W        W22161  40.228  12.771   2.778
53768W        W22162  17.374  11.404  11.406
53769W        W22163  39.538  23.795  11.027
53770W        W22164  28.730  16.761   1.026
53771W        W22165  10.234  28.558   3.815
53772W        W22166  21.231   4.818   2.670
53773W        W22167  13.691  34.678  12.407
53774W        W22168  31.463   2.368   0.797
53775W        W22169  27.119  12.875   0.254
53776W        W22170  36.444  29.450   3.870
53777W        W22171  20.179  29.223  10.604
53778W        W22172  40.912  26.863  11.055
53779W        W22173  39.964  21.249   1.521
53780W        W22174  24.155  44.541   1.919
53781W        W22175  40.188  15.607  14.886
53782W        W22176  20.218  24.206  11.507
53783W        W22177   3.866  40.458  11.797
53784W        W22178  30.948  13.430   3.858
53785W        W22179  16.885  11.641  13.255
53786W        W22180   4.472  44.678  12.309
53787W        W22181  28.552  21.633  11.173
53788W        W22182  40.607  16.760   0.250
53789W        W22183  15.874  16.623  11.077
53790W        W22184  28.501  21.647   3.714
53791W        W22185  31.669  38.435  14.098
53792W        W22186   5.647   4.904  13.521
53793W        W22187  40.618  16.372   2.620
53794W        W22188  30.598   6.375   2.249
53795W        W22189  33.760  43.759   2.817
53796W        W22190   6.752  36.104  14.340
53797W        W22191  28.010  17.571  11.151
53798W        W22192  25.951  21.242   3.666
53799W        W22193  23.672  14.684  13.245
53800W        W22194  43.809  11.575  14.356
53801W        W22195   3.286   5.217  14.965
53802W        W22196  27.595   5.318   4.510
53803W        W22197  13.904   6.478  14.752
53804W        W22198  39.567  43.606  14.291
53805W        W22199  35.043  34.105   2.445
53806W        W22200  42.540   7.917   3.563
53807W        W22201   5.170  43.387  11.178
53808W        W22202   3.573   5.958  12.394
53809W        W22203  44.191  31.307   3.795
53810W        W22204  39.973   6.194  10.619
53811W        W22205  13.342  32.793  11.219
53812W        W22206  24.021  38.608   3.631
53813W        W22207  20.251  33.552   1.397
53814W        W22208  21.450   2.675   4.133
53815W        W22209  15.527  16.263   3.596
53816W        W22210  41.863  19.982  13.944
53817W        W22211  28.594  35.588  14.574
53818W        W22212  19.146  17.165   1.716
53819W        W22213  42.116  11.606  10.643
53820W        W22214  35.094  42.435  12.353
53821W        W22215   2.385  40.841   3.642
53822W        W22216  25.736  11.497   2.436
53823W        W22217   3.272  44.285   3.644
53824W        W22218  10.889   5.764  11.731
53825W        W22219  23.367   5.250  12.357
53826W        W22220  27.379  19.386  10.504
53827W        W22221   5.233  29.540   1.841
53828W        W22222  32.943   4.600   0.285
53829W        W22223  32.528   5.965   4.075
53830W        W22224   8.395  23.994   4.381
53831W        W22225  39.143  27.228   3.572
53832W        W22226  36.606  21.096   4.740
53833W        W22227  23.573   5.576   3.765
53834W        W22228  36.227  12.192   3.262
53835W        W22229   4.850   0.972  12.354
53836W        W22230   9.445   0.320  14.453
53837W        W22231  24.967  35.457   2.721
53838W        W22232  40.856  36.369   0.688
53839W        W22233  22.204  14.042   4.565
53840W        W22234   7.131  14.696   3.198
53841W        W22235  42.128  42.830   3.948
53842W        W22236  44.405   8.897   2.263
53843W        W22237  35.391  13.940   2.245
53844W        W22238  35.699  26.712   1.286
53845W        W22239  10.589  25.108   2.728
53846W        W22240  18.536   1.454   4.201
53847W        W22241   4.014  26.897  14.749
53848W        W22242  25.057  24.249  12.634
53849W        W22243  16.290  31.571  11.938
53850W        W22244  24.444  24.047   4.412
53851W        W22245  31.060   8.634  13.623
53852W        W22246  43.823   5.771  11.363
53853W        W22247   4.000   4.200   3.091
53854W        W22248  14.324  14.331  11.546
53855W        W22249  14.711  22.857   1.825
53856W        W22250  40.248  23.272  10.488
53857W        W22251   6.407  23.732  14.457
53858W        W22252  32.030   6.637  12.514
53859W        W22253  11.875  41.236  11.174
53860W        W22254  23.034  24.100  10.511
53861W        W22255   0.675  21.838  11.534
53862W        W22256   8.962  34.273   1.683
53863W        W22257   0.188  30.595   4.098
53864W        W22258  19.110  18.568  11.361
53865W        W22259   1.368  10.757   2.879
53866W        W22260  13.399  41.439   2.349
53867W        W22261  27.661   7.791  13.812
53868W        W22262  42.480  32.680   2.779
53869W        W22263  30.428  11.119   2.615
53870W        W22264  37.179   0.335   2.736
53871W        W22265  22.775   2.761  14.521
53872W        W22266  11.930  35.367  14.074
53873W        W22267  29.497  33.933   3.446
53874W        W22268  23.015  17.213  14.068
53875W        W22269  36.294  28.480  11.588
53876W        W22270  32.913  20.979  13.899
53877W        W22271  43.758   2.590   2.215
53878W        W22272   7.012  14.449   1.946
53879W        W22273  18.119  18.668  12.409
53880W        W22274  11.634   3.606   5.370
53881W        W22275  28.652  14.779  14.406
53882W        W22276  20.646  31.020  12.066
53883W        W22277  18.146  21.175   2.740
53884W        W22278  39.163   2.378  12.448
53885W        W22279  33.882  22.685   3.280
53886W        W22280  37.319   6.446   2.364
53887W        W22281  26.927  10.755  11.828
53888W        W22282  27.831  19.753   2.843
53889W        W22283  29.503   8.297   1.840
53890W        W22284  26.429  21.784  12.865
53891W        W22285  18.839  23.912   0.792
53892W        W22286  36.648  30.868   0.517
53893W        W22287  39.981  13.894  11.632
53894W        W22288   0.540  42.341   3.187
53895W        W22289  10.069  21.454   1.203
53896W        W22290   6.901  19.960   1.098
53897W        W22291  19.056  33.110  11.281
53898W        W22292   1.431  20.663   3.484
53899W        W22293  30.104  21.496   1.804
53900W        W22294  32.144  23.204  11.433
53901W        W22295  38.190   3.723   5.033
53902W        W22296  39.313  41.262  13.971
53903W        W22297   9.268  41.205  13.103
53904W        W22298  35.429   1.321  12.878
53905W        W22299  27.254  27.996  12.548
53906W        W22300  19.063   9.869   1.786
53907W        W22301  16.035  36.952   2.955
53908W        W22302  22.145  44.893   2.215
53909W        W22303   0.922  34.428   1.776
53910W        W22304  10.420   6.795   2.215
53911W        W22305  30.113  13.632   0.950
53912W        W22306  21.761  39.066   2.590
53913W        W22307  35.041  36.021  12.476
53914W        W22308   5.738  28.402  12.484
53915W        W22309   3.345  29.633   0.845
53916W        W22310  39.674  43.015   1.400
53917W        W22311  23.003  23.680  13.662
53918W        W22312   6.380   2.835  11.938
53919W        W22313   8.741  27.380  10.122
53920W        W22314   6.020  43.770   1.906
53921W        W22315   9.773  41.471  13.896
53922W        W22316   7.889  21.121   1.474
53923W        W22317   2.513   8.333   3.380
53924W        W22318  10.573  33.438  12.094
53925W        W22319  38.143  27.058   3.700
53926W        W22320  35.921  18.133  13.097
53927W        W22321  26.430  36.078  11.193
53928W        W22322  34.575  26.519   1.705
53929W        W22323   9.790  26.480   4.663
53930W        W22324  13.477  33.803   0.331
53931W        W22325  25.471  18.296  11.181
53932W        W22326  44.885   2.820  12.105
53933W        W22327   8.895  23.955   2.718
53934W        W22328   9.317  28.437  11.884
53935W        W22329  32.463  38.283   0.886
53936W        W22330  31.358   4.317  13.841
53937W        W22331   7.186  18.169   3.762
53938W        W22332  21.290  31.509  10.535
53939W        W22333   8.631  35.877   4.905
53940W        W22334  41.669   9.373  13.549
53941W        W22335   2.892  43.897  13.821
53942W        W22336  13.404   7.296  12.809
53943W        W22337  10.713   4.499   4.467
53944W        W22338  28.146   4.014  11.602
53945W        W22339  37.681  37.988   3.775
53946W        W22340  37.691  37.863  11.208
53947W        W22341  15.319  25.773  11.571
53948W        W22342  11.626   5.801  13.299
53949W        W22343   5.430   3.904  14.226
53950W        W22344   4.277  25.601   9.516
53951W        W22345  28.113   7.278  13.298
53952W        W22346  14.095  36.284  13.526
53953W        W22347  42.957  28.323   4.358
53954W        W22348  23.512  14.256  11.216
53955W        W22349   4.416   5.478   1.067
53956W        W22350  16.589   8.069  14.773
53957W        W22351  27.108  21.027  12.785
53958W        W22352  42.465  29.936   3.831
53959W        W22353  16.851  13.436  14.910
53960W        W22354   0.262  30.132   0.243
53961W        W22355  16.702  11.610  11.521
53962W        W22356  12.713   2.791   1.290
53963W        W22357   1.899  17.072  14.457
53964W        W22358  24.225  10.225  10.156
53965W        W22359  20.474  42.691   3.715
53966W        W22360  43.256  31.998   3.250
53967W        W22361  28.673  28.174  14.017
53968W        W22362  32.984  18.129  11.721
53969W        W22363  37.119  39.753   3.555
53970W        W22364  22.104   6.253   1.153
53971W        W22365  28.516  12.245   4.517
53972W        W22366  26.970  26.344  11.249
53973W        W22367  40.594  38.462   2.823
53974W        W22368  36.041  36.848  13.088
53975W        W22369  10.785  41.843   2.412
53976W        W22370  39.973  36.075   0.239
53977W        W22371  18.212  28.408   2.170
53978W        W22372  41.000  26.649   4.941
53979W        W22373   6.244  12.195   1.128
53980W        W22374  43.990  44.960   2.271
53981W        W22375   1.631  15.782   1.911
53982W        W22376  44.995  33.149   4.370
53983W        W22377   2.336  15.136   0.463
53984W        W22378   5.495  39.094   3.032
53985W        W22379  32.930   9.695  11.037
53986W        W22380  17.907   0.548  11.849
53987W        W22381  20.095  40.345   1.676
53988W        W22382  44.803  18.032  11.543
53989W        W22383  27.050   3.752   1.139
53990W        W22384  12.722   2.374  11.078
53991W        W22385  25.724  18.026   3.229
53992W        W22386   5.045  21.795  11.964
53993W        W22387   6.349  41.309   0.417
53994W        W22388  42.566   5.258   4.659
53995W        W22389  31.568  28.556   1.920
53996W        W22390   9.595  31.887  12.096
53997W        W22391  16.754  15.301  11.572
53998W        W22392  19.022   4.324   0.287
53999W        W22393  33.316   0.780   3.771
54000W        W22394  15.380  18.482  11.975
54001W        W22395  20.175  18.626   4.129
54002W        W22396  27.959  12.689   2.807
54003W        W22397  22.426  17.932  13.833
54004W        W22398  25.260  17.088  11.531
54005W        W22399  38.852  30.982   2.652
54006W        W22400  35.420  23.588   1.236
54007W        W22401  26.960  21.324  11.580
54008W        W22402  24.637  40.429   0.743
54009W        W22403   2.754  29.716  11.147
54010W        W22404  12.303   7.634   1.164
54011W        W22405  22.757  33.953   4.067
54012W        W22406   0.208  29.970   4.562
54013W        W22407  14.587  27.786   0.269
54014W        W22408  11.177  34.445  12.860
54015W        W22409  11.611  25.086   2.706
54016W        W22410   6.740  19.556   2.712
54017W        W22411  11.909  32.955  12.514
54018W        W22412  21.978  34.873  14.258
54019W        W22413   8.859  28.685   1.238
54020W        W22414  31.161  23.513   1.328
54021W        W22415  38.047  18.545   0.659
54022W        W22416  24.597  11.758   3.589
54023W        W22417  36.652  28.143   2.585
54024W        W22418  36.401  42.837   3.762
54025W        W22419   4.747  25.760  14.214
54026W        W22420   9.924  33.621   2.789
54027W        W22421  10.884   6.961  11.188
54028W        W22422  14.302  10.639   1.817
54029W        W22423  34.243  41.861   3.758
54030W        W22424  40.190  39.013  11.542
54031W        W22425  42.246  42.921  12.096
54032W        W22426  44.438  23.524  14.243
54033W        W22427  17.076   4.767  14.036
54034W        W22428  26.152   4.541   4.678
54035W        W22429  28.977   1.632  14.085
54036W        W22430  25.440  43.904   1.624
54037W        W22431  33.884   0.837  10.713
54038W        W22432  26.943  16.741   0.422
54039W        W22433  41.156  35.943   0.701
54040W        W22434  24.962  31.963  12.570
54041W        W22435  43.110  43.447  11.951
54042W        W22436   6.665   0.091  10.491
54043W        W22437  33.374  13.541   2.669
54044W        W22438   8.822  19.282   3.712
54045W        W22439   0.509  12.772   2.413
54046W        W22440  43.174  41.889   3.117
54047W        W22441  35.008  41.714  12.888
54048W        W22442  30.425  12.428   3.175
54049W        W22443  16.394  16.658  12.467
54050W        W22444  20.097   9.280   1.490
54051W        W22445  25.032   5.968   2.340
54052W        W22446  18.555  40.776   4.144
54053W        W22447  12.708  24.275  10.460
54054W        W22448  20.229   8.475  11.207
54055W        W22449  10.776  41.235   5.028
54056W        W22450   9.707  21.703   4.687
54057W        W22451  28.077  32.002  12.825
54058W        W22452  24.571  13.489  12.121
54059W        W22453   7.963  31.758   2.371
54060W        W22454   9.419  35.866   0.667
54061W        W22455   7.239  15.357  14.926
54062W        W22456  32.965  12.303  14.798
54063W        W22457  26.929  25.958  10.919
54064W        W22458  44.194  28.095   5.121
54065W        W22459  23.429  44.273  12.041
54066W        W22460   3.935  33.124  13.036
54067W        W22461  41.274  21.849  12.225
54068W        W22462  13.693  39.378  10.928
54069W        W22463  18.314  17.747   4.557
54070W        W22464  42.932  33.008  13.338
54071W        W22465  36.163  10.459   5.106
54072W        W22466  39.576  30.917   4.414
54073W        W22467  26.407  43.224  10.236
54074W        W22468  18.320   6.922  14.456
54075W        W22469  41.876  39.845  10.406
54076W        W22470  12.300  23.104  11.058
54077W        W22471  44.660  26.116   1.239
54078W        W22472  39.330  15.054  11.193
54079W        W22473  43.629  19.153   2.152
54080W        W22474  19.725  18.618   0.995
54081W        W22475  32.458  29.130  12.266
54082W        W22476  22.755  11.125   2.862
54083W        W22477  14.282  16.975  11.602
54084W        W22478  18.858  18.366  14.757
54085W        W22479  12.076   4.187   1.606
54086W        W22480  14.967  38.855  14.851
54087W        W22481   3.220  10.812   1.451
54088W        W22482  27.629   9.168   1.204
54089W        W22483  30.109  20.990   1.863
54090W        W22484  44.181  40.806  14.869
54091W        W22485  29.675  12.682   1.273
54092W        W22486  39.499   1.489   2.861
54093W        W22487  21.302  30.081  13.048
54094W        W22488  41.357  13.731   4.874
54095W        W22489  22.646  14.726  11.976
54096W        W22490   1.625  30.128  13.208
54097W        W22491  26.446  36.944  12.979
54098W        W22492   1.429  11.139  12.049
54099W        W22493   9.874  22.593   0.348
54100W        W22494  27.649  39.084   2.938
54101W        W22495   4.367  44.868   4.638
54102W        W22496  18.308  40.653  13.461
54103W        W22497  21.207  12.159   1.440
54104W        W22498  30.859   7.049   2.680
54105W        W22499  38.011  13.696   0.305
54106W        W22500  36.300  39.024   2.096
54107W        W22501   6.876  20.446   1.249
54108W        W22502  20.535  24.462  12.851
54109W        W22503   5.868   1.730  11.619
54110W        W22504   3.778  29.895  14.903
54111W        W22505  31.991  36.335   2.646
54112W        W22506   9.257   5.669  13.806
54113W        W22507  28.420  43.750   3.169
54114W        W22508  15.835  39.461  11.977
54115W        W22509  12.260  36.098   2.661
54116W        W22510  25.042  37.878   1.466
54117W        W22511   4.857  19.794  13.939
54118W        W22512  31.069  27.886  13.866
54119W        W22513  41.865  28.723   0.499
54120W        W22514  32.202  33.038   2.272
54121W        W22515  26.012   6.697  11.983
54122W        W22516   1.880  12.969   2.833
54123W        W22517  26.739  27.730   4.169
54124W        W22518  37.355  17.739  11.031
54125W        W22519  21.436  26.252  14.770
54126W        W22520   7.332  19.219   2.655
54127W        W22521  14.972  20.172   0.855
54128W        W22522  33.702  13.395   1.380
54129W        W22523  27.950  15.883   4.851
54130W        W22524  16.967  38.746   1.319
54131W        W22525  30.073   1.195   4.808
54132W        W22526  28.772   0.424  12.161
54133W        W22527   4.126   0.308  13.370
54134W        W22528  34.644  16.833   1.693
54135W        W22529  30.486   7.563  13.813
54136W        W22530  40.523  42.490  10.654
54137W        W22531  21.091   9.314  14.811
54138W        W22532  26.413   2.551   5.456
54139W        W22533   2.358   5.779   2.415
54140W        W22534  41.401  25.024   2.583
54141W        W22535   4.163  43.208   4.178
54142W        W22536   9.170  14.244  10.646
54143W        W22537  15.398   1.992  11.122
54144W        W22538  21.110   0.364  14.588
54145W        W22539   2.885  20.020  12.139
54146W        W22540  10.773  36.280   2.868
54147W        W22541   6.222  41.405   3.145
54148W        W22542  33.145  10.844  13.817
54149W        W22543  31.420   7.340  14.288
54150W        W22544  13.994  26.457  10.282
54151W        W22545  12.281  33.444   2.372
54152W        W22546  28.871  10.016  14.056
54153W        W22547   7.468   1.150  12.957
54154W        W22548   0.128  35.395   0.899
54155W        W22549  31.583  44.471   2.860
54156W        W22550  21.346  14.755   0.409
54157W        W22551  44.920  34.083   4.848
54158W        W22552  17.998   6.795  11.049
54159W        W22553   1.333   3.639   1.296
54160W        W22554  32.741   9.888  14.669
54161W        W22555  15.531  35.621  14.411
54162W        W22556  36.816  25.212  12.503
54163W        W22557  14.350  26.539  14.204
54164W        W22558  28.899   4.508  11.145
54165W        W22559  42.912  36.890  12.937
54166W        W22560  21.462  41.310  11.807
54167W        W22561  15.842  17.737  10.234
54168W        W22562  18.566  12.767   0.262
54169W        W22563   9.891   6.186  13.462
54170W        W22564   1.492  11.278   3.609
54171W        W22565  29.034  44.339  13.587
54172W        W22566  29.762  18.373  11.073
54173W        W22567  10.661   3.122   1.768
54174W        W22568  25.595  36.350   1.105
54175W        W22569  32.335   7.197  13.828
54176W        W22570   2.493   0.036  14.973
54177W        W22571   2.901  43.347   4.654
54178W        W22572  38.294   6.875  11.615
54179W        W22573  35.339  39.553  11.095
54180W        W22574  42.326  18.768   3.146
54181W        W22575  36.393  39.235   4.973
54182W        W22576  10.824  17.689  10.692
54183W        W22577  11.619   1.463  10.906
54184W        W22578  39.551  16.277   2.767
54185W        W22579  10.803  31.498  13.080
54186W        W22580   1.374  16.624   1.265
54187W        W22581  39.979  39.502  14.074
54188W        W22582   9.303  30.125   2.121
54189W        W22583  25.932  36.866  14.016
54190W        W22584  19.246  18.228  12.178
54191W        W22585  17.994   9.766   0.094
54192W        W22586   8.438  27.526  11.745
54193W        W22587  25.065  19.587   0.207
54194W        W22588  38.609  37.979  13.786
54195W        W22589  14.667  25.135   4.916
54196W        W22590  23.267  29.850  14.920
54197W        W22591  41.512   9.656   0.890
54198W        W22592   8.292  30.382  11.179
54199W        W22593  11.179  29.082   0.054
54200W        W22594   9.398   4.905   1.704
54201W        W22595   3.517  38.832  14.440
54202W        W22596   7.721  20.189  10.747
54203W        W22597  15.145  26.623   3.193
54204W        W22598  19.278  18.668   3.733
54205W        W22599  44.156   4.011  12.510
54206W        W22600   7.846  39.247   1.896
54207W        W22601  14.153  37.877   1.306
54208W        W22602   1.863  34.500  13.106
54209W        W22603  36.438  29.219  14.863
54210W        W22604  28.513  24.249  12.518
54211W        W22605  31.614  28.441  14.783
54212W        W22606  15.158  23.337  12.061
54213W        W22607  16.992  20.606   4.000
54214W        W22608  30.133   8.265   1.060
54215W        W22609  33.379  42.903  10.377
54216W        W22610   3.330  38.901   2.335
54217W        W22611  41.419  28.521  14.885
54218W        W22612  17.086  16.139  14.807
54219W        W22613   9.915   4.050  14.357
54220W        W22614  15.372   4.896   3.913
54221W        W22615  35.441  30.305   2.678
54222W        W22616  35.904   4.251  14.305
54223W        W22617  30.566  22.744   0.714
54224W        W22618   8.741  23.982   0.523
54225W        W22619  34.389  11.122  13.935
54226W        W22620   5.776  10.717  10.638
54227W        W22621  39.607  39.978  12.401
54228W        W22622  31.658  31.534   4.246
54229W        W22623  33.402  11.322   1.185
54230W        W22624   4.467  40.590   2.623
54231W        W22625  14.720   1.115   4.849
54232W        W22626  29.397   8.672  12.757
54233W        W22627  23.745  40.018   1.012
54234W        W22628  37.466  31.665  11.051
54235W        W22629   9.626   2.218  14.823
54236W        W22630  34.919  28.506  10.506
54237W        W22631  25.211  22.707   0.884
54238W        W22632  19.699  37.363   3.691
54239W        W22633  43.499  18.916   3.102
54240W        W22634  43.387  15.375  14.977
54241W        W22635  14.529  31.235   2.674
54242W        W22636  14.126   0.818  14.891
54243W        W22637  34.061  22.518  10.624
54244W        W22638   2.090  29.209  14.670
54245W        W22639  28.034  22.570  11.381
54246W        W22640  20.110   5.848   3.636
54247W        W22641  33.385   4.513   2.433
54248W        W22642  39.023  36.312   0.150
54249W        W22643  10.879   2.026  12.115
54250W        W22644  42.485  43.262   3.936
54251W        W22645  19.089  26.589  10.987
54252W        W22646  10.215  26.996   0.670
54253W        W22647  37.295  34.354   0.775
54254W        W22648   1.400   7.243  12.920
54255W        W22649  28.806  18.750  11.165
54256W        W22650  12.428  20.381  13.330
54257W        W22651  23.537  32.928  12.367
54258W        W22652  24.819  17.554  12.854
54259W        W22653  20.651  11.147   1.020
54260W        W22654  42.860  43.680   2.811
54261W        W22655  14.162  22.616  14.342
54262W        W22656  33.373   7.579   0.497
54263W        W22657  21.494  19.743  14.334
54264W        W22658  37.388  12.758   0.553
54265W        W22659  41.647  28.177  14.290
54266W        W22660  26.879  27.249   4.104
54267W        W22661  12.319  42.260   3.347
54268W        W22662  16.992  32.011   3.188
54269W        W22663  24.650  30.871  12.991
54270W        W22664  14.170  26.813  12.376
54271W        W22665  22.050  21.660  12.846
54272W        W22666  44.526  41.663   3.168
54273W        W22667   8.730  28.282  12.111
54274W        W22668  33.508  14.891  14.149
54275W        W22669   2.452  33.392  11.087
54276W        W22670  15.180  14.273  14.163
54277W        W22671  20.802  22.683   2.285
54278W        W22672  36.991  25.475  14.487
54279W        W22673  36.418  38.057   2.451
54280W        W22674   2.208   8.785   5.341
54281W        W22675  42.761  24.238  13.367
54282W        W22676  15.219  25.141   3.022
54283W        W22677   4.178  38.901  13.408
54284W        W22678   5.832  34.647   4.163
54285W        W22679  40.056   0.995  13.554
54286W        W22680  24.039  28.985  10.729
54287W        W22681   6.410  39.283  11.483
54288W        W22682  15.106  11.133  12.986
54289W        W22683  43.512  34.361  13.662
54290W        W22684  40.976  43.469   1.653
54291W        W22685   2.667  35.055  11.574
54292W        W22686  21.087  34.190   0.054
54293W        W22687  27.330  12.702   1.973
54294W        W22688   4.737  37.180  14.841
54295W        W22689   2.081  10.390   1.334
54296W        W22690  13.080   3.799   4.607
54297W        W22691  30.084  11.456   2.420
54298W        W22692  31.824  15.081  12.427
54299W        W22693  42.265   8.902  10.430
54300W        W22694  35.245  15.189   2.724
54301W        W22695  32.452   6.922  14.694
54302W        W22696  36.971   2.869  12.167
54303W        W22697   2.178  44.989  11.102
54304W        W22698  36.892  19.638  14.503
54305W        W22699  19.419   8.494  14.549
54306W        W22700   1.723  28.912  14.958
54307W        W22701  33.848  26.177  11.678
54308W        W22702  43.098  12.558   2.198
54309W        W22703   3.958  17.080  13.083
54310W        W22704  17.510  21.157  14.563
54311W        W22705  32.053  42.087   3.631
54312W        W22706   9.838  23.118   3.768
54313W        W22707  39.407  20.161   4.634
54314W        W22708  16.889  15.632  14.733
54315W        W22709   0.898  12.616  13.944
54316W        W22710   7.483   9.615   1.108
54317W        W22711  17.971  41.454   0.940
54318W        W22712  44.494  34.001   4.138
54319W        W22713  24.644  24.214   1.871
54320W        W22714   5.163  31.913   1.948
54321W        W22715   1.800  21.582  11.777
54322W        W22716  15.154  24.715  12.970
54323W        W22717  18.044  41.824   0.585
54324W        W22718  21.782  38.738  13.548
54325W        W22719   7.911   1.864   0.656
54326W        W22720  28.125  41.947  10.834
54327W        W22721   8.051  14.052  10.809
54328W        W22722  39.331  31.478   4.862
54329W        W22723  18.324   1.363  13.959
54330W        W22724  36.049   9.515  11.706
54331W        W22725  42.013  23.540   4.608
54332W        W22726  39.752  15.271   2.909
54333W        W22727  42.019  35.838  13.949
54334W        W22728  21.425  27.399  10.699
54335W        W22729  34.063  20.841   0.218
54336W        W22730  17.723   2.175  12.563
54337W        W22731  41.303  18.166   1.242
54338W        W22732  12.125  44.764   3.979
54339W        W22733  41.563  13.850  10.807
54340W        W22734  26.604  24.678   2.624
54341W        W22735  15.518  33.520  10.726
54342W        W22736  15.378  24.166  11.508
54343W        W22737   0.044  27.020  13.966
54344W        W22738  43.959  32.517  12.868
54345W        W22739  34.743  19.702   4.520
54346W        W22740  17.282  43.377   4.377
54347W        W22741   0.109  27.119   4.199
54348W        W22742  29.120  42.354  10.458
54349W        W22743   4.965  20.892  12.180
54350W        W22744  36.607   6.798  12.434
54351W        W22745  44.630  11.875  12.644
54352W        W22746  31.952  37.133   4.155
54353W        W22747   6.668  43.001   2.813
54354W        W22748   8.842  23.715  11.614
54355W        W22749  42.011  38.653  12.962
54356W        W22750  20.173  44.813  13.431
54357W        W22751  41.822  30.645  12.611
54358W        W22752   6.769  21.760   2.177
54359W        W22753  23.748  16.770  10.717
54360W        W22754   2.692   7.915  14.923
54361W        W22755  16.097   1.961  13.018
54362W        W22756  35.598  36.985   1.841
54363W        W22757  36.505  35.241   1.277
54364W        W22758  21.518   5.771  12.005
54365W        W22759   2.412   8.867  11.685
54366W        W22760  40.601  13.076  14.486
54367W        W22761  32.892   2.253   0.832
54368W        W22762   4.417  31.867  11.465
54369W        W22763  31.663  29.956  11.358
54370W        W22764  40.504  32.412   2.191
54371W        W22765  35.069  32.032  11.932
54372W        W22766  42.178  11.604   0.917
54373W        W22767  15.674  13.838   2.574
54374W        W22768  17.096  30.877  14.723
54375W        W22769  20.634  17.258   0.364
54376W        W22770   0.923  32.163   1.787
54377W        W22771  31.559   2.085   1.276
54378W        W22772  23.034   4.345   0.761
54379W        W22773  27.348  32.672  11.598
54380W        W22774  31.484  23.593  13.145
54381W        W22775  41.254  19.510   4.052
54382W        W22776  14.172   3.927  12.179
54383W        W22777   8.436   9.431   2.851
54384W        W22778  12.829   7.369   4.541
54385W        W22779  38.550  29.204  10.755
54386W        W22780  28.952  20.985   1.658
54387W        W22781  20.158   1.486   4.810
54388W        W22782  17.199  38.118   4.180
54389W        W22783   8.015  31.493   3.338
54390W        W22784  16.137  19.317   2.820
54391W        W22785  35.045  31.056   1.196
54392W        W22786  44.013  24.046   3.321
54393W        W22787   8.332   4.048  11.655
54394W        W22788  41.462   1.701  11.599
54395W        W22789  28.219  33.550   2.383
54396W        W22790  14.673  14.866   1.493
54397W        W22791  14.315  40.482  13.575
54398W        W22792  20.218   3.919   4.220
54399W        W22793  18.529  12.074  13.000
54400W        W22794   1.806  17.820   3.537
54401W        W22795  23.775  34.976  13.307
54402W        W22796   2.797  19.038   4.605
54403W        W22797  16.760  43.412   2.562
54404W        W22798   7.149   3.235  14.011
54405W        W22799  11.190  23.502  14.982
54406W        W22800  23.303  32.509  11.055
54407W        W22801  23.760  11.806  13.406
54408W        W22802   2.144  38.316  14.470
54409W        W22803  34.009  16.999  11.195
54410W        W22804  27.053  17.176   4.632
54411W        W22805  22.532  17.780   1.817
54412W        W22806  26.942  19.389  11.096
54413W        W22807  12.365  43.949  12.547
54414W        W22808   4.137  10.429  13.927
54415W        W22809  36.346   2.301   4.117
54416W        W22810  24.309   4.465   1.030
54417W        W22811  10.721  22.692  14.940
54418W        W22812  43.797  37.455   1.797
54419W        W22813  20.804  43.409  10.807
54420W        W22814   2.770  26.654   3.639
54421W        W22815  42.983  38.930  14.977
54422W        W22816  12.672  17.045   1.344
54423W        W22817  29.621  24.718  12.507
54424W        W22818  26.162   7.648   1.744
54425W        W22819  14.354  32.940   4.185
54426W        W22820  24.164  15.220  14.493
54427W        W22821  40.965   9.469   0.025
54428W        W22822   7.643   9.891   3.282
54429W        W22823  22.675  21.354   1.925
54430W        W22824   0.311   5.686  11.532
54431W        W22825  29.619  18.518   1.409
54432W        W22826   2.737  21.378   3.177
54433W        W22827  37.375  10.629  13.360
54434W        W22828  10.041  43.477   2.927
54435W        W22829  17.026  39.603   4.150
54436W        W22830  32.942  35.874  13.958
54437W        W22831   4.839  12.218   4.222
54438W        W22832  41.278  15.857  14.284
54439W        W22833   9.350  29.593   0.849
54440W        W22834  11.346  15.062  12.381
54441W        W22835  18.603  24.718   1.734
54442W        W22836   2.167  21.064  13.599
54443W        W22837  11.208  18.508   2.730
54444W        W22838   6.110  24.966  11.540
54445W        W22839  33.635   7.626  13.714
54446W        W22840  10.182   2.907  14.918
54447W        W22841  11.037   8.703  11.625
54448W        W22842   7.783  39.632   3.200
54449W        W22843  36.362  17.242   2.617
54450W        W22844  26.296  18.143  14.351
54451W        W22845  28.754  39.199  12.452
54452W        W22846   1.555  38.293  11.129
54453W        W22847   4.276  42.527   4.111
54454W        W22848  12.564  15.100   0.910
54455W        W22849   7.992  22.238  11.984
54456W        W22850  44.826  23.378  11.165
54457W        W22851   3.492  29.791  14.437
54458W        W22852  25.950  12.279  14.794
54459W        W22853   1.507  34.619   2.816
54460W        W22854  40.758   2.009  10.523
54461W        W22855  41.427  18.553  11.191
54462W        W22856  40.109  32.531   1.861
54463W        W22857  26.002   9.301   2.323
54464W        W22858  39.535  18.072   3.334
54465W        W22859   0.312  18.044   4.248
54466W        W22860  40.770  26.387  13.612
54467W        W22861  26.534  30.973   3.664
54468W        W22862  13.437   1.406   2.329
54469W        W22863  14.738  42.123  14.092
54470W        W22864  37.428   4.327   4.534
54471W        W22865  31.865  36.486  13.675
54472W        W22866   6.252  15.914   4.534
54473W        W22867  23.340  28.025   3.298
54474W        W22868  31.090  11.566  11.131
54475W        W22869  12.136  36.909  12.516
54476W        W22870   0.346  11.818  10.822
54477W        W22871  19.075  23.142   2.923
54478W        W22872   9.719  14.851   1.716
54479W        W22873  18.697  41.969   3.809
54480W        W22874  14.744  30.806  12.538
54481W        W22875  40.316  15.105  14.272
54482W        W22876   6.413  25.239   1.918
54483W        W22877  17.587  37.894  14.524
54484W        W22878   7.884  43.076  11.817
54485W        W22879  43.049  12.647  10.278
54486W        W22880  23.705  41.483   0.861
54487W        W22881   1.239  33.004   1.373
54488W        W22882  29.623  30.244   2.635
54489W        W22883  28.725   6.152  13.524
54490W        W22884  38.752  16.081  14.058
54491W        W22885  35.511  22.697   0.801
54492W        W22886  15.567  20.972  11.591
54493W        W22887  43.700   3.832  13.548
54494W        W22888   0.825  43.082   0.351
54495W        W22889  18.513  17.800  14.865
54496W        W22890  24.905  40.386   4.182
54497W        W22891  22.620  20.791   0.022
54498W        W22892  19.640  43.785   1.718
54499W        W22893  34.108  31.980   4.940
54500W        W22894  11.364  15.393  14.409
54501W        W22895   0.635  33.500   3.850
54502W        W22896  30.486  18.330   2.155
54503W        W22897  23.024  30.240   1.304
54504W        W22898  23.143  12.184  10.661
54505W        W22899   8.769  18.173   2.758
54506W        W22900   7.823  26.384  10.738
54507W        W22901  35.971   6.272   3.660
54508W        W22902  16.280   2.570  14.139
54509W        W22903  36.570  38.452   4.381
54510W        W22904  25.981  31.977  12.338
54511W        W22905  13.204   4.308   4.545
54512W        W22906  18.162  12.369   0.878
54513W        W22907  36.915  38.914   2.749
54514W        W22908  23.413  38.449   4.253
54515W        W22909  33.751  39.483  14.464
54516W        W22910  28.558   1.772   1.290
54517W        W22911  25.181   2.219  13.610
54518W        W22912   7.747  19.568   2.799
54519W        W22913  28.952  43.071  12.775
54520W        W22914  25.798  42.711   4.517
54521W        W22915  22.250  30.024  13.989
54522W        W22916  21.140  22.068   0.523
54523W        W22917  39.829  17.004  14.410
54524W        W22918  41.868   2.137  14.257
54525W        W22919  32.605  39.551   1.771
54526W        W22920  13.328  17.202   0.646
54527W        W22921  32.026  44.452  11.051
54528W        W22922  22.445  27.011  12.345
54529W        W22923  24.351   9.183   5.068
54530W        W22924  32.856  40.686   3.228
54531W        W22925   8.231  11.724  14.224
54532W        W22926  11.718   4.672  14.824
54533W        W22927  27.155  21.810   0.668
54534W        W22928  18.526  18.660   3.387
54535W        W22929   3.760  20.535   1.369
54536W        W22930  42.768  17.124   3.234
54537W        W22931   5.529  24.611   3.158
54538W        W22932  37.480   5.225  14.198
54539W        W22933  32.571  36.062   3.664
54540W        W22934   1.216  23.974  14.693
54541W        W22935   9.194  36.943   3.214
54542W        W22936  22.928   7.304   0.365
54543W        W22937  25.212  25.213  13.977
54544W        W22938  41.468  29.701   4.614
54545W        W22939  21.583  37.827  14.856
54546W        W22940  29.422  25.289  13.757
54547W        W22941  26.033  31.620   1.423
54548W        W22942  25.220  30.673  11.574
54549W        W22943  36.065  18.925  11.603
54550W        W22944  43.711   2.136  11.558
54551W        W22945   5.305   2.517   4.196
54552W        W22946  44.665  21.184  14.099
54553W        W22947  18.208  22.957  12.965
54554W        W22948  23.653  16.563  14.308
54555W        W22949  24.176  12.718   2.193
54556W        W22950  15.118  42.913  13.442
54557W        W22951  20.341  20.364   2.539
54558W        W22952  32.462  27.285   2.603
54559W        W22953  12.193  32.199  13.484
54560W        W22954  31.709  15.335  14.131
54561W        W22955  12.022  28.461  11.320
54562W        W22956  14.308  37.578  13.790
54563W        W22957  30.585  26.516  13.684
54564W        W22958  10.873  17.511   3.510
54565W        W22959   9.702  26.922  12.888
54566W        W22960  19.610  12.854  12.055
54567W        W22961   1.427  17.145   1.360
54568W        W22962  29.808   3.775   1.877
54569W        W22963  39.468  30.795   3.107
54570W        W22964  39.292  38.040  13.152
54571W        W22965   1.402  20.627   1.782
54572W        W22966  11.218  39.873   0.965
54573W        W22967  12.776  15.646  12.389
54574W        W22968   8.818  20.749  12.380
54575W        W22969  30.036   5.358  13.887
54576W        W22970  13.767  34.175  11.006
54577W        W22971  38.403  39.457  10.829
54578W        W22972  23.524  21.834  14.940
54579W        W22973  32.825  11.764   4.567
54580W        W22974  12.519   2.692   2.912
54581W        W22975  16.220  33.078  14.139
54582W        W22976  40.156  34.343  11.987
54583W        W22977  34.981  18.126  12.997
54584W        W22978  36.538   0.549   1.909
54585W        W22979  11.208  12.423  14.462
54586W        W22980  10.909  10.809  13.580
54587W        W22981  26.508  31.592  11.157
54588W        W22982  17.149   0.563   1.352
54589W        W22983   4.012  32.563   3.154
54590W        W22984  13.745  39.066   2.177
54591W        W22985  12.871  35.410   0.879
54592W        W22986  32.713  43.005  11.461
54593W        W22987  13.784   0.866  11.389
54594W        W22988  15.683  26.965   0.406
54595W        W22989   5.990  19.046   2.397
54596W        W22990   3.753  20.795   0.281
54597W        W22991  32.733  35.515  12.315
54598W        W22992  35.945   8.660   3.407
54599W        W22993  11.457   8.075  13.150
54600W        W22994   4.264  37.834   2.847
54601W        W22995  30.693  40.980   1.409
54602W        W22996  15.309  34.909  10.420
54603W        W22997  21.182  35.719   4.407
54604W        W22998   3.694  24.136   1.250
54605W        W22999  16.131  14.722  11.413
54606W        W23000  13.400  41.111  11.009
54607W        W23001  11.741   7.478   2.953
54608W        W23002  40.255   6.297  11.050
54609W        W23003   2.021   3.880  13.132
54610W        W23004  19.465  29.746   2.267
54611W        W23005  40.878   5.230  13.440
54612W        W23006   9.211  22.061  13.310
54613W        W23007  33.539  13.131  12.679
54614W        W23008  32.244  19.170  13.468
54615W        W23009  20.170  14.884   3.377
54616W        W23010  34.204  35.297  11.086
54617W        W23011   4.992  30.721   1.375
54618W        W23012  42.388  36.879   1.023
54619W        W23013   4.478   1.320   1.420
54620W        W23014  35.741  28.317  13.305
54621W        W23015  16.456  21.508   2.313
54622W        W23016  19.763   3.401   0.254
54623W        W23017  19.715  28.169   5.059
54624W        W23018  24.383  35.882  11.887
54625W        W23019  21.029  17.526  12.425
54626W        W23020  40.321  15.267   0.241
54627W        W23021  43.509  24.702   0.884
54628W        W23022   4.821  30.091  11.571
54629W        W23023  31.014  17.036   2.889
54630W        W23024  24.204  11.835  11.232
54631W        W23025  38.460  35.501   2.324
54632W        W23026  35.354  37.391   0.314
54633W        W23027  14.664   4.122  11.105
54634W        W23028   4.183  25.313   0.413
54635W        W23029   4.981   9.820   3.731
54636W        W23030  15.859   5.060   4.076
54637W        W23031  36.376  41.511   2.149
54638W        W23032   5.408  17.884   0.307
54639W        W23033  38.506  40.551   2.908
54640W        W23034  29.966  15.887  10.658
54641W        W23035  24.407  39.766   3.349
54642W        W23036  31.355  38.107   3.164
54643W        W23037  40.445  30.912  14.875
54644W        W23038  26.883  23.520   1.920
54645W        W23039  40.533   2.299   3.322
54646W        W23040   2.686   1.186  12.034
54647W        W23041   6.562  16.637   1.326
54648W        W23042   6.176   1.379  10.666
54649W        W23043  39.908  29.860  12.203
54650W        W23044   4.696  33.697   0.447
54651W        W23045  20.485  23.719   0.202
54652W        W23046  12.359  15.789   2.432
54653W        W23047  19.583  10.400  13.052
54654W        W23048  44.562   6.401   1.372
54655W        W23049  10.444  21.182  13.425
54656W        W23050  13.198  30.514   5.235
54657W        W23051  20.757  26.939   3.042
54658W        W23052  19.693  33.621  10.725
54659W        W23053  17.763  44.492   0.198
54660W        W23054  44.054  26.820   4.762
54661W        W23055   0.364  32.050   2.746
54662W        W23056  26.722  26.391  11.682
54663W        W23057  38.568   5.275   0.024
54664W        W23058  11.384  33.594  12.481
54665W        W23059  17.194   5.469  11.536
54666W        W23060  26.671  25.057  14.371
54667W        W23061  42.005  12.177  11.962
54668W        W23062  16.239  31.033   0.031
54669W        W23063  31.994   8.930   3.875
54670W        W23064  22.578  35.938   3.964
54671W        W23065  14.965  31.774  13.506
54672W        W23066  23.913  28.682  13.852
54673W        W23067  19.164  29.929   4.941
54674W        W23068  37.295  11.193  11.492
54675W        W23069   6.950  32.938  13.617
54676W        W23070  39.917   6.007   2.302
54677W        W23071  17.065  22.824   0.258
54678W        W23072  24.327  29.923   2.300
54679W        W23073  31.136   3.387  13.088
54680W        W23074   5.932  11.334  14.911
54681W        W23075  43.976  13.167  12.513
54682W        W23076  13.466  30.414   0.889
54683W        W23077  21.621  15.152   4.622
54684W        W23078  11.661  25.226   0.497
54685W        W23079   9.542  32.022   0.774
54686W        W23080  40.869   3.051  14.804
54687W        W23081  23.724  35.375  12.491
54688W        W23082  37.387  28.147  10.707
54689W        W23083  27.339  42.851   2.402
54690W        W23084  19.944  40.585  10.462
54691W        W23085  25.855  34.701   3.582
54692W        W23086  27.495  35.636   1.389
54693W        W23087   7.196   8.430  13.461
54694W        W23088  44.760  36.838  13.477
54695W        W23089  42.253  25.574   0.955
54696W        W23090  25.120  29.242  10.436
54697W        W23091  12.362  27.492  14.377
54698W        W23092   1.347  31.452   3.777
54699W        W23093   5.333   2.401  11.548
54700W        W23094  26.250  33.574  13.881
54701W        W23095  19.691   0.281   1.153
54702W        W23096  15.131  36.893   0.912
54703W        W23097  17.980  12.514  11.599
54704W        W23098  41.297  38.524   1.898
54705W        W23099  11.637  22.256  10.728
54706W        W23100   9.361  19.050  12.476
54707W        W23101  18.389  13.751  13.000
54708W        W23102   0.218   6.858   0.366
54709W        W23103  39.567  27.904   1.812
54710W        W23104   7.728  33.269  13.104
54711W        W23105  33.428  16.101   4.313
54712W        W23106  44.525  37.496  14.945
54713W        W23107  41.890   2.525   1.202
54714W        W23108  16.282   9.311   4.566
54715W        W23109  12.058  39.827  14.356
54716W        W23110  11.683  44.389   2.795
54717W        W23111   9.628  19.234  14.755
54718W        W23112   2.778  40.434   0.783
54719W        W23113  24.630  37.107  13.030
54720W        W23114  10.278  20.445   1.312
54721W        W23115   4.188  23.235   4.098
54722W        W23116   2.400   5.532  14.010
54723W        W23117  13.865  37.564  14.041
54724W        W23118  19.714  35.834  12.803
54725W        W23119   4.667  15.296  11.115
54726W        W23120  41.104  14.513  14.585
54727W        W23121  12.886   5.263  14.084
54728W        W23122  25.209   2.704   4.526
54729W        W23123  30.685  21.428   2.828
54730W        W23124  32.871   0.935   2.729
54731W        W23125  19.450  41.283  12.542
54732W        W23126  32.016  16.607  12.035
54733W        W23127   1.823  13.553  11.243
54734W        W23128  15.271   6.907   0.398
54735W        W23129  37.954  26.530  14.308
54736W        W23130  31.498  19.562   0.103
54737W        W23131  10.513  42.379  10.873
54738W        W23132  33.590   8.713  10.766
54739W        W23133  39.286  18.219  14.403
54740W        W23134  36.995  31.558  11.663
54741W        W23135  30.525   7.937   2.360
54742W        W23136  36.607  16.804   2.761
54743W        W23137  29.225  43.468   3.023
54744W        W23138  19.215  19.170   3.872
54745W        W23139  25.699   0.749  12.938
54746W        W23140  36.593  23.321  13.538
54747W        W23141   2.180  15.014   3.488
54748W        W23142  43.376   9.243   4.680
54749W        W23143  22.524  32.881  12.400
54750W        W23144  32.162  29.997  11.846
54751W        W23145  30.881  35.696  13.118
54752W        W23146  31.644  27.631   1.965
54753W        W23147  42.025   7.490  12.031
54754W        W23148  12.644  16.982   4.525
54755W        W23149  20.569   0.879   0.293
54756W        W23150  38.172  40.715   0.372
54757W        W23151  17.415  29.265   1.405
54758W        W23152  31.968  28.012   3.400
54759W        W23153  21.732  18.903   4.780
54760W        W23154  25.480  21.494  14.886
54761W        W23155  27.722  44.810  12.329
54762W        W23156  15.070  38.546   5.522
54763W        W23157   3.917  28.159   4.030
54764W        W23158  12.603   7.692  12.607
54765W        W23159  38.978  23.012  13.826
54766W        W23160  40.430  28.209  11.165
54767W        W23161  43.733  25.046   1.776
54768W        W23162  30.595  23.264   0.749
54769W        W23163  20.157  21.501   4.694
54770W        W23164  18.238  30.210   3.212
54771W        W23165  14.179  21.141  13.016
54772W        W23166  22.616   9.370   3.668
54773W        W23167  30.209   0.499   1.342
54774W        W23168  12.217  25.213   1.408
54775W        W23169   9.947  27.447   2.468
54776W        W23170  43.535  19.921   1.916
54777W        W23171  28.160   7.786  13.388
54778W        W23172  15.258  12.299  11.681
54779W        W23173  24.409  12.861  10.726
54780W        W23174  38.326  20.689   4.393
54781W        W23175   0.727   4.038   4.285
54782W        W23176  18.565  29.983  13.301
54783W        W23177  42.492  30.634  12.930
54784W        W23178  38.990  25.471   4.691
54785W        W23179   5.670  27.971   3.211
54786W        W23180  24.453  20.268   1.734
54787W        W23181  35.360  32.480  14.286
54788W        W23182  25.688  36.964   3.153
54789W        W23183  37.974  18.214  12.493
54790W        W23184   8.701   3.851   4.146
54791W        W23185   1.457   0.696  13.860
54792W        W23186  29.516  34.359  10.617
54793W        W23187  22.968  24.493   3.655
54794W        W23188  41.539  13.694   3.639
54795W        W23189  36.661  43.858  10.685
54796W        W23190   9.338   3.829   0.832
54797W        W23191  34.864  43.581   2.863
54798W        W23192   5.001   1.695   0.814
54799W        W23193   1.432  44.304   2.091
54800W        W23194  22.167  29.386  14.051
54801W        W23195  19.506  24.569   4.130
54802W        W23196   8.293  31.074  13.960
54803W        W23197  30.506   1.865   3.842
54804W        W23198  39.752  43.887  13.864
54805W        W23199  41.767  26.660   2.789
54806W        W23200  18.932  19.315  11.109
54807W        W23201  42.052  18.796  14.348
54808W        W23202  20.021  10.930   0.374
54809W        W23203  26.621  40.455  14.981
54810W        W23204   4.925  23.756   2.403
54811W        W23205  39.617  43.906  11.978
54812W        W23206  44.029   2.907  11.552
54813W        W23207  31.156  23.558   3.236
54814W        W23208  35.959  23.036   4.812
54815W        W23209  19.887   4.732  11.518
54816W        W23210  12.516  16.566   2.840
54817W        W23211  12.655   1.913  14.770
54818W        W23212  21.486  41.917  11.106
54819W        W23213  27.995  19.498  12.629
54820W        W23214  14.239  33.215   1.241
54821W        W23215  36.973   1.551   3.431
54822W        W23216  10.773  32.016  13.927
54823W        W23217   9.421   6.676   3.856
54824W        W23218  33.160  27.772  11.543
54825W        W23219  42.985   3.505   4.980
54826W        W23220   7.710  13.211  13.881
54827W        W23221  21.089  26.167   4.501
54828W        W23222  17.163  43.868   2.202
54829W        W23223  30.691  13.134  14.428
54830W        W23224  29.890   5.992  14.342
54831W        W23225  31.733  26.019   2.144
54832W        W23226  30.730   6.626   0.624
54833W        W23227  14.322  34.402   2.610
54834W        W23228  19.772  41.487  12.905
54835W        W23229   8.692  12.040  14.269
54836W        W23230   8.832  25.553   1.123
54837W        W23231  23.965   5.676  13.325
54838W        W23232   5.594   8.940  11.967
54839W        W23233   1.033  29.853   3.274
54840W        W23234   6.475  38.252   0.759
54841W        W23235  17.615  30.401  13.446
54842W        W23236  20.852   6.365   2.853
54843W        W23237  41.607  11.488  10.640
54844W        W23238   0.899   0.676  11.791
54845W        W23239   3.459  12.278   0.396
54846W        W23240  15.858  32.151   2.319
54847W        W23241   6.217  36.160  12.053
54848W        W23242  44.263  32.348   0.875
54849W        W23243  10.754   5.428   1.318
54850W        W23244  36.429  25.615   0.937
54851W        W23245  44.297   4.193  10.587
54852W        W23246  17.385  34.728  13.468
54853W        W23247   8.516  35.462   1.306
54854W        W23248  39.525  34.442   2.694
54855W        W23249  15.394   5.376  14.230
54856W        W23250  28.457  24.218   4.548
54857W        W23251  15.498  27.583  14.737
54858W        W23252   3.471  19.601   0.287
54859W        W23253  22.635  27.128   2.207
54860W        W23254  40.463  28.095   1.949
54861W        W23255  43.075  31.099   1.996
54862W        W23256  36.781  34.007  12.929
54863W        W23257  34.115  14.819  13.484
54864W        W23258  25.480  11.768  13.389
54865W        W23259  16.707   2.523  14.410
54866W        W23260  11.392   9.175  13.412
54867W        W23261   0.373  28.570   2.833
54868W        W23262  31.150  42.515   1.891
54869W        W23263   0.564  37.139  10.207
54870W        W23264  43.086  36.913   0.544
54871W        W23265  41.547  19.014   1.379
54872W        W23266  16.348  22.295  11.514
54873W        W23267  35.592  25.817   0.833
54874W        W23268  21.579   1.912   0.403
54875W        W23269  12.910  22.627   1.973
54876W        W23270   5.799   8.695  13.005
54877W        W23271  15.131  23.565  11.134
54878W        W23272   3.255  44.292   5.010
54879W        W23273   2.423   0.308   3.686
54880W        W23274  30.046  44.807  10.966
54881W        W23275  14.222  35.850  12.530
54882W        W23276  34.967   2.630  13.325
54883W        W23277  26.219  31.572  11.603
54884W        W23278  33.769  39.524  12.542
54885W        W23279  28.006  21.177   5.356
54886W        W23280  38.408  27.150   4.788
54887W        W23281  29.006  30.715   3.178
54888W        W23282  26.834  16.176  12.077
54889W        W23283  34.073  27.102  10.956
54890W        W23284   5.221  43.339   1.822
54891W        W23285  15.931  20.980   0.767
54892W        W23286   6.848   6.246  13.353
54893W        W23287   4.171  43.986   3.631
54894W        W23288   7.928  31.186  14.999
54895W        W23289  21.051  26.205  12.987
54896W        W23290  14.185  19.022   1.678
54897W        W23291  15.073   3.862   3.405
54898W        W23292  29.334  25.711   1.488
54899W        W23293  20.774  25.864  13.468
54900W        W23294  23.454  18.834  11.676
54901W        W23295  28.368  14.687   3.571
54902W        W23296  39.912  13.400  11.911
54903W        W23297  34.295  41.598  14.713
54904W        W23298  36.476   4.149   3.138
54905W        W23299  22.206  36.360   1.380
54906W        W23300  13.127  31.892   3.224
54907W        W23301  24.021   7.213  13.571
54908W        W23302   6.699  12.611  13.744
54909W        W23303   5.013  26.409   2.820
54910W        W23304  21.353  40.873   4.951
54911W        W23305  30.437  41.384   2.103
54912W        W23306  44.948  21.141  11.704
54913W        W23307  30.893  38.847  10.743
54914W        W23308  41.476  40.989  10.953
54915W        W23309  26.465   4.327  13.419
54916W        W23310   3.825   5.458  13.738
54917W        W23311  35.169  35.885   4.494
54918W        W23312  40.859   7.161   1.190
54919W        W23313  31.354  24.722  11.488
54920W        W23314   5.961   1.699  14.100
54921W        W23315  23.364  21.101   3.450
54922W        W23316  43.373  21.036  14.893
54923W        W23317  13.179  43.288   0.546
54924W        W23318   8.228  37.311   3.232
54925W        W23319   2.744  10.684  11.903
54926W        W23320  22.786  39.420   0.827
54927W        W23321  30.444  38.290   2.232
54928W        W23322  44.039   3.738   0.801
54929W        W23323   1.894  12.141   3.704
54930W        W23324  24.883  26.975   3.549
54931W        W23325   4.204  35.299   1.698
54932W        W23326   6.364  34.005  11.911
54933W        W23327  36.881  30.982  10.416
54934W        W23328  26.144  39.392  10.997
54935W        W23329  43.306  22.388  12.741
54936W        W23330   8.776  32.183  12.148
54937W        W23331  37.758   0.708  14.912
54938W        W23332  14.763   0.260  13.028
54939W        W23333  25.617   0.329   2.320
54940W        W23334  41.254  25.502   4.137
54941W        W23335  23.120  13.498   1.088
54942W        W23336   7.075  22.755   4.154
54943W        W23337  26.459  26.436  14.723
54944W        W23338  16.139   8.323  13.515
54945W        W23339  10.454   4.952  12.852
54946W        W23340  14.204  29.526   0.466
54947W        W23341  23.248  10.912   2.737
54948W        W23342  12.049  39.002   1.813
54949W        W23343  40.982  36.845   0.555
54950W        W23344  30.822  41.528  11.226
54951W        W23345  43.454  32.825   1.359
54952W        W23346   5.413   8.332   4.261
54953W        W23347  19.138  41.716  12.515
54954W        W23348  33.007   8.676  12.531
54955W        W23349  11.613  43.540   3.117
54956W        W23350  19.714   4.795   4.976
54957W        W23351  38.824   7.511  14.408
54958W        W23352   6.537  43.218   9.793
54959W        W23353  27.622   2.923  10.415
54960W        W23354  16.741  15.528   4.754
54961W        W23355   6.683  40.998  14.504
54962W        W23356  42.975  24.559   3.092
54963W        W23357   9.503  14.678  10.720
54964W        W23358  12.615  11.848   4.581
54965W        W23359   9.615  30.488   3.759
54966W        W23360  28.828  42.006  11.683
54967W        W23361  44.701  40.407   0.877
54968W        W23362  14.152  32.164   0.406
54969W        W23363  23.325  29.372   0.085
54970W        W23364   7.499  39.727  12.377
54971W        W23365   1.786  37.353  14.720
54972W        W23366  30.073  42.951  14.795
54973W        W23367  18.343   2.472   1.434
54974W        W23368   2.414   2.079   3.272
54975W        W23369  10.373   1.305   1.426
54976W        W23370  10.437  38.037   0.727
54977W        W23371   0.001  18.172  12.035
54978W        W23372  27.654  41.359   2.555
54979W        W23373  25.657  38.785  11.558
54980W        W23374  44.874   5.847   2.176
54981W        W23375   6.652  18.007   2.941
54982W        W23376  23.884  13.598   2.109
54983W        W23377  28.684  32.183   5.116
54984W        W23378   0.321  24.649  14.629
54985W        W23379  35.688  24.471   3.696
54986W        W23380   5.159  43.980  12.992
54987W        W23381  35.498  35.525  10.726
54988W        W23382  15.218  23.191   4.259
54989W        W23383  32.550   8.425  12.542
54990W        W23384  34.310  10.618   4.303
54991W        W23385   3.839  29.016   3.401
54992W        W23386  31.708  26.985  14.359
54993W        W23387  31.020  35.028  12.504
54994W        W23388  35.684  35.918  14.483
54995W        W23389   1.996   7.104  12.172
54996W        W23390  26.193  22.974  11.444
54997W        W23391  31.579  39.545   4.292
54998W        W23392  10.127   7.865  13.846
54999W        W23393  14.048  43.199   0.292
55000W        W23394  11.290  35.442  11.300
55001W        W23395   1.255  27.881  11.915
55002W        W23396   4.703  25.209  14.282
55003W        W23397  26.030  42.908   1.245
55004W        W23398   4.542  26.323   1.850
55005W        W23399  13.061   9.991   4.613
55006W        W23400  35.094   5.988   4.082
55007W        W23401  32.440  39.481   0.300
55008W        W23402  44.525  39.905  14.841
55009W        W23403  40.826  11.308  14.363
55010W        W23404   5.625  44.034   3.775
55011W        W23405  20.550  19.477  14.029
55012W        W23406  43.364  37.453   3.962
55013W        W23407   8.650  23.231   0.856
55014W        W23408  16.291  22.026  14.008
55015W        W23409  31.985  17.637  12.848
55016W        W23410  30.239  11.802   4.977
55017W        W23411  23.551  24.331   2.280
55018W        W23412  13.652  29.121   4.605
55019W        W23413  43.004  40.306   1.295
55020W        W23414  42.318  22.067  12.432
55021W        W23415   5.915  28.151   2.758
55022W        W23416   4.399  25.368  12.573
55023W        W23417   2.667  11.714   3.174
55024W        W23418  13.555  38.616  12.552
55025W        W23419  41.625   8.164  12.535
55026W        W23420  20.023  21.964  11.197
55027W        W23421  20.770  39.607  13.525
55028W        W23422  24.680   9.738   2.195
55029W        W23423  26.013  44.434  11.931
55030W        W23424  32.185  13.752  13.779
55031W        W23425  14.664  35.293  14.722
55032W        W23426  16.782   0.060   2.160
55033W        W23427  41.515   5.787   2.184
55034W        W23428  25.189  42.831   2.422
55035W        W23429  25.056  39.229   0.971
55036W        W23430   6.824  22.017   4.581
55037W        W23431   7.726  17.279  12.438
55038W        W23432  15.239  34.903  12.843
55039W        W23433   2.419  39.543   4.733
55040W        W23434   5.515  14.618  13.935
55041W        W23435  15.836  44.841  14.418
55042W        W23436   2.398  22.718  13.967
55043W        W23437  13.777  31.898   1.514
55044W        W23438  44.795  27.543   0.830
55045W        W23439   2.345  28.460  12.668
55046W        W23440  26.802  26.570  12.471
55047W        W23441   8.497  28.454  14.507
55048W        W23442  38.490  40.711  10.997
55049W        W23443  36.687  26.670   0.933
55050W        W23444  18.658  19.257   0.004
55051W        W23445  19.094  28.893   2.258
55052W        W23446   4.772   1.276   0.593
55053W        W23447  40.075  37.029   4.140
55054W        W23448  43.759  44.874   2.745
55055W        W23449  25.712   5.959   1.252
55056W        W23450  38.559  25.075   2.762
55057W        W23451  14.061   3.673  10.753
55058W        W23452  41.747  29.412   3.313
55059W        W23453  39.512  40.782  13.045
55060W        W23454   5.671  29.086   1.295
55061W        W23455  37.050  18.641  11.548
55062W        W23456  33.141  10.764  12.887
55063W        W23457  13.047  35.002   4.314
55064W        W23458   9.242  14.311  12.140
55065W        W23459  30.667   5.197   2.697
55066W        W23460  31.713  30.660  12.937
55067W        W23461  32.846  22.329  13.458
55068W        W23462  22.430  23.977   1.233
55069W        W23463  27.983  42.334  12.427
55070W        W23464   3.637  23.787   4.511
55071W        W23465  32.141  26.723  14.235
55072W        W23466   4.196   9.438  11.746
55073W        W23467  16.859   9.885  11.865
55074W        W23468  28.467  24.107  13.407
55075W        W23469  44.949  20.595  10.397
55076W        W23470  42.810  21.218   4.307
55077W        W23471  17.589  16.074  12.977
55078W        W23472  44.274  44.780   4.130
55079W        W23473  23.487  33.127   2.803
55080W        W23474   9.340  29.417  11.275
55081W        W23475  20.507  26.534   3.905
55082W        W23476  44.893   2.769   4.281
55083W        W23477  30.320  28.088   1.282
55084W        W23478   4.304  31.370  12.115
55085W        W23479  34.543  10.068   1.360
55086W        W23480  31.740  33.637  13.673
55087W        W23481  28.419  31.847   2.429
55088W        W23482   2.322  17.164   3.668
55089W        W23483   0.969  42.349   2.881
55090W        W23484  21.999  44.388  13.726
55091W        W23485  12.350   8.632  13.432
55092W        W23486  20.794   5.885  13.355
55093W        W23487  33.093  41.610  12.093
55094W        W23488  35.992  29.613   3.569
55095W        W23489  24.629  18.588  11.058
55096W        W23490  38.407   0.575   1.743
55097W        W23491  18.127   3.860   0.131
55098W        W23492  23.582   7.319  12.931
55099W        W23493   5.695  34.268   2.874
55100W        W23494  19.705  41.023  11.694
55101W        W23495  41.379  38.857  12.170
55102W        W23496  40.389  30.615  11.329
55103W        W23497  28.881  18.171  10.860
55104W        W23498   2.569  27.356  14.557
55105W        W23499  39.537  36.285   2.227
55106W        W23500  26.067  13.001   2.263
55107W        W23501  17.531  30.620   3.726
55108W        W23502  11.063  37.005   2.089
55109W        W23503  22.757  22.423  11.432
55110W        W23504   7.318  12.315   0.332
55111W        W23505  11.901  38.481   2.635
55112W        W23506  34.121   8.251  13.299
55113W        W23507   8.732  21.868   3.996
55114W        W23508   4.354  32.600  13.361
55115W        W23509   8.305  13.051   2.771
55116W        W23510  21.913   5.435   3.295
55117W        W23511  40.454  41.514  12.086
55118W        W23512  30.022  40.457   1.697
55119W        W23513  14.457  28.532  14.932
55120W        W23514  17.056  13.335   1.802
55121W        W23515   6.627  34.047   3.269
55122W        W23516  39.054   4.703  14.879
55123W        W23517  16.824  44.358  10.898
55124W        W23518  35.453  28.115   2.047
55125W        W23519  43.252  19.839   1.111
55126W        W23520  17.507  10.360  11.495
55127W        W23521   9.085  37.358  12.858
55128W        W23522  33.491  42.551  13.831
55129W        W23523  43.266  43.496  14.004
55130W        W23524  17.825   8.319   2.209
55131W        W23525  21.616   0.888   0.333
55132W        W23526  40.868  32.400   1.267
55133W        W23527  14.636  44.020   2.288
55134W        W23528  26.152  38.103   3.313
55135W        W23529   2.373  32.808   2.504
55136W        W23530  17.696  39.822   4.499
55137W        W23531   6.943  36.853  14.897
55138W        W23532  29.590  31.535   4.175
55139W        W23533  30.394  19.706   0.706
55140W        W23534  32.808  24.136  11.217
55141W        W23535  18.710  31.024   2.761
55142W        W23536  18.676   8.623  11.285
55143W        W23537   5.278  31.648  13.581
55144W        W23538  24.821  12.627  12.003
55145W        W23539  26.736  27.035  13.196
55146W        W23540  21.225  22.837   4.353
55147W        W23541   8.228  22.843  13.867
55148W        W23542  33.467  36.423  11.648
55149W        W23543  18.327  43.075  11.957
55150W        W23544  30.217  27.678   0.001
55151W        W23545  25.252  18.251   0.597
55152W        W23546   4.793  19.414  11.600
55153W        W23547  44.522  38.969  10.655
55154W        W23548   8.685   0.695  13.474
55155W        W23549  19.049  25.514   0.171
55156W        W23550  14.870  22.548   3.151
55157W        W23551  20.477  32.298   5.052
55158W        W23552  26.458  14.391   1.546
55159W        W23553  40.409  23.744  12.961
55160W        W23554  14.683   0.556   0.692
55161W        W23555  16.589  30.859  14.556
55162W        W23556  16.461  40.507  11.883
55163W        W23557  21.419  43.958  14.838
55164W        W23558  36.590  39.514   3.280
55165W        W23559  14.818  42.033  12.835
55166W        W23560  42.286  10.322   3.780
55167W        W23561  33.430  44.256   4.611
55168W        W23562  22.038  20.916   3.768
55169W        W23563  26.202  32.144  11.264
55170W        W23564  15.492   1.514   3.101
55171W        W23565  37.698   9.894  13.737
55172W        W23566  40.257  16.530  13.853
55173W        W23567  30.198  37.412   2.234
55174W        W23568  34.864   8.318  11.160
55175W        W23569  11.901  33.397  11.185
55176W        W23570  32.004  24.646   3.135
55177W        W23571  42.541  15.545   4.493
55178W        W23572  11.285   1.265  12.644
55179W        W23573  12.766  35.843  10.895
55180W        W23574  25.382  16.585  13.049
55181W        W23575  36.446  27.892  12.124
55182W        W23576  28.862  20.588  14.912
55183W        W23577  17.052  11.270   3.329
55184W        W23578  14.307  23.972  11.177
55185W        W23579   8.322  39.402   2.010
55186W        W23580  40.391  41.465  10.284
55187W        W23581  39.513  14.091  11.611
55188W        W23582   1.463  20.909   0.798
55189W        W23583   2.492  26.986   1.938
55190W        W23584  38.491   0.762  10.733
55191W        W23585  20.873  32.471   2.218
55192W        W23586  22.783   7.870  12.144
55193W        W23587  17.085  36.987   2.708
55194W        W23588   3.762  21.217  14.349
55195W        W23589  16.424   9.372  14.796
55196W        W23590  40.140   9.311   2.331
55197W        W23591  11.155  42.176  13.951
55198W        W23592  12.129  32.065   3.107
55199W        W23593  30.539  24.324   0.002
55200W        W23594   5.994  25.668   1.256
55201W        W23595  12.942  15.180   1.383
55202W        W23596  22.518   9.844  11.488
55203W        W23597  13.930   9.526   4.990
55204W        W23598  38.874  40.002  11.197
55205W        W23599   2.738  21.814  13.525
55206W        W23600  25.389   6.865   2.882
55207W        W23601  36.565   6.005  14.950
55208W        W23602  35.605   7.776  11.654
55209W        W23603  24.230  13.595  13.465
55210W        W23604  36.240  22.144   1.224
55211W        W23605  11.612  24.479  14.466
55212W        W23606  27.440   5.414  12.498
55213W        W23607  29.940  35.045   1.360
55214W        W23608  11.018  28.018   3.638
55215W        W23609   2.880  14.722   9.474
55216W        W23610  39.579  43.857  11.092
55217W        W23611  44.646   3.327   3.241
55218W        W23612  15.141  24.495   1.199
55219W        W23613   7.464  25.162   0.282
55220W        W23614  11.563  43.814  12.100
55221W        W23615   3.528  40.211   1.677
55222W        W23616   9.877  10.262   2.368
55223W        W23617  33.979   4.130  11.900
55224W        W23618  35.735  36.813   2.318
55225W        W23619   1.037  40.333   2.747
55226W        W23620   7.250  25.052   0.817
55227W        W23621  26.886  25.184   1.625
55228W        W23622  30.501  24.148  14.342
55229W        W23623  12.576  42.687   0.466
55230W        W23624   3.814  40.491   0.790
55231W        W23625  38.393   4.297  14.513
55232W        W23626  19.324  19.493   0.871
55233W        W23627  20.585  33.772   3.307
55234W        W23628  19.561  13.832   0.882
55235W        W23629  13.251  21.222   2.230
55236W        W23630  19.863  27.042  11.227
55237W        W23631  11.146  40.248   3.595
55238W        W23632   1.345   9.953   1.669
55239W        W23633  29.058  39.524   4.546
55240W        W23634  17.615  10.894  14.039
55241W        W23635   6.908  32.588  10.715
55242W        W23636  39.173  34.220  10.348
55243W        W23637  31.897  18.262   2.419
55244W        W23638  35.152  43.076  11.647
55245W        W23639   3.356  10.433   5.136
55246W        W23640  33.924   0.860   2.793
55247W        W23641  21.593   9.454  12.408
55248W        W23642  20.778  32.240  13.977
55249W        W23643  24.494  35.077   0.480
55250W        W23644   1.490   2.801  13.935
55251W        W23645  35.241  32.645  13.372
55252W        W23646  22.123  32.623   1.656
55253W        W23647  20.085  42.859   2.001
55254W        W23648  10.681  17.200  13.629
55255W        W23649  41.532  29.087  13.850
55256W        W23650  10.956   1.745   4.653
55257W        W23651  27.003  33.828   1.368
55258W        W23652  34.002  39.391  14.014
55259W        W23653  39.099   4.119   1.738
55260W        W23654  34.587   2.843  11.537
55261W        W23655  24.819  33.114  12.546
55262W        W23656   5.259  26.038   0.977
55263W        W23657  36.489   8.140  12.967
55264W        W23658  39.362   7.539  10.687
55265W        W23659   9.117   2.635  13.702
55266W        W23660  31.936   6.900  13.831
55267W        W23661  18.626   3.407   3.727
55268W        W23662  21.107  42.059  14.927
55269W        W23663  41.939  24.064   0.817
55270W        W23664  24.313  41.890   3.533
55271W        W23665  29.954  31.847  13.085
55272W        W23666  16.239  28.060  11.490
55273W        W23667   7.886  38.379   4.403
55274W        W23668  30.974  21.081   2.146
55275W        W23669  24.781  18.761  12.443
55276W        W23670  27.096  18.134   0.388
55277W        W23671  10.640  23.451   1.796
55278W        W23672  37.056  16.138  12.212
55279W        W23673   1.238  28.078  14.512
55280W        W23674  26.778  22.806   0.355
55281W        W23675  27.953  19.524  14.048
55282W        W23676  33.392  34.808   3.265
55283W        W23677  32.158  22.561  13.926
55284W        W23678  17.931  42.997   4.063
55285W        W23679  23.891  42.783   2.122
55286W        W23680  41.071  30.802  11.578
55287W        W23681  23.767  42.499   3.821
55288W        W23682   1.288  37.316  10.897
55289W        W23683  20.765   0.371  12.096
55290W        W23684  22.226  11.814   3.151
55291W        W23685  25.428   5.754  11.038
55292W        W23686  24.623  43.171   3.056
55293W        W23687   2.733   5.931   1.647
55294W        W23688  28.456  41.332   1.326
55295W        W23689   8.504  12.595  11.528
55296W        W23690   8.342   5.500   4.591
55297W        W23691  33.600  26.986   1.158
55298W        W23692   7.253  18.779   4.041
55299W        W23693  30.390  16.253  11.706
55300W        W23694  30.284  42.234  14.957
55301W        W23695   8.844   5.973  14.429
55302W        W23696  37.963  20.159  10.369
55303W        W23697   3.850  42.341   4.373
55304W        W23698  13.802  17.593   3.789
55305W        W23699  27.714   8.789   2.560
55306W        W23700   3.460   0.655  14.942
55307W        W23701  21.089  35.171   4.351
55308W        W23702  44.444  34.148  13.526
55309W        W23703  28.162  14.341  10.725
55310W        W23704  26.231  37.115   0.234
55311W        W23705  14.150  15.183   2.155
55312W        W23706  25.705   4.761   3.356
55313W        W23707   3.411  43.483   4.632
55314W        W23708   8.807  30.654  12.405
55315W        W23709  20.097  30.500  13.278
55316W        W23710  11.027  44.694  12.154
55317W        W23711  27.213  38.296   4.082
55318W        W23712   7.694  10.321  12.036
55319W        W23713  14.696  22.939  13.595
55320W        W23714  17.542   4.875   3.241
55321W        W23715  14.123  28.929   3.779
55322W        W23716  16.695  42.113   3.158
55323W        W23717   3.380   6.384  12.045
55324W        W23718  13.722   3.353   2.346
55325W        W23719   8.173   9.865   2.442
55326W        W23720  40.345  35.603  10.829
55327W        W23721  14.752  30.062   4.066
55328W        W23722   5.141  34.426  12.262
55329W        W23723  27.966  34.342  13.386
55330W        W23724  32.144  25.060  11.095
55331W        W23725  28.914   8.280   4.754
55332W        W23726   9.285  40.382   2.208
55333W        W23727  42.822  38.446   4.198
55334W        W23728  28.865  30.262  13.915
55335W        W23729  44.039  12.884   0.745
55336W        W23730  13.879   0.711  10.910
55337W        W23731   5.858  42.923   2.316
55338W        W23732  24.669  44.374   2.141
55339W        W23733  13.189  23.097  13.567
55340W        W23734  38.787  16.915   5.064
55341W        W23735  40.046   4.247   1.884
55342W        W23736  26.617  17.234  14.899
55343W        W23737   7.195  20.251   4.442
55344W        W23738  22.729  11.590  12.533
55345W        W23739  44.592  25.099  14.883
55346W        W23740   1.234  41.849  11.941
55347W        W23741   9.037   5.416   2.547
55348W        W23742  37.887  32.629   4.297
55349W        W23743  32.241  11.327  10.338
55350W        W23744   9.860  44.481  12.756
55351W        W23745  37.883  26.015  14.407
55352W        W23746  44.371   8.140   2.778
55353W        W23747  16.208   5.173   3.695
55354W        W23748   2.922  10.212   4.537
55355W        W23749   3.906  37.304  14.329
55356W        W23750  44.885  43.423  13.256
55357W        W23751  31.950   7.936  12.963
55358W        W23752  22.789  13.147  13.999
55359W        W23753  10.685  16.893   1.249
55360W        W23754  28.454   7.832  12.941
55361W        W23755  26.648  41.816   3.702
55362W        W23756  40.959  12.284  11.833
55363W        W23757  30.400  41.273   2.783
55364W        W23758  10.993  40.070   4.533
55365W        W23759  20.321  24.638   5.451
55366W        W23760  21.124  23.788  13.817
55367W        W23761  39.469  16.027  12.388
55368W        W23762  43.299  37.530   1.721
55369W        W23763  44.717  35.524   0.595
55370W        W23764  22.670  40.443  12.546
55371W        W23765   2.453   2.349   1.296
55372W        W23766  26.425  39.330   0.908
55373W        W23767   4.989  13.582  14.480
55374W        W23768   7.356  30.921   0.993
55375W        W23769   4.985  41.771  14.872
55376W        W23770   5.473  31.141  11.658
55377W        W23771   5.115  19.297   3.131
55378W        W23772  27.664  25.995   4.354
55379W        W23773  35.327  29.556   1.627
55380W        W23774  17.772  31.609   2.620
55381W        W23775  11.897  29.990   2.766
55382W        W23776  24.957  18.415  11.619
55383W        W23777  26.096  16.683   0.975
55384W        W23778  34.133  41.081  13.405
55385W        W23779   6.187  42.725   0.230
55386W        W23780  37.550  23.444  13.688
55387W        W23781   0.826  16.018  13.546
55388W        W23782  39.878  41.189  14.714
55389W        W23783  43.364  43.017  14.420
55390W        W23784  37.975  32.527  11.223
55391W        W23785   0.935  26.740  12.168
55392W        W23786  34.610   6.716   2.903
55393W        W23787  21.570   9.807   1.387
55394W        W23788  25.230   7.209   1.833
55395W        W23789   3.052   1.041  12.525
55396W        W23790  33.215  21.672  11.002
55397W        W23791  10.751  32.141   1.359
55398W        W23792  32.939  35.867  13.115
55399W        W23793  13.855  31.342   4.952
55400W        W23794  34.578   9.311   3.906
55401W        W23795  30.486  34.410  12.109
55402W        W23796  26.182   9.635   2.646
55403W        W23797  41.500  39.407  12.137
55404W        W23798   8.333  43.843  10.643
55405W        W23799  43.347   1.183  11.540
55406W        W23800  27.102   1.437  14.442
55407W        W23801  37.027  20.307  12.073
55408W        W23802  31.446  39.469   2.512
55409W        W23803  26.156  25.528   2.209
55410W        W23804  21.296  44.979  11.489
55411W        W23805  29.780  25.168   2.864
55412W        W23806  36.116   9.978  11.908
55413W        W23807   8.667  30.808   0.500
55414W        W23808   3.943  31.500   0.801
55415W        W23809  39.210  29.640   4.624
55416W        W23810   7.240  38.755   0.596
55417W        W23811  39.538  13.613  11.383
55418W        W23812   5.698  26.349  14.437
55419W        W23813  43.290  42.912  11.972
55420W        W23814  19.212  16.363  10.988
55421W        W23815  23.260  26.561   1.866
55422W        W23816  29.256   2.210   4.120
55423W        W23817  35.297  39.380  10.594
55424W        W23818  18.905   9.423  12.953
55425W        W23819   8.887  18.590  11.152
55426W        W23820  16.410  39.193  14.790
55427W        W23821  10.299  29.633  13.563
55428W        W23822  28.505   0.010   0.831
55429W        W23823  27.988   6.764  13.514
55430W        W23824  31.204   5.670  14.701
55431W        W23825  10.734  27.152   2.378
55432W        W23826   7.878   7.161   0.233
55433W        W23827   4.929  38.084  14.838
55434W        W23828  15.185  24.754  14.817
55435W        W23829  28.237  37.051  14.275
55436W        W23830  41.210   3.455   4.561
55437W        W23831  14.670  39.347   9.905
55438W        W23832   5.960  32.663  11.554
55439W        W23833   5.889  27.650   0.753
55440W        W23834  28.628  33.585  12.713
55441W        W23835  21.295  27.913  12.580
55442W        W23836  43.267  30.125  13.384
55443W        W23837  18.732  26.984  12.485
55444W        W23838   2.946   1.699  13.326
55445W        W23839   4.374   1.105   0.010
55446W        W23840  39.819   1.398  13.818
55447W        W23841  24.490   7.869  14.478
55448W        W23842  10.242  12.881  13.079
55449W        W23843  10.187  17.101   1.296
55450W        W23844  43.512  33.895  14.858
55451W        W23845  18.169  11.744   2.630
55452W        W23846   4.757  22.004   1.146
55453W        W23847  26.141  29.131  12.209
55454W        W23848  39.494  27.533  13.538
55455W        W23849  23.264  32.889   3.348
55456W        W23850  43.902  42.345   0.888
55457W        W23851  37.952  29.171   4.413
55458W        W23852   5.477  14.837   2.291
55459W        W23853  25.035   7.310  11.967
55460W        W23854  41.485  24.663  13.370
55461W        W23855  10.601   9.140  10.483
55462W        W23856  44.262  22.158   2.146
55463W        W23857  43.362  33.137   0.419
55464W        W23858  30.869  35.316   4.199
55465W        W23859   4.029  43.111   2.749
55466W        W23860   6.156  35.138   1.369
55467W        W23861  13.880  34.147   2.457
55468W        W23862  10.598  37.733  12.906
55469W        W23863  21.715  34.976   2.318
55470W        W23864   0.442   0.463   3.407
55471W        W23865  11.091  17.596   3.054
55472W        W23866  22.655   4.783  10.677
55473W        W23867   8.757  43.853   4.865
55474W        W23868  10.072  15.263   1.664
55475W        W23869  25.685  33.454   1.410
55476W        W23870  26.029  30.315   3.319
55477W        W23871  17.716  14.607  13.192
55478W        W23872  36.553   7.843  14.337
55479W        W23873  35.258  20.070  11.096
55480W        W23874  17.348  30.101   4.107
55481W        W23875  13.133   1.525   0.928
55482W        W23876   3.136  24.545   1.871
55483W        W23877  36.727  33.522   1.729
55484W        W23878   3.838  27.473  12.049
55485W        W23879  41.108   5.698  13.466
55486W        W23880  28.694  34.892   2.150
55487W        W23881  32.500  22.287   4.802
55488W        W23882  11.317  43.214  11.213
55489W        W23883  19.519   6.890  11.961
55490W        W23884   2.977  16.781  10.591
55491W        W23885  27.112  41.358   5.115
55492W        W23886  32.212   8.392  13.872
55493W        W23887   6.835  14.144   4.904
55494W        W23888  43.044  37.990   1.833
55495W        W23889   4.306  29.988  13.160
55496W        W23890   7.106  36.572   3.014
55497W        W23891  36.535  22.197  12.697
55498W        W23892  33.495  27.693   0.884
55499W        W23893  32.973  28.525   0.782
55500W        W23894  13.736  13.262  10.427
55501W        W23895  34.267  22.196   0.304
55502W        W23896  17.306   3.425   0.570
55503W        W23897  44.315  25.748  12.073
55504W        W23898  41.678  32.451   0.160
55505W        W23899   9.257  12.210   2.324
55506W        W23900  41.314  27.968  11.613
55507W        W23901  12.108  41.777   4.687
55508W        W23902   4.242  28.645   1.738
55509W        W23903   7.827  30.249   3.701
55510W        W23904  44.696   7.720  14.952
55511W        W23905   3.972  29.632  14.479
55512W        W23906  24.359  27.817   4.038
55513W        W23907  16.950  41.287   0.007
55514W        W23908  11.847  41.829  12.478
55515W        W23909   5.050  20.583   4.163
55516W        W23910  13.340  12.220  13.087
55517W        W23911  40.520  18.356   4.086
55518W        W23912  38.059  20.795  13.957
55519W        W23913  43.956  13.659  12.333
55520W        W23914  18.189  21.788   3.566
55521W        W23915   7.897   6.951  14.196
55522W        W23916  35.941  43.816   0.970
55523W        W23917  23.569  28.566  11.216
55524W        W23918  35.279  32.123  13.843
55525W        W23919  42.758  32.377   4.144
55526W        W23920   4.137   9.234   3.110
55527W        W23921   1.228   8.582  11.090
55528W        W23922  40.681  36.575   1.672
55529W        W23923   4.185  10.117  14.824
55530W        W23924  37.103  23.204  12.702
55531W        W23925  35.477  17.414   1.885
55532W        W23926  39.960   1.929   4.532
55533W        W23927  35.912  38.613   4.519
55534W        W23928   8.192  43.339   0.253
55535W        W23929  38.764  33.091   0.918
55536W        W23930  29.533  41.241  11.489
55537W        W23931  13.409  25.661  12.704
55538W        W23932  20.718  24.886   0.617
55539W        W23933  27.023  34.174   4.010
55540W        W23934   8.391  41.299  11.561
55541W        W23935  10.956  39.534  11.239
55542W        W23936  13.206   9.638  12.832
55543W        W23937  17.820   7.737   3.272
55544W        W23938  26.924  11.183  10.764
55545W        W23939  30.654  39.307  11.980
55546W        W23940  30.689   4.934   4.056
55547W        W23941  44.976  27.555   0.356
55548W        W23942  10.921  22.011   2.793
55549W        W23943  21.719  39.400   2.171
55550W        W23944  21.371  40.332   4.187
55551W        W23945  14.216  41.710   1.587
55552W        W23946  15.637  43.577   0.448
55553W        W23947  32.538   7.357   0.642
55554W        W23948  10.129  33.505  10.621
55555W        W23949   0.365  19.162  14.708
55556W        W23950   6.148  16.318  10.731
55557W        W23951   2.231  39.008   3.041
55558W        W23952  43.857  24.188  12.473
55559W        W23953  21.065  23.644   4.956
55560W        W23954   1.193  36.899  12.983
55561W        W23955  40.065  29.599   4.842
55562W        W23956  36.150  33.034   0.414
55563W        W23957  16.695   3.770  10.735
55564W        W23958  23.207  20.626   4.661
55565W        W23959  29.025  26.027  13.441
55566W        W23960  41.299  42.356  14.088
55567W        W23961   4.772   1.446   3.224
55568W        W23962  18.214   9.676   3.236
55569W        W23963  13.543  11.801   1.865
55570W        W23964  26.480  16.506   4.144
55571W        W23965  30.068  34.132  14.338
55572W        W23966  42.424   2.876   2.433
55573W        W23967  32.075  33.441   4.526
55574W        W23968   4.811  17.691   4.232
55575W        W23969  21.515  35.574  10.815
55576W        W23970  11.703  44.464   2.263
55577W        W23971  19.504  16.049  12.019
55578W        W23972   8.116  19.719  11.553
55579W        W23973  35.042  37.124  14.295
55580W        W23974   8.201  42.527  12.924
55581W        W23975   9.315  40.865   4.459
55582W        W23976  35.021  33.714   4.998
55583W        W23977  32.216  40.436  13.307
55584W        W23978   8.660  37.608   0.185
55585W        W23979  12.213   2.694   1.191
55586W        W23980   6.178   4.851  14.487
55587W        W23981  36.869  19.050  11.216
55588W        W23982  30.892   0.032   1.855
55589W        W23983  37.923  35.500   3.770
55590W        W23984  36.114  44.534  14.866
55591W        W23985  38.726  21.628   0.978
55592W        W23986  31.227  22.688   2.821
55593W        W23987  28.109  27.402  10.108
55594W        W23988  14.921  14.474  14.703
55595W        W23989  37.991  16.321   2.996
55596W        W23990  14.569  20.486  10.893
55597W        W23991  32.057  24.013   2.291
55598W        W23992  38.608  17.654  12.309
55599W        W23993  20.789  11.123  14.856
55600W        W23994  28.090   3.183  12.109
55601W        W23995   4.670  10.023   2.131
55602W        W23996  19.182  29.550  10.103
55603W        W23997  43.504   8.851   1.260
55604W        W23998  18.336  11.739  10.316
55605W        W23999  33.397  29.375   0.256
55606W        W24000   2.145  14.155   3.818
55607W        W24001  24.903  16.412   2.379
55608W        W24002  14.405  36.124  13.134
55609W        W24003   4.724  37.847   1.227
55610W        W24004   5.613  39.290  11.011
55611W        W24005   6.333  36.033  14.636
55612W        W24006  14.823  30.947  14.777
55613W        W24007  17.598  13.316  12.835
55614W        W24008  33.893  23.854  13.989
55615W        W24009  36.984  32.528   4.048
55616W        W24010  44.497  10.779   2.348
55617W        W24011  12.068  10.662  11.470
55618W        W24012  23.749   1.446  13.938
55619W        W24013  19.782   6.854  14.562
55620W        W24014  33.921  33.519   1.356
55621W        W24015  44.807  12.349   2.507
55622W        W24016  22.040  24.686   3.642
55623W        W24017   5.693  20.557   2.788
55624W        W24018  24.053   8.183   4.277
55625W        W24019  28.429  26.080   0.496
55626W        W24020   1.838  32.346  11.974
55627W        W24021   1.528  26.504  13.061
55628W        W24022   8.100  40.564  12.908
55629W        W24023   8.616  22.438   4.941
55630W        W24024  31.752  27.768   2.438
55631W        W24025  42.424  12.664   3.284
55632W        W24026  27.713  18.725  12.070
55633W        W24027   2.429   8.118   4.311
55634W        W24028  21.705  44.419  11.906
55635W        W24029  21.527  41.077   1.143
55636W        W24030   8.432   3.994   1.766
55637W        W24031  40.412  19.123  12.990
55638W        W24032  24.508  30.996   0.575
55639W        W24033   9.902  37.998   0.750
55640W        W24034  12.269  31.624   4.666
55641W        W24035  16.578  27.366  14.433
55642W        W24036  22.721  14.118  10.746
55643W        W24037  38.991  35.359   0.018
55644W        W24038   3.945  23.714  14.887
55645W        W24039   1.274  24.289   0.107
55646W        W24040  29.775  21.776   3.244
55647W        W24041  30.466  31.717  12.406
55648W        W24042   8.927  10.349  11.172
55649W        W24043  37.392  18.835   1.676
55650W        W24044  23.263  37.009  13.046
55651W        W24045  25.817  33.672   3.806
55652W        W24046  43.826  25.342   3.717
55653W        W24047  43.022  12.634   3.541
55654W        W24048   1.811   4.566   0.639
55655W        W24049   1.381  38.870   2.151
55656W        W24050   3.431  15.567   1.816
55657W        W24051  44.979  14.174   2.531
55658W        W24052  13.267  19.547  14.329
55659W        W24053  25.988   6.133   0.422
55660W        W24054  35.975  27.308  12.393
55661W        W24055  28.122   2.899  11.177
55662W        W24056  19.579  36.358  10.732
55663W        W24057  25.485  38.398   2.808
55664W        W24058  39.209  37.408   2.706
55665W        W24059  28.953  28.540  13.348
55666W        W24060  29.719  42.834   4.554
55667W        W24061   5.996  12.468   5.056
55668W        W24062  42.546  11.401  12.056
55669W        W24063  21.712  30.166  11.554
55670W        W24064  23.617  30.588   2.434
55671W        W24065  14.084  34.155  13.090
55672W        W24066  30.464   0.863  11.673
55673W        W24067  13.638  24.145  14.957
55674W        W24068  15.507  34.992  13.993
55675W        W24069  38.896  40.933  13.968
55676W        W24070  22.271  39.074   2.663
55677W        W24071  41.704  42.836   4.236
55678W        W24072  27.693  35.538   0.014
55679W        W24073  38.106   7.636  11.079
55680W        W24074  22.253  27.455  14.153
55681W        W24075  26.966  42.550   2.220
55682W        W24076  26.137  34.542  13.945
55683W        W24077  12.506  38.432   4.285
55684W        W24078   5.862   7.271  13.956
55685W        W24079  12.943  43.970  11.627
55686W        W24080  19.126  28.376  13.134
55687W        W24081  25.414  35.067  13.625
55688W        W24082  28.585   6.933  14.803
55689W        W24083  14.887  31.108   0.849
55690W        W24084  17.136   2.848  14.171
55691W        W24085   8.334  27.329   1.174
55692W        W24086  39.526  33.501   2.709
55693W        W24087  17.125  24.685  13.712
55694W        W24088  12.917  21.997  11.279
55695W        W24089  34.401  13.685  12.608
55696W        W24090  31.081  15.087  13.055
55697W        W24091  16.359  16.338   3.329
55698W        W24092  42.691  34.344   4.033
55699W        W24093   1.880  34.009   4.947
55700W        W24094   3.909  20.418  13.932
55701W        W24095  30.156   7.115   4.545
55702W        W24096   5.051  27.916   0.668
55703W        W24097  20.837   4.220  10.641
55704W        W24098  26.990   8.297   3.047
55705W        W24099  28.908  23.126  13.571
55706W        W24100  35.912  33.872  14.150
55707W        W24101  38.574   2.794   2.429
55708W        W24102  11.861  31.533  12.599
55709W        W24103  31.902   7.424  12.070
55710W        W24104  13.101  37.503   0.892
55711W        W24105   5.140  21.927  12.459
55712W        W24106  14.923  40.601   4.111
55713W        W24107  20.824   0.776  11.321
55714W        W24108  14.718   2.497  14.779
55715W        W24109  41.857   0.837  11.190
55716W        W24110  33.261  20.999  14.528
55717W        W24111  27.546  23.239  10.922
55718W        W24112  32.098  43.134  13.944
55719W        W24113  13.630  39.076   0.183
55720W        W24114  12.774   8.249   0.834
55721W        W24115  15.200  11.810  11.589
55722W        W24116  33.191  26.243  11.072
55723W        W24117  18.894  11.337  11.882
55724W        W24118  19.588  31.767  14.398
55725W        W24119  25.724  17.635   0.155
55726W        W24120  38.487   1.546   2.718
55727W        W24121  42.820  32.598  13.647
55728W        W24122  41.822   7.979  12.055
55729W        W24123  16.760  26.114   1.266
55730W        W24124  41.789   0.023  14.601
55731W        W24125   8.737  16.289   1.223
55732W        W24126  21.165  30.570   3.040
55733W        W24127  24.608  14.823  14.721
55734W        W24128  34.120  11.087  12.967
55735W        W24129  35.590   9.931   1.165
55736W        W24130  29.041  15.019   1.257
55737W        W24131  23.268  38.695   2.276
55738W        W24132  26.548  41.591   2.339
55739W        W24133  28.069  23.622  12.774
55740W        W24134  17.910  24.501   4.397
55741W        W24135  30.528  20.781  11.010
55742W        W24136  28.128   9.735  12.209
55743W        W24137  22.793  39.845  14.905
55744W        W24138   3.908  24.412  13.018
55745W        W24139  37.782   9.694  14.203
55746W        W24140  25.668  33.055   2.260
55747W        W24141  13.757  39.279  11.928
55748W        W24142  12.930  13.255  12.580
55749W        W24143  27.630  24.199  13.940
55750W        W24144  23.470  32.504  14.474
55751W        W24145  42.581  23.188   1.364
55752W        W24146  10.338  38.385  11.736
55753W        W24147   2.451  14.204   1.525
55754W        W24148  29.525  21.926   4.861
55755W        W24149  26.128   2.935   0.881
55756W        W24150  19.327  14.930   1.306
55757W        W24151   3.705  25.461  11.548
55758W        W24152  15.230  25.734  10.706
55759W        W24153  11.077  26.218  13.524
55760W        W24154  10.443  37.284   0.238
55761W        W24155  43.506  22.033  13.802
55762W        W24156  40.838   8.713   1.426
55763W        W24157  36.636  35.494  11.605
55764W        W24158  31.205  17.993   3.278
55765W        W24159  30.913   5.852  14.311
55766W        W24160  29.781  43.302   3.808
55767W        W24161  18.105  10.348  10.613
55768W        W24162  26.067  42.277   3.204
55769W        W24163  16.058   4.937  14.002
55770W        W24164  24.062  39.844  10.403
55771W        W24165  26.090  16.210  13.299
55772W        W24166  34.134  34.164   4.302
55773W        W24167   0.697  34.841  14.850
55774W        W24168  14.303  17.268   0.782
55775W        W24169   1.848  27.167  12.022
55776W        W24170  27.008  33.101  12.838
55777W        W24171  22.039  37.454  11.165
55778W        W24172  27.571   7.606   0.249
55779W        W24173   3.500  23.002   1.385
55780W        W24174  13.108  23.392  10.668
55781W        W24175  15.146   4.147  12.511
55782W        W24176   1.924   1.835  13.615
55783W        W24177  17.806   5.783  14.462
55784W        W24178  17.073  44.696   1.901
55785W        W24179  26.456  22.734   0.752
55786W        W24180  11.051  38.395  13.473
55787W        W24181  15.053   4.656  14.094
55788W        W24182  16.229  12.533   1.386
55789W        W24183  18.761  24.567  12.533
55790W        W24184  22.200   3.293   4.628
55791W        W24185   5.024  29.537  13.145
55792W        W24186  43.030  16.662   0.729
55793W        W24187  28.632   8.328  11.065
55794W        W24188  11.625  17.192   1.217
55795W        W24189   3.762  21.169   1.872
55796W        W24190  10.788   0.435  10.654
55797W        W24191  24.668  35.365  12.532
55798W        W24192  15.852  37.002   3.834
55799W        W24193  17.046  33.091  12.095
55800W        W24194  21.108  38.640   1.834
55801W        W24195  31.956  21.023   3.209
55802W        W24196   6.369   6.382  13.879
55803W        W24197  33.651  33.109  10.200
55804W        W24198  30.905  13.753  11.131
55805W        W24199  30.566   8.226  12.093
55806W        W24200  13.881  30.656  14.056
55807W        W24201  40.887  44.144  12.504
55808W        W24202  23.020  24.232   3.201
55809W        W24203  18.335  10.217  11.803
55810W        W24204   3.325  21.603   4.316
55811W        W24205  21.191  28.305   9.857
55812W        W24206  11.795  18.146  12.877
55813W        W24207   4.924  34.144   1.896
55814W        W24208  40.397  36.251  13.926
55815W        W24209  11.638  11.717   2.407
55816W        W24210   2.255  10.095   2.207
55817W        W24211  22.232  11.425  12.479
55818W        W24212  18.497  11.041   4.634
55819W        W24213  44.553  28.854  13.368
55820W        W24214  15.757   6.832   2.157
55821W        W24215   9.814  44.218   2.205
55822W        W24216   2.741   1.818  12.850
55823W        W24217  25.091   0.020  13.858
55824W        W24218   8.150  19.537   1.256
55825W        W24219  31.068  20.589   0.694
55826W        W24220  17.359  36.491   0.797
55827W        W24221   4.805  13.634  12.752
55828W        W24222  24.245  39.829   4.134
55829W        W24223  40.838  29.888  13.030
55830W        W24224  21.452   7.419   4.165
55831W        W24225   7.357   5.807   3.402
55832W        W24226  19.789  28.411   4.602
55833W        W24227  14.781  13.592  12.579
55834W        W24228  37.458  17.289   0.266
55835W        W24229  29.785  42.800  10.325
55836W        W24230  29.971  30.943  12.840
55837W        W24231  13.951  43.013   4.144
55838W        W24232  29.703  23.480  12.115
55839W        W24233  39.737  40.972   3.693
55840W        W24234  21.663   8.735   2.953
55841W        W24235  22.177  37.789   0.494
55842W        W24236   8.182  15.750   3.283
55843W        W24237   0.096  10.168   4.023
55844W        W24238   6.692  27.728   3.626
55845W        W24239  38.526   7.260   2.451
55846W        W24240  39.108  32.888   0.409
55847W        W24241   4.329   2.669  14.718
55848W        W24242   6.616  22.619  12.377
55849W        W24243   3.411  21.381  10.098
55850W        W24244  40.514  37.056   1.840
55851W        W24245  11.866  19.784   1.429
55852W        W24246  31.037  21.064   0.294
55853W        W24247  28.695  17.155  13.146
55854W        W24248  12.385  16.147   3.154
55855W        W24249  26.693  29.363  11.667
55856W        W24250   9.246  11.281  14.069
55857W        W24251   1.843  10.671   1.723
55858W        W24252  24.181  10.662   2.369
55859W        W24253  14.258  36.986   2.830
55860W        W24254  35.887  38.316  10.784
55861W        W24255   8.789  33.195   1.899
55862W        W24256  32.550   2.100  11.243
55863W        W24257  40.361  18.854  12.545
55864W        W24258  40.768  35.186  14.231
55865W        W24259  26.432  23.782   1.788
55866W        W24260   5.860  23.615  12.544
55867W        W24261  39.869   5.717  12.959
55868W        W24262  20.119   2.777   0.233
55869W        W24263  36.912  24.827   4.212
55870W        W24264  17.979   7.857  14.240
55871W        W24265  32.883  31.127  13.429
55872W        W24266  25.000   8.433   2.266
55873W        W24267  39.346  14.122  12.120
55874W        W24268   2.395  23.230   1.650
55875W        W24269  21.211   7.654  13.887
55876W        W24270   2.801  35.071  14.587
55877W        W24271  20.690   5.410  13.571
55878W        W24272  35.615  21.270   4.505
55879W        W24273  17.741  16.075   1.244
55880W        W24274  30.487  14.629  10.775
55881W        W24275  10.811  42.593   1.013
55882W        W24276  42.106  25.641  12.413
55883W        W24277  32.865   7.999   4.086
55884W        W24278  25.236  28.458   1.693
55885W        W24279  21.563   1.741  13.327
55886W        W24280   8.135  17.729  10.695
55887W        W24281  39.114  43.598  14.538
55888W        W24282  39.488   3.001  11.739
55889W        W24283  34.322  37.292  11.126
55890W        W24284   2.316  38.552  12.151
55891W        W24285   5.593  28.987  14.393
55892W        W24286   1.214   7.738  14.811
55893W        W24287  17.012  25.968  14.344
55894W        W24288  12.156  11.778  11.162
55895W        W24289   1.831  43.211  13.866
55896W        W24290  44.055   8.755   0.045
55897W        W24291  26.709   4.779  13.356
55898W        W24292  41.838  44.227   4.617
55899W        W24293  17.640   6.809  13.601
55900W        W24294  28.186  37.889   4.892
55901W        W24295  16.745  25.566   2.146
55902W        W24296   8.195  20.147   4.679
55903W        W24297  13.568   8.969  11.634
55904W        W24298  43.113   0.269  11.808
55905W        W24299  20.341  35.217  13.438
55906W        W24300  17.155  28.978  14.910
55907W        W24301  41.689  10.598  13.103
55908W        W24302  14.966  22.721   4.045
55909W        W24303  12.789  37.811   3.084
55910W        W24304  41.947   6.467  14.918
55911W        W24305  24.669  26.125  13.710
55912W        W24306  24.349  24.494  10.741
55913W        W24307  35.840   0.096   2.801
55914W        W24308  19.575   9.690   2.069
55915W        W24309   1.255   3.720  14.186
55916W        W24310  26.634  41.993  12.416
55917W        W24311  19.981  29.125  12.490
55918W        W24312  43.957  26.639  11.600
55919W        W24313  28.072   1.482  13.944
55920W        W24314  14.030  37.034   3.752
55921W        W24315  11.893  23.979  12.932
55922W        W24316  33.609  43.883   3.298
55923W        W24317  36.528  15.115   3.294
55924W        W24318  19.774  39.998  12.021
55925W        W24319  35.832  22.004   2.622
55926W        W24320  11.795   5.209  10.864
55927W        W24321  42.003  19.853  12.403
55928W        W24322  14.269   0.294   2.427
55929W        W24323  30.252   3.820  14.868
55930W        W24324   7.215  22.192   5.407
55931W        W24325  10.602  43.211   0.339
55932W        W24326  38.568  30.603   0.452
55933W        W24327   6.698   5.915  14.918
55934W        W24328  12.806  36.850   4.580
55935W        W24329  38.459  29.477  12.016
55936W        W24330  15.244   3.866  12.947
55937W        W24331  16.052  26.591   0.339
55938W        W24332  18.329  40.085  10.521
55939W        W24333   6.458  44.495  11.135
55940W        W24334  26.922  30.374   0.441
55941W        W24335  13.735  32.196  14.251
55942W        W24336   2.653  37.998   1.852
55943W        W24337  28.213  34.653   0.216
55944W        W24338   3.310  18.052  11.182
55945W        W24339  41.148  22.386  14.846
55946W        W24340  30.893  20.007  13.562
55947W        W24341   8.674  15.806  10.808
55948W        W24342  10.070  25.558  11.965
55949W        W24343   4.143  39.211  14.668
55950W        W24344  38.917  27.580  11.888
55951W        W24345  23.779  22.798  12.088
55952W        W24346  15.428  31.979   0.775
55953W        W24347  22.458  35.344   0.273
55954W        W24348  38.959  22.365   3.854
55955W        W24349   7.336   2.495  14.862
55956W        W24350  29.095  20.159  14.737
55957W        W24351  43.370  34.656   4.529
55958W        W24352  34.430  28.098  13.904
55959W        W24353  40.926  33.639   0.670
55960W        W24354  26.872   2.657   4.702
55961W        W24355  34.504  43.830   1.539
55962W        W24356  18.292   9.489  13.534
55963W        W24357  42.869  43.463  10.635
55964W        W24358  34.892  32.845  10.516
55965W        W24359  33.354  22.109  13.526
55966W        W24360  17.182   5.749   1.743
55967W        W24361   1.303   4.259   3.250
55968W        W24362  29.339   9.231   1.678
55969W        W24363  17.950  42.786   3.595
55970W        W24364  39.005  14.686   0.350
55971W        W24365  19.576  30.106   0.376
55972W        W24366  22.617  30.151  11.685
55973W        W24367   2.577  20.324  13.374
55974W        W24368  21.235  17.093  14.082
55975W        W24369  39.085  24.734   3.136
55976W        W24370  24.220  30.015   4.679
55977W        W24371  11.665  31.059   3.646
55978W        W24372   9.824   3.425  13.565
55979W        W24373  11.164  40.484  13.458
55980W        W24374   3.656  42.993   3.070
55981W        W24375   3.389  39.779  10.292
55982W        W24376  29.206  18.200  11.811
55983W        W24377  25.230   2.489   3.161
55984W        W24378   0.294  35.212  14.712
55985W        W24379  38.937  28.472  14.074
55986W        W24380  44.691  12.815   3.149
55987W        W24381  13.988  25.495   5.050
55988W        W24382   2.813  27.083  11.656
55989W        W24383  19.800  23.201  12.336
55990W        W24384   1.849  39.340   3.077
55991W        W24385  17.744   4.735  10.693
55992W        W24386  17.579   0.981  14.749
55993W        W24387  21.292  28.109  14.492
55994W        W24388  34.138  17.193  11.653
55995W        W24389  24.494  29.683  12.040
55996W        W24390  33.433  32.541   1.880
55997W        W24391  44.378  29.369   1.802
55998W        W24392  40.177  32.673   0.505
55999W        W24393  43.025   2.880  10.788
56000W        W24394  10.629  33.154   4.721
56001W        W24395   1.814  37.123  11.229
56002W        W24396   1.612   4.998   4.866
56003W        W24397  31.484  40.509   4.620
56004W        W24398  41.192  18.628   2.834
56005W        W24399   6.792  29.221   4.555
56006W        W24400  38.176  37.165  10.785
56007W        W24401   8.845  37.714   1.195
56008W        W24402   5.910  25.536  14.545
56009W        W24403  40.097   4.708   1.168
56010W        W24404   3.367  27.076  14.294
56011W        W24405  12.343  19.300   4.160
56012W        W24406  15.497  35.818   3.309
56013W        W24407  12.748  37.034  11.101
56014W        W24408  35.450  41.738   0.534
56015W        W24409  32.101  11.912  10.764
56016W        W24410  25.657  23.725  10.661
56017W        W24411  19.446  22.610  14.020
56018W        W24412  33.502  25.748   2.209
56019W        W24413   0.523  21.950   4.364
56020W        W24414   1.838  29.584  11.594
56021W        W24415  12.776   1.666  12.105
56022W        W24416   5.677  19.387   1.431
56023W        W24417  43.752   7.265   4.054
56024W        W24418  32.063  42.559  11.070
56025W        W24419  36.984  39.523  12.796
56026W        W24420  13.705  35.264   0.865
56027W        W24421   3.509  13.810   2.286
56028W        W24422  20.530   8.868   4.049
56029W        W24423   7.354  38.239   2.422
56030W        W24424  40.615   2.460   0.841
56031W        W24425  24.925   2.235  10.757
56032W        W24426  21.251   6.475   1.063
56033W        W24427  27.592  21.100  13.568
56034W        W24428  23.733  36.589  11.084
56035W        W24429  44.218   2.333   4.548
56036W        W24430  22.527  35.857  10.653
56037W        W24431  34.428  10.156   4.540
56038W        W24432  44.994  29.270  12.524
56039W        W24433  16.809  41.896   2.136
56040W        W24434   7.439  22.419   4.997
56041W        W24435   0.367   8.206  10.966
56042W        W24436  12.379  35.599  13.992
56043W        W24437  35.025  32.086  12.436
56044W        W24438  37.366  16.502   3.689
56045W        W24439  24.446  42.186  10.330
56046W        W24440  21.703  31.862  10.615
56047W        W24441  42.221  17.297   0.749
56048W        W24442  18.959  25.077   1.859
56049W        W24443  17.307  24.149  11.535
56050W        W24444  22.664  29.475   1.323
56051W        W24445   2.342  28.248  11.556
56052W        W24446  13.242  18.848  11.477
56053W        W24447  10.922  27.188   3.668
56054W        W24448  28.503   4.829  11.654
56055W        W24449  10.994  41.034  10.542
56056W        W24450   2.369  30.302  13.071
56057W        W24451  20.560   8.106   3.170
56058W        W24452   9.269  16.970  10.760
56059W        W24453  37.519  10.234  10.624
56060W        W24454  35.822  34.785   4.036
56061W        W24455  10.338   6.211  12.537
56062W        W24456   5.030  14.072  12.519
56063W        W24457   3.894  41.078  14.413
56064W        W24458  42.049  17.759   0.964
56065W        W24459   6.170   3.731  10.734
56066W        W24460  22.095  23.519  11.252
56067W        W24461  33.449  23.712  11.981
56068W        W24462  38.016   3.976  14.342
56069W        W24463   2.452  15.299   1.003
56070W        W24464  13.675   5.878  14.298
56071W        W24465   9.183  21.180  14.820
56072W        W24466  18.679  24.505  14.989
56073W        W24467  24.291  33.562   2.653
56074W        W24468  38.044  26.808   2.894
56075W        W24469   1.808  26.047   1.198
56076W        W24470  28.121  17.505  10.663
56077W        W24471   0.078  14.458  12.129
56078W        W24472  19.511  32.934   4.995
56079W        W24473  27.136  31.204   2.699
56080W        W24474  35.864  29.391  13.191
56081W        W24475   1.490  12.273   4.646
56082W        W24476  34.430  21.241   3.270
56083W        W24477  31.625  28.614   2.442
56084W        W24478  37.540  23.800  10.180
56085W        W24479   7.265  21.132  14.693
56086W        W24480  25.922  26.497   0.949
56087W        W24481  39.669   7.307   3.197
56088W        W24482  19.236  14.701  14.926
56089W        W24483   0.245  37.818  13.758
56090W        W24484  14.402  14.885   4.220
56091W        W24485   7.412  44.894   4.487
56092W        W24486   6.397  38.575   1.139
56093W        W24487  44.962  40.398  14.528
56094W        W24488  34.472  11.690   4.514
56095W        W24489  23.752  35.316   2.201
56096W        W24490  27.981  38.522   0.772
56097W        W24491   2.818  21.672   4.276
56098W        W24492   5.842  23.689   1.909
56099W        W24493  37.314   0.025  10.422
56100W        W24494  35.095  19.626  10.884
56101W        W24495  36.860  40.472  13.519
56102W        W24496  10.380  30.132   1.248
56103W        W24497  42.556  21.226   1.771
56104W        W24498  20.993  31.189  14.570
56105W        W24499  11.266  29.092  11.602
56106W        W24500  19.625  24.808   1.469
56107W        W24501  16.717  16.272  12.465
56108W        W24502  28.481  33.499  13.725
56109W        W24503  30.354  35.035   0.742
56110W        W24504  12.621  36.012   0.501
56111W        W24505   8.280  44.736   1.396
56112W        W24506  11.668  27.631  13.375
56113W        W24507  43.407  13.470   3.105
56114W        W24508  15.494  22.293   1.336
56115W        W24509  39.712  31.336  11.578
56116W        W24510  21.889  23.645  10.724
56117W        W24511   0.247  24.713   0.842
56118W        W24512  31.950  38.101   0.771
56119W        W24513  13.696  35.500  12.987
56120W        W24514  19.152  42.786  12.434
56121W        W24515  41.428  31.979   4.812
56122W        W24516   9.555   2.410  13.799
56123W        W24517  32.806  41.483  14.950
56124W        W24518  21.752  43.108  13.148
56125W        W24519   7.543  36.912   3.750
56126W        W24520  10.387  31.368  11.833
56127W        W24521  41.102  29.556   3.668
56128W        W24522  13.822  28.512   0.492
56129W        W24523   5.799   5.024   1.358
56130W        W24524  41.507  32.492  11.953
56131W        W24525   3.805  37.187  11.965
56132W        W24526  41.817  13.127  14.201
56133W        W24527  17.705  25.062  11.411
56134W        W24528  15.302  40.887   1.840
56135W        W24529  21.011  43.858   1.117
56136W        W24530   3.425  13.890  11.180
56137W        W24531  29.478   5.971  11.814
56138W        W24532  36.503  28.404  14.365
56139W        W24533  35.589  35.052   1.747
56140W        W24534  36.498  10.842  13.274
56141W        W24535  33.567  28.524  12.662
56142W        W24536  33.951   8.117   2.838
56143W        W24537   2.301  25.076  14.333
56144W        W24538   9.980  17.560   3.719
56145W        W24539  28.695  19.726  11.514
56146W        W24540  31.678  32.539  12.477
56147W        W24541  35.463   5.735   2.677
56148W        W24542  37.047   4.351  11.486
56149W        W24543  41.225  43.185  10.707
56150W        W24544  39.044  12.879  14.358
56151W        W24545   9.412  26.162  10.582
56152W        W24546  38.025   0.731  10.476
56153W        W24547  44.368   9.776  11.845
56154W        W24548  34.379  36.810   2.327
56155W        W24549  16.828  34.022  10.904
56156W        W24550  21.577  36.374   4.898
56157W        W24551  38.027  34.001  10.594
56158W        W24552  22.631  23.706   2.285
56159W        W24553  32.440  15.310  13.517
56160W        W24554  19.208  37.933   2.828
56161W        W24555  19.192   2.696   0.328
56162W        W24556  11.976  40.569   3.992
56163W        W24557  25.433   1.846   0.299
56164W        W24558   2.896  14.161   2.714
56165W        W24559   8.257  26.805   0.962
56166W        W24560  39.557  19.692   2.695
56167W        W24561  28.534  40.000  14.812
56168W        W24562  14.141  13.869   0.921
56169W        W24563   6.419  20.854   0.102
56170W        W24564  10.799  16.628  13.061
56171W        W24565  19.484   6.367  10.767
56172W        W24566  21.506  10.167  11.326
56173W        W24567  11.846  36.769   0.219
56174W        W24568  36.968  22.436   0.983
56175W        W24569   9.701   6.470   1.277
56176W        W24570  26.396   3.805   0.968
56177W        W24571  22.662  36.350   1.178
56178W        W24572  41.839   6.738  13.125
56179W        W24573  25.414  27.629   3.194
56180W        W24574  30.128   7.975  11.980
56181W        W24575   4.265  40.384  14.570
56182W        W24576  35.613  25.557  14.220
56183W        W24577  36.657  33.446  14.449
56184W        W24578  20.815  10.667  14.220
56185W        W24579   5.288  40.058   4.686
56186W        W24580  18.887  20.204   3.068
56187W        W24581   6.181  30.685  14.780
56188W        W24582  26.655  42.864   5.493
56189W        W24583  33.683  37.529  14.392
56190W        W24584  34.311  38.578  11.455
56191W        W24585   9.487  21.927  14.347
56192W        W24586  17.682  21.930  11.652
56193W        W24587  32.557  12.145  10.609
56194W        W24588  39.744  14.237  11.162
56195W        W24589  12.261  20.496   3.781
56196W        W24590  41.938  41.347   1.146
56197W        W24591  40.082  18.169  12.560
56198W        W24592   1.880   2.266  13.273
56199W        W24593  21.069  30.311   4.000
56200W        W24594  27.056  13.165  11.993
56201W        W24595  30.595  29.782   1.896
56202W        W24596  33.678  32.410   2.817
56203W        W24597   8.276  24.031  10.378
56204W        W24598  14.627   2.811  10.696
56205W        W24599  19.098  18.394  13.474
56206W        W24600  25.550  38.074   3.889
56207W        W24601  33.320  24.777   4.237
56208W        W24602  35.125   3.691   2.277
56209W        W24603  17.591  13.857   0.391
56210W        W24604  13.258  26.964   5.011
56211W        W24605  34.075   6.330   0.744
56212W        W24606  20.443  18.689   4.649
56213W        W24607   5.324  44.494  12.164
56214W        W24608  20.214   3.421  12.834
56215W        W24609   6.856   4.235  12.683
56216W        W24610  38.296  18.656   2.391
56217W        W24611  35.027   6.350  14.254
56218W        W24612   9.767  13.631   0.553
56219W        W24613  15.240  44.840  14.698
56220W        W24614  14.754  39.010   0.349
56221W        W24615   6.289  41.722  11.470
56222W        W24616  30.020  25.728  12.025
56223W        W24617   9.272  24.291  10.387
56224W        W24618  36.903   8.747   0.637
56225W        W24619   6.891  31.050   4.759
56226W        W24620   0.048   5.682  14.047
56227W        W24621  25.334   2.149   2.759
56228W        W24622  39.259   3.256   4.785
56229W        W24623  19.810   1.809  11.426
56230W        W24624  21.290  22.753   0.760
56231W        W24625  13.754   3.675  13.862
56232W        W24626  27.685  33.103  10.373
56233W        W24627  19.559   1.864   2.331
56234W        W24628  26.519  35.926   1.147
56235W        W24629  20.659  44.757  10.876
56236W        W24630  39.898  30.476  11.547
56237W        W24631  11.166  41.886   3.673
56238W        W24632  23.014  29.515  14.071
56239W        W24633  19.282   7.796  14.815
56240W        W24634  35.483  37.491   1.753
56241W        W24635  42.388  25.805  14.653
56242W        W24636  33.002  14.659  13.369
56243W        W24637   7.361  25.535  13.926
56244W        W24638   9.975   1.898   1.788
56245W        W24639  36.652  31.878  10.332
56246W        W24640  31.172  36.315  11.146
56247W        W24641   9.822  11.072  11.650
56248W        W24642  10.743  38.901  11.742
56249W        W24643  37.540  36.420   2.487
56250W        W24644   5.811  10.796   4.468
56251W        W24645  35.409  15.126  11.174
56252W        W24646  27.078  28.600   3.519
56253W        W24647  24.757   5.005   3.214
56254W        W24648   9.062  30.981  11.872
56255W        W24649   6.954  28.351   2.848
56256W        W24650  12.407  43.054  12.641
56257W        W24651   7.634  14.615   3.076
56258W        W24652  44.313  10.657  10.552
56259W        W24653  18.205  29.135   4.652
56260W        W24654   6.871   1.042  14.880
56261W        W24655  21.511   3.308  14.444
56262W        W24656  23.647   7.377   2.817
56263W        W24657  32.879  21.247   4.213
56264W        W24658  21.283  20.114   3.267
56265W        W24659   8.338  23.262  10.967
56266W        W24660  33.027  26.268   4.222
56267W        W24661  41.929  32.777  13.373
56268W        W24662  16.322  27.997  12.865
56269W        W24663   6.909  17.735  12.435
56270W        W24664   3.066  11.331  13.049
56271W        W24665  18.092   0.629  13.116
56272W        W24666  43.069  21.788   1.236
56273W        W24667  10.814  28.317   3.256
56274W        W24668  11.451  17.636   1.423
56275W        W24669  21.581   1.092   0.960
56276W        W24670  27.400   5.756  11.127
56277W        W24671  32.524  14.713   3.163
56278W        W24672  23.224  10.203   1.794
56279W        W24673  25.516  33.925   1.224
56280W        W24674   4.682  27.505  13.877
56281W        W24675  24.045  30.855   2.247
56282W        W24676  13.028   5.253   4.089
56283W        W24677  12.609   4.730   0.350
56284W        W24678   6.902  29.527   4.115
56285W        W24679  41.412  43.116   2.383
56286W        W24680  20.014  28.099  13.571
56287W        W24681   1.791  11.857   4.810
56288W        W24682   0.744  33.061  11.625
56289W        W24683  18.393  28.651   4.643
56290W        W24684  30.624  20.826   0.526
56291W        W24685  36.063   9.823  11.284
56292W        W24686   4.514  11.230   0.406
56293W        W24687  12.707   2.951  14.872
56294W        W24688  34.920  27.023  13.402
56295W        W24689  14.402  10.190  10.598
56296W        W24690  35.670   2.910  11.500
56297W        W24691  15.679  23.711   1.076
56298W        W24692   5.194  38.069  11.570
56299W        W24693  29.825  38.351  12.625
56300W        W24694   2.337  32.376   3.403
56301W        W24695   0.897  24.225  10.829
56302W        W24696   5.955  11.436  11.831
56303W        W24697  13.272  13.564  11.560
56304W        W24698  28.332  19.795  12.907
56305W        W24699   2.297  27.807   2.587
56306W        W24700  26.070  12.025   4.048
56307W        W24701  24.703  38.352   1.752
56308W        W24702   4.513   4.909  11.483
56309W        W24703  31.977  17.880  12.367
56310W        W24704  35.403   6.638  12.136
56311W        W24705  23.117  15.403  13.879
56312W        W24706   6.978   6.289  14.714
56313W        W24707  16.898  16.706  12.685
56314W        W24708  12.946   2.018  12.415
56315W        W24709  23.255  29.619   1.933
56316W        W24710  21.528  33.894  13.316
56317W        W24711  24.664  25.605   4.571
56318W        W24712  28.897  20.265  10.775
56319W        W24713  27.727  12.196   0.284
56320W        W24714  22.181  35.054   3.298
56321W        W24715  29.540  25.674  13.367
56322W        W24716  32.180  30.988  14.825
56323W        W24717  24.649   5.364  11.848
56324W        W24718  29.428  15.779   2.158
56325W        W24719  17.143   1.879  14.575
56326W        W24720  35.209   7.417  11.494
56327W        W24721  33.683  43.874   4.209
56328W        W24722  22.995  10.345  13.997
56329W        W24723  24.552  34.448  12.089
56330W        W24724  27.919  29.997   4.720
56331W        W24725  37.085   4.805   2.661
56332W        W24726  13.728  28.612   3.690
56333W        W24727  37.066  33.274  13.818
56334W        W24728   6.956  10.140   3.356
56335W        W24729  20.729  20.091  11.078
56336W        W24730  33.591  39.974  14.533
56337W        W24731  20.178  34.924   0.652
56338W        W24732  13.320   5.641  11.037
56339W        W24733  24.480  44.254  11.998
56340W        W24734  14.301   0.775   0.388
56341W        W24735  20.463  25.175   1.912
56342W        W24736  28.254   7.721   3.736
56343W        W24737   8.695   9.969  11.785
56344W        W24738  20.089  25.519   2.156
56345W        W24739  32.996   4.868   0.760
56346W        W24740  23.791  29.091   0.735
56347W        W24741  23.185   0.178   3.906
56348W        W24742  29.974  33.774  13.103
56349W        W24743  22.198  15.795  10.637
56350W        W24744  35.540  12.576  10.651
56351W        W24745   5.058   3.260   2.855
56352W        W24746  31.529  42.825   2.241
56353W        W24747   2.245  11.105   4.186
56354W        W24748  18.492  15.483   3.680
56355W        W24749  38.393   9.145  13.762
56356W        W24750  30.387  17.072   4.100
56357W        W24751  30.554  34.355  11.246
56358W        W24752  31.076  11.400  13.509
56359W        W24753  26.105  30.287  12.891
56360W        W24754  32.438  42.757  14.670
56361W        W24755  10.234   2.534  10.702
56362W        W24756  38.005  23.647  13.930
56363W        W24757   8.760  15.130   5.058
56364W        W24758  26.486  28.012  11.880
56365W        W24759  41.643  11.625   0.993
56366W        W24760  12.126  27.397   1.576
56367W        W24761  33.938  15.536   2.396
56368W        W24762  44.016  32.825  14.252
56369W        W24763  15.159  31.118   3.808
56370W        W24764   3.199  23.569   0.433
56371W        W24765  11.220  24.890   0.389
56372W        W24766  30.637  38.856  13.430
56373W        W24767   7.926  24.376  13.990
56374W        W24768  35.006  33.545   0.380
56375W        W24769  23.171   9.630   0.955
56376W        W24770  41.815  44.685  14.989
56377W        W24771  18.072  19.527  11.016
56378W        W24772  18.335  15.054   0.303
56379W        W24773  14.554  30.286  13.437
56380W        W24774  38.585  19.642   0.937
56381W        W24775  12.858  43.826   4.408
56382W        W24776  14.970  15.286   3.388
56383W        W24777  33.734  18.741  14.443
56384W        W24778  35.190  27.135   3.734
56385W        W24779  38.498  42.313  12.641
56386W        W24780   8.460  41.425   3.231
56387W        W24781  38.313  22.953  12.671
56388W        W24782  38.147   6.906  12.552
56389W        W24783  41.851  44.414  11.658
56390W        W24784  28.402  42.660   1.304
56391W        W24785  42.511  28.886   0.955
56392W        W24786  22.593   5.167   4.496
56393W        W24787  19.958  42.957   0.437
56394W        W24788  38.575  20.562  14.894
56395W        W24789  12.173  27.382  11.839
56396W        W24790   6.289   8.659  14.754
56397W        W24791  43.538  22.032   3.648
56398W        W24792  29.492  37.001   1.949
56399W        W24793   0.385  22.721   0.442
56400W        W24794   9.070  33.130   1.477
56401W        W24795  41.053  28.749   2.518
56402W        W24796   0.855  35.578  12.920
56403W        W24797  10.921  17.957  11.130
56404W        W24798  40.430   2.931  14.297
56405W        W24799   4.677  44.148   2.630
56406W        W24800  15.134  10.757  13.932
56407W        W24801  43.914   0.220   1.796
56408W        W24802  27.556  28.655   1.424
56409W        W24803  35.771   1.253   3.558
56410W        W24804  16.432  43.530  10.821
56411W        W24805   0.994  32.317  10.521
56412W        W24806  39.424  22.456  11.048
56413W        W24807  26.493  18.588  14.129
56414W        W24808  26.696  33.196  12.244
56415W        W24809  17.844  24.128   1.832
56416W        W24810  13.163  32.983  13.850
56417W        W24811  33.380   7.995  11.502
56418W        W24812  14.773  35.436  11.967
56419W        W24813  24.233  38.092  12.388
56420W        W24814  37.068  27.218  12.070
56421W        W24815  17.641   0.210   2.263
56422W        W24816  15.564   6.849  12.649
56423W        W24817  28.645  21.789   4.205
56424W        W24818  18.090   5.288  11.491
56425W        W24819  32.689  15.646   1.986
56426W        W24820  29.085  24.633   2.684
56427W        W24821   5.857  21.248  12.465
56428W        W24822   4.368  31.751  14.799
56429W        W24823  32.707  12.892   0.710
56430W        W24824   2.437  33.442   0.302
56431W        W24825   4.610  26.055   3.075
56432W        W24826  25.066  15.370  12.941
56433W        W24827   0.420  18.966  13.820
56434W        W24828  14.658  19.490   2.229
56435W        W24829  15.153  12.100  12.117
56436W        W24830   2.729  16.225  11.563
56437W        W24831  40.783  19.234   4.179
56438W        W24832  20.523  21.774  13.276
56439W        W24833  32.532  32.410   3.712
56440W        W24834   9.678  10.128  12.712
56441W        W24835  39.753   3.815  13.891
56442W        W24836   6.929  25.532   5.567
56443W        W24837  38.441  30.385  14.610
56444W        W24838   2.993   4.941  12.876
56445W        W24839   1.978   6.680  13.128
56446W        W24840   1.531  24.646   3.361
56447W        W24841  24.123   2.720   3.740
56448W        W24842  19.740  41.863  10.671
56449W        W24843  29.334   7.092  10.677
56450W        W24844   1.822   4.425  13.347
56451W        W24845  42.487  22.716   2.596
56452W        W24846  11.825  39.365  14.437
56453W        W24847   4.520  23.430   2.267
56454W        W24848  33.511   8.677   3.765
56455W        W24849  36.026  13.177   4.518
56456W        W24850  26.921   5.680  13.413
56457W        W24851  31.187  43.045  12.984
56458W        W24852  43.252  18.951   3.570
56459W        W24853   9.286  19.198   1.490
56460W        W24854  19.534  16.269  12.909
56461W        W24855  37.644  30.499   3.979
56462W        W24856  11.102   1.921  13.385
56463W        W24857  24.097  26.513   3.728
56464W        W24858  13.860   3.999   1.075
56465W        W24859   0.314  31.508   2.211
56466W        W24860   9.250  37.590   4.098
56467W        W24861  33.516  40.550  11.259
56468W        W24862  14.510   6.461   3.276
56469W        W24863  27.699  20.952  14.538
56470W        W24864  16.920  35.689   1.982
56471W        W24865  23.175  20.006   3.488
56472W        W24866   6.182  32.059  10.313
56473W        W24867  25.529  34.698  12.841
56474W        W24868  39.677  39.036  10.974
56475W        W24869   9.270   2.011  10.603
56476W        W24870  11.910  36.521   0.723
56477W        W24871   8.436  15.571   9.927
56478W        W24872   2.782  21.662   2.119
56479W        W24873  17.050  43.339   0.315
56480W        W24874  19.593  28.687   0.212
56481W        W24875  30.963   5.741  12.521
56482W        W24876  11.656  13.758   5.097
56483W        W24877  28.396  31.641  12.063
56484W        W24878   1.856  36.240   2.596
56485W        W24879  19.175  36.521   3.867
56486W        W24880  14.031  21.284   4.945
56487W        W24881  31.392  35.554   0.286
56488W        W24882  14.110   0.213   2.922
56489W        W24883  43.831  19.505   1.821
56490W        W24884   1.259  10.875  12.455
56491W        W24885  24.156  44.979   4.753
56492W        W24886  10.169  15.371   4.303
56493W        W24887  12.120  16.655  12.721
56494W        W24888  42.922  35.828   9.869
56495W        W24889  31.253   9.599   4.169
56496W        W24890  35.460  34.511   2.612
56497W        W24891  11.837   1.493   2.252
56498W        W24892  22.211  32.176  13.074
56499W        W24893  15.297  31.349  11.217
56500W        W24894   8.322   8.280  12.425
56501W        W24895   0.801  41.808   4.486
56502W        W24896  14.698   4.292  13.322
56503W        W24897  11.255  14.649  11.811
56504W        W24898  33.845  18.588  14.913
56505W        W24899  30.678  36.326  11.260
56506W        W24900  14.185  35.420  14.527
56507W        W24901  39.573   2.259  12.034
56508W        W24902  27.910  17.998   2.338
56509W        W24903  44.395  10.631  12.329
56510W        W24904  14.805  22.750  11.069
56511W        W24905  29.241  33.741   1.201
56512W        W24906  38.596  30.420  13.557
56513W        W24907   8.385   7.868   3.642
56514W        W24908  10.972   2.336  14.789
56515W        W24909   2.691  11.354   4.012
56516W        W24910  15.402  27.465   0.410
56517W        W24911  13.087  41.383   0.270
56518W        W24912  34.112  40.871  14.446
56519W        W24913  43.806   3.349   4.467
56520W        W24914  26.461   6.859   2.257
56521W        W24915  27.664  44.386  12.613
56522W        W24916   4.513  26.562   2.932
56523W        W24917  25.203  22.221   2.869
56524W        W24918  29.638  41.971   4.384
56525W        W24919  26.951  34.003   4.481
56526W        W24920  41.429  30.612  11.135
56527W        W24921   6.512  33.855  12.904
56528W        W24922  13.685  13.424   1.224
56529W        W24923  24.178  13.708   2.523
56530W        W24924  19.972  19.077   2.838
56531W        W24925  18.237   7.243   3.062
56532W        W24926  42.903  14.403   3.209
56533W        W24927  36.368   1.835   3.857
56534W        W24928  14.172  14.254  14.014
56535W        W24929  12.820  43.880  10.717
56536W        W24930   0.271  19.020   0.697
56537W        W24931  15.701  26.206  13.960
56538W        W24932  43.913  11.554  11.430
56539W        W24933  31.396  30.067  14.396
56540W        W24934  12.199  13.344   4.413
56541W        W24935  14.258  21.129  11.067
56542W        W24936   3.729  15.177   0.169
56543W        W24937  22.295  30.717  13.491
56544W        W24938   3.529  44.356  10.581
56545W        W24939  36.816   6.612  11.969
56546W        W24940  37.338  39.786  12.023
56547W        W24941  17.655  18.612   3.167
56548W        W24942  30.479  36.167   5.101
56549W        W24943  31.874   8.665   0.878
56550W        W24944  43.319   4.856   4.208
56551W        W24945  25.640  36.955   1.329
56552W        W24946   7.243  17.454   0.820
56553W        W24947  38.915  41.879   4.112
56554W        W24948  40.252   6.700  12.892
56555W        W24949  23.903  38.574   5.111
56556W        W24950  30.849  14.242   0.442
56557W        W24951   8.976  36.414   1.422
56558W        W24952  14.137  36.890  10.511
56559W        W24953  28.189  41.911   2.412
56560W        W24954  36.944   0.991  13.908
56561W        W24955  16.020  23.978   4.512
56562W        W24956  20.154  19.954   4.845
56563W        W24957  33.029  26.652   0.306
56564W        W24958  39.546  21.081   4.124
56565W        W24959  12.069   7.659  12.675
56566W        W24960  35.591   3.926   4.935
56567W        W24961  17.065  43.006   4.096
56568W        W24962  25.124  25.667  11.826
56569W        W24963   3.925   0.703   2.758
56570W        W24964  28.035  32.303   4.468
56571W        W24965   3.494   7.568  11.618
56572W        W24966   1.884  17.347  11.676
56573W        W24967  19.182  14.649   1.721
56574W        W24968  15.362  42.357   1.295
56575W        W24969  25.700  11.829  14.756
56576W        W24970  40.072   2.037   2.423
56577W        W24971  13.722  33.990  12.791
56578W        W24972  37.286   7.279  12.389
56579W        W24973   7.779  37.916  10.652
56580W        W24974  39.197  11.673  14.778
56581W        W24975  35.514   0.954  10.763
56582W        W24976   6.545  11.975   0.356
56583W        W24977  32.215  28.453   3.286
56584W        W24978  33.470  43.752   0.400
56585W        W24979  13.697  11.749   2.364
56586W        W24980  17.276  40.134   2.897
56587W        W24981   8.344  15.381  14.049
56588W        W24982   7.347  30.088   1.891
56589W        W24983  11.682  15.861   1.224
56590W        W24984   7.340  26.020  13.743
56591W        W24985   0.856   2.100   3.754
56592W        W24986  22.740   6.913   1.556
56593W        W24987  25.066  28.709   4.136
56594W        W24988   0.764  20.183   3.729
56595W        W24989  11.207  12.773   1.891
56596W        W24990  28.083  29.064   4.792
56597W        W24991  22.539   6.393  12.452
56598W        W24992  11.941   5.247  13.658
56599W        W24993  41.899  36.399   4.409
56600W        W24994  11.859  26.542   0.695
56601W        W24995  30.015  11.500   0.797
56602W        W24996   0.377   2.983   3.683
56603W        W24997  30.980  34.121   0.271
56604W        W24998  13.243  18.522   3.333
56605W        W24999  38.151   9.146  11.216
56606W        W25000   1.844  37.725   4.366
56607W        W25001   5.254  32.991   3.345
56608W        W25002  11.117  42.066   2.070
56609W        W25003  13.730  36.091   1.267
56610W        W25004   2.073  31.971  13.154
56611W        W25005   1.527  34.811   1.239
56612W        W25006  20.708  11.162  11.187
56613W        W25007  39.978  21.094  11.908
56614W        W25008  40.896  12.735  14.049
56615W        W25009   0.597  21.645  12.110
56616W        W25010   6.804  40.549   0.506
56617W        W25011  30.061  39.126  11.321
56618W        W25012  12.721  32.896   4.381
56619W        W25013  36.497   1.981  10.985
56620W        W25014  28.468   8.411   0.961
56621W        W25015  15.714   4.979   1.382
56622W        W25016  41.533  28.441   1.639
56623W        W25017  34.161  22.009  10.551
56624W        W25018  37.805   1.125   0.320
56625W        W25019  11.821  32.441   0.963
56626W        W25020  19.002  11.902  11.161
56627W        W25021  36.647  28.569   3.242
56628W        W25022  35.168   6.217  13.768
56629W        W25023  31.045  29.749  11.131
56630W        W25024   6.920  12.303   2.785
56631W        W25025  39.892  43.309   4.702
56632W        W25026  26.025  21.193  11.672
56633W        W25027  25.488   2.527   0.997
56634W        W25028  44.670  33.642   4.751
56635W        W25029   1.426  26.328   4.078
56636W        W25030   4.726   5.188   3.683
56637W        W25031  19.778   8.130  11.467
56638W        W25032  14.277  21.965   3.991
56639W        W25033  32.978  28.744   4.272
56640W        W25034  19.654  10.638   1.390
56641W        W25035  12.840  12.783  10.837
56642W        W25036  39.894   7.780   4.369
56643W        W25037  13.398   9.426  14.339
56644W        W25038  22.984  37.005   2.211
56645W        W25039  16.779  21.770   3.733
56646W        W25040  13.629   5.874   4.944
56647W        W25041  23.971  23.956   0.374
56648W        W25042  13.805  34.943  11.979
56649W        W25043   2.565  31.924  11.493
56650W        W25044  26.975  30.326  11.351
56651W        W25045  26.974  19.603   4.193
56652W        W25046  36.425   5.454   2.306
56653W        W25047  37.163  34.155   3.689
56654W        W25048   6.960  17.286  11.242
56655W        W25049  19.128  10.632  11.538
56656W        W25050  40.575   5.803  11.644
56657W        W25051   6.857  14.266  11.033
56658W        W25052  33.601  23.076   0.018
56659W        W25053  42.375  16.195  13.655
56660W        W25054  10.149   8.415  14.879
56661W        W25055  22.464  30.468   4.200
56662W        W25056   6.160  30.095   4.127
56663W        W25057  14.096  28.656   0.963
56664W        W25058  37.133  35.626  11.582
56665W        W25059  24.188  21.760  12.571
56666W        W25060  32.090  16.754   1.204
56667W        W25061  27.855   8.311   2.691
56668W        W25062  25.719  18.085  11.580
56669W        W25063  35.817  11.600   3.752
56670W        W25064  42.211  40.462  13.042
56671W        W25065   6.828  20.332   0.722
56672W        W25066  33.395   4.032   2.248
56673W        W25067  33.670   1.679  12.548
56674W        W25068  43.419  25.455   0.266
56675W        W25069   6.455  14.515  11.228
56676W        W25070  39.843  28.403   4.164
56677W        W25071   2.729  17.729   4.095
56678W        W25072  11.567  14.845  13.940
56679W        W25073  39.274  35.989  13.610
56680W        W25074  11.071   8.975  10.641
56681W        W25075  23.757  42.075   2.636
56682W        W25076  14.777   1.963  14.847
56683W        W25077  10.010  37.819   3.645
56684W        W25078  18.211  18.176  12.372
56685W        W25079  20.766   9.696  14.928
56686W        W25080  18.982  28.483   1.249
56687W        W25081   4.202  19.586   4.666
56688W        W25082   5.427  25.596   4.579
56689W        W25083  36.428   5.239  13.957
56690W        W25084   1.876  13.516  12.019
56691W        W25085  29.140  13.560   0.433
56692W        W25086  32.195  33.401  12.553
56693W        W25087  14.634  26.121   2.131
56694W        W25088  44.389  20.775  10.409
56695W        W25089   2.400  29.276   1.212
56696W        W25090  27.013  15.468   2.314
56697W        W25091  24.202   7.376   0.028
56698W        W25092  26.173  38.781   5.029
56699W        W25093  32.742  34.408   2.131
56700W        W25094   1.773  20.958  13.279
56701W        W25095  21.140  15.008   0.853
56702W        W25096  15.215  33.185  13.979
56703W        W25097  12.397  15.819   0.523
56704W        W25098  39.031  10.653  12.403
56705W        W25099  26.640  42.812   3.673
56706W        W25100   4.791   3.600   3.161
56707W        W25101   7.181  19.322  11.823
56708W        W25102  28.448  20.857  11.816
56709W        W25103  31.978  39.070  13.618
56710W        W25104  18.834  43.904  12.926
56711W        W25105  18.849  41.894  10.640
56712W        W25106   8.485  39.427   3.858
56713W        W25107  13.610  17.378   2.185
56714W        W25108  25.591  32.253  11.157
56715W        W25109  25.718  11.314  13.324
56716W        W25110  20.080   4.536  12.004
56717W        W25111  18.936  11.502   0.004
56718W        W25112   9.770  16.468  14.474
56719W        W25113  31.563   6.519   4.018
56720W        W25114  23.066   6.572   3.415
56721W        W25115  11.249  41.211  10.949
56722W        W25116   8.563  42.039  12.117
56723W        W25117  41.324  36.818   1.200
56724W        W25118   5.579  26.414   2.724
56725W        W25119   5.202   2.312   1.670
56726W        W25120   2.246  22.563  13.490
56727W        W25121  39.121  41.568   0.992
56728W        W25122  17.125  13.136  14.097
56729W        W25123  36.601  34.660  13.441
56730W        W25124  19.621  18.767  11.235
56731W        W25125  26.663  41.364   0.880
56732W        W25126   8.483  32.611  13.991
56733W        W25127  20.088  26.593   3.224
56734W        W25128  44.922  36.844   4.446
56735W        W25129  41.885   2.304  13.361
56736W        W25130  34.694  35.522  11.136
56737W        W25131  38.120   2.464   4.238
56738W        W25132  11.346  35.555  14.931
56739W        W25133  21.002  31.122   4.227
56740W        W25134  19.409  44.453   0.897
56741W        W25135  40.042  25.768   0.346
56742W        W25136  22.970  26.178  13.627
56743W        W25137   0.750  34.632   3.791
56744W        W25138  35.804  15.046  10.823
56745W        W25139   0.196  19.596  14.491
56746W        W25140   9.220  20.060   1.387
56747W        W25141  39.494   1.098   1.901
56748W        W25142  18.616  15.256   1.881
56749W        W25143  19.491  26.615   3.651
56750W        W25144  13.661  25.003  13.512
56751W        W25145  44.616  11.211   2.696
56752W        W25146  26.471   9.875   3.883
56753W        W25147  20.020  17.823   3.666
56754W        W25148  21.585  19.494   3.944
56755W        W25149   2.482  39.074  12.015
56756W        W25150   0.839  26.376  11.109
56757W        W25151   4.158  21.982   3.737
56758W        W25152   4.689  19.009   2.853
56759W        W25153   2.873  36.395   4.324
56760W        W25154  32.493   3.175   1.723
56761W        W25155   6.064  43.737  11.260
56762W        W25156  18.497  31.066  12.568
56763W        W25157  42.215   7.626   1.346
56764W        W25158   1.441  42.033  10.696
56765W        W25159  27.002  36.549  14.435
56766W        W25160   5.861  31.973   9.852
56767W        W25161  19.683  17.724  14.343
56768W        W25162  20.551  27.631  13.031
56769W        W25163  15.225  30.015  14.547
56770W        W25164  15.206  41.358  10.553
56771W        W25165  14.466   3.714   4.999
56772W        W25166  26.964  37.143  12.896
56773W        W25167  24.744   6.652   0.360
56774W        W25168  31.071   6.461   1.816
56775W        W25169  15.383  13.056  10.596
56776W        W25170  20.778  33.463  13.950
56777W        W25171  17.722  32.503  14.615
56778W        W25172  19.973   4.885   2.141
56779W        W25173   3.856  10.360  11.081
56780W        W25174   2.923  28.892   3.327
56781W        W25175   4.907  24.135  12.951
56782W        W25176  43.498  28.505  11.965
56783W        W25177  43.442  17.539  11.538
56784W        W25178  19.949  18.509   0.455
56785W        W25179  31.569  35.232   2.165
56786W        W25180  20.653   0.254   0.005
56787W        W25181  34.063  20.513  14.292
56788W        W25182  33.554  26.675  13.990
56789W        W25183   1.946  34.900  11.530
56790W        W25184  19.721  21.020   3.324
56791W        W25185  16.378  29.916   1.699
56792W        W25186   7.399  12.702   4.921
56793W        W25187  11.428  20.013   2.695
56794W        W25188   5.515   7.113   0.852
56795W        W25189  38.280  32.464   0.517
56796W        W25190  23.497  33.357   3.624
56797W        W25191  24.405  26.983   2.618
56798W        W25192  38.118  15.957   1.407
56799W        W25193  30.742   2.405   3.689
56800W        W25194  24.118  25.961   4.429
56801W        W25195  28.260   5.272   3.197
56802W        W25196  25.770  27.570   1.825
56803W        W25197  43.734  27.724  14.806
56804W        W25198  43.801   2.749  12.559
56805W        W25199  14.661  42.880  11.423
56806W        W25200  36.458  33.922   1.960
56807W        W25201  10.815  14.300  14.439
56808W        W25202   4.904  32.450   3.317
56809W        W25203  15.782  41.249   0.938
56810W        W25204  19.675   6.486   3.391
56811W        W25205  24.044  15.099   2.318
56812W        W25206  26.021  30.689   3.714
56813W        W25207  42.312  21.821   2.546
56814W        W25208  13.142  23.031  12.124
56815W        W25209   5.818  24.573  13.297
56816W        W25210  39.921  42.271   3.242
56817W        W25211  24.226  18.159   1.362
56818W        W25212  44.732   1.054   3.691
56819W        W25213  31.042  13.752   1.387
56820W        W25214   8.673  31.493  13.460
56821W        W25215  39.528  26.413   0.011
56822W        W25216  23.726  42.585   9.875
56823W        W25217  36.842   6.758   2.278
56824W        W25218  39.544   0.427   0.766
56825W        W25219  34.900  11.801   4.215
56826W        W25220   5.963  44.262   2.114
56827W        W25221  41.746   8.045   3.340
56828W        W25222   7.327   8.348  11.515
56829W        W25223  41.472  18.268  13.061
56830W        W25224  29.008  16.101  12.069
56831W        W25225  37.982   9.441  12.477
56832W        W25226  31.045  10.528   3.175
56833W        W25227  15.333  40.421   2.082
56834W        W25228  12.796  17.070  11.425
56835W        W25229  13.366  14.995   0.292
56836W        W25230  23.629   8.432   4.393
56837W        W25231  38.819   6.053  11.287
56838W        W25232  14.740  20.439  10.416
56839W        W25233   7.854  34.615  11.574
56840W        W25234   0.745  18.705   4.591
56841W        W25235  35.276  14.664  14.306
56842W        W25236  11.347  33.348   0.278
56843W        W25237   3.936   1.808  14.917
56844W        W25238  12.631  20.509  11.037
56845W        W25239  30.368  27.682  13.458
56846W        W25240  38.242  17.814   0.131
56847W        W25241  31.432  20.331  12.578
56848W        W25242  15.426  23.103   2.261
56849W        W25243   5.567  43.084  14.421
56850W        W25244  13.894  19.302   0.510
56851W        W25245   7.476  29.567   4.143
56852W        W25246  10.475  22.233   3.677
56853W        W25247  25.038  12.951   5.130
56854W        W25248  19.131  31.478  10.539
56855W        W25249  17.056  24.424   4.154
56856W        W25250   1.070  25.180   0.005
56857W        W25251  25.664  39.022  12.021
56858W        W25252  25.205  36.650  14.776
56859W        W25253  15.573  18.683  14.317
56860W        W25254  44.778  15.552  11.204
56861W        W25255   7.893  11.899   4.571
56862W        W25256  31.099  20.707   4.599
56863W        W25257   8.103   7.701   1.125
56864W        W25258  41.074  44.747   3.577
56865W        W25259   5.363  38.957   4.319
56866W        W25260   4.294  29.171   1.768
56867W        W25261  26.674  36.576   4.999
56868W        W25262  24.675  32.195   3.273
56869W        W25263  26.308  27.386   0.419
56870W        W25264  28.654  12.717  13.634
56871W        W25265  37.300  43.517   0.832
56872W        W25266   9.988  38.602  11.412
56873W        W25267  25.229  29.457  11.647
56874W        W25268  15.772  16.184   4.104
56875W        W25269  12.895  13.178  13.490
56876W        W25270  35.396   6.832   3.300
56877W        W25271  15.806  15.160   0.364
56878W        W25272  24.436   7.175   1.280
56879W        W25273   9.979  43.459  13.635
56880W        W25274  16.303   0.012   3.347
56881W        W25275  28.955  22.274  14.119
56882W        W25276  22.420  28.234   4.490
56883W        W25277  11.527   9.789   3.281
56884W        W25278  26.624  14.187   0.597
56885W        W25279  42.030   9.199   2.425
56886W        W25280  22.280  30.956   4.616
56887W        W25281  41.025   0.527   2.241
56888W        W25282  40.942  17.158   4.499
56889W        W25283  20.554   0.944   4.223
56890W        W25284  38.148  11.183  10.478
56891W        W25285  36.532  27.559   3.397
56892W        W25286  16.232   1.696   4.149
56893W        W25287  40.772  11.033  12.273
56894W        W25288  44.824  17.659  14.481
56895W        W25289   7.963  44.114   0.819
56896W        W25290  21.702  11.965   9.763
56897W        W25291  17.633  36.392   0.354
56898W        W25292  38.669  10.227   0.211
56899W        W25293   9.409  25.652  14.434
56900W        W25294   7.753  39.336  14.363
56901W        W25295  38.665  11.683  14.863
56902W        W25296  10.462  22.139  14.472
56903W        W25297  25.096  32.911  14.466
56904W        W25298  22.665  34.517   2.851
56905W        W25299   8.583  32.881  11.376
56906W        W25300  20.433   2.265  10.727
56907W        W25301  11.162  23.618   2.110
56908W        W25302  27.938  14.242  10.269
56909W        W25303  37.108  31.135   0.368
56910W        W25304  15.089  35.336   0.974
56911W        W25305  18.717  12.485  10.387
56912W        W25306   0.899  10.087   3.619
56913W        W25307  43.343  38.828   1.838
56914W        W25308  30.007  37.110   4.779
56915W        W25309  23.197   5.668  14.411
56916W        W25310   8.386  38.401  10.737
56917W        W25311  14.978   7.722   4.838
56918W        W25312  17.257  29.012  10.227
56919W        W25313  25.720   2.647   4.743
56920W        W25314  35.458  38.853   2.104
56921W        W25315  30.479  12.581  10.643
56922W        W25316   6.214  24.071   2.779
56923W        W25317  36.424  34.046   4.412
56924W        W25318   3.967  34.682   1.382
56925W        W25319   4.215  21.473  12.291
56926W        W25320  22.000   2.218   2.798
56927W        W25321  31.527  43.219  11.579
56928W        W25322  37.854   3.373   0.199
56929W        W25323  15.560  43.427   1.813
56930W        W25324  15.166  29.081   3.720
56931W        W25325  34.061  11.821   0.485
56932W        W25326   8.599  20.352  12.602
56933W        W25327  11.086  11.913  14.461
56934W        W25328  20.372  37.053   9.675
56935W        W25329  41.230  25.121  13.472
56936W        W25330  24.721   8.837   0.323
56937W        W25331   6.605  26.959   1.007
56938W        W25332  16.825  11.030   2.377
56939W        W25333  35.572   7.382   1.993
56940W        W25334  18.767  44.791  11.165
56941W        W25335  41.553  31.545  10.894
56942W        W25336  23.826  17.729  10.646
56943W        W25337  25.496   4.151  13.321
56944W        W25338  24.004  27.167   1.690
56945W        W25339  26.426   2.951  13.337
56946W        W25340  31.191  29.545   4.661
56947W        W25341  24.654  28.631  10.749
56948W        W25342   8.932  18.615   0.268
56949W        W25343  29.090   1.286  10.682
56950W        W25344   0.034  41.232  12.551
56951W        W25345  38.251  33.145  11.765
56952W        W25346  22.520  35.320  10.588
56953W        W25347  39.361  15.585  14.918
56954W        W25348   7.394  42.593  12.462
56955W        W25349  38.470  42.887  11.073
56956W        W25350  29.433  16.279   4.644
56957W        W25351  33.365  36.375   1.957
56958W        W25352  26.060   7.712  11.106
56959W        W25353  13.253  25.718   1.232
56960W        W25354  22.754  24.085   1.889
56961W        W25355  34.240  42.910  11.556
56962W        W25356  18.821  32.586  13.878
56963W        W25357  43.278  29.979   2.268
56964W        W25358  29.102  40.561   4.213
56965W        W25359   4.938  24.524  13.903
56966W        W25360  21.967  34.755   1.888
56967W        W25361   3.374  32.096   1.826
56968W        W25362  21.542  40.579   1.256
56969W        W25363  18.589  39.095   1.377
56970W        W25364  14.859  43.335   3.554
56971W        W25365  26.713  12.220  10.924
56972W        W25366  36.012  21.439  13.568
56973W        W25367  32.574  41.069  11.654
56974W        W25368  40.734  44.269  13.342
56975W        W25369  39.338   2.739  12.141
56976W        W25370  28.602   6.790  12.712
56977W        W25371   2.710   8.717   1.672
56978W        W25372  32.149  37.089   3.255
56979W        W25373  21.963  20.036   1.756
56980W        W25374  42.364  16.274  13.130
56981W        W25375   1.653  24.486   1.836
56982W        W25376  21.472  44.898   1.858
56983W        W25377   6.135  25.974   3.232
56984W        W25378   2.841  43.919  10.704
56985W        W25379   6.697  18.202   1.249
56986W        W25380   8.021  43.894  12.492
56987W        W25381  42.175  43.858  11.177
56988W        W25382  20.479   4.894   2.178
56989W        W25383  42.998  37.091   4.109
56990W        W25384  28.791  28.069   3.249
56991W        W25385  44.012   8.350   4.061
56992W        W25386  10.465  13.673   2.719
56993W        W25387  15.003  33.460   5.091
56994W        W25388  38.107   8.693  14.277
56995W        W25389   3.449  32.626  13.452
56996W        W25390   5.526   8.266   1.493
56997W        W25391  10.082   1.706   1.301
56998W        W25392   5.635  14.421  11.446
56999W        W25393  30.634  29.126   1.174
57000W        W25394  20.991   0.741   2.176
57001W        W25395  28.440  41.204   0.439
57002W        W25396   5.673  41.180  14.760
57003W        W25397  35.050   7.885   4.594
57004W        W25398  32.002  19.366   1.074
57005W        W25399  11.170  27.603  12.553
57006W        W25400  43.688   6.921  11.122
57007W        W25401  32.248   3.251  11.540
57008W        W25402  12.984   1.227  13.956
57009W        W25403   4.875  43.894   5.003
57010W        W25404  26.237   6.567  12.413
57011W        W25405  36.164   9.718  12.367
57012W        W25406  11.833  43.599  14.251
57013W        W25407  37.552  28.520   4.849
57014W        W25408  37.026  24.103  11.929
57015W        W25409   3.871  32.082   0.068
57016W        W25410  37.035   0.814   1.870
57017W        W25411  10.182  21.507   4.608
57018W        W25412  34.619  32.260   2.377
57019W        W25413  11.343   1.310  11.663
57020W        W25414  17.658  30.338   3.291
57021W        W25415  20.134   0.270   3.775
57022W        W25416  41.452  20.532   2.092
57023W        W25417  29.177  42.124  13.128
57024W        W25418  22.804   7.417   3.198
57025W        W25419  39.033  27.018  10.708
57026W        W25420  22.757  18.267  14.711
57027W        W25421   4.943  17.558  14.577
57028W        W25422  20.989  33.942   3.664
57029W        W25423  18.086  18.857   2.427
57030W        W25424  41.964  13.370  12.612
57031W        W25425  20.255   9.263   2.719
57032W        W25426  38.303  13.545   0.878
57033W        W25427  18.795   4.702   0.561
57034W        W25428   3.716  34.425  13.465
57035W        W25429  16.716  43.734   1.948
57036W        W25430  19.658  29.859   4.626
57037W        W25431   3.433  15.335  12.452
57038W        W25432  28.223  13.260  13.121
57039W        W25433   1.319  10.633   2.378
57040W        W25434  21.067  22.806  12.379
57041W        W25435  19.262  31.322   0.563
57042W        W25436   9.704  31.513   2.808
57043W        W25437  17.518   4.874  11.155
57044W        W25438   4.643  42.854   1.150
57045W        W25439  33.637  26.497   4.458
57046W        W25440   1.357  36.894  11.208
57047W        W25441  42.953  12.752   4.050
57048W        W25442  18.002  19.733  14.360
57049W        W25443  34.666  16.593   2.667
57050W        W25444  40.833   2.741  13.456
57051W        W25445  10.636  13.595  12.526
57052W        W25446  27.653  37.015   0.452
57053W        W25447   6.665  39.478   3.711
57054W        W25448  17.716  28.095   3.746
57055W        W25449  40.966  24.716   4.557
57056W        W25450  43.516   6.530   3.112
57057W        W25451  26.480  29.388   0.777
57058W        W25452  12.289  16.226   0.834
57059W        W25453  16.030  25.535  12.978
57060W        W25454   1.301  41.345   0.689
57061W        W25455  31.329  24.172   0.797
57062W        W25456  34.900  40.118   4.609
57063W        W25457  33.838  41.212  11.668
57064W        W25458  24.975  17.267   0.587
57065W        W25459  34.049   0.339  14.807
57066W        W25460  13.767  21.554  12.590
57067W        W25461  13.362  31.542   4.705
57068W        W25462  25.598  25.085   3.887
57069W        W25463  18.133  36.614  11.556
57070W        W25464  40.876  39.623   5.098
57071W        W25465  25.474  33.704  12.549
57072W        W25466  11.994  29.967  11.300
57073W        W25467  29.345  35.353  11.197
57074W        W25468   2.787  11.419  14.372
57075W        W25469  20.587  35.368  12.404
57076W        W25470  14.259  22.192  10.499
57077W        W25471  15.237   6.253  11.607
57078W        W25472  20.822   9.110   3.293
57079W        W25473   5.714  24.684  14.338
57080W        W25474  18.106  13.831  14.359
57081W        W25475  26.723   0.939  12.558
57082W        W25476   1.854  36.323  14.132
57083W        W25477  10.078  41.997  10.095
57084W        W25478  41.983  32.871   0.219
57085W        W25479   8.387   3.234   0.923
57086W        W25480  30.000  21.730   4.257
57087W        W25481  26.210  15.472  13.539
57088W        W25482  37.325  44.714  12.418
57089W        W25483  43.470  19.163  13.130
57090W        W25484   7.647  18.190  12.809
57091W        W25485  22.479  36.826   4.677
57092W        W25486   2.216  41.365   3.678
57093W        W25487  44.874   1.490  14.967
57094W        W25488  30.989  26.259  12.577
57095W        W25489  21.517  17.681   1.901
57096W        W25490  19.595  22.133  11.443
57097W        W25491  10.866  39.274  13.003
57098W        W25492  35.359   6.822   0.866
57099W        W25493  20.652  37.011   2.879
57100W        W25494   6.957   1.984  11.653
57101W        W25495  16.908  31.621  14.759
57102W        W25496  16.046  35.535  14.375
57103W        W25497  41.724   5.351   2.444
57104W        W25498  27.497  28.056  11.071
57105W        W25499  20.131  37.299  12.819
57106W        W25500  13.704  28.377   1.736
57107W        W25501  31.162  24.986  10.394
57108W        W25502  44.704  19.016   2.892
57109W        W25503  38.828   5.248  10.254
57110W        W25504  28.929  26.998   0.071
57111W        W25505  42.279  10.138  13.334
57112W        W25506   9.420  27.638   4.277
57113W        W25507   5.795  35.148   4.041
57114W        W25508   1.703  10.553  14.020
57115W        W25509  30.642  25.218   2.650
57116W        W25510  33.718  29.013   4.651
57117W        W25511   2.436   2.142  13.126
57118W        W25512  13.359  32.534   2.919
57119W        W25513  25.795  20.123   0.561
57120W        W25514  29.132  27.783   0.883
57121W        W25515  42.877  22.526   3.420
57122W        W25516  12.125  37.433  12.567
57123W        W25517  15.367  11.955   2.806
57124W        W25518  20.095  22.171   2.980
57125W        W25519  38.285  18.660  13.369
57126W        W25520   8.479   8.152  10.953
57127W        W25521  17.206   2.498  11.058
57128W        W25522   3.378  17.410   4.596
57129W        W25523  21.159  13.270  12.906
57130W        W25524  38.628  16.553   4.205
57131W        W25525  33.821  23.463   0.754
57132W        W25526  23.448  39.362   4.460
57133W        W25527  24.186  26.472  14.317
57134W        W25528  22.804  43.519  13.950
57135W        W25529  16.053  35.102   2.685
57136W        W25530   0.981   3.259  12.737
57137W        W25531  23.581  28.085   1.951
57138W        W25532   1.251  37.864  11.145
57139W        W25533  13.223  20.366  12.271
57140W        W25534  15.131   0.726   1.957
57141W        W25535  35.393  34.565   0.868
57142W        W25536   2.704  20.067  12.928
57143W        W25537   0.514  13.205   2.726
57144W        W25538  43.570  25.568   2.296
57145W        W25539  14.722  29.469   3.384
57146W        W25540  32.021  29.298  12.446
57147W        W25541  16.531  21.491   4.212
57148W        W25542  27.755  42.940   0.665
57149W        W25543  11.138   5.285   3.655
57150W        W25544  19.001  39.887  13.359
57151W        W25545   4.813  15.668   2.357
57152W        W25546  10.947  32.042  11.717
57153W        W25547  43.479   0.873  13.335
57154W        W25548   5.663  15.595   1.820
57155W        W25549  27.553   8.143  11.574
57156W        W25550  31.110  42.018  12.103
57157W        W25551  23.827  13.489   4.647
57158W        W25552  26.432  19.188  12.090
57159W        W25553  17.068  36.446   4.799
57160W        W25554  38.023   4.683  11.807
57161W        W25555   6.888   7.658   2.379
57162W        W25556  42.809  40.697   2.210
57163W        W25557  21.983  12.719   0.777
57164W        W25558   2.680  39.548  12.893
57165W        W25559   7.129  16.147  12.444
57166W        W25560  23.226   0.054  12.297
57167W        W25561  18.564   0.130  12.463
57168W        W25562  33.923  36.811  13.778
57169W        W25563  26.583  23.778   4.717
57170W        W25564  34.765  14.256   2.799
57171W        W25565   2.217  33.395   3.222
57172W        W25566  43.884   6.322  14.361
57173W        W25567  30.653   5.874  12.942
57174W        W25568  38.935  17.223   1.957
57175W        W25569  16.178  26.069  10.825
57176W        W25570  27.511  43.820   3.236
57177W        W25571  36.107  14.578  11.965
57178W        W25572  20.070   6.223  11.533
57179W        W25573  13.964  28.681   0.013
57180W        W25574   0.906  16.672   4.884
57181W        W25575  25.577   3.238  12.396
57182W        W25576  42.172   1.793  10.106
57183W        W25577  41.451  15.016   2.832
57184W        W25578  36.317  19.328   2.790
57185W        W25579  10.195  26.460  12.178
57186W        W25580  14.738  21.948  10.652
57187W        W25581  36.328  37.139   1.576
57188W        W25582   4.851  12.265  12.574
57189W        W25583   0.038  17.767  14.008
57190W        W25584  32.029  25.803   2.528
57191W        W25585  29.047  20.975  14.001
57192W        W25586  16.175  10.331  14.472
57193W        W25587   7.401  16.923   0.812
57194W        W25588  43.186  19.499   4.262
57195W        W25589   7.150  18.183   0.015
57196W        W25590  21.580  37.469  11.366
57197W        W25591  21.752  34.727  10.802
57198W        W25592   2.642   2.242  12.041
57199W        W25593  42.731  44.355   2.153
57200W        W25594  26.707  15.642  11.893
57201W        W25595  33.523  33.625  13.776
57202W        W25596  19.650  43.392  13.904
57203W        W25597  22.833  24.937   1.400
57204W        W25598  11.092  34.064   3.806
57205W        W25599  23.537  14.366   2.178
57206W        W25600   6.184  26.523  13.274
57207W        W25601  29.435  17.445   2.287
57208W        W25602   5.266  41.537   2.882
57209W        W25603   6.963  27.549  13.369
57210W        W25604  38.410  16.757  14.378
57211W        W25605   0.532   8.329  13.836
57212W        W25606  33.001  24.061  13.385
57213W        W25607   9.350  10.863   1.728
57214W        W25608  33.876   9.920   1.922
57215W        W25609   9.134  19.811   4.500
57216W        W25610   4.500  24.819   5.034
57217W        W25611  40.325  26.218  14.373
57218W        W25612   6.023  34.883  12.443
57219W        W25613  11.877   7.742  10.590
57220W        W25614   4.221  17.343   3.685
57221W        W25615   3.970   8.787  13.292
57222W        W25616  29.036  42.049  14.516
57223W        W25617   5.491  39.939  14.125
57224W        W25618  18.609  28.219   0.851
57225W        W25619  20.526  28.468  12.004
57226W        W25620   8.456   3.870  11.170
57227W        W25621  40.970   3.163   1.342
57228W        W25622   9.801  35.133   1.208
57229W        W25623  10.165  32.507   2.373
57230W        W25624  15.897  24.253  13.360
57231W        W25625  40.358  20.905  11.576
57232W        W25626  20.438  18.810  10.179
57233W        W25627  23.927  22.951  10.325
57234W        W25628  38.453   4.511  11.563
57235W        W25629  33.087  17.242  12.629
57236W        W25630   4.485  15.361  11.856
57237W        W25631  10.115  29.053  14.220
57238W        W25632  35.382  40.255  14.256
57239W        W25633   1.176   9.251   2.321
57240W        W25634  12.129  14.682   1.835
57241W        W25635   3.155   8.550   1.249
57242W        W25636   3.567  21.283   3.622
57243W        W25637  32.256   1.560  14.983
57244W        W25638  37.776   8.189   3.646
57245W        W25639  14.762  16.365  11.560
57246W        W25640  12.605   7.763   4.774
57247W        W25641  23.560   9.835   2.224
57248W        W25642  19.944  30.925  10.710
57249W        W25643  23.415  39.544   3.989
57250W        W25644  44.949   0.432  11.950
57251W        W25645  11.405  18.300   1.880
57252W        W25646  23.216  14.635   2.491
57253W        W25647  29.524  10.885  14.344
57254W        W25648  28.075  22.459  10.371
57255W        W25649   7.160  31.399  13.449
57256W        W25650  40.485  12.487   4.968
57257W        W25651  12.342   7.658  14.428
57258W        W25652  10.708  15.206  13.069
57259W        W25653  40.811  42.804  12.269
57260W        W25654  20.491  32.370  14.513
57261W        W25655   6.232  28.503  11.132
57262W        W25656  31.227  26.622   1.396
57263W        W25657  44.744   8.849   0.681
57264W        W25658  38.996  41.006   4.067
57265W        W25659  43.864  28.031  11.847
57266W        W25660  40.427  42.999   3.187
57267W        W25661   1.695   3.193   4.042
57268W        W25662  16.646  20.064  10.252
57269W        W25663  26.115  31.193   1.007
57270W        W25664   9.136  34.077  14.429
57271W        W25665  16.386  12.239  11.196
57272W        W25666   9.732  30.852   1.944
57273W        W25667  13.830   0.520   0.498
57274W        W25668  42.630  39.321   1.414
57275W        W25669  21.479  17.287  12.449
57276W        W25670  22.116   1.305  14.279
57277W        W25671  42.922   6.879  12.423
57278W        W25672   4.423  28.359  12.941
57279W        W25673  37.967  28.733   0.785
57280W        W25674  11.639  24.148  13.355
57281W        W25675  24.137  42.167  11.448
57282W        W25676  16.453  29.252   3.281
57283W        W25677  15.975  29.524  11.139
57284W        W25678   7.848  41.026  10.469
57285W        W25679  43.177  29.800  11.175
57286W        W25680  44.931  29.161  14.791
57287W        W25681   9.889  31.823   1.736
57288W        W25682  19.836  26.993  13.137
57289W        W25683  13.489  11.477  10.549
57290W        W25684  37.791  42.505   1.301
57291W        W25685  15.992  15.697  13.363
57292W        W25686  15.549   2.741   0.223
57293W        W25687  30.441  11.817   2.224
57294W        W25688  42.442  15.269   0.041
57295W        W25689  11.328  27.628   3.858
57296W        W25690  18.163   6.353   3.118
57297W        W25691  39.795   9.117   2.722
57298W        W25692  39.815  26.232   4.294
57299W        W25693  14.782   4.408  10.704
57300W        W25694  19.061  16.311  11.895
57301W        W25695  23.140   8.416   3.672
57302W        W25696  10.725   6.644  14.585
57303W        W25697  30.903   9.223   4.122
57304W        W25698  29.136  21.354  14.457
57305W        W25699   9.607   0.948   1.735
57306W        W25700  23.186  20.194  11.723
57307W        W25701  35.605  44.984  14.472
57308W        W25702  41.485  29.603  13.965
57309W        W25703  36.891  34.621   3.685
57310W        W25704   9.474  36.516   1.265
57311W        W25705  42.825  13.864  14.884
57312W        W25706   6.952  12.759  10.610
57313W        W25707   1.362  35.483   3.662
57314W        W25708  33.547  31.456   4.116
57315W        W25709  34.430   4.675  11.623
57316W        W25710  39.493  10.160  14.843
57317W        W25711  33.632  30.634  12.678
57318W        W25712  34.965  33.412  12.146
57319W        W25713  37.424  24.430   3.203
57320W        W25714   4.531  17.874  11.594
57321W        W25715  32.094  32.429   4.511
57322W        W25716   8.625  29.022  12.841
57323W        W25717  40.853  29.075  12.010
57324W        W25718  15.496  26.014   0.949
57325W        W25719  11.825  19.385   5.069
57326W        W25720   2.985   3.319  11.048
57327W        W25721  30.521  26.204  12.371
57328W        W25722   3.373  11.332   3.500
57329W        W25723  44.328  17.229   3.686
57330W        W25724   0.285   8.493   1.227
57331W        W25725  41.466  36.298   3.686
57332W        W25726   0.921  36.084  12.671
57333W        W25727  44.299   3.546  14.349
57334W        W25728   6.321  10.746   1.450
57335W        W25729  34.009  39.510   3.733
57336W        W25730  28.819   7.817  11.100
57337W        W25731   1.703  20.134  10.667
57338W        W25732  23.491   6.987  14.330
57339W        W25733   4.385   7.940   0.839
57340W        W25734  24.591  38.611   0.354
57341W        W25735  14.576  30.062  11.545
57342W        W25736  38.951  34.501  12.451
57343W        W25737  36.969  24.208  10.631
57344W        W25738  32.134  43.321   2.687
57345W        W25739  24.999  21.260  14.886
57346W        W25740  23.320   0.266  12.870
57347W        W25741   5.175   2.480  10.711
57348W        W25742  11.766  21.827   4.784
57349W        W25743  18.490  20.992  14.224
57350W        W25744  44.536  22.143   2.589
57351W        W25745  22.713  42.020  10.977
57352W        W25746   3.975  27.979  12.109
57353W        W25747  37.351  32.363   4.398
57354W        W25748  14.746  17.270  10.849
57355W        W25749  28.707  11.266  11.995
57356W        W25750  40.333  23.019  13.278
57357W        W25751   1.446  31.988   4.533
57358W        W25752  29.034  40.719  14.791
57359W        W25753  34.619  24.123   1.629
57360W        W25754   3.680   5.176  10.750
57361W        W25755  24.452  14.074  14.878
57362W        W25756  25.735  20.741  12.060
57363W        W25757  34.428  38.188  14.745
57364W        W25758   8.631  12.963   0.341
57365W        W25759   6.458  30.787   4.588
57366W        W25760  20.169  39.252  14.810
57367W        W25761   7.095  11.123   0.923
57368W        W25762  11.683  30.681  10.974
57369W        W25763  19.507  34.054  12.935
57370W        W25764   4.750   7.988  14.829
57371W        W25765  25.024  40.362  12.006
57372W        W25766   3.833  14.537   1.797
57373W        W25767  40.838  37.129   2.373
57374W        W25768  17.136  42.522  12.785
57375W        W25769   2.456  15.746  11.649
57376W        W25770  19.254  25.117  10.346
57377W        W25771  13.546   6.792   3.665
57378W        W25772  29.418  26.631  10.713
57379W        W25773  21.017  23.173  13.564
57380W        W25774  43.526  34.694   0.383
57381W        W25775   0.901  38.863   5.020
57382W        W25776  30.610  27.136  11.002
57383W        W25777  25.049  14.316   2.461
57384W        W25778  41.840  18.201   3.666
57385W        W25779  29.459  27.687   2.348
57386W        W25780  32.187  27.883  11.030
57387W        W25781  31.828   1.377  12.162
57388W        W25782  19.688  41.010   0.080
57389W        W25783  28.410  31.391   0.787
57390W        W25784   5.713   2.823   2.804
57391W        W25785   9.294  42.683   3.590
57392W        W25786  25.595   8.727   0.226
57393W        W25787  17.715   3.764  14.835
57394W        W25788  34.045  27.936  14.746
57395W        W25789  40.132  26.353   5.065
57396W        W25790  18.689  28.024   2.780
57397W        W25791  27.303  27.603   0.568
57398W        W25792  33.125   1.320  11.977
57399W        W25793  29.984  31.835   0.764
57400W        W25794  42.523   3.896   1.716
57401W        W25795  26.654  17.102  11.641
57402W        W25796  25.022   9.470   3.220
57403W        W25797  35.448  27.522   2.822
57404W        W25798  32.937  34.966  13.390
57405W        W25799   4.813   2.513   3.244
57406W        W25800  41.579  35.371  13.351
57407W        W25801  40.914  14.165  13.320
57408W        W25802  25.578   1.053  13.382
57409W        W25803  33.440   9.939   1.263
57410W        W25804   7.278   6.766   3.387
57411W        W25805  27.028  42.952  14.078
57412W        W25806  23.914  10.127   4.922
57413W        W25807  38.265   4.115  13.557
57414W        W25808   8.336   5.974   4.797
57415W        W25809  28.720   4.651  13.598
57416W        W25810  32.480   0.658  14.148
57417W        W25811  32.245  44.824   0.206
57418W        W25812  17.101  22.952   3.226
57419W        W25813  30.227   9.751  11.169
57420W        W25814  27.421   8.431  11.153
57421W        W25815  39.586  35.881   1.814
57422W        W25816  13.026  22.821  10.527
57423W        W25817  40.260  14.060  11.180
57424W        W25818  19.077  43.351   3.673
57425W        W25819  27.485  38.117  12.197
57426W        W25820  34.913  32.105   3.347
57427W        W25821   6.385  36.633  13.553
57428W        W25822   9.244  40.360   4.336
57429W        W25823  38.569  15.724   4.439
57430W        W25824   5.784  34.193   4.932
57431W        W25825  14.090   3.635   1.955
57432W        W25826  20.103  13.995   4.321
57433W        W25827  38.025  17.134   3.903
57434W        W25828  12.674  42.849  13.543
57435W        W25829  39.027   0.721  12.559
57436W        W25830  19.336  18.631   1.393
57437W        W25831  19.433  39.790   4.585
57438W        W25832  41.727  25.370   2.367
57439W        W25833  11.184   0.156  10.440
57440W        W25834   8.042  28.777   2.266
57441W        W25835  12.136  30.443  12.732
57442W        W25836   2.943  28.398   0.962
57443W        W25837  20.228   1.395   1.239
57444W        W25838  40.013  23.952  12.125
57445W        W25839  26.531  35.795  12.556
57446W        W25840  25.069  14.537  14.728
57447W        W25841  19.694  37.881  11.530
57448W        W25842   2.515  38.222   4.110
57449W        W25843  38.277   1.824  14.743
57450W        W25844  42.031  40.927   1.466
57451W        W25845  30.092  35.587  13.466
57452W        W25846  42.420  38.393  12.213
57453W        W25847  25.782  36.772   4.474
57454W        W25848  28.373  10.809  11.659
57455W        W25849  37.768  19.043   3.669
57456W        W25850  24.178  37.354  11.969
57457W        W25851   9.645   9.676  12.485
57458W        W25852  22.981  12.038  10.200
57459W        W25853  14.659  36.585  10.365
57460W        W25854   2.926  39.113   0.368
57461W        W25855  38.303   2.749  12.999
57462W        W25856  34.102  24.818  13.735
57463W        W25857  43.212   9.656   2.158
57464W        W25858  30.647  27.144  12.405
57465W        W25859   3.688   5.154   1.277
57466W        W25860  15.496   6.685   4.067
57467W        W25861  25.191  36.928  14.329
57468W        W25862  35.258  29.155  12.052
57469W        W25863  37.025   2.714  10.538
57470W        W25864  23.247   6.695   1.679
57471W        W25865  34.429   9.133  14.732
57472W        W25866  27.333  16.823  14.277
57473W        W25867  43.235  14.256  10.759
57474W        W25868  28.679   6.874   1.087
57475W        W25869   0.827  30.562  12.638
57476W        W25870   1.629  23.079   1.986
57477W        W25871  10.193   9.071  11.193
57478W        W25872  43.467  38.969  14.843
57479W        W25873  25.099  18.971   4.912
57480W        W25874  11.596  40.876   4.371
57481W        W25875  37.400  34.133   2.453
57482W        W25876  20.317   6.213   1.797
57483W        W25877  12.261  24.046   4.960
57484W        W25878  15.159  10.498  11.201
57485W        W25879  36.394  42.466   2.651
57486W        W25880  12.334  29.459  14.270
57487W        W25881  29.265  36.449  10.655
57488W        W25882  35.182  17.084  14.239
57489W        W25883  30.560  34.985  13.279
57490W        W25884  31.512  35.474   2.896
57491W        W25885  28.575   6.643  13.555
57492W        W25886  11.700  22.576   2.806
57493W        W25887  23.601   8.939   0.521
57494W        W25888  27.527   6.167   1.355
57495W        W25889  22.549  44.001   0.354
57496W        W25890  20.108  13.143   0.026
57497W        W25891  44.353  13.902   3.758
57498W        W25892  17.075  38.448   3.249
57499W        W25893   5.497   7.711   4.639
57500W        W25894  27.026   5.148  11.144
57501W        W25895  35.633   4.625   4.157
57502W        W25896  16.558  10.752  13.382
57503W        W25897  22.110  37.163   1.745
57504W        W25898  31.661  30.989  13.897
57505W        W25899   3.931  12.407   1.672
57506W        W25900  28.545  16.059  10.654
57507W        W25901  36.428   6.304   3.920
57508W        W25902  31.216  10.154  11.997
57509W        W25903  29.940   0.508  13.829
57510W        W25904  40.934   1.448   2.150
57511W        W25905   8.350  11.263  10.706
57512W        W25906  40.446   2.626  12.481
57513W        W25907  15.137   4.293   1.717
57514W        W25908  32.599  30.500   4.594
57515W        W25909  18.903  31.062  10.812
57516W        W25910  34.555   5.510   2.222
57517W        W25911  43.247  27.294  10.797
57518W        W25912  44.541  19.285  14.869
57519W        W25913  32.980  41.775  10.590
57520W        W25914  13.375   7.952   3.634
57521W        W25915  20.467  23.983  13.947
57522W        W25916  33.727  10.804   2.860
57523W        W25917  40.477  24.671  10.755
57524W        W25918   6.404  15.785   2.101
57525W        W25919  42.575  14.133   4.112
57526W        W25920   0.783  27.970   3.729
57527W        W25921  23.748  27.611  12.373
57528W        W25922  35.883  33.507   0.537
57529W        W25923  18.235  17.671   3.595
57530W        W25924  10.200  37.949   2.373
57531W        W25925  17.789  36.421  10.095
57532W        W25926  36.832   4.933   3.814
57533W        W25927   7.703   9.305  10.729
57534W        W25928  40.565   4.657   4.090
57535W        W25929  39.531   8.628  14.569
57536W        W25930   1.606  23.305   4.692
57537W        W25931  17.294  33.259  13.526
57538W        W25932  11.103   2.610  11.624
57539W        W25933  14.409   4.291  11.544
57540W        W25934  10.940  19.205  11.582
57541W        W25935  38.848  31.503   4.430
57542W        W25936  10.749  17.344   2.312
57543W        W25937  31.605  42.430   4.375
57544W        W25938  15.996   0.336   4.388
57545W        W25939  15.093  42.583  11.241
57546W        W25940  20.636  44.309  13.824
57547W        W25941  16.182  24.221  14.598
57548W        W25942  23.532  15.180   1.744
57549W        W25943  13.650  33.502   3.630
57550W        W25944  22.502  21.090   3.616
57551W        W25945   8.145  27.955   4.665
57552W        W25946  14.642  28.223  13.524
57553W        W25947   2.557  31.072   0.779
57554W        W25948   9.346  30.215   2.636
57555W        W25949   3.071  38.037   0.402
57556W        W25950   0.549  15.087   1.439
57557W        W25951  40.392  36.720  13.739
57558W        W25952  29.433  33.019  10.952
57559W        W25953  21.254  19.011  14.513
57560W        W25954  13.344  36.490  12.588
57561W        W25955  12.817  28.755  14.336
57562W        W25956  26.025  18.510   1.280
57563W        W25957  17.434  11.777  12.096
57564W        W25958  44.807   9.808   4.624
57565W        W25959  26.217  17.556   3.311
57566W        W25960   7.150  14.871  10.688
57567W        W25961   1.337   8.124  11.271
57568W        W25962   9.372  32.026   4.592
57569W        W25963  28.271  26.652  11.425
57570W        W25964  39.966  36.389   0.690
57571W        W25965  19.167  40.243   2.730
57572W        W25966   7.313  18.142   4.280
57573W        W25967  41.499  41.277   0.866
57574W        W25968  42.479  38.277  13.182
57575W        W25969  29.436  18.298   0.462
57576W        W25970  21.921  30.998   3.337
57577W        W25971   4.848  34.455  10.229
57578W        W25972  23.525  31.570  11.686
57579W        W25973  26.539  21.272   3.700
57580W        W25974  21.578  25.767  14.861
57581W        W25975   5.675  39.264  12.639
57582W        W25976  36.033  39.661   4.133
57583W        W25977   2.610  24.489   4.461
57584W        W25978  32.482   5.913  11.530
57585W        W25979   9.281   1.767  11.929
57586W        W25980  32.157  12.671   2.978
57587W        W25981  19.026  27.264   2.714
57588W        W25982  31.546   2.794  13.353
57589W        W25983  26.586  40.550   2.226
57590W        W25984  38.808   7.414  13.895
57591W        W25985  41.962  39.608   0.765
57592W        W25986  41.739  24.409   4.152
57593W        W25987   0.748   5.771  13.407
57594W        W25988  19.600  14.838  13.821
57595W        W25989   1.263   0.002  10.777
57596W        W25990  39.796  10.791  10.635
57597W        W25991  39.931  25.660   2.723
57598W        W25992   6.128  11.675  12.638
57599W        W25993   0.802  14.391  10.483
57600W        W25994  31.197  26.120   1.266
57601W        W25995  25.926  27.091  13.925
57602W        W25996  44.434  42.293   1.794
57603W        W25997  44.324  39.752  11.370
57604W        W25998  33.756   1.052   3.694
57605W        W25999  25.010  20.665   0.688
57606W        W26000  14.615   4.553   0.864
57607W        W26001  40.138  21.063   2.850
57608W        W26002  18.780  40.072   1.392
57609W        W26003   9.284  20.102  12.082
57610W        W26004   9.652  10.742   2.270
57611W        W26005  21.654  25.264  14.963
57612W        W26006  14.708  14.138   3.761
57613W        W26007   9.379  39.108   4.709
57614W        W26008  36.437  18.050  13.398
57615W        W26009  21.565  20.528   3.095
57616W        W26010  21.116  10.231   2.608
57617W        W26011  28.585  21.996  12.864
57618W        W26012  44.280  12.831   4.748
57619W        W26013   4.494  17.276   3.205
57620W        W26014  40.781  11.392   3.208
57621W        W26015  19.099   4.006  14.881
57622W        W26016   5.205  37.271  11.974
57623W        W26017   7.170  26.557   2.785
57624W        W26018  42.327  12.259   1.399
57625W        W26019   4.271   9.732  12.814
57626W        W26020  33.224  16.819   2.624
57627W        W26021  43.345  41.608   2.684
57628W        W26022  28.441  22.111  11.406
57629W        W26023  22.229  30.576   3.203
57630W        W26024  35.978  43.986  12.348
57631W        W26025  14.044  40.797   1.224
57632W        W26026  12.829   4.638   3.217
57633W        W26027  40.557  39.367  11.988
57634W        W26028  44.952  19.189   4.745
57635W        W26029  36.897  34.021  10.898
57636W        W26030  44.384  28.101  12.661
57637W        W26031  34.606   6.322   0.013
57638W        W26032  21.183  23.849  14.948
57639W        W26033  25.151  27.561   4.215
57640W        W26034   8.664  37.255  13.908
57641W        W26035   9.870  22.147   1.828
57642W        W26036  16.398   7.736   0.213
57643W        W26037  34.938  13.444   3.619
57644W        W26038  43.559  31.206   1.889
57645W        W26039   6.356   0.473  10.659
57646W        W26040  33.488  27.025  12.058
57647W        W26041  39.127  19.579   2.091
57648W        W26042   7.359  10.154   4.116
57649W        W26043  34.625  34.870   4.619
57650W        W26044  14.107   9.814  12.858
57651W        W26045  39.450   1.443   0.957
57652W        W26046  25.106   1.667   2.735
57653W        W26047  30.968  34.176  13.105
57654W        W26048  16.003  28.715  10.695
57655W        W26049  31.893   4.931  14.621
57656W        W26050   5.037  19.991  14.754
57657W        W26051  33.577  20.174   2.363
57658W        W26052  31.974   7.712   0.005
57659W        W26053  40.530  25.441  13.339
57660W        W26054  33.968  43.034  11.134
57661W        W26055  32.072  11.241  13.580
57662W        W26056  22.511  31.033  11.113
57663W        W26057  29.831  44.478  12.030
57664W        W26058  34.564  34.049   0.796
57665W        W26059  24.762   5.689   0.355
57666W        W26060  37.780  33.992  13.134
57667W        W26061  19.921  11.361  14.972
57668W        W26062   0.082  22.808   3.705
57669W        W26063  15.131   1.813   0.974
57670W        W26064   3.024  27.592   4.630
57671W        W26065  40.239   9.404  12.654
57672W        W26066  14.468  41.288  11.952
57673W        W26067  31.994   1.773   1.330
57674W        W26068  17.003   0.812  11.566
57675W        W26069  37.633   7.446  11.129
57676W        W26070  28.161   8.820   3.830
57677W        W26071   8.403  18.107  14.431
57678W        W26072   3.031  30.510   4.433
57679W        W26073  13.158  44.969  11.351
57680W        W26074  33.376  34.660  11.849
57681W        W26075   4.254   0.911  14.527
57682W        W26076  19.239  27.302  13.933
57683W        W26077  39.234   1.974   0.765
57684W        W26078  33.005   3.390  13.924
57685W        W26079  29.174  32.849  12.513
57686W        W26080   3.838  15.271   1.691
57687W        W26081  13.409  31.973   5.106
57688W        W26082  28.187   1.580  13.057
57689W        W26083  12.191  16.788   2.456
57690W        W26084  29.893  39.608   4.086
57691W        W26085  27.373  41.414  10.869
57692W        W26086  24.519  38.954   4.582
57693W        W26087  42.325  32.103   4.127
57694W        W26088  18.776  26.556   4.283
57695W        W26089   9.394   8.781  10.304
57696W        W26090  10.682  15.205  13.959
57697W        W26091  37.803  39.811  13.831
57698W        W26092  23.461  29.471  11.198
57699W        W26093   4.197  34.490   0.032
57700W        W26094  43.977  16.132  11.550
57701W        W26095  17.170   7.624  12.982
57702W        W26096   2.413   8.811  13.843
57703W        W26097  17.954  12.376   1.401
57704W        W26098  11.860  33.597   1.184
57705W        W26099  12.382  41.896  11.551
57706W        W26100  44.462  44.949  13.165
57707W        W26101  21.661  40.222   0.892
57708W        W26102   7.696  15.084  14.792
57709W        W26103  27.474  23.784   3.637
57710W        W26104  14.846  44.036  13.801
57711W        W26105   1.437  25.095   2.108
57712W        W26106  25.880  23.967   1.197
57713W        W26107   2.217  19.102  13.902
57714W        W26108   0.008  13.266  10.497
57715W        W26109  22.582  39.044  10.779
57716W        W26110  26.456  30.957  14.293
57717W        W26111  44.765   9.808   0.402
57718W        W26112  32.106  25.214   0.180
57719W        W26113  18.470  36.117  11.945
57720W        W26114  20.169  29.896   1.644
57721W        W26115   4.346  30.487   2.574
57722W        W26116  38.363  32.633  14.063
57723W        W26117  28.057  36.409   2.122
57724W        W26118   2.886   0.850  13.508
57725W        W26119   4.188  44.826  11.114
57726W        W26120  28.143  33.919   3.699
57727W        W26121  10.494   1.561   2.230
57728W        W26122   1.272  22.651   4.132
57729W        W26123  29.111  23.662   4.024
57730W        W26124  43.308  10.989  12.627
57731W        W26125  39.482   7.173  12.024
57732W        W26126  29.957  13.343  14.997
57733W        W26127  31.663  39.857   1.226
57734W        W26128  20.167  16.087  13.503
57735W        W26129   7.245  25.562   2.010
57736W        W26130  43.251  27.596  12.447
57737W        W26131  10.304   0.446   4.257
57738W        W26132  22.484   8.670  13.843
57739W        W26133  11.967  17.098  12.459
57740W        W26134   5.888   1.260  13.320
57741W        W26135  20.913   2.261   0.923
57742W        W26136  25.032  41.045  12.351
57743W        W26137  23.536  24.219   4.214
57744W        W26138   6.332  21.087  10.218
57745W        W26139  38.333  33.970   2.004
57746W        W26140  36.469  20.166   0.674
57747W        W26141   6.496  44.380   0.486
57748W        W26142  14.389  29.499  12.593
57749W        W26143  44.022  41.325   0.917
57750W        W26144   9.139  33.480  12.482
57751W        W26145  42.604  17.038   2.327
57752W        W26146  33.089  31.225  13.906
57753W        W26147  43.604  12.514   2.155
57754W        W26148  38.348  44.823  12.499
57755W        W26149  27.077  27.138  14.704
57756W        W26150  18.466  14.481   3.228
57757W        W26151  39.389  38.654  12.335
57758W        W26152  23.304  30.360   2.081
57759W        W26153  30.336  17.625  14.378
57760W        W26154  11.355   9.745   2.179
57761W        W26155  32.325  40.291  14.240
57762W        W26156   3.056   3.295   2.881
57763W        W26157   5.196  10.319  12.191
57764W        W26158  41.944  14.843   0.952
57765W        W26159  21.008  22.087   4.710
57766W        W26160  30.981   8.629  11.211
57767W        W26161   9.469  26.743   3.335
57768W        W26162  25.167  30.911   5.067
57769W        W26163  31.481   6.618  13.827
57770W        W26164  43.742  37.378  12.893
57771W        W26165  25.284  34.989   0.883
57772W        W26166  35.750  37.231   1.380
57773W        W26167  43.773   3.160  10.553
57774W        W26168  22.640  16.163  11.881
57775W        W26169  44.019  25.290   1.423
57776W        W26170  33.981  36.528  13.313
57777W        W26171  17.977  27.631  14.758
57778W        W26172  18.483  19.001  11.722
57779W        W26173  39.486  39.523   3.566
57780W        W26174  18.036  44.789  10.682
57781W        W26175  28.481  30.097   1.419
57782W        W26176  35.947   5.078  14.094
57783W        W26177  31.922   6.455  13.073
57784W        W26178  43.454  11.137   4.579
57785W        W26179  38.069  12.236  11.230
57786W        W26180   4.521   1.137  11.585
57787W        W26181  43.659  17.081   1.638
57788W        W26182  24.127  23.441   0.412
57789W        W26183   4.676  41.561   1.725
57790W        W26184  24.430  21.429  12.904
57791W        W26185   3.987  36.527   2.095
57792W        W26186  44.911  42.522   1.675
57793W        W26187   2.634  18.149  13.798
57794W        W26188  40.252   2.221  11.659
57795W        W26189  27.600  44.856  11.807
57796W        W26190   9.098  14.492   4.073
57797W        W26191  11.806   5.661  11.902
57798W        W26192  10.336  22.559  11.676
57799W        W26193   3.107  24.927  13.064
57800W        W26194   2.948   4.067   3.488
57801W        W26195  22.109  26.587   5.073
57802W        W26196  16.621  22.799  11.195
57803W        W26197  15.879  12.291  11.175
57804W        W26198   2.925  20.232   1.205
57805W        W26199  21.439  14.165   0.945
57806W        W26200  24.058   5.226   3.133
57807W        W26201  43.989  19.188  13.069
57808W        W26202   3.303  37.029   1.234
57809W        W26203   8.957  23.004  12.079
57810W        W26204  22.156   3.424   4.137
57811W        W26205  14.083  36.354   5.043
57812W        W26206  13.275  43.937  10.459
57813W        W26207  21.602  37.300  10.878
57814W        W26208  30.024  17.264  13.621
57815W        W26209   2.482   4.561  10.780
57816W        W26210   0.047  17.594   0.359
57817W        W26211   6.734  17.770   0.162
57818W        W26212   1.460  36.163   0.857
57819W        W26213  28.249  23.756   1.408
57820W        W26214  27.517  42.964   4.592
57821W        W26215   0.784   7.259   2.658
57822W        W26216  18.027   3.338   2.852
57823W        W26217  26.595  23.195  14.553
57824W        W26218  10.338  27.159   4.517
57825W        W26219  15.887  11.527  13.255
57826W        W26220  29.657  24.026   1.453
57827W        W26221   1.237   9.686   0.342
57828W        W26222  27.044   8.678   0.872
57829W        W26223  23.597  29.753   0.312
57830W        W26224   8.756  31.086   0.084
57831W        W26225   3.743  13.844   3.207
57832W        W26226  12.721  38.320  11.225
57833W        W26227  23.770  28.148  13.807
57834W        W26228  21.638   8.587   2.455
57835W        W26229  39.253  13.350  14.483
57836W        W26230  17.790  23.447   0.253
57837W        W26231  40.281  31.167   3.865
57838W        W26232  37.965  14.842  13.143
57839W        W26233   5.266   2.789   3.156
57840W        W26234   9.290  27.510  10.941
57841W        W26235   3.500  37.069   2.239
57842W        W26236  10.912  27.566  12.109
57843W        W26237  19.068  41.683  13.962
57844W        W26238   6.884  23.463   5.479
57845W        W26239  37.748  44.414  12.401
57846W        W26240  25.215  16.203   2.009
57847W        W26241  31.063  34.082  12.495
57848W        W26242   5.075  24.144   2.107
57849W        W26243  24.264  15.649   3.580
57850W        W26244  20.104   3.075  11.055
57851W        W26245  10.503  26.122   0.056
57852W        W26246   2.883  22.309  12.363
57853W        W26247  21.497   8.161   0.325
57854W        W26248  43.462  37.594  14.326
57855W        W26249   3.597  28.115   3.198
57856W        W26250   2.406  37.434  10.547
57857W        W26251  27.927  36.796  12.913
57858W        W26252  24.255  33.478  10.148
57859W        W26253  23.102  29.548   2.832
57860W        W26254  13.279   2.220  11.002
57861W        W26255   3.955  31.474   1.716
57862W        W26256  11.842  43.958  12.534
57863W        W26257   4.360  13.821   2.530
57864W        W26258  43.920  40.795   4.684
57865W        W26259   2.837  36.024  10.422
57866W        W26260  32.624  28.449  10.688
57867W        W26261  38.814  33.153  12.883
57868W        W26262  28.757  42.306  12.859
57869W        W26263   2.777  12.667   3.727
57870W        W26264  13.752  43.049  13.955
57871W        W26265  41.372  27.049  11.204
57872W        W26266   3.692  17.313   3.652
57873W        W26267  16.159   0.054  14.037
57874W        W26268  40.802   4.497   3.661
57875W        W26269  37.585  24.562   1.416
57876W        W26270  39.346  27.823  12.538
57877W        W26271  33.425  39.269   0.861
57878W        W26272   1.752  22.790   2.389
57879W        W26273  25.076  39.608   1.770
57880W        W26274  23.714  31.479  12.645
57881W        W26275  35.976  38.883   2.873
57882W        W26276  20.057  39.454   3.373
57883W        W26277  26.463  14.497  12.494
57884W        W26278  17.785  23.725  12.606
57885W        W26279  31.687  36.280   1.287
57886W        W26280  23.140  26.031   2.738
57887W        W26281  27.070   2.285  12.099
57888W        W26282  12.727  28.583  10.716
57889W        W26283   6.699  43.820  13.791
57890W        W26284  13.530  17.588  10.443
57891W        W26285  30.681  43.429  11.771
57892W        W26286  41.211  31.798   3.495
57893W        W26287   3.025  14.357  13.884
57894W        W26288   3.002  33.132  14.285
57895W        W26289   3.758  11.126   3.804
57896W        W26290  43.875  13.609  11.618
57897W        W26291   2.178   3.185  10.743
57898W        W26292   3.996   5.466   3.157
57899W        W26293   8.859  17.167   0.828
57900W        W26294  22.227  19.512  10.346
57901W        W26295  18.954  41.244  12.659
57902W        W26296  40.259  32.036   1.905
57903W        W26297  40.380  20.217  10.330
57904W        W26298  11.863  42.074   0.285
57905W        W26299  34.604  27.333   2.759
57906W        W26300  14.436   5.307   2.571
57907W        W26301  35.452  33.315   2.339
57908W        W26302   8.421  44.554   1.862
57909W        W26303   8.253  42.002  11.195
57910W        W26304  12.286   1.684   3.076
57911W        W26305  40.831  26.588  11.742
57912W        W26306   6.413  19.231   0.805
57913W        W26307  34.154  19.449  13.322
57914W        W26308  24.778  12.234  11.646
57915W        W26309  22.052  16.287   2.153
57916W        W26310   0.268  44.370  13.368
57917W        W26311   0.251  27.984   0.298
57918W        W26312  38.701   5.658  14.376
57919W        W26313   8.198  12.734   9.906
57920W        W26314   8.671  25.273   2.243
57921W        W26315  33.388  33.961  10.999
57922W        W26316  36.536  30.412  14.305
57923W        W26317  33.565  15.606  13.201
57924W        W26318  16.746  17.742   2.262
57925W        W26319  19.689   2.507   3.994
57926W        W26320  44.415  28.177   4.241
57927W        W26321  26.651  18.174   4.704
57928W        W26322  27.026  44.998   5.419
57929W        W26323  41.453  37.425  13.932
57930W        W26324  43.881   3.261   3.975
57931W        W26325  12.132  41.849  12.907
57932W        W26326  11.798  41.262   1.662
57933W        W26327  36.051   5.169  13.589
57934W        W26328  28.660  42.505   3.616
57935W        W26329   2.261  33.133  11.565
57936W        W26330  37.355  41.790   3.697
57937W        W26331  42.776  28.077  14.869
57938W        W26332  12.323  42.530  14.705
57939W        W26333  10.369   3.350  14.731
57940W        W26334  18.576  27.089   0.973
57941W        W26335  30.779  30.415   1.261
57942W        W26336   0.389   5.360  13.362
57943W        W26337  37.787  42.242   2.774
57944W        W26338  38.304   1.036   0.364
57945W        W26339   3.310  19.576  10.331
57946W        W26340   4.670   7.096   3.852
57947W        W26341  26.877  16.875  13.509
57948W        W26342  28.463  26.638   4.166
57949W        W26343  44.026  40.381   4.969
57950W        W26344  26.684  16.230  12.555
57951W        W26345  13.169  41.795  11.970
57952W        W26346  31.134  33.995   4.144
57953W        W26347  31.436  39.466  13.057
57954W        W26348   7.131  41.523   1.856
57955W        W26349   5.420   2.375   2.865
57956W        W26350   2.260  38.812   2.171
57957W        W26351   7.986  32.073   1.634
57958W        W26352  19.291   2.316   2.283
57959W        W26353   7.919  41.700  14.580
57960W        W26354  15.421  20.107  12.931
57961W        W26355   4.272  10.252   3.090
57962W        W26356   4.842  34.915   1.180
57963W        W26357  22.360  37.638   1.714
57964W        W26358  18.709   0.001  14.952
57965W        W26359  33.314  42.257   3.664
57966W        W26360  11.781  43.743  13.359
57967W        W26361  18.184  28.372  12.363
57968W        W26362  19.079  15.869   1.445
57969W        W26363  11.836  27.384   2.850
57970W        W26364  26.106   4.639  12.744
57971W        W26365  26.441  34.651  11.338
57972W        W26366  20.188  19.302   3.858
57973W        W26367   1.885  22.929  11.637
57974W        W26368  30.618  35.439  13.515
57975W        W26369  43.058  27.049  13.518
57976W        W26370  41.557   5.352   2.946
57977W        W26371  32.943  30.416   2.380
57978W        W26372  11.667  38.019  14.100
57979W        W26373  15.968   8.457  14.027
57980W        W26374  19.587   7.089   0.568
57981W        W26375  35.805   3.116   4.345
57982W        W26376  24.446  40.761   1.924
57983W        W26377  37.507   6.994  14.429
57984W        W26378  18.958  20.140  12.960
57985W        W26379  29.038  40.363   0.681
57986W        W26380  30.933  12.904   2.534
57987W        W26381  17.442  23.066   0.975
57988W        W26382   2.669   6.752  11.394
57989W        W26383  31.079  15.079  11.941
57990W        W26384   9.304  36.721   3.696
57991W        W26385  34.702  25.898  11.230
57992W        W26386  39.370  24.275  10.940
57993W        W26387  19.461   2.894   3.732
57994W        W26388  23.261  24.052   3.631
57995W        W26389  28.845  32.890  11.688
57996W        W26390  23.605  31.106   2.377
57997W        W26391   5.349  18.308  12.651
57998W        W26392  16.410   0.377   2.889
57999W        W26393  12.212  23.630  14.916
58000W        W26394  13.254   3.882  12.969
58001W        W26395  20.353  14.115   2.740
58002W        W26396  28.044   3.150   3.268
58003W        W26397  42.392  28.336   1.816
58004W        W26398  39.703  12.684  12.581
58005W        W26399  14.209  37.128   1.909
58006W        W26400  29.674  42.521   2.346
58007W        W26401  37.081  40.257  14.924
58008W        W26402  15.722  44.463   1.774
58009W        W26403  33.685  42.974   4.145
58010W        W26404  10.288   7.623   1.686
58011W        W26405  37.528  27.076   3.727
58012W        W26406   0.514  13.108   4.139
58013W        W26407  36.024  24.255   4.722
58014W        W26408  21.550  42.314  13.547
58015W        W26409  35.965  22.477   0.951
58016W        W26410  37.574   4.968  10.599
58017W        W26411  21.358  32.961   2.566
58018W        W26412   2.988  35.566  14.442
58019W        W26413  15.534  31.954   2.740
58020W        W26414  43.370  22.899  10.357
58021W        W26415  33.814  11.931   3.510
58022W        W26416   9.233  28.477  10.854
58023W        W26417  15.320   9.823   4.518
58024W        W26418   7.743  39.087  13.858
58025W        W26419  26.910  35.401  11.956
58026W        W26420   7.698  14.362   1.285
58027W        W26421  28.231   5.839  11.415
58028W        W26422   3.724  26.054   1.343
58029W        W26423  33.148   4.387  11.624
58030W        W26424  10.448  21.750   4.234
58031W        W26425   9.635  38.235   3.719
58032W        W26426  18.008  20.543   1.477
58033W        W26427  35.489   2.965   4.748
58034W        W26428  43.889  35.865   4.449
58035W        W26429  40.183  42.515  13.029
58036W        W26430  32.435   8.095  12.929
58037W        W26431   9.620  13.234  10.931
58038W        W26432  30.134  22.720   3.184
58039W        W26433  38.849  14.335  11.076
58040W        W26434   0.020   0.549   1.728
58041W        W26435  39.456  12.321   1.861
58042W        W26436   3.761  28.998  12.965
58043W        W26437   0.030   6.257  13.057
58044W        W26438  24.756  20.542   3.720
58045W        W26439   1.161  32.439   4.397
58046W        W26440  16.335   9.173   4.083
58047W        W26441  10.946  13.834   2.529
58048W        W26442  37.862  31.146   3.442
58049W        W26443  38.069  23.221   3.095
58050W        W26444  18.914  33.343   1.681
58051W        W26445  26.577  26.498   4.637
58052W        W26446   9.308  11.394   1.724
58053W        W26447  36.862  12.051   2.478
58054W        W26448  18.600  18.627   4.378
58055W        W26449  30.191  11.625  13.747
58056W        W26450  19.645  40.087   2.878
58057W        W26451  28.548   8.738   2.486
58058W        W26452  15.296   2.414   4.660
58059W        W26453  12.955   1.950   0.164
58060W        W26454  34.123   7.805  11.215
58061W        W26455  12.835  17.793   1.208
58062W        W26456  14.905  39.819   2.779
58063W        W26457  44.477  31.549   0.354
58064W        W26458  16.589  16.077  14.681
58065W        W26459   0.785  25.091  10.909
58066W        W26460  17.735   7.791  12.950
58067W        W26461  31.492  38.955  12.981
58068W        W26462  35.707  30.199  14.420
58069W        W26463  10.738   8.302   2.235
58070W        W26464   8.600  29.843   0.421
58071W        W26465  26.285  23.584   0.901
58072W        W26466  16.785  33.255   2.673
58073W        W26467  40.972  36.106   3.573
58074W        W26468  27.491   3.615   0.360
58075W        W26469  42.496  43.374   1.116
58076W        W26470  30.531  33.580   3.697
58077W        W26471  10.197  11.894   1.712
58078W        W26472   6.013  36.618  11.833
58079W        W26473  36.890  31.690   1.393
58080W        W26474  28.887   9.918  10.666
58081W        W26475  14.280  18.109   4.154
58082W        W26476  26.250  29.212  14.841
58083W        W26477   9.699  25.301  14.771
58084W        W26478  37.382  27.505   0.768
58085W        W26479  31.375  36.317  14.555
58086W        W26480  14.825  32.440  13.868
58087W        W26481  11.663  38.055  11.910
58088W        W26482   7.706  14.674   0.878
58089W        W26483  13.170  18.313   3.805
58090W        W26484  25.163   8.882  13.386
58091W        W26485   7.898   6.415   1.859
58092W        W26486   3.746  42.493   0.350
58093W        W26487  28.053  20.293   1.813
58094W        W26488  27.145  41.446   2.428
58095W        W26489  19.006  34.889  14.015
58096W        W26490   0.405  15.293  12.928
58097W        W26491  41.795  42.540   2.660
58098W        W26492  24.187   6.909   4.100
58099W        W26493  18.639  41.036  13.550
58100W        W26494  38.860   0.029   0.181
58101W        W26495   3.184  31.702  13.509
58102W        W26496  29.129   1.980   3.396
58103W        W26497  26.473  29.980  11.832
58104W        W26498  27.383   7.893  11.161
58105W        W26499  15.038  39.644  13.017
58106W        W26500  35.013  11.512  11.186
58107W        W26501  31.150  10.746   1.828
58108W        W26502  32.542  28.001   3.191
58109W        W26503  37.386  30.538  13.074
58110W        W26504  22.573   8.666   3.987
58111W        W26505  10.271   2.699   3.672
58112W        W26506  12.071  23.281  14.559
58113W        W26507  37.320  40.406  14.438
58114W        W26508   6.148  13.244  11.721
58115W        W26509  26.754   3.089  14.913
58116W        W26510  20.449  14.372   9.976
58117W        W26511   1.913  27.625  11.154
58118W        W26512  43.093   3.974   4.771
58119W        W26513   4.217  24.468  14.524
58120W        W26514  30.324  29.011  11.373
58121W        W26515  26.923  18.280  12.078
58122W        W26516   6.229  21.730  11.420
58123W        W26517   5.351  28.222   3.562
58124W        W26518  31.598  33.412   2.808
58125W        W26519   7.621  35.627  14.014
58126W        W26520  21.045  27.960   0.320
58127W        W26521  42.951   4.467  14.478
58128W        W26522  26.590  36.019   1.648
58129W        W26523   3.835  21.983  13.856
58130W        W26524   4.823  10.253  13.558
58131W        W26525  40.441  20.106   3.933
58132W        W26526   0.829  10.640   0.202
58133W        W26527  10.749   7.814  10.570
58134W        W26528  27.088  13.596   4.867
58135W        W26529  38.468   2.293   1.779
58136W        W26530  40.919  21.940   3.142
58137W        W26531  41.954   2.477   3.902
58138W        W26532   7.391  39.927   4.194
58139W        W26533  25.655   7.363  12.396
58140W        W26534  43.105   3.533  10.062
58141W        W26535   0.278  33.862   2.155
58142W        W26536  27.453  19.245   3.563
58143W        W26537  19.450  32.994  13.922
58144W        W26538  12.707  24.601  13.100
58145W        W26539  18.484   7.895   2.707
58146W        W26540  34.117  21.618   2.216
58147W        W26541  25.760  41.300   3.796
58148W        W26542  21.937  34.125   2.810
58149W        W26543   4.739   7.212   0.452
58150W        W26544   7.218   1.728   2.564
58151W        W26545   3.269  39.031  14.944
58152W        W26546  21.917  19.669  14.635
58153W        W26547   6.768  21.508   2.720
58154W        W26548  35.626  41.866   2.636
58155W        W26549  24.153  30.357  11.079
58156W        W26550  30.766  39.837   0.473
58157W        W26551  27.923  36.344  12.564
58158W        W26552  36.466  37.596   5.019
58159W        W26553   7.156  36.611   1.738
58160W        W26554  18.312  11.930  14.405
58161W        W26555  36.027  28.872  10.750
58162W        W26556  19.518  27.080   2.705
58163W        W26557  33.356  21.134   1.656
58164W        W26558  27.696  36.734  13.402
58165W        W26559  44.935  44.725   4.266
58166W        W26560  15.248  33.946   4.849
58167W        W26561  19.487   1.882  14.785
58168W        W26562  27.062  27.603  14.461
58169W        W26563  21.531  17.092   4.550
58170W        W26564   4.807   9.174   2.388
58171W        W26565  42.979  12.589  11.062
58172W        W26566  18.299   9.635   2.247
58173W        W26567  28.547  34.555  11.630
58174W        W26568  43.987   9.237  12.490
58175W        W26569   6.870  22.027   2.774
58176W        W26570  40.411  13.211  12.610
58177W        W26571  31.444  16.067  12.435
58178W        W26572  18.640  26.116   4.568
58179W        W26573  15.824   9.233   4.146
58180W        W26574  29.736  31.418   0.279
58181W        W26575  42.936  38.279   2.335
58182W        W26576  36.007  28.549  14.485
58183W        W26577   0.623  25.271   3.169
58184W        W26578  41.264  39.677  14.470
58185W        W26579  26.286  15.282   2.821
58186W        W26580  34.538   7.672   4.558
58187W        W26581  19.276   4.219   1.497
58188W        W26582  38.370  21.711  12.981
58189W        W26583  32.554  17.314  14.418
58190W        W26584  38.804  40.845  11.613
58191W        W26585  33.069  24.136  14.408
58192W        W26586   7.687   4.407  12.894
58193W        W26587  19.302  18.194  13.061
58194W        W26588  33.606  39.056  11.230
58195W        W26589  31.110  23.540   4.593
58196W        W26590  38.465   3.848  14.840
58197W        W26591   0.877   2.445  14.486
58198W        W26592  44.010  22.390   4.498
58199W        W26593  39.869  42.520   2.789
58200W        W26594   4.833  38.644  11.214
58201W        W26595   4.442  18.186  11.030
58202W        W26596  29.528  32.274   1.787
58203W        W26597  43.447  23.005  14.862
58204W        W26598  37.014  17.856  12.416
58205W        W26599  25.658  25.052  14.272
58206W        W26600  37.772  24.994  11.536
58207W        W26601  31.692  11.986   1.770
58208W        W26602  31.308  26.947  14.043
58209W        W26603  33.288  29.935   1.156
58210W        W26604   3.624  30.077   2.135
58211W        W26605   3.385  30.073  12.965
58212W        W26606  10.760  23.756   2.488
58213W        W26607  21.393  27.396  12.518
58214W        W26608  31.150  36.160  10.619
58215W        W26609  36.899  37.481   1.949
58216W        W26610  22.178  32.647   2.905
58217W        W26611  26.102   9.862   5.141
58218W        W26612  40.861  32.592  10.756
58219W        W26613  34.899  20.236  14.384
58220W        W26614  41.958  40.015   4.330
58221W        W26615   6.656  16.410  10.314
58222W        W26616   5.801  12.935  12.005
58223W        W26617  19.990   4.233   0.442
58224W        W26618  15.318  16.754   1.328
58225W        W26619  41.333  31.944  14.903
58226W        W26620  38.002  44.372  14.865
58227W        W26621  18.955  37.945  14.469
58228W        W26622  19.771  23.233  12.875
58229W        W26623  16.319  36.587   0.903
58230W        W26624   4.562  24.021   2.123
58231W        W26625  20.549  33.078  12.850
58232W        W26626  15.915   6.270   2.722
58233W        W26627  32.833  27.420  12.882
58234W        W26628   6.706  27.759  11.063
58235W        W26629  35.406  30.419   4.042
58236W        W26630   7.857  12.095   2.866
58237W        W26631  32.564  25.011  11.577
58238W        W26632   7.575  22.924   4.162
58239W        W26633  23.493  17.582   4.355
58240W        W26634  34.101  16.617   2.301
58241W        W26635   3.329  43.957  14.108
58242W        W26636  20.647  36.311  12.516
58243W        W26637  41.910  13.927   3.297
58244W        W26638  21.687  24.690   0.925
58245W        W26639  23.101  18.624   3.851
58246W        W26640  25.613  30.150  12.577
58247W        W26641  15.023  21.918   0.503
58248W        W26642   5.700  44.919  13.613
58249W        W26643   6.453  44.171   1.896
58250W        W26644  39.606  24.921   2.558
58251W        W26645  15.814  44.425   5.223
58252W        W26646  15.269   3.293   3.601
58253W        W26647   1.667  11.078  13.991
58254W        W26648  13.067   6.435  12.162
58255W        W26649  22.507  39.632  13.630
58256W        W26650  40.917  14.109   4.220
58257W        W26651  25.674  44.753  12.917
58258W        W26652  38.050  12.624  13.405
58259W        W26653  44.339  29.770   3.229
58260W        W26654  26.662  13.968   2.741
58261W        W26655   4.476  42.524  13.990
58262W        W26656  22.644  11.756  14.324
58263W        W26657  29.486  33.424  13.660
58264W        W26658  33.559  13.686   0.035
58265W        W26659   7.978  12.674   3.641
58266W        W26660  37.112  11.188  10.540
58267W        W26661  14.126  22.248   2.253
58268W        W26662   6.470  38.518  11.974
58269W        W26663  44.896   5.650   3.474
58270W        W26664  40.743   9.669   3.146
58271W        W26665  11.861  16.189   3.205
58272W        W26666  42.258  12.580   0.078
58273W        W26667  44.858  29.403  11.479
58274W        W26668  38.947  16.551   0.795
58275W        W26669  22.254  38.371  12.569
58276W        W26670  35.400  41.687  14.676
58277W        W26671  20.734   3.083   0.415
58278W        W26672   7.288   4.467   0.313
58279W        W26673   8.207  18.126   3.751
58280W        W26674  38.376   5.258   2.984
58281W        W26675  10.200   5.484  10.502
58282W        W26676   5.370  23.901  13.763
58283W        W26677  31.957  33.356   0.948
58284W        W26678   3.168  36.620   2.346
58285W        W26679  34.107  13.275   1.660
58286W        W26680   8.652  33.059  13.753
58287W        W26681   3.313   4.237  12.668
58288W        W26682   0.771  40.968   1.216
58289W        W26683  24.595  27.525  12.164
58290W        W26684  20.236  20.728  13.981
58291W        W26685  33.408  11.295  13.951
58292W        W26686  37.781   7.862   1.278
58293W        W26687  10.748  33.936   3.413
58294W        W26688  10.087  41.541  14.320
58295W        W26689   2.191  12.103   4.120
58296W        W26690   9.360  34.400   4.417
58297W        W26691  17.946  43.419   0.711
58298W        W26692   1.020  14.066   2.407
58299W        W26693  13.727  21.661  13.416
58300W        W26694  21.975  14.204   2.362
58301W        W26695  27.714  16.370   3.621
58302W        W26696   0.482  21.427   4.378
58303W        W26697  10.294  34.311   2.295
58304W        W26698  10.921  31.585  14.716
58305W        W26699  38.109  31.174  14.832
58306W        W26700  31.645  28.940  11.161
58307W        W26701  27.121  14.152  14.777
58308W        W26702   4.880   6.376   4.240
58309W        W26703  12.651  43.208   0.396
58310W        W26704  31.349  25.226  14.807
58311W        W26705  11.640  42.063  12.893
58312W        W26706  35.571  37.629   3.566
58313W        W26707  23.708  44.263   0.965
58314W        W26708  39.561  14.629   1.772
58315W        W26709  31.470  29.591  14.840
58316W        W26710  21.186   5.706  10.488
58317W        W26711  16.798  33.637  14.912
58318W        W26712   8.806  35.176   3.700
58319W        W26713  24.201  33.959   2.133
58320W        W26714  24.614   8.735   2.788
58321W        W26715  35.972  43.523  14.375
58322W        W26716  19.522  37.324  14.414
58323W        W26717  23.439  41.570   0.361
58324W        W26718  15.103   0.338  14.245
58325W        W26719  16.800  33.013  10.482
58326W        W26720  26.557  39.572  11.922
58327W        W26721  19.377  12.895   2.715
58328W        W26722  39.107  23.408  11.657
58329W        W26723  43.502  36.074   2.742
58330W        W26724  35.264  17.681  11.668
58331W        W26725  27.994  37.560   0.630
58332W        W26726  14.361  37.732  13.312
58333W        W26727  35.615   4.463  13.133
58334W        W26728  25.698  35.146   4.474
58335W        W26729  32.023  34.937   2.275
58336W        W26730   3.787  16.003  14.385
58337W        W26731  33.511  28.966  10.666
58338W        W26732  41.325  32.236   3.268
58339W        W26733   9.835  20.653  12.363
58340W        W26734  26.432  28.823   4.036
58341W        W26735  40.483  19.729   2.609
58342W        W26736  16.262  23.012  14.438
58343W        W26737  33.745   9.625  10.736
58344W        W26738   6.489  11.574  14.401
58345W        W26739  22.736  26.596   0.750
58346W        W26740  13.406   5.262   2.220
58347W        W26741  29.180   2.855  11.504
58348W        W26742  14.276  38.585   3.827
58349W        W26743  26.500  15.601  13.140
58350W        W26744  31.813  23.094  13.884
58351W        W26745  39.534  44.259   1.010
58352W        W26746  34.862  33.922  11.901
58353W        W26747  21.246   5.254   3.653
58354W        W26748  42.793  27.922   0.830
58355W        W26749  20.571   1.040  12.033
58356W        W26750  25.485  10.848  12.467
58357W        W26751   3.474  19.551  12.885
58358W        W26752  15.635  36.631  12.382
58359W        W26753  35.975  15.529  10.895
58360W        W26754  41.642  33.994   2.203
58361W        W26755   5.529  11.615  12.120
58362W        W26756   6.720  41.489  12.418
58363W        W26757  13.517  15.286  14.847
58364W        W26758  32.254  11.319  13.112
58365W        W26759  31.156  35.941   9.826
58366W        W26760  36.930  14.812   3.046
58367W        W26761  11.323  43.312  12.095
58368W        W26762  13.612   8.150  13.750
58369W        W26763  32.698  29.814  12.202
58370W        W26764  43.848  36.265  14.359
58371W        W26765  43.048  10.104   1.313
58372W        W26766  15.339   7.980   4.569
58373W        W26767  37.296   9.266   3.014
58374W        W26768  37.462  14.358  12.413
58375W        W26769  21.000  39.031   3.222
58376W        W26770  39.698   9.722  14.454
58377W        W26771  15.856  42.968   1.816
58378W        W26772  30.245  36.082   1.314
58379W        W26773  25.123  28.634   0.849
58380W        W26774   0.782  18.219  10.297
58381W        W26775   3.370  10.221  10.301
58382W        W26776  24.067  27.644   1.418
58383W        W26777   2.741  21.783  10.708
58384W        W26778   5.333  39.956   4.163
58385W        W26779  17.589  43.864  10.907
58386W        W26780  19.555  22.071  10.417
58387W        W26781   1.870  41.197  13.952
58388W        W26782  40.967  14.399   2.416
58389W        W26783  23.076  39.020  10.904
58390W        W26784  40.279  17.352  12.412
58391W        W26785  26.533   3.746   1.848
58392W        W26786  20.155  16.208  10.076
58393W        W26787  36.317  28.043  11.255
58394W        W26788  40.016  25.988   3.857
58395W        W26789  13.640  34.477  13.432
58396W        W26790  41.087  32.382   4.760
58397W        W26791  12.336  14.035  13.494
58398W        W26792  42.486  11.149   0.997
58399W        W26793  32.788  19.598   1.279
58400W        W26794  26.958  10.431   3.159
58401W        W26795  28.077   1.411  14.937
58402W        W26796   3.207  39.804  11.621
58403W        W26797  16.248   6.744   3.544
58404W        W26798  28.565  21.538  12.527
58405W        W26799  16.855   5.167  10.473
58406W        W26800  12.636  13.685  12.587
58407W        W26801  36.528  25.683   3.634
58408W        W26802  24.105   7.243   2.055
58409W        W26803  16.004  16.287   2.919
58410W        W26804   4.160  33.425   1.577
58411W        W26805  23.335   4.796   4.164
58412W        W26806   0.737  38.231  14.596
58413W        W26807  44.624  13.558   4.100
58414W        W26808  34.501  41.661  12.282
58415W        W26809  32.212  31.615  12.008
58416W        W26810   6.515  12.348   5.121
58417W        W26811   0.925  28.456   0.608
58418W        W26812  14.128  26.776   1.611
58419W        W26813  40.995  18.014  14.862
58420W        W26814  28.991  29.260   0.824
58421W        W26815  21.095  30.643   4.392
58422W        W26816   1.498   4.926  14.874
58423W        W26817  29.723  34.444  13.464
58424W        W26818  44.416  30.361   3.662
58425W        W26819  22.299  13.648   4.267
58426W        W26820  43.415  33.367   1.314
58427W        W26821  28.991  37.939   3.636
58428W        W26822  42.879  14.611   4.162
58429W        W26823  11.812   3.173   0.311
58430W        W26824  30.563   0.506  10.866
58431W        W26825  38.928  35.482   3.848
58432W        W26826  38.004  18.229   2.349
58433W        W26827  20.748  17.712  10.728
58434W        W26828   4.544  14.850  13.866
58435W        W26829  18.020   1.506   0.443
58436W        W26830  18.206   7.214   0.488
58437W        W26831  20.647  15.062   3.286
58438W        W26832  17.398   0.835  13.094
58439W        W26833   0.430   5.890   2.889
58440W        W26834  16.880  39.919   2.026
58441W        W26835   6.899  38.365   4.010
58442W        W26836  41.339  18.278  10.776
58443W        W26837  10.492  15.122  11.725
58444W        W26838  27.197  28.937   0.244
58445W        W26839  25.998   5.780  14.446
58446W        W26840  21.167   7.500  13.393
58447W        W26841  27.997  31.072   2.366
58448W        W26842  31.463  33.817  12.687
58449W        W26843  13.223   6.288  12.629
58450W        W26844  36.593  36.803  11.181
58451W        W26845  33.550  14.288   1.275
58452W        W26846  13.231  36.934  10.956
58453W        W26847  13.724  19.126  10.729
58454W        W26848  25.089  38.052  12.426
58455W        W26849  17.177  11.358  14.423
58456W        W26850  30.376  38.762   5.007
58457W        W26851  43.208  31.133   3.614
58458W        W26852  21.744  29.672  13.903
58459W        W26853   3.041   2.502  12.519
58460W        W26854  10.888  43.734   1.361
58461W        W26855  42.998   1.393   0.206
58462W        W26856  25.131  26.690   2.398
58463W        W26857  16.645  27.328   0.240
58464W        W26858   6.923  36.505   2.443
58465W        W26859  41.214  44.701   4.707
58466W        W26860   7.574  41.526   0.982
58467W        W26861  34.882  26.564  10.689
58468W        W26862   9.186  18.147  12.487
58469W        W26863  37.440  28.209  13.841
58470W        W26864  22.968  39.949   1.224
58471W        W26865  43.249  25.156  13.498
58472W        W26866  40.487  18.305  10.640
58473W        W26867  30.077  35.382  14.879
58474W        W26868  41.350   5.002  11.932
58475W        W26869   3.418   2.772  10.700
58476W        W26870   7.202  20.576  14.476
58477W        W26871  15.940  36.838   4.302
58478W        W26872  13.735  33.088   3.309
58479W        W26873  22.277  17.210   4.942
58480W        W26874  33.912  16.885   0.536
58481W        W26875  18.660   3.239   4.650
58482W        W26876  25.389   3.261  10.507
58483W        W26877  37.357  33.675   3.777
58484W        W26878  36.918  44.296  10.639
58485W        W26879  16.645  37.449  12.450
58486W        W26880  43.604  24.174  11.191
58487W        W26881   8.202  31.416  11.488
58488W        W26882  32.530  41.331   4.804
58489W        W26883  44.415  31.463   1.320
58490W        W26884  27.619   9.849   1.734
58491W        W26885   0.427  42.795   1.928
58492W        W26886  35.545   5.618   0.447
58493W        W26887  37.852  17.320   1.370
58494W        W26888   4.163  34.091  14.706
58495W        W26889  18.321   7.415   2.469
58496W        W26890  21.102  30.252  14.286
58497W        W26891   4.235  14.332  11.246
58498W        W26892  38.568   7.334  11.064
58499W        W26893  16.277  12.385  12.457
58500W        W26894  30.948  38.293   1.767
58501W        W26895  16.554  16.576   4.205
58502W        W26896  20.291  30.637  11.991
58503W        W26897   1.313   0.925   4.523
58504W        W26898  17.613  43.814  12.594
58505W        W26899  28.176  34.121  12.049
58506W        W26900  44.886  20.100   2.677
58507W        W26901   2.742   7.627   2.272
58508W        W26902   1.523   3.984  13.231
58509W        W26903  40.706  15.180   1.736
58510W        W26904  30.183  10.172   0.707
58511W        W26905  43.691   6.356   0.293
58512W        W26906  20.003  38.475   0.946
58513W        W26907  12.885  22.179   1.695
58514W        W26908  12.596   6.653  11.132
58515W        W26909  26.096  30.073  10.579
58516W        W26910   1.863  22.238  12.543
58517W        W26911  19.296  18.305   3.324
58518W        W26912  17.039   6.805   0.912
58519W        W26913   4.220   7.944   2.391
58520W        W26914  32.529  32.605   1.897
58521W        W26915   1.217  21.722   0.343
58522W        W26916   4.381  26.021   2.315
58523W        W26917  31.417  21.672  11.820
58524W        W26918  42.391  29.975   1.310
58525W        W26919  26.345  17.731  12.647
58526W        W26920  16.490   7.708  14.364
58527W        W26921  10.389   8.701   4.258
58528W        W26922  10.757   5.050   3.096
58529W        W26923  42.079   6.222   3.144
58530W        W26924   5.723   2.191  12.852
58531W        W26925  24.996  22.517   0.424
58532W        W26926  39.279  20.530   1.313
58533W        W26927  26.509  41.891   2.775
58534W        W26928  23.674  31.076  12.981
58535W        W26929  13.814   8.183  11.869
58536W        W26930  19.013  31.531   2.434
58537W        W26931   0.380   6.877   1.876
58538W        W26932  26.179  33.965  10.577
58539W        W26933  43.776  31.969   3.227
58540W        W26934  11.662  42.059  12.018
58541W        W26935   7.135   9.674   0.709
58542W        W26936  13.786  40.985  10.651
58543W        W26937  42.531  38.090  13.649
58544W        W26938   9.679  19.030   1.793
58545W        W26939   1.249  28.345  12.287
58546W        W26940   4.538  15.162   4.576
58547W        W26941  25.918  41.473  11.110
58548W        W26942  39.290   7.209  12.568
58549W        W26943  40.190  15.651  10.031
58550W        W26944  39.473  42.491  10.779
58551W        W26945  30.176   3.591  11.092
58552W        W26946  26.261  21.238   3.277
58553W        W26947  18.676  25.982  10.306
58554W        W26948  38.685  31.496   3.158
58555W        W26949  33.430   1.340  11.547
58556W        W26950  36.991   7.783   3.861
58557W        W26951  25.435  29.181  13.310
58558W        W26952  35.251   5.265   2.862
58559W        W26953  20.556   7.463   4.300
58560W        W26954  24.181  37.858  12.853
58561W        W26955  32.516  14.312   4.472
58562W        W26956  29.876  17.048   4.205
58563W        W26957   7.426  34.657  12.109
58564W        W26958  10.667  44.349   2.383
58565W        W26959  44.830   4.651  13.262
58566W        W26960  38.420  22.065   2.457
58567W        W26961   8.723   2.836   2.640
58568W        W26962  20.669   0.062  14.535
58569W        W26963  18.567  39.827  11.484
58570W        W26964   1.356  41.339   0.167
58571W        W26965  38.006  24.717   4.890
58572W        W26966  15.197  35.315  10.744
58573W        W26967   6.369  38.128   2.059
58574W        W26968  10.577  31.084  12.543
58575W        W26969   5.317  30.916   4.522
58576W        W26970   0.480  30.905   2.370
58577W        W26971   5.316   0.513   4.222
58578W        W26972  18.223  41.603   2.232
58579W        W26973  12.994   5.430  13.162
58580W        W26974  29.603  11.640  14.848
58581W        W26975   3.008  36.428   1.910
58582W        W26976  21.271  39.870  11.763
58583W        W26977  39.873  32.451  13.757
58584W        W26978  23.649  12.691  11.186
58585W        W26979  22.364   0.565  10.417
58586W        W26980  40.014   3.208  10.550
58587W        W26981  21.123  34.570   0.865
58588W        W26982  35.658  40.512   1.955
58589W        W26983   5.452  15.323  12.208
58590W        W26984  14.352  13.181   4.466
58591W        W26985  28.160  35.879   3.896
58592W        W26986   8.815   7.292   3.293
58593W        W26987  37.834   7.172   4.690
58594W        W26988  29.172  11.411  11.658
58595W        W26989   4.386  32.017  14.328
58596W        W26990  21.591  19.660   4.839
58597W        W26991   7.127  14.337   2.802
58598W        W26992  40.145  27.197  14.494
58599W        W26993  28.668  25.605   2.800
58600W        W26994  32.890  23.182   4.704
58601W        W26995  41.953  25.559   1.912
58602W        W26996  24.092  28.926  13.411
58603W        W26997   6.959  41.876  13.883
58604W        W26998   4.681   8.353   3.675
58605W        W26999   9.246  31.678   4.959
58606W        W27000   8.674  12.736  12.166
58607W        W27001   5.175  33.439  11.173
58608W        W27002  13.689  32.102  13.756
58609W        W27003   5.484  15.759   2.638
58610W        W27004   9.216  15.156   4.624
58611W        W27005   3.169  12.681  10.665
58612W        W27006  24.582  16.681  14.351
58613W        W27007   1.216   6.615  14.410
58614W        W27008  41.981  40.364  10.462
58615W        W27009  32.696  39.235   3.654
58616W        W27010  30.837   8.879   0.842
58617W        W27011  13.077   6.439   9.830
58618W        W27012  20.934  30.748  14.908
58619W        W27013  44.458  29.119  12.054
58620W        W27014  29.850   2.899   4.662
58621W        W27015  23.560  16.840   3.240
58622W        W27016  19.282  42.799  13.530
58623W        W27017  18.783  11.632  12.955
58624W        W27018  40.399   8.106  14.354
58625W        W27019  15.823  41.923  14.408
58626W        W27020   5.810  32.139   0.749
58627W        W27021  13.710  37.552   0.634
58628W        W27022   2.308  16.535   1.910
58629W        W27023  17.925  11.831  12.134
58630W        W27024  40.419  30.100   2.659
58631W        W27025  36.863  12.217   1.997
58632W        W27026  16.562   4.526   4.193
58633W        W27027  22.788  29.410   1.823
58634W        W27028  23.331   5.954  13.035
58635W        W27029  35.605   2.038   2.227
58636W        W27030  12.938   7.926   2.394
58637W        W27031  19.301  37.795   1.291
58638W        W27032  42.810  31.855   4.109
58639W        W27033   4.357  33.135  11.530
58640W        W27034   8.210  17.649   3.918
58641W        W27035  30.570  35.376  12.136
58642W        W27036  43.339  25.412  11.303
58643W        W27037  28.899  35.642  12.024
58644W        W27038  28.131   5.849  14.794
58645W        W27039  19.954  29.579   4.279
58646W        W27040  35.605  16.255   2.382
58647W        W27041  14.551  21.123  11.725
58648W        W27042  44.736  32.953  11.130
58649W        W27043   3.611  26.261  12.956
58650W        W27044  25.251  10.322  13.366
58651W        W27045   8.176  39.118  14.149
58652W        W27046  27.471   7.844   4.242
58653W        W27047  22.506  28.693   4.999
58654W        W27048  30.394  15.742   2.323
58655W        W27049  27.980   6.318  14.952
58656W        W27050  27.849   9.253  14.309
58657W        W27051  25.380   7.802  14.252
58658W        W27052  11.844  22.063  14.053
58659W        W27053  31.675  31.993  13.758
58660W        W27054  31.842  12.723   2.504
58661W        W27055  26.737  13.649  14.951
58662W        W27056  26.644  30.540  11.697
58663W        W27057  16.275  43.566   3.083
58664W        W27058  24.578  36.985   2.133
58665W        W27059  10.762  10.351   3.134
58666W        W27060  18.526  26.288  13.522
58667W        W27061   2.979  17.669  10.574
58668W        W27062  29.096  31.846  12.467
58669W        W27063  18.605   0.781   1.853
58670W        W27064  25.182  23.119  11.646
58671W        W27065   4.626   5.943   4.203
58672W        W27066  17.315  31.028  11.054
58673W        W27067   6.908  20.131  14.379
58674W        W27068  24.011  32.163  13.967
58675W        W27069  33.664  15.272  11.164
58676W        W27070  13.694   9.770   3.880
58677W        W27071   4.782  29.804   0.022
58678W        W27072   0.822   9.803  10.917
58679W        W27073  18.271  43.395   0.317
58680W        W27074  22.779  33.219  10.660
58681W        W27075  10.603  18.217   2.442
58682W        W27076  13.738   9.297   0.490
58683W        W27077  22.689  43.246  11.090
58684W        W27078  40.675  10.069  14.455
58685W        W27079   6.864  12.306   1.875
58686W        W27080  23.743  16.569   2.848
58687W        W27081  21.454  37.353   4.109
58688W        W27082  37.843   2.092  12.339
58689W        W27083  40.035  28.710   0.940
58690W        W27084  39.058  37.038  14.932
58691W        W27085  32.677  40.965   1.853
58692W        W27086  30.508  22.609   2.321
58693W        W27087  12.382   7.199  14.659
58694W        W27088  15.667  20.715   1.164
58695W        W27089  32.970  37.748   4.247
58696W        W27090  19.490   5.681  13.211
58697W        W27091  11.938   2.190   1.363
58698W        W27092  33.819  17.499  14.938
58699W        W27093   8.899  23.794   1.817
58700W        W27094  11.389  43.405  14.872
58701W        W27095  13.367  14.511   4.514
58702W        W27096   9.407  34.025  10.840
58703W        W27097  42.569  36.844   4.249
58704W        W27098  44.368   5.005   4.670
58705W        W27099  37.532  24.174  12.927
58706W        W27100  12.240  18.560  14.861
58707W        W27101  38.110  34.680  14.752
58708W        W27102  20.325  33.339   2.263
58709W        W27103  13.376  22.117  14.544
58710W        W27104  41.314   4.469  11.914
58711W        W27105  17.273  12.684  11.136
58712W        W27106  13.822  16.231   2.386
58713W        W27107  38.103  32.936   0.372
58714W        W27108  12.678  32.828   0.383
58715W        W27109  41.521   6.788  12.344
58716W        W27110  35.626   7.545  14.892
58717W        W27111  32.418  10.248  10.256
58718W        W27112  16.625  40.815   4.524
58719W        W27113  42.110  10.468  14.374
58720W        W27114   9.320  23.567  13.021
58721W        W27115  15.596  19.059  12.585
58722W        W27116  32.336  13.762   2.964
58723W        W27117  11.743   4.259   1.197
58724W        W27118  36.295  40.952   0.374
58725W        W27119   9.665  14.815   4.869
58726W        W27120  18.200  18.653  11.464
58727W        W27121  24.017  44.648   3.772
58728W        W27122  17.804   5.400  13.055
58729W        W27123  26.472   1.893   3.155
58730W        W27124  20.294   6.128  13.048
58731W        W27125  38.558  36.968  11.232
58732W        W27126   2.225  35.184  11.843
58733W        W27127  22.189  34.940   0.439
58734W        W27128   4.607  13.325   3.140
58735W        W27129  16.357  11.778  14.316
58736W        W27130  23.083   3.768  13.381
58737W        W27131  12.270  19.766  14.443
58738W        W27132   4.873  22.924  11.364
58739W        W27133  26.755  21.219  14.925
58740W        W27134  15.181  12.058   2.284
58741W        W27135  29.473  24.384   3.225
58742W        W27136  43.289  10.195   3.714
58743W        W27137   4.788  15.112   0.219
58744W        W27138  29.856  13.288  13.573
58745W        W27139  29.598  33.930  13.458
58746W        W27140  24.206  14.385  12.057
58747W        W27141  33.161  37.819  10.088
58748W        W27142   3.331  37.520   2.442
58749W        W27143  10.615  42.342   3.278
58750W        W27144   3.261  29.007   4.611
58751W        W27145  20.842  29.578  12.504
58752W        W27146  36.855   7.759  13.046
58753W        W27147  37.077   3.351   3.367
58754W        W27148  29.218   4.227  13.418
58755W        W27149  12.234  23.756   3.155
58756W        W27150  18.732  20.568  14.449
58757W        W27151   6.967  28.477   2.329
58758W        W27152   4.342   0.622   0.797
58759W        W27153   1.202  35.960  14.007
58760W        W27154   3.220   6.219  10.130
58761W        W27155  22.573  41.577   1.333
58762W        W27156  20.054  17.305   2.789
58763W        W27157  31.803  23.297   4.287
58764W        W27158  12.594  10.398   2.759
58765W        W27159  40.364  39.656   4.921
58766W        W27160  35.827  33.061  13.990
58767W        W27161   5.229  41.289   0.474
58768W        W27162  20.459   0.894  13.936
58769W        W27163  23.524  23.500   2.786
58770W        W27164  18.718  11.899   4.321
58771W        W27165  26.946   3.320   4.222
58772W        W27166  24.592  39.785   1.564
58773W        W27167  26.080   5.880   0.871
58774W        W27168  34.757  10.630   0.408
58775W        W27169   9.519   0.761   2.832
58776W        W27170   3.856  35.186   1.345
58777W        W27171   4.397  38.216  14.808
58778W        W27172  39.387  15.546  11.032
58779W        W27173  22.717  27.366   1.359
58780W        W27174   1.996   4.104   2.337
58781W        W27175  14.251   2.414  11.946
58782W        W27176  25.631  18.768   1.517
58783W        W27177  16.752   3.338   2.328
58784W        W27178   2.936  30.161   1.330
58785W        W27179  41.547  20.253   0.773
58786W        W27180   6.674   5.454   5.472
58787W        W27181  40.811  13.323   4.052
58788W        W27182  26.857  17.684   4.555
58789W        W27183  17.754  29.462   1.721
58790W        W27184  41.798  30.924   3.666
58791W        W27185  14.130   7.724   0.829
58792W        W27186  11.009  38.501   3.501
58793W        W27187  22.049   8.091  11.051
58794W        W27188  28.543   9.448   1.046
58795W        W27189  16.048   4.264   1.764
58796W        W27190  38.306  20.670  12.817
58797W        W27191  44.984  39.387   2.793
58798W        W27192  36.049  44.047   0.237
58799W        W27193  20.222  38.321  13.313
58800W        W27194   6.678  25.035   0.034
58801W        W27195   1.166  23.608   0.159
58802W        W27196  22.981   8.270  12.663
58803W        W27197   4.354  17.063   4.595
58804W        W27198   1.019   4.434   4.113
58805W        W27199  44.444  19.078   4.696
58806W        W27200  28.448  10.891   0.756
58807W        W27201  17.803  19.018   2.836
58808W        W27202  35.847  25.449   2.730
58809W        W27203   2.822  26.659   0.286
58810W        W27204  34.434   2.144   3.217
58811W        W27205  12.492   8.231   4.514
58812W        W27206  36.899   0.310  11.942
58813W        W27207  10.300   7.307  10.003
58814W        W27208  29.702   1.478   2.373
58815W        W27209   0.222  29.840   1.516
58816W        W27210   5.447  35.440   4.738
58817W        W27211  13.664  43.046  12.925
58818W        W27212  17.312  10.111  11.044
58819W        W27213   3.125  17.725   1.317
58820W        W27214   5.091   9.536  11.574
58821W        W27215  17.502  20.661   0.286
58822W        W27216  28.078  14.503  11.569
58823W        W27217  10.963  12.309   1.922
58824W        W27218  21.616   8.868  13.771
58825W        W27219  33.364  23.235   2.694
58826W        W27220   5.866  40.589  12.122
58827W        W27221  31.582  30.155  12.991
58828W        W27222  24.663  28.736   0.237
58829W        W27223   8.784  32.583   3.672
58830W        W27224  12.100  37.620  10.739
58831W        W27225  14.208  25.036   2.695
58832W        W27226   3.223   2.857   0.262
58833W        W27227  36.568  40.879  13.868
58834W        W27228   8.246  28.457   4.601
58835W        W27229  11.696   2.960   3.208
58836W        W27230  33.014  22.793  14.453
58837W        W27231  37.739  10.897   0.402
58838W        W27232  17.184  37.838   1.881
58839W        W27233   9.863   0.367   2.370
58840W        W27234  36.125  15.883  11.253
58841W        W27235  24.382  24.509   1.093
58842W        W27236  39.879  33.057  11.579
58843W        W27237  21.810   0.786  12.592
58844W        W27238  11.579   7.664  12.859
58845W        W27239   2.824  35.461  13.517
58846W        W27240  32.741  35.447  13.373
58847W        W27241  14.603  42.930  13.293
58848W        W27242   9.254   4.590  14.749
58849W        W27243  13.809  12.292   0.388
58850W        W27244  15.639  37.339   5.006
58851W        W27245  23.763  25.109   1.123
58852W        W27246   8.815  37.040  10.931
58853W        W27247  30.513   1.015   3.838
58854W        W27248  30.055  31.921  12.596
58855W        W27249  12.671  16.042  14.426
58856W        W27250  30.687  17.219  14.436
58857W        W27251   0.810  21.105   4.099
58858W        W27252  33.147   0.056   1.401
58859W        W27253  32.172   6.790   4.026
58860W        W27254   9.780  20.812   3.405
58861W        W27255  40.144  16.849  12.437
58862W        W27256  39.543  24.923   3.553
58863W        W27257  13.590  20.572   4.400
58864W        W27258  35.957  21.017  10.461
58865W        W27259  41.128  28.183   4.263
58866W        W27260  27.076   7.471   0.383
58867W        W27261  18.824   7.758   3.226
58868W        W27262  23.603  36.399  13.821
58869W        W27263   0.588   2.520   0.853
58870W        W27264  15.561  24.390   3.699
58871W        W27265  18.988  12.738  10.748
58872W        W27266  18.490   5.440  10.598
58873W        W27267  28.254  39.032   2.446
58874W        W27268  41.830  29.332  12.115
58875W        W27269  31.401  14.157   2.740
58876W        W27270  27.054  22.229  11.496
58877W        W27271  29.375  35.074   0.935
58878W        W27272  14.637  28.209   3.889
58879W        W27273   6.306   0.185   3.645
58880W        W27274  25.468  12.719  10.634
58881W        W27275   4.543  13.054   4.526
58882W        W27276   7.249   7.354  11.890
58883W        W27277  43.399  24.741  13.073
58884W        W27278   7.978  22.737  11.866
58885W        W27279   6.656  26.548   2.692
58886W        W27280  12.820  40.339   1.924
58887W        W27281   4.255   1.819   1.338
58888W        W27282   3.216   6.870  11.924
58889W        W27283  39.236  12.659   4.593
58890W        W27284   1.714  31.121   1.730
58891W        W27285  29.064  41.515   4.572
58892W        W27286   5.655   6.746  11.543
58893W        W27287  38.116  29.612   4.624
58894W        W27288  19.687  16.334   5.039
58895W        W27289  29.067  28.970  12.041
58896W        W27290  25.922  16.652   2.340
58897W        W27291   0.685   0.808   0.432
58898W        W27292  38.973  26.567  12.925
58899W        W27293  16.238  20.429  10.974
58900W        W27294  32.158  29.068  11.224
58901W        W27295  33.136  28.442  13.841
58902W        W27296  41.332  35.573   0.388
58903W        W27297  38.543   6.436  11.471
58904W        W27298   9.336  27.938  14.384
58905W        W27299  15.202   9.409  11.271
58906W        W27300  35.984  23.519   0.783
58907W        W27301   0.274   9.507   3.148
58908W        W27302  17.018  19.003  12.573
58909W        W27303  35.024  20.104   3.560
58910W        W27304  19.622   3.972  14.830
58911W        W27305  12.193  25.595  12.009
58912W        W27306   9.565  30.492   1.414
58913W        W27307   6.791   8.668   3.213
58914W        W27308  39.745  15.560   2.203
58915W        W27309  29.407  22.347  11.423
58916W        W27310   4.396  14.667  11.607
58917W        W27311  41.596  30.548   0.379
58918W        W27312  15.496  13.674  14.598
58919W        W27313  17.421  27.533   3.891
58920W        W27314   4.491  22.594  13.507
58921W        W27315  21.309   9.216  11.592
58922W        W27316   0.901  42.017   0.220
58923W        W27317  25.306   6.899   3.387
58924W        W27318   0.686  19.675   3.217
58925W        W27319  10.359  32.355  12.879
58926W        W27320  26.806  35.350  11.153
58927W        W27321  24.761  36.001   1.948
58928W        W27322  10.857  21.995  10.315
58929W        W27323  29.478   3.196  14.444
58930W        W27324  35.434  31.932   4.580
58931W        W27325  33.949  30.030   1.771
58932W        W27326   1.775  30.023   2.171
58933W        W27327  28.155   0.782   3.995
58934W        W27328  11.530  34.892   3.676
58935W        W27329  23.374  31.428   0.672
58936W        W27330  27.086  40.416   2.184
58937W        W27331  42.923   1.342   4.668
58938W        W27332   9.013   6.767   4.394
58939W        W27333  15.333   5.435   3.776
58940W        W27334  21.087  42.306  12.850
58941W        W27335  25.454  16.424   3.880
58942W        W27336  33.454  31.943   2.788
58943W        W27337  31.612  24.662  12.388
58944W        W27338  41.031  44.680  13.224
58945W        W27339  12.520   8.994   2.299
58946W        W27340   9.610  12.075  11.101
58947W        W27341  34.463  36.713  12.518
58948W        W27342  10.733  10.689   3.735
58949W        W27343  19.828  22.329  12.954
58950W        W27344  41.245   1.286   0.375
58951W        W27345  35.972   2.659   4.221
58952W        W27346  27.690  42.467  11.088
58953W        W27347   9.776  43.950  13.463
58954W        W27348  24.127  32.652  11.343
58955W        W27349   9.803  34.595   1.137
58956W        W27350  17.629  13.617   0.854
58957W        W27351  14.113  43.544   1.632
58958W        W27352  39.055  10.310   3.594
58959W        W27353  28.917  32.380  11.459
58960W        W27354  36.670   6.963   1.139
58961W        W27355  31.617  41.049   2.057
58962W        W27356  27.482  33.690   0.147
58963W        W27357  40.414  11.012  14.506
58964W        W27358  22.451  31.409  12.510
58965W        W27359  16.249  22.955   2.693
58966W        W27360   7.745  19.139   3.318
58967W        W27361  26.450  19.488   3.387
58968W        W27362  40.766  19.199   0.679
58969W        W27363  23.389  26.189  10.693
58970W        W27364  20.698  23.490  11.607
58971W        W27365  10.578  23.467  12.067
58972W        W27366  41.287  15.993   1.812
58973W        W27367  34.913  21.239  14.193
58974W        W27368  37.128   3.015  13.991
58975W        W27369  30.116  12.401   3.764
58976W        W27370  15.011  41.905  11.594
58977W        W27371  26.209  31.514  13.651
58978W        W27372  11.573  23.172   0.481
58979W        W27373   0.029  28.154  13.355
58980W        W27374  31.884  42.940  14.407
58981W        W27375  16.835   4.986   1.743
58982W        W27376   7.444  14.740  11.397
58983W        W27377   8.675   9.863  11.258
58984W        W27378  18.135  16.251  10.376
58985W        W27379   0.545  11.333  14.457
58986W        W27380   8.079  10.043  12.875
58987W        W27381  10.175   5.796  11.065
58988W        W27382  28.978  42.429   4.853
58989W        W27383  10.263  28.900   3.062
58990W        W27384  27.029  16.033   4.800
58991W        W27385  10.679  35.902   4.365
58992W        W27386   9.428  21.040   0.378
58993W        W27387  27.677   0.688   1.268
58994W        W27388  10.768   4.823   2.635
58995W        W27389  16.100  39.351   3.337
58996W        W27390  10.743  44.346  12.526
58997W        W27391  41.934   0.779  11.707
58998W        W27392  18.584   3.746   0.935
58999W        W27393  35.806   2.948   0.881
59000W        W27394  25.431   2.395  10.808
59001W        W27395   5.373  40.591   2.306
59002W        W27396  39.025  18.450  13.127
59003W        W27397  22.991  13.422   4.105
59004W        W27398  30.886   1.290   0.420
59005W        W27399  14.014  10.183  10.251
59006W        W27400   3.532  34.889   5.079
59007W        W27401  31.395  20.235  14.306
59008W        W27402  38.913   4.724  12.837
59009W        W27403   6.599  30.487  12.117
59010W        W27404  41.575  35.939   0.990
59011W        W27405   0.753  26.653  13.591
59012W        W27406  11.242   5.164   0.442
59013W        W27407   5.906  31.156  10.797
59014W        W27408   9.392  40.872   2.297
59015W        W27409  42.134  37.978   2.668
59016W        W27410  44.778  26.918   4.536
59017W        W27411  43.551  41.308   5.178
59018W        W27412  19.686  43.493  12.513
59019W        W27413  11.885  12.417  12.888
59020W        W27414   2.793   5.213  11.179
59021W        W27415  11.040  11.087   3.693
59022W        W27416  14.758  42.227   4.250
59023W        W27417  16.157  38.365  11.870
59024W        W27418  28.998  14.099   4.165
59025W        W27419   2.445   0.965  12.962
59026W        W27420   0.395   4.046   0.464
59027W        W27421  37.201  36.126  11.706
59028W        W27422  36.806  35.538  13.372
59029W        W27423  28.379  34.366  13.975
59030W        W27424   4.864  37.373   3.371
59031W        W27425  24.695   1.885  13.995
59032W        W27426  28.103   3.297  13.387
59033W        W27427  42.040  26.972  13.493
59034W        W27428  36.998  10.413   3.332
59035W        W27429  38.066   1.448  14.452
59036W        W27430  20.006  38.497  10.737
59037W        W27431  32.557  35.768   1.109
59038W        W27432  13.322  31.132   0.422
59039W        W27433  21.256  22.489  13.392
59040W        W27434  22.678  20.315  12.373
59041W        W27435  38.616  24.150   0.784
59042W        W27436  28.660  25.791   3.609
59043W        W27437  33.121   7.206   1.796
59044W        W27438  37.834  35.102   0.845
59045W        W27439   2.280  35.467   4.555
59046W        W27440  39.834  24.198  11.157
59047W        W27441  28.260  33.492   1.422
59048W        W27442   5.829  34.350  11.171
59049W        W27443  27.107  34.412  11.395
59050W        W27444  21.108  22.255  11.049
59051W        W27445  44.005  25.133   4.269
59052W        W27446   9.648  18.195  12.149
59053W        W27447  34.866  23.734   1.853
59054W        W27448  41.856   8.971   4.159
59055W        W27449  25.182  37.935  14.475
59056W        W27450  37.892  26.073   2.617
59057W        W27451  14.675  43.580   4.055
59058W        W27452  10.558   9.841   0.066
59059W        W27453  12.360  10.186  14.433
59060W        W27454  35.681  33.448  14.321
59061W        W27455  25.950  16.564  14.380
59062W        W27456  16.628  39.259  13.847
59063W        W27457  35.506  11.090  12.083
59064W        W27458  10.833  42.493  14.320
59065W        W27459  28.048  27.370  12.922
59066W        W27460   7.842  25.530   0.327
59067W        W27461  32.497  32.634   2.401
59068W        W27462   7.841   2.832   2.863
59069W        W27463   3.493  14.881  13.866
59070W        W27464  17.122  32.890  11.633
59071W        W27465   4.830   4.907   0.853
59072W        W27466   7.593  19.826  12.759
59073W        W27467  38.871  20.997  10.598
59074W        W27468  16.514  41.256  10.833
59075W        W27469  20.984  40.547  11.957
59076W        W27470  37.555  32.468  13.793
59077W        W27471  26.723  16.412  14.785
59078W        W27472  38.289   1.806   1.865
59079W        W27473  35.110  14.138  12.868
59080W        W27474  43.157   4.966  14.426
59081W        W27475  18.138  35.911  11.586
59082W        W27476  28.122  37.024   1.924
59083W        W27477  31.543  32.371   3.740
59084W        W27478  28.979  41.072   4.845
59085W        W27479  10.646  24.693  12.493
59086W        W27480  39.039  29.629   2.135
59087W        W27481  32.065  42.232  10.613
59088W        W27482  26.228   6.420   4.259
59089W        W27483  43.389   5.848   1.917
59090W        W27484  30.930  25.467   0.015
59091W        W27485  13.818   5.726  12.961
59092W        W27486  21.289  38.085  11.105
59093W        W27487  11.115  43.699  14.044
59094W        W27488   6.696  24.113  11.213
59095W        W27489  27.466  15.775   5.000
59096W        W27490  23.222  11.176  14.910
59097W        W27491  37.897   1.045   1.317
59098W        W27492  41.887   5.479   0.903
59099W        W27493  27.289  44.312   0.329
59100W        W27494  18.038  25.602  13.171
59101W        W27495  18.560  39.096  14.531
59102W        W27496  11.584  24.692   4.358
59103W        W27497  41.013  17.154  11.603
59104W        W27498   8.340  10.746  10.784
59105W        W27499   3.682   6.833   3.623
59106W        W27500  29.642  21.554  14.579
59107W        W27501   8.176  39.288  13.592
59108W        W27502  38.466  13.018   4.858
59109W        W27503   5.152  11.539  14.362
59110W        W27504  32.863  42.496   3.532
59111W        W27505  24.008  36.792   0.455
59112W        W27506  11.756   6.175  14.060
59113W        W27507  28.364   4.819   0.460
59114W        W27508  42.888  12.169  12.469
59115W        W27509  42.025  17.086   3.741
59116W        W27510   9.314  43.971  14.847
59117W        W27511  12.275  37.768   1.519
59118W        W27512  23.766  37.903  12.539
59119W        W27513  44.351   6.681  13.031
59120W        W27514  31.600  14.851  12.027
59121W        W27515  30.540   7.398   3.397
59122W        W27516   9.215  11.604   1.243
59123W        W27517  23.161   2.241  11.709
59124W        W27518  22.999  11.341   2.451
59125W        W27519  20.536  35.598  10.520
59126W        W27520   9.605   5.851   0.017
59127W        W27521  12.936  43.218  14.788
59128W        W27522  28.941  37.821  11.456
59129W        W27523  44.831  16.843   3.723
59130W        W27524  12.512  31.042  11.515
59131W        W27525   6.724  15.859  12.349
59132W        W27526  44.464   6.961  13.884
59133W        W27527   7.437  26.643   2.335
59134W        W27528  12.687  15.112  14.489
59135W        W27529   0.409  37.570  11.357
59136W        W27530  12.109  14.148   1.825
59137W        W27531  39.540  38.397   3.015
59138W        W27532  28.964  23.198  13.039
59139W        W27533   1.414  16.879   2.671
59140W        W27534  24.653  21.320  11.008
59141W        W27535  30.041  40.929   0.544
59142W        W27536  16.727  44.850   4.617
59143W        W27537  42.784  16.106   3.330
59144W        W27538  41.584  42.425   0.506
59145W        W27539  28.332   0.889  14.762
59146W        W27540  13.255  38.694   3.821
59147W        W27541  40.671  36.405  11.070
59148W        W27542  36.439   1.749   3.355
59149W        W27543   1.013  24.819   2.211
59150W        W27544   0.720  11.108  10.803
59151W        W27545  39.066  18.061  11.218
59152W        W27546  20.005  16.655   0.717
59153W        W27547   9.111   8.783  13.880
59154W        W27548  15.696   9.155  12.567
59155W        W27549  39.545  38.606   1.735
59156W        W27550   7.869   1.694   0.155
59157W        W27551  35.638   7.794   0.943
59158W        W27552  44.297   4.573  13.547
59159W        W27553   8.842  20.720  11.876
59160W        W27554  37.509  35.796  14.238
59161W        W27555  28.867  36.498  12.525
59162W        W27556  28.460  40.434  13.095
59163W        W27557  43.937  23.230   2.672
59164W        W27558   1.414  15.676   1.428
59165W        W27559  20.526  14.388   0.903
59166W        W27560  22.767  34.902  12.908
59167W        W27561  11.426  33.813   2.226
59168W        W27562  12.786  27.391   3.785
59169W        W27563  31.654  43.621   1.189
59170W        W27564   2.976   8.517   0.764
59171W        W27565   6.052  26.547  13.802
59172W        W27566  19.232  39.949   1.950
59173W        W27567  14.757  36.063  10.256
59174W        W27568  41.439  22.141   2.400
59175W        W27569  35.169  18.217   1.908
59176W        W27570   8.616  10.897   1.346
59177W        W27571   9.354  24.286  10.993
59178W        W27572  27.820  29.992  11.180
59179W        W27573   2.093  22.814  14.808
59180W        W27574   8.876  17.160  14.926
59181W        W27575  30.123  25.656  10.637
59182W        W27576   4.543  21.577   3.639
59183W        W27577  22.118  41.306   1.420
59184W        W27578  28.087  12.621   3.303
59185W        W27579  30.596  13.461   3.176
59186W        W27580  26.731   1.985   1.224
59187W        W27581  44.283  27.664  12.403
59188W        W27582  10.800  17.436  12.413
59189W        W27583   6.837   9.200  14.085
59190W        W27584  12.272  40.793   1.395
59191W        W27585   9.941  36.859  12.301
59192W        W27586  11.812   2.088  13.821
59193W        W27587  34.346   3.395   0.819
59194W        W27588  17.147  20.745   2.460
59195W        W27589   2.735  26.196  11.565
59196W        W27590  25.425  12.283  14.796
59197W        W27591   2.949  40.053   3.594
59198W        W27592  28.057   5.982  12.043
59199W        W27593  20.697  16.337   1.932
59200W        W27594  37.078  23.679  10.646
59201W        W27595  34.964  26.007   2.213
59202W        W27596   0.494  13.917  11.280
59203W        W27597  23.072  27.447   0.262
59204W        W27598  14.722  20.732  11.354
59205W        W27599   2.039  24.712  12.034
59206W        W27600  30.349  25.683   1.317
59207W        W27601  40.356  44.556   4.405
59208W        W27602  29.661  21.592   2.745
59209W        W27603  39.342  44.264  11.435
59210W        W27604  38.584  14.080   3.094
59211W        W27605   0.347  27.720  14.433
59212W        W27606  21.121  19.552  11.636
59213W        W27607  16.359   6.212   3.683
59214W        W27608   4.395  38.917   4.031
59215W        W27609  30.316  25.543  13.327
59216W        W27610   9.922  10.313  10.925
59217W        W27611  40.015  25.596   2.068
59218W        W27612  25.876   3.981   0.881
59219W        W27613  38.964   9.484  14.657
59220W        W27614  41.779   0.338   4.244
59221W        W27615  21.356  35.312   3.848
59222W        W27616  33.450  19.708   2.055
59223W        W27617   6.336  14.379  12.914
59224W        W27618  33.856  26.911   3.643
59225W        W27619   9.533  14.617   3.419
59226W        W27620  30.308  23.771   3.179
59227W        W27621   0.352  21.792  13.129
59228W        W27622  15.440  39.914  10.760
59229W        W27623   1.896  43.030   3.784
59230W        W27624   1.357  10.366  14.751
59231W        W27625  15.677   3.405  10.675
59232W        W27626  42.316  14.625  14.267
59233W        W27627  15.691  29.902  14.757
59234W        W27628  10.981  31.371  11.222
59235W        W27629  34.017   2.195  13.892
59236W        W27630  24.509   1.990  13.515
59237W        W27631  37.940   6.681   0.981
59238W        W27632  16.279   3.425   1.299
59239W        W27633  22.088  12.845   3.336
59240W        W27634  26.717   3.916  13.615
59241W        W27635  27.974  37.872  13.851
59242W        W27636  32.669  41.860   2.321
59243W        W27637  26.053  15.737   0.905
59244W        W27638  22.958  19.037  13.082
59245W        W27639   1.986  14.570   2.697
59246W        W27640  37.525  15.282  10.922
59247W        W27641  22.985   8.257   3.185
59248W        W27642  42.015  27.442  14.494
59249W        W27643  20.587   8.938   4.567
59250W        W27644  22.105  38.023  11.210
59251W        W27645  20.707  21.649   4.746
59252W        W27646  42.357  21.092   1.305
59253W        W27647  19.983  22.206  10.731
59254W        W27648  17.283  10.372  13.512
59255W        W27649   0.399  12.689  10.713
59256W        W27650  29.218  19.773  12.156
59257W        W27651  18.225  36.035   2.614
59258W        W27652  24.459  36.547   0.370
59259W        W27653  15.353  37.292  10.693
59260W        W27654  23.068  43.028   0.785
59261W        W27655   1.221   8.848   4.165
59262W        W27656  11.329  19.233   4.576
59263W        W27657  24.457  15.233  11.655
59264W        W27658   9.061  18.651   1.626
59265W        W27659  34.067  29.563  11.840
59266W        W27660   3.516  23.190  11.615
59267W        W27661  18.742  15.148  10.968
59268W        W27662  26.681  42.867  10.486
59269W        W27663  32.342   8.723   3.219
59270W        W27664  18.501  41.321  10.663
59271W        W27665  11.697  42.484  10.608
59272W        W27666  33.021   4.711  11.200
59273W        W27667   3.317  20.469  10.883
59274W        W27668  23.027  15.145   4.598
59275W        W27669  21.780  39.987   0.210
59276W        W27670  25.708  19.978  11.256
59277W        W27671  40.403  41.405  11.156
59278W        W27672  34.195  43.451   3.509
59279W        W27673  37.831  41.139   0.268
59280W        W27674  17.050  14.638  13.781
59281W        W27675   8.310  25.796  11.262
59282W        W27676  21.605  30.559   1.504
59283W        W27677   4.769   8.931  10.592
59284W        W27678  17.847  20.246   3.221
59285W        W27679  31.547   7.459   2.859
59286W        W27680  12.638  35.420   0.427
59287W        W27681   1.791   4.419   1.121
59288W        W27682  33.844   8.935  10.353
59289W        W27683  42.480  19.346   0.178
59290W        W27684  40.898  27.251   2.895
59291W        W27685  42.218   9.728   0.374
59292W        W27686  36.329   6.081   0.428
59293W        W27687  36.787  29.088  13.899
59294W        W27688   2.993  21.320  10.709
59295W        W27689  30.154  19.891  13.084
59296W        W27690  16.561  24.494   4.274
59297W        W27691  15.692   1.883  10.384
59298W        W27692   8.788  25.426  13.785
59299W        W27693  20.503  41.974  12.355
59300W        W27694  44.207  33.224  12.443
59301W        W27695   6.473  37.948  13.962
59302W        W27696   4.471  17.971   2.550
59303W        W27697   8.378  43.295   3.822
59304W        W27698  40.295   7.637   3.179
59305W        W27699   7.209   7.735  12.662
59306W        W27700  28.701  12.291   0.430
59307W        W27701  34.377   3.156   1.296
59308W        W27702  13.229  42.053  12.417
59309W        W27703   9.315   4.085  14.582
59310W        W27704   4.460   5.196   2.829
59311W        W27705  10.021  30.858  11.121
59312W        W27706  18.420  10.031   0.004
59313W        W27707  41.276   6.253   5.192
59314W        W27708  28.003  44.893   2.493
59315W        W27709  34.933  29.637  10.751
59316W        W27710  37.516  13.181   3.120
59317W        W27711  21.716   6.364   4.547
59318W        W27712  28.509  15.047   5.006
59319W        W27713   5.129  27.688   2.363
59320W        W27714  22.167  32.126  13.982
59321W        W27715  11.625  18.968   0.940
59322W        W27716   1.376  15.972   4.292
59323W        W27717  11.556  35.085  14.937
59324W        W27718  34.534  31.597   0.421
59325W        W27719  10.554  43.561  11.480
59326W        W27720  43.914  33.445  11.539
59327W        W27721  27.976  44.073  13.773
59328W        W27722   0.751  20.560   1.194
59329W        W27723  38.794  13.373  13.528
59330W        W27724   3.453  12.155  10.673
59331W        W27725   7.391  22.034   1.249
59332W        W27726  31.379  10.094  14.997
59333W        W27727  38.948  22.497   0.462
59334W        W27728   5.898  34.175   3.883
59335W        W27729  10.093  30.119   0.769
59336W        W27730  14.770  23.236  13.995
59337W        W27731  42.350   1.527  13.596
59338W        W27732  25.613   4.896   2.851
59339W        W27733  32.244  13.597   3.514
59340W        W27734  34.426  13.334   3.605
59341W        W27735   8.258  28.522  12.160
59342W        W27736  24.562  29.035  14.820
59343W        W27737  12.749  16.737  12.171
59344W        W27738  19.988  11.650  10.227
59345W        W27739  33.913  35.415  10.684
59346W        W27740  17.371  36.312   1.739
59347W        W27741   9.371  16.513   0.439
59348W        W27742  42.802  34.360  12.752
59349W        W27743  18.133  32.984   3.681
59350W        W27744  39.372  22.485  13.288
59351W        W27745  27.899  40.319   0.308
59352W        W27746   7.170  17.400  11.715
59353W        W27747  25.045   6.173   0.361
59354W        W27748   0.030  10.370   1.873
59355W        W27749  25.945  13.573   3.163
59356W        W27750  20.730   8.684  14.193
59357W        W27751  14.172  16.825   4.525
59358W        W27752  30.875   5.476   1.432
59359W        W27753  42.791  18.822   1.838
59360W        W27754  16.046  13.733   4.416
59361W        W27755  15.180  39.379  13.438
59362W        W27756  33.692  25.036  11.008
59363W        W27757   7.234  27.678  11.115
59364W        W27758  11.169  27.482   1.698
59365W        W27759  23.210  19.528  13.973
59366W        W27760  19.205  13.860   1.303
59367W        W27761  20.168  36.533  13.806
59368W        W27762   3.408  22.181  11.683
59369W        W27763  18.741  19.402   2.706
59370W        W27764   4.048  28.140   2.364
59371W        W27765  20.658  28.422   0.315
59372W        W27766  24.702   2.974  10.676
59373W        W27767  44.146   0.241  12.135
59374W        W27768   3.470   3.059   3.089
59375W        W27769  39.343   2.813   3.191
59376W        W27770  15.309  34.940  12.318
59377W        W27771  26.126  10.839   1.678
59378W        W27772  37.840  32.516   0.209
59379W        W27773  21.259  14.622   3.768
59380W        W27774  12.346  12.601  10.786
59381W        W27775  32.064  39.407  10.760
59382W        W27776  28.880  32.880   0.407
59383W        W27777  12.568  38.070   0.026
59384W        W27778  42.299  21.501  11.633
59385W        W27779   8.314  28.554   0.005
59386W        W27780  11.362  44.727  14.940
59387W        W27781  18.688   2.141  13.322
59388W        W27782  31.533  19.946  14.731
59389W        W27783   1.207  14.786   2.727
59390W        W27784   6.340   1.010  14.400
59391W        W27785  18.672  39.007   4.059
59392W        W27786  29.490   5.875   2.240
59393W        W27787  10.673  14.101   1.854
59394W        W27788  39.916  29.597  14.806
59395W        W27789   6.553   7.397   5.059
59396W        W27790  36.795  44.999  13.953
59397W        W27791  34.437  34.246  11.849
59398W        W27792   5.494   4.241   0.857
59399W        W27793  25.274  15.599   3.759
59400W        W27794  37.812  23.499   0.530
59401W        W27795  32.894  12.906   3.074
59402W        W27796  25.150   3.234   4.507
59403W        W27797  20.560   4.494  10.969
59404W        W27798  30.565  38.988  14.853
59405W        W27799  17.668  17.812  13.919
59406W        W27800  13.750   1.004  13.370
59407W        W27801   2.467   1.854   1.841
59408W        W27802  41.758  19.230  11.619
59409W        W27803  18.058   7.857   2.326
59410W        W27804  19.787  44.790  12.566
59411W        W27805  33.643   6.992  12.667
59412W        W27806  20.441  21.487  11.103
59413W        W27807  18.914  12.996  13.107
59414W        W27808  27.089   8.922   4.563
59415W        W27809   4.833  11.296   3.578
59416W        W27810  34.930  18.472  14.987
59417W        W27811   6.415   6.205  10.112
59418W        W27812  15.574  33.964   0.961
59419W        W27813   3.485  43.976   0.390
59420W        W27814  31.127   9.138  11.223
59421W        W27815   9.692  18.759  14.478
59422W        W27816  22.986   3.298  13.193
59423W        W27817  37.843  39.989   2.170
59424W        W27818  21.309  14.142  14.397
59425W        W27819  32.291   3.339   5.121
59426W        W27820  12.895  20.836   2.579
59427W        W27821  44.244  33.566  10.576
59428W        W27822   0.407  38.300  11.588
59429W        W27823  35.579   9.373   1.753
59430W        W27824  24.650   7.405   4.606
59431W        W27825  44.790  40.602   4.686
59432W        W27826  34.013   2.261  13.365
59433W        W27827  38.534   5.124  12.650
59434W        W27828   8.356  39.996  12.936
59435W        W27829  14.241  42.415  13.398
59436W        W27830  11.469  31.006  14.324
59437W        W27831  26.491  14.241  13.338
59438W        W27832  16.595  13.159  11.212
59439W        W27833   3.340   8.321   2.150
59440W        W27834   2.372  24.467   3.066
59441W        W27835  36.352  15.228  13.672
59442W        W27836  17.088  25.909   2.407
59443W        W27837   5.580  26.572   2.236
59444W        W27838  18.086  17.218  13.395
59445W        W27839  12.630  43.596   2.564
59446W        W27840  29.616  21.511   4.550
59447W        W27841  18.025  14.293  12.207
59448W        W27842  25.883  29.348   4.983
59449W        W27843  34.580  38.087   2.650
59450W        W27844   1.743  44.837   4.293
59451W        W27845  24.048  35.017   3.777
59452W        W27846  36.369  36.568  11.624
59453W        W27847  18.602  26.625  11.158
59454W        W27848   9.253  17.822  11.503
59455W        W27849  32.142   1.332   4.248
59456W        W27850   0.085   9.787   0.877
59457W        W27851   4.832  12.116   5.013
59458W        W27852   9.790  25.762   3.068
59459W        W27853  31.129  42.053   5.035
59460W        W27854  22.595  20.522   1.807
59461W        W27855  27.639   4.878  13.812
59462W        W27856   6.743  14.907   2.879
59463W        W27857  35.622  10.613   1.031
59464W        W27858   6.889   0.768  12.550
59465W        W27859  40.800  43.677  11.649
59466W        W27860  13.167  21.242  14.514
59467W        W27861  12.869   7.683  11.464
59468W        W27862  27.406  11.802   3.321
59469W        W27863  11.125  12.052  12.562
59470W        W27864  28.807  16.283   1.850
59471W        W27865  15.842   4.552   2.160
59472W        W27866   1.879   3.573  11.681
59473W        W27867  13.852  32.527   3.873
59474W        W27868  27.322  41.999  10.231
59475W        W27869  25.344  29.158  13.801
59476W        W27870  15.564  13.256  11.152
59477W        W27871  11.905  28.939  10.673
59478W        W27872  15.384  44.156   2.003
59479W        W27873  22.073  17.340  11.901
59480W        W27874  16.026  34.794  11.398
59481W        W27875   5.715  36.868   0.449
59482W        W27876  24.760  15.007  11.253
59483W        W27877  39.155  35.095  13.632
59484W        W27878  22.796  22.921   2.879
59485W        W27879  14.677  28.433  11.490
59486W        W27880   8.972  23.443   2.801
59487W        W27881  31.000  42.583   0.274
59488W        W27882  36.469  25.138   0.757
59489W        W27883  16.755  24.544   2.226
59490W        W27884  28.105  21.740   4.063
59491W        W27885  11.269  18.160   4.611
59492W        W27886   1.431  40.899  14.889
59493W        W27887  32.346  41.180  14.023
59494W        W27888  39.565  38.950   2.295
59495W        W27889   5.166  42.452   1.440
59496W        W27890  21.504  23.658  11.882
59497W        W27891  10.946  42.858   1.433
59498W        W27892  11.949  37.835   0.866
59499W        W27893  37.383  18.484   1.198
59500W        W27894   5.359   3.446  12.996
59501W        W27895  22.226  17.840   0.450
59502W        W27896   9.398  15.743   0.855
59503W        W27897  40.205  23.765   3.935
59504W        W27898  14.139  39.770   3.047
59505W        W27899   3.238  16.188   0.346
59506W        W27900  17.225  29.693  13.403
59507W        W27901   6.926  33.659   1.786
59508W        W27902  44.979  43.416   2.953
59509W        W27903  10.225  35.181   2.003
59510W        W27904   7.602  11.594  10.794
59511W        W27905  17.334  19.745   5.434
59512W        W27906  18.573  34.013   0.954
59513W        W27907  43.418  32.882  13.576
59514W        W27908  29.920  31.345  13.161
59515W        W27909  12.102  30.081  14.979
59516W        W27910  14.672   4.877   1.743
59517W        W27911  41.311   5.475  14.354
59518W        W27912  19.359  42.577   3.272
59519W        W27913  11.119   3.186  14.289
59520W        W27914  43.504  23.993   2.116
59521W        W27915   9.633  25.232   5.185
59522W        W27916  40.767  41.543   4.239
59523W        W27917  40.518  20.929   4.656
59524W        W27918  44.489  25.491  14.541
59525W        W27919   7.551  29.948   0.223
59526W        W27920  23.539  12.534   4.674
59527W        W27921  23.697  20.459   4.839
59528W        W27922  39.813  13.399   1.314
59529W        W27923  36.067  16.576  10.754
59530W        W27924  21.020  22.067  13.930
59531W        W27925  31.644  34.589   2.851
59532W        W27926  12.676  37.833  14.298
59533W        W27927   5.666  28.417  11.975
59534W        W27928  17.587  27.457   1.165
59535W        W27929  41.692   1.493   1.347
59536W        W27930  36.361  44.529   3.273
59537W        W27931  18.812   2.737   1.884
59538W        W27932  15.089   7.368   2.339
59539W        W27933  41.046  42.694  10.675
59540W        W27934  35.307  25.160   1.199
59541W        W27935  16.674  23.241   2.669
59542W        W27936  43.812   8.812  13.570
59543W        W27937  20.677  40.095  12.765
59544W        W27938  37.519   6.500   1.455
59545W        W27939   4.366  11.385  11.053
59546W        W27940  39.452  33.174  14.422
59547W        W27941  34.132   2.980  13.437
59548W        W27942   5.677  16.367  14.591
59549W        W27943  38.134  41.952  12.571
59550W        W27944  38.792  13.310   1.279
59551W        W27945  44.298  26.445   1.495
59552W        W27946  38.509  44.750   3.007
59553W        W27947  15.701   3.423   4.905
59554W        W27948  21.189   7.125  13.936
59555W        W27949   1.545  43.557  14.810
59556W        W27950  10.702  21.661  14.587
59557W        W27951  44.007  35.463   3.245
59558W        W27952  34.685  36.508  11.073
59559W        W27953  24.960   8.283   3.837
59560W        W27954  34.815  13.490  12.273
59561W        W27955   7.820   5.272  11.829
59562W        W27956   6.685  30.668  10.801
59563W        W27957  27.521  37.639   2.150
59564W        W27958  29.048  23.766   2.740
59565W        W27959  25.176   1.295   1.054
59566W        W27960   9.763   4.890   4.570
59567W        W27961  35.561   9.652   0.736
59568W        W27962  41.819  11.745  11.031
59569W        W27963  43.357  39.132  13.487
59570W        W27964   5.919   3.165  11.930
59571W        W27965  33.359  18.757   2.708
59572W        W27966  28.693  32.910   4.590
59573W        W27967   7.684  26.595   1.884
59574W        W27968   7.937   8.914  14.845
59575W        W27969  33.884  29.497   1.644
59576W        W27970  11.863   1.483   4.232
59577W        W27971  30.748  34.581  12.506
59578W        W27972  37.569   7.531  12.807
59579W        W27973  18.525  30.932  11.680
59580W        W27974  35.507   7.235   4.152
59581W        W27975  15.210  24.183   4.043
59582W        W27976  29.609  29.968   0.908
59583W        W27977  40.029  24.606  14.984
59584W        W27978  29.191  32.098   3.699
59585W        W27979  27.123  32.604  12.827
59586W        W27980  32.855  28.169  11.519
59587W        W27981   7.828   7.392  11.017
59588W        W27982  41.982  33.098  10.777
59589W        W27983  24.202  30.496   3.186
59590W        W27984  15.313  44.406   4.623
59591W        W27985  35.879  38.193   2.338
59592W        W27986  21.146   5.984  14.327
59593W        W27987   3.131  18.549  11.160
59594W        W27988  22.907  39.404   4.480
59595W        W27989   0.289  17.283   2.428
59596W        W27990  38.012  41.136   1.869
59597W        W27991  10.349  12.298  10.687
59598W        W27992  34.074  32.357  13.899
59599W        W27993  20.188   4.292   0.940
59600W        W27994  17.502  14.076  14.934
59601W        W27995  31.937   5.253   2.360
59602W        W27996  43.357  13.111  14.998
59603W        W27997  26.456  19.482  12.512
59604W        W27998  35.823   7.307   0.779
59605W        W27999  41.988  22.148   3.734
59606W        W28000  14.401  21.012  13.468
59607W        W28001  32.883  19.955   1.902
59608W        W28002  44.877  13.358  13.560
59609W        W28003  40.473  42.289   4.903
59610W        W28004  22.020  15.880   1.754
59611W        W28005  24.281   0.294   0.405
59612W        W28006  39.574  25.447  12.536
59613W        W28007  13.592   7.772   0.860
59614W        W28008  27.462  18.274  12.150
59615W        W28009   0.226   8.378  13.385
59616W        W28010  31.849   3.777  13.022
59617W        W28011  19.630  23.666   4.076
59618W        W28012  19.008  12.914   2.314
59619W        W28013   5.267  33.585   0.443
59620W        W28014  37.156  25.282   9.846
59621W        W28015   9.352  16.467   4.659
59622W        W28016  19.732  26.767   1.848
59623W        W28017  38.138  16.344  11.581
59624W        W28018  27.165  30.716   4.030
59625W        W28019  18.849  44.763   2.918
59626W        W28020  18.005  28.579   2.607
59627W        W28021  19.236   6.830  10.646
59628W        W28022  42.329  39.897   2.581
59629W        W28023   9.921  15.826   0.819
59630W        W28024  13.007  21.607   2.750
59631W        W28025  34.046  32.622   4.646
59632W        W28026  37.537  30.121  14.616
59633W        W28027  34.829  25.746  13.095
59634W        W28028  31.062  19.958   4.209
59635W        W28029   6.420  10.818  14.869
59636W        W28030  25.711  28.508  10.729
59637W        W28031  30.087  26.187   4.031
59638W        W28032  24.243  31.752  12.885
59639W        W28033  31.876   6.049   4.563
59640W        W28034  34.015   1.853   3.968
59641W        W28035  24.280  23.246   4.160
59642W        W28036  30.118  19.661  10.517
59643W        W28037  35.079  20.488  13.634
59644W        W28038  27.635  20.019   1.912
59645W        W28039  38.424   4.824  13.044
59646W        W28040   1.954  28.328   1.856
59647W        W28041  43.509   4.010   3.598
59648W        W28042  11.075   0.677  14.718
59649W        W28043  23.324   1.463   2.184
59650W        W28044  23.166  13.427  12.939
59651W        W28045  16.740  35.546  11.673
59652W        W28046  41.480  36.300  12.906
59653W        W28047   0.488  38.840   1.240
59654W        W28048  37.021  16.183  10.751
59655W        W28049  21.053  28.519   3.610
59656W        W28050   3.141   4.420   3.152
59657W        W28051  30.660   7.754   4.619
59658W        W28052  23.018  21.222  11.915
59659W        W28053  17.048  28.528  14.010
59660W        W28054  24.601   4.712   0.021
59661W        W28055  14.296  43.169  11.667
59662W        W28056  29.701  30.869  10.999
59663W        W28057   0.028  18.171   1.972
59664W        W28058  37.773  28.714   1.649
59665W        W28059  10.656   3.036   0.906
59666W        W28060  10.012   7.198   2.725
59667W        W28061  14.035  43.283   2.106
59668W        W28062  23.197   7.500  14.114
59669W        W28063  35.519  37.853   2.114
59670W        W28064   6.411  41.996   2.747
59671W        W28065  13.810  30.508  11.636
59672W        W28066   8.361  25.356  14.910
59673W        W28067   2.911  22.330   3.219
59674W        W28068  42.226  36.520   3.380
59675W        W28069   2.005  13.083  11.113
59676W        W28070  13.933  11.367  10.949
59677W        W28071  43.459  34.995  14.961
59678W        W28072  12.789  26.937  12.909
59679W        W28073  11.248  26.770   2.499
59680W        W28074   7.651  24.067   0.013
59681W        W28075  38.463  32.073  12.830
59682W        W28076  20.221   2.559  11.100
59683W        W28077  39.535   9.628   1.823
59684W        W28078   2.143  19.564   1.008
59685W        W28079  25.064  14.123  11.152
59686W        W28080  16.151   1.453   0.548
59687W        W28081  39.367  15.265   4.226
59688W        W28082  37.626  31.051   4.493
59689W        W28083  17.653   8.209   9.811
59690W        W28084  12.281   8.111  13.510
59691W        W28085  37.458  36.264  11.265
59692W        W28086  12.670  11.165  10.771
59693W        W28087  15.153   2.968  14.409
59694W        W28088  34.922  27.779   4.499
59695W        W28089  39.281  43.628  13.844
59696W        W28090  30.261  29.350  10.924
59697W        W28091  33.551  38.669   0.000
59698W        W28092  29.489   6.969   1.369
59699W        W28093  14.943  36.842  10.018
59700W        W28094  20.388   5.315   0.787
59701W        W28095  11.841   5.667  10.525
59702W        W28096  16.804  40.068  14.167
59703W        W28097   0.259  12.909  13.040
59704W        W28098  43.001   2.701   0.927
59705W        W28099  37.630   5.113  10.081
59706W        W28100   6.073   5.345   1.821
59707W        W28101  19.796  26.459   2.770
59708W        W28102  22.466  26.024  12.331
59709W        W28103  24.649  34.487   4.740
59710W        W28104  18.076  40.067   0.869
59711W        W28105  19.064   5.715   0.770
59712W        W28106  34.513   0.669   2.761
59713W        W28107   1.255  34.883  11.211
59714W        W28108  26.182  27.650  13.119
59715W        W28109  43.528  20.074  10.679
59716W        W28110  39.477  30.732  13.201
59717W        W28111   3.206  31.916  14.849
59718W        W28112  23.829  24.593  10.692
59719W        W28113   1.703  19.664   1.333
59720W        W28114  36.054  27.402  12.912
59721W        W28115   5.001  35.873   0.807
59722W        W28116  36.067   7.017  13.251
59723W        W28117   9.827  14.628  11.719
59724W        W28118  36.636  13.735  12.095
59725W        W28119  39.811  14.210   0.378
59726W        W28120  37.080  40.398   4.743
59727W        W28121   5.666  43.978  12.952
59728W        W28122  17.656  10.318   1.242
59729W        W28123  23.288  27.702  13.206
59730W        W28124  25.913   1.643  10.978
59731W        W28125  17.863   0.636   0.872
59732W        W28126   7.644  27.572   4.028
59733W        W28127  22.626  17.868  12.532
59734W        W28128  13.234   1.691  11.479
59735W        W28129   7.334  40.123   2.789
59736W        W28130  32.869  20.505   0.725
59737W        W28131  40.389  34.870  12.627
59738W        W28132  31.958   8.767  14.857
59739W        W28133  27.968   9.627   2.052
59740W        W28134  40.720  36.111  11.958
59741W        W28135   2.307  34.915   0.815
59742W        W28136  28.151  18.101  14.156
59743W        W28137  14.074  17.739   0.810
59744W        W28138   4.377  24.599   4.573
59745W        W28139  24.603   3.211   4.712
59746W        W28140  37.865   0.930  14.458
59747W        W28141  34.378  24.148  11.102
59748W        W28142  25.229   4.223   3.579
59749W        W28143  35.970  17.776  14.259
59750W        W28144  19.389  36.910   5.063
59751W        W28145   6.752   2.828   5.377
59752W        W28146  25.213   6.392   5.109
59753W        W28147  32.367  17.064  12.343
59754W        W28148  43.837  25.858   3.694
59755W        W28149   6.298  20.994   0.579
59756W        W28150  44.869  35.117   4.113
59757W        W28151  42.255  28.664   4.624
59758W        W28152  33.532  42.835   2.415
59759W        W28153   3.370  38.013   4.420
59760W        W28154  24.263  37.490  14.660
59761W        W28155  27.371  34.794  11.136
59762W        W28156  40.326  29.149   0.877
59763W        W28157  39.979   9.086   1.401
59764W        W28158  39.262  21.654  13.993
59765W        W28159   9.931  33.390  11.221
59766W        W28160   9.287  37.767  13.119
59767W        W28161  11.427  28.541   2.287
59768W        W28162  35.124  26.408   0.184
59769W        W28163  28.234  23.553   4.109
59770W        W28164   5.500  15.858   4.153
59771W        W28165   7.416  35.559  11.097
59772W        W28166  11.898  22.046   4.304
59773W        W28167  17.166  37.240   1.820
59774W        W28168  24.725  21.614  12.505
59775W        W28169  12.775  23.546   0.422
59776W        W28170  29.044  14.370   4.616
59777W        W28171  11.644  37.242   0.275
59778W        W28172  21.979  39.111   4.844
59779W        W28173   1.310  31.011   2.821
59780W        W28174   6.736  43.885   4.133
59781W        W28175  15.031  15.505  11.551
59782W        W28176  12.112  37.529   3.329
59783W        W28177  44.301  44.355  14.805
59784W        W28178  28.647  24.515  11.096
59785W        W28179  41.601  12.289   3.656
59786W        W28180   2.832  39.490   2.583
59787W        W28181  25.613  35.739   1.916
59788W        W28182  35.767   4.135   0.276
59789W        W28183  31.585  17.756   4.915
59790W        W28184  27.679   2.763   0.675
59791W        W28185  18.333   1.550   3.712
59792W        W28186  14.931  24.763   3.256
59793W        W28187  16.281  15.694  11.019
59794W        W28188  40.269   3.698   0.829
59795W        W28189  20.597   6.395   1.388
59796W        W28190  34.567  13.804  13.968
59797W        W28191  22.240  35.974   3.586
59798W        W28192  11.623  13.808  14.656
59799W        W28193  22.630  21.951  13.498
59800W        W28194   2.624   0.550  14.984
59801W        W28195  39.315  38.433  10.564
59802W        W28196  13.169  29.588  10.974
59803W        W28197   6.462  33.330   4.104
59804W        W28198  29.430   3.750  13.223
59805W        W28199  11.840  26.041   2.592
59806W        W28200  17.751  24.980   1.386
59807W        W28201  30.487  29.365  10.468
59808W        W28202  43.768   2.974  13.657
59809W        W28203  21.731  35.433  12.529
59810W        W28204  30.491  11.770  12.017
59811W        W28205   5.887  20.216   0.773
59812W        W28206  24.531  36.161  14.296
59813W        W28207  13.201  23.533   0.740
59814W        W28208   6.158  32.518   0.885
59815W        W28209   4.221  35.578   1.157
59816W        W28210  23.333  16.620   4.277
59817W        W28211  16.421  15.403   1.180
59818W        W28212  33.325  29.454  14.516
59819W        W28213  42.847  17.623  10.833
59820W        W28214   0.409  20.361   2.158
59821W        W28215  19.586  19.378  12.081
59822W        W28216  28.061  10.656   1.382
59823W        W28217  28.520   2.796  13.250
59824W        W28218  18.603  44.079   1.530
59825W        W28219   5.951  17.561   0.557
59826W        W28220  44.872  16.549  11.060
59827W        W28221  23.702  14.486   2.681
59828W        W28222  22.985  23.468   2.773
59829W        W28223  34.856   9.805  12.107
59830W        W28224  38.465   6.917   1.704
59831W        W28225  17.637  31.403   3.237
59832W        W28226  21.713  20.646  13.734
59833W        W28227  28.659  13.886   1.694
59834W        W28228   5.386   1.327  11.175
59835W        W28229  34.003  40.479   3.387
59836W        W28230  26.610  24.198   2.777
59837W        W28231  17.767   6.890   1.363
59838W        W28232   1.657  27.388   3.567
59839W        W28233  37.268   0.860  13.036
59840W        W28234  35.395  37.491  11.016
59841W        W28235   6.896  22.854  14.658
59842W        W28236  11.653  29.959  14.688
59843W        W28237  29.068   8.059  14.354
59844W        W28238  18.554  36.975  12.366
59845W        W28239  24.940  16.859  12.942
59846W        W28240  12.696  10.207  14.841
59847W        W28241  32.655  30.585  10.670
59848W        W28242  18.355  15.131   2.847
59849W        W28243   7.267  37.612   0.789
59850W        W28244   9.603  27.931  14.864
59851W        W28245  21.074   1.920  13.340
59852W        W28246  25.567   5.807  12.394
59853W        W28247  29.494   4.481   2.120
59854W        W28248   5.280  34.477  12.751
59855W        W28249  43.356  16.153  11.283
59856W        W28250  33.882  19.178  12.935
59857W        W28251   8.641   5.814  11.960
59858W        W28252  18.938  34.984  14.958
59859W        W28253  22.994  25.815  13.961
59860W        W28254  39.846  23.535   2.676
59861W        W28255   8.392  43.530  13.947
59862W        W28256  43.411   3.311   4.761
59863W        W28257   4.248  29.924  14.155
59864W        W28258  24.630  33.203  14.507
59865W        W28259  36.842   5.340   0.895
59866W        W28260  22.672  35.739  12.093
59867W        W28261  16.177  27.424  13.473
59868W        W28262  27.115  18.326  11.222
59869W        W28263   9.731  20.670   0.177
59870W        W28264  12.778   9.751  11.833
59871W        W28265   8.077  18.228   1.405
59872W        W28266  25.404  23.562  10.229
59873W        W28267  28.860  10.748  12.083
59874W        W28268  43.356  31.524   1.458
59875W        W28269  28.428  13.509  14.995
59876W        W28270   8.698  26.253  13.449
59877W        W28271  19.255   9.003  14.518
59878W        W28272  29.767  26.615   1.423
59879W        W28273  10.322  25.704  10.455
59880W        W28274  41.022   6.110  11.689
59881W        W28275   7.529  12.431  13.352
59882W        W28276   2.290  16.871  12.883
59883W        W28277  15.056  24.954  14.347
59884W        W28278  33.592  38.858   2.651
59885W        W28279  34.484  26.453   3.137
59886W        W28280   7.826  28.127   0.697
59887W        W28281  33.336   6.469  11.219
59888W        W28282  34.927  42.246  14.301
59889W        W28283  18.078  32.598  14.250
59890W        W28284  15.287   6.896   2.341
59891W        W28285  17.462  32.501   4.658
59892W        W28286  21.062   7.613  10.764
59893W        W28287   0.432  38.615   1.702
59894W        W28288  41.803  33.670   3.285
59895W        W28289   7.788  31.792   4.050
59896W        W28290  27.669  44.000   0.127
59897W        W28291  13.787  38.347  13.542
59898W        W28292  20.249   6.583   4.184
59899W        W28293  32.850  44.473  13.412
59900W        W28294  15.153  27.569   1.980
59901W        W28295  21.519  33.006  11.103
59902W        W28296  11.324  23.810  12.364
59903W        W28297  36.166  13.391   3.240
59904W        W28298  42.322  24.696  11.181
59905W        W28299  31.688  19.525  12.263
59906W        W28300  40.871  18.993  11.548
59907W        W28301   9.358  14.724  13.019
59908W        W28302   1.761  17.147   2.346
59909W        W28303  30.935  26.419   2.259
59910W        W28304  19.034  10.092   3.130
59911W        W28305   4.431   5.864   1.390
59912W        W28306  13.026  17.729   4.132
59913W        W28307  24.595  29.760   0.433
59914W        W28308   0.917  42.106  13.758
59915W        W28309  24.223  20.735  14.053
59916W        W28310   3.264  37.474  11.975
59917W        W28311  10.089  39.589   2.826
59918W        W28312  11.985  21.695  10.846
59919W        W28313   6.736  26.484   1.763
59920W        W28314  22.043   1.787  11.150
59921W        W28315  35.549   7.872   1.848
59922W        W28316  41.708  11.004   1.791
59923W        W28317   6.424  27.063  12.444
59924W        W28318  18.247  27.894   3.674
59925W        W28319  32.533  16.968  11.879
59926W        W28320  34.433   1.070   2.441
59927W        W28321  36.917   6.257   2.099
59928W        W28322  31.721  44.412   5.155
59929W        W28323  18.230   2.056  12.597
59930W        W28324  14.859  43.540   2.409
59931W        W28325  22.595  34.551   0.929
59932W        W28326  27.281  24.638   3.767
59933W        W28327   2.484  20.675   3.397
59934W        W28328  40.702  17.053   3.169
59935W        W28329   7.493  33.823   3.402
59936W        W28330  39.005  22.270  10.801
59937W        W28331   6.506  27.128   2.282
59938W        W28332  32.565   3.450  13.303
59939W        W28333  27.290   3.098   3.405
59940W        W28334  19.666  38.818  10.487
59941W        W28335  17.083  31.057  13.752
59942W        W28336  25.468  36.001  14.305
59943W        W28337  33.086  14.397   1.924
59944W        W28338  34.476   7.120   1.877
59945W        W28339   0.511  39.660   1.687
59946W        W28340  18.515  38.283   0.646
59947W        W28341  27.958   7.445  14.057
59948W        W28342  40.939  22.128   1.639
59949W        W28343   2.222  10.882   1.394
59950W        W28344  20.964   5.951  14.831
59951W        W28345  30.237   8.586   1.453
59952W        W28346   4.973  24.743  13.122
59953W        W28347  21.855  10.152   4.599
59954W        W28348  40.348   0.318  10.713
59955W        W28349   4.311  32.342  12.060
59956W        W28350  30.523  33.494   0.442
59957W        W28351  30.929  20.549   0.190
59958W        W28352  17.710   1.428   4.540
59959W        W28353  18.239   4.827  14.289
59960W        W28354  22.571  14.064  13.634
59961W        W28355   1.780   1.186   0.485
59962W        W28356  10.185  40.557   1.296
59963W        W28357  38.480   7.418  12.975
59964W        W28358  30.593  42.159   5.110
59965W        W28359   7.180  20.041   0.383
59966W        W28360  26.320   9.666  13.003
59967W        W28361   1.186  21.946   2.675
59968W        W28362  13.947  10.034   4.989
59969W        W28363   9.372  19.481   4.142
59970W        W28364  41.084  38.467  12.994
59971W        W28365   8.694  34.561  10.521
59972W        W28366  15.048   2.840   4.861
59973W        W28367  19.631  28.680   2.409
59974W        W28368   6.671   3.945  12.294
59975W        W28369   7.396  38.213  12.411
59976W        W28370  23.529  11.286   1.323
59977W        W28371  37.769   4.977  14.556
59978W        W28372  40.034  31.809  12.060
59979W        W28373  34.907  11.904   3.308
59980W        W28374   3.417   5.540   3.660
59981W        W28375  33.020  13.533   4.770
59982W        W28376  29.366  15.345   4.649
59983W        W28377  40.938  18.864   3.831
59984W        W28378  27.939  12.071  13.513
59985W        W28379  41.802   4.410   0.055
59986W        W28380  21.215   8.597  12.433
59987W        W28381  32.136  28.651  11.584
59988W        W28382  43.642   4.281  11.163
59989W        W28383   0.744  13.250   1.266
59990W        W28384  14.553  21.316   1.768
59991W        W28385   7.333  33.900   2.009
59992W        W28386  39.095   4.957   1.244
59993W        W28387  28.109  35.523   9.959
59994W        W28388  15.999  14.254   0.816
59995W        W28389  37.487  44.004   4.243
59996W        W28390   5.368  20.024  13.317
59997W        W28391  16.172  27.631  12.536
59998W        W28392  25.605  19.644   1.932
59999W        W28393   1.154  18.972  13.035
60000W        W28394  34.797  12.771  13.390
60001W        W28395  41.743  24.954  10.775
60002W        W28396  31.006  12.534  10.767
60003W        W28397   5.389  43.497   3.277
60004W        W28398   0.988  26.722   1.283
60005W        W28399  43.106  17.172  14.827
60006W        W28400  13.279  14.808  14.691
60007W        W28401  35.847   0.464  13.326
60008W        W28402  35.306  26.803   2.681
60009W        W28403  23.480  21.680  11.135
60010W        W28404  17.801  32.126   1.256
60011W        W28405  26.975   2.930  14.358
60012W        W28406  43.474  39.079  10.688
60013W        W28407   2.900   0.380   2.111
60014W        W28408   1.456   1.426   1.414
60015W        W28409   9.439  36.403  10.703
60016W        W28410  16.637  41.979   5.377
60017W        W28411  21.460  35.408  12.091
60018W        W28412   9.955  23.147  13.302
60019W        W28413  42.252  35.902   4.981
60020W        W28414  34.160   3.715   1.820
60021W        W28415  28.709   2.015   4.723
60022W        W28416  35.150   5.721  12.167
60023W        W28417  12.290   9.570   4.659
60024W        W28418  41.766   1.289   0.352
60025W        W28419  26.728  15.365  10.802
60026W        W28420  13.863  11.283   1.320
60027W        W28421   4.637  27.901  12.970
60028W        W28422  17.239   2.382   2.249
60029W        W28423  21.283  23.622   0.937
60030W        W28424  25.979   1.208  12.421
60031W        W28425  22.462  40.032   1.295
60032W        W28426  14.063   8.308  13.520
60033W        W28427  15.988  10.771  10.002
60034W        W28428  42.868   7.976  12.089
60035W        W28429  14.181   3.957  11.213
60036W        W28430   8.801  43.381   3.530
60037W        W28431  21.245  12.384  10.896
60038W        W28432  44.913  43.949  13.572
60039W        W28433  38.483   3.053   1.042
60040W        W28434  17.161  31.342  14.404
60041W        W28435   0.683  24.980   5.070
60042W        W28436   2.805  14.706  14.937
60043W        W28437   8.462  21.610  14.251
60044W        W28438  40.501  17.714  10.638
60045W        W28439  37.543  32.520  10.945
60046W        W28440  14.099  27.718   1.250
60047W        W28441  32.707  11.823   2.647
60048W        W28442  16.750   7.587  14.821
60049W        W28443  40.672  42.406   3.860
60050W        W28444  29.527  13.607   3.776
60051W        W28445  12.594  34.221   1.361
60052W        W28446   1.255  11.403  11.586
60053W        W28447   7.424  28.215   4.099
60054W        W28448   1.732   8.262  14.476
60055W        W28449  29.969  18.722  10.747
60056W        W28450  30.108  42.436  11.636
60057W        W28451   5.552  25.734  10.721
60058W        W28452  29.535  26.051  12.776
60059W        W28453  13.286  40.923   2.620
60060W        W28454  40.510  43.403   0.262
60061W        W28455  28.757  40.056  10.781
60062W        W28456  12.114  34.453  11.645
60063W        W28457  11.782  41.565  14.045
60064W        W28458  28.434   0.474  12.556
60065W        W28459  17.115  30.909  11.510
60066W        W28460  11.326  41.699  13.835
60067W        W28461   1.087  36.924   3.727
60068W        W28462  17.534  17.242   0.363
60069W        W28463  22.290   7.880   4.360
60070W        W28464  24.487  43.967   4.749
60071W        W28465  42.197  19.616  13.786
60072W        W28466  43.936  35.806   0.258
60073W        W28467  21.179   2.792   2.761
60074W        W28468  25.951  19.294   3.853
60075W        W28469  27.161  36.008   0.231
60076W        W28470   6.381  32.414   3.693
60077W        W28471  38.186  43.397   1.460
60078W        W28472  21.537  19.267   2.707
60079W        W28473   8.074  40.901  14.733
60080W        W28474  37.371  34.965   1.818
60081W        W28475  36.418  12.025  13.828
60082W        W28476   8.188  38.673   2.611
60083W        W28477  43.264  29.477  12.222
60084W        W28478  42.023  34.415   2.797
60085W        W28479  32.905  41.614   2.819
60086W        W28480  42.637  37.513   2.299
60087W        W28481  37.797  12.519  13.844
60088W        W28482  15.072  23.277  10.715
60089W        W28483  36.982  33.647  13.435
60090W        W28484  14.824   0.415   4.246
60091W        W28485   0.363  37.351   3.869
60092W        W28486  38.079   9.857  13.392
60093W        W28487  40.895   0.290  14.582
60094W        W28488   9.199   1.221   1.884
60095W        W28489   2.490  26.618   3.120
60096W        W28490  43.540  41.008  11.518
60097W        W28491  32.395   2.442  11.644
60098W        W28492  15.505   9.803   3.182
60099W        W28493  29.690   7.698   2.703
60100W        W28494  21.640   7.183   3.724
60101W        W28495  22.435  16.631   0.933
60102W        W28496  36.711   4.798  13.880
60103W        W28497   3.795   6.447  10.092
60104W        W28498  43.889  43.052  14.525
60105W        W28499  29.173  16.598   1.321
60106W        W28500  31.457  27.709  12.070
60107W        W28501  32.173   9.089   4.836
60108W        W28502  26.484   2.905   0.376
60109W        W28503  28.250  20.003   4.106
60110W        W28504  32.649   2.328   1.379
60111W        W28505  44.440  31.072  13.955
60112W        W28506  23.211  13.164  10.628
60113W        W28507  20.312   1.460   2.686
60114W        W28508  35.369  19.137  13.911
60115W        W28509  18.308  34.807   0.210
60116W        W28510   1.873  42.585   2.369
60117W        W28511  26.147  12.377   3.674
60118W        W28512  36.586   2.436  12.707
60119W        W28513  25.178  39.921  12.989
60120W        W28514  28.969  17.808  14.846
60121W        W28515   9.886  26.883   2.412
60122W        W28516  18.628  26.942   2.688
60123W        W28517  30.328  17.245   0.461
60124W        W28518  22.933  37.414  14.483
60125W        W28519  40.660   5.231  11.584
60126W        W28520  19.951  20.632   0.557
60127W        W28521  19.700   2.790   4.865
60128W        W28522  30.985  23.611  12.993
60129W        W28523  30.327   3.776  13.003
60130W        W28524  37.186   3.758  12.782
60131W        W28525  42.576  23.459  13.582
60132W        W28526  11.296   5.638   2.684
60133W        W28527  30.383  40.044   3.347
60134W        W28528  33.913  33.980  10.855
60135W        W28529  10.707  24.087   1.467
60136W        W28530   5.355  10.231   3.133
60137W        W28531  11.176  36.175  13.645
60138W        W28532   8.710   1.802  13.820
60139W        W28533  21.752  12.629   1.649
60140W        W28534  34.117  43.606  13.734
60141W        W28535  40.653   8.358  11.552
60142W        W28536   0.557  24.638  12.868
60143W        W28537  35.629  34.835  12.599
60144W        W28538   7.416  38.014   4.423
60145W        W28539  31.984  43.416  11.803
60146W        W28540  29.051  16.781  14.848
60147W        W28541  26.052  21.658   3.111
60148W        W28542  10.778  19.809  12.643
60149W        W28543   3.847  39.029   3.244
60150W        W28544   3.456  28.527   1.369
60151W        W28545  11.422  38.228   3.687
60152W        W28546  42.345  41.699  12.404
60153W        W28547  26.885  44.417  14.030
60154W        W28548  37.284  42.486  11.708
60155W        W28549   0.564   6.991   0.732
60156W        W28550  20.902   8.569  10.002
60157W        W28551  15.984   3.266   0.900
60158W        W28552   7.533   0.294   4.159
60159W        W28553  16.221  33.288  11.353
60160W        W28554  18.354  23.044   0.691
60161W        W28555  12.796  18.771   3.280
60162W        W28556  11.654  39.740   2.860
60163W        W28557  28.660  19.848  10.968
60164W        W28558   3.230  43.303   1.692
60165W        W28559  44.396  21.951  13.484
60166W        W28560  21.006   3.080  11.791
60167W        W28561  19.834   6.895   1.393
60168W        W28562  28.625  20.637  13.570
60169W        W28563  37.095  15.228  14.325
60170W        W28564  41.327  37.163  14.846
60171W        W28565  26.614  39.751   4.810
60172W        W28566  31.161  36.848   3.587
60173W        W28567   0.915  43.555  14.130
60174W        W28568  41.848  29.386   1.856
60175W        W28569  39.752  37.355  11.855
60176W        W28570   3.455  17.402  14.830
60177W        W28571  20.996   7.948   2.442
60178W        W28572  35.817  20.440  13.497
60179W        W28573   7.907  44.590  10.457
60180W        W28574   5.430  24.134   0.734
60181W        W28575   3.838  38.416   0.798
60182W        W28576  15.657  40.998   3.725
60183W        W28577  17.557  17.150   3.698
60184W        W28578  33.587  43.382   1.260
60185W        W28579  43.250  16.698  10.687
60186W        W28580  32.957  36.083   1.006
60187W        W28581  30.599  21.255   1.818
60188W        W28582  26.063  35.134  12.303
60189W        W28583  13.644  35.452  14.428
60190W        W28584  34.167  19.686  11.152
60191W        W28585  31.522  26.422   5.027
60192W        W28586  33.387  20.766  12.491
60193W        W28587   0.910  15.563   2.341
60194W        W28588  13.120  26.219   4.657
60195W        W28589   1.682  15.798   3.372
60196W        W28590   3.288  38.972   3.706
60197W        W28591  12.065  38.609  12.656
60198W        W28592   4.498  12.717  10.476
60199W        W28593  38.758   9.613   2.260
60200W        W28594  29.452   3.726   1.482
60201W        W28595  15.726  41.513   4.610
60202W        W28596  40.397  18.754  13.951
60203W        W28597   2.751  12.651   4.698
60204W        W28598  35.126  25.673  11.654
60205W        W28599  35.107  38.878   0.838
60206W        W28600  21.151  44.766   2.254
60207W        W28601  33.245  22.495  11.115
60208W        W28602   2.339  15.009   2.439
60209W        W28603  13.194   8.216  12.534
60210W        W28604   8.673  32.968   4.707
60211W        W28605  32.895  37.384  10.214
60212W        W28606  13.563  16.852  11.019
60213W        W28607  42.299   7.820   4.036
60214W        W28608  11.881  30.957   4.109
60215W        W28609   2.770  41.226   1.037
60216W        W28610  37.809  42.099  12.962
60217W        W28611  29.744  44.881   4.211
60218W        W28612   3.021  19.738   0.057
60219W        W28613  31.967  21.512  11.726
60220W        W28614  11.607   3.920   2.464
60221W        W28615  36.538  16.063  13.475
60222W        W28616  18.763  23.802   1.716
60223W        W28617  42.031  30.967  13.922
60224W        W28618  20.584  44.518   0.330
60225W        W28619  39.165  35.582   1.280
60226W        W28620  19.775  24.072  11.882
60227W        W28621   7.965   6.280  12.453
60228W        W28622  22.707  33.338  14.359
60229W        W28623  30.087  20.945  13.014
60230W        W28624  30.222  34.608  13.432
60231W        W28625  10.396  25.563   2.384
60232W        W28626  39.009   5.695   0.837
60233W        W28627  21.212  12.365  14.712
60234W        W28628   8.616  34.870  14.390
60235W        W28629  40.907  25.577  14.119
60236W        W28630  37.552  40.524   2.733
60237W        W28631  14.378   7.678   1.308
60238W        W28632  19.210  27.375   4.299
60239W        W28633  28.253  40.629   4.560
60240W        W28634  25.807  35.049   3.974
60241W        W28635  29.156  24.954  12.471
60242W        W28636   2.910  18.503  13.505
60243W        W28637   8.215  25.853  14.897
60244W        W28638  44.482   6.161  13.193
60245W        W28639  28.036   9.178   0.871
60246W        W28640  24.522  28.945  11.148
60247W        W28641  33.862  11.406   0.953
60248W        W28642  41.504  22.626  12.805
60249W        W28643   6.381   9.494  12.836
60250W        W28644   2.506  11.279   1.109
60251W        W28645  38.566  23.197  13.596
60252W        W28646  14.378  39.744  12.473
60253W        W28647  32.858  29.235   4.457
60254W        W28648  34.819  19.609  10.459
60255W        W28649   8.921   8.717  11.990
60256W        W28650  24.173  22.624  10.691
60257W        W28651  38.863  44.477  11.249
60258W        W28652  15.155  40.618  12.106
60259W        W28653   1.952  25.856   4.724
60260W        W28654  32.455  16.609   1.549
60261W        W28655  28.518  30.647  13.785
60262W        W28656   0.218  41.342   4.799
60263W        W28657   1.443  34.025  14.127
60264W        W28658   5.815   1.242  12.822
60265W        W28659  22.622   3.814  13.835
60266W        W28660  37.983  29.094   4.948
60267W        W28661  16.771  34.018   4.638
60268W        W28662  20.430  43.128   0.539
60269W        W28663  27.536  10.594   1.467
60270W        W28664   7.973  30.123   4.621
60271W        W28665   8.852   5.949   4.833
60272W        W28666  21.104  20.789   3.820
60273W        W28667  10.767  23.358   2.853
60274W        W28668  40.606  31.433   3.527
60275W        W28669  12.784   9.342  10.692
60276W        W28670  22.211  26.607   4.069
60277W        W28671  14.086   3.014   0.311
60278W        W28672  34.847  15.099   2.413
60279W        W28673  24.591  17.667  14.378
60280W        W28674  15.760  12.110   4.733
60281W        W28675  30.304  29.716   3.848
60282W        W28676   9.440   0.403  12.617
60283W        W28677   3.379  40.454  11.570
60284W        W28678  14.397   2.811  11.672
60285W        W28679  14.768  40.045  11.585
60286W        W28680  36.133   4.857  11.516
60287W        W28681  16.789  12.118  10.467
60288W        W28682   9.401  42.358   0.446
60289W        W28683  29.966  37.614   0.287
60290W        W28684   1.159  22.005  11.532
60291W        W28685  18.722  36.484  14.470
60292W        W28686   4.522  11.123  13.485
60293W        W28687  25.114  16.123  14.734
60294W        W28688   3.428   3.523  11.164
60295W        W28689  30.568  34.017   0.554
60296W        W28690  29.456  19.345  12.076
60297W        W28691  19.727  10.387  10.695
60298W        W28692  25.663  14.182   4.939
60299W        W28693  19.011  36.927  14.420
60300W        W28694  15.788  28.084  14.559
60301W        W28695  30.978  13.262   2.905
60302W        W28696  24.919   5.827  13.107
60303W        W28697  14.288  40.486  13.058
60304W        W28698  43.375  13.719  11.506
60305W        W28699  28.616  29.387  14.799
60306W        W28700  34.140   9.381  12.813
60307W        W28701   1.154  13.567   2.356
60308W        W28702  23.731   7.865  12.361
60309W        W28703   1.020  37.336   2.644
60310W        W28704  29.733  38.968   2.354
60311W        W28705  41.247   6.784  12.799
60312W        W28706  13.744  27.484  12.316
60313W        W28707   6.240   5.924  10.513
60314W        W28708  44.190  24.197   4.038
60315W        W28709  14.569   0.061   3.127
60316W        W28710  22.285  17.715  10.759
60317W        W28711  11.929  23.350   3.247
60318W        W28712  12.821  33.381  13.795
60319W        W28713   9.882   6.333  14.351
60320W        W28714  13.151  39.017  13.377
60321W        W28715  20.621   0.272   5.034
60322W        W28716  25.906  38.375   3.710
60323W        W28717  24.003  14.190  10.300
60324W        W28718  32.075   1.452   2.197
60325W        W28719   2.946  27.537  12.454
60326W        W28720  31.182  10.116   4.278
60327W        W28721  34.798  35.027   5.453
60328W        W28722   7.858  17.768  12.594
60329W        W28723  39.926  35.918  10.213
60330W        W28724  44.791  34.570   0.905
60331W        W28725  36.358  23.112   0.435
60332W        W28726  28.428   6.101  10.525
60333W        W28727  30.091   1.113   3.331
60334W        W28728  29.629  28.608   3.161
60335W        W28729   1.997  40.391  11.480
60336W        W28730   6.274  43.051   4.960
60337W        W28731  18.968  40.573  10.150
60338W        W28732  23.028  29.817  13.628
60339W        W28733  23.058  13.022  11.946
60340W        W28734  17.557  44.254  13.010
60341W        W28735  41.160  42.937  13.636
60342W        W28736  27.364  44.934  11.355
60343W        W28737  18.075  44.450   4.180
60344W        W28738   2.346  21.657  11.484
60345W        W28739  11.161  13.136  11.580
60346W        W28740   0.911  38.335   4.676
60347W        W28741  26.055  39.833  11.728
60348W        W28742   6.372   7.656   4.614
60349W        W28743  34.128   1.350   4.071
60350W        W28744  17.118  13.899  14.611
60351W        W28745  20.106  22.712  10.686
60352W        W28746  44.569  10.294   1.331
60353W        W28747  31.467  23.422  11.705
60354W        W28748  42.789  13.106   4.450
60355W        W28749  38.853  43.456  10.774
60356W        W28750   4.972  26.571  14.001
60357W        W28751  14.342  12.598  11.141
60358W        W28752  39.999  35.370  12.494
60359W        W28753   9.453   5.112   2.717
60360W        W28754  32.236  34.809   2.747
60361W        W28755  28.731  23.800   3.221
60362W        W28756  44.490  13.314   2.864
60363W        W28757  39.439  33.328  10.695
60364W        W28758  40.898  41.274   3.310
60365W        W28759   9.451  15.775  11.173
60366W        W28760  13.079  41.306  12.910
60367W        W28761  22.148  31.994   0.490
60368W        W28762   8.541  39.569  13.811
60369W        W28763  17.064  19.056  13.423
60370W        W28764   5.874   6.471  11.177
60371W        W28765   6.670  28.266  11.038
60372W        W28766  32.780   9.732  11.916
60373W        W28767  24.608   3.361   4.207
60374W        W28768   0.135  30.644   1.314
60375W        W28769   0.849  18.201  13.915
60376W        W28770  28.481   2.435   0.869
60377W        W28771  22.537  28.223  10.905
60378W        W28772  26.919   3.195   0.445
60379W        W28773  19.603  20.004   4.097
60380W        W28774   3.993  38.546   1.758
60381W        W28775   6.491  11.772   4.462
60382W        W28776  33.388  41.117  10.494
60383W        W28777  19.904  14.261   3.919
60384W        W28778   5.488   6.848  11.073
60385W        W28779  38.853  21.031   1.831
60386W        W28780  30.522  41.856  12.863
60387W        W28781  40.408  29.346  13.617
60388W        W28782  29.362  19.574   2.626
60389W        W28783   7.699  10.712   2.146
60390W        W28784   7.656  34.032  12.010
60391W        W28785  34.995   1.877  13.198
60392W        W28786  36.004  40.243   2.249
60393W        W28787  31.979  15.181  12.896
60394W        W28788  12.254  18.121   2.444
60395W        W28789  31.887  25.470  12.013
60396W        W28790   7.736  24.728  13.626
60397W        W28791   8.140  32.963  13.088
60398W        W28792  23.571  10.879   0.492
60399W        W28793  21.497  43.747   2.529
60400W        W28794  31.650  38.925  13.993
60401W        W28795  19.583   1.982   0.729
60402W        W28796  11.268  19.067  13.419
60403W        W28797   1.404  36.515  10.488
60404W        W28798  21.178  31.601   1.850
60405W        W28799  39.901  43.503   4.218
60406W        W28800  43.940  42.538  14.535
60407W        W28801  14.089  28.928   4.788
60408W        W28802   1.495   1.335   4.146
60409W        W28803  29.492  31.870   0.306
60410W        W28804  12.379  19.221   3.191
60411W        W28805  11.218   0.664  10.536
60412W        W28806  39.038  14.592  14.839
60413W        W28807  14.070   2.448   3.776
60414W        W28808  20.458  38.258   4.074
60415W        W28809  19.563  44.254   1.355
60416W        W28810  14.539  12.886   4.051
60417W        W28811  36.256  32.110   0.516
60418W        W28812   7.610  16.505  14.801
60419W        W28813  43.725  10.831   3.290
60420W        W28814  44.937  28.545  11.409
60421W        W28815   1.248  21.535  12.617
60422W        W28816  43.888  13.797   2.349
60423W        W28817  41.507  35.424   3.244
60424W        W28818  26.681   6.326  12.491
60425W        W28819  35.699  42.815  13.668
60426W        W28820  21.296  29.327  12.581
60427W        W28821   4.095  28.657   3.724
60428W        W28822  36.162  21.647   2.420
60429W        W28823  19.210  16.089   2.774
60430W        W28824  15.644  28.540  14.380
60431W        W28825  21.759  18.772  10.905
60432W        W28826   8.012  15.166  13.333
60433W        W28827  20.641   5.343  12.076
60434W        W28828  24.318  14.239   0.881
60435W        W28829  11.372  13.747   0.721
60436W        W28830   5.948   7.789   4.882
60437W        W28831  31.373  35.848   1.949
60438W        W28832   9.812  41.035   0.373
60439W        W28833   7.050  16.055  10.487
60440W        W28834  31.443  20.786   4.184
60441W        W28835  37.791  34.964   3.630
60442W        W28836  28.623  21.066  14.868
60443W        W28837  26.013  27.654  12.631
60444W        W28838   3.712  18.548  14.404
60445W        W28839  29.837  39.973   1.744
60446W        W28840  31.391   8.282  11.262
60447W        W28841  15.291  40.779  10.623
60448W        W28842  36.796  40.359   2.662
60449W        W28843  29.526  24.926  14.864
60450W        W28844  19.571   7.790   3.725
60451W        W28845   8.221  33.456   1.225
60452W        W28846  38.807  39.564   2.283
60453W        W28847  11.389  20.771  10.429
60454W        W28848  35.611  36.616   0.885
60455W        W28849   4.251   7.420   3.121
60456W        W28850  19.482  23.243  13.332
60457W        W28851  38.330  18.816   0.250
60458W        W28852  35.510  24.782   2.175
60459W        W28853  12.316  29.087   4.314
60460W        W28854   6.895   8.432  14.814
60461W        W28855  23.961   8.310  10.228
60462W        W28856  23.695   1.339   1.773
60463W        W28857  32.581  10.653   1.660
60464W        W28858  41.768  39.920  14.349
60465W        W28859  41.303   2.447  13.543
60466W        W28860  32.993  14.703   3.394
60467W        W28861   6.797  44.173  14.550
60468W        W28862  35.666  18.221   3.313
60469W        W28863  20.201  44.858  14.440
60470W        W28864   4.050  14.446   1.307
60471W        W28865  10.629  18.820  11.461
60472W        W28866  23.727   8.865   2.215
60473W        W28867  30.719  34.592   2.620
60474W        W28868  11.517  36.872   4.372
60475W        W28869  11.612  25.208  13.430
60476W        W28870  18.987  20.325   4.876
60477W        W28871  37.839   7.118   1.943
60478W        W28872  30.972  38.450   3.192
60479W        W28873  21.020  23.053   3.916
60480W        W28874  20.642  44.987   2.212
60481W        W28875  16.319   0.043  12.981
60482W        W28876  11.413   2.203  11.644
60483W        W28877  43.532  30.708   3.724
60484W        W28878  15.633  38.434  11.972
60485W        W28879   4.924  32.032   2.388
60486W        W28880  38.178  20.177  10.881
60487W        W28881   9.453  15.788  14.925
60488W        W28882  35.589  14.098  14.865
60489W        W28883  40.411  13.298   4.459
60490W        W28884  13.759  28.387  11.390
60491W        W28885  28.965  43.124  11.954
60492W        W28886  39.338   8.556   2.548
60493W        W28887  20.823  33.344   4.258
60494W        W28888  36.521  42.253  11.090
60495W        W28889   8.784  11.085   3.247
60496W        W28890  34.641   9.239  12.901
60497W        W28891  27.948  16.014   1.730
60498W        W28892  32.973  26.615  10.118
60499W        W28893   5.973  27.513  11.378
60500W        W28894  13.713  34.102   4.460
60501W        W28895  21.587  23.473   2.196
60502W        W28896  34.398  16.036  14.544
60503W        W28897  20.808  33.870  12.497
60504W        W28898  37.591  24.705  14.944
60505W        W28899  42.835  34.259   2.162
60506W        W28900  44.138  27.072  11.818
60507W        W28901  38.806  35.384   1.922
60508W        W28902  41.241  40.869   3.744
60509W        W28903  14.068  29.740   1.854
60510W        W28904  33.644  19.576  11.191
60511W        W28905  19.703  14.123   2.185
60512W        W28906  32.407  26.646  13.282
60513W        W28907  24.107  35.002   9.974
60514W        W28908  39.972  25.832  14.467
60515W        W28909  39.331  16.023  10.816
60516W        W28910  11.652   7.867   1.055
60517W        W28911  43.096  26.013  10.730
60518W        W28912   4.389  31.852  11.974
60519W        W28913   2.911   3.280  12.028
60520W        W28914  23.201  16.709   2.869
60521W        W28915  31.135  28.409  13.861
60522W        W28916  25.529  22.757   1.802
60523W        W28917  12.625  13.500  12.100
60524W        W28918   5.413  10.603  14.520
60525W        W28919  11.629  33.362   4.099
60526W        W28920   2.127  27.311   2.673
60527W        W28921  29.009  28.144  14.430
60528W        W28922  24.193  17.082   1.923
60529W        W28923  28.185  13.492   3.416
60530W        W28924  27.419  19.035   3.093
60531W        W28925  13.149  19.775   4.696
60532W        W28926   5.336  14.723   1.807
60533W        W28927  13.723  37.008  10.800
60534W        W28928  27.660  32.055   0.834
60535W        W28929  17.696  16.356  10.130
60536W        W28930  23.218  42.636   1.552
60537W        W28931  32.465  41.703   1.027
60538W        W28932  26.667  10.259  14.323
60539W        W28933  21.147  32.055   4.130
60540W        W28934  12.780   9.114   0.474
60541W        W28935  43.468  23.935   2.633
60542W        W28936  16.240  18.523   2.190
60543W        W28937  23.758   3.848  11.098
60544W        W28938  11.113   3.656  12.285
60545W        W28939  24.690   8.828  13.630
60546W        W28940  34.100   3.895  14.034
60547W        W28941  27.941  26.645   4.189
60548W        W28942  41.373  26.650  12.044
60549W        W28943   8.374  43.248  14.385
60550W        W28944  11.650  21.226   3.745
60551W        W28945  24.656  18.124   4.733
60552W        W28946   7.148  21.422   3.368
60553W        W28947  29.022  23.636  11.423
60554W        W28948   1.215  13.851   0.656
60555W        W28949  40.597  32.410   1.695
60556W        W28950  42.202  35.436   2.852
60557W        W28951  34.924  43.363   1.343
60558W        W28952  44.248   5.942   1.610
60559W        W28953  24.615  11.277   3.397
60560W        W28954  39.942   2.345   0.175
60561W        W28955  26.967   3.892   4.544
60562W        W28956   5.014  12.809   0.508
60563W        W28957  25.042  17.805   0.830
60564W        W28958  15.541  24.376  13.010
60565W        W28959  27.703  34.680   0.333
60566W        W28960   3.191   6.457   0.229
60567W        W28961  21.710  22.695  13.529
60568W        W28962  10.467  24.203   0.841
60569W        W28963  31.477   0.734   4.737
60570W        W28964   2.925   1.429   2.168
60571W        W28965  37.281  18.353   4.041
60572W        W28966  37.891   4.165   4.339
60573W        W28967   8.123  28.518   0.501
60574W        W28968  40.757  29.600   0.877
60575W        W28969  26.550  42.036  12.928
60576W        W28970   8.362  23.129   1.880
60577W        W28971  11.232  22.164  11.564
60578W        W28972  24.515  40.298   3.317
60579W        W28973  26.960   1.202   2.894
60580W        W28974   0.046  38.493  10.264
60581W        W28975  35.784  13.404  12.525
60582W        W28976  18.275  29.737   4.808
60583W        W28977  17.097   1.900  14.067
60584W        W28978  13.503  40.575  10.847
60585W        W28979  22.127  37.243  13.326
60586W        W28980  37.324  37.779   4.078
60587W        W28981  34.099  41.298   1.851
60588W        W28982  23.739   8.442  13.522
60589W        W28983  11.937   8.153  12.089
60590W        W28984  39.106  20.099   3.887
60591W        W28985  23.732   1.384   0.812
60592W        W28986  37.894  35.918  12.913
60593W        W28987  15.775   3.436   2.179
60594W        W28988   4.632  25.893   1.589
60595W        W28989  23.164  24.151  14.528
60596W        W28990  19.268  31.482   4.919
60597W        W28991  30.473  35.030   2.124
60598W        W28992  42.729   6.896   0.309
60599W        W28993  33.832  21.049   4.609
60600W        W28994  41.743   6.082  11.225
60601W        W28995  36.402  32.912  11.460
60602W        W28996  31.694   9.227   4.593
60603W        W28997   1.255   7.208   2.476
60604W        W28998  41.099   1.824  12.392
60605W        W28999  20.297  23.689  14.357
60606W        W29000  15.765   0.303  13.498
60607W        W29001   6.837  19.900  13.928
60608W        W29002  35.358  23.564  13.515
60609W        W29003  28.214  36.546  14.089
60610W        W29004  27.073  32.869  12.387
60611W        W29005  29.489  42.327   1.886
60612W        W29006  32.405  23.665  13.295
60613W        W29007  33.900   2.976   3.258
60614W        W29008  40.892  44.374   0.019
60615W        W29009  15.574  17.260  13.139
60616W        W29010  41.037   5.427   1.734
60617W        W29011  13.615  16.075  14.423
60618W        W29012  43.718   7.778   4.246
60619W        W29013  34.058  10.729   1.226
60620W        W29014  32.076  34.669  13.967
60621W        W29015  34.680  20.243   2.196
60622W        W29016   2.920  23.300  13.545
60623W        W29017  31.951  21.630   0.524
60624W        W29018   5.152  10.088  12.647
60625W        W29019  14.105  12.050   2.471
60626W        W29020   4.966  12.986  11.236
60627W        W29021  43.500  14.171  11.201
60628W        W29022   4.708  40.380  12.967
60629W        W29023  36.645   2.958   0.369
60630W        W29024   4.560  10.982  10.834
60631W        W29025  18.390   0.355  11.888
60632W        W29026  35.760  43.806   2.472
60633W        W29027   1.322  37.973   4.566
60634W        W29028  43.061  19.372   1.265
60635W        W29029  10.392   7.769   4.102
60636W        W29030  27.205  14.757   1.225
60637W        W29031  37.947  12.163  14.813
60638W        W29032   0.050  34.963  12.532
60639W        W29033  19.536  25.553  10.295
60640W        W29034  21.459  33.822  11.890
60641W        W29035  16.429  37.235  14.426
60642W        W29036   8.769  26.072   3.849
60643W        W29037  24.255   8.161   1.257
60644W        W29038  27.966  15.759  14.882
60645W        W29039  30.923  23.247   4.177
60646W        W29040  17.262  32.244   0.368
60647W        W29041  44.457  13.659  13.491
60648W        W29042  26.693   9.429   2.605
60649W        W29043  26.001   7.126  14.125
60650W        W29044  13.457  14.087   5.287
60651W        W29045   5.961  25.063   4.132
60652W        W29046   8.828   0.453  13.936
60653W        W29047  44.349  35.622   4.573
60654W        W29048  25.093  39.529   3.555
60655W        W29049  29.554  23.185  12.508
60656W        W29050  41.695  30.722   2.719
60657W        W29051  13.624  17.636   0.569
60658W        W29052  25.061  27.394  10.452
60659W        W29053  32.400  29.529  11.914
60660W        W29054  28.411  20.374   0.546
60661W        W29055  30.708  29.329  11.168
60662W        W29056  29.495   1.418  12.106
60663W        W29057  20.801  10.648   3.933
60664W        W29058  43.060  43.095  13.589
60665W        W29059  42.162   6.673  13.546
60666W        W29060  39.297   3.944   4.191
60667W        W29061  36.573  15.341  14.300
60668W        W29062  38.558   7.869  13.850
60669W        W29063  39.059  13.365  10.657
60670W        W29064   5.332  35.124  13.570
60671W        W29065  33.819  36.094   3.185
60672W        W29066  38.251  19.823  14.961
60673W        W29067   6.955  20.012  12.238
60674W        W29068  22.720  27.160  14.861
60675W        W29069  18.988  36.823  11.805
60676W        W29070  10.416  20.277   4.604
60677W        W29071   6.418   1.965  14.682
60678W        W29072  40.471  44.333   0.783
60679W        W29073  16.641   4.323  10.112
60680W        W29074  39.358  12.415   1.212
60681W        W29075   5.104  35.990   3.627
60682W        W29076  11.164  12.902  11.095
60683W        W29077  20.462   5.725   2.604
60684W        W29078  18.411  38.225   1.202
60685W        W29079  19.271  19.450  11.697
60686W        W29080   7.875  21.023  13.996
60687W        W29081   9.287  37.206  13.326
60688W        W29082  39.595   1.585   1.983
60689W        W29083  24.467   7.719   3.366
60690W        W29084  28.848   0.707   3.210
60691W        W29085   9.421  26.616  10.287
60692W        W29086   8.146  21.267   2.828
60693W        W29087  21.524  17.504  11.996
60694W        W29088   9.713  41.275  12.853
60695W        W29089  20.451  17.120   1.302
60696W        W29090  34.486  26.992   1.201
60697W        W29091  24.646  25.096   1.667
60698W        W29092  24.126  28.137  14.974
60699W        W29093   3.554  17.818   3.704
60700W        W29094  31.125  29.944   0.758
60701W        W29095  15.352   7.427   5.040
60702W        W29096  37.916   6.454  12.499
60703W        W29097  18.216  34.591   1.444
60704W        W29098  19.567  39.250  10.193
60705W        W29099  31.495  44.769   4.652
60706W        W29100  11.282   9.288   1.958
60707W        W29101  15.481   3.377   1.762
60708W        W29102   9.221   8.142  13.501
60709W        W29103   7.133  15.568  11.230
60710W        W29104   1.781  33.194  12.231
60711W        W29105  30.404  23.934   4.265
60712W        W29106  21.455  42.589  13.083
60713W        W29107  20.036  34.840   2.678
60714W        W29108   0.889   0.255   4.719
60715W        W29109  31.073  38.593  13.570
60716W        W29110  16.973   2.303   1.808
60717W        W29111  38.862  39.458  13.460
60718W        W29112   0.724  26.556   0.876
60719W        W29113   7.698  33.515   1.279
60720W        W29114  14.004  14.084  12.056
60721W        W29115   9.589  31.751   4.156
60722W        W29116  19.955  15.789   4.971
60723W        W29117   8.453  31.774   1.816
60724W        W29118   2.943  18.781   4.108
60725W        W29119   8.560  22.676   2.680
60726W        W29120  12.758  17.062   2.803
60727W        W29121   0.735  26.087  10.682
60728W        W29122  34.388  40.400  10.608
60729W        W29123  34.836  16.663  12.176
60730W        W29124  23.664  37.586  10.085
60731W        W29125  16.620  27.018  12.852
60732W        W29126  29.590  39.302  12.496
60733W        W29127  41.577  31.575   3.834
60734W        W29128  21.044  32.488   4.761
60735W        W29129  29.088  16.072  14.365
60736W        W29130  36.247  30.233  12.647
60737W        W29131  31.644  15.629  11.169
60738W        W29132  40.773  38.874  13.005
60739W        W29133  41.935  16.573   4.559
60740W        W29134  21.160  27.715   0.778
60741W        W29135  28.718  30.490   2.229
60742W        W29136  12.374  40.512   4.351
60743W        W29137   6.928  25.711   2.430
60744W        W29138  28.351  22.547   1.782
60745W        W29139  29.453   0.901  10.751
60746W        W29140  13.752  11.156  11.382
60747W        W29141   0.848  10.318  12.008
60748W        W29142  23.378   9.523  11.047
60749W        W29143  12.321  31.604  10.760
60750W        W29144  34.196  22.680  13.394
60751W        W29145   1.288  10.596  12.015
60752W        W29146  27.062  27.589  14.985
60753W        W29147  20.465  12.893  14.773
60754W        W29148   9.364  40.284  13.030
60755W        W29149  41.263  13.969  11.201
60756W        W29150  10.222  16.243   3.439
60757W        W29151  33.552  29.177   0.743
60758W        W29152   8.700  33.551   5.015
60759W        W29153  44.867  28.056  12.869
60760W        W29154  32.335  14.785  11.016
60761W        W29155  23.974  42.883   3.515
60762W        W29156  41.502  15.181   2.332
60763W        W29157  38.437   2.971   5.090
60764W        W29158  43.758  11.270  12.593
60765W        W29159  41.553  44.815  11.664
60766W        W29160   9.651   1.698  14.851
60767W        W29161  20.260  20.294  11.020
60768W        W29162  28.074  23.186   3.167
60769W        W29163  41.051  43.387   0.374
60770W        W29164  17.038  17.133   0.269
60771W        W29165  41.835  11.751   0.519
60772W        W29166  19.622  32.280  12.076
60773W        W29167  39.238  43.799   4.783
60774W        W29168   1.947  32.539   2.393
60775W        W29169  37.032  15.607   5.097
60776W        W29170  13.656  23.034  13.343
60777W        W29171  39.797  43.474  10.776
60778W        W29172  25.236   9.252   2.773
60779W        W29173  41.561  37.656  14.821
60780W        W29174  21.557  44.533  11.436
60781W        W29175  18.129   2.157  11.302
60782W        W29176  31.178  37.313  14.317
60783W        W29177  21.964  36.285  12.403
60784W        W29178  35.912  30.963  14.876
60785W        W29179  22.544  24.787   0.964
60786W        W29180   0.834  15.039   2.448
60787W        W29181  25.714  15.033  14.276
60788W        W29182  19.308  18.134   2.142
60789W        W29183   8.912  21.735   0.990
60790W        W29184  30.039  27.713  13.019
60791W        W29185   9.372  32.560   4.502
60792W        W29186   6.450  41.302  11.741
60793W        W29187   8.246  19.268   2.609
60794W        W29188  10.158  13.965  10.673
60795W        W29189  29.102  35.433  10.733
60796W        W29190  18.653   1.819   4.582
60797W        W29191  29.244   2.471  14.377
60798W        W29192  11.463  15.909  14.438
60799W        W29193  13.404  31.085   2.151
60800W        W29194  12.114   0.195  14.702
60801W        W29195  41.551  27.870   0.353
60802W        W29196   0.473   0.251   3.867
60803W        W29197  21.997  21.016  14.014
60804W        W29198   0.483  37.035  14.168
60805W        W29199  10.448  41.037  12.166
60806W        W29200  37.230  16.062   0.286
60807W        W29201  12.185  24.799  12.457
60808W        W29202   5.787   0.021   0.468
60809W        W29203  39.034  42.063   1.188
60810W        W29204   1.801  31.029   0.315
60811W        W29205  12.279  42.828  11.144
60812W        W29206  44.371   2.769   4.333
60813W        W29207  37.766   0.515   1.292
60814W        W29208  21.306   0.421   4.050
60815W        W29209  32.713   6.382   0.027
60816W        W29210  38.014  36.799  11.976
60817W        W29211   8.918  22.042   0.571
60818W        W29212   7.897  10.513  12.869
60819W        W29213   9.140  42.208   3.460
60820W        W29214   4.637  32.358  11.203
60821W        W29215  25.527  42.572   3.199
60822W        W29216  27.997   7.021  10.351
60823W        W29217  15.751  16.855  10.147
60824W        W29218  43.637  35.703  11.690
60825W        W29219  14.656  14.409   4.230
60826W        W29220  26.100  19.849   5.074
60827W        W29221   0.457  17.341  12.455
60828W        W29222   0.398   5.328  13.897
60829W        W29223  43.367  44.198  12.487
60830W        W29224  27.926  42.912  14.586
60831W        W29225  17.642  39.409   1.125
60832W        W29226   7.164  39.145  11.585
60833W        W29227  12.570  43.339   1.583
60834W        W29228  16.106  19.818  10.303
60835W        W29229  25.440  27.477  11.821
60836W        W29230  39.290  15.040  11.699
60837W        W29231   2.664   4.755   4.753
60838W        W29232  39.973  39.292   3.664
60839W        W29233   1.440  44.301   0.641
60840W        W29234  23.173  44.828   1.731
60841W        W29235  29.126   0.447   1.242
60842W        W29236  31.220  14.654   2.642
60843W        W29237  20.451  44.118  12.438
60844W        W29238  30.921  24.103   0.471
60845W        W29239  35.259  30.837   2.739
60846W        W29240  12.723  44.477  13.402
60847W        W29241  35.854  10.141  12.325
60848W        W29242  37.052  15.119  11.190
60849W        W29243  38.852  39.508  12.648
60850W        W29244  22.595  24.457   1.363
60851W        W29245   6.753   6.136   5.538
60852W        W29246  32.613  15.074  13.963
60853W        W29247  39.399   0.788   3.229
60854W        W29248  24.985   4.580   3.331
60855W        W29249  37.054  35.066  10.701
60856W        W29250  18.069  42.748   4.511
60857W        W29251  24.443  22.686  13.519
60858W        W29252  15.065  17.507   2.695
60859W        W29253  19.259   3.534   4.900
60860W        W29254  32.022   6.141  12.663
60861W        W29255  35.162  31.120  12.449
60862W        W29256  13.021  22.027   4.537
60863W        W29257   1.924   4.690   0.157
60864W        W29258  32.153  33.839  14.260
60865W        W29259  15.760  17.385   4.661
60866W        W29260  34.681  12.856   2.681
60867W        W29261  16.072  41.052   2.616
60868W        W29262  41.667  43.134   3.239
60869W        W29263  25.310  26.987  11.938
60870W        W29264  10.989  23.088  13.384
60871W        W29265   7.353   6.232   5.129
60872W        W29266   9.698  29.534  10.932
60873W        W29267   0.205  32.418   0.889
60874W        W29268  39.061  23.192  12.906
60875W        W29269   0.613   1.761   1.150
60876W        W29270  42.194  15.373   1.791
60877W        W29271  29.039  14.722  14.767
60878W        W29272  29.005  24.145  12.057
60879W        W29273   3.035   5.287   3.407
60880W        W29274  36.070   9.039  14.063
60881W        W29275   0.923  33.837  13.480
60882W        W29276  35.009  24.711   0.828
60883W        W29277   7.104   7.656   3.099
60884W        W29278  22.849  44.513  13.751
60885W        W29279  41.247  20.954  10.991
60886W        W29280  40.252  16.898   3.399
60887W        W29281  20.134  18.577   3.187
60888W        W29282  19.102   2.491  13.389
60889W        W29283  16.059  18.203   5.447
60890W        W29284  43.014   2.824   3.575
60891W        W29285  26.944  30.883   0.393
60892W        W29286  13.340  23.955  14.118
60893W        W29287   5.729  22.171   2.276
60894W        W29288  31.587  38.356   1.523
60895W        W29289  12.378  29.407  13.750
60896W        W29290  17.713  24.241  12.590
60897W        W29291  17.287  24.258   3.275
60898W        W29292  19.678   5.350  13.635
60899W        W29293  17.285   4.747   3.736
60900W        W29294  39.998  36.447  11.863
60901W        W29295   1.997  30.911   4.553
60902W        W29296   6.257   4.343  13.064
60903W        W29297   3.121  37.068   2.588
60904W        W29298  26.605  26.471   2.258
60905W        W29299  41.465  20.309  14.817
60906W        W29300   6.476  23.875  13.147
60907W        W29301  10.425  30.500   0.904
60908W        W29302  35.159  31.589  12.210
60909W        W29303   7.938   6.182   2.333
60910W        W29304  34.090  24.405  14.073
60911W        W29305  37.982   3.123   3.154
60912W        W29306  36.059  30.392  14.044
60913W        W29307   0.944  39.144   4.049
60914W        W29308  23.950  40.485   1.235
60915W        W29309  29.104  37.060   4.205
60916W        W29310   5.397  11.203   4.939
60917W        W29311  15.033  26.042   1.212
60918W        W29312  44.985   1.319   1.050
60919W        W29313  22.033  18.338   0.407
60920W        W29314  38.230  14.807   3.720
60921W        W29315  38.567  40.368   1.839
60922W        W29316  10.342   2.240  13.259
60923W        W29317  21.431  21.607  12.124
60924W        W29318   3.279  22.541  12.603
60925W        W29319   5.933  44.959  11.612
60926W        W29320  30.802  36.939  14.342
60927W        W29321   5.296  25.628  12.126
60928W        W29322  36.049   8.232  10.452
60929W        W29323  25.059  17.267  13.213
60930W        W29324  11.171  28.072   2.223
60931W        W29325  24.378   2.934  11.076
60932W        W29326  16.040   5.005  12.867
60933W        W29327   0.998  15.108   3.841
60934W        W29328  38.880   4.279  13.104
60935W        W29329   7.192  24.970   1.914
60936W        W29330  37.159  44.320  11.102
60937W        W29331  28.419  43.451   3.658
60938W        W29332  42.775  36.138  12.363
60939W        W29333  11.797  13.104   0.340
60940W        W29334  12.376  30.581  13.162
60941W        W29335  10.322  25.075  12.635
60942W        W29336  42.580   1.733   0.349
60943W        W29337  41.578  34.465   0.765
60944W        W29338   9.408  42.594  13.464
60945W        W29339  26.006  43.994  12.430
60946W        W29340  10.670  29.554  13.984
60947W        W29341  31.515   0.994  11.260
60948W        W29342  36.659  44.488  11.063
60949W        W29343   4.314  40.271  11.042
60950W        W29344  32.128  11.304  11.624
60951W        W29345  42.617  34.385   5.271
60952W        W29346   8.310  43.025  11.039
60953W        W29347   6.857  15.413   4.300
60954W        W29348  34.012   5.980  14.177
60955W        W29349  32.904  36.892   3.875
60956W        W29350  28.576  35.624  11.549
60957W        W29351  32.296  34.096   0.400
60958W        W29352  42.071  29.731   3.552
60959W        W29353  18.326   8.486   3.727
60960W        W29354  43.620   1.421  14.026
60961W        W29355  11.435   3.340  13.884
60962W        W29356  25.153   6.182   0.867
60963W        W29357  34.986  10.284  14.061
60964W        W29358  32.455   8.257  12.055
60965W        W29359   6.445  36.041   1.822
60966W        W29360  31.535  31.814  10.676
60967W        W29361  25.911  32.069   3.917
60968W        W29362  35.311   2.042   4.722
60969W        W29363  22.520   5.987   1.349
60970W        W29364   8.590  18.183  13.915
60971W        W29365   1.884   9.630   0.854
60972W        W29366   1.391  28.745  11.360
60973W        W29367  28.994  34.496   1.868
60974W        W29368  23.470   1.318  12.306
60975W        W29369   6.901  27.003   2.744
60976W        W29370  38.001  35.541  10.686
60977W        W29371   9.662  30.240  12.533
60978W        W29372  10.854   4.700  10.753
60979W        W29373  21.700  23.231   1.761
60980W        W29374  10.924  10.212  11.543
60981W        W29375  44.298  44.056   3.271
60982W        W29376  18.981   1.418  12.600
60983W        W29377  39.745   9.576   3.570
60984W        W29378  38.016  28.260   1.611
60985W        W29379  21.872   0.123  14.290
60986W        W29380  30.239  38.575  10.854
60987W        W29381   2.936  15.775  13.009
60988W        W29382  24.872  25.663  10.529
60989W        W29383  23.719  29.186  11.576
60990W        W29384  37.917  40.892   5.012
60991W        W29385  36.037  24.804   2.740
60992W        W29386  17.658  23.525  12.169
60993W        W29387  40.615   0.702  14.853
60994W        W29388  40.301   5.119  11.126
60995W        W29389  43.874   2.216  12.539
60996W        W29390   3.662  42.319  12.448
60997W        W29391  15.267  44.274   0.892
60998W        W29392  17.052  38.353   3.747
60999W        W29393  25.204  34.996  14.091
61000W        W29394  23.112   0.165   0.124
61001W        W29395  17.468  43.393   3.360
61002W        W29396  36.059  35.340  12.863
61003W        W29397  36.555  19.833   2.723
61004W        W29398  12.700   3.402   4.481
61005W        W29399  20.985  20.328   3.643
61006W        W29400  23.519  40.881  14.084
61007W        W29401  39.577  17.824   1.425
61008W        W29402  36.694  24.518  13.877
61009W        W29403  27.448  36.142   1.248
61010W        W29404  43.138  12.059   2.858
61011W        W29405   4.236  14.297  14.291
61012W        W29406  24.861  20.965   1.835
61013W        W29407  23.870  44.880  10.687
61014W        W29408  26.905  22.438  13.414
61015W        W29409  35.827  14.521  12.920
61016W        W29410  44.180   9.157   1.845
61017W        W29411  30.605  21.808  13.582
61018W        W29412  44.403  10.647   2.849
61019W        W29413  15.794   7.306  11.896
61020W        W29414  25.206  30.709  13.929
61021W        W29415   2.418   2.956  14.794
61022W        W29416   5.514  34.579   1.408
61023W        W29417   4.294  17.571   4.402
61024W        W29418  21.042   6.330   0.185
61025W        W29419  16.515  44.469  14.786
61026W        W29420   7.653  41.473   2.754
61027W        W29421   7.796   9.538  12.283
61028W        W29422  38.690  40.868   0.056
61029W        W29423  44.502  40.745   3.633
61030W        W29424  24.188   8.536  11.976
61031W        W29425  21.485  24.221   3.366
61032W        W29426  19.484  39.524   4.063
61033W        W29427  15.552   4.699  11.118
61034W        W29428  24.052  17.156  13.016
61035W        W29429  18.841  13.443  12.372
61036W        W29430  14.705  15.155  12.360
61037W        W29431  10.834  24.994  12.894
61038W        W29432   0.381  17.564  14.352
61039W        W29433  11.905  19.905  14.036
61040W        W29434   1.019  31.604   1.225
61041W        W29435  17.505  25.160  14.573
61042W        W29436  24.120  21.201  14.840
61043W        W29437  27.739   8.407   3.188
61044W        W29438  29.195   3.161  11.062
61045W        W29439  12.245  12.719  13.091
61046W        W29440  39.978  21.668  11.235
61047W        W29441  43.218   0.722   3.881
61048W        W29442  21.619  43.546  12.852
61049W        W29443   4.626   6.660  14.084
61050W        W29444  22.938  15.741   3.126
61051W        W29445  13.511   2.304   3.101
61052W        W29446  39.346  37.010   3.863
61053W        W29447  13.368  20.603   0.358
61054W        W29448  12.049  43.416   2.884
61055W        W29449  20.158  33.914  11.513
61056W        W29450  35.792  17.581  14.691
61057W        W29451  23.618  40.624   3.666
61058W        W29452  34.939   2.638   0.741
61059W        W29453  10.876  23.890  11.896
61060W        W29454  44.794   9.732  10.575
61061W        W29455   9.262  34.461   3.923
61062W        W29456  27.083   9.554   4.375
61063W        W29457  23.991   6.688   4.525
61064W        W29458  23.074   7.747   0.597
61065W        W29459   5.936  42.023   1.936
61066W        W29460  31.370  15.540   1.313
61067W        W29461  37.269  44.771   4.630
61068W        W29462   8.820  43.990  12.231
61069W        W29463  22.140  32.082  14.932
61070W        W29464  27.684  22.473   1.237
61071W        W29465  42.319  31.441  14.322
61072W        W29466  29.152   8.785  13.607
61073W        W29467  22.281  12.550   0.283
61074W        W29468   9.421  21.546  12.047
61075W        W29469   2.003  20.357   3.157
61076W        W29470   9.188  43.489  11.481
61077W        W29471   6.316   5.811   4.364
61078W        W29472  28.276   8.930   3.290
61079W        W29473  34.696  31.661  11.976
61080W        W29474  19.679   8.891  13.039
61081W        W29475  11.931  17.180  14.848
61082W        W29476  37.062   3.351  12.456
61083W        W29477   7.382  22.160   2.820
61084W        W29478  20.737  24.287  10.698
61085W        W29479  36.494  43.029  10.167
61086W        W29480  23.571  37.806   2.984
61087W        W29481  12.316  29.141  12.465
61088W        W29482   7.763  38.017  12.972
61089W        W29483   2.227  20.704   0.136
61090W        W29484  11.773  17.862  11.062
61091W        W29485   3.414  32.626   0.706
61092W        W29486  44.471  14.153   2.370
61093W        W29487  12.797  19.780  12.136
61094W        W29488   3.328  31.246  11.138
61095W        W29489  30.848  24.691  11.484
61096W        W29490  10.028   0.760   2.678
61097W        W29491  11.486  10.085   2.791
61098W        W29492  25.126  17.651  14.252
61099W        W29493  11.601  39.008  11.467
61100W        W29494  13.599  25.072   2.782
61101W        W29495  42.018   7.377   2.752
61102W        W29496  10.686  28.704  10.984
61103W        W29497  33.587  35.473  13.946
61104W        W29498   8.988  13.409   3.200
61105W        W29499  20.824   8.591   1.793
61106W        W29500  14.719  10.437   3.148
61107W        W29501  21.697  11.357  12.486
61108W        W29502   3.824  16.035   2.438
61109W        W29503  16.049   9.266  14.411
61110W        W29504   5.757  11.240   0.416
61111W        W29505  31.642   2.793   3.693
61112W        W29506  31.933  41.801   0.997
61113W        W29507   8.026   4.121   0.653
61114W        W29508   6.328  22.186  13.272
61115W        W29509   9.243  29.601   3.773
61116W        W29510  36.641  26.581   1.437
61117W        W29511  19.612  43.993  11.841
61118W        W29512  35.982  28.444   0.986
61119W        W29513  34.967  27.073  14.279
61120W        W29514  39.532  19.650   4.775
61121W        W29515  22.146  28.871  13.918
61122W        W29516  11.367   1.403  14.608
61123W        W29517   0.024  22.140   3.420
61124W        W29518   0.160   9.211  13.405
61125W        W29519  15.606   7.301  14.386
61126W        W29520  19.656  25.542   5.575
61127W        W29521   4.136  16.336   0.555
61128W        W29522  29.658  26.051  11.853
61129W        W29523  28.630  17.597   4.545
61130W        W29524  12.099  16.226   0.360
61131W        W29525  26.479  32.025  12.495
61132W        W29526  36.888  41.913  11.230
61133W        W29527  29.904  21.443  10.853
61134W        W29528  40.665  21.761   3.762
61135W        W29529  21.169   6.241  13.451
61136W        W29530  23.705  14.649   1.748
61137W        W29531  10.413   3.064  12.948
61138W        W29532  27.980  32.933  10.751
61139W        W29533  37.113  15.071  12.234
61140W        W29534  28.424   1.367   2.749
61141W        W29535   1.297  38.386   0.266
61142W        W29536  16.728  44.331   4.713
61143W        W29537   1.919   6.890  12.648
61144W        W29538  40.854  10.060  12.872
61145W        W29539  15.345  37.883  13.294
61146W        W29540  10.059   3.748  12.383
61147W        W29541  12.827  34.935   0.679
61148W        W29542  41.568  22.693  13.301
61149W        W29543  39.584  30.930  14.298
61150W        W29544  33.582  27.743   3.592
61151W        W29545  29.159  41.708  13.560
61152W        W29546  24.093  34.222   3.141
61153W        W29547  38.790  12.462   4.052
61154W        W29548  44.745   5.121  10.724
61155W        W29549  27.516  31.346   2.361
61156W        W29550  28.154  22.194  12.219
61157W        W29551  24.604  39.982   1.050
61158W        W29552  17.612   0.359  12.447
61159W        W29553   7.572  30.531   9.915
61160W        W29554   3.653   6.343  11.053
61161W        W29555   3.709  11.752   9.955
61162W        W29556  43.888  23.688  13.384
61163W        W29557  18.553  41.024   0.527
61164W        W29558  10.162  14.344  13.933
61165W        W29559  43.323  30.658  12.572
61166W        W29560  23.114  30.737   0.396
61167W        W29561  11.637  44.492   4.457
61168W        W29562  41.389  25.493   2.789
61169W        W29563  29.995  26.686  14.881
61170W        W29564  24.109  28.852  12.045
61171W        W29565  41.963   5.813  10.508
61172W        W29566   8.213   2.244   1.229
61173W        W29567  24.214  41.316   0.772
61174W        W29568  43.276  44.430  12.018
61175W        W29569  34.389  26.731   3.575
61176W        W29570  40.374  15.391   2.707
61177W        W29571  20.265   8.236  10.738
61178W        W29572  40.843  17.639  12.016
61179W        W29573  28.465  18.656  12.537
61180W        W29574   7.625   4.414   1.871
61181W        W29575   8.605  29.265   2.788
61182W        W29576   9.343  37.077   4.096
61183W        W29577  10.589  26.505   2.965
61184W        W29578   4.780  26.929  13.082
61185W        W29579  30.323  37.943   0.032
61186W        W29580  38.429   7.843   1.798
61187W        W29581  11.136  19.025   3.583
61188W        W29582  40.473  38.124   1.941
61189W        W29583  38.450  32.613   3.821
61190W        W29584   0.280   2.935   4.572
61191W        W29585   6.358   7.789  11.048
61192W        W29586  10.670  20.238  12.896
61193W        W29587  16.261  16.353   0.482
61194W        W29588  29.483   2.237  12.910
61195W        W29589  29.108  16.363  11.610
61196W        W29590   9.602  40.808  11.166
61197W        W29591  26.701  32.843  14.419
61198W        W29592  24.130  29.501  10.714
61199W        W29593  29.029  16.990   0.326
61200W        W29594  24.186   3.515   4.683
61201W        W29595  40.091  12.316   4.654
61202W        W29596  38.335  15.177   1.642
61203W        W29597  37.860  30.769   4.945
61204W        W29598  11.390   4.479  12.074
61205W        W29599  15.803  11.050  12.430
61206W        W29600  30.670  42.753   3.739
61207W        W29601  18.843  15.712   2.901
61208W        W29602  41.995  19.978  11.114
61209W        W29603  37.523   0.894  14.056
61210W        W29604  38.709  44.037   0.940
61211W        W29605  22.588  38.431   4.607
61212W        W29606  19.232  34.543  14.962
61213W        W29607  36.087  32.925   4.371
61214W        W29608  38.351  12.230  13.509
61215W        W29609  19.530  36.022   2.358
61216W        W29610  18.100  35.672  10.640
61217W        W29611  28.042   2.205  10.434
61218W        W29612  14.268  41.508   0.483
61219W        W29613  20.324   4.315  13.873
61220W        W29614  36.563  19.941   1.855
61221W        W29615  18.727  41.711   4.261
61222W        W29616   1.793  22.717  12.804
61223W        W29617   5.280   5.673  13.579
61224W        W29618   1.839  27.558   0.179
61225W        W29619  12.294  15.590  12.567
61226W        W29620  30.559  35.510   2.954
61227W        W29621   5.893   1.217  14.288
61228W        W29622  43.560  27.156   1.509
61229W        W29623  42.363  29.543   4.819
61230W        W29624  27.492  39.504   1.194
61231W        W29625  31.405  41.184   5.151
61232W        W29626  15.245  44.662   1.972
61233W        W29627  35.048  10.324   3.260
61234W        W29628  20.197  37.866  13.573
61235W        W29629  13.855  22.289  10.846
61236W        W29630  40.274  26.432  10.508
61237W        W29631   8.839  43.845   3.337
61238W        W29632  11.793  43.231   4.609
61239W        W29633  44.830  17.325   4.976
61240W        W29634   2.211  24.559   4.120
61241W        W29635   0.021  16.349  11.560
61242W        W29636   3.013  23.680  14.940
61243W        W29637  44.897   6.391  14.474
61244W        W29638  21.028  26.491   2.285
61245W        W29639   9.789  29.987   3.731
61246W        W29640   8.359  10.784  11.619
61247W        W29641  42.753  17.325  12.996
61248W        W29642  20.844  36.555   3.346
61249W        W29643  37.915  12.842   0.144
61250W        W29644   7.774  14.154   4.543
61251W        W29645  21.164   7.235  10.417
61252W        W29646  11.188  20.320  10.649
61253W        W29647  35.439  22.622  14.806
61254W        W29648  34.401  25.437  13.291
61255W        W29649  21.684  21.013   2.928
61256W        W29650   9.292  22.444  10.739
61257W        W29651  39.211  27.335  12.477
61258W        W29652  31.058  13.688  10.654
61259W        W29653  13.600  19.843   4.038
61260W        W29654  18.735  11.231  13.611
61261W        W29655  21.889  37.234  11.716
61262W        W29656   8.728  11.462   4.204
61263W        W29657  39.420   8.204  14.289
61264W        W29658  31.457  29.743  13.518
61265W        W29659   3.439   1.416   1.458
61266W        W29660  36.078  25.562   2.294
61267W        W29661  28.902  16.835  10.734
61268W        W29662  20.796  13.220  12.476
61269W        W29663  39.899  27.752  13.847
61270W        W29664  12.647  27.702  13.410
61271W        W29665  19.449  19.129  13.419
61272W        W29666  30.593  24.732   3.268
61273W        W29667  35.947  22.409  11.064
61274W        W29668  14.826  34.227   4.745
61275W        W29669  26.225  40.360  13.992
61276W        W29670  42.624   2.204  14.519
61277W        W29671  21.982  42.816   4.781
61278W        W29672  21.343  29.677   4.610
61279W        W29673  27.514   7.624  11.570
61280W        W29674  21.106  17.610   1.132
61281W        W29675  14.830   9.266  10.929
61282W        W29676  40.283   1.445  12.172
61283W        W29677  18.454   4.391   3.703
61284W        W29678  40.019  41.776  12.955
61285W        W29679  25.851  23.075   2.304
61286W        W29680  23.968  29.816   1.439
61287W        W29681  35.935  22.502  14.907
61288W        W29682   0.544  16.328   1.709
61289W        W29683  22.274  41.423  12.689
61290W        W29684  28.206  32.796  13.408
61291W        W29685  31.199  34.995  14.412
61292W        W29686   9.750  15.668   0.348
61293W        W29687  18.299  32.191  12.601
61294W        W29688  19.720  24.889   4.529
61295W        W29689  31.902  29.476   0.648
61296W        W29690  15.873  35.474   3.129
61297W        W29691  34.566  26.386   5.098
61298W        W29692  35.467  18.297  12.912
61299W        W29693   7.892   5.488   1.352
61300W        W29694  18.061  43.522  11.931
61301W        W29695  24.538  15.618  13.894
61302W        W29696  25.475  22.486  11.064
61303W        W29697  40.253  39.465  14.794
61304W        W29698  21.087   6.154   0.673
61305W        W29699  10.371  33.197  10.953
61306W        W29700  37.893  14.992  12.661
61307W        W29701  18.166  35.111   4.633
61308W        W29702   1.993  23.305   3.259
61309W        W29703  34.023   4.686   1.578
61310W        W29704   6.186  33.472  12.682
61311W        W29705  18.627  31.477  11.730
61312W        W29706  14.642  10.154   3.579
61313W        W29707  35.215  17.397   0.725
61314W        W29708  21.694  16.307   0.799
61315W        W29709  39.752  34.360  10.685
61316W        W29710  16.321   8.676   0.440
61317W        W29711   2.690   2.971   0.275
61318W        W29712  20.571  35.139  11.941
61319W        W29713  34.938  27.679   2.941
61320W        W29714   6.702  44.323  12.492
61321W        W29715  43.326  41.580   2.156
61322W        W29716  43.467   7.715  14.319
61323W        W29717  31.356  26.947   1.029
61324W        W29718  29.061  26.811  14.125
61325W        W29719  24.492   1.403  11.037
61326W        W29720   2.019  33.405  12.936
61327W        W29721   0.202  38.781  13.337
61328W        W29722  41.375  34.543   3.022
61329W        W29723  20.189  10.242  10.493
61330W        W29724  20.819  11.641  12.349
61331W        W29725  14.009  30.225   1.571
61332W        W29726  37.211  11.918  11.132
61333W        W29727  23.735  36.350  14.748
61334W        W29728  21.006  39.860  13.099
61335W        W29729  12.395  30.348   4.642
61336W        W29730  34.074   3.658  12.143
61337W        W29731  21.913  36.508  11.147
61338W        W29732  20.685  11.233  12.612
61339W        W29733  19.132  22.642   3.631
61340W        W29734  38.879  21.534   4.595
61341W        W29735  16.219  38.003   4.368
61342W        W29736  37.292  13.243  11.027
61343W        W29737  32.139  19.550  12.028
61344W        W29738  24.528   4.269   1.470
61345W        W29739  14.602  15.170  14.239
61346W        W29740  21.583  10.252   2.856
61347W        W29741  14.107  24.696   4.630
61348W        W29742  16.144   9.310   1.763
61349W        W29743  30.204  16.711   1.448
61350W        W29744   0.343   0.316  11.187
61351W        W29745  21.115  36.936   2.672
61352W        W29746  11.813  20.120   1.030
61353W        W29747  25.324  33.288   2.577
61354W        W29748   4.703  41.509   0.747
61355W        W29749  39.700  10.444   3.455
61356W        W29750  19.520   2.895   1.314
61357W        W29751  38.851  42.855   2.402
61358W        W29752  11.247  36.068  13.140
61359W        W29753  41.251  33.956   3.160
61360W        W29754  19.136   3.944   4.140
61361W        W29755  20.918  40.962  13.510
61362W        W29756  31.676   5.250   3.202
61363W        W29757  22.694  19.325  13.995
61364W        W29758  12.263  32.673  12.067
61365W        W29759   2.299  39.567  13.612
61366W        W29760  10.137  43.947  13.861
61367W        W29761  28.527   3.976  12.208
61368W        W29762  23.732  15.625   3.587
61369W        W29763  34.739  26.592  13.158
61370W        W29764   7.587  42.488  11.546
61371W        W29765   4.265   3.674   2.372
61372W        W29766  44.390  34.803  10.912
61373W        W29767  36.507  16.549  13.195
61374W        W29768  18.138  10.762  14.998
61375W        W29769   1.505  24.621   2.346
61376W        W29770  23.114  36.132  11.767
61377W        W29771  43.462  42.505  14.321
61378W        W29772   6.375  21.802   0.969
61379W        W29773  12.856   0.143  10.921
61380W        W29774   0.231  23.726  12.688
61381W        W29775  43.759  15.218   1.630
61382W        W29776   6.387  42.522  11.013
61383W        W29777  13.850  12.936  12.225
61384W        W29778   5.195  16.905  11.407
61385W        W29779   4.051   7.716   3.839
61386W        W29780   2.921   8.592   3.162
61387W        W29781  39.928  43.940  14.465
61388W        W29782   8.690  12.487   4.119
61389W        W29783  12.295  33.473   4.791
61390W        W29784  17.030  19.540  13.598
61391W        W29785  26.171  10.405  12.628
61392W        W29786  38.914  41.226   0.352
61393W        W29787  41.449  11.107   0.761
61394W        W29788   8.868  29.623  11.084
61395W        W29789  17.725  15.881   0.336
61396W        W29790   0.878  37.579   1.235
61397W        W29791  34.588  35.370   0.341
61398W        W29792   4.965  35.345  10.734
61399W        W29793   3.941  37.826  12.920
61400W        W29794  39.820  34.172   0.494
61401W        W29795   1.268  34.657   0.804
61402W        W29796   3.890  11.577  11.995
61403W        W29797  44.808  40.776  10.676
61404W        W29798  20.910  26.892  14.486
61405W        W29799  17.142  22.489  11.156
61406W        W29800   0.563  34.596   0.394
61407W        W29801  25.039   6.171  12.319
61408W        W29802  38.385  16.638  14.899
61409W        W29803  23.908  26.608   3.266
61410W        W29804  44.154  43.217   3.667
61411W        W29805  36.508  43.746   1.345
61412W        W29806  32.635   0.672   2.326
61413W        W29807  27.948  11.121  13.937
61414W        W29808  14.244   0.726   2.835
61415W        W29809   3.505  30.057  11.993
61416W        W29810  36.889  25.232  11.194
61417W        W29811  16.454   8.530  13.869
61418W        W29812  41.277  26.446  13.893
61419W        W29813  10.728  26.229  14.275
61420W        W29814  20.975  17.974   4.047
61421W        W29815  27.204  44.028   1.809
61422W        W29816  37.577   5.571   0.437
61423W        W29817  20.112  32.159  14.876
61424W        W29818  22.207  42.306  13.596
61425W        W29819   4.867  44.389  14.910
61426W        W29820   1.895  21.249   0.672
61427W        W29821  17.350  37.971   0.359
61428W        W29822   3.679  19.660   1.440
61429W        W29823   9.181   4.158   2.304
61430W        W29824  34.258  39.461  14.509
61431W        W29825  36.035  37.402  11.213
61432W        W29826  37.066  39.368  11.872
61433W        W29827   3.441  17.278  12.499
61434W        W29828  43.016  32.975  11.551
61435W        W29829   7.158  26.930   3.193
61436W        W29830   2.297  20.588  10.516
61437W        W29831  15.103  30.119   2.373
61438W        W29832  13.311  38.511  14.416
61439W        W29833  35.761   8.664   1.036
61440W        W29834  37.235   8.218   3.690
61441W        W29835  25.226  13.190  10.784
61442W        W29836  37.837  32.480  14.688
61443W        W29837  37.605  14.850   2.822
61444W        W29838  22.694  10.105  10.250
61445W        W29839  29.813  40.269   1.229
61446W        W29840  21.105  10.492   0.362
61447W        W29841  31.535  39.385  12.077
61448W        W29842  15.659  33.594   4.946
61449W        W29843  22.636   0.309   0.769
61450W        W29844  17.232   4.276   4.979
61451W        W29845  10.555  12.417   4.555
61452W        W29846   6.430  32.016  14.943
61453W        W29847   6.597  25.863   1.496
61454W        W29848   6.620  23.222   0.881
61455W        W29849  26.227   6.634  13.964
61456W        W29850  29.007   3.392  11.483
61457W        W29851  29.990  37.665  13.379
61458W        W29852  36.565  39.948  11.584
61459W        W29853  31.908  29.826  13.278
61460W        W29854   2.185  24.901  10.418
61461W        W29855  31.200  29.558  13.923
61462W        W29856  33.218  18.378   2.391
61463W        W29857  24.595  13.236  14.437
61464W        W29858  13.284  43.830   4.093
61465W        W29859  16.008  12.615   2.713
61466W        W29860  38.457   9.658  12.574
61467W        W29861  14.742  14.664  11.162
61468W        W29862  20.188   7.133   4.099
61469W        W29863   2.002  12.450  14.888
61470W        W29864   7.035  30.363   2.204
61471W        W29865  13.130  42.426   3.050
61472W        W29866  35.126  10.613  13.677
61473W        W29867  25.735   9.991   0.856
61474W        W29868  15.692  35.617   1.284
61475W        W29869   5.417  13.992   1.327
61476W        W29870  23.544  19.665   0.403
61477W        W29871   6.752   0.718  14.489
61478W        W29872  40.529  16.116   3.104
61479W        W29873   4.937  41.900  11.346
61480W        W29874  11.176   9.459  11.120
61481W        W29875   3.882  26.896   1.646
61482W        W29876   2.731  13.412   4.254
61483W        W29877  12.298  20.204  13.811
61484W        W29878  11.860  29.594   4.513
61485W        W29879  42.588  30.458   2.432
61486W        W29880  21.406  22.038  10.583
61487W        W29881  20.561  27.224   1.895
61488W        W29882  36.373   3.176   4.667
61489W        W29883  23.441  18.553  11.193
61490W        W29884  26.262   5.464   2.288
61491W        W29885  15.091  43.946  14.537
61492W        W29886  38.291  23.593   0.920
61493W        W29887   1.536  19.684   3.581
61494W        W29888  29.469  40.742  11.563
61495W        W29889  14.627  40.103  14.467
61496W        W29890  11.539  39.558   3.326
61497W        W29891  27.113  37.455   4.378
61498W        W29892  22.287  44.432  14.937
61499W        W29893  40.809  32.046  13.383
61500W        W29894   6.782  26.865   4.532
61501W        W29895  31.694  37.003  11.564
61502W        W29896  38.337  26.768   2.113
61503W        W29897  19.922  44.623  11.200
61504W        W29898  32.424  21.012   4.088
61505W        W29899  44.475  38.440   4.553
61506W        W29900  12.864  20.183   4.843
61507W        W29901   8.129  15.797  11.019
61508W        W29902   3.448  26.026  13.416
61509W        W29903  23.733   5.834  11.705
61510W        W29904  38.713  19.794   5.037
61511W        W29905  35.062  42.110   2.919
61512W        W29906  27.876  36.970   1.428
61513W        W29907  30.021  38.756   1.666
61514W        W29908  26.090  35.342   2.450
61515W        W29909   4.370  18.025  12.479
61516W        W29910  26.132   4.723   1.696
61517W        W29911  38.593  39.951  12.567
61518W        W29912   3.704  37.980  11.596
61519W        W29913  27.070  23.037   1.897
61520W        W29914   2.337  13.609   1.703
61521W        W29915   8.119  40.888   2.184
61522W        W29916  38.967   5.976   0.403
61523W        W29917   9.118  38.908   3.280
61524W        W29918  40.806   8.739   0.244
61525W        W29919   4.104   5.021   2.226
61526W        W29920  38.747  43.541   0.879
61527W        W29921  42.282   7.297   2.286
61528W        W29922   5.811  36.804  10.588
61529W        W29923  41.442   8.910  11.949
61530W        W29924  22.557  11.409  13.359
61531W        W29925  40.018  43.437  14.505
61532W        W29926   4.823  20.387   3.397
61533W        W29927  18.169   7.327  11.127
61534W        W29928  12.672   6.153   9.953
61535W        W29929  23.001  15.563   0.069
61536W        W29930   3.226  34.350  14.732
61537W        W29931   3.136  11.106  12.581
61538W        W29932   4.977  31.570   4.231
61539W        W29933  37.034   1.975   3.705
61540W        W29934   8.109  14.080   1.371
61541W        W29935  44.884  12.066   2.080
61542W        W29936   3.080  36.209   1.141
61543W        W29937  18.260   3.149   4.969
61544W        W29938   9.920  29.774  14.906
61545W        W29939   7.981  14.882  11.481
61546W        W29940  43.507  31.412  13.110
61547W        W29941  38.333  36.785  12.664
61548W        W29942   1.903  28.152   4.197
61549W        W29943  35.125  24.991  13.479
61550W        W29944   4.708  26.271  14.303
61551W        W29945  17.772  22.984   2.254
61552W        W29946   5.938   2.715  10.562
61553W        W29947  11.214   4.638  12.564
61554W        W29948  22.655  32.098  13.319
61555W        W29949  14.113  18.198   3.652
61556W        W29950   6.142  12.756   3.206
61557W        W29951   7.392  36.848  11.170
61558W        W29952   2.167  38.875  11.575
61559W        W29953  31.103  22.677  13.594
61560W        W29954  17.131  36.529   1.328
61561W        W29955  37.811  17.176   3.414
61562W        W29956  17.806  40.923  13.811
61563W        W29957  27.593   5.265  11.580
61564W        W29958   5.228  11.413   3.857
61565W        W29959  18.357  30.929   3.660
61566W        W29960   1.196  35.261   2.065
61567W        W29961   7.861  23.024   2.031
61568W        W29962  25.615  16.588   0.745
61569W        W29963   5.188   0.717  14.930
61570W        W29964  14.135  20.108   1.898
61571W        W29965  31.469  29.231  12.049
61572W        W29966  24.758  28.519  12.053
61573W        W29967  23.737   7.962  13.357
61574W        W29968  25.891  38.969   3.162
61575W        W29969   2.624  18.627  11.097
61576W        W29970  32.832  17.470   3.062
61577W        W29971  27.438  43.010   1.642
61578W        W29972  19.327   1.252   3.775
61579W        W29973  17.499  12.033  14.961
61580W        W29974  17.202  44.350  10.522
61581W        W29975  27.961   7.874   4.445
61582W        W29976  32.960  33.641  13.101
61583W        W29977  31.120  40.524  14.364
61584W        W29978  17.517   1.645   3.306
61585W        W29979  16.293  16.128   4.105
61586W        W29980   1.395  11.789  14.771
61587W        W29981  35.555   1.925  12.455
61588W        W29982  38.965  23.054   3.200
61589W        W29983   0.436   3.432  12.032
61590W        W29984  24.140  35.756   5.296
61591W        W29985  15.371  34.450   3.711
61592W        W29986   0.698  24.003   4.155
61593W        W29987  32.201  14.235   1.864
61594W        W29988   0.614  12.203   3.630
61595W        W29989  19.045  22.042  13.101
61596W        W29990  38.194   3.644  13.822
61597W        W29991   0.292  21.520  14.989
61598W        W29992  30.578  28.025  11.938
61599W        W29993  32.004  20.044   1.778
61600W        W29994  28.427   4.699   3.331
61601W        W29995   0.118   8.000  11.357
61602W        W29996  25.056  10.957   4.109
61603W        W29997  15.115  27.489   4.250
61604W        W29998  18.070  43.449  13.280
61605W        W29999  18.343  13.116  13.806
61606W        W30000   7.014   1.123   9.616
61607W        W30001   2.827   1.498   4.964
61608W        W30002  32.877  44.958   3.711
61609W        W30003  38.045  13.334   4.875
61610W        W30004  28.262  40.655   2.860
61611W        W30005   5.520  11.634   2.585
61612W        W30006   6.828  26.984   0.517
61613W        W30007  42.040  44.258  14.828
61614W        W30008  22.001   9.300  13.478
61615W        W30009   1.936  25.214   0.717
61616W        W30010  42.836   8.750  12.469
61617W        W30011  36.233  27.262   3.023
61618W        W30012   0.233  43.708  10.815
61619W        W30013   9.338   8.776  10.833
61620W        W30014  22.451  28.395   2.922
61621W        W30015  28.027  10.093  14.025
61622W        W30016   9.325  17.864   0.979
61623W        W30017   2.264  32.332   1.910
61624W        W30018  22.545  16.508   3.722
61625W        W30019  26.724   0.867   3.232
61626W        W30020  15.762  31.595   3.493
61627W        W30021   0.418   6.512   0.843
61628W        W30022  13.316  35.418   4.139
61629W        W30023  32.004  17.213   3.166
61630W        W30024  11.356   2.247  13.086
61631W        W30025   6.690  12.818   1.925
61632W        W30026  13.539  14.587  14.219
61633W        W30027  24.544  16.310  10.746
61634W        W30028  40.891  14.854   3.707
61635W        W30029  37.763  12.133  13.508
61636W        W30030  12.320  38.333   2.909
61637W        W30031   4.747   9.820   0.868
61638W        W30032  38.730   0.218   3.068
61639W        W30033  39.868  18.614   1.553
61640W        W30034  30.439  31.853  13.334
61641W        W30035  15.516  39.757  10.249
61642W        W30036   5.751   7.844   1.181
61643W        W30037  19.552  27.521   3.516
61644W        W30038  43.864  33.945  10.641
61645W        W30039  27.691  19.506   1.736
61646W        W30040  29.707  25.956  10.709
61647W        W30041  22.481  28.216  12.036
61648W        W30042  16.325  19.774  11.607
61649W        W30043  10.131  25.085   3.684
61650W        W30044  27.554  18.334   0.828
61651W        W30045  19.947   1.359  12.839
61652W        W30046  28.913  33.122  12.919
61653W        W30047  19.997  39.417  11.557
61654W        W30048  16.757  32.179   1.063
61655W        W30049  27.522   9.690   2.318
61656W        W30050  39.349   9.307  12.534
61657W        W30051  22.014   6.397   3.586
61658W        W30052   3.115   8.733  12.030
61659W        W30053  14.700  19.137  12.326
61660W        W30054  42.281  21.724  13.051
61661W        W30055  37.273  13.889  13.555
61662W        W30056  31.439  19.135  12.097
61663W        W30057  10.608  17.572  13.275
61664W        W30058  24.989  16.345  10.450
61665W        W30059  41.987  31.476   3.072
61666W        W30060  22.495  25.615   3.105
61667W        W30061  19.665  29.459   1.885
61668W        W30062  10.508   4.909   4.178
61669W        W30063  21.783  35.641  11.248
61670W        W30064  41.860  21.839   2.296
61671W        W30065  26.907  20.858   1.248
61672W        W30066  10.733   8.462  13.291
61673W        W30067   0.854  19.486   2.481
61674W        W30068  18.546   8.747   2.158
61675W        W30069  39.897  29.910   3.356
61676W        W30070   6.579  22.674   5.002
61677W        W30071  26.857  32.001  10.560
61678W        W30072  38.753   0.290  10.753
61679W        W30073   2.704  35.385   2.312
61680W        W30074  23.307   7.415   2.258
61681W        W30075   9.744  14.768  14.867
61682W        W30076  33.222  38.357  14.245
61683W        W30077  19.635   3.425  10.759
61684W        W30078   5.703   1.259  11.583
61685W        W30079  21.244   1.753   4.228
61686W        W30080  33.740  18.145  10.487
61687W        W30081   1.602  36.423  14.560
61688W        W30082  33.383  24.392  13.275
61689W        W30083   9.730   3.762  12.916
61690W        W30084   0.944   9.750   2.354
61691W        W30085  41.838  29.857  12.132
61692W        W30086  11.314  43.243   4.382
61693W        W30087  36.632   3.102  13.958
61694W        W30088  44.420  28.121  12.156
61695W        W30089  43.389  41.878   4.449
61696W        W30090  36.641  16.264  11.553
61697W        W30091  21.775  23.538  13.278
61698W        W30092  36.417  15.265   4.632
61699W        W30093   6.701  43.402  13.465
61700W        W30094  42.612  25.285   4.292
61701W        W30095  10.357  33.457   5.086
61702W        W30096   3.423  26.133  10.908
61703W        W30097   1.328  31.241   3.306
61704W        W30098   1.306  31.231  12.591
61705W        W30099  11.843   4.774  12.952
61706W        W30100   5.247  40.403  11.935
61707W        W30101  19.058  43.908   0.188
61708W        W30102  44.875  20.219   1.576
61709W        W30103  17.415  33.704  10.314
61710W        W30104  17.291  37.343   4.610
61711W        W30105  30.024  31.364   1.019
61712W        W30106  38.180  27.247  14.528
61713W        W30107  25.457  28.137  13.526
61714W        W30108  28.499  22.965  10.921
61715W        W30109  24.002  34.847   1.847
61716W        W30110  27.941   5.289   3.603
61717W        W30111  29.683  26.150  13.831
61718W        W30112   9.426  37.637  13.594
61719W        W30113  13.799  26.758  14.072
61720W        W30114  24.504  16.214  14.088
61721W        W30115   3.659  26.026   4.720
61722W        W30116   5.684  36.598  13.916
61723W        W30117   2.086  19.625  13.536
61724W        W30118  24.819  32.003  11.565
61725W        W30119  16.553  42.535  12.048
61726W        W30120  21.024  44.919  11.940
61727W        W30121  43.288  31.772  14.083
61728W        W30122  18.610  21.957  13.879
61729W        W30123  21.721  38.980   4.380
61730W        W30124  26.130   4.926   0.724
61731W        W30125  15.784  26.978   4.516
61732W        W30126  27.732  40.396   0.783
61733W        W30127  42.802  25.169   4.755
61734W        W30128   1.520  12.285  13.440
61735W        W30129   6.640  22.141  11.541
61736W        W30130  42.401  10.639  13.401
61737W        W30131  18.286  40.197   1.323
61738W        W30132  13.279   3.515  10.023
61739W        W30133  14.132  26.634   3.510
61740W        W30134  36.175  40.916   1.275
61741W        W30135  43.051  37.383  14.052
61742W        W30136  34.114   1.441  12.311
61743W        W30137  30.932  41.921   1.814
61744W        W30138  18.706  23.040   4.716
61745W        W30139   5.294  21.337  13.025
61746W        W30140  39.423   1.050  11.258
61747W        W30141  39.031   8.481   4.142
61748W        W30142  12.790  25.093  11.101
61749W        W30143   5.408   0.625   1.808
61750W        W30144  38.343  31.414  12.035
61751W        W30145  30.583  12.201   4.953
61752W        W30146  42.157  43.017  13.308
61753W        W30147  13.838  43.775   4.429
61754W        W30148  16.346   8.655  14.351
61755W        W30149   5.225  11.304   2.291
61756W        W30150  34.906  12.038   4.664
61757W        W30151  43.080  39.986  14.806
61758W        W30152  36.326   5.857   3.676
61759W        W30153  11.827  44.432  11.632
61760W        W30154  23.399  16.624  13.308
61761W        W30155  16.942  37.136  14.484
61762W        W30156  21.367   0.947   4.574
61763W        W30157  38.759  23.209   4.028
61764W        W30158  44.804   2.949   0.068
61765W        W30159  19.567  26.971  11.640
61766W        W30160  10.729  19.093   1.439
61767W        W30161  37.854  29.410  13.917
61768W        W30162  39.763  21.458  12.193
61769W        W30163   7.822  37.673  11.101
61770W        W30164  23.698  18.048   4.246
61771W        W30165  35.640  35.072   4.463
61772W        W30166  10.601  30.018   0.777
61773W        W30167  35.920   6.644  11.145
61774W        W30168  29.392  43.955  13.575
61775W        W30169  11.111  41.997   2.782
61776W        W30170  11.627  25.409  14.033
61777W        W30171  34.603  28.455   1.467
61778W        W30172   9.836  29.545  11.652
61779W        W30173  37.844  26.447   0.248
61780W        W30174  13.783  10.638   2.774
61781W        W30175  27.284  39.392   4.614
61782W        W30176  38.334  27.011  12.367
61783W        W30177   8.763   2.859   1.624
61784W        W30178  22.532  13.593   1.821
61785W        W30179  11.716  30.654   4.519
61786W        W30180  24.552   4.340   0.411
61787W        W30181  40.345  13.622   0.854
61788W        W30182  17.548  29.826   3.324
61789W        W30183   8.493  32.967  12.715
61790W        W30184  24.709  12.172  13.985
61791W        W30185  19.166  24.275  14.917
61792W        W30186   7.379  18.058  12.360
61793W        W30187   0.810  34.296   4.182
61794W        W30188   5.882  43.636   1.429
61795W        W30189  40.050  33.156   0.362
61796W        W30190   8.367   3.390   5.050
61797W        W30191  29.129  19.099   2.543
61798W        W30192  26.623  10.752   2.445
61799W        W30193   5.060  20.737   3.090
61800W        W30194  15.094   3.290   2.711
61801W        W30195  35.496  29.285   2.959
61802W        W30196   7.202  32.884  11.956
61803W        W30197   7.218  20.831   2.550
61804W        W30198   2.020  33.074   2.837
61805W        W30199  16.576  40.285   3.750
61806W        W30200   6.419  41.298   1.306
61807W        W30201   0.518  24.336  14.246
61808W        W30202  28.367  42.838  14.350
61809W        W30203  10.401  28.002   2.746
61810W        W30204  24.107  29.474  14.471
61811W        W30205   1.324  41.778   0.410
61812W        W30206  42.654  26.788  11.099
61813W        W30207  21.058  23.199   0.758
61814W        W30208   6.951  11.738   3.612
61815W        W30209  10.990  34.079   0.682
61816W        W30210  32.213  30.214  14.000
61817W        W30211  34.065  39.925  14.312
61818W        W30212  28.441  43.460   0.939
61819W        W30213  35.614  27.574  11.627
61820W        W30214   2.280  26.530  14.710
61821W        W30215  20.485  40.441   2.000
61822W        W30216  21.119  43.982  10.762
61823W        W30217  43.860   4.876  13.444
61824W        W30218  41.937  37.581  11.108
61825W        W30219  33.015  24.063   0.324
61826W        W30220  31.452   6.655   3.491
61827W        W30221  42.864  40.982  11.102
61828W        W30222  16.571   7.675  12.562
61829W        W30223  41.262   8.374   1.015
61830W        W30224   6.425  23.245   5.352
61831W        W30225   7.433  39.618   4.719
61832W        W30226  20.685  33.409  10.657
61833W        W30227  33.709   4.873  10.639
61834W        W30228  42.489  15.204  12.456
61835W        W30229   9.302  39.910   1.304
61836W        W30230  38.574  25.947  14.913
61837W        W30231  29.448  14.671  13.487
61838W        W30232  28.595  20.859   0.349
61839W        W30233  26.112  27.526  12.136
61840W        W30234  33.997  21.759  13.901
61841W        W30235   4.278  43.076  11.896
61842W        W30236   3.216   9.303   3.121
61843W        W30237  11.639  36.659  14.409
61844W        W30238   5.965  24.091  12.056
61845W        W30239  42.812  14.370  14.919
61846W        W30240  36.627  22.066   4.397
61847W        W30241  34.049   7.452   1.768
61848W        W30242  40.266  14.983  11.116
61849W        W30243  27.175  35.021   3.815
61850W        W30244   3.393  34.946   1.240
61851W        W30245  42.404  15.085   2.300
61852W        W30246   0.771  10.290  10.210
61853W        W30247  41.846   8.197   2.285
61854W        W30248  11.068   4.933  11.180
61855W        W30249  24.634  38.689   1.320
61856W        W30250  20.190  16.825   4.850
61857W        W30251  30.016  39.181   1.965
61858W        W30252  34.883  12.096   3.795
61859W        W30253   0.408   1.661   2.485
61860W        W30254  11.557  29.036  14.695
61861W        W30255  24.576  27.516  10.754
61862W        W30256  34.093   2.806   2.347
61863W        W30257   0.824  38.972  12.524
61864W        W30258   9.494   1.730   3.575
61865W        W30259  28.695  42.617   2.179
61866W        W30260  42.032   3.399  10.277
61867W        W30261  40.597   8.356  10.765
61868W        W30262  29.990   4.911   3.739
61869W        W30263  34.052   6.702  12.614
61870W        W30264  28.008  13.789   4.333
61871W        W30265  24.473   6.690  14.491
61872W        W30266   9.128  33.194   0.357
61873W        W30267  18.768  35.945   3.698
61874W        W30268  12.842  30.032  10.913
61875W        W30269  22.577   3.377  12.882
61876W        W30270  17.749  25.862  12.278
61877W        W30271  43.853   1.667  13.045
61878W        W30272  27.176  21.251   1.425
61879W        W30273   3.761  18.138  12.174
61880W        W30274  25.615  24.758   0.264
61881W        W30275  44.241  10.043  13.789
61882W        W30276  24.445  41.950  14.858
61883W        W30277  19.620  10.449  11.604
61884W        W30278  40.940  17.955   1.942
61885W        W30279   0.517  26.106   3.180
61886W        W30280   3.440  27.430  11.742
61887W        W30281  26.244  23.822  12.478
61888W        W30282  16.261  33.486   4.181
61889W        W30283   0.508   3.210  14.348
61890W        W30284  16.076  35.441   0.695
61891W        W30285  39.913  38.282  13.379
61892W        W30286  35.375  37.508  14.252
61893W        W30287  21.733  15.165  14.430
61894W        W30288  31.423   8.286  13.454
61895W        W30289   3.547  28.558   4.588
61896W        W30290  35.028  40.005  11.039
61897W        W30291  19.182  25.040   1.387
61898W        W30292  30.042   8.247  10.960
61899W        W30293  16.633  20.701   2.190
61900W        W30294  37.056  17.523   3.690
61901W        W30295  30.377  15.776  13.972
61902W        W30296  23.566  30.146   0.652
61903W        W30297  30.865  16.077   3.534
61904W        W30298  24.785   2.009  14.491
61905W        W30299  26.498  30.223  12.272
61906W        W30300  39.532  44.402  14.991
61907W        W30301   8.625  11.410  11.128
61908W        W30302  20.019  25.978   3.651
61909W        W30303   8.766   6.998   1.161
61910W        W30304  44.312   4.440   4.033
61911W        W30305  10.102  22.683   1.770
61912W        W30306  19.949   0.474  13.310
61913W        W30307  38.943  17.840   3.243
61914W        W30308  18.662   1.459  10.975
61915W        W30309  19.041   5.421  11.459
61916W        W30310  28.454   3.796   1.402
61917W        W30311   2.533  41.569   4.412
61918W        W30312  32.970  19.595  11.638
61919W        W30313  18.313  14.554   0.378
61920W        W30314  37.077  24.448   1.297
61921W        W30315  18.212  41.820  14.547
61922W        W30316  37.872  37.579  10.823
61923W        W30317  30.501  21.576   0.039
61924W        W30318  14.589  24.203   2.405
61925W        W30319   1.755   0.071  11.891
61926W        W30320  19.832   7.858   3.294
61927W        W30321   0.672  44.411  14.993
61928W        W30322  18.514  17.053   2.727
61929W        W30323  29.584  30.141   4.185
61930W        W30324  26.812  42.405  11.592
61931W        W30325   0.858  12.311   2.204
61932W        W30326   2.736   7.324  10.675
61933W        W30327  10.894  21.674   1.044
61934W        W30328  38.370   5.199  10.993
61935W        W30329  24.078  44.642  12.546
61936W        W30330   6.757  22.149   5.097
61937W        W30331  34.053  40.378  14.002
61938W        W30332  37.385  16.271   4.716
61939W        W30333  23.999   1.291  14.364
61940W        W30334   2.235  21.218   3.101
61941W        W30335  31.906  16.100  11.104
61942W        W30336  29.917  26.547  10.683
61943W        W30337  14.626  30.537  11.254
61944W        W30338  17.215  27.096   0.021
61945W        W30339  26.974  35.473  12.483
61946W        W30340  44.551  33.459  10.992
61947W        W30341   7.235  29.645  12.947
61948W        W30342  20.252  22.200  13.414
61949W        W30343   5.663  28.923   0.271
61950W        W30344  19.019   7.358  13.993
61951W        W30345  34.888   7.403  13.480
61952W        W30346   2.176  29.928  12.480
61953W        W30347  38.949  23.504   4.848
61954W        W30348  44.145  16.622  11.585
61955W        W30349  39.317  38.235  12.653
61956W        W30350  14.369  38.127   2.103
61957W        W30351   0.347  43.757   3.101
61958W        W30352  32.138  32.128   0.016
61959W        W30353  37.046   8.194  12.781
61960W        W30354   2.757  33.564  14.464
61961W        W30355  12.844  26.994   1.341
61962W        W30356  34.914  28.645  11.837
61963W        W30357   7.785  43.473   1.467
61964W        W30358  29.555   1.876  10.318
61965W        W30359  13.402  38.831  13.827
61966W        W30360  29.709  31.674  14.424
61967W        W30361  26.523  10.981  11.602
61968W        W30362  36.188  27.130  14.087
61969W        W30363   9.191  44.801  13.543
61970W        W30364  37.050   3.759   0.054
61971W        W30365   8.696  33.631   2.156
61972W        W30366  37.350   9.721  11.361
61973W        W30367  31.083  40.691   0.403
61974W        W30368  24.344  19.505  10.466
61975W        W30369  39.980  13.178  12.939
61976W        W30370  14.106  38.850   0.276
61977W        W30371  21.555  10.784   5.032
61978W        W30372   9.995  13.200   0.714
61979W        W30373  10.766  44.431   4.331
61980W        W30374  28.417  29.421   2.147
61981W        W30375  26.241  22.440  13.950
61982W        W30376  29.515   7.608  10.631
61983W        W30377   5.359  18.623   1.391
61984W        W30378   8.329   9.412   3.695
61985W        W30379  11.858   6.671  13.506
61986W        W30380  27.839  35.396  11.093
61987W        W30381  12.906  10.114  10.654
61988W        W30382   3.109  44.967  13.796
61989W        W30383  38.816  18.768   3.293
61990W        W30384  39.802   2.917  12.528
61991W        W30385  21.017  21.461   1.268
61992W        W30386  37.522   2.471  13.128
61993W        W30387  39.108  25.006   2.711
61994W        W30388   7.282  40.752   0.375
61995W        W30389  44.210  34.850   2.352
61996W        W30390  21.516  14.777  13.817
61997W        W30391   4.963   3.247   4.512
61998W        W30392   7.974  39.765   1.823
61999W        W30393   3.369  29.694   4.308
62000W        W30394  43.885  31.447   1.351
62001W        W30395  20.105  24.837  13.795
62002W        W30396  33.985  33.990  11.783
62003W        W30397  33.271  16.669  12.433
62004W        W30398  40.895  38.225  11.670
62005W        W30399  36.313  36.389  12.119
62006W        W30400  13.327  11.998  10.638
62007W        W30401  22.774   9.331   0.765
62008W        W30402  13.230   8.653   1.852
62009W        W30403  11.892  32.797   2.743
62010W        W30404  18.780   1.428  12.001
62011W        W30405   8.207  32.456  11.520
62012W        W30406   3.143  24.476  11.268
62013W        W30407  42.216  18.322  11.015
62014W        W30408  41.910  39.791  11.420
62015W        W30409  27.587  17.836  13.458
62016W        W30410  22.467  11.648  13.845
62017W        W30411   7.324  16.147   4.777
62018W        W30412  24.862  33.201   2.395
62019W        W30413  11.280  35.865  14.536
62020W        W30414  26.960  18.672  11.582
62021W        W30415   1.746  41.560   3.599
62022W        W30416  17.327   7.024  12.487
62023W        W30417  35.427  12.231  12.858
62024W        W30418  17.099  33.190  14.931
62025W        W30419  23.201  17.369   1.761
62026W        W30420   6.313  15.090  12.523
62027W        W30421   3.264   0.556  11.120
62028W        W30422  38.582  32.379  12.006
62029W        W30423  24.780  11.014   0.867
62030W        W30424   1.515  26.959   0.869
62031W        W30425  40.580  21.405   1.123
62032W        W30426  22.116  30.560  14.016
62033W        W30427   0.855  27.142   4.722
62034W        W30428  39.922  13.515  12.550
62035W        W30429  23.246   9.637  13.871
62036W        W30430  30.122  19.166  11.102
62037W        W30431   8.827  29.736   2.823
62038W        W30432  24.401   5.818  13.061
62039W        W30433  33.475  21.308  10.728
62040W        W30434   9.731  37.660  11.701
62041W        W30435  31.260  16.193  13.814
62042W        W30436   3.280   6.661   1.630
62043W        W30437  41.900  22.026   1.805
62044W        W30438   7.740  33.544  12.142
62045W        W30439  40.024  15.164   2.408
62046W        W30440  13.767   7.041   3.280
62047W        W30441  38.468   8.781   0.240
62048W        W30442  18.574   6.511   4.617
62049W        W30443  14.880   8.387   4.061
62050W        W30444  34.652   0.799  13.575
62051W        W30445  15.340   8.942   4.712
62052W        W30446  40.519  29.393  10.275
62053W        W30447   1.859  14.966   3.913
62054W        W30448  10.840  28.452   2.068
62055W        W30449  12.878  12.457   1.569
62056W        W30450  26.452  22.491   1.365
62057W        W30451   6.419  37.176  12.367
62058W        W30452  26.586  44.210  14.412
62059W        W30453  40.295  34.326   0.348
62060W        W30454   2.497  26.717  11.417
62061W        W30455  20.782  31.124   1.896
62062W        W30456   6.757  15.842   4.573
62063W        W30457  32.494  16.524   4.698
62064W        W30458  31.183  13.196   4.839
62065W        W30459   5.358  30.636  11.563
62066W        W30460  41.032  27.709  10.755
62067W        W30461  15.228   4.145  10.662
62068W        W30462   5.205  27.130  11.683
62069W        W30463  28.690  11.617  11.590
62070W        W30464   9.021  18.642  12.485
62071W        W30465  39.452   1.678  13.594
62072W        W30466  27.035  43.068   3.841
62073W        W30467  31.994   0.833  11.405
62074W        W30468  31.539  39.987   4.049
62075W        W30469  43.907  33.637   3.349
62076W        W30470  27.416  33.305   4.159
62077W        W30471  13.895  42.383  14.554
62078W        W30472  38.542  11.092   2.073
62079W        W30473  32.334  17.269  14.920
62080W        W30474  26.168  33.164  12.998
62081W        W30475   5.055   5.290   1.673
62082W        W30476  33.874  36.402   0.728
62083W        W30477   4.339   6.618  11.402
62084W        W30478   2.533  28.425  11.089
62085W        W30479   3.180  21.641   2.441
62086W        W30480  37.349  31.968   0.505
62087W        W30481  15.186  37.365  13.243
62088W        W30482  39.311  29.212  12.049
62089W        W30483  21.337   0.920  12.732
62090W        W30484  43.419  24.480   1.909
62091W        W30485   8.829  34.740  13.956
62092W        W30486   2.316  17.497   0.885
62093W        W30487   1.898  30.523   0.990
62094W        W30488  33.578  17.667   4.423
62095W        W30489  28.275  30.836   3.882
62096W        W30490  12.722  33.987   0.213
62097W        W30491  24.907  22.554   3.165
62098W        W30492  43.650  21.832   4.391
62099W        W30493  30.514   0.327  11.839
62100W        W30494  44.502  37.398   1.355
62101W        W30495  38.271  36.857  13.265
62102W        W30496  22.039  39.399   4.373
62103W        W30497  18.491  37.408  11.275
62104W        W30498  26.670  25.095  10.710
62105W        W30499  10.108  30.932  11.868
62106W        W30500  35.381  36.893  13.417
62107W        W30501  41.484  32.380   0.871
62108W        W30502  37.970  31.899  12.845
62109W        W30503  36.704   6.806   3.689
62110W        W30504   5.828  15.025   3.190
62111W        W30505  42.226  15.638   2.660
62112W        W30506   1.468  37.055  12.587
62113W        W30507  42.057  30.466   3.841
62114W        W30508  19.292  28.408   4.413
62115W        W30509   6.764   4.791  10.895
62116W        W30510  37.010  37.829   3.148
62117W        W30511  43.320  30.194   0.318
62118W        W30512  38.563  42.319  13.459
62119W        W30513   8.640   0.134  11.471
62120W        W30514   3.008  38.559   0.387
62121W        W30515   4.731  24.445  12.205
62122W        W30516  20.757   6.423   1.957
62123W        W30517  42.967  17.658   3.846
62124W        W30518  36.367  21.227  12.616
62125W        W30519  38.878  32.851   4.689
62126W        W30520  26.130  33.003   0.740
62127W        W30521  26.235   7.114   4.567
62128W        W30522  36.498  40.495   4.152
62129W        W30523  32.432  44.581   3.601
62130W        W30524   8.640   2.495   4.248
62131W        W30525  30.248  34.384   2.823
62132W        W30526  10.310  33.690   1.927
62133W        W30527  18.848  22.628  12.843
62134W        W30528  23.527  30.473   0.230
62135W        W30529  32.622   6.497   2.146
62136W        W30530  39.046  33.611  12.906
62137W        W30531  21.612  39.585   3.510
62138W        W30532  29.990  40.577  11.672
62139W        W30533  44.822   2.380   1.316
62140W        W30534  29.477  10.746   2.343
62141W        W30535  22.823  20.235  13.628
62142W        W30536   7.191  22.035  14.831
62143W        W30537  14.320   5.496   4.409
62144W        W30538   4.358   5.476   4.135
62145W        W30539  13.216  16.811   2.698
62146W        W30540  39.616  15.844  14.086
62147W        W30541  35.288  10.663  12.848
62148W        W30542  40.646   0.588   0.866
62149W        W30543  10.600  34.545  11.630
62150W        W30544  15.851  18.560   9.808
62151W        W30545  36.354  23.826   0.982
62152W        W30546  22.061  20.945  11.762
62153W        W30547  33.632  31.471   2.678
62154W        W30548  24.693  15.320  14.309
62155W        W30549  11.392  23.088   3.790
62156W        W30550  10.858   9.326   2.279
62157W        W30551  24.649   7.346   2.146
62158W        W30552  18.773   4.677   2.642
62159W        W30553   5.846  16.724  10.573
62160W        W30554  27.470  35.649   2.201
62161W        W30555  11.116  38.935  13.448
62162W        W30556   9.305  16.710   2.710
62163W        W30557   9.696  11.103   3.639
62164W        W30558  29.453  14.013  11.107
62165W        W30559  38.512  14.752   2.405
62166W        W30560  44.167  31.135   2.683
62167W        W30561  13.673  44.830  11.208
62168W        W30562  40.745  31.522   0.277
62169W        W30563  39.999  16.516  14.397
62170W        W30564  28.069  19.008   3.309
62171W        W30565  10.279   5.105   3.711
62172W        W30566  27.957  25.832  12.273
62173W        W30567  28.056   3.373  10.176
62174W        W30568  23.165  14.844   0.408
62175W        W30569   1.777  19.284   1.941
62176W        W30570  32.548   4.912   0.402
62177W        W30571  23.509   0.287   1.772
62178W        W30572  14.057  21.488   4.071
62179W        W30573  14.755  33.476   1.943
62180W        W30574  26.685   8.834   3.711
62181W        W30575  19.251  11.706  12.176
62182W        W30576  28.243  31.762  10.543
62183W        W30577   1.177   9.643  13.550
62184W        W30578  25.720  42.188   4.584
62185W        W30579  11.285   7.923  14.556
62186W        W30580  26.684   6.802   3.852
62187W        W30581   9.881   6.849  12.801
62188W        W30582  32.547  23.620   0.989
62189W        W30583  15.350  44.144  13.832
62190W        W30584  18.082  34.834  10.944
62191W        W30585  16.888  44.191   3.247
62192W        W30586  41.720  11.350   1.422
62193W        W30587  27.564   6.627  14.883
62194W        W30588   5.413  43.511  12.086
62195W        W30589  30.919  21.643   4.302
62196W        W30590  31.906  17.035  11.064
62197W        W30591  11.027  18.131   0.919
62198W        W30592  18.289  36.684  10.679
62199W        W30593  36.454   0.790   0.160
62200W        W30594   7.903   4.653   2.287
62201W        W30595   2.359  26.949  11.881
62202W        W30596   7.849  36.719   4.153
62203W        W30597  37.940  32.624   2.932
62204W        W30598  36.114  16.697   1.624
62205W        W30599  16.806  37.040   2.282
62206W        W30600  36.662  23.102  12.460
62207W        W30601  18.303  18.622  13.905
62208W        W30602  12.587   6.647  11.643
62209W        W30603  22.725   9.180  14.269
62210W        W30604  31.410  43.322   2.082
62211W        W30605  31.180  12.072   1.656
62212W        W30606  34.867  32.919  12.862
62213W        W30607  34.389  14.837  11.456
62214W        W30608  21.686   6.449   3.198
62215W        W30609  15.130   4.366  11.134
62216W        W30610  26.181  38.455  12.453
62217W        W30611  10.643   7.881   1.952
62218W        W30612  42.393   9.229  12.513
62219W        W30613  39.251   5.403   3.273
62220W        W30614  11.988  43.927  11.608
62221W        W30615  32.903  29.679   4.096
62222W        W30616  24.465  11.650   5.304
62223W        W30617  15.764  42.999  10.683
62224W        W30618   3.235  44.203  11.513
62225W        W30619  40.029  17.806   4.495
62226W        W30620  39.483  17.044  10.775
62227W        W30621  35.056  27.454   2.474
62228W        W30622   4.572  13.685  11.713
62229W        W30623  20.550  19.088   3.512
62230W        W30624  24.680  39.522   0.767
62231W        W30625  42.399  21.190   2.746
62232W        W30626  12.471  10.517   3.692
62233W        W30627  34.595  36.084   3.665
62234W        W30628  36.192   6.180  11.202
62235W        W30629  34.968  32.113  14.284
62236W        W30630  19.796   3.412  13.938
62237W        W30631  20.020  14.588  14.037
62238W        W30632  41.976  11.905   0.027
62239W        W30633   7.351  37.536   4.204
62240W        W30634  23.726  28.120  13.175
62241W        W30635  30.574   1.884   4.862
62242W        W30636   1.419  16.477   0.005
62243W        W30637  41.464   3.983  11.956
62244W        W30638  27.389   3.245   0.720
62245W        W30639   8.573  30.503  14.403
62246W        W30640  34.171  44.827   4.135
62247W        W30641  17.443  14.371  10.825
62248W        W30642  35.905  11.517  12.866
62249W        W30643  27.637  35.631  11.483
62250W        W30644  18.824   7.440  13.476
62251W        W30645  43.706  42.984   1.490
62252W        W30646  17.148   7.430   4.008
62253W        W30647   6.603  15.287   0.924
62254W        W30648  18.115   0.405  12.313
62255W        W30649   4.071  24.734   4.173
62256W        W30650  36.732  21.989   1.162
62257W        W30651  40.203  11.184   2.352
62258W        W30652  25.207  25.205   2.899
62259W        W30653  18.285  41.874   9.799
62260W        W30654  33.933  15.071  13.906
62261W        W30655  41.492  24.594   4.594
62262W        W30656  21.734  34.288   1.916
62263W        W30657  43.365  15.219  14.079
62264W        W30658  43.226  23.717   3.304
62265W        W30659   5.472  31.010   1.271
62266W        W30660   1.978  21.775   0.676
62267W        W30661  38.626   0.552  12.843
62268W        W30662  17.344  17.273  11.996
62269W        W30663  37.041  36.019  14.340
62270W        W30664  40.202  31.040   0.883
62271W        W30665   5.279  39.076   4.809
62272W        W30666  20.139   5.502  11.901
62273W        W30667  17.262  41.261  14.520
62274W        W30668  19.430   0.382   3.244
62275W        W30669  28.455  42.433   1.758
62276W        W30670  30.415   0.802   2.484
62277W        W30671  43.392  17.481   2.602
62278W        W30672  22.241   7.184   1.230
62279W        W30673  36.309  30.376  11.476
62280W        W30674  16.754  32.940   3.634
62281W        W30675  26.040  21.382   0.433
62282W        W30676  15.603  39.853   4.872
62283W        W30677  11.721  26.607  11.174
62284W        W30678  14.574  34.434  14.498
62285W        W30679  29.929  35.727  12.043
62286W        W30680  28.217  20.557   4.826
62287W        W30681  28.529  28.211   0.391
62288W        W30682  20.161  28.633   3.387
62289W        W30683   1.351  26.581  13.561
62290W        W30684  25.255  12.016   1.351
62291W        W30685  23.193  17.226   2.745
62292W        W30686  15.703  22.273  12.543
62293W        W30687  12.402  12.177  12.915
62294W        W30688  42.741  21.622  12.138
62295W        W30689  43.220  15.214   1.849
62296W        W30690  35.422  41.018  11.569
62297W        W30691  12.829  33.549   2.138
62298W        W30692  44.800  11.096  13.431
62299W        W30693   3.171   6.238  14.778
62300W        W30694  40.531   4.337   4.509
62301W        W30695  36.415  30.929  10.663
62302W        W30696   0.925  11.278   1.319
62303W        W30697  33.274  26.939   2.742
62304W        W30698   0.352  22.098   3.005
62305W        W30699  32.043  13.974   3.837
62306W        W30700  14.345  26.139   3.365
62307W        W30701   0.397   2.925  12.153
62308W        W30702  39.588  21.826   4.059
62309W        W30703   2.288  15.590   1.415
62310W        W30704  38.387  16.109  14.994
62311W        W30705  43.872  11.308   2.683
62312W        W30706  29.001  36.974   3.684
62313W        W30707  24.428   2.745  12.481
62314W        W30708  17.649  11.737  10.486
62315W        W30709  33.996  31.913   2.868
62316W        W30710  17.887  27.596  13.909
62317W        W30711  34.371  24.526   3.369
62318W        W30712  35.755  30.589   0.757
62319W        W30713   8.494  25.331  11.171
62320W        W30714  41.570   2.320   4.257
62321W        W30715   6.568  43.921  11.230
62322W        W30716   2.459  28.167   0.058
62323W        W30717  21.176   9.944   5.104
62324W        W30718   8.448   9.401  11.045
62325W        W30719   9.641  17.080   0.382
62326W        W30720  27.939  21.618   0.353
62327W        W30721  12.097   6.586  13.013
62328W        W30722   1.531  13.693  14.125
62329W        W30723  14.850  42.066   0.017
62330W        W30724  25.771  36.407  13.784
62331W        W30725  16.130  29.687   0.156
62332W        W30726   6.191  21.579  14.028
62333W        W30727  39.978  17.593  11.169
62334W        W30728  27.865  12.343  13.097
62335W        W30729  30.311   1.195  14.598
62336W        W30730  17.002  29.027  10.685
62337W        W30731  31.471   9.405  12.490
62338W        W30732   2.958   4.161  12.316
62339W        W30733  40.386  11.799   0.471
62340W        W30734  20.793  14.390   2.751
62341W        W30735   8.921  17.042  12.927
62342W        W30736  39.499  23.580   2.255
62343W        W30737   9.209   9.823   1.738
62344W        W30738  39.576  19.161  13.463
62345W        W30739  19.238  34.359   0.442
62346W        W30740  17.605  15.673  13.581
62347W        W30741   4.352  21.689   1.239
62348W        W30742  44.066   8.423  10.624
62349W        W30743  12.114  36.049   0.788
62350W        W30744  39.280  20.018   1.331
62351W        W30745  38.235  18.252  14.365
62352W        W30746  31.011  18.702   3.656
62353W        W30747  10.174   3.662  11.333
62354W        W30748  29.638   0.561   0.462
62355W        W30749   5.678  38.887   0.728
62356W        W30750  27.435  17.330  14.406
62357W        W30751  22.794  19.486   2.596
62358W        W30752  15.304  14.636   2.654
62359W        W30753   7.319   4.748  11.507
62360W        W30754   8.360   7.941  14.753
62361W        W30755  42.071  13.661   1.226
62362W        W30756  11.675  44.447  10.640
62363W        W30757   5.443  21.199   0.224
62364W        W30758  29.122  43.329  11.447
62365W        W30759  18.321  20.657  10.086
62366W        W30760  43.133  32.058   2.753
62367W        W30761   1.866  10.292  14.904
62368W        W30762  15.001  23.773   3.793
62369W        W30763   9.191   9.414  12.525
62370W        W30764  24.642  37.829  12.575
62371W        W30765  42.606   5.851  14.393
62372W        W30766  19.564  42.400  12.975
62373W        W30767   4.880  18.261   2.360
62374W        W30768  35.803  13.592  13.014
62375W        W30769  12.182  33.588   3.865
62376W        W30770  38.457  33.860   3.444
62377W        W30771  22.514  38.885   2.136
62378W        W30772  26.706   4.757  12.483
62379W        W30773  34.533  15.216   1.367
62380W        W30774  37.499  23.262  13.184
62381W        W30775  36.919  36.483   0.715
62382W        W30776  22.960   3.892   0.113
62383W        W30777  35.531  21.579   1.140
62384W        W30778  44.240  39.449  11.762
62385W        W30779  31.893  32.573   0.012
62386W        W30780   7.883  42.834  10.828
62387W        W30781  37.732  43.849   0.811
62388W        W30782  13.434  16.352  12.873
62389W        W30783  22.209  34.906   0.975
62390W        W30784  29.164  34.925   0.455
62391W        W30785   6.502   3.652  11.507
62392W        W30786  44.903  27.502   3.210
62393W        W30787  36.826   4.185   1.365
62394W        W30788   5.769  44.572  10.344
62395W        W30789  43.082  31.094  11.981
62396W        W30790  35.587   7.866  12.507
62397W        W30791  43.932  11.042  10.565
62398W        W30792   0.579  13.002  13.952
62399W        W30793  31.770  12.386   4.464
62400W        W30794  42.014  21.635  12.585
62401W        W30795   5.358   6.161  11.972
62402W        W30796  13.186  30.068   2.070
62403W        W30797  15.792  37.377  11.097
62404W        W30798  33.518  28.612  14.163
62405W        W30799  31.434  42.037   1.824
62406W        W30800  18.246   1.530  11.285
62407W        W30801  37.496  37.911   0.525
62408W        W30802   9.024  22.743   4.953
62409W        W30803  44.115  19.742   1.025
62410W        W30804  30.021  12.144  13.854
62411W        W30805  42.153  34.359  10.630
62412W        W30806  41.265  13.701  12.610
62413W        W30807  39.392  29.013  11.045
62414W        W30808  43.511  44.985  11.021
62415W        W30809   4.155  29.336  12.930
62416W        W30810   3.188   5.877   3.313
62417W        W30811  43.204  19.784  10.361
62418W        W30812  10.049  43.444  11.244
62419W        W30813  30.687  20.738  13.386
62420W        W30814   4.669   9.120  13.940
62421W        W30815   0.916  41.839   1.692
62422W        W30816  40.400  16.596   4.431
62423W        W30817  29.050  25.655   0.985
62424W        W30818  25.571  14.067  11.209
62425W        W30819  37.553  36.854  14.382
62426W        W30820  16.705   2.759  13.906
62427W        W30821  36.311  32.887  14.044
62428W        W30822  43.846  12.375  13.922
62429W        W30823  19.217  32.437  14.828
62430W        W30824   1.346  21.310  14.463
62431W        W30825  24.166  13.760   3.029
62432W        W30826  16.187  39.928  14.900
62433W        W30827   6.142  27.093  10.671
62434W        W30828   5.295  40.328  13.860
62435W        W30829  43.027   9.423  10.917
62436W        W30830  38.632  20.236   1.750
62437W        W30831  25.985  14.667   4.541
62438W        W30832  30.144  25.527  14.417
62439W        W30833  14.779  18.152  12.949
62440W        W30834  14.479   4.293   0.335
62441W        W30835  43.993  41.748   2.206
62442W        W30836  38.143  11.669   4.282
62443W        W30837   3.709  14.432  13.444
62444W        W30838  35.842  10.788   2.766
62445W        W30839  36.890  12.374   1.491
62446W        W30840  42.911  11.688  12.282
62447W        W30841  37.408  41.824  12.792
62448W        W30842  21.095  42.794   1.137
62449W        W30843   5.631  30.393   2.347
62450W        W30844  33.837  14.649  13.039
62451W        W30845   8.889  41.709  12.360
62452W        W30846  23.678  16.192   4.267
62453W        W30847  42.301   8.811   0.543
62454W        W30848  12.767   4.628   4.537
62455W        W30849  41.279  39.475   3.281
62456W        W30850   3.008  29.941  14.466
62457W        W30851  32.991  17.805  10.892
62458W        W30852  31.529  18.325  14.314
62459W        W30853  29.957  41.566   1.357
62460W        W30854  23.155   2.918  14.076
62461W        W30855  43.412  39.200   9.732
62462W        W30856  27.177  21.726  11.300
62463W        W30857   3.916  31.867   2.410
62464W        W30858   1.459  44.375   3.797
62465W        W30859  41.247   7.617   3.401
62466W        W30860  38.891  32.544   0.771
62467W        W30861  42.887   4.014   1.326
62468W        W30862   0.328   7.323  14.232
62469W        W30863  36.019  12.756   0.702
62470W        W30864   8.894  31.985  10.987
62471W        W30865  44.878  27.424  14.506
62472W        W30866  37.097  15.392  10.226
62473W        W30867   2.420  15.500   2.284
62474W        W30868  12.885   8.204   1.850
62475W        W30869  19.807  33.212   2.247
62476W        W30870  19.324  26.136  11.084
62477W        W30871   9.921  13.737  12.108
62478W        W30872   1.254  24.263  12.004
62479W        W30873  20.639  31.542  12.944
62480W        W30874  10.952  31.134  14.345
62481W        W30875   2.476  38.480  11.570
62482W        W30876  13.266  21.165   2.739
62483W        W30877  33.858  44.419   4.917
62484W        W30878   5.479  40.413   0.755
62485W        W30879  10.991  10.223   3.576
62486W        W30880  31.871  42.505   3.241
62487W        W30881   3.686   1.913  14.442
62488W        W30882   3.811   7.229   2.905
62489W        W30883  34.036  35.400  12.361
62490W        W30884  15.310  38.189  10.671
62491W        W30885  26.764  10.756  14.399
62492W        W30886   1.615  31.085  10.575
62493W        W30887   0.086  31.220  11.994
62494W        W30888  18.638  10.723   3.681
62495W        W30889   9.141  21.552  13.422
62496W        W30890  27.922   2.940   2.363
62497W        W30891  13.909  44.444   1.944
62498W        W30892   5.319   3.269   0.551
62499W        W30893   6.853  25.613   0.715
62500W        W30894  33.291  12.109   0.914
62501W        W30895  10.757  32.640   1.148
62502W        W30896  28.765  11.786   1.742
62503W        W30897  17.265  13.719  12.405
62504W        W30898  22.678  17.985  14.289
62505W        W30899  34.016  13.600   2.374
62506W        W30900  29.159  18.529   1.177
62507W        W30901  23.055  19.200   1.916
62508W        W30902   0.449   6.311  10.967
62509W        W30903  39.212  40.625   4.367
62510W        W30904  40.928  32.865   4.549
62511W        W30905  35.715  39.589   1.764
62512W        W30906  26.348   9.239   1.260
62513W        W30907  10.196  26.353  14.453
62514W        W30908   9.384  17.718   0.298
62515W        W30909  25.089  19.333  14.758
62516W        W30910  38.875  25.155   0.761
62517W        W30911  43.878  25.915   2.856
62518W        W30912  29.884  20.987  12.525
62519W        W30913  42.358   2.434  13.097
62520W        W30914  37.373   6.834  13.585
62521W        W30915  41.074  18.391  12.662
62522W        W30916  28.507  17.455  13.515
62523W        W30917  42.150  26.156  12.445
62524W        W30918   0.645  18.734   0.927
62525W        W30919  15.069  33.437  14.729
62526W        W30920  38.815   2.294   3.655
62527W        W30921  11.761  31.844  12.214
62528W        W30922  30.733  18.076  12.110
62529W        W30923  44.355  36.479  10.662
62530W        W30924  22.058  28.405  11.105
62531W        W30925  36.694   7.228   4.261
62532W        W30926  30.684  31.882  10.697
62533W        W30927  36.288  43.477   1.753
62534W        W30928  44.665   6.312   2.810
62535W        W30929  36.301  34.803  11.129
62536W        W30930   6.675  31.366  12.649
62537W        W30931  26.222  20.050   2.165
62538W        W30932  30.663   6.714   1.130
62539W        W30933  13.461  14.635  12.814
62540W        W30934   9.343  27.967   2.871
62541W        W30935  23.241  24.514  14.168
62542W        W30936   9.972   6.717   0.755
62543W        W30937  44.568  38.429  11.273
62544W        W30938   1.818  43.997   3.598
62545W        W30939  28.495   8.155   3.624
62546W        W30940  26.918  29.194  13.466
62547W        W30941  26.618   1.309   2.354
62548W        W30942  21.043   1.682  10.726
62549W        W30943  42.014   7.461   0.588
62550W        W30944   7.932   3.308  12.108
62551W        W30945  18.125   2.020   1.303
62552W        W30946  16.486  42.800   3.295
62553W        W30947  27.753  43.056  10.298
62554W        W30948  42.505  42.176   0.174
62555W        W30949  30.534  10.210  12.611
62556W        W30950  21.888  26.776  13.442
62557W        W30951   9.787  33.532   0.632
62558W        W30952   4.207  10.920  11.245
62559W        W30953  32.686  26.704   3.573
62560W        W30954  44.343  43.719  10.617
62561W        W30955  37.519  10.371  11.143
62562W        W30956  18.606   5.518   4.813
62563W        W30957  29.558  12.043   0.207
62564W        W30958  40.550   0.303  13.623
62565W        W30959   2.336  41.144   0.277
62566W        W30960  28.692   9.592   4.003
62567W        W30961  13.884   9.372  11.727
62568W        W30962  28.407  43.204   4.573
62569W        W30963  18.195  13.665   1.432
62570W        W30964  18.640  29.200   2.425
62571W        W30965  31.601   3.407   2.708
62572W        W30966  43.801  24.242   4.368
62573W        W30967   7.139  23.157  11.873
62574W        W30968  42.005  35.424  10.606
62575W        W30969   3.755   7.314   0.935
62576W        W30970  19.367  23.776   4.794
62577W        W30971   1.513   8.730   1.126
62578W        W30972  17.033  35.320   4.252
62579W        W30973   6.969  25.207   0.418
62580W        W30974   1.016  16.596  10.588
62581W        W30975   3.811  15.247  12.112
62582W        W30976  19.238  17.700  12.946
62583W        W30977  27.953  41.539   4.228
62584W        W30978  18.093  16.241  12.147
62585W        W30979   5.882   1.545   2.116
62586W        W30980  15.589   4.704  14.912
62587W        W30981  28.090   5.397   4.653
62588W        W30982  41.794  41.350   4.125
62589W        W30983   9.650  19.814   4.437
62590W        W30984  42.371  12.213  12.337
62591W        W30985   2.785  17.544  13.223
62592W        W30986   0.970  17.901   1.295
62593W        W30987  38.582  44.508  12.152
62594W        W30988   2.506  38.787   0.402
62595W        W30989  27.753   3.804  14.942
62596W        W30990  18.062  42.474  14.866
62597W        W30991  44.505  14.718  12.963
62598W        W30992  16.999  33.052  12.607
62599W        W30993  18.771  31.485  14.867
62600W        W30994   2.936  25.843  11.145
62601W        W30995   6.245  30.160  11.514
62602W        W30996   3.259  19.860  14.351
62603W        W30997  33.857  44.950  13.036
62604W        W30998  23.969  22.191   0.833
62605W        W30999  16.130   1.667   0.082
62606W        W31000  10.104   2.441   0.117
62607W        W31001   0.955  13.278   3.213
62608W        W31002   4.848  21.453  14.957
62609W        W31003   7.812   4.848  13.564
62610W        W31004  30.475  12.644  11.530
62611W        W31005  42.413   1.465   4.854
62612W        W31006  34.610  20.260  12.965
62613W        W31007  12.113  13.776   4.137
62614W        W31008  42.841  31.657   1.211
62615W        W31009   6.889  20.130  11.228
62616W        W31010  10.672  11.098  14.241
62617W        W31011  35.402  40.964   0.921
62618W        W31012  23.452  10.246   0.277
62619W        W31013  25.472  25.965  11.571
62620W        W31014   0.771  25.651   1.931
62621W        W31015   2.887  17.773   0.789
62622W        W31016  16.729  30.139   3.164
62623W        W31017  20.188  34.457   0.041
62624W        W31018  20.857  34.565  11.182
62625W        W31019  21.931  28.169  13.189
62626W        W31020  18.433  35.959   1.597
62627W        W31021  22.422   6.776  14.988
62628W        W31022  44.714  40.059   2.074
62629W        W31023  33.082  20.066   1.450
62630W        W31024  16.498  16.652   5.542
62631W        W31025  42.437  38.460  12.714
62632W        W31026  37.377  27.252  12.509
62633W        W31027  24.543   9.645   4.229
62634W        W31028  22.814   2.532   0.837
62635W        W31029  18.247  19.304  14.174
62636W        W31030  40.710  21.687  14.005
62637W        W31031   6.769  34.134   4.510
62638W        W31032  40.764  40.970   4.672
62639W        W31033  22.330   9.212  13.887
62640W        W31034  22.537  22.278  10.971
62641W        W31035  21.027  38.217  12.444
62642W        W31036  30.023   2.632   3.159
62643W        W31037  38.065  31.922   4.083
62644W        W31038  26.057  33.724   4.509
62645W        W31039  15.312  19.802  14.411
62646W        W31040  11.407   5.822  12.840
62647W        W31041  33.364  32.392  11.681
62648W        W31042  38.424  33.440   1.192
62649W        W31043  34.934   7.947  10.808
62650W        W31044  35.084  26.000  13.972
62651W        W31045  18.268   4.276  14.814
62652W        W31046  10.276  17.771   1.250
62653W        W31047   5.202  44.873  10.942
62654W        W31048  29.126  41.581  11.554
62655W        W31049   9.270  42.114   2.983
62656W        W31050  12.257  26.626   3.776
62657W        W31051   5.706  43.540   3.678
62658W        W31052  22.192  30.052   4.729
62659W        W31053  41.277  43.756  11.482
62660W        W31054  32.018  39.257   0.522
62661W        W31055   4.148   2.782  13.499
62662W        W31056  34.830  40.809   2.353
62663W        W31057   6.384  35.705   2.512
62664W        W31058   2.593  13.701  11.524
62665W        W31059  37.325  15.113   1.803
62666W        W31060  17.487  20.795   4.770
62667W        W31061   9.669  39.254  11.156
62668W        W31062   8.796   5.054  12.676
62669W        W31063  44.945  20.022  12.959
62670W        W31064  39.038  31.575  10.773
62671W        W31065  43.311  29.693   1.705
62672W        W31066  27.754   0.467   1.894
62673W        W31067  35.397  33.456   0.716
62674W        W31068  22.413  14.070  12.275
62675W        W31069  33.731  26.570   1.411
62676W        W31070   4.922  36.013   3.133
62677W        W31071  18.686  42.478  11.441
62678W        W31072  14.676  40.771   3.683
62679W        W31073  20.273   6.344   0.873
62680W        W31074  36.579   3.731   2.676
62681W        W31075  23.941   7.158   0.402
62682W        W31076  31.094  17.272   0.756
62683W        W31077   8.738   9.721   4.698
62684W        W31078  23.476  10.157  13.998
62685W        W31079  29.532  32.577   4.774
62686W        W31080  30.574   3.908  13.901
62687W        W31081  13.378  11.631   2.764
62688W        W31082  28.056  12.277   1.999
62689W        W31083  25.938   9.906   4.558
62690W        W31084  36.944  26.842  13.193
62691W        W31085  32.429  15.548  11.733
62692W        W31086   0.479  19.455  13.662
62693W        W31087  10.899  24.697  11.562
62694W        W31088  42.077  12.199  11.087
62695W        W31089  42.074  41.935   3.705
62696W        W31090  25.220  29.060  12.356
62697W        W31091   9.410  14.026   0.337
62698W        W31092  29.489   5.404  13.033
62699W        W31093  13.500  40.944  11.523
62700W        W31094  32.675  35.467  11.127
62701W        W31095  24.249  41.421  12.534
62702W        W31096  28.614  22.985  10.413
62703W        W31097  19.451  29.706  11.273
62704W        W31098  21.570  44.918   2.827
62705W        W31099  17.809  42.927  14.353
62706W        W31100  19.515  21.739   3.728
62707W        W31101  32.475   8.105  14.337
62708W        W31102  15.761   2.209   2.137
62709W        W31103  19.278  39.279  14.026
62710W        W31104  37.640  25.699   1.481
62711W        W31105  22.280  33.703   4.195
62712W        W31106  42.818  38.752   4.961
62713W        W31107  21.054  39.302  10.525
62714W        W31108  20.092   2.868  12.821
62715W        W31109  12.393  17.136   4.048
62716W        W31110  39.492  17.783   4.421
62717W        W31111   6.397  21.188  14.301
62718W        W31112  22.016  12.235   1.887
62719W        W31113  38.350  35.158  14.779
62720W        W31114  19.343  43.367  12.147
62721W        W31115   9.814  37.822  13.265
62722W        W31116  17.843  29.991   2.917
62723W        W31117   7.727   3.114   0.401
62724W        W31118  21.532   4.930   4.880
62725W        W31119  23.034  16.845   1.822
62726W        W31120  38.167   9.122   1.882
62727W        W31121   4.802  31.455  14.925
62728W        W31122  12.084  43.811   3.213
62729W        W31123  12.654  31.414  11.985
62730W        W31124  29.484  27.039  13.331
62731W        W31125  38.116  38.795  11.125
62732W        W31126  14.312  19.520   3.123
62733W        W31127  31.606   0.199   0.701
62734W        W31128  28.702  24.613  13.756
62735W        W31129  32.723  17.363   1.781
62736W        W31130   2.335  17.638   4.438
62737W        W31131  24.047   4.390   0.566
62738W        W31132  20.587  30.027   0.075
62739W        W31133  12.261  42.785   3.411
62740W        W31134  20.758  40.621   0.974
62741W        W31135  12.975   1.487  12.640
62742W        W31136  22.192  26.022   1.404
62743W        W31137   0.255   5.296   0.898
62744W        W31138  25.971   2.697  12.051
62745W        W31139  23.033  42.994  12.567
62746W        W31140  16.869   4.239   4.555
62747W        W31141   9.648  30.756  12.470
62748W        W31142  14.833  11.209  11.611
62749W        W31143  16.393   0.363  14.826
62750W        W31144  11.389  21.235   2.239
62751W        W31145  28.128  14.526  12.101
62752W        W31146  13.418  18.985   0.856
62753W        W31147  17.542  19.488   4.572
62754W        W31148  38.024  22.505  13.509
62755W        W31149  32.409   6.092   1.867
62756W        W31150  33.981   9.402   0.318
62757W        W31151  24.485  13.698  10.787
62758W        W31152   8.749  22.567  11.461
62759W        W31153  27.941   1.514   2.877
62760W        W31154  10.314  10.581  11.116
62761W        W31155  35.588   0.900   3.232
62762W        W31156   5.276  25.722  11.615
62763W        W31157   6.880  41.628  12.895
62764W        W31158  44.023  22.053   1.308
62765W        W31159  13.034   2.743  11.934
62766W        W31160   8.269  19.783   1.708
62767W        W31161  21.938  34.507   0.307
62768W        W31162  38.796  13.662   0.857
62769W        W31163   3.730  13.249  14.453
62770W        W31164  35.195  41.935  13.329
62771W        W31165  23.297   7.735   4.399
62772W        W31166  31.139  41.069   3.857
62773W        W31167   8.794   4.015  12.481
62774W        W31168   2.352   4.407   0.973
62775W        W31169  41.849  41.549  10.800
62776W        W31170  19.081  21.760  10.960
62777W        W31171  38.072  24.672  14.783
62778W        W31172  18.851  44.514  14.430
62779W        W31173  17.559  40.846   0.672
62780W        W31174  23.817  24.635   4.039
62781W        W31175  34.279  12.303   0.762
62782W        W31176  21.061   5.809  13.779
62783W        W31177   5.710  37.426  11.950
62784W        W31178  41.570  43.749   4.686
62785W        W31179  19.081  27.408  14.502
62786W        W31180  10.227  20.420  14.825
62787W        W31181  44.641   1.902  10.762
62788W        W31182   5.192  16.600  12.481
62789W        W31183  31.912  26.430  13.329
62790W        W31184  20.112  17.637   0.840
62791W        W31185  27.888  25.725  10.360
62792W        W31186  23.237   5.366  11.356
62793W        W31187  32.596  17.803  11.598
62794W        W31188  20.083  26.259  11.535
62795W        W31189  33.377   0.145  13.192
62796W        W31190  30.587  23.793  13.870
62797W        W31191   2.979  29.369   2.023
62798W        W31192  31.762   9.474   4.137
62799W        W31193  15.215  39.772   4.095
62800W        W31194  26.188  38.473  10.814
62801W        W31195   0.885   4.341   3.623
62802W        W31196  37.567  31.298   3.855
62803W        W31197  43.785  16.587  13.969
62804W        W31198  44.677   0.417  13.283
62805W        W31199  41.640  11.849   2.995
62806W        W31200  11.119  43.386   0.322
62807W        W31201   8.822  29.226   4.522
62808W        W31202  26.039  13.704   0.508
62809W        W31203  38.367   2.320   2.305
62810W        W31204  11.716  26.682   1.716
62811W        W31205   3.966  26.670  13.002
62812W        W31206  15.783  41.928  12.961
62813W        W31207  30.926  32.459  13.025
62814W        W31208   8.221  29.961  10.848
62815W        W31209  14.593  33.466  13.775
62816W        W31210  14.173  28.086  10.714
62817W        W31211  17.391  24.607   0.132
62818W        W31212  34.987  28.605  13.323
62819W        W31213  38.760  34.354  11.156
62820W        W31214   8.335  32.989  12.193
62821W        W31215  35.192   4.528  13.470
62822W        W31216  42.236  40.021  10.746
62823W        W31217  14.775  41.339  11.120
62824W        W31218  17.699  39.492   4.916
62825W        W31219   0.989  26.445   1.720
62826W        W31220  16.736  12.461   4.153
62827W        W31221   6.408   8.706  12.438
62828W        W31222  28.855   9.034  11.555
62829W        W31223  20.328  21.185  14.268
62830W        W31224  34.600  27.194   3.636
62831W        W31225  30.482  42.575   3.292
62832W        W31226  31.952  40.364   1.371
62833W        W31227  23.961  17.224   0.377
62834W        W31228  20.216  35.926   0.863
62835W        W31229  10.250  41.887  12.490
62836W        W31230  29.949  10.925  12.609
62837W        W31231  43.391  12.600  14.994
62838W        W31232  12.217  24.613   4.734
62839W        W31233  27.935  35.894  13.145
62840W        W31234   5.404   6.546  10.488
62841W        W31235   4.564   4.693   3.599
62842W        W31236  35.500  25.327   0.731
62843W        W31237  38.539  39.595  13.061
62844W        W31238  38.841  36.799  12.567
62845W        W31239  19.916  22.707  14.878
62846W        W31240  32.114   1.999   3.389
62847W        W31241  43.336   1.727  14.719
62848W        W31242  25.615   4.554   1.260
62849W        W31243  42.447   0.783   1.362
62850W        W31244  34.486  37.410  14.374
62851W        W31245  44.157   4.538   4.545
62852W        W31246  12.867   0.785   2.040
62853W        W31247   0.231  25.237   0.764
62854W        W31248  32.778  28.209  12.497
62855W        W31249   9.524  18.306   4.356
62856W        W31250  30.152  34.365  13.884
62857W        W31251  31.665  25.953   1.124
62858W        W31252   1.880   8.701  12.577
62859W        W31253  32.783   4.327  11.954
62860W        W31254  25.483   0.931   0.001
62861W        W31255  41.733  28.716   1.241
62862W        W31256  21.681  41.781  11.969
62863W        W31257  30.900  18.505   0.476
62864W        W31258   0.183   6.873  12.100
62865W        W31259  11.231   0.717  12.973
62866W        W31260  33.425  19.670  12.548
62867W        W31261  21.245   9.457  12.023
62868W        W31262  15.893   1.395   1.893
62869W        W31263  12.866  29.046   1.428
62870W        W31264   7.377  32.099  12.322
62871W        W31265  33.400  10.635   2.012
62872W        W31266   7.121  39.234   3.825
62873W        W31267  33.890  10.804  13.368
62874W        W31268   4.261  14.122   3.368
62875W        W31269  29.696  11.852  12.420
62876W        W31270  10.859   3.414  11.657
62877W        W31271  36.100  26.515   1.606
62878W        W31272  21.397  25.058  12.966
62879W        W31273  37.583  43.184  13.614
62880W        W31274  12.032  43.537  10.626
62881W        W31275  34.710  23.025  11.618
62882W        W31276   7.415  22.731  10.175
62883W        W31277  32.387  39.401  14.265
62884W        W31278   2.403  24.998   3.922
62885W        W31279   8.960  33.601   0.050
62886W        W31280  13.336  35.597   0.921
62887W        W31281  37.509   3.276  12.083
62888W        W31282  41.576  38.744   0.355
62889W        W31283  42.386  38.790  14.272
62890W        W31284  20.746  20.925   4.209
62891W        W31285  38.403  38.593   2.706
62892W        W31286  41.832  41.246  12.997
62893W        W31287  31.125  30.880   3.907
62894W        W31288  11.298  30.697  12.548
62895W        W31289  22.084  33.483  12.946
62896W        W31290   5.014  19.690   0.457
62897W        W31291  32.578  35.497   4.077
62898W        W31292  25.730   0.169   1.775
62899W        W31293  12.143  17.101  11.967
62900W        W31294  31.152   9.185   0.259
62901W        W31295  37.776  37.566   1.663
62902W        W31296  22.724  17.871  13.405
62903W        W31297  30.631  36.996   4.218
62904W        W31298  22.761   3.437  14.930
62905W        W31299  10.182  39.366  13.364
62906W        W31300  39.106  31.581  10.268
62907W        W31301   7.840  35.988  10.216
62908W        W31302  10.372  26.404   1.339
62909W        W31303  28.608  35.993   3.694
62910W        W31304  27.740  13.744  14.714
62911W        W31305  11.821  38.510   1.609
62912W        W31306  25.027  31.462  11.237
62913W        W31307   6.392  25.549   3.330
62914W        W31308   9.011   1.800   3.731
62915W        W31309   5.849  19.656   3.187
62916W        W31310  19.585  30.988   2.287
62917W        W31311  38.754  24.652   0.258
62918W        W31312  15.805   3.745   2.942
62919W        W31313  41.405  30.568  10.622
62920W        W31314  17.730  33.539   2.493
62921W        W31315  24.101  21.948  12.088
62922W        W31316  11.112   3.383   1.796
62923W        W31317   8.113  35.628   4.117
62924W        W31318  16.818  21.519  12.141
62925W        W31319  17.672  34.868   4.624
62926W        W31320  29.587   3.434   2.994
62927W        W31321  18.286  36.096   3.667
62928W        W31322  26.533  30.871   2.799
62929W        W31323   2.921   9.613  12.821
62930W        W31324   5.268  22.554   2.991
62931W        W31325  31.640   3.677  13.993
62932W        W31326  33.081  38.880  14.926
62933W        W31327   5.673  42.391   0.041
62934W        W31328  21.401  44.044  12.848
62935W        W31329   2.794  28.884  11.552
62936W        W31330   0.657  15.984  12.434
62937W        W31331  37.957  23.235  12.409
62938W        W31332  17.179  10.214   4.560
62939W        W31333  36.449  14.611   3.259
62940W        W31334  14.677  12.348   2.287
62941W        W31335   8.434   4.633   4.686
62942W        W31336  29.468   3.611  11.265
62943W        W31337   7.874   4.049   3.624
62944W        W31338  43.823  37.760   3.924
62945W        W31339  27.477  13.158  14.983
62946W        W31340  14.102   6.198   3.502
62947W        W31341  21.021   3.568  11.973
62948W        W31342  30.973  10.693   4.640
62949W        W31343  25.253  40.523  10.827
62950W        W31344  19.700  20.519   0.079
62951W        W31345  28.571   6.233  11.618
62952W        W31346  10.835  36.918  11.845
62953W        W31347  38.763  27.145   2.243
62954W        W31348  10.097  10.389   1.871
62955W        W31349  22.286   1.964  14.902
62956W        W31350  35.443  33.675   3.223
62957W        W31351  39.270  12.746   0.755
62958W        W31352  37.010  38.644   4.138
62959W        W31353  12.114   6.415  11.673
62960W        W31354  22.008  40.478   1.802
62961W        W31355  10.279  19.151   1.143
62962W        W31356  25.003  27.644   1.334
62963W        W31357   6.739  23.232   2.270
62964W        W31358  24.714  26.977  14.773
62965W        W31359   1.034  37.893  14.318
62966W        W31360   3.187  33.839   3.051
62967W        W31361  32.334  29.520   0.944
62968W        W31362  10.130  31.772  13.527
62969W        W31363  33.960  14.549   2.118
62970W        W31364  13.213  27.490   2.687
62971W        W31365  27.971  37.751   3.984
62972W        W31366  42.462  15.078  14.542
62973W        W31367   2.664   4.317   0.131
62974W        W31368  20.081   2.420   1.872
62975W        W31369  16.517  44.786  10.868
62976W        W31370   4.904  34.685   3.108
62977W        W31371  19.787  23.080   1.008
62978W        W31372  27.710  20.727   2.733
62979W        W31373  16.755   8.644  12.426
62980W        W31374  39.254  30.090   0.328
62981W        W31375   5.180  31.238  13.917
62982W        W31376   1.265  14.380   3.684
62983W        W31377  23.630  31.548  14.686
62984W        W31378  28.463   5.422  14.856
62985W        W31379   0.322  33.593   2.688
62986W        W31380  33.141   3.365   3.516
62987W        W31381  17.718   9.751   3.432
62988W        W31382   0.488  39.384  12.628
62989W        W31383  21.001   1.365   3.290
62990W        W31384   9.316  14.125  11.115
62991W        W31385  17.419  32.054  13.507
62992W        W31386  29.482  11.918  14.425
62993W        W31387  25.599  35.242  11.450
62994W        W31388  29.752  14.025   1.992
62995W        W31389  24.915  35.520  11.957
62996W        W31390  30.563  23.824  14.733
62997W        W31391  30.881  28.669  12.055
62998W        W31392   0.444  39.071   4.233
62999W        W31393  29.961  42.326  13.506
63000W        W31394   5.785  28.396   2.312
63001W        W31395   0.951  44.803  11.911
63002W        W31396   9.636  30.578   0.507
63003W        W31397  34.669  12.131   2.226
63004W        W31398  36.868  33.531  11.102
63005W        W31399  25.464  28.008   3.826
63006W        W31400  28.100  28.747   0.774
63007W        W31401  19.138  23.217  14.822
63008W        W31402  22.145  16.334   4.858
63009W        W31403   0.363  32.979  11.959
63010W        W31404  10.429  25.775  11.638
63011W        W31405  38.962   2.897   2.791
63012W        W31406  15.240  31.518  12.932
63013W        W31407  20.233  23.172  12.607
63014W        W31408   7.203   1.233   3.965
63015W        W31409  32.957  14.245  14.253
63016W        W31410  14.677  23.906   4.206
63017W        W31411   9.955  23.802   9.784
63018W        W31412   4.774  41.934  11.851
63019W        W31413  23.483  36.889  13.830
63020W        W31414  24.355  36.634   4.098
63021W        W31415   1.152   3.137   4.118
63022W        W31416  17.468  17.090  12.853
63023W        W31417  38.635  42.805  11.556
63024W        W31418  39.771  42.228  12.883
63025W        W31419  15.720  18.772  13.491
63026W        W31420   4.302  18.543  13.133
63027W        W31421  32.459  17.141  13.252
63028W        W31422  11.787  12.185   4.439
63029W        W31423   0.969  35.078  10.781
63030W        W31424  21.596   3.886  13.807
63031W        W31425  32.295  28.104  14.165
63032W        W31426  44.839  21.844   0.143
63033W        W31427  19.520  15.962   3.653
63034W        W31428  38.349  18.074   1.195
63035W        W31429  27.113  38.367  10.976
63036W        W31430   2.887  37.048   1.555
63037W        W31431  27.483  19.346   4.072
63038W        W31432  28.029  10.610  13.998
63039W        W31433  41.326   6.553   1.220
63040W        W31434   8.310   2.396  11.584
63041W        W31435  44.821  17.842  12.497
63042W        W31436  39.317  13.330  13.638
63043W        W31437  21.063  16.073   0.849
63044W        W31438  14.178   0.343   3.809
63045W        W31439  32.944  43.696  14.303
63046W        W31440  31.987  12.422   1.719
63047W        W31441  15.075  42.348   2.527
63048W        W31442  28.869  43.390   1.288
63049W        W31443   6.666   9.398   1.444
63050W        W31444  43.376  23.752  14.435
63051W        W31445  34.137  23.729  13.536
63052W        W31446  19.101  17.814   3.401
63053W        W31447   6.645  33.864   0.888
63054W        W31448  11.312  31.885   4.871
63055W        W31449  18.617   1.869   1.358
63056W        W31450   9.734  31.107   0.406
63057W        W31451  35.404  28.128  12.040
63058W        W31452   9.085  21.278  12.991
63059W        W31453  10.436   4.382  11.213
63060W        W31454   7.445  17.601  12.118
63061W        W31455  39.925  30.342  12.062
63062W        W31456  10.407  16.211  11.675
63063W        W31457   2.427  26.779   4.352
63064W        W31458   5.060  10.221  14.505
63065W        W31459  24.137  20.878   2.930
63066W        W31460  36.107  44.961  14.558
63067W        W31461   3.811   9.244  13.452
63068W        W31462  15.396  27.635  13.836
63069W        W31463  30.922  33.134   0.420
63070W        W31464   7.975   7.570  12.935
63071W        W31465   8.709  28.211  14.955
63072W        W31466  19.677   6.983  12.881
63073W        W31467  21.315  23.434   3.692
63074W        W31468  12.193  17.645   1.857
63075W        W31469  25.118  21.691   0.228
63076W        W31470  35.069  37.059  11.539
63077W        W31471  22.261  23.502  13.068
63078W        W31472   4.705  39.548  14.059
63079W        W31473   5.328  13.073  13.859
63080W        W31474  27.665  41.875   2.635
63081W        W31475   2.455  16.030   2.167
63082W        W31476   1.476   5.888  14.787
63083W        W31477  40.418  16.162   2.172
63084W        W31478   9.340  19.351   4.630
63085W        W31479  23.455  31.367   2.806
63086W        W31480   0.264  24.069   2.852
63087W        W31481  25.241  26.552   0.432
63088W        W31482  36.437  22.707   3.668
63089W        W31483   8.176  41.481   2.778
63090W        W31484  17.396   0.458  11.989
63091W        W31485  24.467  10.154  13.072
63092W        W31486  17.637  19.263   1.003
63093W        W31487  24.036  40.842  11.322
63094W        W31488  10.134  14.083   2.746
63095W        W31489  17.335  15.785   1.388
63096W        W31490  26.181  11.810  14.915
63097W        W31491  20.235  36.350   2.732
63098W        W31492  13.380  35.015  14.669
63099W        W31493  43.040   5.694   0.335
63100W        W31494  22.512  24.949  11.582
63101W        W31495  41.710  43.409  11.585
63102W        W31496  37.361   4.179   5.031
63103W        W31497  41.555   0.601   2.141
63104W        W31498  25.557  31.376   3.566
63105W        W31499   1.913   6.658   1.634
63106W        W31500  33.137   0.457   2.791
63107W        W31501  23.092  33.388  14.922
63108W        W31502   1.348  19.617  13.150
63109W        W31503  31.201  32.267   1.883
63110W        W31504   9.469  16.110  13.462
63111W        W31505   5.795  36.506   3.883
63112W        W31506   8.650  27.698  12.677
63113W        W31507  19.222   5.737   3.221
63114W        W31508   1.677   9.062  11.870
63115W        W31509  14.514   1.049   0.831
63116W        W31510  35.935  36.956  14.536
63117W        W31511  11.836   7.430   4.730
63118W        W31512  34.924  38.400  12.861
63119W        W31513  35.448  29.761   2.716
63120W        W31514   5.966  30.416  10.349
63121W        W31515  27.033  41.157  11.198
63122W        W31516  10.655  13.880  11.654
63123W        W31517  16.423  22.498  14.472
63124W        W31518  10.306  15.171   3.783
63125W        W31519  10.301   8.654  13.070
63126W        W31520  42.788  18.353   5.122
63127W        W31521  26.394   8.404  12.417
63128W        W31522  32.836  11.626  14.311
63129W        W31523  16.268  31.102   4.601
63130W        W31524  21.613   4.492   2.659
63131W        W31525  11.203  22.633  12.216
63132W        W31526   3.896  38.055  13.840
63133W        W31527  22.084  20.634  11.039
63134W        W31528  29.319  25.713  10.959
63135W        W31529  14.242  42.808   4.557
63136W        W31530  25.228  26.611  14.017
63137W        W31531  24.573   3.252  13.260
63138W        W31532   6.555  27.999  11.584
63139W        W31533  18.807  25.509  14.325
63140W        W31534   6.396  35.198  14.670
63141W        W31535  10.872  14.859  11.509
63142W        W31536  17.736  30.388  14.893
63143W        W31537   5.726   7.954   3.665
63144W        W31538   2.816   5.423  12.961
63145W        W31539  16.613  15.138   2.146
63146W        W31540  32.114   7.431   3.685
63147W        W31541   4.937  27.264  14.322
63148W        W31542  20.287   5.415   2.196
63149W        W31543   4.151   8.740   1.712
63150W        W31544   5.382   9.811  13.738
63151W        W31545  17.575  21.513   1.383
63152W        W31546  19.993  11.365  14.128
63153W        W31547   6.544   0.216  13.362
63154W        W31548  25.572  18.021   0.938
63155W        W31549  24.235  28.032   0.640
63156W        W31550  15.681  12.450   4.196
63157W        W31551  36.030  31.745   4.166
63158W        W31552  24.139   8.357  14.837
63159W        W31553  26.456  16.056  11.713
63160W        W31554  41.463   5.176  14.749
63161W        W31555  10.287  36.562  10.263
63162W        W31556  22.283  37.944  12.894
63163W        W31557  39.534  11.314   4.414
63164W        W31558   7.425  24.023   0.762
63165W        W31559  43.152  23.613   1.668
63166W        W31560  19.409  39.063   5.325
63167W        W31561   8.280  26.919  12.461
63168W        W31562  39.059  31.067   0.078
63169W        W31563   6.305   8.563  12.947
63170W        W31564  29.998  28.964  13.601
63171W        W31565  42.008  10.773  11.970
63172W        W31566   0.877  43.198   1.411
63173W        W31567  10.567  13.254  12.152
63174W        W31568  43.341  14.110  14.854
63175W        W31569  22.104  11.973  14.357
63176W        W31570   6.297  15.899  12.071
63177W        W31571  30.796  23.943   3.175
63178W        W31572  20.312   5.812  13.541
63179W        W31573  35.530  43.411   2.215
63180W        W31574  28.564  19.544   1.844
63181W        W31575   2.298   8.026  11.230
63182W        W31576   9.858  14.316   3.167
63183W        W31577  23.206  30.452   0.860
63184W        W31578  41.421  22.937  10.645
63185W        W31579   3.454  19.373  14.282
63186W        W31580  43.118  19.774   1.615
63187W        W31581  12.846  10.192   0.351
63188W        W31582  10.188   6.240   1.339
63189W        W31583  43.496  26.397  14.378
63190W        W31584   9.940  13.818  11.154
63191W        W31585  36.292   0.729  14.194
63192W        W31586  17.455  23.122   0.464
63193W        W31587  25.339  36.753   0.310
63194W        W31588  26.102  14.771   3.651
63195W        W31589  33.532   9.373  13.945
63196W        W31590   1.467  24.478  12.488
63197W        W31591  30.907  30.173   1.730
63198W        W31592  34.689  15.823  11.536
63199W        W31593  33.378  33.992   0.368
63200W        W31594  41.941   9.867   3.674
63201W        W31595  31.470  29.597   3.241
63202W        W31596  32.421   7.939  14.872
63203W        W31597  43.334  28.350   2.540
63204W        W31598  15.333   3.363  13.061
63205W        W31599  23.630  20.664   2.898
63206W        W31600  27.264   4.153   0.789
63207W        W31601  29.711   2.712  12.432
63208W        W31602   6.481  11.833   4.972
63209W        W31603  20.337  39.869   4.603
63210W        W31604  43.600  21.461  14.678
63211W        W31605  19.866  37.582  10.253
63212W        W31606  12.697   3.840  13.029
63213W        W31607  26.149  35.615  11.144
63214W        W31608  30.354  12.408  14.935
63215W        W31609  32.599  24.052   4.970
63216W        W31610  42.002  12.903   3.094
63217W        W31611  29.421  18.337  10.669
63218W        W31612  14.772  42.418   3.780
63219W        W31613  14.027  16.441   0.398
63220W        W31614   4.693   3.091  11.517
63221W        W31615   6.300  37.386  12.821
63222W        W31616  36.902   0.604   0.362
63223W        W31617  15.700   3.470   0.466
63224W        W31618   4.023  39.267   2.781
63225W        W31619   4.312  10.299   5.023
63226W        W31620  38.822  26.986   5.094
63227W        W31621   1.350  27.041  14.378
63228W        W31622  44.253  40.051   0.821
63229W        W31623  27.278  30.040   3.599
63230W        W31624  31.075  41.550  12.892
63231W        W31625  31.635  37.973   2.204
63232W        W31626   3.475  40.457   4.622
63233W        W31627  12.286  20.578  11.973
63234W        W31628  41.055  20.035   0.047
63235W        W31629   4.048  17.566   1.123
63236W        W31630   7.131  40.017   1.861
63237W        W31631   0.434  33.101   4.114
63238W        W31632   5.878   0.989  10.507
63239W        W31633  31.310  29.315   2.852
63240W        W31634  26.631  14.761   3.451
63241W        W31635   4.207  11.136  12.077
63242W        W31636  26.432  26.075  13.542
63243W        W31637  22.958  10.296   0.436
63244W        W31638   7.622   2.056   4.175
63245W        W31639   1.963  11.217  12.107
63246W        W31640   5.246  40.020  11.541
63247W        W31641  12.100  35.658  11.984
63248W        W31642   4.287  44.781   3.017
63249W        W31643   8.140  41.345  13.480
63250W        W31644  12.860  37.023  13.352
63251W        W31645  16.531  22.039  10.671
63252W        W31646  20.465  10.175   4.603
63253W        W31647  21.209  40.524  13.446
63254W        W31648  15.234  12.253   3.235
63255W        W31649  17.128  43.322  14.433
63256W        W31650  42.855  13.199  13.553
63257W        W31651  41.519  35.119  11.234
63258W        W31652  42.911   1.746  12.143
63259W        W31653  22.325  41.892   2.912
63260W        W31654  37.788  40.147   3.171
63261W        W31655  21.062  17.728   2.166
63262W        W31656   5.795  35.049   0.850
63263W        W31657   6.760  26.243   9.913
63264W        W31658  41.994  43.285   4.173
63265W        W31659  11.305  28.135   4.050
63266W        W31660  41.238  19.286   1.694
63267W        W31661  16.463  36.913  10.215
63268W        W31662  33.605  32.918  12.388
63269W        W31663   4.668  13.073  11.638
63270W        W31664  43.338  34.575  11.121
63271W        W31665  44.687   6.516   3.952
63272W        W31666  18.094  12.374  14.253
63273W        W31667  20.718   7.628  13.170
63274W        W31668  42.480  43.193   1.612
63275W        W31669   9.743  29.154  10.602
63276W        W31670  13.746  32.504  12.848
63277W        W31671   1.926  16.672   0.726
63278W        W31672  19.523  43.173   4.462
63279W        W31673  36.139  31.518   3.731
63280W        W31674  43.898   9.410   2.701
63281W        W31675  40.521  36.497  10.580
63282W        W31676  38.302  14.772   4.673
63283W        W31677   5.840  13.413  14.225
63284W        W31678  35.461  13.421   3.658
63285W        W31679  13.187  17.523  13.434
63286W        W31680  14.091  12.847   1.835
63287W        W31681  12.753  20.300   1.188
63288W        W31682  29.252  28.589  14.303
63289W        W31683  27.279  12.672  12.009
63290W        W31684  12.409  34.936   0.372
63291W        W31685   8.378   0.247   1.429
63292W        W31686  27.923  15.049   4.195
63293W        W31687  33.174  11.317   4.418
63294W        W31688  16.081  10.197   9.553
63295W        W31689   4.260  19.748   3.207
63296W        W31690  26.468   3.409   0.220
63297W        W31691   9.814  41.046   4.551
63298W        W31692  39.343  19.217   2.681
63299W        W31693  36.406  22.195  11.191
63300W        W31694  18.078  15.567  13.810
63301W        W31695  32.516   9.245   0.380
63302W        W31696  21.732  34.450   2.406
63303W        W31697  33.820   9.783  12.150
63304W        W31698  25.405  34.506   2.810
63305W        W31699   3.212  31.878   3.183
63306W        W31700  30.279  14.835  11.203
63307W        W31701  14.671  17.075  14.459
63308W        W31702  26.250   9.375   5.042
63309W        W31703  32.600  16.024  12.038
63310W        W31704  24.592   9.269  13.901
63311W        W31705  36.078  21.240   0.407
63312W        W31706  34.048  29.189  13.540
63313W        W31707  43.506  43.827   2.105
63314W        W31708   4.809  31.187   2.716
63315W        W31709  42.384  15.529  11.156
63316W        W31710  13.699  18.609   2.780
63317W        W31711  27.628  19.025  14.759
63318W        W31712  11.170  44.994   0.873
63319W        W31713  14.151  32.513   2.554
63320W        W31714  10.088  34.321   0.380
63321W        W31715  28.085   5.322  10.316
63322W        W31716  29.495  12.355  14.743
63323W        W31717  21.288  27.776   9.982
63324W        W31718  36.612  16.792   1.867
63325W        W31719  38.653  23.165   4.529
63326W        W31720  43.455  43.366   4.418
63327W        W31721  33.025  24.711   4.656
63328W        W31722   0.608  21.426   0.921
63329W        W31723  26.883  31.153   4.021
63330W        W31724  44.985  24.658  10.394
63331W        W31725  43.785  29.499   0.402
63332W        W31726   0.633  41.916  12.921
63333W        W31727  15.855  33.853   3.641
63334W        W31728   6.463  32.887  11.414
63335W        W31729  24.197  11.642  10.759
63336W        W31730  36.639   0.001   3.214
63337W        W31731  39.047  21.072   4.394
63338W        W31732  32.715  22.095  12.117
63339W        W31733  19.564  11.749  14.988
63340W        W31734  12.202   2.809   2.195
63341W        W31735   1.750  18.783   4.907
63342W        W31736  40.954   2.001  14.944
63343W        W31737  36.310  18.564  11.887
63344W        W31738  16.021  40.829   0.322
63345W        W31739   3.263  15.703   4.024
63346W        W31740  13.081  29.433  13.553
63347W        W31741  15.310  19.596   4.614
63348W        W31742   0.042  20.149  13.463
63349W        W31743  34.344  32.860   1.746
63350W        W31744  35.111  44.919   0.385
63351W        W31745  42.268  42.433   1.898
63352W        W31746  24.085  39.485  11.206
63353W        W31747  12.731  14.320  13.244
63354W        W31748   2.844   6.869   4.718
63355W        W31749  22.615  33.504  13.026
63356W        W31750   8.555  12.615   0.763
63357W        W31751  25.714  43.797  12.804
63358W        W31752  31.472   9.407  14.462
63359W        W31753   0.032  13.176   3.224
63360W        W31754  24.479  15.563  12.081
63361W        W31755  21.041  13.719   4.631
63362W        W31756  27.476  42.101   1.220
63363W        W31757  21.479  26.096   1.722
63364W        W31758  39.029  41.659  11.028
63365W        W31759  25.562   6.322  13.585
63366W        W31760  11.371   0.917   0.491
63367W        W31761  33.593  11.758   0.708
63368W        W31762  26.092  40.213   2.586
63369W        W31763  14.109  21.821   2.542
63370W        W31764  25.591  27.107   1.681
63371W        W31765  33.897   6.284  12.354
63372W        W31766  13.632  36.590  10.531
63373W        W31767  14.721   1.750   0.351
63374W        W31768  31.371  30.646  12.570
63375W        W31769  40.601  30.996   4.264
63376W        W31770  42.502  35.779  12.030
63377W        W31771  25.087  20.998  13.842
63378W        W31772   0.990  20.507  14.338
63379W        W31773   7.786  39.303  12.439
63380W        W31774  37.921  19.274   0.945
63381W        W31775  29.964  10.161  11.447
63382W        W31776  34.441  22.989  14.087
63383W        W31777   5.889   8.936  14.510
63384W        W31778  32.437  36.649  11.007
63385W        W31779  43.331  26.505   4.177
63386W        W31780  35.400  26.838   3.227
63387W        W31781  38.064  16.855  11.548
63388W        W31782  28.803  31.844   4.745
63389W        W31783  18.371  40.420  14.371
63390W        W31784   4.977   0.850  11.229
63391W        W31785  24.318  41.759  14.375
63392W        W31786  10.155  36.812   5.110
63393W        W31787   4.946  22.645  10.379
63394W        W31788  29.046  14.238   3.623
63395W        W31789  20.282  27.098   3.154
63396W        W31790   0.718  11.109   0.834
63397W        W31791  44.497  15.312   3.300
63398W        W31792   5.910  29.415  13.545
63399W        W31793  24.807  33.436  10.651
63400W        W31794  39.846   9.605   0.340
63401W        W31795   4.064  40.965   1.003
63402W        W31796  38.092  34.420  13.113
63403W        W31797  41.575   4.814   1.211
63404W        W31798  22.863  19.333  11.114
63405W        W31799  25.150   6.707   1.674
63406W        W31800  28.132  39.112   4.357
63407W        W31801   2.788  26.708   2.710
63408W        W31802  31.541  43.148  14.055
63409W        W31803  24.208  37.950  14.367
63410W        W31804   8.022  21.751  14.484
63411W        W31805  43.883  26.747   1.342
63412W        W31806  23.519  35.541   0.730
63413W        W31807  39.483  37.922  11.255
63414W        W31808   4.321  27.021   2.761
63415W        W31809   2.248  14.326  10.928
63416W        W31810  33.059   3.576  11.220
63417W        W31811  44.917  39.156   4.181
63418W        W31812  17.086  14.191   1.719
63419W        W31813   2.274  20.726  11.008
63420W        W31814   4.011   8.119  13.065
63421W        W31815  33.456  11.999  14.760
63422W        W31816  15.279  11.234   1.865
63423W        W31817  36.328   2.754   2.497
63424W        W31818  32.142  18.216   9.917
63425W        W31819   3.743  17.711   0.144
63426W        W31820  34.192  43.440   2.093
63427W        W31821  37.940   4.513  11.316
63428W        W31822  26.900  32.983   2.099
63429W        W31823  35.790   5.893   1.249
63430W        W31824  26.453  24.660  10.536
63431W        W31825  41.473  36.288   5.528
63432W        W31826  15.594  26.538  11.718
63433W        W31827  13.265  12.574  11.555
63434W        W31828  16.671  28.749  11.111
63435W        W31829   5.429  41.450  11.988
63436W        W31830  36.805  15.162  14.787
63437W        W31831   3.851  38.102   4.160
63438W        W31832  26.557  28.921  10.806
63439W        W31833  12.309  11.770   2.676
63440W        W31834  39.797   4.939  12.569
63441W        W31835  35.588  39.766  14.294
63442W        W31836  10.699   8.673   2.857
63443W        W31837   9.340  26.467   1.231
63444W        W31838   4.108  18.474   3.304
63445W        W31839  43.043   4.150   0.459
63446W        W31840  25.816  23.311  11.130
63447W        W31841  20.735  41.013  14.017
63448W        W31842  44.056  24.542  14.479
63449W        W31843  31.341   8.904  12.480
63450W        W31844   5.954  18.972  12.811
63451W        W31845  27.169  35.491   3.048
63452W        W31846  42.523  41.252  11.430
63453W        W31847   8.797  34.592   2.158
63454W        W31848  21.299  33.513  14.868
63455W        W31849  43.358  24.739  12.150
63456W        W31850  37.465   7.991   3.250
63457W        W31851  10.308  40.831   4.509
63458W        W31852  41.535  29.082   2.195
63459W        W31853  11.428  13.649  12.064
63460W        W31854  28.571  17.750   0.383
63461W        W31855  40.796  19.468   1.865
63462W        W31856   5.585  41.932   2.773
63463W        W31857  28.692  39.910   0.520
63464W        W31858  40.517  31.300  13.931
63465W        W31859  40.013  30.499  13.910
63466W        W31860   5.404   4.768  14.098
63467W        W31861  22.718  16.662  10.758
63468W        W31862  24.618  31.924   3.792
63469W        W31863  32.162  20.150   2.722
63470W        W31864  17.937  20.797   3.857
63471W        W31865   5.492   1.357   0.362
63472W        W31866  20.471   1.477  11.798
63473W        W31867  22.977  21.679   4.059
63474W        W31868  25.929  14.298   3.585
63475W        W31869   9.932  16.768  13.812
63476W        W31870  17.403  27.357  11.086
63477W        W31871   4.128   4.481  10.244
63478W        W31872  32.070  35.911   3.646
63479W        W31873   3.179   3.050  14.742
63480W        W31874  30.454  24.125   1.851
63481W        W31875  13.339  28.057  13.306
63482W        W31876  29.562  41.026   0.791
63483W        W31877  29.664  22.031   2.364
63484W        W31878  44.365  42.118   0.945
63485W        W31879  35.730   4.615  13.997
63486W        W31880   4.293  39.285   2.321
63487W        W31881  36.556  20.222  14.708
63488W        W31882  33.081  42.459  10.315
63489W        W31883  14.797  25.833   4.285
63490W        W31884  28.643  23.089   2.458
63491W        W31885  33.979  34.917   4.600
63492W        W31886  30.701   4.880   4.949
63493W        W31887  12.478   7.812  13.099
63494W        W31888  22.782  34.955   5.113
63495W        W31889   6.127  35.578  14.439
63496W        W31890  40.057  40.252  13.535
63497W        W31891  29.536  23.021   1.410
63498W        W31892   5.397  44.934  12.780
63499W        W31893  33.216   4.268   4.658
63500W        W31894  41.853   9.215  11.725
63501W        W31895  25.186   3.744  13.184
63502W        W31896  13.332  10.214  11.564
63503W        W31897  15.246  32.420   2.667
63504W        W31898  41.779  37.990  10.824
63505W        W31899   8.286   4.777   3.464
63506W        W31900  11.877  13.756   2.302
63507W        W31901  10.587  14.391   3.351
63508W        W31902  26.957   6.814  14.437
63509W        W31903   2.406  31.107  13.734
63510W        W31904  44.306  37.940  13.315
63511W        W31905  34.978  18.159  13.526
63512W        W31906  35.139   1.459   1.405
63513W        W31907  32.906  29.596   1.160
63514W        W31908  39.294  31.656  11.597
63515W        W31909  41.546  34.606  11.358
63516W        W31910  41.734  26.438  11.728
63517W        W31911  35.631  12.784   4.584
63518W        W31912  23.711   0.784  14.643
63519W        W31913  15.147  10.233   1.739
63520W        W31914   2.680  14.927  11.478
63521W        W31915  29.797  36.620  12.116
63522W        W31916  13.176  13.927  11.925
63523W        W31917  15.118  24.194   3.523
63524W        W31918   4.866   7.689   0.656
63525W        W31919  37.176  39.163  11.284
63526W        W31920  40.752  15.165  11.186
63527W        W31921  21.661  37.571   3.696
63528W        W31922  28.947   4.943  11.421
63529W        W31923  14.896  38.840   9.838
63530W        W31924  22.359  43.544  11.859
63531W        W31925  18.722   3.335   1.217
63532W        W31926  15.325  38.555  11.557
63533W        W31927  19.717  23.063   4.869
63534W        W31928  24.123   6.664   3.149
63535W        W31929  10.192  32.360  10.665
63536W        W31930   6.160   2.380  14.907
63537W        W31931   5.213   2.848  12.445
63538W        W31932   5.997  17.611   4.204
63539W        W31933  42.488  38.623  13.574
63540W        W31934  21.262  44.414   0.893
63541W        W31935  20.619   0.801  12.915
63542W        W31936  25.618   6.315  14.094
63543W        W31937  42.493  21.526  13.461
63544W        W31938  10.346  44.610   4.079
63545W        W31939  31.947  17.280   2.664
63546W        W31940  12.254   2.177  12.960
63547W        W31941  19.571   2.763   2.285
63548W        W31942  29.704  39.198  10.435
63549W        W31943  36.948  11.669  13.495
63550W        W31944  11.733  31.874   4.070
63551W        W31945  26.168   1.525   2.234
63552W        W31946   0.245  18.405   0.978
63553W        W31947  13.153  38.408   0.838
63554W        W31948  38.743  36.112  14.327
63555W        W31949  39.360  28.946   0.893
63556W        W31950   7.745  17.229   2.312
63557W        W31951   1.044  27.595  10.569
63558W        W31952   3.302  20.148   4.303
63559W        W31953   6.356  11.600   2.949
63560W        W31954  37.589   8.185   0.457
63561W        W31955  18.061   3.651   4.119
63562W        W31956   9.330  35.642  12.567
63563W        W31957   2.535  33.889  14.031
63564W        W31958  37.570  28.591  14.865
63565W        W31959  29.477  19.157  14.806
63566W        W31960   0.930  27.285  12.986
63567W        W31961  39.422  10.448  14.399
63568W        W31962  12.107  32.128  14.405
63569W        W31963  28.880  15.098   4.263
63570W        W31964  40.598   7.309   0.423
63571W        W31965  22.606   1.440   2.904
63572W        W31966  15.375  43.278   2.286
63573W        W31967  32.920  32.925  10.433
63574W        W31968   9.602  12.447   4.458
63575W        W31969  20.278  19.888   2.298
63576W        W31970  26.848  21.267   4.673
63577W        W31971   2.383  29.388  11.087
63578W        W31972   3.900  19.547   4.251
63579W        W31973  14.350  24.475  11.079
63580W        W31974  17.396   8.369   5.208
63581W        W31975   3.966  30.583  13.495
63582W        W31976  19.042   5.315   3.579
63583W        W31977  39.570  32.544   2.929
63584W        W31978  23.319  17.740   2.777
63585W        W31979   5.162   5.919  11.193
63586W        W31980  13.405   6.273  13.103
63587W        W31981  31.595  31.130   3.395
63588W        W31982  36.548   5.791  11.056
63589W        W31983   6.453  36.508   1.501
63590W        W31984  16.125  12.093  14.926
63591W        W31985  12.697  23.059   0.744
63592W        W31986  27.034   4.804   1.528
63593W        W31987  20.750  26.011  10.642
63594W        W31988  29.121   7.159  12.246
63595W        W31989   1.547   9.749   4.053
63596W        W31990  35.741  25.866  12.529
63597W        W31991  20.859  31.545  12.046
63598W        W31992  13.905  10.257  10.750
63599W        W31993   6.212  42.381  13.218
63600W        W31994  32.933  43.822   4.713
63601W        W31995  32.227  35.623  10.986
63602W        W31996  31.826  27.929  14.253
63603W        W31997   1.238   6.123   1.908
63604W        W31998  22.630  30.649   3.735
63605W        W31999   9.193  36.045   5.107
63606W        W32000   8.384  24.598   3.152
63607W        W32001   4.379  44.376  13.145
63608W        W32002  22.086  21.647   0.305
63609W        W32003  28.620   2.717  12.742
63610W        W32004  43.657  28.162  14.435
63611W        W32005   0.337  37.406   2.851
63612W        W32006  11.605  26.964   0.871
63613W        W32007  32.675  37.917   0.426
63614W        W32008  31.421  41.038   0.813
63615W        W32009  12.863  10.406   0.839
63616W        W32010   7.892  37.876   1.601
63617W        W32011   6.030   2.147   9.757
63618W        W32012  30.146  12.891   1.396
63619W        W32013   4.785  35.607   3.471
63620W        W32014  15.165  30.029   4.850
63621W        W32015  39.369  31.602  14.497
63622W        W32016   2.993   9.658   2.352
63623W        W32017  40.033  13.841   2.188
63624W        W32018  17.299  28.509  12.165
63625W        W32019  10.833  11.700  13.509
63626W        W32020  23.048  31.603   3.746
63627W        W32021  34.416  10.759   3.438
63628W        W32022  32.891  11.266  13.952
63629W        W32023  27.958  39.028  12.034
63630W        W32024  12.267  12.801  14.525
63631W        W32025   1.020   6.734   0.742
63632W        W32026  13.070  41.053   4.545
63633W        W32027  44.777  43.937  12.460
63634W        W32028  35.948   6.404   1.264
63635W        W32029  30.119   2.131   3.071
63636W        W32030  40.124  17.105  11.130
63637W        W32031  42.985  27.901   0.343
63638W        W32032  25.875  29.070  13.581
63639W        W32033  10.183  34.853   4.102
63640W        W32034  21.595  12.928   3.156
63641W        W32035  25.909  28.469   2.755
63642W        W32036  24.167  11.688   3.275
63643W        W32037   4.782  31.845  13.563
63644W        W32038  43.744   2.353   4.343
63645W        W32039  18.678  13.540   1.212
63646W        W32040  28.446  20.280  11.150
63647W        W32041   6.744  36.650   3.813
63648W        W32042  42.026  27.134  12.378
63649W        W32043   9.125   7.478  10.774
63650W        W32044  24.544   4.863  11.549
63651W        W32045  31.405   0.499   0.339
63652W        W32046  37.864  35.389  12.899
63653W        W32047  34.507   0.735   3.279
63654W        W32048  32.673  20.763  12.117
63655W        W32049   8.402  26.740  14.966
63656W        W32050  39.583  24.750   3.054
63657W        W32051   2.764  29.265  12.851
63658W        W32052  36.590  11.264   4.082
63659W        W32053  40.485  43.453  12.935
63660W        W32054  42.891   7.303  11.632
63661W        W32055  23.070  15.058   0.905
63662W        W32056   8.618  31.455  12.946
63663W        W32057  29.473   4.894   3.904
63664W        W32058  23.487  41.221  10.745
63665W        W32059  25.502  26.325   3.131
63666W        W32060   8.807  14.442  10.320
63667W        W32061  38.822  35.171  13.248
63668W        W32062   1.527  32.942   2.725
63669W        W32063  30.534  44.466   2.950
63670W        W32064  23.914  18.701  12.420
63671W        W32065   8.293  39.414   2.914
63672W        W32066  42.175  10.116  12.431
63673W        W32067  15.069   7.181   3.309
63674W        W32068   7.587  26.049   1.194
63675W        W32069  23.642  32.374  12.443
63676W        W32070  17.220   4.388  14.984
63677W        W32071   8.892  32.929  10.964
63678W        W32072  20.570  18.643   3.783
63679W        W32073  11.680  39.520  13.937
63680W        W32074  17.333   1.207   2.751
63681W        W32075  29.000  36.014  12.366
63682W        W32076   7.306  39.117   1.902
63683W        W32077  14.094  18.711   3.824
63684W        W32078  29.715  25.688  14.126
63685W        W32079  15.379  33.022   1.854
63686W        W32080  24.188   3.236   3.723
63687W        W32081  29.302  37.496  10.671
63688W        W32082  16.048  33.243   2.416
63689W        W32083  42.821  26.956  14.305
63690W        W32084  33.502  34.461  12.869
63691W        W32085  43.762  25.223  11.658
63692W        W32086  44.307  39.940   4.660
63693W        W32087  12.001   3.214   1.456
63694W        W32088  21.117  39.750  13.966
63695W        W32089  12.198  42.020  14.794
63696W        W32090   0.824   4.999  10.733
63697W        W32091  27.086   3.658  13.336
63698W        W32092  42.867  35.813   1.484
63699W        W32093  39.222  34.560  11.255
63700W        W32094   6.678  18.109  14.763
63701W        W32095  32.717  32.690   3.332
63702W        W32096  29.430   5.932   4.590
63703W        W32097   0.088  15.565  13.782
63704W        W32098   1.496  30.916   0.739
63705W        W32099  11.628   0.935  14.603
63706W        W32100  20.690  14.788  14.581
63707W        W32101   7.862   5.666  14.116
63708W        W32102  11.769  43.230   4.107
63709W        W32103   1.894  19.584  12.869
63710W        W32104  32.693  33.406  10.365
63711W        W32105  40.232   6.879  10.631
63712W        W32106  39.506  18.805  11.610
63713W        W32107  12.781  24.060   2.271
63714W        W32108  44.316   8.404  10.127
63715W        W32109  39.883  19.295   2.720
63716W        W32110  19.802  19.874  10.951
63717W        W32111  13.251   4.827  13.414
63718W        W32112  33.018  32.630   2.308
63719W        W32113  17.159   2.935   4.997
63720W        W32114  42.313  19.182  10.524
63721W        W32115   3.256   1.922   1.356
63722W        W32116  43.542  32.360   1.587
63723W        W32117   6.910  28.816  12.862
63724W        W32118  21.714   0.865  13.098
63725W        W32119  43.832  34.911   4.880
63726W        W32120  12.355  28.484  14.596
63727W        W32121  33.054   2.053  13.404
63728W        W32122  22.042  19.724   3.172
63729W        W32123  22.241  14.639   2.241
63730W        W32124  35.399  30.984   0.698
63731W        W32125  19.153  36.377   2.360
63732W        W32126  42.782  35.175   3.695
63733W        W32127  39.647   3.939  14.734
63734W        W32128   3.231  32.251   4.199
63735W        W32129  39.297   7.135   4.979
63736W        W32130  27.229   9.305   0.316
63737W        W32131  17.582  20.624  13.799
63738W        W32132  34.950  21.466   4.902
63739W        W32133  17.151  18.988  14.863
63740W        W32134  10.348  38.785  14.838
63741W        W32135  37.791   1.672  13.953
63742W        W32136  42.098  11.251   3.625
63743W        W32137  25.631  11.686   1.454
63744W        W32138  39.409  36.628  10.704
63745W        W32139  34.583  41.128  13.110
63746W        W32140  32.044   2.484  13.449
63747W        W32141  28.030  37.208   4.061
63748W        W32142  13.328  29.606  12.617
63749W        W32143  29.527  34.435  12.076
63750W        W32144  42.904  28.557  14.207
63751W        W32145  10.247  31.868   1.340
63752W        W32146  26.618  43.277   4.571
63753W        W32147  38.812  29.392  13.920
63754W        W32148   0.863   0.971   3.398
63755W        W32149  19.143  22.850   4.939
63756W        W32150  26.030   2.354  13.867
63757W        W32151  26.122  33.381  11.505
63758W        W32152  42.041  11.372  11.308
63759W        W32153  36.461  30.465   0.244
63760W        W32154   9.169  29.197  11.935
63761W        W32155  22.894  25.710  14.742
63762W        W32156   7.909  31.244   2.502
63763W        W32157  13.202  41.072   0.989
63764W        W32158  35.519  41.496   1.866
63765W        W32159  38.304  26.212   0.339
63766W        W32160  19.362  23.083   3.401
63767W        W32161  18.689   2.022  12.020
63768W        W32162  34.967  29.375  13.795
63769W        W32163  23.084  35.889   5.258
63770W        W32164  18.116  13.306  12.823
63771W        W32165  36.597  44.842   2.294
63772W        W32166  38.096  17.153   0.001
63773W        W32167  21.255  31.917  12.101
63774W        W32168  44.474   8.425  11.635
63775W        W32169   1.534   8.484   4.931
63776W        W32170   6.658  31.739  12.273
63777W        W32171   3.443  12.390  12.079
63778W        W32172  16.810   8.734   1.632
63779W        W32173  23.761   9.873   1.221
63780W        W32174  30.114  18.977   2.209
63781W        W32175  43.255  35.998   2.250
63782W        W32176  14.221   3.335  10.361
63783W        W32177  26.403  42.086   4.129
63784W        W32178  18.062  34.327  12.451
63785W        W32179   8.887  37.439  12.271
63786W        W32180  31.074   6.119   2.201
63787W        W32181  13.792  35.870  13.389
63788W        W32182  30.009  38.295   1.922
63789W        W32183  34.463  33.597   2.423
63790W        W32184   2.319  38.902   3.548
63791W        W32185  12.558   5.442   4.195
63792W        W32186  28.959  42.297   1.870
63793W        W32187  30.939   1.478  13.400
63794W        W32188   6.666  34.176  12.272
63795W        W32189  13.747   2.815   3.907
63796W        W32190  37.438   2.184  11.191
63797W        W32191  42.561   2.533   0.708
63798W        W32192  19.068  32.073  11.572
63799W        W32193  27.130  40.010  12.614
63800W        W32194  38.175  13.873   2.760
63801W        W32195  38.178  30.925  11.989
63802W        W32196  32.652  18.329   1.775
63803W        W32197   2.957   9.879  11.097
63804W        W32198  42.321   2.337  14.123
63805W        W32199  41.574   8.222   1.375
63806W        W32200  28.644  44.872  13.533
63807W        W32201  34.379  12.652  12.379
63808W        W32202  23.971   3.289  12.153
63809W        W32203  16.147  44.534  13.943
63810W        W32204   5.783   8.786  11.492
63811W        W32205  21.893   5.229  10.947
63812W        W32206   6.341  27.362   1.418
63813W        W32207  18.780   7.819   4.134
63814W        W32208  13.908  14.204   3.119
63815W        W32209   4.921  39.976  13.868
63816W        W32210   4.519  26.991   9.931
63817W        W32211  44.263  44.399  11.069
63818W        W32212  20.531  38.553  12.959
63819W        W32213  40.626  13.169  11.473
63820W        W32214  24.076   4.902   1.875
63821W        W32215  36.780  43.544   2.743
63822W        W32216  33.049  29.569  12.752
63823W        W32217  20.726   4.585  13.212
63824W        W32218  33.043  44.416  13.908
63825W        W32219   9.312   0.447   1.555
63826W        W32220  40.588  33.436  10.289
63827W        W32221  29.749  35.750   2.351
63828W        W32222  43.785  33.572   4.287
63829W        W32223  33.091  20.329   3.697
63830W        W32224  41.021   1.406   3.141
63831W        W32225  27.142   3.580   3.283
63832W        W32226  44.216  20.242  11.570
63833W        W32227  28.102   9.674   9.820
63834W        W32228  41.536  37.287   1.187
63835W        W32229  10.337  13.174   2.776
63836W        W32230  33.514   4.715  13.585
63837W        W32231  10.583  44.814  12.385
63838W        W32232  10.715  10.585   2.337
63839W        W32233  16.754   3.272   3.645
63840W        W32234  36.477  10.110  11.545
63841W        W32235  39.980  32.782   3.181
63842W        W32236  18.624  24.234   4.653
63843W        W32237   1.903   8.504  13.050
63844W        W32238  15.109  10.377   3.609
63845W        W32239  25.622   6.733  11.657
63846W        W32240  10.052  14.154   4.237
63847W        W32241   9.688   2.474  11.327
63848W        W32242  34.386  34.548  13.851
63849W        W32243  41.029  13.617  14.534
63850W        W32244  37.438  27.190  14.903
63851W        W32245   5.240  16.254  14.291
63852W        W32246   3.036  27.431   1.328
63853W        W32247  37.949  17.571   0.934
63854W        W32248  29.701  39.308   2.755
63855W        W32249  14.747  35.200  11.015
63856W        W32250  43.921  14.393  14.009
63857W        W32251  14.569  37.585   1.231
63858W        W32252   8.815  31.255   1.372
63859W        W32253  26.977  34.549  12.250
63860W        W32254  14.688  16.657   4.720
63861W        W32255  26.918   0.524   1.436
63862W        W32256  36.266  26.554   9.815
63863W        W32257  15.008  10.721  11.655
63864W        W32258  31.938   1.255   1.741
63865W        W32259  18.293  37.391   3.632
63866W        W32260   3.760  25.516  14.414
63867W        W32261   7.990  21.543   4.261
63868W        W32262  23.726  12.999   4.567
63869W        W32263  31.504  41.006  10.813
63870W        W32264  23.515   8.339  13.986
63871W        W32265  40.328  11.721  13.135
63872W        W32266  37.473  22.024  13.732
63873W        W32267   9.870  16.192   0.400
63874W        W32268  26.711  24.268   2.282
63875W        W32269   8.048  36.518   4.598
63876W        W32270  31.120  36.014   0.359
63877W        W32271  43.183  17.097   9.973
63878W        W32272   9.824  36.435   3.061
63879W        W32273  21.209  41.357  13.326
63880W        W32274   5.930   4.413  14.980
63881W        W32275  26.059  32.051   2.440
63882W        W32276  25.973  43.395  13.001
63883W        W32277  18.474  40.371   1.812
63884W        W32278   1.271  35.151   0.911
63885W        W32279  20.700  23.996  11.554
63886W        W32280  30.596  27.553  10.692
63887W        W32281  40.055   9.749   3.963
63888W        W32282  33.060  16.444   4.093
63889W        W32283   3.426  34.402   3.296
63890W        W32284  27.129  28.004   0.282
63891W        W32285  23.414  26.618   3.298
63892W        W32286  35.414  41.914   2.184
63893W        W32287  36.450   4.452   2.168
63894W        W32288  18.545  43.312   2.752
63895W        W32289  30.992  21.778   2.010
63896W        W32290  24.168  34.537  11.414
63897W        W32291  15.874  32.243   5.014
63898W        W32292   7.867  42.088   3.767
63899W        W32293  38.530  20.069   4.585
63900W        W32294  28.952  31.637  13.752
63901W        W32295  32.469   1.566  11.478
63902W        W32296  36.359  25.202   1.253
63903W        W32297  15.836  29.452  14.481
63904W        W32298  20.517  21.823  11.918
63905W        W32299  23.154  32.121   3.767
63906W        W32300  36.560  32.552   1.373
63907W        W32301  21.765  38.067  12.930
63908W        W32302  42.277   2.179   0.307
63909W        W32303   0.348  21.190  12.049
63910W        W32304  26.013  17.100  13.231
63911W        W32305  15.694  21.619   4.149
63912W        W32306   1.367  25.058  14.568
63913W        W32307   9.617   7.859  13.039
63914W        W32308  39.024  43.734   1.360
63915W        W32309   8.413  15.627   0.876
63916W        W32310  42.695  13.022   3.601
63917W        W32311   2.914   1.494   3.859
63918W        W32312  17.660  24.905   0.477
63919W        W32313   1.526  37.955  10.722
63920W        W32314   1.859   3.715   1.354
63921W        W32315  37.340  14.311  10.350
63922W        W32316  35.934  16.972  14.893
63923W        W32317  35.316  22.677  12.533
63924W        W32318  15.496  29.401  13.303
63925W        W32319  21.246   0.885   3.258
63926W        W32320  41.487  43.422  12.114
63927W        W32321   5.210  14.105   3.572
63928W        W32322  25.102  30.164  14.846
63929W        W32323   1.412  17.234  14.273
63930W        W32324   1.002   1.449   1.159
63931W        W32325   8.411   5.982   2.210
63932W        W32326  38.662  43.048   3.488
63933W        W32327  29.636   7.448  13.995
63934W        W32328   7.767  33.350   4.340
63935W        W32329  40.963  10.737  10.754
63936W        W32330   9.257   4.620   3.685
63937W        W32331  29.985  19.044  14.747
63938W        W32332   3.500  36.635   1.947
63939W        W32333  12.771   7.223  11.245
63940W        W32334  31.910  13.579  13.390
63941W        W32335  23.318  22.264  14.404
63942W        W32336  22.460   5.697   4.532
63943W        W32337  31.050  36.355   4.417
63944W        W32338  29.409  31.677   3.280
63945W        W32339  12.725   7.379   1.420
63946W        W32340  12.518   2.329   1.471
63947W        W32341  42.373   2.020   2.303
63948W        W32342  28.493   2.476   4.570
63949W        W32343  42.503   0.405   0.974
63950W        W32344  21.898   3.282   3.301
63951W        W32345  18.241  17.143   2.290
63952W        W32346   1.389  28.924  14.587
63953W        W32347  29.225  30.976   0.853
63954W        W32348   7.165  23.481   1.476
63955W        W32349  10.379   4.738  14.798
63956W        W32350   7.766   9.379   4.464
63957W        W32351  21.765  39.495  13.389
63958W        W32352   4.696   1.808  14.387
63959W        W32353  22.080  37.966   3.355
63960W        W32354  31.512  39.718  14.354
63961W        W32355  28.843  40.011  12.010
63962W        W32356  21.499  36.804  14.680
63963W        W32357   3.244  26.942  12.507
63964W        W32358  32.593  36.736  12.912
63965W        W32359  12.097  36.802   1.925
63966W        W32360  13.186  39.710   4.001
63967W        W32361   9.501   5.409   1.717
63968W        W32362  43.422   8.359  12.795
63969W        W32363   4.908  11.185  13.153
63970W        W32364  26.020  34.180  12.948
63971W        W32365  11.073   9.475   3.349
63972W        W32366  29.983   0.855   2.156
63973W        W32367  42.355   2.495   2.083
63974W        W32368  31.455  35.533  13.071
63975W        W32369   5.216  44.246   1.724
63976W        W32370  33.894  13.880   1.364
63977W        W32371  24.199  14.752   3.452
63978W        W32372  36.358  13.235  11.162
63979W        W32373  34.402   4.442   3.208
63980W        W32374  15.741  25.743  10.620
63981W        W32375  38.503  39.627   3.623
63982W        W32376  22.416  32.848  11.069
63983W        W32377   4.477  36.895  12.106
63984W        W32378  25.998   0.766   2.728
63985W        W32379  23.787  14.927   1.257
63986W        W32380  10.687  37.395   4.801
63987W        W32381  12.653  26.379   4.509
63988W        W32382  44.363  24.173   0.712
63989W        W32383  25.495  34.205  13.017
63990W        W32384  26.930  37.437   2.975
63991W        W32385  36.598  36.109   0.151
63992W        W32386  13.565  13.159   4.083
63993W        W32387  37.988  35.068  14.398
63994W        W32388   3.257  29.647  11.137
63995W        W32389  26.793   8.943   2.206
63996W        W32390  27.198  29.098   3.462
63997W        W32391  15.819  41.400   2.319
63998W        W32392   7.832  33.613  10.593
63999W        W32393  44.436  43.548   0.754
64000W        W32394  38.128  39.017  11.620
64001W        W32395   9.532  19.031   2.305
64002W        W32396  18.081   8.930   0.738
64003W        W32397  27.524  38.356   3.660
64004W        W32398  24.565  34.143   1.815
64005W        W32399  12.261  28.049  11.080
64006W        W32400  37.935  32.814  13.844
64007W        W32401  36.077  15.619  12.471
64008W        W32402  21.051  34.607   4.565
64009W        W32403   7.170  35.913   1.400
64010W        W32404  32.969   7.167  13.281
64011W        W32405  25.951  36.553  14.427
64012W        W32406  44.519  37.605  10.805
64013W        W32407  22.831  20.255   3.139
64014W        W32408  30.163  26.506   2.766
64015W        W32409  28.076  34.563  14.358
64016W        W32410  13.691  29.988  11.988
64017W        W32411  19.788  28.207   1.392
64018W        W32412  33.148  15.890   4.695
64019W        W32413  43.376  34.054  10.423
64020W        W32414  18.739  41.475   0.316
64021W        W32415   2.708  13.176  11.527
64022W        W32416  41.462  13.864  13.899
64023W        W32417  38.585  10.424   3.172
64024W        W32418  27.376  31.119  14.456
64025W        W32419  21.208  13.130  10.312
64026W        W32420  36.860  44.570  12.597
64027W        W32421  37.463  23.081  10.839
64028W        W32422  16.108  24.397   2.823
64029W        W32423  44.041  38.055   2.609
64030W        W32424  25.994  15.896  14.853
64031W        W32425  13.216  10.160  14.967
64032W        W32426  26.241   3.013  14.941
64033W        W32427  15.684  43.699  11.206
64034W        W32428  41.339   3.356   2.772
64035W        W32429   3.214   3.795   2.412
64036W        W32430  42.060  39.450   1.340
64037W        W32431  15.300  13.266  13.863
64038W        W32432   7.362  14.173   4.257
64039W        W32433  40.649  24.406  14.850
64040W        W32434   2.198  16.709  13.862
64041W        W32435  27.477  37.417   4.731
64042W        W32436   5.898  15.282  10.039
64043W        W32437  27.213  14.731   2.762
64044W        W32438  41.425  44.164   2.434
64045W        W32439  32.005  43.864  12.103
64046W        W32440   1.501   9.895  14.879
64047W        W32441  17.764   3.222  14.890
64048W        W32442   1.077  10.397   1.325
64049W        W32443  18.762  32.999   4.288
64050W        W32444  21.386  23.558   4.547
64051W        W32445  12.012  20.768  11.083
64052W        W32446  24.319  30.974   3.593
64053W        W32447  36.605  40.476   3.136
64054W        W32448  16.162  24.476  11.493
64055W        W32449  40.730   6.492  12.633
64056W        W32450  15.281  37.125  11.976
64057W        W32451   3.301  26.149  14.970
64058W        W32452  41.603  39.840   2.079
64059W        W32453  39.566  33.335  13.926
64060W        W32454   1.060  12.132  11.122
64061W        W32455  24.498   0.957   2.747
64062W        W32456   1.409  44.770  11.660
64063W        W32457  35.169  41.612   2.743
64064W        W32458  27.671  44.515   0.018
64065W        W32459  11.902  44.215   4.801
64066W        W32460  19.543  25.650   0.032
64067W        W32461  18.329   2.935   2.750
64068W        W32462  25.473  11.496  13.812
64069W        W32463  12.802  21.635   3.241
64070W        W32464   9.173  14.382  13.991
64071W        W32465   4.701  29.894  13.459
64072W        W32466  23.217   3.705  11.195
64073W        W32467  21.310   7.412   3.293
64074W        W32468  11.602  43.472  10.896
64075W        W32469   4.003  15.177   3.098
64076W        W32470  41.543   7.163   2.837
64077W        W32471  42.844  33.139  14.963
64078W        W32472   7.952  12.717  10.675
64079W        W32473   4.021   2.206  11.046
64080W        W32474   0.686  40.008   1.319
64081W        W32475  28.094  24.178  14.878
64082W        W32476  31.594  22.104  11.602
64083W        W32477  20.761  41.512  13.123
64084W        W32478  34.452  34.463  14.367
64085W        W32479  37.326  16.767  11.157
64086W        W32480   9.633  25.013   3.611
64087W        W32481  23.727  39.395  10.386
64088W        W32482  15.148  25.161   0.806
64089W        W32483   9.052  42.361  11.656
64090W        W32484   4.937   4.244  11.945
64091W        W32485  27.420  12.348  12.416
64092W        W32486  31.390  27.976   5.185
64093W        W32487  36.820  11.394  11.453
64094W        W32488  23.886  44.742   2.320
64095W        W32489   8.271  10.247  14.865
64096W        W32490  38.914  25.905  11.982
64097W        W32491   4.152  20.368  13.024
64098W        W32492  34.924  10.701   2.237
64099W        W32493  11.688   0.406   3.994
64100W        W32494  44.459  34.714  14.582
64101W        W32495  41.732  29.948   1.654
64102W        W32496   6.435  24.058  14.880
64103W        W32497  31.403   9.090   4.170
64104W        W32498   8.734  12.995   2.474
64105W        W32499  26.905   7.305  12.565
64106W        W32500   8.797  43.735  11.284
64107W        W32501  14.590  25.799   1.118
64108W        W32502  33.567  30.701   1.397
64109W        W32503  14.578  33.630   3.672
64110W        W32504  26.665  41.359  11.590
64111W        W32505  30.139  19.709  11.043
64112W        W32506  20.906  31.794   1.270
64113W        W32507  29.534  43.604  11.298
64114W        W32508  32.222  15.854   2.737
64115W        W32509  26.527  37.145  10.459
64116W        W32510  27.594  12.205  11.961
64117W        W32511  31.482  34.953  11.097
64118W        W32512  10.085  21.157  14.373
64119W        W32513  39.458  28.089   2.812
64120W        W32514  39.323  34.909  14.518
64121W        W32515  27.299  24.190  11.062
64122W        W32516  34.072   5.189   2.385
64123W        W32517  38.450  20.638  10.705
64124W        W32518  20.245  16.375   2.376
64125W        W32519   0.468  10.279  13.369
64126W        W32520  22.920   8.720   1.908
64127W        W32521  20.729  41.835   3.145
64128W        W32522  22.236   0.107   4.155
64129W        W32523  18.200  12.031  12.519
64130W        W32524  34.669   8.923   1.997
64131W        W32525   8.420   4.463  13.872
64132W        W32526   8.019   0.950   4.949
64133W        W32527   1.817  34.505   4.713
64134W        W32528  25.036  15.771   0.693
64135W        W32529   2.471  13.649   0.721
64136W        W32530  27.752  11.325  11.177
64137W        W32531  37.362  25.532   4.585
64138W        W32532  33.294  36.913   4.248
64139W        W32533  35.488  34.300   1.309
64140W        W32534  10.845  29.420   4.575
64141W        W32535   9.452  21.069  11.620
64142W        W32536  42.819  30.744   2.806
64143W        W32537   0.451   8.426   1.688
64144W        W32538  37.729   6.491  10.839
64145W        W32539  39.463  39.998  10.722
64146W        W32540  14.278  17.717   3.420
64147W        W32541  35.841   0.861  14.478
64148W        W32542  10.681  37.321  10.573
64149W        W32543  33.164   7.366  12.803
64150W        W32544   9.635  19.717  10.907
64151W        W32545  20.787   6.485   4.175
64152W        W32546   3.050  23.444  11.587
64153W        W32547  32.369   7.727   0.342
64154W        W32548   1.630  23.715  13.011
64155W        W32549  38.162  23.643  10.634
64156W        W32550  41.991  35.906   2.674
64157W        W32551   9.752   8.191  13.472
64158W        W32552  36.654   5.544   1.807
64159W        W32553  34.797  30.108  10.494
64160W        W32554  29.411   3.728  12.529
64161W        W32555  32.691  32.977  12.684
64162W        W32556  11.724   2.922   2.342
64163W        W32557  44.164  39.940  10.627
64164W        W32558   9.883   9.403  13.882
64165W        W32559  40.560  27.527   3.203
64166W        W32560   2.712  44.457  14.433
64167W        W32561   0.683   7.687   0.892
64168W        W32562  29.969  22.190  12.113
64169W        W32563  29.414  27.283  11.179
64170W        W32564   8.429  20.181  14.435
64171W        W32565   5.312  28.483  13.867
64172W        W32566  21.173  40.977   3.142
64173W        W32567  19.803   9.320  12.071
64174W        W32568   7.878   4.756   3.132
64175W        W32569  20.598  43.897  10.743
64176W        W32570  35.106   2.919  13.756
64177W        W32571  18.340   5.792   1.242
64178W        W32572  32.000  41.015   3.668
64179W        W32573  32.147  35.954   2.307
64180W        W32574  38.931   5.173  13.097
64181W        W32575  33.412  25.256   0.562
64182W        W32576  36.816  22.650  10.673
64183W        W32577  21.948  14.299   0.971
64184W        W32578  31.471   6.681   0.617
64185W        W32579  40.931  26.083  12.965
64186W        W32580  30.898  29.694  11.940
64187W        W32581  38.165  29.599   1.273
64188W        W32582   0.795  29.708  12.302
64189W        W32583  37.998   9.203  14.198
64190W        W32584  18.850  44.260   3.111
64191W        W32585  29.577  13.334   2.948
64192W        W32586  26.199  21.091   2.348
64193W        W32587  15.567   2.942  10.930
64194W        W32588  44.319  11.211  10.285
64195W        W32589  36.284   6.027   1.182
64196W        W32590   2.783  32.002   4.068
64197W        W32591   2.611  24.961  12.934
64198W        W32592  34.454  40.355   4.594
64199W        W32593  33.058  33.783  10.488
64200W        W32594  37.172  26.410   4.392
64201W        W32595  26.974  14.816  12.161
64202W        W32596  19.967  37.554   2.312
64203W        W32597  22.681   8.149   4.097
64204W        W32598   1.511  39.297  11.007
64205W        W32599   3.255  33.620   1.671
64206W        W32600  16.272  30.317   3.310
64207W        W32601  17.706   1.607  13.413
64208W        W32602   1.333  22.616   1.666
64209W        W32603  25.431   9.980   4.559
64210W        W32604  29.469  21.496  11.160
64211W        W32605  42.020   9.934  11.420
64212W        W32606  32.626  39.970   0.331
64213W        W32607  22.469  21.616   1.497
64214W        W32608  34.541  28.627  13.007
64215W        W32609  10.155  41.827   2.768
64216W        W32610  16.039   8.562   3.588
64217W        W32611  40.392  36.392  11.523
64218W        W32612   5.118  12.080  11.546
64219W        W32613  33.849  16.209   1.106
64220W        W32614  27.923  17.744   3.758
64221W        W32615   4.546  15.322  13.330
64222W        W32616  26.226  33.226   4.482
64223W        W32617  36.022   4.078   2.878
64224W        W32618   7.441  16.726   0.296
64225W        W32619  29.705  27.198   2.326
64226W        W32620  26.546  30.862   1.883
64227W        W32621  27.816  44.416  11.997
64228W        W32622   2.225   9.651  14.314
64229W        W32623  36.416  31.310   0.687
64230W        W32624  43.937   1.227   2.240
64231W        W32625  19.987  44.755   0.925
64232W        W32626  19.769  30.898   3.744
64233W        W32627  43.478   9.377  14.013
64234W        W32628   0.439  21.028   1.677
64235W        W32629   1.866  34.820   1.639
64236W        W32630   3.999  11.406   1.319
64237W        W32631  32.374  12.609  10.797
64238W        W32632   2.169  40.875  11.026
64239W        W32633  39.549  32.354  14.973
64240W        W32634   7.465   6.195   2.649
64241W        W32635   6.978  18.154  13.369
64242W        W32636  21.685  43.262  10.937
64243W        W32637  30.387  37.015  13.426
64244W        W32638  20.400  30.583  10.047
64245W        W32639  10.186  15.333  13.963
64246W        W32640  34.388  38.076  11.487
64247W        W32641  35.902  11.619   4.543
64248W        W32642  20.278   3.717   2.684
64249W        W32643  25.656   5.397  14.006
64250W        W32644  17.846  35.616  11.104
64251W        W32645  31.828   7.786   3.328
64252W        W32646  19.231  21.163   3.671
64253W        W32647   3.206  21.300  14.365
64254W        W32648  24.912   4.499  10.413
64255W        W32649  25.504  34.496  14.881
64256W        W32650  25.715  23.792   0.221
64257W        W32651  21.233   4.085   0.938
64258W        W32652  20.524  30.251   2.041
64259W        W32653  23.787   7.166   5.138
64260W        W32654  21.653  13.185  14.549
64261W        W32655  42.924  35.641   0.491
64262W        W32656   8.690  34.701  11.539
64263W        W32657   5.430  11.837  13.464
64264W        W32658  26.963  13.034   2.130
64265W        W32659  25.326  16.878  13.886
64266W        W32660  10.148  29.680   1.269
64267W        W32661  16.650  29.966   3.771
64268W        W32662  29.919  15.712   1.341
64269W        W32663   8.918   5.597  11.582
64270W        W32664  18.446  31.825   5.076
64271W        W32665  42.546  44.319   3.646
64272W        W32666  19.472  43.828  14.262
64273W        W32667  25.185  11.913  11.622
64274W        W32668   4.466  34.295  11.026
64275W        W32669  37.455  23.016   1.418
64276W        W32670   8.296  31.406   2.174
64277W        W32671   8.046   7.328  11.515
64278W        W32672  37.001   5.061  11.107
64279W        W32673   8.240  40.456  14.950
64280W        W32674  33.417  31.012   1.779
64281W        W32675   1.297  13.681  12.652
64282W        W32676  26.965  37.084  10.699
64283W        W32677  31.893  28.943   4.601
64284W        W32678  43.544  23.044   0.466
64285W        W32679  22.548   4.598  13.496
64286W        W32680  39.557  16.444   1.224
64287W        W32681  14.664  22.511   1.424
64288W        W32682  30.498  35.343  14.013
64289W        W32683  24.326  17.559   2.090
64290W        W32684  21.187   6.747   2.756
64291W        W32685  42.769  36.932   4.708
64292W        W32686  31.799  16.691   3.983
64293W        W32687  30.359  36.740  11.146
64294W        W32688  36.538   0.945   1.159
64295W        W32689   0.496  42.903  11.223
64296W        W32690  34.264  35.408   2.900
64297W        W32691   3.517  40.755  14.582
64298W        W32692  16.835  43.785  12.976
64299W        W32693   5.405  24.441  12.524
64300W        W32694  30.136  30.272  10.766
64301W        W32695   3.384   0.214   0.956
64302W        W32696   6.691  27.176   1.786
64303W        W32697  17.171  39.078   2.769
64304W        W32698  31.205  31.621  10.129
64305W        W32699  31.844   7.825  11.250
64306W        W32700   5.808  18.319   3.414
64307W        W32701   0.026  40.061   0.692
64308W        W32702  39.459  26.087  13.856
64309W        W32703  17.995  37.226  13.536
64310W        W32704  37.392   1.887  12.517
64311W        W32705  25.087  18.557   2.869
64312W        W32706  36.455  39.785   2.814
64313W        W32707   0.783   3.018   4.662
64314W        W32708  33.334  37.559   2.577
64315W        W32709  37.585  15.785  12.503
64316W        W32710   3.457  41.679   3.241
64317W        W32711  26.907  35.942  13.434
64318W        W32712  14.698  37.638   4.082
64319W        W32713   0.483   0.468  13.011
64320W        W32714  44.310  21.774  10.698
64321W        W32715  21.254   9.310  13.221
64322W        W32716  33.408  32.953   4.563
64323W        W32717  37.377  37.793  14.698
64324W        W32718  35.436  26.803   0.346
64325W        W32719  41.040  14.944   2.518
64326W        W32720   9.557  32.624  10.789
64327W        W32721  18.654  12.632   3.440
64328W        W32722  15.163  32.041   3.443
64329W        W32723  13.076   0.733  13.811
64330W        W32724  18.460  41.538  13.953
64331W        W32725  24.563   4.977  12.564
64332W        W32726  35.417   6.446   4.663
64333W        W32727  25.922  38.667   2.700
64334W        W32728  24.866  23.202  12.050
64335W        W32729   6.333  10.856   2.402
64336W        W32730  10.656  24.581   2.759
64337W        W32731  11.738  28.195   0.751
64338W        W32732  22.981  11.657  12.059
64339W        W32733  22.975  21.353  12.958
64340W        W32734  37.969  35.631   2.188
64341W        W32735  21.206  30.629  11.200
64342W        W32736  28.988  39.925  12.904
64343W        W32737   9.270  10.590  14.952
64344W        W32738   8.246   6.395   4.110
64345W        W32739  18.316  32.484   3.732
64346W        W32740  34.647  24.297  10.695
64347W        W32741   4.281  14.285   2.332
64348W        W32742  23.912  14.206   4.216
64349W        W32743  26.391  18.299  12.070
64350W        W32744  10.413  15.145   1.283
64351W        W32745  25.270  18.362   4.997
64352W        W32746  19.431   8.339   4.477
64353W        W32747   6.708  12.210   4.675
64354W        W32748  44.357  25.192   0.799
64355W        W32749  42.393   4.228  10.520
64356W        W32750  44.417  27.969  13.157
64357W        W32751   5.685  16.778  11.558
64358W        W32752  29.566  17.004  13.730
64359W        W32753  21.660   8.247  13.144
64360W        W32754   8.690  43.234  11.316
64361W        W32755   7.997   1.007  13.928
64362W        W32756   5.295  39.796  12.002
64363W        W32757  42.206  34.424   1.514
64364W        W32758  37.561  44.716  14.925
64365W        W32759  14.089  15.810   4.970
64366W        W32760   2.262  12.860   3.679
64367W        W32761  30.358  29.166   3.130
64368W        W32762  30.232  26.758  12.977
64369W        W32763  32.226   3.483   4.614
64370W        W32764  14.360  31.555  14.564
64371W        W32765  35.215  21.296  11.966
64372W        W32766  37.172  34.637   1.207
64373W        W32767   9.204  17.470  12.465
64374W        W32768  38.627  16.110  13.098
64375W        W32769  31.988  43.906  14.390
64376W        W32770   5.183  34.902  12.081
64377W        W32771  18.779   0.358  11.561
64378W        W32772  18.780  43.870   1.960
64379W        W32773  41.591  19.603  13.509
64380W        W32774   3.095  38.668  10.273
64381W        W32775  15.602  17.670  13.583
64382W        W32776   1.398   9.857   3.544
64383W        W32777  39.047  37.985  10.636
64384W        W32778  11.895  21.201   2.424
64385W        W32779  14.567  36.566   4.790
64386W        W32780  22.802  28.402  13.322
64387W        W32781  26.388  26.634   3.175
64388W        W32782  32.669  35.934  12.677
64389W        W32783  12.195  14.992   4.430
64390W        W32784  35.661   6.910  12.584
64391W        W32785  29.765   0.069  11.293
64392W        W32786  37.343   7.958   5.487
64393W        W32787  10.172  15.658   2.169
64394W        W32788  25.167  30.163  11.489
64395W        W32789  31.109   6.112  11.620
64396W        W32790  20.052  19.239   3.336
64397W        W32791   8.476  36.849   5.058
64398W        W32792  26.899  35.844  11.119
64399W        W32793   7.658  40.307  12.766
64400W        W32794  11.686  24.286  11.630
64401W        W32795  30.007  18.644  12.428
64402W        W32796  20.482  33.166   4.654
64403W        W32797  25.258  12.260   2.930
64404W        W32798  25.475  39.737   0.244
64405W        W32799  29.372  24.178   2.717
64406W        W32800  32.217   7.730   1.831
64407W        W32801  43.034  34.842   0.380
64408W        W32802  16.814  33.554  12.503
64409W        W32803  36.353   5.786  13.056
64410W        W32804   3.762  39.575   1.056
64411W        W32805  43.720  18.740  12.067
64412W        W32806  24.902  30.639  14.806
64413W        W32807  44.120  25.620  11.612
64414W        W32808  16.107  39.151  13.053
64415W        W32809   8.311  15.289  12.278
64416W        W32810  39.007  12.370  10.590
64417W        W32811  26.046  17.182   0.793
64418W        W32812  42.111  43.646   0.913
64419W        W32813  32.985  36.344   3.803
64420W        W32814  30.800  21.859  14.704
64421W        W32815  16.139  27.095   0.936
64422W        W32816  41.382  42.818  14.338
64423W        W32817   1.488  24.180  12.894
64424W        W32818  29.914   9.565  10.776
64425W        W32819  12.380   4.246  14.402
64426W        W32820  15.604  25.249  10.881
64427W        W32821  30.205   4.786   1.824
64428W        W32822  30.969   3.910   4.819
64429W        W32823  20.239   2.971   5.047
64430W        W32824   9.570  38.621  12.385
64431W        W32825  19.619   8.684   2.231
64432W        W32826  23.254  10.523  13.303
64433W        W32827  25.779  39.649  11.228
64434W        W32828  16.346  20.737  12.474
64435W        W32829  32.651  12.211   4.333
64436W        W32830  28.045  27.156  11.952
64437W        W32831  39.522   9.958   2.674
64438W        W32832   2.232  34.338   4.051
64439W        W32833  24.195  19.312   3.660
64440W        W32834  31.094  32.137   0.345
64441W        W32835   1.968  11.840   1.376
64442W        W32836  12.110  36.535  12.861
64443W        W32837   4.370  26.000   0.823
64444W        W32838  40.871   8.124  14.105
64445W        W32839  28.919   0.595  13.453
64446W        W32840  27.452   5.821   4.427
64447W        W32841  39.710  10.612   2.755
64448W        W32842  29.287  18.555  11.134
64449W        W32843   6.630  31.177  13.953
64450W        W32844  20.042  14.068   1.781
64451W        W32845  34.017  12.585  12.823
64452W        W32846  37.021  27.257  12.911
64453W        W32847  38.408  42.524   0.057
64454W        W32848  36.802  18.171  11.535
64455W        W32849  43.265  41.213  12.883
64456W        W32850  20.552   1.065  14.438
64457W        W32851   2.535  26.365   4.059
64458W        W32852  20.004  34.864  13.631
64459W        W32853  19.330   1.961   1.882
64460W        W32854  34.826  21.891  12.506
64461W        W32855  36.162   5.521   1.286
64462W        W32856  31.931  18.657   1.638
64463W        W32857  26.703  17.749   0.178
64464W        W32858  38.081  32.052   0.282
64465W        W32859  24.231  36.802  12.943
64466W        W32860   8.583  21.996  14.588
64467W        W32861  19.707   3.195  11.716
64468W        W32862  27.878  28.550  13.727
64469W        W32863   5.387  26.485   4.520
64470W        W32864  21.477  14.136   3.766
64471W        W32865  16.430  11.090   2.713
64472W        W32866  23.009   3.112   3.161
64473W        W32867  40.963   1.291  12.589
64474W        W32868  42.389  18.764  13.932
64475W        W32869  19.442  23.366   2.639
64476W        W32870  25.628  33.211   0.257
64477W        W32871  22.679  26.701   4.200
64478W        W32872  42.220   0.270   1.969
64479W        W32873  30.066  11.888   3.675
64480W        W32874  37.146   7.253  11.143
64481W        W32875   4.808   8.111   0.328
64482W        W32876  43.340  27.159  12.160
64483W        W32877  19.698   3.238  12.652
64484W        W32878  13.893  12.197   4.127
64485W        W32879  34.609  39.967   2.453
64486W        W32880  22.616   3.671   1.740
64487W        W32881   9.886   1.334  11.477
64488W        W32882  29.118  22.258  14.626
64489W        W32883   0.195  10.137   4.525
64490W        W32884  28.958  21.646  10.396
64491W        W32885  18.240  23.503  12.501
64492W        W32886  31.314   6.258   3.155
64493W        W32887  25.540  35.998   1.474
64494W        W32888   4.159  13.466   0.392
64495W        W32889   7.738   1.314   0.489
64496W        W32890   6.982   3.335   4.057
64497W        W32891  29.908  17.534   0.889
64498W        W32892  33.437  14.378  13.239
64499W        W32893  40.464  42.424   0.244
64500W        W32894  35.880  20.812  14.322
64501W        W32895   9.743  15.045   2.609
64502W        W32896  23.041  21.985  14.765
64503W        W32897   9.628  20.772  13.344
64504W        W32898  41.214  21.021   0.320
64505W        W32899  30.380  20.921   1.431
64506W        W32900  18.300  37.392  12.576
64507W        W32901   3.484   2.239  12.485
64508W        W32902  11.619  30.085   0.856
64509W        W32903  35.883   0.108   1.482
64510W        W32904  21.252  24.668   1.827
64511W        W32905  36.871  37.909  12.986
64512W        W32906   5.063  27.086  10.754
64513W        W32907  33.558  43.312  12.914
64514W        W32908  34.923   0.453   1.282
64515W        W32909   5.401   4.435  14.963
64516W        W32910   6.433  21.169  13.779
64517W        W32911  31.531  24.437  14.312
64518W        W32912   8.152   8.364   2.272
64519W        W32913  34.699  21.355  13.152
64520W        W32914  40.815  16.208   1.842
64521W        W32915   0.499  28.435  13.647
64522W        W32916  23.249  12.617   1.327
64523W        W32917  41.913  34.368  12.614
64524W        W32918  36.797   1.321   2.351
64525W        W32919  42.353  12.769   1.847
64526W        W32920  12.259  32.589   1.159
64527W        W32921  24.182  40.952   4.539
64528W        W32922  14.757  42.841  10.927
64529W        W32923  29.180  37.390  14.968
64530W        W32924  12.217  42.244  14.286
64531W        W32925  34.566  36.159  12.540
64532W        W32926  12.756  33.315   4.663
64533W        W32927  37.595  14.973   3.698
64534W        W32928  36.623  26.413  11.990
64535W        W32929   0.381  35.319   4.392
64536W        W32930  21.585  44.324   4.438
64537W        W32931  11.868  31.523   3.712
64538W        W32932  41.896  17.602  11.915
64539W        W32933  24.550  36.382   2.844
64540W        W32934  36.925  19.335   3.198
64541W        W32935  13.237  29.972  10.575
64542W        W32936   0.825   7.823   4.743
64543W        W32937  22.995  35.548  14.891
64544W        W32938  44.267   4.411   2.264
64545W        W32939   1.400  29.464  13.947
64546W        W32940  26.070  35.940   1.743
64547W        W32941  30.971  31.526  13.664
64548W        W32942   0.213  29.747  11.175
64549W        W32943  31.316  13.754   0.002
64550W        W32944  33.524  14.065   1.757
64551W        W32945  17.233  40.415   2.326
64552W        W32946  17.570  34.015  14.243
64553W        W32947  31.221  40.604  11.988
64554W        W32948  39.256  31.416   1.267
64555W        W32949   1.331   6.724  11.481
64556W        W32950  11.329  22.056   0.024
64557W        W32951  40.514  10.607  13.592
64558W        W32952   3.277  32.528   3.748
64559W        W32953   6.433   7.216   0.893
64560W        W32954  23.477   4.178   1.572
64561W        W32955  33.994  37.049  13.315
64562W        W32956  21.472  42.876   3.877
64563W        W32957  32.148   5.383   0.853
64564W        W32958  43.334   8.961  13.740
64565W        W32959  23.766  42.424   4.860
64566W        W32960   5.989  27.069   4.154
64567W        W32961   4.412  37.778   4.955
64568W        W32962   3.510  42.509  11.605
64569W        W32963  28.465  14.780   4.071
64570W        W32964  42.702  33.899  12.969
64571W        W32965  15.338  17.744  11.193
64572W        W32966  40.471  30.386   1.342
64573W        W32967   5.381  21.490   2.691
64574W        W32968   3.024   5.150  13.374
64575W        W32969  15.924  20.090  13.117
64576W        W32970   0.592  16.840   1.798
64577W        W32971  39.054  42.601  14.271
64578W        W32972  31.181  39.922   1.491
64579W        W32973  39.634   0.112   2.659
64580W        W32974  10.180  33.977  12.867
64581W        W32975   6.232  30.790  10.612
64582W        W32976  31.934  37.351   3.709
64583W        W32977  21.683  26.123   0.243
64584W        W32978   4.056  41.031  13.919
64585W        W32979  10.299   2.620   2.214
64586W        W32980  23.214  32.875  11.896
64587W        W32981  30.825   2.096   1.534
64588W        W32982  26.531  10.816   0.988
64589W        W32983  38.008  31.835  11.926
64590W        W32984  17.687  34.883   3.748
64591W        W32985  19.033  19.952   2.654
64592W        W32986  14.012  38.089  14.867
64593W        W32987  37.327  22.913   4.107
64594W        W32988  18.597   5.437  11.129
64595W        W32989  36.961  15.388   4.591
64596W        W32990  43.017  28.225  10.730
64597W        W32991  33.068  11.752  12.921
64598W        W32992   0.891  41.514   0.422
64599W        W32993  13.568  28.926   4.068
64600W        W32994  12.852  18.459  11.088
64601W        W32995   8.298  39.765   4.762
64602W        W32996  13.339  31.330  14.387
64603W        W32997  37.851  40.594   2.308
64604W        W32998  36.854  16.996  11.081
64605W        W32999  13.163  27.157   2.294
64606W        W33000  14.251  18.103   2.619
64607W        W33001  30.808   4.328  12.425
64608W        W33002  32.562  18.840   0.351
64609W        W33003  43.679  22.457  13.127
64610W        W33004  43.773  37.936   1.503
64611W        W33005   0.546  30.064   3.242
64612W        W33006  32.521  28.931   2.179
64613W        W33007  36.455  13.173  11.956
64614W        W33008  19.793  26.098   4.101
64615W        W33009  21.765   4.780   0.197
64616W        W33010  22.970   9.035  13.214
64617W        W33011  43.241  26.356   1.910
64618W        W33012  36.127  24.149  11.823
64619W        W33013  18.528  35.043  13.043
64620W        W33014  20.796  20.947   5.030
64621W        W33015  34.643  35.710  11.632
64622W        W33016  30.442  29.188   4.534
64623W        W33017  24.642   4.874  10.645
64624W        W33018  10.623  38.188   3.625
64625W        W33019  17.788  22.492  10.709
64626W        W33020  11.164   5.368  12.623
64627W        W33021  13.600  33.537  11.558
64628W        W33022  26.685  15.726  10.413
64629W        W33023  36.473  35.154  13.599
64630W        W33024  17.974   4.374   0.207
64631W        W33025  21.860  33.079   3.414
64632W        W33026  24.223  37.552   3.748
64633W        W33027  26.631   2.696  13.987
64634W        W33028  22.177  41.027  11.381
64635W        W33029   0.645   3.134   4.154
64636W        W33030   6.201   9.716   2.988
64637W        W33031  18.091  19.235  10.147
64638W        W33032   9.292  24.381   1.455
64639W        W33033  17.119  20.287   2.798
64640W        W33034  32.977  26.224  14.488
64641W        W33035  24.974  32.750   3.751
64642W        W33036  25.255  23.057  13.900
64643W        W33037  33.493   6.152   0.850
64644W        W33038  27.461  21.444   0.443
64645W        W33039  10.378  39.084  12.962
64646W        W33040  25.133  11.797   0.872
64647W        W33041   5.779  24.662   1.814
64648W        W33042   4.780  42.916  13.839
64649W        W33043  23.723   9.161  11.212
64650W        W33044  17.504   2.254   1.793
64651W        W33045  23.485  37.016  14.939
64652W        W33046  23.028  23.162  10.416
64653W        W33047  25.373  18.207  13.398
64654W        W33048  24.349  26.975   3.572
64655W        W33049  40.771   8.358   3.121
64656W        W33050  32.436  35.595   2.640
64657W        W33051  11.093  11.572   2.301
64658W        W33052   0.858   5.298  13.128
64659W        W33053   5.905  37.299  10.741
64660W        W33054   5.234  23.902  11.521
64661W        W33055   3.604  36.274   2.337
64662W        W33056  20.813  37.098  14.189
64663W        W33057  36.397  12.545   0.354
64664W        W33058   5.721  36.645  12.996
64665W        W33059  37.677   9.803   4.609
64666W        W33060  38.351  29.612   2.728
64667W        W33061  12.396  25.626  14.576
64668W        W33062  43.974  21.102  11.992
64669W        W33063   7.818  24.235   0.470
64670W        W33064  14.949  38.970   2.216
64671W        W33065  34.123   9.829  13.594
64672W        W33066  16.257  23.844  10.752
64673W        W33067  26.528   6.151  13.914
64674W        W33068  13.123  43.734  12.050
64675W        W33069  30.895  44.366   4.651
64676W        W33070   5.538  34.124  13.030
64677W        W33071  43.760  27.566   0.776
64678W        W33072   9.404  34.375   2.914
64679W        W33073  40.751   5.744   0.245
64680W        W33074  42.575   8.380   0.377
64681W        W33075  16.564  19.125   3.180
64682W        W33076  10.121  12.658   4.380
64683W        W33077  38.531  36.137  12.161
64684W        W33078  33.567   4.610   0.757
64685W        W33079  28.683  41.244  14.177
64686W        W33080   7.168  35.792  11.684
64687W        W33081  30.559  17.256  13.086
64688W        W33082  32.339  41.337  13.526
64689W        W33083  44.720   1.172  11.571
64690W        W33084  34.570   9.554   1.403
64691W        W33085  42.094  37.546  11.598
64692W        W33086  25.515  10.177  12.895
64693W        W33087  14.754  11.297  10.591
64694W        W33088   0.448  20.498   1.642
64695W        W33089   7.408  38.961  13.075
64696W        W33090   0.872   3.414   4.972
64697W        W33091  14.509  17.679   4.391
64698W        W33092   7.861  28.819  10.737
64699W        W33093  37.199  31.515   4.796
64700W        W33094  12.737  15.562  14.220
64701W        W33095  19.735  21.387  13.526
64702W        W33096  26.980   1.558  10.119
64703W        W33097  21.710  12.281  10.176
64704W        W33098  33.711  18.590   3.041
64705W        W33099  41.171  29.958   1.613
64706W        W33100  25.978  20.182  13.377
64707W        W33101  39.976  30.125  13.448
64708W        W33102  28.282  19.412  11.596
64709W        W33103  17.982  25.136   0.806
64710W        W33104  34.846  36.932   4.214
64711W        W33105  24.200  36.487  10.727
64712W        W33106  20.011  31.469   2.742
64713W        W33107   0.711  12.546  14.856
64714W        W33108   8.078  14.427  12.468
64715W        W33109   2.809  44.495   4.106
64716W        W33110  19.197  12.353  14.802
64717W        W33111  30.127  27.179  14.933
64718W        W33112  16.896  26.430   3.051
64719W        W33113  42.122  31.035  12.084
64720W        W33114  22.130   0.975   3.104
64721W        W33115  33.633   4.304   2.831
64722W        W33116  20.573  41.989  14.237
64723W        W33117  33.737  15.601   1.680
64724W        W33118  30.029  33.855   2.251
64725W        W33119  13.976  35.858   3.311
64726W        W33120  10.018   6.890   0.108
64727W        W33121  32.450  16.465  11.827
64728W        W33122  39.423  22.148   0.928
64729W        W33123  32.499  33.090   0.240
64730W        W33124  27.983   5.844  10.446
64731W        W33125   4.749  12.141  13.064
64732W        W33126  23.966   4.173   4.114
64733W        W33127  44.303  25.092  10.664
64734W        W33128   5.719  36.451  14.737
64735W        W33129  27.339  21.292   0.923
64736W        W33130  35.295   5.251  11.991
64737W        W33131  11.013  21.685  10.959
64738W        W33132  22.192  38.876  12.463
64739W        W33133  10.677  36.361   4.656
64740W        W33134  25.136  15.676   1.235
64741W        W33135  41.932  23.012   3.634
64742W        W33136  25.575   3.292   9.999
64743W        W33137  22.034  18.205   3.159
64744W        W33138  24.237  37.388  10.433
64745W        W33139  18.943   8.259  11.602
64746W        W33140  23.456  13.606  10.803
64747W        W33141   9.827  17.865   0.045
64748W        W33142  39.463  34.160  11.064
64749W        W33143  29.936  18.899  13.060
64750W        W33144   7.456  22.706  11.559
64751W        W33145  10.143  38.439   0.875
64752W        W33146   7.805  38.177  14.937
64753W        W33147   8.732  21.246   0.981
64754W        W33148   0.073  15.347  12.523
64755W        W33149  20.109   2.534   4.676
64756W        W33150  30.869  27.966   3.328
64757W        W33151  40.456   8.431  12.497
64758W        W33152  24.526  14.358   5.017
64759W        W33153  14.797  23.365   3.535
64760W        W33154  19.251  43.828   3.770
64761W        W33155  35.475  27.631  12.186
64762W        W33156  26.711  35.509   1.769
64763W        W33157  38.556  37.473  11.124
64764W        W33158   6.828  19.044   2.844
64765W        W33159   1.836   6.788   3.600
64766W        W33160  34.142   5.959   4.142
64767W        W33161  20.762  16.494  12.048
64768W        W33162  30.568   5.868   2.286
64769W        W33163  31.085  31.576  10.665
64770W        W33164  27.575  17.625  10.746
64771W        W33165   1.167  16.241   4.683
64772W        W33166   1.246  26.631  11.346
64773W        W33167   2.455  37.529  14.048
64774W        W33168   9.189  18.183   0.419
64775W        W33169  29.198   1.034  13.502
64776W        W33170  33.930   3.485  14.283
64777W        W33171  15.276  18.193  12.836
64778W        W33172  43.883  26.367  12.542
64779W        W33173  31.806  34.087  12.931
64780W        W33174  44.441  26.972   0.748
64781W        W33175  41.939  36.091  14.389
64782W        W33176   0.189   9.689   4.266
64783W        W33177  21.640   9.819  13.390
64784W        W33178  43.054  11.150   3.831
64785W        W33179  24.041   5.262   0.614
64786W        W33180  34.336  40.429  11.605
64787W        W33181  18.167  18.982  11.028
64788W        W33182  24.593  41.870   1.175
64789W        W33183  22.250  31.256  12.980
64790W        W33184  27.251  14.027  12.248
64791W        W33185   7.959  30.594  10.845
64792W        W33186   9.509   6.689   4.355
64793W        W33187  44.736   3.923  14.402
64794W        W33188  44.838  34.049  10.740
64795W        W33189   4.035   9.804   2.400
64796W        W33190  11.419  33.495   1.793
64797W        W33191  32.988   6.443  11.887
64798W        W33192  37.737  11.825  11.996
64799W        W33193  16.332  31.025  11.064
64800W        W33194   2.291  17.829  11.963
64801W        W33195  35.111  44.409  13.883
64802W        W33196  20.446  14.812   4.602
64803W        W33197   8.437  10.266   0.379
64804W        W33198  31.456  33.417   2.148
64805W        W33199  25.183   1.683  10.572
64806W        W33200   6.362  27.284   5.427
64807W        W33201   8.969   0.203   0.769
64808W        W33202  17.716   9.106   1.737
64809W        W33203  23.388  38.844   3.100
64810W        W33204  33.840  44.468  13.367
64811W        W33205  13.629  17.821  11.413
64812W        W33206  33.500   5.625   0.824
64813W        W33207  20.220  29.154   0.554
64814W        W33208  23.529  17.547  11.037
64815W        W33209  40.193  25.215  14.574
64816W        W33210   7.860   4.878  10.146
64817W        W33211  10.761  27.325   3.170
64818W        W33212  21.272   7.980   0.769
64819W        W33213  12.147  26.532  14.366
64820W        W33214  22.104  43.183  13.547
64821W        W33215  27.514  31.827  11.118
64822W        W33216  23.214   5.429   2.097
64823W        W33217  13.396  10.830  11.141
64824W        W33218  39.372  24.963  14.514
64825W        W33219  27.675   8.109   0.188
64826W        W33220  23.459  35.642   2.512
64827W        W33221   1.871  25.115   1.214
64828W        W33222   4.757  13.747   2.885
64829W        W33223  22.254  19.572   1.739
64830W        W33224  34.058   9.827   1.395
64831W        W33225  34.962  15.991  12.892
64832W        W33226  33.492  25.641  13.146
64833W        W33227  34.011  26.485   3.887
64834W        W33228  43.007  25.340  13.997
64835W        W33229  44.834  11.600   3.000
64836W        W33230  10.457  42.828  11.137
64837W        W33231  14.602  18.220  14.762
64838W        W33232   1.316  12.640  10.304
64839W        W33233   0.861   1.774   4.168
64840W        W33234   4.421  25.515   1.307
64841W        W33235  17.281  17.015   0.745
64842W        W33236   5.203  16.886   0.213
64843W        W33237   4.784  15.790  11.217
64844W        W33238   6.920   5.683  12.456
64845W        W33239   3.744  13.856   0.254
64846W        W33240  24.739  42.434   3.687
64847W        W33241  38.520  14.572  10.636
64848W        W33242   7.767   1.488  10.720
64849W        W33243   8.279  40.973   2.676
64850W        W33244   2.956  28.730  11.089
64851W        W33245  13.663   2.792   4.946
64852W        W33246  26.281  18.916  12.934
64853W        W33247   4.696  11.095  12.184
64854W        W33248   3.539  36.485  14.254
64855W        W33249  24.769   0.074   4.198
64856W        W33250  26.331   5.250   3.136
64857W        W33251  37.947  27.651  11.923
64858W        W33252   0.459  41.775   4.899
64859W        W33253  35.494  41.846   3.119
64860W        W33254  14.906  44.786  11.735
64861W        W33255   9.864  23.089   5.043
64862W        W33256  11.577  19.248   3.693
64863W        W33257  37.065   3.922   4.660
64864W        W33258  25.963  24.101  12.107
64865W        W33259  30.658  12.536   4.032
64866W        W33260  34.957  11.959   1.827
64867W        W33261  11.581  42.557  12.985
64868W        W33262  18.776  39.861   0.505
64869W        W33263   9.628   7.940   2.330
64870W        W33264  42.748  34.981  13.952
64871W        W33265   3.253  16.648   4.151
64872W        W33266  22.480  26.565   3.587
64873W        W33267  31.831  35.909  13.114
64874W        W33268  15.048  28.545  13.647
64875W        W33269   6.931  32.428  13.836
64876W        W33270  41.920  16.557   1.460
64877W        W33271  30.665  28.199  13.794
64878W        W33272  41.325   9.400  11.787
64879W        W33273   0.901  20.716   1.673
64880W        W33274   2.785   2.873  11.188
64881W        W33275  38.740   2.421   2.738
64882W        W33276  34.588  24.719  12.235
64883W        W33277   4.397  18.053  10.513
64884W        W33278  33.433  25.065  11.991
64885W        W33279   2.938  38.842   0.804
64886W        W33280   4.194  12.498  14.461
64887W        W33281   4.103   7.880  11.635
64888W        W33282  24.457  16.705   3.557
64889W        W33283  39.885  44.956   4.344
64890W        W33284   9.628  16.249   1.708
64891W        W33285  13.110   7.729  12.708
64892W        W33286  16.126  38.305  14.288
64893W        W33287  20.767  12.376  11.068
64894W        W33288  15.069  30.369  13.410
64895W        W33289  31.454  39.932  13.325
64896W        W33290  19.111  32.465   4.903
64897W        W33291  19.287   4.732  14.267
64898W        W33292  20.543  30.640   0.864
64899W        W33293  44.191   1.923  13.486
64900W        W33294  17.192  18.018  13.783
64901W        W33295  15.895  39.767   2.597
64902W        W33296  20.641  31.005   4.848
64903W        W33297  22.066  32.143   2.766
64904W        W33298   6.362  13.259   3.243
64905W        W33299  19.977  26.321  12.393
64906W        W33300  18.522  44.588   3.330
64907W        W33301  22.615  36.017  11.648
64908W        W33302   9.647  17.368   4.305
64909W        W33303  38.481   0.545  12.009
64910W        W33304   2.521   0.694  12.078
64911W        W33305  10.849  24.652   0.020
64912W        W33306  23.194  28.581  12.347
64913W        W33307  27.532  40.810   4.530
64914W        W33308  22.419   8.564   1.140
64915W        W33309  38.125  34.743  13.517
64916W        W33310  37.308   9.748   4.230
64917W        W33311  40.469  10.432   3.118
64918W        W33312  39.571   6.942   0.869
64919W        W33313  20.480  19.174   4.837
64920W        W33314  34.054  15.956   4.781
64921W        W33315  22.468  30.128  14.477
64922W        W33316  31.033  37.663  14.717
64923W        W33317  40.540  32.523  13.571
64924W        W33318   7.846  11.182  10.594
64925W        W33319   0.530  28.984  13.521
64926W        W33320   0.681  33.296   9.921
64927W        W33321  36.780   2.882   1.647
64928W        W33322   2.454  19.786  11.957
64929W        W33323   1.472   8.879   3.142
64930W        W33324  18.506  22.508  12.067
64931W        W33325  39.591  16.324   0.302
64932W        W33326  27.891  25.504  11.855
64933W        W33327  24.139  10.243   2.814
64934W        W33328  13.180   0.771   3.300
64935W        W33329   1.342  35.340  14.482
64936W        W33330   5.368   3.885   1.756
64937W        W33331   5.748  35.908  14.570
64938W        W33332  44.369  27.259  11.068
64939W        W33333  35.207  13.890   3.587
64940W        W33334   1.951   1.836   1.848
64941W        W33335  20.750  33.366  12.450
64942W        W33336  21.164  23.230   1.613
64943W        W33337  21.577  36.527   3.876
64944W        W33338  22.283  34.451  11.612
64945W        W33339   4.920   4.479  12.382
64946W        W33340  38.657  26.448   4.220
64947W        W33341  21.663  33.987  13.807
64948W        W33342   0.912  18.297  11.174
64949W        W33343  10.852  22.585  13.437
64950W        W33344  23.594  20.211  14.574
64951W        W33345  25.257  14.403  13.029
64952W        W33346  25.382  27.211   1.223
64953W        W33347  21.691   9.759  11.975
64954W        W33348   6.144   7.983   0.373
64955W        W33349  38.067  25.650   3.822
64956W        W33350  38.343  35.056   1.733
64957W        W33351  21.993  35.050   2.779
64958W        W33352   2.893  41.959  12.037
64959W        W33353   6.279  30.394  13.927
64960W        W33354  40.875  44.632  10.736
64961W        W33355  36.053   8.395   2.556
64962W        W33356  12.200   0.986  12.034
64963W        W33357   9.163  28.739   4.007
64964W        W33358   2.098   3.980   0.979
64965W        W33359   3.771  31.319   1.270
64966W        W33360  16.820   9.352   0.901
64967W        W33361  25.408  41.987  13.302
64968W        W33362  14.595  14.157   0.940
64969W        W33363  26.653  24.080  14.569
64970W        W33364  30.713   0.974  11.235
64971W        W33365  24.557  39.313   4.220
64972W        W33366  17.585  33.636   2.981
64973W        W33367  34.568  27.175  10.830
64974W        W33368  16.760  16.024   3.330
64975W        W33369  29.637  22.040   3.771
64976W        W33370   6.983  18.619  12.816
64977W        W33371   9.883  32.054   3.657
64978W        W33372  38.561  30.385   1.381
64979W        W33373  11.343  35.997  10.675
64980W        W33374   7.608  43.773   0.878
64981W        W33375  20.771  35.492  13.296
64982W        W33376   3.852  43.416  13.892
64983W        W33377  40.509  11.900  14.093
64984W        W33378  26.438  14.336   3.685
64985W        W33379  20.674   0.073   1.349
64986W        W33380   8.719  26.747   4.643
64987W        W33381  24.392   4.587  10.309
64988W        W33382   0.195  37.497  14.157
64989W        W33383  44.237  30.075   2.814
64990W        W33384   6.863  14.667  10.302
64991W        W33385  31.197  30.652   0.274
64992W        W33386  17.767  27.726  11.056
64993W        W33387  41.361   9.849  12.058
64994W        W33388  43.340  41.905  12.480
64995W        W33389  14.321  13.391   3.050
64996W        W33390  30.463  12.349  14.060
64997W        W33391  19.110   1.326  11.180
64998W        W33392   4.454  15.581   4.080
64999W        W33393  44.871  26.732  13.554
65000W        W33394  42.495  14.855   0.334
65001W        W33395  18.535  15.204  12.806
65002W        W33396   6.977  19.733   3.125
65003W        W33397  20.668  18.193  13.457
65004W        W33398  18.355  29.505  10.682
65005W        W33399  36.937  15.635   2.692
65006W        W33400   4.917  14.385  14.726
65007W        W33401  34.878  36.621  13.421
65008W        W33402  11.069  32.197  10.864
65009W        W33403  21.135  29.924   3.648
65010W        W33404  19.344  18.172   1.630
65011W        W33405   8.320  22.844   1.450
65012W        W33406   3.307  34.978   1.740
65013W        W33407  16.737  16.336  10.700
65014W        W33408  26.679  33.562   3.689
65015W        W33409   3.074  13.062   4.610
65016W        W33410  10.277  43.940   2.924
65017W        W33411  42.307  22.848   1.627
65018W        W33412   6.467  43.513  14.493
65019W        W33413  32.540  14.588   2.661
65020W        W33414  21.625   5.726   1.820
65021W        W33415   6.817   7.916  14.812
65022W        W33416   9.507  28.071   0.376
65023W        W33417  11.545  24.379   2.259
65024W        W33418   6.755  38.045  10.927
65025W        W33419  23.252   2.431  13.852
65026W        W33420  27.570   8.763  13.873
65027W        W33421   4.854  38.361   0.279
65028W        W33422  22.107  10.234   2.582
65029W        W33423  18.522  16.265  11.699
65030W        W33424   0.879  21.040   5.091
65031W        W33425  11.620  29.219  12.878
65032W        W33426  18.786  19.271  13.989
65033W        W33427  28.275  37.993   3.112
65034W        W33428   3.441   0.028   1.772
65035W        W33429  25.211  18.656   3.754
65036W        W33430  40.485  33.014  14.362
65037W        W33431   0.338  20.884   2.152
65038W        W33432  17.021  27.592  14.977
65039W        W33433  20.565  32.563   2.610
65040W        W33434   4.001  17.380  11.028
65041W        W33435  43.906  25.406   0.930
65042W        W33436  11.514  36.607  10.696
65043W        W33437  33.127   0.192   2.328
65044W        W33438  43.825   4.619  13.894
65045W        W33439   4.217  33.891   0.644
65046W        W33440   8.050  14.313   3.122
65047W        W33441  32.804  38.376   2.827
65048W        W33442  30.974  22.688  12.998
65049W        W33443  10.962  11.041   2.381
65050W        W33444   8.318  34.571  12.859
65051W        W33445  28.541   7.319  12.985
65052W        W33446   4.699  15.718   3.225
65053W        W33447  41.868  40.093   0.631
65054W        W33448  24.522  24.301   2.360
65055W        W33449  30.077   6.811  13.926
65056W        W33450  34.499  14.291  11.199
65057W        W33451   8.388  29.378  12.423
65058W        W33452  32.696  35.316   1.335
65059W        W33453  16.075  13.612   2.872
65060W        W33454  14.837  33.732  11.867
65061W        W33455   2.407   9.084   4.239
65062W        W33456   9.715  26.268  12.342
65063W        W33457   5.704  36.305  10.393
65064W        W33458  29.385  14.660   3.729
65065W        W33459   6.104   1.576   5.036
65066W        W33460  38.864  17.203   4.638
65067W        W33461  31.045  38.364   4.531
65068W        W33462  41.568  13.640   1.156
65069W        W33463  30.660  29.339   3.829
65070W        W33464  18.467  14.108  11.582
65071W        W33465  17.750  38.930   3.484
65072W        W33466  12.167  25.714   0.035
65073W        W33467  22.778  24.260  12.606
65074W        W33468  20.236  23.696  11.629
65075W        W33469  42.972  12.025  13.363
65076W        W33470  26.434  11.775  13.466
65077W        W33471   6.459  36.116   0.165
65078W        W33472  25.643  12.079   2.318
65079W        W33473  11.746  31.719   4.570
65080W        W33474  26.550   7.327  14.297
65081W        W33475  34.930  41.650  11.993
65082W        W33476  16.291  27.745  11.912
65083W        W33477  21.170   1.954  11.139
65084W        W33478   8.777  10.910   4.149
65085W        W33479  20.664  33.847   1.698
65086W        W33480   4.406  31.970   4.995
65087W        W33481   0.992   5.865   1.403
65088W        W33482  17.818  44.991   2.749
65089W        W33483  25.888  16.608  13.039
65090W        W33484   5.670  26.922  13.011
65091W        W33485  11.753  37.989  14.610
65092W        W33486  33.932  37.444  10.638
65093W        W33487   6.196  33.801  11.488
65094W        W33488   0.256   4.207   0.021
65095W        W33489   7.127  16.768   4.145
65096W        W33490  44.337  28.419  13.943
65097W        W33491  29.678  42.822  12.997
65098W        W33492  11.620  36.351  11.120
65099W        W33493  28.674  33.186  11.214
65100W        W33494  21.594  31.937  11.119
65101W        W33495  43.903   2.458  14.861
65102W        W33496  25.508  30.523   5.098
65103W        W33497   9.495   9.822   0.839
65104W        W33498  26.120  23.938  13.914
65105W        W33499  40.617  27.066   3.398
65106W        W33500  36.482  12.568   1.919
65107W        W33501   1.272  22.079   4.012
65108W        W33502  40.505   7.120   5.256
65109W        W33503  16.525   6.372  14.298
65110W        W33504  39.552  38.239   4.433
65111W        W33505  28.931  19.045  12.858
65112W        W33506  39.289   4.641   0.337
65113W        W33507  32.180   9.472  13.056
65114W        W33508   5.372  39.543   0.848
65115W        W33509  38.915  26.516  10.330
65116W        W33510  40.389   8.327   4.494
65117W        W33511  40.876  16.961   0.733
65118W        W33512  33.401  31.619  14.793
65119W        W33513  14.573  18.643  11.681
65120W        W33514  27.609   5.241  10.519
65121W        W33515  33.178   1.177   4.097
65122W        W33516  38.956  42.364  11.645
65123W        W33517  39.896  37.005   5.082
65124W        W33518  30.777   7.889   0.674
65125W        W33519  30.613  17.326   3.116
65126W        W33520  31.905  16.034   1.913
65127W        W33521  34.524  27.517   3.232
65128W        W33522  10.578  38.725   1.959
65129W        W33523  15.189  12.186   0.025
65130W        W33524  37.350  24.656  13.556
65131W        W33525  17.834   9.710  13.496
65132W        W33526  32.459  11.301  12.633
65133W        W33527  27.404  29.228   3.019
65134W        W33528  44.272   0.057  12.684
65135W        W33529  35.573   9.367  11.565
65136W        W33530  24.951  36.717  12.145
65137W        W33531  11.076  35.643   1.079
65138W        W33532   0.809  16.967  12.555
65139W        W33533   9.548  22.226  13.640
65140W        W33534  14.071  26.258  11.078
65141W        W33535  33.009   9.895   3.805
65142W        W33536  20.282  33.555  14.967
65143W        W33537  18.773  12.429   2.271
65144W        W33538  12.700  33.885   4.552
65145W        W33539   5.217   9.261  13.342
65146W        W33540   5.400  35.506   1.497
65147W        W33541  38.462  15.940   1.821
65148W        W33542   2.308   7.003   3.599
65149W        W33543  27.928  34.599  13.855
65150W        W33544  14.965   2.421  13.448
65151W        W33545  16.755  31.184  14.952
65152W        W33546   7.342  16.872  13.424
65153W        W33547  34.867   1.705   3.343
65154W        W33548  10.958  35.437  14.088
65155W        W33549  33.148  24.636  14.116
65156W        W33550  13.390  19.602   1.838
65157W        W33551  18.692  35.308   2.949
65158W        W33552  30.897  16.361  11.677
65159W        W33553   8.899   3.376  10.672
65160W        W33554  16.105  14.800   0.890
65161W        W33555   9.375  33.541   1.435
65162W        W33556  43.394  29.051   3.842
65163W        W33557  18.587  27.739   3.193
65164W        W33558  30.679  33.604  12.413
65165W        W33559   6.354  40.709   2.802
65166W        W33560  41.536   3.264   0.064
65167W        W33561  10.207  44.799   1.266
65168W        W33562  38.364  16.271   3.739
65169W        W33563  23.994  23.082  11.700
65170W        W33564  29.066  31.674   1.337
65171W        W33565  22.085  44.956  11.051
65172W        W33566  29.236   6.305  14.429
65173W        W33567  17.272  28.599   3.780
65174W        W33568  12.619  34.970  11.522
65175W        W33569  11.241  43.621   4.756
65176W        W33570   7.191   6.666   4.890
65177W        W33571  12.338   2.216   3.071
65178W        W33572  25.550  21.168   2.731
65179W        W33573  41.126  40.325  13.974
65180W        W33574  13.786  21.582   3.198
65181W        W33575  15.694  39.127   1.819
65182W        W33576  43.973  23.143  10.572
65183W        W33577  16.481  12.619  13.985
65184W        W33578  39.627  41.159   3.187
65185W        W33579  17.998  30.841  13.916
65186W        W33580  10.324  16.105   2.417
65187W        W33581  20.546  36.202   2.343
65188W        W33582   2.304  25.504  13.159
65189W        W33583   8.723  22.577  13.910
65190W        W33584  24.897   4.726   0.488
65191W        W33585   0.053  26.762  11.938
65192W        W33586  40.783  34.946   0.809
65193W        W33587  19.730  13.236  12.409
65194W        W33588   8.561  19.654  10.641
65195W        W33589  29.236  36.521  14.973
65196W        W33590   9.449  42.051   4.257
65197W        W33591  17.631  21.911   1.730
65198W        W33592  24.183   2.779   0.306
65199W        W33593   3.160   2.288  12.055
65200W        W33594   8.661   6.286   4.435
65201W        W33595  40.332  12.137  14.558
65202W        W33596  17.694  38.387  12.466
65203W        W33597   6.396  14.935  10.320
65204W        W33598  30.025  40.965  12.853
65205W        W33599  20.194  29.408   1.909
65206W        W33600  15.479  25.718   3.776
65207W        W33601  18.554  13.832   2.878
65208W        W33602   1.860  42.796   2.841
65209W        W33603   0.258  33.675  11.344
65210W        W33604  29.147  27.058  14.595
65211W        W33605  10.225  32.006  14.521
65212W        W33606   4.350  35.057   4.989
65213W        W33607  35.378  21.709  11.675
65214W        W33608  38.135  16.660   4.136
65215W        W33609  21.493  16.298  14.055
65216W        W33610  19.036  26.924   2.325
65217W        W33611  42.477  25.025   1.204
65218W        W33612  21.506  31.130  14.476
65219W        W33613  42.878  27.047  14.809
65220W        W33614  31.188  40.327  12.493
65221W        W33615  13.256   8.103  13.051
65222W        W33616   9.488   8.317   3.330
65223W        W33617  18.489  32.538  11.991
65224W        W33618  38.777  10.974  10.665
65225W        W33619  16.491   3.311  12.445
65226W        W33620  26.759   9.732  10.205
65227W        W33621   9.380  27.510  11.974
65228W        W33622  40.275  42.577   0.712
65229W        W33623  24.737  37.906  13.586
65230W        W33624  35.105   0.715  12.069
65231W        W33625  41.571  12.881   4.197
65232W        W33626  26.647  31.968   4.492
65233W        W33627  16.014   1.000  11.117
65234W        W33628  17.487   4.935   0.951
65235W        W33629  26.555  32.226  12.035
65236W        W33630  10.056   3.397  10.282
65237W        W33631  41.575  33.147   0.465
65238W        W33632  36.910  44.726  14.393
65239W        W33633   8.126  35.194   2.756
65240W        W33634  21.546  23.199  13.610
65241W        W33635  41.305   7.634  13.088
65242W        W33636  36.366  16.726   1.171
65243W        W33637  12.373  36.003   1.237
65244W        W33638  11.697  16.676  12.404
65245W        W33639   2.953  12.082   2.959
65246W        W33640   4.669   7.291   1.263
65247W        W33641  36.706   0.919   4.910
65248W        W33642  14.355  33.136   1.757
65249W        W33643  30.650  43.034  11.454
65250W        W33644  20.105   4.242  12.439
65251W        W33645  13.624  12.752   4.850
65252W        W33646  24.888   8.122   2.661
65253W        W33647  29.601  22.813  11.550
65254W        W33648  38.288   6.098   3.303
65255W        W33649  31.162  11.257   1.304
65256W        W33650  32.553  39.410  11.496
65257W        W33651  20.496   9.244   3.687
65258W        W33652   3.456  16.828  11.514
65259W        W33653  19.122  32.625  13.450
65260W        W33654  40.771  33.697  13.387
65261W        W33655  12.394  41.993   4.242
65262W        W33656  28.414  19.383   3.284
65263W        W33657  22.611  29.654  11.934
65264W        W33658  10.410  33.159  14.907
65265W        W33659   5.474  20.368   0.441
65266W        W33660  36.488   8.457   2.302
65267W        W33661  10.738  30.749   1.849
65268W        W33662  37.596   6.980   1.196
65269W        W33663   7.597  15.770  11.128
65270W        W33664  16.996  28.199  11.921
65271W        W33665  20.094  42.436  12.989
65272W        W33666  26.578  37.810   3.381
65273W        W33667  17.679   5.477  13.556
65274W        W33668  31.571  30.903  10.744
65275W        W33669   9.310   3.205  14.517
65276W        W33670  32.955  42.739  14.008
65277W        W33671  33.638   5.186   3.717
65278W        W33672  22.249  27.040  10.369
65279W        W33673   8.820  24.366   0.176
65280W        W33674  33.561  37.876  13.008
65281W        W33675  26.112   4.953   4.054
65282W        W33676  12.833  23.825  13.114
65283W        W33677  18.974  34.117  14.741
65284W        W33678  11.732  20.918  14.816
65285W        W33679  13.216  11.866   1.435
65286W        W33680  25.044   5.182  12.597
65287W        W33681  28.429  13.872   3.105
65288W        W33682  28.714  28.358  11.471
65289W        W33683  17.638   9.582   1.523
65290W        W33684   9.093   9.677   0.324
65291W        W33685  18.128  36.385  13.541
65292W        W33686  38.515  36.389  13.510
65293W        W33687   6.744   1.140  11.720
65294W        W33688   3.909  25.605   3.972
65295W        W33689   1.153  20.319   1.412
65296W        W33690  14.474   8.879   1.434
65297W        W33691  39.886  38.896   0.889
65298W        W33692  17.802  41.524  12.430
65299W        W33693  16.496  25.946   9.796
65300W        W33694  13.820   3.640  12.444
65301W        W33695  14.088  23.110  10.750
65302W        W33696   0.790  36.266   4.548
65303W        W33697  33.166   3.825  13.719
65304W        W33698  36.965   6.351   3.647
65305W        W33699   2.746  25.664   2.658
65306W        W33700  14.950   0.265  11.565
65307W        W33701  28.475  30.995   1.456
65308W        W33702   4.265  30.537   3.095
65309W        W33703  13.220  28.794   4.518
65310W        W33704  16.072  35.101   1.257
65311W        W33705  40.385  44.301  12.459
65312W        W33706  40.280  19.150   4.943
65313W        W33707  16.636  42.835  11.108
65314W        W33708   3.452  12.241   9.893
65315W        W33709   7.674  13.802   3.252
65316W        W33710  29.954  21.289   3.318
65317W        W33711  38.932  15.279  13.064
65318W        W33712  11.395  13.113  13.343
65319W        W33713  42.781   4.273   3.215
65320W        W33714  38.825   9.246   2.614
65321W        W33715  12.339  38.900  13.841
65322W        W33716  20.078  28.418   2.389
65323W        W33717  37.407  24.603  14.470
65324W        W33718  15.000  37.840  10.934
65325W        W33719  26.420  35.467  12.101
65326W        W33720   6.843  16.871  12.114
65327W        W33721  40.767  31.876   3.247
65328W        W33722   4.977  10.677   1.189
65329W        W33723  25.042  26.115   3.050
65330W        W33724  39.588  25.690  11.184
65331W        W33725  23.288   4.703   2.272
65332W        W33726  34.089  20.563  13.489
65333W        W33727  36.811   6.132  14.493
65334W        W33728  25.638  23.537   2.354
65335W        W33729  30.141  37.254  11.131
65336W        W33730  11.200  31.372  10.649
65337W        W33731  13.020   9.116  12.442
65338W        W33732  12.452  25.497  11.110
65339W        W33733   2.849   2.432   4.024
65340W        W33734  31.467  24.942   1.552
65341W        W33735  19.289   6.850   1.387
65342W        W33736  16.641  35.751   3.290
65343W        W33737  29.622  12.622  12.111
65344W        W33738   6.385  24.109   0.835
65345W        W33739  40.448  18.774  14.845
65346W        W33740   3.335   6.593  10.716
65347W        W33741  29.475   1.926  13.322
65348W        W33742  31.784  42.727  13.879
65349W        W33743  30.980  43.516  12.923
65350W        W33744  13.705  44.631  12.561
65351W        W33745  33.567  14.593   1.728
65352W        W33746  26.847   6.506   0.245
65353W        W33747   4.508  10.204   2.608
65354W        W33748  43.202  41.879   1.724
65355W        W33749  30.526  10.741  13.335
65356W        W33750  33.920  24.198   4.556
65357W        W33751  27.529  13.639  12.901
65358W        W33752  39.484  21.254   0.794
65359W        W33753  38.319  27.509  12.571
65360W        W33754  42.465   5.673  10.638
65361W        W33755  15.802   2.726   1.058
65362W        W33756  35.511  24.724  12.825
65363W        W33757   1.317  23.175   2.936
65364W        W33758   1.401   7.968   4.193
65365W        W33759  12.766   7.140  14.998
65366W        W33760  37.974  35.569  14.275
65367W        W33761  33.651  32.937   2.132
65368W        W33762  35.626   5.954   1.740
65369W        W33763  24.183  11.312  14.142
65370W        W33764   9.686  10.294  13.680
65371W        W33765  26.434   0.925  10.243
65372W        W33766  42.225  42.518  13.967
65373W        W33767   3.303   1.451   4.745
65374W        W33768  30.640  10.943   0.324
65375W        W33769  16.716  27.545   1.424
65376W        W33770  27.656  23.143  10.421
65377W        W33771  31.954  44.639   4.429
65378W        W33772  16.265  35.404   3.500
65379W        W33773  12.697  32.306   2.458
65380W        W33774  23.701  35.466   1.223
65381W        W33775  23.034  22.406   1.163
65382W        W33776  22.691  16.568  10.254
65383W        W33777  11.173   0.596  13.914
65384W        W33778   6.160  38.904  10.741
65385W        W33779  39.853  21.281  14.532
65386W        W33780  12.639  33.665   3.210
65387W        W33781  34.461   5.659  12.439
65388W        W33782  42.108   8.257  12.383
65389W        W33783  19.952  38.715  14.616
65390W        W33784  11.072   2.392   4.833
65391W        W33785  37.525  35.428   2.046
65392W        W33786  10.452   1.762   1.677
65393W        W33787  22.734  30.135   3.879
65394W        W33788  24.812   5.718   3.614
65395W        W33789   5.193  25.256   0.470
65396W        W33790  25.936  23.239   2.803
65397W        W33791  34.339  21.355   4.178
65398W        W33792  41.974   7.010   4.273
65399W        W33793  29.297   0.963   0.446
65400W        W33794  37.418  17.031  12.672
65401W        W33795  27.724  30.956  14.809
65402W        W33796  25.599  13.598  10.976
65403W        W33797   3.828  40.473   3.720
65404W        W33798  39.382  33.654  11.091
65405W        W33799  22.959  42.428   3.332
65406W        W33800  32.386  40.061  11.508
65407W        W33801  30.052  32.181  13.480
65408W        W33802  40.979   3.536  13.872
65409W        W33803  32.798   6.972   0.928
65410W        W33804  21.111  20.718   3.280
65411W        W33805  23.523  11.740   2.702
65412W        W33806  40.185   1.743  13.966
65413W        W33807  20.734  16.910   4.174
65414W        W33808  31.561  25.622   3.456
65415W        W33809   9.274  36.350   0.809
65416W        W33810   8.689   5.547  12.816
65417W        W33811   3.785  40.236   1.231
65418W        W33812  23.694  44.312   3.130
65419W        W33813  33.187  19.092   1.427
65420W        W33814  16.616  34.041  12.819
65421W        W33815  20.490  41.253  11.948
65422W        W33816  44.134   8.165   0.971
65423W        W33817  35.684   1.382  14.271
65424W        W33818  25.475  32.650  11.501
65425W        W33819   9.644  11.266   2.150
65426W        W33820  34.018  20.374  11.765
65427W        W33821  35.196  18.338   4.782
65428W        W33822   3.716  13.745  12.364
65429W        W33823   7.889  39.997  11.126
65430W        W33824   6.566  25.066   4.131
65431W        W33825  12.425  32.936  12.501
65432W        W33826  13.084   7.175   2.588
65433W        W33827   0.457  14.631  13.451
65434W        W33828  24.101   9.040  11.961
65435W        W33829   3.794   8.105   2.899
65436W        W33830  13.834  38.916   1.228
65437W        W33831  18.220  17.629  13.072
65438W        W33832  10.462  10.295   3.575
65439W        W33833  27.112  25.841  11.366
65440W        W33834  14.860  33.199   4.413
65441W        W33835  39.822  40.574  11.161
65442W        W33836  18.531  23.017  11.995
65443W        W33837  38.381   0.737  13.664
65444W        W33838   2.753  39.043   1.644
65445W        W33839  35.160   1.060   1.928
65446W        W33840  23.055  37.871  14.681
65447W        W33841   2.719  43.610   0.388
65448W        W33842  28.744  41.468   3.346
65449W        W33843  38.832  23.005  11.472
65450W        W33844  25.995  25.764  14.253
65451W        W33845  41.007  21.098  11.936
65452W        W33846  18.586  32.565  14.326
65453W        W33847  12.602  38.843  10.697
65454W        W33848  25.356   6.901  12.081
65455W        W33849   9.639  24.977   2.223
65456W        W33850  12.754  42.559   3.392
65457W        W33851   7.371  41.086  10.743
65458W        W33852  40.468  24.900  14.915
65459W        W33853  12.950  41.941  10.676
65460W        W33854  11.360   6.485  14.012
65461W        W33855  35.737  32.141  14.089
65462W        W33856  38.510   0.338   3.920
65463W        W33857  39.718  17.270   0.328
65464W        W33858  27.498   9.715   5.151
65465W        W33859  39.061  19.221  14.913
65466W        W33860  35.593  38.237   3.571
65467W        W33861  39.681  25.257  11.969
65468W        W33862  40.972  22.160  13.878
65469W        W33863  31.412  39.396  13.935
65470W        W33864  27.160  19.693   3.692
65471W        W33865  12.267   6.457  10.712
65472W        W33866  42.033  42.268  13.040
65473W        W33867  39.773  42.933  14.765
65474W        W33868  20.199  24.973   2.313
65475W        W33869  39.945  17.605   1.728
65476W        W33870  43.195  28.145   4.790
65477W        W33871  26.001  22.723   4.240
65478W        W33872  23.095   2.417   2.442
65479W        W33873  33.305   4.849  11.614
65480W        W33874  25.596  11.626  11.423
65481W        W33875  35.429  23.129   4.101
65482W        W33876  17.264  42.029   1.383
65483W        W33877  42.975  39.931   0.311
65484W        W33878  43.436  12.315   0.435
65485W        W33879   3.089   1.034   5.058
65486W        W33880  38.616  17.838   3.878
65487W        W33881  37.546  30.268  12.659
65488W        W33882  20.159  13.290   3.728
65489W        W33883   8.679  15.350   3.340
65490W        W33884  41.782  28.692   3.920
65491W        W33885  44.562  20.411  11.225
65492W        W33886  12.156  39.114  10.648
65493W        W33887  30.702   1.437   2.723
65494W        W33888  17.999  31.206  14.295
65495W        W33889   3.332  40.463  13.792
65496W        W33890  41.552   0.485  12.002
65497W        W33891   4.362  37.971  10.738
65498W        W33892  33.911  27.018  14.788
65499W        W33893  24.362  19.611   0.830
65500W        W33894   9.205  41.855   3.829
65501W        W33895  37.265   6.702   3.915
65502W        W33896  23.793  29.688   4.667
65503W        W33897  33.944  44.664  11.664
65504W        W33898   1.246  37.805   2.713
65505W        W33899  32.146  40.000   3.679
65506W        W33900  42.932  40.004   3.220
65507W        W33901  39.516  43.377  14.781
65508W        W33902   8.178   1.933  14.779
65509W        W33903   0.548  14.103  13.310
65510W        W33904   7.363  21.210   0.614
65511W        W33905  24.354  37.413   0.951
65512W        W33906  43.863  13.108   3.932
65513W        W33907  24.846  30.060   2.256
65514W        W33908  36.539   7.620  13.873
65515W        W33909  20.721  39.573   2.247
65516W        W33910  34.443  38.409   3.040
65517W        W33911  13.636  27.012   4.608
65518W        W33912  27.205  44.250  12.821
65519W        W33913  32.537  11.533  14.710
65520W        W33914  26.652  26.080  12.531
65521W        W33915  32.558  41.322   0.388
65522W        W33916   8.874  11.184   0.818
65523W        W33917  34.621  17.023   3.409
65524W        W33918  18.998  11.173  12.911
65525W        W33919  41.491   5.221  11.078
65526W        W33920  13.590  40.948   4.576
65527W        W33921  17.146  28.623  14.500
65528W        W33922  31.175   5.770  13.006
65529W        W33923  21.680  29.900  11.105
65530W        W33924  39.296  37.334   0.998
65531W        W33925   4.503   2.895   1.883
65532W        W33926   0.937  23.397  11.667
65533W        W33927  19.392  35.339  12.795
65534W        W33928  13.884  18.393  12.902
65535W        W33929  31.348  26.871   4.755
65536W        W33930  31.655  32.962   1.210
65537W        W33931  41.266  38.637   3.802
65538W        W33932   4.898  14.869  10.871
65539W        W33933   6.123  36.053   2.225
65540W        W33934   9.096  43.292   4.922
65541W        W33935   6.783  42.384  13.918
65542W        W33936  10.981  41.956   1.598
65543W        W33937  22.668  37.339   4.652
65544W        W33938   7.404  18.359  11.121
65545W        W33939  24.617   3.791   0.557
65546W        W33940   4.945  12.823   5.032
65547W        W33941  32.412  43.860   3.781
65548W        W33942  40.579   1.013  12.012
65549W        W33943  13.170  32.639   0.323
65550W        W33944  29.503  30.557   3.860
65551W        W33945  30.139  21.609   0.452
65552W        W33946  25.674  29.739   4.684
65553W        W33947  34.891  12.214  11.764
65554W        W33948  21.675  16.768   1.446
65555W        W33949  32.864   4.766   3.594
65556W        W33950  31.565   5.303  14.834
65557W        W33951  30.497  21.128   0.955
65558W        W33952  34.693  22.206  12.871
65559W        W33953   1.895  13.042  10.603
65560W        W33954  35.030  22.216  10.918
65561W        W33955  16.274  40.552   1.917
65562W        W33956   1.291  43.645  10.656
65563W        W33957  13.700   0.961   2.388
65564W        W33958  28.414  42.875   4.135
65565W        W33959  19.055   4.688  10.217
65566W        W33960   7.397   9.766  10.748
65567W        W33961   0.228  18.265  12.491
65568W        W33962   8.332   7.818  12.660
65569W        W33963  14.422  44.645  11.579
65570W        W33964  38.571  22.698  13.049
65571W        W33965  25.625  20.099   4.296
65572W        W33966  32.063  25.857   0.796
65573W        W33967  42.851  36.486   4.003
65574W        W33968  33.442  26.473   2.644
65575W        W33969   5.232  33.984   3.624
65576W        W33970  29.037  14.798  10.513
65577W        W33971  27.172  22.871   2.968
65578W        W33972  31.803  44.578   3.746
65579W        W33973  41.017   3.765   2.865
65580W        W33974  37.328  10.668   4.270
65581W        W33975  14.526  42.789  11.912
65582W        W33976  24.214  10.188  12.631
65583W        W33977  24.638  27.425   4.308
65584W        W33978  43.983  41.837  13.937
65585W        W33979  11.872  29.519  14.512
65586W        W33980  36.910  44.407  11.545
65587W        W33981  38.016  17.198   4.436
65588W        W33982  22.619  15.133  10.611
65589W        W33983  38.476   3.250   1.661
65590W        W33984   4.161  33.291  11.078
65591W        W33985  24.949  23.990  13.531
65592W        W33986  16.576  25.649   4.621
65593W        W33987  37.586   3.961  12.492
65594W        W33988  29.192  39.092  12.795
65595W        W33989  15.615  24.131   0.398
65596W        W33990  31.115  31.428   4.280
65597W        W33991  32.846   0.877   1.840
65598W        W33992  27.685  11.242   2.262
65599W        W33993  15.065  24.866   4.257
65600W        W33994  12.530  34.951   2.400
65601W        W33995  14.637  13.219   1.336
65602W        W33996  21.240  17.300   4.915
65603W        W33997  27.853   8.831   4.296
65604W        W33998  40.729  17.258   0.328
65605W        W33999   0.778   1.044   1.972
65606W        W34000  39.762  28.969   1.290
65607W        W34001  19.525  30.177  12.513
65608W        W34002   8.491  26.726  14.084
65609W        W34003  40.890  40.611  12.113
65610W        W34004  32.213  44.084  10.755
65611W        W34005  13.359  44.444   4.525
65612W        W34006  21.618  41.015   3.972
65613W        W34007   2.836  14.652   3.665
65614W        W34008  33.679  33.422   4.565
65615W        W34009   1.432  32.910  11.934
65616W        W34010   1.119  22.194   2.214
65617W        W34011  31.976  30.373   0.482
65618W        W34012  24.917   8.038   0.357
65619W        W34013  20.204  11.188   4.598
65620W        W34014  13.354  42.220  11.559
65621W        W34015  23.297  14.846   1.428
65622W        W34016   3.679  44.793  11.052
65623W        W34017  14.727  12.718  13.275
65624W        W34018  44.432  36.592   0.372
65625W        W34019  11.910  12.464   1.778
65626W        W34020  44.407  34.909   0.063
65627W        W34021  18.489  35.060   3.344
65628W        W34022  20.212  10.271  11.945
65629W        W34023  39.476  31.320  10.623
65630W        W34024  31.089  43.003  11.727
65631W        W34025  38.274  31.215  11.243
65632W        W34026  32.995  25.277   0.222
65633W        W34027   7.383  42.952  10.637
65634W        W34028  43.861  37.096   1.044
65635W        W34029  28.537   2.853  14.730
65636W        W34030  18.327   9.316   0.970
65637W        W34031  39.922  21.705   3.204
65638W        W34032  20.002   1.965  14.065
65639W        W34033  36.772  31.935  10.856
65640W        W34034   1.805  10.875   4.656
65641W        W34035  42.246  33.606  11.920
65642W        W34036  37.246  19.764   0.318
65643W        W34037  40.486  36.229   1.989
65644W        W34038  31.358  19.810   3.482
65645W        W34039   0.206  40.875   4.589
65646W        W34040  26.773  14.461   2.762
65647W        W34041  28.548   2.925   3.141
65648W        W34042   1.524   4.320   4.137
65649W        W34043  36.620  23.255  14.496
65650W        W34044  39.600   0.937   0.929
65651W        W34045  23.197  26.725   4.160
65652W        W34046  41.860  33.961  11.853
65653W        W34047   1.106  40.046  14.067
65654W        W34048  17.721  20.179   0.837
65655W        W34049  27.816  40.051  11.081
65656W        W34050   4.349  32.353   1.667
65657W        W34051  39.785  13.395   2.201
65658W        W34052  17.134   0.776  10.650
65659W        W34053  25.517  11.185   3.284
65660W        W34054   4.441  18.600  14.892
65661W        W34055  16.188   7.854   1.131
65662W        W34056  34.649  35.847   4.570
65663W        W34057  21.172  11.704  10.609
65664W        W34058  19.119  16.627   0.809
65665W        W34059  32.452   3.326   1.231
65666W        W34060  18.369  29.702  12.047
65667W        W34061   7.205  40.878   3.247
65668W        W34062  32.576  10.489   2.636
65669W        W34063   4.449  24.799  11.991
65670W        W34064   7.423  10.911   3.970
65671W        W34065  41.819  24.420  12.900
65672W        W34066   7.035  14.641   5.009
65673W        W34067  19.096  42.872   4.569
65674W        W34068   9.360  44.312  13.554
65675W        W34069   3.711  12.085   5.039
65676W        W34070   9.000   7.485  14.346
65677W        W34071   6.938  20.276   3.265
65678W        W34072  12.826  21.664  13.650
65679W        W34073  14.545  18.443   3.846
65680W        W34074  21.614   2.423   0.036
65681W        W34075  26.378  21.066  10.434
65682W        W34076   2.925   1.454   4.378
65683W        W34077  35.819  33.534  14.882
65684W        W34078  28.036  29.291  12.017
65685W        W34079   3.562   5.356   5.455
65686W        W34080  23.574  23.646  12.374
65687W        W34081  24.976  43.119  11.676
65688W        W34082  32.514  35.571   4.590
65689W        W34083  22.969  13.597  11.565
65690W        W34084   8.893   9.471  12.959
65691W        W34085   6.691   4.257   2.886
65692W        W34086  17.373  36.048   4.628
65693W        W34087  34.887  28.174   3.114
65694W        W34088  32.361  40.570  14.698
65695W        W34089  38.790   1.456  13.746
65696W        W34090  40.346   8.182  11.170
65697W        W34091  32.435  42.757   0.180
65698W        W34092  43.487  32.405   2.978
65699W        W34093  13.854   7.834   0.393
65700W        W34094  17.285  33.637   3.799
65701W        W34095  27.851  32.434   0.542
65702W        W34096  13.665   8.401   1.180
65703W        W34097  41.981   9.121  11.247
65704W        W34098   7.002   3.752  11.443
65705W        W34099  38.952  23.951   1.436
65706W        W34100  29.975  32.662  11.132
65707W        W34101  44.228  38.380  12.055
65708W        W34102  12.739  44.754   2.159
65709W        W34103  38.299   6.106  12.418
65710W        W34104  11.659   0.772   1.018
65711W        W34105  35.961  24.011   2.419
65712W        W34106  16.157  18.295   4.579
65713W        W34107  14.356  31.164  13.405
65714W        W34108   1.115  14.190  14.885
65715W        W34109  26.031  19.133  10.995
65716W        W34110  23.134  39.469  13.414
65717W        W34111   7.760  36.470   0.917
65718W        W34112  32.115  43.236   4.483
65719W        W34113  12.179   8.646   3.597
65720W        W34114   9.782   6.722  12.278
65721W        W34115  33.642  19.632   2.859
65722W        W34116  20.468  28.718   4.987
65723W        W34117  19.191  40.767   2.723
65724W        W34118  13.685  19.636   2.947
65725W        W34119  27.058   1.976   4.103
65726W        W34120  42.848   0.349   2.656
65727W        W34121  36.248   9.898   4.035
65728W        W34122  34.548   7.191   1.336
65729W        W34123  41.551  19.038  12.506
65730W        W34124  44.934  34.284  13.365
65731W        W34125  33.444  22.297  11.579
65732W        W34126  12.674  20.373   2.639
65733W        W34127  42.960  38.398  14.920
65734W        W34128  33.190  43.377  12.570
65735W        W34129   9.619   2.688  11.812
65736W        W34130  22.575  25.336  14.941
65737W        W34131  27.204   9.460  10.236
65738W        W34132  33.597  26.970   1.723
65739W        W34133  22.980  42.899   3.772
65740W        W34134  39.571  23.891   0.966
65741W        W34135  11.141  12.892  12.962
65742W        W34136  18.180  19.892   1.629
65743W        W34137  29.867  34.885  10.454
65744W        W34138  28.562  25.069   0.033
65745W        W34139  17.292   4.700   1.877
65746W        W34140   8.319  28.090  11.855
65747W        W34141  13.955   1.896  14.429
65748W        W34142  11.174   5.728  13.583
65749W        W34143  42.041   9.618  12.375
65750W        W34144  22.637  36.031   2.501
65751W        W34145  21.494  18.755   2.251
65752W        W34146  19.262  21.024   2.679
65753W        W34147   1.980  38.016  10.996
65754W        W34148  21.685  38.900  12.606
65755W        W34149  16.345  32.624  12.927
65756W        W34150   9.295  21.028   4.172
65757W        W34151  33.978  31.209  11.417
65758W        W34152  39.161  16.424   4.204
65759W        W34153  31.405  18.535  13.377
65760W        W34154  40.571  30.905   1.249
65761W        W34155  26.110  43.731   0.315
65762W        W34156  28.398  23.403  14.789
65763W        W34157  42.445  44.573   2.879
65764W        W34158  35.414  20.025   0.350
65765W        W34159  28.873  27.704   1.327
65766W        W34160  36.863  32.440  12.014
65767W        W34161  19.303  26.577  13.363
65768W        W34162  28.976  37.728  14.169
65769W        W34163  24.737   6.472  14.088
65770W        W34164   7.704  26.596   4.527
65771W        W34165  23.198  20.763  12.013
65772W        W34166  23.323  44.777  14.849
65773W        W34167  15.632  29.361  10.270
65774W        W34168  19.748  13.441  10.762
65775W        W34169  34.282  27.592  10.780
65776W        W34170  26.646  18.643  13.654
65777W        W34171  29.492   0.658  12.660
65778W        W34172  23.581  27.225   0.940
65779W        W34173  24.100  16.275  12.911
65780W        W34174  22.061  26.286  13.481
65781W        W34175  32.014  10.258  14.504
65782W        W34176  19.293  24.488   4.592
65783W        W34177  19.081  27.760   2.609
65784W        W34178   1.159  30.504  14.868
65785W        W34179   2.195  33.049  12.538
65786W        W34180  32.708  22.188   2.469
65787W        W34181   7.171  25.169   3.405
65788W        W34182   5.433   6.182  13.607
65789W        W34183  11.725  27.845   4.110
65790W        W34184   1.539  37.468  13.433
65791W        W34185   4.927  37.214   2.860
65792W        W34186  38.025  42.059   4.574
65793W        W34187   4.195  12.640  10.884
65794W        W34188  38.304   7.339  13.880
65795W        W34189   6.570  38.278   4.414
65796W        W34190  11.454  27.965  14.453
65797W        W34191   0.481  20.215   0.267
65798W        W34192  10.767   7.444  13.406
65799W        W34193  43.054   8.670   2.277
65800W        W34194  24.906   0.599  10.754
65801W        W34195   1.855  13.898   1.887
65802W        W34196  15.062  43.532  12.015
65803W        W34197  11.109  43.293   1.205
65804W        W34198  24.202   8.567   2.189
65805W        W34199   2.963  24.959   0.399
65806W        W34200  28.489   5.938   1.293
65807W        W34201  22.457  11.773   0.942
65808W        W34202  29.420  35.620  12.005
65809W        W34203  42.767  16.566   1.188
65810W        W34204   0.553  36.505   3.277
65811W        W34205  31.498  41.401  11.133
65812W        W34206  35.359   7.363  10.786
65813W        W34207  10.517  31.915  14.945
65814W        W34208  29.570  24.227   3.740
65815W        W34209  41.955  35.370  11.131
65816W        W34210  22.440  26.614  10.099
65817W        W34211  29.508  41.732  11.242
65818W        W34212  19.943  11.759  11.117
65819W        W34213  17.250  10.391   1.909
65820W        W34214  31.408  44.366   2.388
65821W        W34215  43.413   1.267   0.515
65822W        W34216  35.053  14.313   0.249
65823W        W34217  43.851   3.087   2.165
65824W        W34218  19.252   3.297  11.993
65825W        W34219  44.001  17.723  12.719
65826W        W34220  25.719  17.172   0.392
65827W        W34221  40.039  39.249   4.621
65828W        W34222   4.400  16.465   0.100
65829W        W34223   2.835  15.125   4.163
65830W        W34224   9.127  18.790  11.608
65831W        W34225  12.061   2.840  12.117
65832W        W34226  11.157  35.586   4.112
65833W        W34227   7.936   4.862  13.074
65834W        W34228  30.833  17.193  13.837
65835W        W34229  16.164  41.318   0.586
65836W        W34230  38.955   3.249   4.360
65837W        W34231  23.976  22.743  11.158
65838W        W34232   4.707  44.816  13.863
65839W        W34233  17.610  15.933   4.577
65840W        W34234  31.464  18.346  11.562
65841W        W34235   8.178  18.852  10.608
65842W        W34236  36.600   1.225  12.490
65843W        W34237  22.567  16.815   0.446
65844W        W34238  40.333  16.737   2.392
65845W        W34239   4.874   8.853  12.551
65846W        W34240  17.629  19.733  11.164
65847W        W34241  27.501   0.359  11.636
65848W        W34242   6.326  42.826   1.386
65849W        W34243  31.949  27.903  12.010
65850W        W34244   6.439  43.832  12.481
65851W        W34245  23.624  42.896  13.937
65852W        W34246  30.928   8.340   2.091
65853W        W34247  27.764   2.233   1.887
65854W        W34248  44.361  31.542  13.024
65855W        W34249  13.711  11.916  13.670
65856W        W34250   7.235  11.251  10.682
65857W        W34251  15.804  40.887  12.526
65858W        W34252  30.006   9.693   3.921
65859W        W34253  12.093  26.988  13.611
65860W        W34254  26.670  41.334  14.845
65861W        W34255   6.700  37.908  13.458
65862W        W34256  22.425  42.906   3.716
65863W        W34257  30.684   9.167   3.185
65864W        W34258  11.805  11.756   1.394
65865W        W34259  30.744  38.824   4.625
65866W        W34260  29.892  24.766  12.993
65867W        W34261  36.509  40.092  13.369
65868W        W34262  22.611  29.057   0.738
65869W        W34263  11.086  16.260  11.641
65870W        W34264  12.285   6.951  10.863
65871W        W34265  11.146  43.861   3.056
65872W        W34266  44.848  43.864  10.491
65873W        W34267  34.862   9.884   1.737
65874W        W34268   5.908  38.579  11.411
65875W        W34269  27.070  24.284  12.474
65876W        W34270  30.462  17.277  12.047
65877W        W34271   3.296  12.811   0.291
65878W        W34272  21.274  17.701  13.816
65879W        W34273  20.271  34.386  14.068
65880W        W34274  14.660   4.909   2.787
65881W        W34275  31.669  33.602  14.181
65882W        W34276  28.042  19.313  11.142
65883W        W34277  25.286  44.370  11.166
65884W        W34278  37.082  37.255  12.196
65885W        W34279   4.322  14.799  14.339
65886W        W34280   4.688  11.766  13.439
65887W        W34281  26.586   7.312  11.504
65888W        W34282   7.790  21.212  13.329
65889W        W34283  16.189  18.086   4.103
65890W        W34284  32.963  21.722   3.088
65891W        W34285  19.621  15.141  11.266
65892W        W34286  32.428  16.800  14.476
65893W        W34287  23.053  30.351  13.730
65894W        W34288   5.713  25.009  12.470
65895W        W34289   1.819   8.212  11.381
65896W        W34290  18.280  22.983  12.447
65897W        W34291  34.074   0.754   0.340
65898W        W34292  37.962  13.555   1.826
65899W        W34293  35.964  12.192  12.082
65900W        W34294   8.428  17.541  14.965
65901W        W34295  28.524  23.088  14.403
65902W        W34296   8.544  23.817   1.455
65903W        W34297  17.027  44.264  13.024
65904W        W34298  27.529   5.943  13.756
65905W        W34299  20.656  16.058  13.189
65906W        W34300  41.525   2.976   1.950
65907W        W34301  37.612  38.117  14.342
65908W        W34302  17.044  15.022   3.870
65909W        W34303  27.445  38.030  13.937
65910W        W34304   6.328  15.274  14.815
65911W        W34305  12.898  31.371  11.532
65912W        W34306  24.135  28.153   3.670
65913W        W34307  22.803  32.624  14.974
65914W        W34308  43.572  19.767  13.480
65915W        W34309  13.823  17.839   2.342
65916W        W34310  28.523   6.448   1.351
65917W        W34311  11.267   7.406  14.469
65918W        W34312  25.927  24.418   4.863
65919W        W34313  25.613   2.251   3.756
65920W        W34314  15.714  16.094  12.384
65921W        W34315  13.059  44.282   4.146
65922W        W34316  41.346  17.358   3.228
65923W        W34317  42.212   5.625   4.747
65924W        W34318  41.062  35.396  12.580
65925W        W34319   8.443   8.930   2.835
65926W        W34320  12.255   4.670   4.706
65927W        W34321  15.574   7.007   4.471
65928W        W34322  16.234   3.849  11.658
65929W        W34323  40.447  12.726  11.310
65930W        W34324  40.166   6.642   4.077
65931W        W34325  33.208  18.753  13.403
65932W        W34326  13.896  16.754  14.786
65933W        W34327   7.945  43.849   2.851
65934W        W34328   7.249  38.590   2.772
65935W        W34329  38.096  26.997  10.616
65936W        W34330   7.358   0.956   1.208
65937W        W34331  44.377   7.285   1.323
65938W        W34332  24.130  27.172  12.771
65939W        W34333   1.964  40.533   3.669
65940W        W34334  34.039  26.448   2.302
65941W        W34335  21.324  25.083  13.699
65942W        W34336  24.547  13.093   3.788
65943W        W34337  30.247  44.649  11.471
65944W        W34338  38.961   7.213  11.983
65945W        W34339  34.997  39.578  13.936
65946W        W34340   8.636   5.019   3.870
65947W        W34341   3.656  26.480  10.304
65948W        W34342  10.308  16.666  11.442
65949W        W34343  15.174  24.653   0.653
65950W        W34344   7.669  23.732  13.399
65951W        W34345  25.458  35.131  14.550
65952W        W34346  30.610  31.647   4.128
65953W        W34347  14.344  38.839   1.385
65954W        W34348  38.488  36.921   4.388
65955W        W34349  17.281  35.941  10.582
65956W        W34350  44.754  12.620   3.625
65957W        W34351  17.055   8.278   1.776
65958W        W34352  42.856   1.668  10.380
65959W        W34353  40.318  13.406   1.321
65960W        W34354  24.264  36.118   4.136
65961W        W34355  18.498  17.292   0.367
65962W        W34356   3.850  42.361  11.962
65963W        W34357  30.065  25.981  12.512
65964W        W34358  43.237  24.287  13.561
65965W        W34359  23.964  29.866   2.988
65966W        W34360   3.744  33.983   0.869
65967W        W34361  16.332  15.306   3.137
65968W        W34362  19.937  30.252  14.299
65969W        W34363  44.877  24.552  14.880
65970W        W34364   7.650  26.628  13.214
65971W        W34365  40.513   4.633  14.759
65972W        W34366   5.058  19.250   1.473
65973W        W34367  40.546  17.627   3.628
65974W        W34368  20.250   4.299   3.859
65975W        W34369  26.695  25.938   0.913
65976W        W34370  35.596   9.697   2.158
65977W        W34371   7.867  21.602  10.798
65978W        W34372   1.739  36.759   2.644
65979W        W34373  20.788  39.962  11.866
65980W        W34374  41.795  15.903   2.356
65981W        W34375  26.388  18.580   4.971
65982W        W34376  30.992  25.885  12.215
65983W        W34377  35.592  44.187   0.009
65984W        W34378   0.863   7.739   3.921
65985W        W34379  38.826  26.478  14.373
65986W        W34380  15.070  34.402  12.914
65987W        W34381   3.689  27.079  13.895
65988W        W34382  10.942  38.628  11.146
65989W        W34383   9.153  40.329   4.921
65990W        W34384  37.335  28.174   0.022
65991W        W34385  32.783  29.396   0.686
65992W        W34386  37.998  36.627  14.213
65993W        W34387  25.432  19.267   3.716
65994W        W34388  25.613  42.149  12.856
65995W        W34389  12.311  24.048  12.187
65996W        W34390   0.818  17.134   3.200
65997W        W34391  15.591  31.017   2.838
65998W        W34392  14.324  36.424  10.706
65999W        W34393   6.534  24.472  13.832
66000W        W34394   4.769  24.224  14.743
66001W        W34395  42.800  33.801  11.904
66002W        W34396  34.476  30.062   1.827
66003W        W34397  22.647   1.309   4.242
66004W        W34398   8.777  34.569  12.019
66005W        W34399  18.510   1.062   1.375
66006W        W34400  38.671  18.830   1.437
66007W        W34401  41.639  13.189   3.614
66008W        W34402  40.839  31.455  10.621
66009W        W34403  12.371  22.271   2.876
66010W        W34404  23.970   7.909  14.370
66011W        W34405  16.768   0.742   0.307
66012W        W34406  15.864  34.966   0.792
66013W        W34407  21.511  20.959  12.496
66014W        W34408  19.123  25.723  14.698
66015W        W34409  11.686  13.253   1.362
66016W        W34410  40.066  25.568  13.153
66017W        W34411  32.076  24.379  10.786
66018W        W34412  29.701  36.503   4.399
66019W        W34413  41.744  23.656  14.856
66020W        W34414  22.663  27.410   2.776
66021W        W34415  11.564  20.918  11.284
66022W        W34416  22.398  25.489  14.489
66023W        W34417  26.173   1.533  13.798
66024W        W34418  27.197  27.139  13.450
66025W        W34419  26.988   1.756   3.123
66026W        W34420  21.082  19.262   0.906
66027W        W34421  17.715  40.889  11.735
66028W        W34422  21.723  20.213  11.151
66029W        W34423  19.039  37.313   4.231
66030W        W34424  14.622   1.290  14.418
66031W        W34425   5.189   9.616  12.463
66032W        W34426  41.210  43.973   0.002
66033W        W34427  31.124   4.799  13.989
66034W        W34428   4.459  16.218  13.387
66035W        W34429  25.351  16.624  10.711
66036W        W34430  22.056  21.386   2.821
66037W        W34431   9.293  12.283  13.130
66038W        W34432   3.071  31.259  11.586
66039W        W34433  14.324  26.454  10.696
66040W        W34434  12.189  22.145  14.883
66041W        W34435  39.534  18.095  14.844
66042W        W34436  13.172  27.802  11.056
66043W        W34437   1.925  34.074  12.233
66044W        W34438  15.758  41.450  13.177
66045W        W34439   4.940  30.327  13.587
66046W        W34440  15.822  33.710   0.590
66047W        W34441  14.723  20.546  12.106
66048W        W34442  22.063   0.440  14.659
66049W        W34443  10.425   1.384  13.584
66050W        W34444  20.737  43.458   0.293
66051W        W34445  31.009  29.979   4.865
66052W        W34446  34.570   8.567  12.350
66053W        W34447  21.161  15.124   1.766
66054W        W34448   1.709   4.061  11.665
66055W        W34449  33.556   1.774   3.608
66056W        W34450   7.423  22.207   2.128
66057W        W34451  38.804  27.059  13.139
66058W        W34452  25.422  36.848   3.606
66059W        W34453  30.532  22.320   3.196
66060W        W34454  10.939  17.303  14.559
66061W        W34455  25.763  29.414  11.616
66062W        W34456   9.411  37.246   2.818
66063W        W34457  24.035   9.468  14.312
66064W        W34458  24.676  34.020  12.366
66065W        W34459   2.761  16.462   0.380
66066W        W34460  42.923  18.361  11.544
66067W        W34461   3.765  20.071   3.607
66068W        W34462  25.477  35.487   4.073
66069W        W34463  24.860  38.614  12.053
66070W        W34464  42.558   9.444  13.858
66071W        W34465  17.317   2.312   4.471
66072W        W34466  23.247  37.072   4.491
66073W        W34467  28.204  36.440  14.965
66074W        W34468   8.284   8.623  11.163
66075W        W34469   6.821  43.290   1.917
66076W        W34470   8.885  44.525   2.139
66077W        W34471  25.630  41.438   1.448
66078W        W34472  15.054  33.369  10.915
66079W        W34473  26.964   8.199  11.166
66080W        W34474  12.984  42.409  13.705
66081W        W34475   4.603  33.620  11.574
66082W        W34476  39.476  42.419  11.595
66083W        W34477  28.699  34.646  10.599
66084W        W34478  28.703  29.509  10.753
66085W        W34479  37.601  29.434  11.114
66086W        W34480  30.226  24.695   3.654
66087W        W34481  11.053  29.427   3.291
66088W        W34482  44.328   0.270   2.486
66089W        W34483  17.600  29.734   2.152
66090W        W34484  24.498  33.771   4.525
66091W        W34485  17.504  39.395  14.385
66092W        W34486   7.252  24.020  11.366
66093W        W34487   8.406  30.402  10.665
66094W        W34488  22.514  40.853  10.770
66095W        W34489  44.344  23.998  11.415
66096W        W34490  33.186  28.929  14.971
66097W        W34491  19.797  28.071  14.054
66098W        W34492  34.066  34.447  11.534
66099W        W34493  34.395  18.006   4.399
66100W        W34494   0.409  18.124   1.605
66101W        W34495  40.529  27.347  11.451
66102W        W34496  19.399  10.884  13.033
66103W        W34497  34.359  28.931  12.601
66104W        W34498  43.019  43.595   0.468
66105W        W34499   6.320  20.727  13.528
66106W        W34500  37.550   3.812   4.546
66107W        W34501  30.668  19.562  13.776
66108W        W34502  28.215  25.359   2.791
66109W        W34503  25.792  31.544  14.001
66110W        W34504  18.236   8.599  13.842
66111W        W34505  39.655  42.436   2.333
66112W        W34506  38.124  20.529   0.639
66113W        W34507  44.479  13.717  10.549
66114W        W34508   4.484  44.969  14.310
66115W        W34509   6.901   9.394  12.636
66116W        W34510  33.548  27.268  13.402
66117W        W34511  12.153  30.819  11.190
66118W        W34512  30.130   0.242  13.402
66119W        W34513  25.073  18.217   1.609
66120W        W34514  39.045  11.442   3.794
66121W        W34515  23.737  18.060   1.524
66122W        W34516  38.089  31.658  11.046
66123W        W34517  12.983  35.640   3.265
66124W        W34518  38.364  37.631  10.626
66125W        W34519   3.170  44.796   1.418
66126W        W34520  30.953  42.212   2.268
66127W        W34521  26.181   3.661   2.770
66128W        W34522  21.063  10.222  11.033
66129W        W34523  24.316   2.240  11.608
66130W        W34524   7.296  21.908  13.281
66131W        W34525  43.215   1.603  13.764
66132W        W34526   0.818   4.104   3.142
66133W        W34527  23.031  35.864   2.209
66134W        W34528  12.259  15.776  10.642
66135W        W34529   9.185  44.193   0.320
66136W        W34530  41.405  42.323   1.804
66137W        W34531   8.450   1.731  14.339
66138W        W34532   0.963  42.433   0.859
66139W        W34533   5.822   1.086   2.837
66140W        W34534  28.669  23.721  12.482
66141W        W34535   3.325  38.161  10.639
66142W        W34536  18.548   0.602  11.174
66143W        W34537  25.971  23.391  12.352
66144W        W34538  44.921  28.831   1.322
66145W        W34539  24.270  27.581   1.881
66146W        W34540  42.204   8.854  12.905
66147W        W34541   1.346  12.369  13.991
66148W        W34542   4.184   2.268  11.894
66149W        W34543  28.538  38.618   2.707
66150W        W34544  42.896  19.376   3.603
66151W        W34545  33.109  33.322  10.691
66152W        W34546   0.227   4.417  11.918
66153W        W34547  35.743   8.327   4.866
66154W        W34548  18.352  26.016   2.762
66155W        W34549  23.795  17.553   3.561
66156W        W34550  30.058  39.434  12.714
66157W        W34551   8.077  35.943   0.115
66158W        W34552  32.022   5.630  14.287
66159W        W34553  44.597  27.241   4.145
66160W        W34554  22.887   3.725   4.215
66161W        W34555  34.179   1.415   2.728
66162W        W34556  41.829  18.730   3.927
66163W        W34557  38.692  16.413   1.844
66164W        W34558   1.986  37.148   3.588
66165W        W34559  35.389  30.208   0.338
66166W        W34560  36.571  24.809   2.563
66167W        W34561  37.582  32.955   0.341
66168W        W34562  37.142  32.765   2.259
66169W        W34563  15.807  37.639  12.395
66170W        W34564  23.048  18.740   1.460
66171W        W34565   4.211  14.675   3.180
66172W        W34566  35.943   7.836  12.157
66173W        W34567   3.746  20.391   4.480
66174W        W34568   8.034  34.953   1.927
66175W        W34569   3.750   5.974  13.790
66176W        W34570  28.069  44.062  12.612
66177W        W34571   7.784  32.962  14.078
66178W        W34572  28.968  13.303   0.924
66179W        W34573  26.270   4.098  12.889
66180W        W34574  43.945   1.347   3.559
66181W        W34575  27.967  32.923  14.835
66182W        W34576  10.912  39.203  10.277
66183W        W34577  38.759   9.673   1.390
66184W        W34578  41.543   4.882   2.668
66185W        W34579  21.557  36.175  12.861
66186W        W34580  34.882  13.110   2.272
66187W        W34581  43.946  13.339   2.965
66188W        W34582  22.719  36.105   0.718
66189W        W34583  36.942   6.039  11.345
66190W        W34584  37.304  38.838   1.362
66191W        W34585  12.838  22.128   3.036
66192W        W34586  43.454  29.012  11.220
66193W        W34587  27.055  34.065  10.651
66194W        W34588  38.496  28.925  11.205
66195W        W34589  36.020  15.595  13.828
66196W        W34590  36.958   4.263   4.292
66197W        W34591   0.501  35.736   0.892
66198W        W34592  30.145  42.530   1.651
66199W        W34593  17.630  21.550  10.705
66200W        W34594  15.104  21.385  11.554
66201W        W34595  33.647  17.684  14.010
66202W        W34596  44.878  33.427  12.989
66203W        W34597   1.916   9.138   3.675
66204W        W34598  11.937  31.147  11.559
66205W        W34599  27.491   8.143   4.695
66206W        W34600  23.521  40.512   4.167
66207W        W34601  31.546   8.312   4.559
66208W        W34602  35.434  20.067   4.790
66209W        W34603  34.402  32.230   1.063
66210W        W34604  16.795  32.108  12.483
66211W        W34605  35.632  25.658  11.593
66212W        W34606  18.181  33.893  11.307
66213W        W34607  33.350  25.144  14.055
66214W        W34608  26.407  25.551  11.579
66215W        W34609  40.403  27.221   4.691
66216W        W34610  13.416  32.657  13.548
66217W        W34611  33.177  14.513  11.240
66218W        W34612  29.947   5.025   0.496
66219W        W34613  27.018   1.665  11.934
66220W        W34614  39.204  17.199   0.229
66221W        W34615   3.783  43.710  14.338
66222W        W34616  13.419  29.637   0.031
66223W        W34617   4.175  10.610  14.999
66224W        W34618  26.610  14.559  14.053
66225W        W34619   1.462  24.482  14.141
66226W        W34620  40.761  18.893   2.968
66227W        W34621  37.313  41.348  13.366
66228W        W34622  29.931  15.652   3.345
66229W        W34623  38.969  21.217   0.809
66230W        W34624   2.738  10.835   3.147
66231W        W34625  28.078   9.576  13.946
66232W        W34626  38.774   4.802   3.679
66233W        W34627  19.019  35.103  10.545
66234W        W34628  33.508  31.130   0.471
66235W        W34629  41.549  16.193   2.799
66236W        W34630  24.404   7.868   2.809
66237W        W34631  30.264  12.926   4.697
66238W        W34632   1.963  38.975   4.254
66239W        W34633  41.129  10.177   1.143
66240W        W34634  42.780  22.177   1.894
66241W        W34635  21.489  44.958  10.572
66242W        W34636  10.303   3.214  11.137
66243W        W34637   6.903  28.198   3.795
66244W        W34638   3.330   3.022  10.246
66245W        W34639   2.540  34.101   1.505
66246W        W34640  32.906   9.600   3.386
66247W        W34641   8.186  33.519   2.148
66248W        W34642   3.645  33.573   2.824
66249W        W34643  17.304  36.431  13.218
66250W        W34644  39.279   4.212  14.447
66251W        W34645  32.638  13.793  13.514
66252W        W34646  30.353   7.113   1.697
66253W        W34647  33.581  11.823  13.066
66254W        W34648   2.866  28.365  11.462
66255W        W34649  39.534  42.463  14.782
66256W        W34650  38.020   5.802   1.132
66257W        W34651  39.514   5.892  14.255
66258W        W34652   7.430   0.834   3.666
66259W        W34653  13.547  23.557   4.620
66260W        W34654   4.678  41.841   1.129
66261W        W34655  23.324   2.737   0.826
66262W        W34656  18.993  39.459   3.929
66263W        W34657  43.747  24.019  13.912
66264W        W34658  19.805  15.727  10.674
66265W        W34659  44.194   6.110   2.836
66266W        W34660  20.400  35.298   0.313
66267W        W34661  14.135  20.239  10.950
66268W        W34662  29.295  36.837  14.256
66269W        W34663   5.097  24.060   5.457
66270W        W34664  25.115  32.576  13.617
66271W        W34665  33.626   1.930   1.384
66272W        W34666   6.290  30.644   2.858
66273W        W34667  12.208  44.409   2.698
66274W        W34668   0.318  25.639   1.702
66275W        W34669  12.952  34.062   2.201
66276W        W34670   0.270   0.457   2.173
66277W        W34671  31.557  13.769  10.795
66278W        W34672  31.138  17.736   4.062
66279W        W34673  43.775  20.656   1.459
66280W        W34674   1.702  13.960  10.247
66281W        W34675  36.720  19.727   0.489
66282W        W34676  39.969  33.003   1.720
66283W        W34677  12.410  32.669  13.445
66284W        W34678  11.343  36.008   2.884
66285W        W34679  37.899  28.231   0.732
66286W        W34680  15.752   6.813  13.667
66287W        W34681  22.472  34.861  14.409
66288W        W34682  34.599  39.126  14.812
66289W        W34683  38.293  10.833   3.374
66290W        W34684   6.794  37.095  10.638
66291W        W34685  24.241  18.380   3.619
66292W        W34686  11.279  13.076   2.306
66293W        W34687   5.659  16.242  10.455
66294W        W34688  10.913   3.990  11.968
66295W        W34689  25.531  12.278  13.458
66296W        W34690  15.721  24.138   4.132
66297W        W34691  14.324  40.822   1.680
66298W        W34692  23.090  13.180  14.424
66299W        W34693   3.239  32.109  10.760
66300W        W34694   2.857  30.439   0.885
66301W        W34695  39.831  30.663   3.999
66302W        W34696  25.737  28.406  12.144
66303W        W34697  16.710  19.268   0.895
66304W        W34698  29.030   7.487   0.474
66305W        W34699  27.618   5.019   2.190
66306W        W34700  17.029  14.362  12.996
66307W        W34701  41.997   8.428  14.669
66308W        W34702  26.851  24.542   0.036
66309W        W34703   5.435   4.473  11.176
66310W        W34704   6.122   1.135   2.413
66311W        W34705  12.655  23.069   1.249
66312W        W34706  23.272  19.546   4.583
66313W        W34707  17.263  42.048   1.902
66314W        W34708  17.769   2.430  13.051
66315W        W34709  42.464  30.659  13.865
66316W        W34710   1.991  31.023   2.256
66317W        W34711  37.099  36.808   4.642
66318W        W34712   4.241  12.585  13.474
66319W        W34713   0.588  11.430   2.731
66320W        W34714  29.099  41.916  14.029
66321W        W34715  44.402  12.884   0.355
66322W        W34716   7.257  37.319   4.704
66323W        W34717  28.016  21.181  13.251
66324W        W34718  40.473  43.148   2.244
66325W        W34719  34.864  32.940   1.783
66326W        W34720  10.168  16.024  10.712
66327W        W34721  40.447  25.683   2.915
66328W        W34722  42.759  17.302   0.809
66329W        W34723   7.673  41.027   1.076
66330W        W34724  40.477  42.030  12.850
66331W        W34725  29.583  22.098   2.880
66332W        W34726  15.545  26.619  11.159
66333W        W34727   1.034  10.228   0.458
66334W        W34728  36.067   3.734  11.032
66335W        W34729  32.886  20.383   4.583
66336W        W34730   1.539  21.191  12.053
66337W        W34731  28.568  23.226   3.342
66338W        W34732  29.541  38.491  14.226
66339W        W34733  30.795  18.234  13.840
66340W        W34734  13.384  24.558   0.850
66341W        W34735  22.459   2.981  14.932
66342W        W34736  18.610  33.203   0.307
66343W        W34737   7.231  13.737  10.611
66344W        W34738   4.807  30.308  12.524
66345W        W34739   3.801  15.281  11.237
66346W        W34740  34.980  40.907  13.360
66347W        W34741  44.499   0.408   0.904
66348W        W34742   4.384  22.122   1.506
66349W        W34743  27.594  13.217   4.709
66350W        W34744   1.814  26.826  13.450
66351W        W34745  40.928   5.431   3.776
66352W        W34746  19.061   5.895   3.675
66353W        W34747  41.992  22.889   2.598
66354W        W34748  37.066  11.619   2.305
66355W        W34749  37.507  38.791   3.997
66356W        W34750  33.599   0.503   2.514
66357W        W34751   7.754   1.221   2.883
66358W        W34752   8.218  40.810   3.523
66359W        W34753   9.051  18.707   3.556
66360W        W34754  16.129   5.526  12.827
66361W        W34755  24.124  43.355   0.187
66362W        W34756   6.821  23.757  14.998
66363W        W34757  16.339  15.625   4.259
66364W        W34758   1.657  31.976  11.666
66365W        W34759   9.704  19.265  11.151
66366W        W34760   4.373   0.216   4.233
66367W        W34761  28.838  25.697  10.707
66368W        W34762  40.078  43.688  13.172
66369W        W34763   9.370  31.964  13.889
66370W        W34764  17.143  37.316   5.646
66371W        W34765   1.111  10.829  13.018
66372W        W34766  10.857  20.293   1.035
66373W        W34767  28.577  16.742   1.532
66374W        W34768  37.187  36.707   2.229
66375W        W34769  34.395  10.246   3.633
66376W        W34770  21.197   0.909  10.968
66377W        W34771   4.285  29.672  14.886
66378W        W34772  11.583  14.323  13.971
66379W        W34773  25.910  20.880  14.854
66380W        W34774  12.141  25.549  12.929
66381W        W34775   6.329  14.045   3.087
66382W        W34776  32.152  25.737   4.143
66383W        W34777   1.814   6.990   1.254
66384W        W34778  39.986  13.054  12.330
66385W        W34779  35.948  30.760   3.384
66386W        W34780  11.243  38.887   1.427
66387W        W34781  24.025  44.378  10.916
66388W        W34782  23.945   2.850  13.513
66389W        W34783   5.328  18.097  10.789
66390W        W34784  16.843  26.069   0.250
66391W        W34785  17.556   7.301  12.866
66392W        W34786  40.839  14.821  12.486
66393W        W34787   4.525  25.611  10.103
66394W        W34788  18.793  33.991   4.715
66395W        W34789  44.240  22.557   0.297
66396W        W34790  28.026  33.147  12.023
66397W        W34791  20.583  32.409   4.559
66398W        W34792  25.216  36.352  10.776
66399W        W34793   9.892  11.696  13.657
66400W        W34794  16.292   3.486  11.328
66401W        W34795   1.907  39.888   4.197
66402W        W34796  34.187  43.851  10.683
66403W        W34797  17.638   7.949   5.028
66404W        W34798  23.915  36.382   3.180
66405W        W34799   9.767  22.046  12.626
66406W        W34800  37.483  16.511   0.488
66407W        W34801  19.205  18.983  13.850
66408W        W34802  42.315  27.938   4.829
66409W        W34803  43.232  40.443   2.425
66410W        W34804  17.030  11.641  11.123
66411W        W34805  35.242  26.675  13.205
66412W        W34806  35.412  40.416   0.995
66413W        W34807  16.162  34.632  14.010
66414W        W34808  27.134  26.131   2.228
66415W        W34809   9.110  13.117   1.763
66416W        W34810  29.446  36.546   1.304
66417W        W34811   5.788  16.614  11.064
66418W        W34812  15.640   3.451   4.356
66419W        W34813  15.508  31.073  13.824
66420W        W34814  25.521   6.056   0.173
66421W        W34815  13.595  17.253   0.190
66422W        W34816  37.581  30.573  13.553
66423W        W34817  30.420  41.778  14.469
66424W        W34818   3.451  35.133  12.648
66425W        W34819  22.520  12.417   4.000
66426W        W34820  21.030  14.607   1.789
66427W        W34821  30.017  16.329   0.452
66428W        W34822  34.049  11.281   2.886
66429W        W34823   3.395  14.451  13.017
66430W        W34824   3.363  10.890  13.009
66431W        W34825  44.993  39.087   0.392
66432W        W34826  43.207  34.363   4.137
66433W        W34827   4.627  18.118  14.851
66434W        W34828  26.479  21.125   5.005
66435W        W34829  36.870  34.022   1.661
66436W        W34830  28.149  13.103  11.619
66437W        W34831  31.620   2.476  13.769
66438W        W34832   1.876  34.101  14.797
66439W        W34833  23.767   3.934   0.423
66440W        W34834   5.864   6.435  13.457
66441W        W34835  23.235   4.757   3.223
66442W        W34836   7.817  26.928  13.575
66443W        W34837   0.878   4.855   1.432
66444W        W34838  21.316   2.614   0.861
66445W        W34839   2.690  32.500   4.142
66446W        W34840  14.668  18.293   2.946
66447W        W34841  40.462  29.397   2.286
66448W        W34842  23.812  15.357  14.865
66449W        W34843  34.899  39.944  13.431
66450W        W34844  15.537   9.193  14.451
66451W        W34845  34.562  38.380  11.912
66452W        W34846  37.763  31.095  14.389
66453W        W34847  16.325   7.291  14.974
66454W        W34848   9.730  43.447  13.178
66455W        W34849  34.475  25.096  14.899
66456W        W34850  27.683  21.728   0.847
66457W        W34851  43.002  20.246   0.303
66458W        W34852  22.923  39.361   3.956
66459W        W34853   0.698  24.309  12.455
66460W        W34854   5.973  21.152   0.203
66461W        W34855  17.775  10.868  12.036
66462W        W34856  14.909   4.189  11.568
66463W        W34857  42.861  13.573  12.372
66464W        W34858  15.688   3.413  13.471
66465W        W34859   1.436  36.138  14.948
66466W        W34860  34.613  38.824  11.093
66467W        W34861  35.998  40.388   1.029
66468W        W34862  12.315  42.042  12.461
66469W        W34863  28.950  27.089   3.601
66470W        W34864  17.625  38.570   0.675
66471W        W34865  44.386  33.505  14.797
66472W        W34866  22.260   8.299  13.490
66473W        W34867  12.706  37.960   4.084
66474W        W34868  37.358   4.728  14.394
66475W        W34869  32.626  23.803   0.094
66476W        W34870  37.791  12.170  10.790
66477W        W34871  14.084  15.874  13.535
66478W        W34872  34.972  33.595  10.625
66479W        W34873  23.000  27.902   0.947
66480W        W34874  43.103  42.875  14.940
66481W        W34875  33.528  29.723  10.000
66482W        W34876  29.144  38.199   3.228
66483W        W34877  27.983  13.818   0.951
66484W        W34878  39.513  13.120  10.634
66485W        W34879   1.436  10.254   2.786
66486W        W34880  23.518  20.771  13.274
66487W        W34881   8.255  41.321   3.695
66488W        W34882  42.423  36.889  11.986
66489W        W34883  24.418   3.967   3.687
66490W        W34884  33.890  40.713  11.632
66491W        W34885   3.500  16.763  10.595
66492W        W34886  28.678  24.048  10.796
66493W        W34887  23.160  35.122   3.721
66494W        W34888  31.884   7.095  10.794
66495W        W34889  25.076   5.482   3.231
66496W        W34890  30.314  30.655  11.106
66497W        W34891   4.223  34.414   3.716
66498W        W34892  20.953  35.492  12.032
66499W        W34893  35.080  23.483   4.672
66500W        W34894   3.529  26.727   0.799
66501W        W34895   5.577  42.286   1.151
66502W        W34896  10.027  43.346   0.589
66503W        W34897  20.534   9.376  10.933
66504W        W34898  16.673  21.601   0.916
66505W        W34899  42.262  18.165   3.327
66506W        W34900  33.638  13.902  11.621
66507W        W34901  41.889  23.763   0.346
66508W        W34902  37.473   9.491  14.889
66509W        W34903  36.872  35.540   3.741
66510W        W34904  28.522  18.580   2.795
66511W        W34905  25.059  36.907  11.599
66512W        W34906  23.319   1.917  14.916
66513W        W34907  19.167  35.146  13.575
66514W        W34908  30.641  21.709  11.460
66515W        W34909  23.471  18.807   4.148
66516W        W34910  19.315  14.568   4.251
66517W        W34911  36.763  20.227   4.050
66518W        W34912  40.883   2.476   3.672
66519W        W34913   7.551  41.337  11.171
66520W        W34914  12.926  22.511   3.842
66521W        W34915  34.179  18.982  11.670
66522W        W34916   8.873  10.846  13.559
66523W        W34917  16.000  29.841   4.588
66524W        W34918  26.454  21.725   2.396
66525W        W34919   7.003  15.648   0.284
66526W        W34920   3.866   3.284   3.316
66527W        W34921  16.814  15.086   1.260
66528W        W34922  28.596   2.286  13.119
66529W        W34923  30.210   5.632   4.029
66530W        W34924   3.842  12.932  13.359
66531W        W34925  23.740  32.816  11.076
66532W        W34926  31.393  36.403   3.713
66533W        W34927  24.780  18.788  14.864
66534W        W34928  22.139   2.012   3.243
66535W        W34929  41.148   7.230   0.339
66536W        W34930  33.570  29.011  13.395
66537W        W34931   2.857  19.568   4.576
66538W        W34932  16.028   6.060   0.846
66539W        W34933  15.476   6.461   0.256
66540W        W34934  31.891  29.739   1.118
66541W        W34935  20.325  31.975   4.675
66542W        W34936   7.221  44.085   4.206
66543W        W34937  44.783  43.928   2.876
66544W        W34938  26.186  22.070  13.587
66545W        W34939  30.134  13.220  13.110
66546W        W34940  22.812  16.353   1.835
66547W        W34941  25.978   9.132   1.839
66548W        W34942  11.649   6.316  11.134
66549W        W34943  16.558  44.927  11.723
66550W        W34944   5.948  13.242  13.406
66551W        W34945  37.645  17.518  12.954
66552W        W34946  38.543   0.517  11.196
66553W        W34947  29.114  37.668  13.676
66554W        W34948  24.028  37.315  13.810
66555W        W34949   5.946  15.227  10.547
66556W        W34950   4.397  20.682  11.583
66557W        W34951  43.249   0.866  14.221
66558W        W34952  13.039  39.385  12.984
66559W        W34953  44.672  29.096   2.673
66560W        W34954  14.899  39.822  12.546
66561W        W34955  13.753  20.538  13.436
66562W        W34956  27.341   8.140   3.377
66563W        W34957  11.787  37.862   3.622
66564W        W34958   8.866   8.170  11.302
66565W        W34959  32.893   4.643   2.586
66566W        W34960  42.815  37.144   0.900
66567W        W34961  10.868  25.723  12.454
66568W        W34962   9.314  13.076   4.376
66569W        W34963  23.625   7.672  14.854
66570W        W34964   1.874  17.154   3.342
66571W        W34965  42.787  15.638   0.225
66572W        W34966   0.008   8.314   3.885
66573W        W34967   7.867   2.820   4.864
66574W        W34968  41.006  21.440  11.100
66575W        W34969   0.732  30.584   2.771
66576W        W34970   4.157  10.788   3.050
66577W        W34971  19.006  35.384   0.727
66578W        W34972  28.418  40.434   3.704
66579W        W34973  31.035   2.663   3.078
66580W        W34974   5.767   9.332   1.671
66581W        W34975  35.665  16.527   2.907
66582W        W34976  16.673   6.588   2.935
66583W        W34977  36.063   9.768   0.823
66584W        W34978  23.024  19.114   0.819
66585W        W34979   3.907  39.844   1.531
66586W        W34980  19.731  22.798  13.190
66587W        W34981  37.879  10.780  13.323
66588W        W34982  40.251  12.810   4.557
66589W        W34983  28.419  27.543  12.458
66590W        W34984  35.091  22.734  10.981
66591W        W34985   0.525   8.755   2.885
66592W        W34986   4.019  18.069   3.643
66593W        W34987  19.611  21.004   0.197
66594W        W34988  23.037   4.991   1.890
66595W        W34989  34.676  40.559  14.862
66596W        W34990  36.056  16.593  12.415
66597W        W34991  37.704  10.050   4.130
66598W        W34992  19.827   3.822   2.918
66599W        W34993   8.186   9.183  11.822
66600W        W34994  30.397  41.806   1.728
66601W        W34995  42.029  25.226  13.001
66602W        W34996   6.144  15.431   1.838
66603W        W34997  19.976  24.585  12.813
66604W        W34998   7.929  18.472   0.164
66605W        W34999  30.860  28.840  13.760
66606W        W35000  13.298  17.291  14.219
66607W        W35001  34.882  23.169  14.545
66608W        W35002  38.784  19.193  14.444
66609W        W35003  41.868  28.684   3.436
66610W        W35004   6.354  13.610  14.301
66611W        W35005  26.024   7.778  14.899
66612W        W35006  10.369  18.183   3.251
66613W        W35007  21.684  42.408   2.617
66614W        W35008  37.026  18.836   3.987
66615W        W35009  10.236  38.446   2.218
66616W        W35010  31.794   0.112  13.876
66617W        W35011   2.907   1.402  11.617
66618W        W35012  29.951  33.543  10.938
66619W        W35013  35.004  19.630  13.081
66620W        W35014  11.188  25.204   1.394
66621W        W35015  14.335  32.484  12.084
66622W        W35016  29.814  40.528   3.819
66623W        W35017  15.831   4.378   1.291
66624W        W35018  27.092   0.916   1.844
66625W        W35019   3.131  16.229  12.869
66626W        W35020  29.463  12.351   3.241
66627W        W35021  18.151  14.387   4.567
66628W        W35022  40.714   2.457  10.774
66629W        W35023  18.221  28.080   2.579
66630W        W35024  30.477  24.680   0.813
66631W        W35025  16.133   1.220   4.413
66632W        W35026   8.774  22.119  11.158
66633W        W35027  15.151  21.460   0.676
66634W        W35028  17.721  27.083   2.701
66635W        W35029   0.855  39.071  11.668
66636W        W35030  18.276  32.248  11.571
66637W        W35031  11.190  42.901  12.375
66638W        W35032  32.704   2.014   4.747
66639W        W35033  44.279  24.094   2.755
66640W        W35034   5.103  41.444  11.571
66641W        W35035   5.823   2.625   9.780
66642W        W35036  25.744   3.064  12.865
66643W        W35037  30.714  25.807  11.443
66644W        W35038   6.588  27.334   4.568
66645W        W35039  31.613  15.593   4.514
66646W        W35040  38.967  15.838  12.361
66647W        W35041  44.791  33.437   0.903
66648W        W35042   8.489   8.787  14.565
66649W        W35043  29.746  25.582  11.608
66650W        W35044  18.476  22.866   2.550
66651W        W35045   0.059  29.744   2.343
66652W        W35046  22.964   9.420  12.863
66653W        W35047  36.450   2.024  10.469
66654W        W35048  24.429  44.422   5.444
66655W        W35049  38.514   1.797   1.404
66656W        W35050   8.913  17.724   1.249
66657W        W35051   0.827  10.414  14.727
66658W        W35052  27.179   4.340  14.453
66659W        W35053  28.073   4.520  11.621
66660W        W35054  32.078  11.354  10.821
66661W        W35055  10.720  17.598   1.846
66662W        W35056   8.684  38.289  11.162
66663W        W35057  15.012  12.019  11.132
66664W        W35058   1.211  12.793  13.194
66665W        W35059   4.687   3.781  11.079
66666W        W35060  23.481  13.211   0.194
66667W        W35061  33.482  17.173   4.536
66668W        W35062  13.258  26.160  12.569
66669W        W35063   3.423  23.919  12.816
66670W        W35064   7.891  38.580   1.185
66671W        W35065  11.285   1.161  11.178
66672W        W35066  22.784  44.797  12.309
66673W        W35067  22.463  24.110  12.989
66674W        W35068  28.641   9.258   4.770
66675W        W35069  23.151  10.083  13.590
66676W        W35070  34.885   8.738  13.105
66677W        W35071  41.458  42.342   4.260
66678W        W35072  19.267  34.460  13.985
66679W        W35073  25.249  29.004  12.869
66680W        W35074   7.187  11.329   2.255
66681W        W35075  35.829  30.380   1.249
66682W        W35076  35.839  20.310   3.652
66683W        W35077  14.575  40.067  13.408
66684W        W35078  36.466  14.604   1.775
66685W        W35079  31.654  18.609  11.971
66686W        W35080  15.937   6.366  11.665
66687W        W35081  10.576  42.913  12.023
66688W        W35082  16.927  23.126  12.802
66689W        W35083  42.994  42.076   0.931
66690W        W35084  43.917  17.028  13.316
66691W        W35085   0.177  30.165  13.399
66692W        W35086  33.608  17.530   1.325
66693W        W35087  43.854   7.135  11.583
66694W        W35088  30.018  15.337  11.590
66695W        W35089   5.252  44.256  13.575
66696W        W35090   1.664  32.423   4.307
66697W        W35091  42.974  39.703   1.272
66698W        W35092  20.545  17.492  14.940
66699W        W35093  27.436  24.517   0.652
66700W        W35094  25.188  30.526  11.097
66701W        W35095   3.905  41.078   0.506
66702W        W35096  40.214  32.806  11.883
66703W        W35097  20.388  25.959   2.264
66704W        W35098   0.168  34.438  11.760
66705W        W35099  26.435  28.942  13.510
66706W        W35100  33.411  35.990  12.021
66707W        W35101  15.125   0.522  13.465
66708W        W35102  39.047  32.080  10.633
66709W        W35103  36.984  24.956  14.445
66710W        W35104  42.285  32.463   2.358
66711W        W35105  18.005   7.633   2.797
66712W        W35106  28.023  37.579  14.279
66713W        W35107  10.386  17.590  13.793
66714W        W35108  27.899  29.047   1.498
66715W        W35109   6.882  25.249   2.704
66716W        W35110   2.526  17.815  12.869
66717W        W35111  29.988  33.301   0.289
66718W        W35112  15.151  29.636  11.303
66719W        W35113  27.404  31.488   4.631
66720W        W35114   4.035   5.460   4.884
66721W        W35115  16.833  26.673  10.687
66722W        W35116   2.188  15.856  11.193
66723W        W35117  21.559  39.590   0.506
66724W        W35118  12.308  28.589   3.711
66725W        W35119  38.023  22.525   2.890
66726W        W35120   5.386  13.201   1.958
66727W        W35121  24.137  32.192   2.719
66728W        W35122  34.590  39.784  11.165
66729W        W35123  29.111  37.819  14.674
66730W        W35124   8.881  28.399   4.264
66731W        W35125  40.851  17.393   4.049
66732W        W35126   4.652  39.084  14.808
66733W        W35127  22.680   5.128  13.472
66734W        W35128  31.589  16.357  12.841
66735W        W35129  31.561  19.267  12.697
66736W        W35130  22.703  43.702   2.288
66737W        W35131  42.355  20.945   4.300
66738W        W35132  24.022  23.631   2.745
66739W        W35133  33.016  39.223  11.664
66740W        W35134  38.304  22.469  12.510
66741W        W35135  21.509  25.900   4.673
66742W        W35136  39.151  20.217  14.766
66743W        W35137  13.711  34.944  13.643
66744W        W35138  31.597  14.861  13.039
66745W        W35139  32.301  13.496  11.201
66746W        W35140  19.585  32.833  14.393
66747W        W35141  42.516  16.111  14.153
66748W        W35142  31.383  12.621  11.546
66749W        W35143  13.087   0.413  12.197
66750W        W35144  11.410  25.761  14.362
66751W        W35145   7.782  42.086  12.004
66752W        W35146  30.678  10.261  13.095
66753W        W35147  28.443   7.763   4.245
66754W        W35148  31.258  19.952   2.686
66755W        W35149  26.593  22.368  10.693
66756W        W35150  21.816  30.688  12.513
66757W        W35151   2.348   4.794   2.367
66758W        W35152  10.317  39.820   1.912
66759W        W35153   8.829  27.460   0.409
66760W        W35154  12.135   2.478   2.614
66761W        W35155  21.196  31.216  10.980
66762W        W35156  43.736   9.874  10.491
66763W        W35157  12.373  43.506  12.920
66764W        W35158  37.112  21.594   4.767
66765W        W35159  40.917  26.833  14.933
66766W        W35160  26.638  41.841   1.799
66767W        W35161  26.267   9.557  10.145
66768W        W35162  39.898  23.984  11.618
66769W        W35163   5.095  28.612   3.810
66770W        W35164  38.459  39.189  11.269
66771W        W35165  12.303  37.111  13.472
66772W        W35166   6.407   4.990  14.032
66773W        W35167  11.770  21.576  13.307
66774W        W35168  25.589   5.795   4.074
66775W        W35169  19.596  37.358   1.324
66776W        W35170  38.091   0.906   2.188
66777W        W35171  44.746  25.008  12.079
66778W        W35172  10.615  32.509   2.087
66779W        W35173  37.494   8.266   2.272
66780W        W35174  35.363  19.547   1.196
66781W        W35175  22.435  21.534   2.398
66782W        W35176  10.695  42.571   4.857
66783W        W35177  17.609  18.919  13.407
66784W        W35178   2.232  35.016  13.524
66785W        W35179  41.249  20.481   0.399
66786W        W35180  16.584  30.496   3.684
66787W        W35181  41.903   8.540   3.290
66788W        W35182  21.232  28.339  11.593
66789W        W35183  37.441  29.973   4.692
66790W        W35184  20.279  15.770   0.950
66791W        W35185  44.406  21.535   3.797
66792W        W35186  37.028  40.746  14.818
66793W        W35187  38.039  35.022  11.546
66794W        W35188  25.777  28.902  13.053
66795W        W35189   3.646  41.336  13.803
66796W        W35190  42.749   0.393  10.450
66797W        W35191  21.244  35.146  11.132
66798W        W35192  26.108  21.011   1.300
66799W        W35193  41.846  12.732   3.752
66800W        W35194  28.527   5.238   2.194
66801W        W35195  40.503   6.226   2.352
66802W        W35196  13.309  22.525   4.559
66803W        W35197  38.112  23.623   1.456
66804W        W35198  11.077  42.553  14.764
66805W        W35199  15.358  32.182   1.431
66806W        W35200  41.264  16.673  11.604
66807W        W35201  29.715  22.986  12.945
66808W        W35202  13.865  33.453   0.426
66809W        W35203  29.690  20.739   0.669
66810W        W35204  19.564  40.353   3.705
66811W        W35205  18.167  24.852   2.251
66812W        W35206  28.646  20.329  11.633
66813W        W35207  15.573  18.474  12.467
66814W        W35208  25.624  44.260   1.285
66815W        W35209   1.457   5.346  11.878
66816W        W35210  10.609   1.364  11.012
66817W        W35211  43.605  36.309   1.116
66818W        W35212  13.647  29.673  11.221
66819W        W35213   4.391  29.398  12.466
66820W        W35214  19.225  26.382   4.022
66821W        W35215   2.970  30.523  10.073
66822W        W35216  25.520  29.954   3.591
66823W        W35217  42.784  27.128  13.054
66824W        W35218  13.908  10.186   4.095
66825W        W35219  20.003  35.477   0.036
66826W        W35220  24.568  15.147  12.892
66827W        W35221  31.242  24.803  10.980
66828W        W35222  42.047   5.724  11.005
66829W        W35223  16.111   4.969   2.294
66830W        W35224  25.675  23.082   3.223
66831W        W35225  17.726  39.763   9.969
66832W        W35226  38.326  31.653  13.113
66833W        W35227  16.594  16.465   1.724
66834W        W35228  25.220  21.224  13.352
66835W        W35229   9.018  29.063   2.089
66836W        W35230  16.285   5.170  12.414
66837W        W35231  40.025  26.539   1.216
66838W        W35232  10.024  11.486   3.741
66839W        W35233  16.180  44.955  11.233
66840W        W35234   5.730   8.186   2.683
66841W        W35235  33.212   5.248  13.562
66842W        W35236  18.763  28.507   4.308
66843W        W35237  37.136  27.288  10.758
66844W        W35238   2.435  38.070  13.973
66845W        W35239  13.003  11.593  10.710
66846W        W35240  28.556   0.748  11.834
66847W        W35241  13.014  22.231  14.892
66848W        W35242  31.934  37.914  14.907
66849W        W35243  36.159  33.084  12.686
66850W        W35244  29.647   2.890   1.722
66851W        W35245  44.984   2.358  11.915
66852W        W35246  28.637  40.261   4.664
66853W        W35247  19.813  27.291   3.124
66854W        W35248  27.546  15.789  10.927
66855W        W35249  34.566  26.186  12.904
66856W        W35250  44.495  33.186   4.614
66857W        W35251   4.929  39.134  13.072
66858W        W35252   0.316  10.497   2.860
66859W        W35253  37.346  27.439   2.379
66860W        W35254   3.995  27.801   0.258
66861W        W35255  10.248  32.057   9.694
66862W        W35256  38.813  13.500   0.004
66863W        W35257  25.566   2.673  11.286
66864W        W35258   7.314  42.772   4.966
66865W        W35259  41.517  28.991  12.522
66866W        W35260  43.747  13.780   1.852
66867W        W35261  42.953  10.582  13.889
66868W        W35262  27.605  21.164   1.775
66869W        W35263   7.872   9.620  13.755
66870W        W35264   5.898  12.457  13.764
66871W        W35265  36.423  39.613  14.376
66872W        W35266  14.290  35.206  11.316
66873W        W35267  25.209  35.253  11.097
66874W        W35268  27.949   6.972   3.230
66875W        W35269  29.738  24.655   0.289
66876W        W35270  32.065  26.918  12.434
66877W        W35271   1.779   6.502   1.106
66878W        W35272  29.030   1.982  13.084
66879W        W35273  36.429  42.272   3.849
66880W        W35274  21.229  24.228  13.561
66881W        W35275  35.396  25.650   4.223
66882W        W35276  30.832  15.612   1.388
66883W        W35277  18.847  44.708   3.713
66884W        W35278  13.130  41.608   1.916
66885W        W35279   1.715  14.236   4.644
66886W        W35280  35.802   3.478   0.926
66887W        W35281   3.299  40.433   2.478
66888W        W35282  10.155  10.171  12.909
66889W        W35283  19.599   8.143  14.104
66890W        W35284  31.919  37.944   1.760
66891W        W35285  29.897   0.859  14.774
66892W        W35286  25.767  38.449  14.558
66893W        W35287  13.069  14.298   2.862
66894W        W35288  18.852   4.778  11.549
66895W        W35289  31.783   9.876   1.358
66896W        W35290   4.483  23.665  14.848
66897W        W35291  44.329  24.604   2.061
66898W        W35292  32.055  40.757   4.134
66899W        W35293  29.150  44.021  13.126
66900W        W35294  39.013  25.758  13.893
66901W        W35295   1.408  39.537  11.546
66902W        W35296  39.018  29.638  11.473
66903W        W35297  39.794  41.480  14.232
66904W        W35298   9.665  14.125   1.366
66905W        W35299  30.071   9.062   1.422
66906W        W35300  22.863   8.311   1.207
66907W        W35301   4.237   0.460   3.620
66908W        W35302  32.642  10.608  14.731
66909W        W35303  13.428  26.257  13.067
66910W        W35304  21.933   4.885   3.884
66911W        W35305   3.007   8.386  13.289
66912W        W35306  24.387  22.240  13.792
66913W        W35307   7.307  13.644  14.439
66914W        W35308  29.564  18.064  10.243
66915W        W35309   6.279  12.800   2.340
66916W        W35310  23.237  22.049  12.517
66917W        W35311  15.020  19.541   2.625
66918W        W35312  15.225  19.474  10.934
66919W        W35313  41.516  44.541   4.281
66920W        W35314   8.172  38.889  11.601
66921W        W35315   9.977  18.655   3.142
66922W        W35316  22.212   5.724   4.075
66923W        W35317  44.463  20.369  10.733
66924W        W35318   6.470  17.056  14.897
66925W        W35319  39.442  25.444  14.692
66926W        W35320  35.565   3.833   2.765
66927W        W35321  10.218   2.181   3.653
66928W        W35322  32.542  19.814   0.066
66929W        W35323  16.803  37.699  10.732
66930W        W35324   8.605  43.208  14.891
66931W        W35325  42.872  36.637  12.106
66932W        W35326   7.130  18.171   2.835
66933W        W35327  20.219   8.385  13.460
66934W        W35328  36.764  10.331   2.460
66935W        W35329  37.610  16.761  10.720
66936W        W35330  33.495  37.750   2.114
66937W        W35331   1.907   0.459   1.101
66938W        W35332   9.671  25.490  11.575
66939W        W35333  26.926  39.388   0.726
66940W        W35334  37.888  43.252   0.659
66941W        W35335  27.448  40.513  14.464
66942W        W35336  24.197  38.050   1.747
66943W        W35337  21.435  19.088   3.693
66944W        W35338  14.133  27.676  11.061
66945W        W35339  42.524  29.685  10.552
66946W        W35340  17.891  36.881   5.529
66947W        W35341   3.446   5.601  10.540
66948W        W35342  16.414  17.005  11.661
66949W        W35343  29.046  14.124   2.582
66950W        W35344  41.491  29.038  14.767
66951W        W35345  41.976  34.635   2.331
66952W        W35346  29.701   6.179   1.841
66953W        W35347  24.639   2.013   3.685
66954W        W35348  34.919  38.034  14.777
66955W        W35349  19.912  17.241   4.056
66956W        W35350  38.857  16.390  14.927
66957W        W35351  23.305  25.932   0.677
66958W        W35352   6.898  34.111   4.018
66959W        W35353  15.285  17.544   3.164
66960W        W35354  38.965  30.498  12.017
66961W        W35355  19.311  28.062   1.298
66962W        W35356  21.581   0.229  13.423
66963W        W35357   5.713   2.984   3.318
66964W        W35358  38.806   7.739  14.877
66965W        W35359   1.244  12.836   0.648
66966W        W35360  17.837   9.677   2.455
66967W        W35361  38.020  32.907   4.755
66968W        W35362  41.054  20.187   3.158
66969W        W35363  14.771  29.405  14.896
66970W        W35364   2.705  39.323  13.391
66971W        W35365  32.985  40.291   2.917
66972W        W35366  15.704  37.795   3.301
66973W        W35367   1.932   9.535  13.905
66974W        W35368  41.320  13.970  12.166
66975W        W35369  37.954  17.627   2.576
66976W        W35370   1.833  26.545   0.011
66977W        W35371  25.777  35.543   1.451
66978W        W35372  26.589  37.551   0.470
66979W        W35373  22.367  33.059  13.056
66980W        W35374  21.013  10.267  14.458
66981W        W35375  32.972  34.890  13.945
66982W        W35376   1.397  39.952  14.545
66983W        W35377  10.756  29.375  13.506
66984W        W35378  21.290   8.845  11.953
66985W        W35379  14.036  10.914   3.750
66986W        W35380   9.319  26.979  11.063
66987W        W35381  32.505  43.934  14.125
66988W        W35382  16.609  20.605   3.175
66989W        W35383  19.679  29.655  10.225
66990W        W35384  35.572  16.486   4.225
66991W        W35385  36.351  13.404  13.358
66992W        W35386  27.339  38.904  10.995
66993W        W35387  10.154   7.687   2.639
66994W        W35388   2.491   5.696   2.931
66995W        W35389  26.665   7.454   3.047
66996W        W35390  17.019  33.594  11.130
66997W        W35391   2.011  37.103   1.245
66998W        W35392   1.757   7.792   4.528
66999W        W35393   4.962  25.180  12.842
67000W        W35394  34.533  43.042  12.948
67001W        W35395  32.895   3.589  12.078
67002W        W35396  12.159  28.939   1.832
67003W        W35397  25.037  28.237   1.221
67004W        W35398   4.880  17.037   2.806
67005W        W35399  31.253  30.190   2.403
67006W        W35400  25.269  19.991  13.017
67007W        W35401  42.825  12.264   1.311
67008W        W35402  40.745  21.266  11.515
67009W        W35403  38.829  19.201   1.778
67010W        W35404  39.368  36.447  13.884
67011W        W35405  15.013   4.137   0.362
67012W        W35406  25.723  33.078  11.394
67013W        W35407  14.185   9.908   3.666
67014W        W35408   4.977  21.799   2.678
67015W        W35409  15.707  40.783   2.846
67016W        W35410  22.259  21.115  10.885
67017W        W35411  38.842   6.792  13.277
67018W        W35412  15.657  38.809   2.991
67019W        W35413  19.848   7.305  14.269
67020W        W35414  23.025  32.948  12.355
67021W        W35415   9.726  24.542   1.167
67022W        W35416  41.959  20.660   2.192
67023W        W35417  22.797  19.612   1.752
67024W        W35418  37.670  33.489  14.148
67025W        W35419   1.504  31.502   2.909
67026W        W35420   7.377  28.167  12.591
67027W        W35421  11.794  23.754  11.623
67028W        W35422  43.382  44.699   3.055
67029W        W35423  24.393  25.710  14.843
67030W        W35424  43.926  35.508  10.536
67031W        W35425   1.716   6.390  10.570
67032W        W35426  32.079  23.052  10.939
67033W        W35427   5.191  38.505  13.995
67034W        W35428  24.160  37.740   4.614
67035W        W35429  17.817  13.230   1.387
67036W        W35430  19.811  43.479  11.979
67037W        W35431   1.997  27.060   4.218
67038W        W35432  37.486  24.073  11.381
67039W        W35433  24.911  26.191   4.575
67040W        W35434  36.893  22.415  11.127
67041W        W35435  39.149  15.671  10.050
67042W        W35436  33.656  22.201  10.639
67043W        W35437  18.121  22.187  11.926
67044W        W35438  25.575  22.791  10.663
67045W        W35439  25.700  38.681  13.823
67046W        W35440  41.847   0.758   4.552
67047W        W35441  12.671  18.539  11.895
67048W        W35442   1.184  43.409  13.239
67049W        W35443  15.114  44.405  12.416
67050W        W35444  25.126   9.218  14.736
67051W        W35445   3.988  33.157  13.983
67052W        W35446  12.258   6.067   1.753
67053W        W35447  37.542  24.128  11.882
67054W        W35448  10.700  16.101  12.954
67055W        W35449  13.628  14.598   2.939
67056W        W35450   4.438  39.917   4.159
67057W        W35451  20.820  27.154  13.024
67058W        W35452  37.006  42.785   3.214
67059W        W35453  10.185   9.891   4.755
67060W        W35454  23.606  27.425   1.439
67061W        W35455  15.556  12.715  14.979
67062W        W35456   1.545   5.376   2.122
67063W        W35457  33.430  16.433   0.009
67064W        W35458  37.115  31.155  12.713
67065W        W35459  24.572   8.385   0.546
67066W        W35460   1.757  20.976  14.828
67067W        W35461  14.480  28.685   4.016
67068W        W35462  32.110  21.550   1.005
67069W        W35463   5.403  15.911  13.014
67070W        W35464  21.618  14.027   4.595
67071W        W35465   3.738  19.173  11.640
67072W        W35466  32.738  32.189   2.392
67073W        W35467  20.201  21.727   2.724
67074W        W35468  12.746  22.594   0.977
67075W        W35469   5.150  19.608   9.999
67076W        W35470   7.208  34.815  10.497
67077W        W35471  16.736  30.687  13.728
67078W        W35472  22.812  38.932   1.678
67079W        W35473  30.872  15.064   1.769
67080W        W35474  17.938   8.733  10.721
67081W        W35475  17.622  21.159   3.634
67082W        W35476   2.968  12.561  11.931
67083W        W35477  40.733  24.567   4.103
67084W        W35478  24.582  44.165   3.227
67085W        W35479  34.251  26.655  14.940
67086W        W35480  11.881  17.520  12.173
67087W        W35481  19.126  35.647  11.029
67088W        W35482   3.936  44.380  10.229
67089W        W35483  21.125   9.711   4.092
67090W        W35484   0.498  31.011   4.104
67091W        W35485   3.978  36.568   0.147
67092W        W35486  30.830  29.420   4.307
67093W        W35487  31.484  23.202  12.645
67094W        W35488  25.541  22.163  11.460
67095W        W35489  12.596  31.107  11.014
67096W        W35490  11.011  40.767   3.245
67097W        W35491  31.465  35.855   0.983
67098W        W35492   8.178  35.079  14.194
67099W        W35493  37.400  38.464  12.512
67100W        W35494  16.535   2.688  14.932
67101W        W35495  27.128   4.400   2.241
67102W        W35496   9.886  11.291   0.889
67103W        W35497  31.673  12.795  12.099
67104W        W35498   9.630   9.514   4.164
67105W        W35499  28.693  26.656   3.702
67106W        W35500   1.708  16.068   2.901
67107W        W35501   1.681  41.516  12.059
67108W        W35502   4.888   3.285   0.256
67109W        W35503  39.301  15.690   1.889
67110W        W35504   5.449  37.310   2.856
67111W        W35505   3.234  15.772  12.141
67112W        W35506  44.735  19.497  14.239
67113W        W35507  40.356  33.533  14.583
67114W        W35508  41.855  30.333  11.358
67115W        W35509  18.875  28.061  14.885
67116W        W35510  21.165  10.990   0.274
67117W        W35511   4.789  37.562  12.145
67118W        W35512  14.050  34.330  14.418
67119W        W35513  26.428  21.021   4.514
67120W        W35514   5.941  20.028  11.125
67121W        W35515  14.130  10.262   4.566
67122W        W35516   5.870   5.575   1.392
67123W        W35517  13.275  43.695  13.333
67124W        W35518  20.502  35.606  13.742
67125W        W35519   8.507   3.108  13.545
67126W        W35520  30.033  12.822  14.979
67127W        W35521  22.799  41.494   2.365
67128W        W35522  26.153  44.886  14.634
67129W        W35523  34.432   0.469  12.497
67130W        W35524   1.824  25.060  10.759
67131W        W35525   2.462  23.588   3.231
67132W        W35526  21.458  36.412  12.357
67133W        W35527  43.388   2.458  12.597
67134W        W35528  21.507  22.816   1.491
67135W        W35529   0.889  29.989  10.966
67136W        W35530  35.597  39.966   4.234
67137W        W35531  11.144   7.611  13.092
67138W        W35532  16.325  18.625   3.078
67139W        W35533  35.023  39.844   0.490
67140W        W35534  27.531  41.245  11.496
67141W        W35535  19.632  39.785  11.566
67142W        W35536  29.593   2.907   3.917
67143W        W35537  10.802  18.337   4.439
67144W        W35538  25.706  15.842  13.491
67145W        W35539  27.467  21.702  12.270
67146W        W35540  42.862  32.349   0.427
67147W        W35541   6.231   0.827   1.775
67148W        W35542  32.992   1.207  12.891
67149W        W35543   7.170  20.521   2.146
67150W        W35544   4.387  31.482  14.355
67151W        W35545   6.946   1.313  12.254
67152W        W35546  16.999  12.138  14.794
67153W        W35547  13.731  35.096   3.618
67154W        W35548  14.370  15.163  13.797
67155W        W35549   9.710   4.396   4.754
67156W        W35550  26.069  14.261  11.218
67157W        W35551  25.884  34.244   4.522
67158W        W35552   4.146  23.566   0.891
67159W        W35553  10.759  28.477  13.705
67160W        W35554  39.372   6.669   0.432
67161W        W35555  10.743  13.206   1.217
67162W        W35556   4.819  24.629   3.594
67163W        W35557  25.538  38.198  13.843
67164W        W35558  13.337   7.441   4.422
67165W        W35559  36.620   0.216  13.055
67166W        W35560  20.446  16.225   1.491
67167W        W35561  19.219  43.054   4.080
67168W        W35562   4.703  10.257  11.039
67169W        W35563  27.172  41.104   3.739
67170W        W35564  26.257  18.086   3.306
67171W        W35565  22.133  30.248   1.226
67172W        W35566  15.606   9.279   1.268
67173W        W35567  32.534  44.656   0.885
67174W        W35568  31.248  43.951  12.981
67175W        W35569  38.766  32.959  14.984
67176W        W35570  12.842  20.667  11.482
67177W        W35571  40.499  22.162   2.840
67178W        W35572  40.937   1.706  10.897
67179W        W35573   0.440  25.562   2.314
67180W        W35574  19.370  43.812  12.840
67181W        W35575  37.968  36.519   3.743
67182W        W35576  26.651   5.989  10.282
67183W        W35577  44.415  33.110  14.460
67184W        W35578  12.341   9.699   1.289
67185W        W35579  15.298  43.306   1.283
67186W        W35580  24.135  41.108   0.278
67187W        W35581  35.591  15.618  11.275
67188W        W35582  44.198  43.934   1.480
67189W        W35583  44.098  28.567  14.364
67190W        W35584   5.720  18.734  11.471
67191W        W35585  11.297  13.237   0.358
67192W        W35586   7.236   0.222  14.904
67193W        W35587  43.893   2.437   3.572
67194W        W35588  31.282   8.856  10.837
67195W        W35589  19.293   6.215  14.035
67196W        W35590   2.429   2.803   4.671
67197W        W35591  41.058  32.691   0.005
67198W        W35592  41.990  41.023  12.560
67199W        W35593  44.411  15.087  10.746
67200W        W35594  17.632   6.584   0.090
67201W        W35595  12.569  22.432  14.670
67202W        W35596  13.100   9.906   2.381
67203W        W35597  16.552  12.772   2.746
67204W        W35598  11.820  38.942   2.393
67205W        W35599  37.296   3.009   2.722
67206W        W35600  25.026  21.187  14.354
67207W        W35601  31.782  13.588  14.804
67208W        W35602  22.686  31.920   4.484
67209W        W35603  38.562  19.542   4.611
67210W        W35604   8.315  30.647  12.645
67211W        W35605   3.877  28.590  13.784
67212W        W35606  15.521  35.148   1.282
67213W        W35607  22.515  15.756   0.869
67214W        W35608  30.190   2.429   1.087
67215W        W35609   1.478   4.927  12.172
67216W        W35610  40.498  31.665   1.648
67217W        W35611  13.706  16.241   4.604
67218W        W35612  36.896  24.797  11.633
67219W        W35613   9.260  40.799  14.023
67220W        W35614  22.619  14.260  11.655
67221W        W35615  25.737  12.463  12.031
67222W        W35616  13.977  30.986  11.505
67223W        W35617  33.089  32.072  13.044
67224W        W35618  40.982  32.619   2.126
67225W        W35619   2.107   1.414  14.296
67226W        W35620  11.051  20.986   4.432
67227W        W35621  24.638   7.858  14.965
67228W        W35622  17.286  42.005  12.541
67229W        W35623  43.324  28.567  11.474
67230W        W35624  28.457   8.743   1.442
67231W        W35625  29.039  10.561   3.684
67232W        W35626  14.587  36.144  13.803
67233W        W35627  39.387  33.685  14.250
67234W        W35628  17.281  29.237   1.915
67235W        W35629  24.302  33.125  13.183
67236W        W35630  17.721  44.562  12.063
67237W        W35631  24.263  31.068  11.594
67238W        W35632  20.493  17.268  10.661
67239W        W35633  16.792  10.621  12.423
67240W        W35634  28.711  11.211   2.393
67241W        W35635   8.564   5.230   0.059
67242W        W35636   7.930  39.373  10.721
67243W        W35637  14.890  10.121   2.187
67244W        W35638  30.092  34.113   0.380
67245W        W35639  12.610  37.359   0.763
67246W        W35640  41.309   1.694   2.753
67247W        W35641  19.002  39.953  12.416
67248W        W35642  20.057  11.873  14.277
67249W        W35643   4.562  19.550   3.738
67250W        W35644  40.849   8.803  12.437
67251W        W35645  40.564   6.675  10.951
67252W        W35646   0.272  23.340   4.557
67253W        W35647   1.680   0.285  13.483
67254W        W35648   3.267  26.551  12.154
67255W        W35649   6.764  38.365  13.993
67256W        W35650  34.286  35.254   3.439
67257W        W35651  12.581   7.787   0.769
67258W        W35652  27.637  37.710  14.916
67259W        W35653   3.264   8.925   0.560
67260W        W35654   2.957  28.294  13.045
67261W        W35655  11.067  36.096   0.806
67262W        W35656   2.878   4.837  11.541
67263W        W35657  11.431  33.976   0.940
67264W        W35658  27.584   3.246   5.182
67265W        W35659  41.961   3.933  10.370
67266W        W35660  38.575  17.675  12.845
67267W        W35661  23.562   7.928  10.581
67268W        W35662  36.431  11.085   0.278
67269W        W35663  33.575  23.224  11.320
67270W        W35664  35.697  24.149  11.553
67271W        W35665  38.525  28.580   4.610
67272W        W35666  25.941  37.271   4.366
67273W        W35667  11.818  40.750   2.646
67274W        W35668  28.622  21.275  14.370
67275W        W35669  13.980  44.413  12.967
67276W        W35670  36.915   2.429   4.918
67277W        W35671  41.287  32.681  11.546
67278W        W35672  24.634   8.421   1.916
67279W        W35673   1.498  25.279   4.145
67280W        W35674  39.956  39.866  10.596
67281W        W35675  34.783  35.247  12.599
67282W        W35676  28.829  14.208  13.965
67283W        W35677   7.571  43.312   3.997
67284W        W35678   9.681  15.092  12.034
67285W        W35679  35.306  20.734   2.459
67286W        W35680  22.073  32.857   3.870
67287W        W35681   7.036  17.923  11.971
67288W        W35682   6.919   4.187   3.716
67289W        W35683   7.841  19.268  13.542
67290W        W35684   3.229  35.966  12.977
67291W        W35685  22.761  12.124   0.683
67292W        W35686  32.935  40.068   0.765
67293W        W35687  39.545  29.366  13.427
67294W        W35688  16.213   4.802   3.330
67295W        W35689  35.147  43.055  11.142
67296W        W35690  16.243  37.296   1.774
67297W        W35691  28.293  23.564  14.285
67298W        W35692  30.934   6.229  11.110
67299W        W35693  15.368   8.941   2.731
67300W        W35694   9.527  43.980   4.115
67301W        W35695   2.875  11.386  13.525
67302W        W35696  23.579  41.790  13.072
67303W        W35697  42.356  20.801  11.133
67304W        W35698   0.815  44.047  10.734
67305W        W35699  37.472  32.691   2.672
67306W        W35700  14.623  28.645  11.950
67307W        W35701  42.201  21.167   2.200
67308W        W35702  28.735  18.664  12.083
67309W        W35703  28.164  39.256   2.926
67310W        W35704  25.654  30.120  13.546
67311W        W35705  27.745  37.416  13.885
67312W        W35706  15.186  33.474   1.661
67313W        W35707   4.833  31.194  10.741
67314W        W35708  28.258  22.798   5.058
67315W        W35709  19.760  36.853   3.659
67316W        W35710   4.679   0.695   3.774
67317W        W35711   6.955  43.346  11.953
67318W        W35712  20.737   1.650  12.903
67319W        W35713  12.826   3.160   0.336
67320W        W35714  32.285  28.102  13.334
67321W        W35715  36.039  12.760   2.116
67322W        W35716   5.928  44.715  14.376
67323W        W35717  12.382  25.703  13.422
67324W        W35718   1.720  39.412  14.836
67325W        W35719  11.901  29.682  11.725
67326W        W35720  16.231   8.763  12.412
67327W        W35721  14.651  12.683   2.684
67328W        W35722  25.984  34.719  13.112
67329W        W35723  15.458  28.145   1.184
67330W        W35724  43.495  31.166  12.655
67331W        W35725  20.179   6.252   3.300
67332W        W35726  25.381   0.393   4.239
67333W        W35727  28.667  12.087   2.785
67334W        W35728   9.226  19.486  11.154
67335W        W35729  36.623   2.711   3.974
67336W        W35730  27.511  10.668  10.640
67337W        W35731  33.773   2.636  13.628
67338W        W35732  20.702  27.506   0.745
67339W        W35733  33.259  39.913   3.352
67340W        W35734  15.984   9.364   4.997
67341W        W35735  23.512  16.691   1.651
67342W        W35736  25.569  29.161   0.363
67343W        W35737  32.986   5.324  12.614
67344W        W35738  26.224  13.834   0.990
67345W        W35739   7.699  37.869   2.883
67346W        W35740  34.385  13.213  14.781
67347W        W35741  29.130  23.531  10.920
67348W        W35742  27.750  43.326  11.543
67349W        W35743  19.967  10.157   4.630
67350W        W35744  34.165   7.194   0.341
67351W        W35745  35.482  35.369  13.456
67352W        W35746  17.807  14.042   2.183
67353W        W35747  14.078  13.250  11.843
67354W        W35748   3.463   3.840   0.394
67355W        W35749  38.802   6.214   1.748
67356W        W35750  36.148   6.881   1.109
67357W        W35751   3.928  38.476  11.637
67358W        W35752  18.456  40.327  11.451
67359W        W35753  22.205  18.596  13.876
67360W        W35754  37.868  43.680   2.767
67361W        W35755  37.106   3.244  13.494
67362W        W35756  25.019  20.672  13.337
67363W        W35757  33.635  29.542   2.140
67364W        W35758  36.472   2.734   1.240
67365W        W35759   7.949  30.603   4.445
67366W        W35760  20.191  14.933  11.693
67367W        W35761   8.414  17.299  13.782
67368W        W35762  35.814  34.019  11.673
67369W        W35763  37.884  25.676  11.942
67370W        W35764  22.119  31.714   1.900
67371W        W35765  10.178  21.818  11.105
67372W        W35766  44.372  24.239   1.685
67373W        W35767  13.829  35.457  14.912
67374W        W35768  30.088  43.775   4.970
67375W        W35769  21.759  33.349   0.035
67376W        W35770  24.101   6.169  11.886
67377W        W35771  18.608  29.226  14.483
67378W        W35772  18.205  27.583  14.302
67379W        W35773  42.332  17.280  11.139
67380W        W35774  14.153  19.285   1.210
67381W        W35775  30.761  32.510   3.186
67382W        W35776  12.369  26.989   0.387
67383W        W35777  30.169  29.751   4.821
67384W        W35778  33.663  17.228  10.785
67385W        W35779  40.865  10.981  14.856
67386W        W35780  40.536  34.432  13.600
67387W        W35781   5.290   2.353  12.593
67388W        W35782  25.945   8.611   1.764
67389W        W35783  35.610  22.162  14.586
67390W        W35784   3.487  41.866   4.765
67391W        W35785   1.736  40.665   3.219
67392W        W35786  22.468  34.169   3.685
67393W        W35787  13.168  17.351  11.630
67394W        W35788  21.104  36.547   4.185
67395W        W35789  38.526  28.925  13.712
67396W        W35790  29.558   1.477   0.870
67397W        W35791   6.233   6.131  11.000
67398W        W35792  28.063  18.444  11.000
67399W        W35793  21.548  33.336  12.001
67400W        W35794  23.508  42.386  13.037
67401W        W35795  25.518   2.719   0.134
67402W        W35796  28.486  27.218  13.532
67403W        W35797  23.969   5.446   4.551
67404W        W35798  37.411  27.584  11.581
67405W        W35799   3.495  17.066  13.305
67406W        W35800  22.463  43.576  12.839
67407W        W35801  36.019  22.014  14.999
67408W        W35802  26.301   3.322  13.011
67409W        W35803  28.390  21.984  13.351
67410W        W35804  22.277  30.362   2.268
67411W        W35805  11.696   4.824   4.132
67412W        W35806  15.275  29.297   3.254
67413W        W35807  29.715   5.823  13.796
67414W        W35808  21.552  37.203  12.106
67415W        W35809  33.663  43.418   2.178
67416W        W35810  40.754   0.011  12.018
67417W        W35811  44.703  29.710   1.392
67418W        W35812  35.626   5.831   3.161
67419W        W35813  35.588  42.279   1.371
67420W        W35814  20.102  14.996  12.936
67421W        W35815  14.355  29.963   3.741
67422W        W35816  15.222   5.748   4.168
67423W        W35817  14.465   2.975   2.127
67424W        W35818  16.772   7.446   5.005
67425W        W35819   0.778  29.357   0.403
67426W        W35820  39.120  13.737   3.834
67427W        W35821  15.343  20.847  14.401
67428W        W35822  11.471  31.444   1.704
67429W        W35823   6.985  17.219  12.576
67430W        W35824  31.656  23.108  11.253
67431W        W35825  31.674  11.787  12.416
67432W        W35826  15.649  38.551   1.414
67433W        W35827  41.717  34.190   3.206
67434W        W35828  15.557  36.672   2.171
67435W        W35829  14.564  20.091  11.220
67436W        W35830  34.729  44.314   1.489
67437W        W35831   5.467  28.939  12.504
67438W        W35832  11.105  12.187  14.919
67439W        W35833  15.796  38.897  13.574
67440W        W35834  26.102  11.613  13.083
67441W        W35835  15.814  10.834  14.634
67442W        W35836  25.679  36.316   2.806
67443W        W35837   0.203   3.949  11.632
67444W        W35838   6.376  27.359  11.095
67445W        W35839  39.557  39.037   4.733
67446W        W35840  30.272  37.502   3.201
67447W        W35841  36.340  35.978   3.945
67448W        W35842  29.610  24.230  11.237
67449W        W35843   8.410  16.746  14.291
67450W        W35844  16.048  42.849  11.140
67451W        W35845  19.250  34.212   2.697
67452W        W35846  40.795  13.196  13.833
67453W        W35847  34.956  20.605  10.762
67454W        W35848  34.020  39.943  12.323
67455W        W35849  35.334  43.795  12.160
67456W        W35850  11.629   7.090   4.417
67457W        W35851  15.622  33.213  12.404
67458W        W35852  36.381  42.170   0.622
67459W        W35853  20.794  27.424  14.783
67460W        W35854   9.651  19.582  13.109
67461W        W35855  39.131   1.379  10.654
67462W        W35856  19.139  15.874   2.305
67463W        W35857  38.945   6.672   4.541
67464W        W35858   0.240   4.273   4.261
67465W        W35859  43.868  35.759  13.868
67466W        W35860  12.612  29.287   0.432
67467W        W35861   3.806  35.414   0.866
67468W        W35862  31.963  15.699  13.817
67469W        W35863  24.448  32.847  12.791
67470W        W35864  19.983  10.204   1.010
67471W        W35865  17.711  15.075  14.977
67472W        W35866   2.007   5.714   1.438
67473W        W35867  44.692  29.903   3.637
67474W        W35868  33.426   9.091   4.097
67475W        W35869   5.975  18.453   4.413
67476W        W35870  12.899  10.437   4.798
67477W        W35871   0.350  17.614  13.286
67478W        W35872   0.009   8.278  13.860
67479W        W35873  42.904   3.267  11.117
67480W        W35874  21.812   7.346   3.252
67481W        W35875  30.015  17.604  14.815
67482W        W35876   2.782   3.331  13.964
67483W        W35877   4.840  12.513   4.638
67484W        W35878  28.727  32.808   3.699
67485W        W35879  27.052   8.668  12.949
67486W        W35880   9.790  37.389   3.895
67487W        W35881  21.352  10.924   1.662
67488W        W35882   9.361   2.386  12.819
67489W        W35883  33.216   6.951   1.304
67490W        W35884  13.089  10.129   1.809
67491W        W35885   7.438  38.361   3.620
67492W        W35886  13.177  32.516   2.418
67493W        W35887  26.955   0.056   4.900
67494W        W35888  23.320  35.895   4.186
67495W        W35889   3.194  21.176   4.595
67496W        W35890  12.092  41.394  13.640
67497W        W35891   9.893   7.428  11.250
67498W        W35892  31.655  34.519   0.698
67499W        W35893  23.587  19.569  10.772
67500W        W35894   9.352  25.103   4.521
67501W        W35895  16.054  39.656   4.357
67502W        W35896   3.399  32.374   4.675
67503W        W35897  18.181  37.053   2.604
67504W        W35898  28.488  37.173   2.234
67505W        W35899  36.375  19.269  10.766
67506W        W35900  12.203   8.762  14.332
67507W        W35901  14.067  20.250   0.975
67508W        W35902   0.758  44.824   3.854
67509W        W35903  11.099  32.631  12.436
67510W        W35904  11.142  38.542   4.645
67511W        W35905  36.525   8.681   4.906
67512W        W35906  42.904  44.018   3.868
67513W        W35907  17.842  13.418   3.145
67514W        W35908  25.608  20.025   0.088
67515W        W35909  39.313  27.396   4.029
67516W        W35910  18.473  21.518   0.421
67517W        W35911  32.633   8.054   1.780
67518W        W35912   1.314  14.259   5.478
67519W        W35913  21.572   4.694   1.697
67520W        W35914  19.135   7.765  10.619
67521W        W35915  38.122  24.862  10.744
67522W        W35916  32.583  44.460   0.398
67523W        W35917  27.948  22.051  10.680
67524W        W35918  30.146  10.182  12.264
67525W        W35919  36.441   2.570  14.535
67526W        W35920   1.130  43.735   3.061
67527W        W35921  32.226  29.065  10.343
67528W        W35922  13.770  30.695   4.683
67529W        W35923   8.860  21.450   1.440
67530W        W35924  15.691  22.822   3.602
67531W        W35925  34.412  12.513  13.636
67532W        W35926  23.122  18.214  14.329
67533W        W35927   3.667  22.496   1.393
67534W        W35928  43.538   1.777  12.392
67535W        W35929  43.637  18.153  14.009
67536W        W35930  23.635  13.680  12.976
67537W        W35931  15.881  19.710  13.562
67538W        W35932  24.126  15.810  13.637
67539W        W35933   7.037  41.245  11.160
67540W        W35934  43.271  13.105   0.861
67541W        W35935   2.953   8.907  13.320
67542W        W35936  21.664  24.395   4.533
67543W        W35937  16.919   4.321   1.449
67544W        W35938  43.792  28.673  14.753
67545W        W35939  17.867  23.300   0.752
67546W        W35940   3.854   3.837  11.229
67547W        W35941  25.939  39.159   0.875
67548W        W35942  27.328  16.666  10.732
67549W        W35943  13.875  24.738   0.864
67550W        W35944  34.563  15.834  12.576
67551W        W35945  20.226  42.010   3.249
67552W        W35946  13.679   5.194  13.724
67553W        W35947  14.446  42.936   0.579
67554W        W35948  39.964  33.043  14.362
67555W        W35949  39.006  33.514   1.861
67556W        W35950  24.539  11.234  11.650
67557W        W35951  23.297  17.520  13.011
67558W        W35952  22.043  20.989   4.702
67559W        W35953  14.603  22.994  13.079
67560W        W35954  11.229   0.980  14.284
67561W        W35955  41.518  26.203   3.642
67562W        W35956   4.155  21.070  13.420
67563W        W35957  32.826  15.667  13.092
67564W        W35958  41.417   9.696  13.866
67565W        W35959  38.456  18.585  10.602
67566W        W35960  25.941   5.439   3.749
67567W        W35961  19.230  33.610   4.335
67568W        W35962  44.600  31.686  11.703
67569W        W35963   0.998  40.558  12.854
67570W        W35964  32.408   6.665   1.152
67571W        W35965  11.674  36.111  11.581
67572W        W35966  19.543   1.798   3.242
67573W        W35967  38.899  39.824   1.841
67574W        W35968  43.457  43.882   0.728
67575W        W35969  10.095  30.472  14.435
67576W        W35970  34.976  29.135  13.334
67577W        W35971  20.859  21.579  13.627
67578W        W35972   6.916   3.907  13.750
67579W        W35973  15.622  43.715   1.378
67580W        W35974  11.608  13.098  12.046
67581W        W35975  43.818   7.678  11.599
67582W        W35976  42.833  43.517  12.383
67583W        W35977  30.173  38.663   0.015
67584W        W35978  35.336  39.681   3.878
67585W        W35979  11.527  11.828   4.196
67586W        W35980  12.616   1.864  14.270
67587W        W35981  29.431  18.722  13.066
67588W        W35982  32.953  40.975   4.652
67589W        W35983  21.974  35.881  12.722
67590W        W35984  21.155   3.006   0.144
67591W        W35985   8.182  17.514   2.371
67592W        W35986  11.672  43.536  11.430
67593W        W35987   2.001  42.854  11.575
67594W        W35988  14.322  27.253   1.375
67595W        W35989  30.250  18.186  11.011
67596W        W35990  23.793  15.049  12.625
67597W        W35991   6.729   6.399  12.869
67598W        W35992  17.742  25.899   5.006
67599W        W35993  20.464  14.778  12.435
67600W        W35994  44.384  18.588   2.924
67601W        W35995  37.498   2.386  14.681
67602W        W35996  44.727  34.563  12.440
67603W        W35997  43.761  38.952  14.385
67604W        W35998  38.011   2.215  11.434
67605W        W35999  16.627  22.029   3.302
67606W        W36000  19.032   1.214   0.251
67607W        W36001   9.820  42.421  14.310
67608W        W36002  32.573  32.003   1.364
67609W        W36003  14.821  36.363   3.837
67610W        W36004  10.334  21.204   2.620
67611W        W36005  17.951  28.575   4.921
67612W        W36006  21.502  15.832   0.760
67613W        W36007  13.873  41.898   3.142
67614W        W36008  38.020  11.108  10.970
67615W        W36009   7.729  19.044   1.824
67616W        W36010  35.408  27.252  14.506
67617W        W36011   7.307   0.756  14.852
67618W        W36012  25.261  17.328   2.403
67619W        W36013  22.122   9.719   1.693
67620W        W36014  37.408  33.128  12.075
67621W        W36015  32.605  14.818  14.412
67622W        W36016  21.992  16.747   1.879
67623W        W36017   8.394  20.958  11.680
67624W        W36018  27.990  23.028   2.627
67625W        W36019  35.581  11.700  14.858
67626W        W36020   9.474  37.153  11.592
67627W        W36021  34.521  18.965  12.050
67628W        W36022  33.943  29.758  11.372
67629W        W36023  29.021  21.499  13.972
67630W        W36024   9.525  14.208   4.237
67631W        W36025  15.057  35.587   1.918
67632W        W36026  17.641  27.737   2.007
67633W        W36027  30.738  37.332   1.411
67634W        W36028   8.376  44.572  11.176
67635W        W36029   2.829  33.667   4.302
67636W        W36030  18.051  27.084   0.976
67637W        W36031  10.749   4.402  12.642
67638W        W36032  42.077  35.938   0.779
67639W        W36033   8.404  26.758  12.948
67640W        W36034  12.190  18.178   4.236
67641W        W36035  34.515  37.683  14.804
67642W        W36036  36.027  41.499   2.568
67643W        W36037  19.861  26.954   0.822
67644W        W36038   4.974  29.759  10.757
67645W        W36039  42.823   1.685  13.435
67646W        W36040  38.453  32.794   5.030
67647W        W36041  34.772  26.859   2.676
67648W        W36042  18.779  26.156  11.151
67649W        W36043  43.499  29.873  13.007
67650W        W36044   6.107  22.507  14.919
67651W        W36045  23.588  32.187   2.661
67652W        W36046  32.089  14.951   1.285
67653W        W36047  44.382  32.329  14.359
67654W        W36048  19.044  22.138  13.609
67655W        W36049  42.136   2.374  14.640
67656W        W36050  38.919  44.001  13.843
67657W        W36051  14.716  42.926  12.351
67658W        W36052  34.421  27.586   1.898
67659W        W36053  18.768  25.218   0.530
67660W        W36054   2.326  16.306   4.274
67661W        W36055  33.183  14.336   3.114
67662W        W36056  11.235  21.509   0.673
67663W        W36057   7.780  31.469   4.507
67664W        W36058  35.830   4.365  14.827
67665W        W36059   2.402  30.598  13.962
67666W        W36060  30.002  27.163   0.879
67667W        W36061   1.482  35.533  11.982
67668W        W36062   4.874  16.755   4.861
67669W        W36063   1.021  42.338  10.616
67670W        W36064  16.293  17.290   1.905
67671W        W36065  20.075  22.578  14.373
67672W        W36066  42.751  40.404   0.253
67673W        W36067  22.047  16.192  14.850
67674W        W36068  21.026  19.699  13.782
67675W        W36069   0.305  20.099  14.437
67676W        W36070  24.132   0.733  11.706
67677W        W36071   7.644  18.553   1.932
67678W        W36072  33.637  44.538   1.889
67679W        W36073   9.787   9.645   3.623
67680W        W36074  30.288  26.605   1.413
67681W        W36075  23.428  43.469   5.062
67682W        W36076  20.234  38.254   5.445
67683W        W36077  30.347   2.099  12.386
67684W        W36078  11.849   3.442   4.642
67685W        W36079  10.419   0.395   0.694
67686W        W36080  29.363  41.226  13.528
67687W        W36081  26.853  42.369  13.177
67688W        W36082  44.800   3.386  14.230
67689W        W36083  27.069  14.524  11.297
67690W        W36084  39.764   2.281   1.104
67691W        W36085   2.773  24.364  14.399
67692W        W36086  36.709  18.546   2.793
67693W        W36087  34.466  17.513  14.385
67694W        W36088  42.158  15.698   4.803
67695W        W36089  34.892   0.711  11.588
67696W        W36090  16.809   6.057  11.638
67697W        W36091   8.073  23.015   4.327
67698W        W36092  41.756  39.958  11.872
67699W        W36093  27.489  29.430   3.747
67700W        W36094  14.723  20.141  13.129
67701W        W36095  28.958  43.579   9.580
67702W        W36096  28.404   3.866   2.152
67703W        W36097  20.943  33.837   2.965
67704W        W36098  30.746  16.224  13.868
67705W        W36099  25.758  29.401  13.995
67706W        W36100  35.046  32.087   1.806
67707W        W36101   8.301   0.750   1.406
67708W        W36102  37.937   4.364   0.850
67709W        W36103  13.855  19.176   4.694
67710W        W36104   8.352  27.637   0.501
67711W        W36105   3.375  44.480  11.953
67712W        W36106  37.623  42.422   0.405
67713W        W36107  31.039  40.807  13.627
67714W        W36108  40.308   8.149   3.217
67715W        W36109  33.235  15.614   1.401
67716W        W36110   6.645   3.016  14.776
67717W        W36111  37.067  10.568   0.732
67718W        W36112  32.949  30.558   0.720
67719W        W36113  37.552  31.128   1.972
67720W        W36114  35.488   7.795  13.826
67721W        W36115  12.734  13.857   3.765
67722W        W36116  37.154  27.210   0.403
67723W        W36117  21.426  31.823  11.610
67724W        W36118  15.396  27.229   2.815
67725W        W36119  41.024  16.683   1.204
67726W        W36120  17.469  38.593   1.390
67727W        W36121  37.866  27.750   1.666
67728W        W36122  28.658  38.359  12.404
67729W        W36123  17.739   7.281   3.097
67730W        W36124  27.731   0.026   2.893
67731W        W36125   2.411   2.745   1.870
67732W        W36126  16.192  21.591  14.959
67733W        W36127  33.068  31.193   4.134
67734W        W36128  34.177  31.493   3.199
67735W        W36129  36.538  36.541  10.738
67736W        W36130  27.094  10.553  13.873
67737W        W36131  37.788  13.022  13.586
67738W        W36132  21.131  11.300  10.281
67739W        W36133   1.377  19.295   1.200
67740W        W36134  25.407  36.476   3.244
67741W        W36135   3.770   5.055  14.871
67742W        W36136  32.250  15.904   3.730
67743W        W36137  29.945  13.140   1.860
67744W        W36138  38.842  14.061  11.964
67745W        W36139   8.951  28.903  11.535
67746W        W36140   2.827   3.790   4.799
67747W        W36141  44.701  38.152  13.017
67748W        W36142  18.782   1.564  10.073
67749W        W36143  24.771  33.705  11.973
67750W        W36144  35.282  26.531   1.551
67751W        W36145  40.033  10.298  13.449
67752W        W36146  19.303  40.311  12.633
67753W        W36147   3.353  23.737  11.875
67754W        W36148   2.251  37.390   0.482
67755W        W36149  35.763  11.744  11.926
67756W        W36150  13.629  13.664   3.351
67757W        W36151   8.485  27.076   2.451
67758W        W36152  39.489   5.956   4.494
67759W        W36153  33.557  28.983   1.277
67760W        W36154  14.589  33.555   2.682
67761W        W36155  44.140  29.882   3.682
67762W        W36156  11.669  14.623   3.776
67763W        W36157  33.590  29.520  13.529
67764W        W36158  40.781  20.686   0.446
67765W        W36159  40.410  44.416  10.950
67766W        W36160   1.454  43.051   2.624
67767W        W36161  42.547  32.798  11.529
67768W        W36162   4.744  18.416   0.284
67769W        W36163  29.547  22.004  14.852
67770W        W36164   6.981   2.766  11.735
67771W        W36165  24.769  38.801  11.559
67772W        W36166  43.813  34.049  12.168
67773W        W36167  14.316  16.513  11.367
67774W        W36168  17.283   4.403  11.136
67775W        W36169  14.233  24.435  13.901
67776W        W36170  18.578  16.109  14.561
67777W        W36171   7.155  13.155   4.855
67778W        W36172   1.573  27.587  10.478
67779W        W36173  41.119  12.291  11.296
67780W        W36174  35.867  20.428  12.632
67781W        W36175  23.959  35.105  14.451
67782W        W36176  41.900   3.876   1.029
67783W        W36177  28.173  36.982   4.529
67784W        W36178  31.630  16.652   0.925
67785W        W36179  18.629  30.441  13.494
67786W        W36180  25.988  33.149   3.142
67787W        W36181  39.802  11.344   1.980
67788W        W36182  10.404   8.973   3.819
67789W        W36183  37.453  14.821   1.106
67790W        W36184  30.943  10.200  11.161
67791W        W36185  17.077   7.627   3.515
67792W        W36186  28.410  17.657   3.601
67793W        W36187  32.620  20.833   4.526
67794W        W36188  18.611   0.347   2.206
67795W        W36189  29.198   0.376   4.520
67796W        W36190  29.245  37.811  12.840
67797W        W36191  22.746  13.866  10.015
67798W        W36192  13.011   9.509   0.716
67799W        W36193  24.176  34.366  13.901
67800W        W36194  36.808  16.057   1.914
67801W        W36195  41.794  16.111  11.006
67802W        W36196  38.583  22.978   3.583
67803W        W36197  40.905  11.320  13.380
67804W        W36198  23.514  19.263   1.693
67805W        W36199  29.803  40.507  12.888
67806W        W36200  28.517  16.875  11.068
67807W        W36201  40.475  26.303  13.176
67808W        W36202   9.443  23.609   1.239
67809W        W36203  12.844   3.947  14.932
67810W        W36204  29.626  11.842   0.747
67811W        W36205   6.231  31.000  12.920
67812W        W36206  37.644   5.434   1.332
67813W        W36207  25.658  25.434   2.962
67814W        W36208  19.585  38.606  14.975
67815W        W36209   8.212  14.581   1.300
67816W        W36210   5.203  22.498   4.130
67817W        W36211  40.551  39.493   1.214
67818W        W36212  40.409  35.584  14.872
67819W        W36213   1.987   7.846  10.661
67820W        W36214  17.894  43.143   3.211
67821W        W36215  28.385   9.265  11.589
67822W        W36216  41.449   3.779   0.793
67823W        W36217  18.142  22.121  13.632
67824W        W36218   8.660  33.763  13.772
67825W        W36219  38.885  38.201  12.361
67826W        W36220  31.005  24.252   2.768
67827W        W36221  26.628  33.403  12.972
67828W        W36222  44.902   3.971  11.174
67829W        W36223  13.473  18.721  13.029
67830W        W36224  19.677  13.569   2.210
67831W        W36225  40.125  16.776  11.512
67832W        W36226   4.886  37.150   1.849
67833W        W36227  41.326   2.049   0.611
67834W        W36228   6.041  18.505  14.528
67835W        W36229  38.364  39.117   3.631
67836W        W36230   9.171  41.117  11.141
67837W        W36231  22.502  22.229  13.959
67838W        W36232   1.421  20.777  14.498
67839W        W36233   1.329   8.424   4.445
67840W        W36234  32.362   4.352   1.365
67841W        W36235  31.094  33.617   0.314
67842W        W36236  32.510  12.396   1.823
67843W        W36237  33.177  33.111   2.267
67844W        W36238  32.068  12.043   1.378
67845W        W36239  35.846   4.674  11.101
67846W        W36240  33.555  44.491  13.831
67847W        W36241  37.906  32.224   1.779
67848W        W36242  15.033   5.203  11.600
67849W        W36243  31.319  27.783  14.312
67850W        W36244  30.508  28.001  10.940
67851W        W36245  18.741  14.104   4.732
67852W        W36246  32.208  11.795   2.755
67853W        W36247   3.494  16.860  14.903
67854W        W36248  25.022  36.856   0.717
67855W        W36249   8.664   9.234   2.216
67856W        W36250  36.178  18.652  13.765
67857W        W36251  30.088  32.479   4.060
67858W        W36252   2.059  29.612   0.423
67859W        W36253  37.914  40.290  10.286
67860W        W36254  39.233   8.780  12.588
67861W        W36255  44.939  27.282  11.164
67862W        W36256  36.635  13.739   4.189
67863W        W36257  44.920  31.059   3.229
67864W        W36258  38.036  41.624   0.251
67865W        W36259  22.709  16.635   1.394
67866W        W36260   2.601  13.200  13.085
67867W        W36261  41.350  38.661   4.307
67868W        W36262   7.226  13.454  13.435
67869W        W36263  20.677  20.476  11.754
67870W        W36264  27.615   9.124  12.465
67871W        W36265   7.316   1.178   0.739
67872W        W36266  44.700  19.548   1.261
67873W        W36267  23.695  11.332  14.322
67874W        W36268  20.138  40.327  13.843
67875W        W36269   9.427  17.404   0.783
67876W        W36270  17.023   9.057  12.012
67877W        W36271  18.334  26.609   0.273
67878W        W36272  16.522  18.292  11.546
67879W        W36273   1.752  38.354  13.073
67880W        W36274   4.671  14.182   0.815
67881W        W36275  28.399  44.222   2.808
67882W        W36276  30.718   4.359   4.278
67883W        W36277  41.359   4.965  14.262
67884W        W36278  21.535  20.228   0.838
67885W        W36279  44.491  21.120   0.418
67886W        W36280   2.734  27.070   0.583
67887W        W36281   4.770  41.451   4.630
67888W        W36282  25.444  31.773  14.384
67889W        W36283   3.504  32.998  14.338
67890W        W36284  11.122  25.963   4.350
67891W        W36285  15.899   6.397   3.835
67892W        W36286  38.970  34.682  13.314
67893W        W36287  42.543  11.381   1.873
67894W        W36288  12.331  20.741  10.677
67895W        W36289  25.982  25.305   1.202
67896W        W36290  13.535   7.499   3.211
67897W        W36291  33.896  26.039  14.472
67898W        W36292  44.782  25.518   0.847
67899W        W36293  12.237   8.356  11.388
67900W        W36294   8.634  12.757  13.987
67901W        W36295  12.108  26.057   0.510
67902W        W36296  30.516   8.554  13.466
67903W        W36297  17.562  31.195   4.080
67904W        W36298  34.418  15.341   2.275
67905W        W36299  26.248  31.747   3.185
67906W        W36300  24.706  35.028   0.003
67907W        W36301   9.410   4.594   2.779
67908W        W36302  29.576   4.904  13.940
67909W        W36303  23.039  11.259  13.511
67910W        W36304  22.732  19.024   2.272
67911W        W36305  34.039  15.514   5.032
67912W        W36306  34.930  43.922  13.913
67913W        W36307   0.914  30.097   2.822
67914W        W36308   4.440  36.689   2.263
67915W        W36309  35.828  15.144   3.932
67916W        W36310  13.781  26.511   0.412
67917W        W36311   3.788  27.740   1.145
67918W        W36312  15.751  16.214   1.770
67919W        W36313  37.477  18.319   1.722
67920W        W36314   5.043   6.814   0.597
67921W        W36315  32.722   1.549  14.392
67922W        W36316   5.241  41.349  11.056
67923W        W36317  19.224  44.032   2.842
67924W        W36318  25.238  37.897   0.349
67925W        W36319   8.655  17.776   4.156
67926W        W36320  28.258  33.296   4.469
67927W        W36321  32.905  41.519   3.358
67928W        W36322  18.111  42.213   1.429
67929W        W36323  20.624  30.959   1.387
67930W        W36324   2.484  39.610   2.949
67931W        W36325   4.096  39.962  13.467
67932W        W36326   6.318   8.789   2.987
67933W        W36327   8.348  32.700   2.205
67934W        W36328  29.875   9.191  12.426
67935W        W36329  38.352   1.661   4.484
67936W        W36330  30.799  24.626   0.402
67937W        W36331   5.898  37.706   3.275
67938W        W36332  20.825  38.490   3.128
67939W        W36333  29.047  34.378  14.266
67940W        W36334  38.566  40.513  14.705
67941W        W36335  44.996  32.904   3.886
67942W        W36336  24.339  23.520   3.736
67943W        W36337   8.569  39.156   0.437
67944W        W36338  38.890  22.231   2.936
67945W        W36339  17.537  36.361   5.047
67946W        W36340  18.100  20.557   0.977
67947W        W36341  11.349  41.862  13.340
67948W        W36342  25.960   1.866   3.248
67949W        W36343  13.825  21.126   3.477
67950W        W36344  44.368  26.251  11.324
67951W        W36345  31.211  25.601   3.854
67952W        W36346  37.295  44.132  13.913
67953W        W36347  40.949  18.704   2.399
67954W        W36348   8.718  35.106  12.101
67955W        W36349  12.413  26.194   0.115
67956W        W36350   5.641  40.098   3.765
67957W        W36351   6.859  37.053  14.424
67958W        W36352  18.106  24.969   4.086
67959W        W36353  23.029  17.268  11.739
67960W        W36354  33.993  40.934   2.588
67961W        W36355  24.693  35.836  12.295
67962W        W36356  15.965  16.331  14.079
67963W        W36357  21.733  26.061   5.149
67964W        W36358  37.091  35.187   0.463
67965W        W36359  16.671  23.799  12.048
67966W        W36360  40.769   0.210   0.473
67967W        W36361  44.939   4.354  14.108
67968W        W36362  37.140   3.375  11.505
67969W        W36363  20.730  40.494  13.654
67970W        W36364   5.146  37.865  14.392
67971W        W36365  31.963  16.769  14.759
67972W        W36366   2.532   9.646   2.107
67973W        W36367  20.659  43.794  12.806
67974W        W36368   7.006  26.038   4.152
67975W        W36369  25.710  36.919  10.914
67976W        W36370   7.983  12.626  11.527
67977W        W36371  40.373  28.093   0.734
67978W        W36372  43.392  41.282  14.378
67979W        W36373  22.489  16.188   1.215
67980W        W36374  24.005  24.098  10.756
67981W        W36375  38.853  34.131   3.577
67982W        W36376  44.704  18.688  10.958
67983W        W36377   2.451  27.068   3.938
67984W        W36378   8.585  18.190  10.825
67985W        W36379  43.574  21.966  14.734
67986W        W36380  38.641  40.094   3.750
67987W        W36381   5.287  28.370   0.485
67988W        W36382   9.365  21.847   0.743
67989W        W36383  12.514  36.639  13.474
67990W        W36384  15.056  43.343  13.056
67991W        W36385   5.647  40.825   1.270
67992W        W36386  15.831   6.016   1.343
67993W        W36387   3.523  36.453  12.008
67994W        W36388   8.632  28.465   0.411
67995W        W36389  44.860   7.111   3.122
67996W        W36390  29.762  37.517   3.276
67997W        W36391   6.182  27.247   0.915
67998W        W36392  38.509  32.129   2.413
67999W        W36393  28.896  28.178   2.242
68000W        W36394  44.905  37.251   4.107
68001W        W36395  10.690  41.186   0.713
68002W        W36396   8.326   7.133  14.407
68003W        W36397  44.292  42.010  14.430
68004W        W36398  27.140  17.589   1.144
68005W        W36399  19.074  22.666  10.931
68006W        W36400  39.837  19.816   0.450
68007W        W36401   5.347   0.993   4.352
68008W        W36402  27.704  34.016  11.919
68009W        W36403  23.210   6.316   2.119
68010W        W36404  40.718  28.630   4.795
68011W        W36405  40.908   6.950   0.731
68012W        W36406  26.261  32.485  14.959
68013W        W36407  14.631  10.158   4.628
68014W        W36408   4.801  40.845   3.949
68015W        W36409  36.859  25.553   4.824
68016W        W36410  37.874  12.921  14.155
68017W        W36411  35.866  16.655   0.301
68018W        W36412   6.525  39.367  14.924
68019W        W36413   6.207  15.463  11.164
68020W        W36414  21.947  29.021   3.327
68021W        W36415  11.469  38.490   3.248
68022W        W36416  42.326   3.456   3.313
68023W        W36417  20.452  39.015   0.362
68024W        W36418   8.837  43.894  10.804
68025W        W36419  43.365   0.593   2.800
68026W        W36420  11.072  16.271  14.440
68027W        W36421  10.238   1.136   3.742
68028W        W36422  42.545  41.343   4.853
68029W        W36423  10.012  44.735   0.025
68030W        W36424  10.908   7.818  12.020
68031W        W36425   2.454  23.134  10.838
68032W        W36426   8.430  42.495  12.468
68033W        W36427  32.143   9.150   4.324
68034W        W36428  34.218   0.377  10.642
68035W        W36429  24.741  44.674   9.787
68036W        W36430  15.576  13.099   3.639
68037W        W36431  23.727  17.072  13.430
68038W        W36432  35.366  16.742  13.040
68039W        W36433  29.586  12.834   3.113
68040W        W36434  16.739  19.015   0.442
68041W        W36435  14.315  44.779   4.651
68042W        W36436  37.372  26.423   0.447
68043W        W36437  29.718   2.246  11.142
68044W        W36438  43.875  34.455   1.575
68045W        W36439  22.600   4.455  14.986
68046W        W36440  27.439  11.411   1.783
68047W        W36441  17.658  40.123   2.121
68048W        W36442  29.902   1.697  13.502
68049W        W36443  12.563   9.634  13.639
68050W        W36444  24.272  25.452   2.748
68051W        W36445  21.465  38.995  14.900
68052W        W36446  28.906  35.293   0.203
68053W        W36447   0.488   4.717  11.047
68054W        W36448  37.931  35.642  13.357
68055W        W36449  26.670  15.006  14.327
68056W        W36450   1.493  35.872  11.000
68057W        W36451  13.155  22.624   2.416
68058W        W36452  20.195  43.748   4.678
68059W        W36453  11.428  38.232   2.261
68060W        W36454  28.762   5.207   3.293
68061W        W36455  14.816  34.469   3.807
68062W        W36456  12.185  32.048   2.045
68063W        W36457   0.625  14.074   4.247
68064W        W36458  19.975  40.559  14.309
68065W        W36459  12.969  21.896   0.300
68066W        W36460   6.140  28.526  10.008
68067W        W36461  31.717  26.763  11.671
68068W        W36462   8.703  20.092   1.662
68069W        W36463  13.418  17.014   1.872
68070W        W36464   8.338  44.568   3.110
68071W        W36465  39.055  32.016   0.766
68072W        W36466   0.889  25.249  14.487
68073W        W36467  11.593  10.592   2.790
68074W        W36468  26.054  14.546  13.347
68075W        W36469  42.297   3.721   0.218
68076W        W36470   2.021  32.328  14.407
68077W        W36471   1.079   7.995  12.464
68078W        W36472   2.275  11.642  12.173
68079W        W36473  11.106   3.950  14.755
68080W        W36474  12.176   4.641  11.375
68081W        W36475  18.312  25.644  14.453
68082W        W36476   8.660  27.742  12.145
68083W        W36477  11.415  41.199  13.945
68084W        W36478  10.289   7.386  14.080
68085W        W36479   2.798  10.843  10.911
68086W        W36480  17.375  42.493  12.335
68087W        W36481  22.981   5.709   4.495
68088W        W36482  11.562   1.792  12.533
68089W        W36483  14.720  31.675   4.893
68090W        W36484  41.381   5.520  11.973
68091W        W36485  44.414   0.372  11.288
68092W        W36486  29.613  44.794  13.765
68093W        W36487  30.928  38.544  13.093
68094W        W36488  23.720  41.429   1.895
68095W        W36489  11.388   9.679  12.883
68096W        W36490   2.876  39.627   0.292
68097W        W36491  27.609  40.908   4.008
68098W        W36492  43.984  34.944  11.915
68099W        W36493   6.240   2.417   0.843
68100W        W36494  29.550  44.196   3.630
68101W        W36495  12.718  12.706  13.589
68102W        W36496   9.181  13.100  10.638
68103W        W36497  42.330  43.305  12.450
68104W        W36498  38.276  29.038  14.575
68105W        W36499   3.227  18.315  11.618
68106W        W36500  18.800  14.191   3.829
68107W        W36501  36.147  38.130   4.579
68108W        W36502  14.878  31.490  14.733
68109W        W36503  31.939  34.673   1.824
68110W        W36504   3.432  12.859  11.146
68111W        W36505  30.820  43.185  13.328
68112W        W36506  18.445  38.036  14.465
68113W        W36507  20.005  39.812  11.175
68114W        W36508  30.909  37.771   2.600
68115W        W36509  27.725   8.325   4.261
68116W        W36510  22.521  44.624  10.566
68117W        W36511  23.301  39.992   2.343
68118W        W36512  21.761  35.482   1.429
68119W        W36513  43.511   1.498  11.053
68120W        W36514  40.815   4.002   4.215
68121W        W36515  24.620  18.638  13.351
68122W        W36516   0.480  38.860  12.908
68123W        W36517  10.665  36.039   3.857
68124W        W36518  21.908   2.606  13.726
68125W        W36519  43.980  40.069  14.386
68126W        W36520  38.316   4.790   4.697
68127W        W36521  42.929   4.569   2.802
68128W        W36522  23.540   4.605  12.505
68129W        W36523  15.862  32.830   4.173
68130W        W36524  35.050  18.564  14.487
68131W        W36525  42.114  19.105  12.915
68132W        W36526  18.772   2.977  10.451
68133W        W36527   2.758  38.239   1.392
68134W        W36528   3.050  32.560  12.609
68135W        W36529  41.894  16.363  12.883
68136W        W36530  35.622  30.972  14.409
68137W        W36531  14.776   6.505  13.666
68138W        W36532  41.295  18.755  12.991
68139W        W36533  32.413  40.932   3.314
68140W        W36534  13.338  30.491  14.886
68141W        W36535  38.377  25.692  14.447
68142W        W36536  40.932   5.450   0.937
68143W        W36537   8.895  34.472   3.076
68144W        W36538  24.483  36.831   1.637
68145W        W36539  30.414   7.451   1.285
68146W        W36540  11.990  39.623  14.848
68147W        W36541  27.448   4.715   4.402
68148W        W36542  21.889  31.726   4.049
68149W        W36543  34.506  16.476  14.300
68150W        W36544  21.204   1.547   0.325
68151W        W36545   6.152   6.842  13.929
68152W        W36546  42.100  35.041   1.333
68153W        W36547  13.153  41.817  14.970
68154W        W36548  34.200  36.057   0.499
68155W        W36549   6.591  27.280  12.908
68156W        W36550  44.277  13.178   4.229
68157W        W36551  43.719  34.958  10.509
68158W        W36552   7.349  19.440  13.642
68159W        W36553  24.785  37.744   2.741
68160W        W36554  34.750  34.736  12.544
68161W        W36555  26.682  33.537  11.233
68162W        W36556  41.690  23.269  14.535
68163W        W36557  36.815  13.421  11.018
68164W        W36558  17.779  44.493  11.116
68165W        W36559  39.674  32.779  11.191
68166W        W36560  14.230  37.015  12.958
68167W        W36561  36.117   0.339   4.544
68168W        W36562  16.865  34.864   0.947
68169W        W36563  33.936  17.709  14.453
68170W        W36564  27.349  14.230   2.645
68171W        W36565  34.971  33.067   4.357
68172W        W36566  29.203  10.064  11.078
68173W        W36567  11.729  38.996   1.399
68174W        W36568  34.098  44.129  11.114
68175W        W36569  32.884   4.244  13.909
68176W        W36570  40.324  29.593   1.765
68177W        W36571  34.978  27.452   0.799
68178W        W36572  18.045  11.251  11.044
68179W        W36573  30.612  30.881  10.731
68180W        W36574   3.898  44.357   4.293
68181W        W36575  11.712  30.689  12.896
68182W        W36576   0.893  33.350  10.575
68183W        W36577   8.620   8.152   2.301
68184W        W36578  16.078   6.850  14.857
68185W        W36579  10.033  39.918  12.645
68186W        W36580  22.831  33.568   1.834
68187W        W36581  36.578   9.087  13.993
68188W        W36582  23.429  43.731  11.208
68189W        W36583  39.621   6.067   2.850
68190W        W36584  13.736  43.861   3.881
68191W        W36585  40.572  13.745   4.269
68192W        W36586  20.044  32.071   1.001
68193W        W36587  28.270  25.290  11.558
68194W        W36588  42.066  41.782  14.309
68195W        W36589   0.308  25.021  13.697
68196W        W36590  10.245  22.638  10.397
68197W        W36591  17.652  33.070   1.743
68198W        W36592   7.896   2.847   3.362
68199W        W36593   9.455  29.404  12.618
68200W        W36594  41.015  26.953  14.403
68201W        W36595  34.107  15.040  11.087
68202W        W36596  43.448  10.800   3.736
68203W        W36597  39.071  40.432  13.718
68204W        W36598   3.234   4.299   0.885
68205W        W36599  43.858  39.309  13.506
68206W        W36600  12.486  16.434  14.861
68207W        W36601  20.514  18.226   4.092
68208W        W36602  33.346  13.897  10.458
68209W        W36603   7.364  12.968  12.543
68210W        W36604  36.512  24.000  10.702
68211W        W36605  37.612  29.530   1.248
68212W        W36606  20.977  28.613   5.082
68213W        W36607  33.416  24.978  11.478
68214W        W36608  22.600  30.393   2.696
68215W        W36609  36.427  40.010   3.268
68216W        W36610  32.791  28.040   1.688
68217W        W36611  44.701   1.970  13.572
68218W        W36612  25.023  27.232  11.599
68219W        W36613  10.652  37.475  12.439
68220W        W36614   1.924  19.861   3.248
68221W        W36615  34.359  38.684  14.714
68222W        W36616   4.749  24.576   1.879
68223W        W36617  37.453  27.304  13.437
68224W        W36618   2.298  17.723  13.350
68225W        W36619  38.853  43.053   0.797
68226W        W36620   3.951  21.501  14.953
68227W        W36621  38.563  23.233  13.076
68228W        W36622  25.525  36.572   2.332
68229W        W36623  35.379  16.833  14.948
68230W        W36624  30.796  11.136  11.147
68231W        W36625  27.333  10.864  13.048
68232W        W36626   0.929   7.366   1.617
68233W        W36627  33.381  26.712  11.056
68234W        W36628  26.551  19.105  14.866
68235W        W36629  11.743  40.839   4.912
68236W        W36630   1.269  30.727  12.388
68237W        W36631   7.507  26.456  13.960
68238W        W36632  44.908  33.668   3.407
68239W        W36633   3.038  29.428  12.417
68240W        W36634  16.087  32.129   3.704
68241W        W36635  13.539  30.400   1.779
68242W        W36636  28.437   8.869  13.814
68243W        W36637  35.998  34.030  11.182
68244W        W36638  35.865  41.914  14.448
68245W        W36639   1.154  25.481   0.983
68246W        W36640  29.859  33.649   3.153
68247W        W36641  40.935  27.226   2.030
68248W        W36642  12.047   9.853   3.304
68249W        W36643  36.989  30.034   4.390
68250W        W36644  19.860  28.387  14.851
68251W        W36645  13.438  38.009  13.291
68252W        W36646   5.740  20.860   3.750
68253W        W36647   0.308  40.876   3.196
68254W        W36648   3.107  12.879  10.157
68255W        W36649  32.364   0.947   2.826
68256W        W36650  33.035  33.067  13.584
68257W        W36651  11.016   5.379  14.889
68258W        W36652   6.139   2.162  14.299
68259W        W36653  28.700   7.396  12.045
68260W        W36654  28.942   0.744   1.730
68261W        W36655   5.370   7.330   3.285
68262W        W36656  41.154  10.389   2.357
68263W        W36657  12.326   2.659   4.406
68264W        W36658  44.448  43.034   4.567
68265W        W36659   9.187  31.005   2.203
68266W        W36660  18.284  11.635  12.953
68267W        W36661   2.182  27.354   1.684
68268W        W36662  15.745  18.077   2.268
68269W        W36663   0.376  33.869   3.584
68270W        W36664  26.229  15.584  14.501
68271W        W36665  20.993  21.051  13.526
68272W        W36666  11.989  10.839  11.948
68273W        W36667  40.428  28.831  13.514
68274W        W36668  28.026  18.942  11.558
68275W        W36669  34.308  35.121   4.261
68276W        W36670  43.726  28.981  10.546
68277W        W36671  17.567  40.374  12.975
68278W        W36672   8.739  19.831   0.904
68279W        W36673  28.606  30.589   0.426
68280W        W36674  28.679  12.535  14.863
68281W        W36675   9.280  12.170   3.806
68282W        W36676   0.307  10.224   2.313
68283W        W36677  10.183   7.735  12.385
68284W        W36678  22.494   5.689  12.057
68285W        W36679  35.503  35.544   4.303
68286W        W36680   6.878  28.213  12.381
68287W        W36681  14.851  25.724   2.954
68288W        W36682   2.876  23.061   4.852
68289W        W36683   7.626  23.000  13.952
68290W        W36684   1.211   2.947  11.515
68291W        W36685   5.768  25.067  14.780
68292W        W36686  44.238   4.203   0.953
68293W        W36687  27.551  35.900  12.804
68294W        W36688  20.804  44.741  14.932
68295W        W36689   7.922  42.821  11.345
68296W        W36690  20.363  20.732   1.422
68297W        W36691   5.825   2.011   4.616
68298W        W36692  22.617  15.571  10.153
68299W        W36693  32.562  27.549   0.087
68300W        W36694  34.576  15.673  13.085
68301W        W36695  28.006  30.771   1.386
68302W        W36696  11.425  24.033   4.271
68303W        W36697  12.282  44.625  14.910
68304W        W36698  21.532  41.906   4.422
68305W        W36699   2.784  12.257   4.046
68306W        W36700  39.366  44.169  13.638
68307W        W36701  13.283  36.138  11.716
68308W        W36702  38.136   2.238   0.518
68309W        W36703  18.507  41.719   1.781
68310W        W36704  35.530  21.444   1.693
68311W        W36705  32.048   5.817   0.548
68312W        W36706  15.713  14.245   3.390
68313W        W36707   0.309  17.991   0.601
68314W        W36708   3.703  12.698   0.623
68315W        W36709  23.988   0.536  11.237
68316W        W36710   7.618   7.510   1.150
68317W        W36711  34.368  34.898   3.059
68318W        W36712  25.688   0.021   0.028
68319W        W36713  32.283  43.894   2.265
68320W        W36714  20.136  39.855   3.066
68321W        W36715  28.973  28.882   3.672
68322W        W36716  27.146  16.587  13.858
68323W        W36717  18.685  19.730   2.328
68324W        W36718  38.534  13.786   2.395
68325W        W36719   5.772  41.421  10.636
68326W        W36720  40.384  38.845   4.633
68327W        W36721  41.785  18.021   3.186
68328W        W36722  27.733  29.559  10.766
68329W        W36723  13.688  22.811   0.830
68330W        W36724  20.206   8.334   4.046
68331W        W36725  43.111  40.245  11.353
68332W        W36726  30.332  27.561  11.146
68333W        W36727  17.359  39.121  12.837
68334W        W36728   9.787  30.161   2.368
68335W        W36729  32.977   7.191   0.413
68336W        W36730  40.325  24.244  11.452
68337W        W36731  38.848  23.105   1.797
68338W        W36732  31.671  13.783  14.010
68339W        W36733  16.655  44.103  13.355
68340W        W36734  37.394  20.695  14.339
68341W        W36735   3.390   7.285  13.883
68342W        W36736  31.904  13.747   0.704
68343W        W36737   2.406   0.367   4.563
68344W        W36738  15.642   9.841  10.039
68345W        W36739  10.866  34.939   4.822
68346W        W36740   1.622  38.679  11.490
68347W        W36741  38.050  41.501  14.335
68348W        W36742  26.975  26.402  14.541
68349W        W36743   5.915  39.756  14.402
68350W        W36744  15.143  10.420   2.683
68351W        W36745  41.984   0.289  13.275
68352W        W36746   0.041  31.015   0.525
68353W        W36747  39.627  30.469   0.417
68354W        W36748   9.346   2.772  10.985
68355W        W36749  41.528  20.254  10.444
68356W        W36750  23.602  16.737  12.025
68357W        W36751  24.510  27.121   1.776
68358W        W36752  40.561  30.041  12.583
68359W        W36753  30.411  22.903  14.358
68360W        W36754  38.878  15.334  12.534
68361W        W36755  30.589  42.249   3.691
68362W        W36756  40.582   4.637   2.471
68363W        W36757  38.949  19.723  13.877
68364W        W36758  13.190  42.365  14.162
68365W        W36759  35.095  39.058  13.943
68366W        W36760  41.828  34.578   1.203
68367W        W36761  31.696  28.010  11.105
68368W        W36762  28.350  44.206   0.474
68369W        W36763  43.920  33.861   1.938
68370W        W36764  42.282  40.449  14.935
68371W        W36765   1.816  15.435  10.302
68372W        W36766  44.819  34.112   0.382
68373W        W36767  25.022  35.060   0.443
68374W        W36768  17.013  28.959   4.948
68375W        W36769  39.100  36.520  14.315
68376W        W36770  11.264  35.837  14.034
68377W        W36771  35.246  37.103  12.084
68378W        W36772  40.241  44.406  13.194
68379W        W36773  36.487  24.062  12.628
68380W        W36774  33.968  14.701  11.758
68381W        W36775  18.099  44.970   4.280
68382W        W36776  44.204   7.882  13.829
68383W        W36777  29.534  20.760  13.849
68384W        W36778  21.112  23.221  11.647
68385W        W36779  25.945  40.499   0.375
68386W        W36780   2.471   7.382   1.727
68387W        W36781  38.589   1.416  14.631
68388W        W36782  26.144  18.283   4.616
68389W        W36783  42.963   3.489   1.367
68390W        W36784  12.978  42.953  11.599
68391W        W36785   7.649  37.118  13.774
68392W        W36786  16.314  30.103   0.380
68393W        W36787  13.644   5.940   5.466
68394W        W36788  28.185  20.991  14.253
68395W        W36789  44.745   8.370   2.447
68396W        W36790  20.693  31.062   3.798
68397W        W36791  43.506  20.020  12.116
68398W        W36792  22.371  37.365  11.540
68399W        W36793   9.060   4.330  10.146
68400W        W36794  39.383  44.575   4.919
68401W        W36795   8.624  31.023   3.077
68402W        W36796  43.558  22.834  13.475
68403W        W36797   6.371  36.329  11.576
68404W        W36798  36.371  26.680  11.609
68405W        W36799  28.222  43.256   3.218
68406W        W36800  20.083  19.572  13.611
68407W        W36801  41.025  25.546  14.607
68408W        W36802  33.129  40.070  14.776
68409W        W36803   2.531  21.995  13.096
68410W        W36804  30.976  17.240  14.894
68411W        W36805  24.997  16.285  11.447
68412W        W36806  18.277   6.775   1.333
68413W        W36807  29.711  28.645  12.922
68414W        W36808  22.567  17.097  12.979
68415W        W36809   9.633  13.266  11.906
68416W        W36810  23.583  25.059   4.324
68417W        W36811  29.106  25.527   1.901
68418W        W36812  38.017  33.607   0.885
68419W        W36813  22.984  20.998   3.821
68420W        W36814   7.248   6.116   0.684
68421W        W36815  34.200  31.584   3.720
68422W        W36816  29.864   6.209   1.339
68423W        W36817   5.135  35.719  11.040
68424W        W36818  26.668   8.878  13.357
68425W        W36819  25.727   7.346  14.973
68426W        W36820  14.556   8.635   2.337
68427W        W36821  36.910  28.716  14.273
68428W        W36822  41.294  21.670  13.134
68429W        W36823  10.774   4.012   1.151
68430W        W36824  36.993  28.425  14.706
68431W        W36825  18.975  41.812   2.972
68432W        W36826  31.486  32.582   4.602
68433W        W36827  11.334  35.309  14.444
68434W        W36828  10.111  11.229  13.588
68435W        W36829  11.380  17.034  13.336
68436W        W36830  29.310  17.340  14.042
68437W        W36831  39.372  12.260  12.525
68438W        W36832  29.950  28.599  14.928
68439W        W36833  14.762  26.425  14.982
68440W        W36834  17.115   1.343  12.307
68441W        W36835   2.558  40.574   2.795
68442W        W36836  29.538  36.381   2.785
68443W        W36837   5.251  20.050  10.686
68444W        W36838   0.851  33.075  12.145
68445W        W36839  39.149  41.756  12.456
68446W        W36840  13.111  25.366   2.130
68447W        W36841   9.104  42.988  12.215
68448W        W36842   4.796  24.101  10.142
68449W        W36843  18.261  27.660   1.633
68450W        W36844  42.006   2.126  12.849
68451W        W36845  34.683   2.999   0.380
68452W        W36846  30.432   5.278   0.057
68453W        W36847   3.383  42.817   1.891
68454W        W36848   9.648  42.854  11.155
68455W        W36849   3.379  21.617   4.835
68456W        W36850  41.022  43.414  11.135
68457W        W36851  26.251   6.679   3.077
68458W        W36852  40.288   6.408   1.453
68459W        W36853  21.479  38.847   2.187
68460W        W36854  20.807  15.063   0.435
68461W        W36855  33.872  25.039   0.704
68462W        W36856  12.281  38.064  14.538
68463W        W36857  13.724  11.047  14.987
68464W        W36858   7.886   5.763   0.457
68465W        W36859  12.509  41.820  14.416
68466W        W36860  19.384   6.369   1.042
68467W        W36861  29.550  35.130  10.777
68468W        W36862  23.575  27.025  13.796
68469W        W36863  42.269  44.771   3.765
68470W        W36864  40.654  22.277  14.723
68471W        W36865  36.321   9.719  12.871
68472W        W36866  26.638  42.318   3.731
68473W        W36867  15.671  30.181   1.742
68474W        W36868  32.048  44.933   4.028
68475W        W36869  14.580  23.980  13.005
68476W        W36870  33.954  16.196   2.637
68477W        W36871   6.700  18.319  14.269
68478W        W36872  10.828  17.798  13.697
68479W        W36873  16.891  27.055  12.422
68480W        W36874  19.604   2.873   4.365
68481W        W36875   8.625  15.717  13.343
68482W        W36876  39.278   2.836   4.480
68483W        W36877   5.340  26.460   1.265
68484W        W36878  16.688  40.821   2.866
68485W        W36879  42.936  39.610   5.195
68486W        W36880  39.611  38.581  11.886
68487W        W36881  26.985   1.447   1.998
68488W        W36882  39.153  21.730  14.928
68489W        W36883  13.318  25.437  10.844
68490W        W36884  42.759  17.811  13.115
68491W        W36885  22.130  29.026  13.017
68492W        W36886  33.789  28.078  12.513
68493W        W36887  42.742  39.924   4.639
68494W        W36888  11.945  22.550   4.117
68495W        W36889  42.047  22.885  11.835
68496W        W36890   5.283  26.411  14.786
68497W        W36891  23.580  15.764  11.771
68498W        W36892  13.850  18.578   1.594
68499W        W36893  39.978  33.640  13.890
68500W        W36894  34.401   8.384   0.752
68501W        W36895  22.696  12.062   3.088
68502W        W36896   5.430  40.610  13.462
68503W        W36897  41.127  24.222   4.626
68504W        W36898  35.859  36.026  11.872
68505W        W36899  35.484   1.501   1.984
68506W        W36900  40.750  26.365  12.564
68507W        W36901  40.310  32.535  14.543
68508W        W36902  22.385   3.284  10.176
68509W        W36903   8.679   2.777  11.559
68510W        W36904  33.069  44.023   1.245
68511W        W36905  22.550  24.291  11.185
68512W        W36906  20.029  36.879   4.513
68513W        W36907  36.433  43.301  14.536
68514W        W36908  25.453  39.554  10.841
68515W        W36909   8.714  18.506  14.307
68516W        W36910  16.345   5.345  14.631
68517W        W36911  28.963   9.846  13.594
68518W        W36912  32.024  40.894  13.500
68519W        W36913   1.074  31.456   2.640
68520W        W36914  21.469  25.159   4.183
68521W        W36915  26.679   3.465   1.387
68522W        W36916  11.660   0.210   0.940
68523W        W36917  43.449  12.588   4.322
68524W        W36918  15.838  15.663   4.141
68525W        W36919  43.002  34.687   3.782
68526W        W36920  31.562  24.689   1.103
68527W        W36921  17.569   2.898   1.409
68528W        W36922  33.498   1.978   4.099
68529W        W36923  38.087   6.634  14.897
68530W        W36924  23.642  27.050   3.117
68531W        W36925   0.439   7.175  11.131
68532W        W36926  15.807  13.953  13.025
68533W        W36927  38.649  18.510  11.427
68534W        W36928  18.554  20.615  13.482
68535W        W36929  23.129  44.685  11.938
68536W        W36930  23.879  33.852   1.728
68537W        W36931  19.069   2.786   2.357
68538W        W36932  10.210  27.371   5.027
68539W        W36933  22.189  10.617  11.088
68540W        W36934   9.078  34.820   2.737
68541W        W36935  11.547  14.140   1.017
68542W        W36936  43.577  30.138  13.835
68543W        W36937   4.238  37.103   1.335
68544W        W36938  30.901   7.000  11.571
68545W        W36939  39.033  29.132   0.276
68546W        W36940  22.626  18.506  11.237
68547W        W36941  30.984   4.321  11.930
68548W        W36942  33.737  22.470  13.551
68549W        W36943   6.780  22.663   0.521
68550W        W36944  11.240  30.628  14.807
68551W        W36945  21.449   2.165  13.087
68552W        W36946  33.869  32.089  12.365
68553W        W36947  32.174  14.334   2.937
68554W        W36948  36.658   8.918   2.422
68555W        W36949  28.752  43.329   3.267
68556W        W36950  11.340  35.189  12.558
68557W        W36951  39.382   2.378  12.926
68558W        W36952  11.336  25.251  14.471
68559W        W36953  44.583   5.869   0.303
68560W        W36954  10.138  40.045  11.311
68561W        W36955  37.456  22.036  14.738
68562W        W36956  13.396  24.655   3.086
68563W        W36957   7.957  29.729  14.869
68564W        W36958  37.493  27.782   4.133
68565W        W36959  32.882  23.698  11.464
68566W        W36960  27.151  25.459   4.885
68567W        W36961  23.474  16.035   4.714
68568W        W36962  36.206   1.226   0.811
68569W        W36963   3.813  40.617   0.269
68570W        W36964  44.691  21.458  10.891
68571W        W36965   9.247  39.407   3.368
68572W        W36966  17.189  43.484   1.357
68573W        W36967  16.649  17.839  13.099
68574W        W36968  18.271  13.389   2.854
68575W        W36969   0.042  41.302  14.824
68576W        W36970  12.077  10.765  10.684
68577W        W36971  10.359  26.906   2.635
68578W        W36972  42.022  13.016  10.755
68579W        W36973  26.470  25.136   1.278
68580W        W36974  21.212  31.058   4.699
68581W        W36975  44.222  23.584  14.773
68582W        W36976  22.312  31.563   4.404
68583W        W36977  44.433  26.527   0.463
68584W        W36978  40.854  10.603  11.987
68585W        W36979  10.780  39.750   2.304
68586W        W36980  12.587  31.362   2.150
68587W        W36981  44.944  27.707  11.915
68588W        W36982   0.488  37.541   0.829
68589W        W36983  24.330   5.828  10.239
68590W        W36984   3.672  12.335   4.095
68591W        W36985  34.957   3.126  13.133
68592W        W36986  38.498  38.304   4.028
68593W        W36987   5.388  15.280  11.700
68594W        W36988  23.578  13.883  10.397
68595W        W36989  28.985  43.828  14.984
68596W        W36990   1.432  38.985   4.148
68597W        W36991   4.823  20.513  14.109
68598W        W36992  16.272  10.714   1.810
68599W        W36993  43.232   8.809   0.302
68600W        W36994   6.189   0.886   0.825
68601W        W36995   5.978  34.676   1.198
68602W        W36996  37.844  33.147   4.332
68603W        W36997   3.864  21.090  10.165
68604W        W36998  26.253   7.517   0.865
68605W        W36999  36.984  27.273   4.194
68606W        W37000  37.619  41.471  11.440
68607W        W37001   8.768   0.871   0.674
68608W        W37002  35.636   2.626   0.501
68609W        W37003   8.183   1.413   0.722
68610W        W37004   7.441  25.727   4.951
68611W        W37005  30.985  40.504   2.235
68612W        W37006   8.776  17.891   4.648
68613W        W37007   6.874  39.113  12.390
68614W        W37008  40.970  35.667  14.269
68615W        W37009  26.755  42.069   2.273
68616W        W37010   8.278  15.145  12.801
68617W        W37011  32.162  29.029   0.859
68618W        W37012  25.293  35.028   4.153
68619W        W37013   6.985  21.577  14.539
68620W        W37014  21.543  31.590  13.007
68621W        W37015  26.908   4.948  12.055
68622W        W37016  40.457  40.609  10.822
68623W        W37017  43.798  25.412   2.739
68624W        W37018  12.798  11.203   3.271
68625W        W37019  30.261   9.812  14.376
68626W        W37020   9.126  15.873  12.150
68627W        W37021  39.301  25.077   0.028
68628W        W37022   9.747  40.548  12.101
68629W        W37023  18.980  19.134   0.736
68630W        W37024  18.023  12.837  13.490
68631W        W37025  20.744  29.649  10.499
68632W        W37026  38.937  40.378  12.792
68633W        W37027  10.133  44.683   3.602
68634W        W37028  13.799  40.926  14.977
68635W        W37029  13.031  28.641   0.988
68636W        W37030  25.725  18.971   2.514
68637W        W37031   5.537  13.935   2.261
68638W        W37032  22.932  14.277   3.987
68639W        W37033   6.756  15.738   0.720
68640W        W37034  41.776  19.598   0.320
68641W        W37035   7.160  38.681  12.494
68642W        W37036  25.505   9.160  12.961
68643W        W37037   0.789  36.098  13.163
68644W        W37038   0.643  32.137  12.502
68645W        W37039  17.610  36.372  13.633
68646W        W37040  22.405  36.460  11.211
68647W        W37041   0.649  22.965   3.131
68648W        W37042  22.719  35.369  14.324
68649W        W37043  32.627  37.376  10.684
68650W        W37044   6.280   7.927  10.362
68651W        W37045  13.904  13.111   0.761
68652W        W37046   5.808  14.392   2.380
68653W        W37047  36.707   1.329   0.829
68654W        W37048  17.988  37.682  11.805
68655W        W37049   7.301  30.901  14.442
68656W        W37050  44.877  24.944  14.467
68657W        W37051   1.141  11.900   0.285
68658W        W37052  34.887  16.096  14.306
68659W        W37053   1.853   7.348  11.562
68660W        W37054  10.103  18.570  10.701
68661W        W37055  40.955  29.936  10.801
68662W        W37056  43.225  14.660  12.263
68663W        W37057  20.012  12.054   1.680
68664W        W37058   4.354  30.436   0.335
68665W        W37059  16.063   3.912   1.319
68666W        W37060  10.934   6.252  11.935
68667W        W37061  38.588  33.535  13.979
68668W        W37062  34.818  11.623   1.383
68669W        W37063  28.598  40.084   3.375
68670W        W37064  19.156  31.989  12.102
68671W        W37065  32.208  19.161   4.658
68672W        W37066  21.069  39.406  14.356
68673W        W37067   5.906  26.433   3.121
68674W        W37068   8.571  15.183   1.844
68675W        W37069  41.616  19.743  11.688
68676W        W37070  26.844  21.950  14.443
68677W        W37071   2.993  38.781   4.070
68678W        W37072  34.045  27.706   3.276
68679W        W37073  40.153  22.973   0.783
68680W        W37074   0.234  40.482   4.183
68681W        W37075  31.647   4.669  11.548
68682W        W37076  11.372  43.266   0.753
68683W        W37077  34.457   6.792  14.795
68684W        W37078   5.095  28.684  11.438
68685W        W37079  29.147  12.609   4.047
68686W        W37080   2.856  12.751  14.004
68687W        W37081  25.668  39.331   0.475
68688W        W37082  24.084  25.704  12.206
68689W        W37083  21.471  43.961  12.019
68690W        W37084  14.879   5.880   1.516
68691W        W37085  20.295  24.539  12.361
68692W        W37086  29.372   6.601   1.912
68693W        W37087  31.066  26.652  12.937
68694W        W37088   0.490  43.997   2.275
68695W        W37089   9.935  14.895  14.398
68696W        W37090  30.387  15.035   1.981
68697W        W37091  29.288  16.814  12.472
68698W        W37092  41.660  22.986   4.638
68699W        W37093  34.449  30.222  11.221
68700W        W37094  13.068  32.469  13.914
68701W        W37095  11.475  15.982   2.155
68702W        W37096  33.814  35.115   4.129
68703W        W37097  35.351   1.473  11.172
68704W        W37098  11.854  17.267   4.061
68705W        W37099   4.975  36.581   4.348
68706W        W37100   6.991  21.103  13.848
68707W        W37101  39.366   3.535   3.169
68708W        W37102   5.711   5.995   4.097
68709W        W37103  21.214   5.345  13.633
68710W        W37104  31.699  32.764  10.806
68711W        W37105   9.292  40.364   0.050
68712W        W37106  15.863  36.400  10.950
68713W        W37107  28.426  30.035  14.146
68714W        W37108  13.368  40.145   4.218
68715W        W37109   7.476  18.662  12.984
68716W        W37110  12.752  38.880   2.137
68717W        W37111   4.796  43.948   3.570
68718W        W37112  33.121  42.000  11.599
68719W        W37113   2.492  32.555   4.629
68720W        W37114  42.464  20.207   1.011
68721W        W37115   0.425  12.763  11.294
68722W        W37116  21.242  33.651  12.345
68723W        W37117   7.565  11.310   0.412
68724W        W37118  36.118  25.729  11.396
68725W        W37119  44.625  39.186   2.214
68726W        W37120  22.010  13.661  14.433
68727W        W37121  34.417  14.252   4.381
68728W        W37122  30.437  16.499  14.458
68729W        W37123  24.506  34.990   4.687
68730W        W37124  42.315  34.569  12.872
68731W        W37125  19.727  17.102   0.367
68732W        W37126  16.743  12.125   3.729
68733W        W37127  30.934  20.531   3.313
68734W        W37128   6.956  37.545  14.346
68735W        W37129  42.835   9.268   0.983
68736W        W37130  36.362   0.740  12.537
68737W        W37131  38.298  36.541  11.475
68738W        W37132   6.137  31.404  13.863
68739W        W37133   0.738  36.461  10.977
68740W        W37134   2.491  42.453   4.746
68741W        W37135  18.102  40.978  10.737
68742W        W37136   1.280  38.299  12.133
68743W        W37137  35.592  35.044  10.939
68744W        W37138  19.459  15.674  12.456
68745W        W37139  40.526  18.590  11.682
68746W        W37140  13.708  23.432  10.567
68747W        W37141  13.280  19.759   1.373
68748W        W37142  21.685  26.598  12.050
68749W        W37143  27.478  39.968   3.742
68750W        W37144  11.675  32.122  14.085
68751W        W37145  39.546   6.473  12.995
68752W        W37146  17.544  24.642  14.602
68753W        W37147  19.098  35.361  11.519
68754W        W37148   9.643  11.792   0.990
68755W        W37149   3.740   9.402  12.115
68756W        W37150  17.015  37.499   2.267
68757W        W37151  23.817  38.850   1.653
68758W        W37152  40.044   5.931  14.236
68759W        W37153  16.660   4.022   4.118
68760W        W37154  27.668  10.142  14.404
68761W        W37155  24.705  26.467   0.424
68762W        W37156  33.502   6.910  14.906
68763W        W37157  24.796  39.316  11.441
68764W        W37158  29.878  14.161   4.206
68765W        W37159  16.110  43.110   4.401
68766W        W37160  32.353   6.878   2.386
68767W        W37161   9.206   2.922   1.925
68768W        W37162  38.820   7.668  13.422
68769W        W37163  14.986  32.137   1.043
68770W        W37164   0.903  21.309   0.513
68771W        W37165  21.977  38.600   1.747
68772W        W37166   3.853   3.856   5.032
68773W        W37167   3.346  30.519   4.856
68774W        W37168  42.336  36.405   2.889
68775W        W37169  44.792  38.023   4.678
68776W        W37170  21.156  19.607   3.176
68777W        W37171  14.206  24.133  10.691
68778W        W37172  16.691  20.625   2.685
68779W        W37173  25.221   1.833  13.971
68780W        W37174  21.087  33.854   2.478
68781W        W37175  21.626  39.506  14.999
68782W        W37176  24.710  10.244  12.547
68783W        W37177  37.602  20.435  14.762
68784W        W37178   1.750  10.928  14.870
68785W        W37179  34.573  34.441  11.404
68786W        W37180  10.307  35.951   0.501
68787W        W37181  15.235   7.214  12.517
68788W        W37182  25.568  25.150  12.855
68789W        W37183  33.406  28.874  12.064
68790W        W37184  41.347  13.186   2.310
68791W        W37185   3.327  23.203  14.401
68792W        W37186  18.794  24.624  13.415
68793W        W37187  36.624  27.040  14.788
68794W        W37188  17.223  31.916  13.988
68795W        W37189  16.303  25.881   1.423
68796W        W37190  16.713  11.189   4.596
68797W        W37191   0.524  26.981  14.820
68798W        W37192   6.261  41.250  10.751
68799W        W37193  23.295  33.065  12.816
68800W        W37194  11.686  20.089  10.762
68801W        W37195  32.024   9.572   0.597
68802W        W37196  18.257  29.992  10.783
68803W        W37197  20.128  22.317  12.117
68804W        W37198  15.012  29.496   4.632
68805W        W37199   4.045   0.559   0.390
68806W        W37200  37.513  15.286  12.472
68807W        W37201  27.564  28.996  13.748
68808W        W37202  26.480  27.743  14.943
68809W        W37203   1.057  25.436  12.560
68810W        W37204   2.586  37.257   4.118
68811W        W37205  22.204  25.781  13.588
68812W        W37206   5.164   9.355   2.723
68813W        W37207  31.097  38.416  11.856
68814W        W37208   6.821  40.757  13.477
68815W        W37209  43.558  26.731   4.594
68816W        W37210  42.432   6.769   2.358
68817W        W37211  17.951  27.617   3.997
68818W        W37212  37.300  18.833   0.253
68819W        W37213  16.294  42.735  14.363
68820W        W37214  13.723   2.717   0.022
68821W        W37215  35.454  10.609   3.079
68822W        W37216  31.628  23.171  10.190
68823W        W37217  28.464  35.870   2.658
68824W        W37218  36.736  23.515  12.873
68825W        W37219  26.946   7.178   0.857
68826W        W37220  16.198   9.723   2.393
68827W        W37221   4.258  41.480   1.137
68828W        W37222  18.312  12.144  11.475
68829W        W37223   8.287   2.223   2.398
68830W        W37224  24.674  24.228   4.864
68831W        W37225  26.719   5.143  14.102
68832W        W37226  24.566  31.119  12.042
68833W        W37227  25.508  12.648   1.505
68834W        W37228  28.482  26.574  10.369
68835W        W37229  35.840  27.841  11.221
68836W        W37230  37.969   1.664   2.799
68837W        W37231  28.933  18.556  13.070
68838W        W37232  18.617  28.986   0.510
68839W        W37233  38.698   9.751   4.630
68840W        W37234  30.965  31.338   4.808
68841W        W37235  33.037  38.004  11.619
68842W        W37236  40.898   0.775   4.689
68843W        W37237   7.409  10.450  13.814
68844W        W37238  11.760  35.782   3.617
68845W        W37239  10.759  38.317   3.082
68846W        W37240  33.461   3.413   3.919
68847W        W37241  39.016  10.405  12.871
68848W        W37242  34.520  16.675   0.687
68849W        W37243  19.338  44.974   2.936
68850W        W37244  10.292  14.529   2.977
68851W        W37245  33.905  43.309   3.091
68852W        W37246  13.375  25.172  10.401
68853W        W37247  23.603  10.713   4.042
68854W        W37248  17.335   7.228   0.766
68855W        W37249  39.613  35.199   3.109
68856W        W37250   2.967  40.784  12.522
68857W        W37251  33.338  34.730  14.933
68858W        W37252  15.749  24.360   2.201
68859W        W37253   8.315   3.485   1.807
68860W        W37254  34.566  43.387  14.669
68861W        W37255  33.134  16.072  12.032
68862W        W37256   9.845  33.013  14.357
68863W        W37257   6.393  23.760   5.395
68864W        W37258  12.633  36.075  12.526
68865W        W37259  24.954  35.882   0.038
68866W        W37260  11.406  30.678   0.762
68867W        W37261  16.042  34.399  10.500
68868W        W37262  32.834  30.484   2.888
68869W        W37263  19.614  20.003   1.920
68870W        W37264  35.855  31.345  12.979
68871W        W37265  25.532   6.857  14.745
68872W        W37266  31.980  11.825  12.833
68873W        W37267  14.691   4.708  10.302
68874W        W37268  33.449  21.649  12.874
68875W        W37269   4.756  16.249  10.287
68876W        W37270  21.173  32.985   2.070
68877W        W37271  30.525  32.775   1.245
68878W        W37272  29.094  26.257  12.957
68879W        W37273   4.947  15.763   4.096
68880W        W37274  26.241   5.938  12.922
68881W        W37275  24.205   4.997   4.601
68882W        W37276  31.871  43.543   2.186
68883W        W37277  39.985  16.631   0.457
68884W        W37278  19.474  37.369   2.411
68885W        W37279  26.509  36.305   0.772
68886W        W37280  39.439  14.306   4.504
68887W        W37281  16.351  17.769   3.074
68888W        W37282  22.749  35.770   0.311
68889W        W37283   4.423  40.968  11.700
68890W        W37284  43.042  31.363  13.848
68891W        W37285   9.751  25.844   0.727
68892W        W37286  39.298   1.308  14.706
68893W        W37287   1.188  37.066  13.463
68894W        W37288   8.152   6.418   4.605
68895W        W37289  32.139  38.220   4.146
68896W        W37290  11.325   7.710   3.129
68897W        W37291  40.851  43.588  13.815
68898W        W37292  26.483   9.268   3.555
68899W        W37293  24.696  26.218  12.024
68900W        W37294  19.839  41.034  11.200
68901W        W37295  44.750  15.121   0.734
68902W        W37296  24.794  41.219   3.345
68903W        W37297  42.965  31.844   0.362
68904W        W37298  22.833  12.163  12.095
68905W        W37299  30.804  12.852  13.293
68906W        W37300   0.779   1.727  11.996
68907W        W37301  27.572  27.373  11.937
68908W        W37302  15.293  10.337  12.565
68909W        W37303  44.546  42.143  11.846
68910W        W37304  25.618  19.768   3.823
68911W        W37305   6.615  11.609  11.254
68912W        W37306  13.177   0.966   2.402
68913W        W37307  24.995  23.270  10.447
68914W        W37308   7.832   3.700   3.223
68915W        W37309   7.288  43.254   1.662
68916W        W37310  41.326   9.145  14.793
68917W        W37311   7.277  27.676   2.215
68918W        W37312  27.405   4.465   3.367
68919W        W37313  18.042  25.671  12.664
68920W        W37314  13.579  30.518  11.169
68921W        W37315  25.162   9.934   3.040
68922W        W37316  20.588   4.262   1.756
68923W        W37317  27.833  15.682  12.997
68924W        W37318  39.517  18.355  11.143
68925W        W37319   5.127  11.588   2.961
68926W        W37320   7.967   6.497  14.444
68927W        W37321  19.772   4.299  11.270
68928W        W37322  35.488  26.711  11.874
68929W        W37323  17.750  13.255   4.067
68930W        W37324  31.293  11.433   4.190
68931W        W37325  23.516  39.583  12.148
68932W        W37326  28.359  44.899   2.108
68933W        W37327   8.791  10.321  12.194
68934W        W37328  11.816  19.636  10.516
68935W        W37329  29.610  15.077   1.835
68936W        W37330  37.450  36.630   2.956
68937W        W37331  19.616  30.978   0.711
68938W        W37332  43.933  35.297  14.128
68939W        W37333   8.154  35.502   0.948
68940W        W37334  37.960  40.566  13.039
68941W        W37335   1.728   7.230   2.258
68942W        W37336  39.106  38.064   1.896
68943W        W37337  21.668   4.089   3.368
68944W        W37338  41.904   1.552  12.274
68945W        W37339   6.886   3.120   3.598
68946W        W37340  11.892   3.301  10.977
68947W        W37341  18.280  16.786  11.199
68948W        W37342  12.017  11.655  10.503
68949W        W37343  18.825  18.307   3.100
68950W        W37344  22.122  37.389   3.596
68951W        W37345  25.948  29.257   2.423
68952W        W37346  16.664  44.749   1.177
68953W        W37347   2.409   9.597  12.550
68954W        W37348   5.192   8.144  11.136
68955W        W37349   8.125  44.286  10.811
68956W        W37350   7.653  27.482   0.955
68957W        W37351   8.407   1.554  11.614
68958W        W37352  22.621  17.508   2.353
68959W        W37353  33.521  44.548   2.809
68960W        W37354  31.037  20.183   3.697
68961W        W37355  30.566  30.199  11.059
68962W        W37356  44.535  44.646   4.593
68963W        W37357  12.056  31.486   4.203
68964W        W37358  13.353  33.084   3.644
68965W        W37359  17.386  26.947   3.105
68966W        W37360  37.105  43.654  10.928
68967W        W37361  43.665  19.307  11.575
68968W        W37362  38.444  37.283   1.045
68969W        W37363  42.739  42.066   3.335
68970W        W37364  32.890   7.586   2.097
68971W        W37365   7.356   6.287  13.753
68972W        W37366  30.479  18.873  10.867
68973W        W37367  37.851  20.500  13.035
68974W        W37368  19.083  18.360  14.302
68975W        W37369  29.022  36.063  14.807
68976W        W37370  14.168   3.617  14.479
68977W        W37371  20.785  29.378  13.382
68978W        W37372  28.435  23.724  13.779
68979W        W37373  40.357  33.074   3.374
68980W        W37374  10.946  27.109  11.562
68981W        W37375  33.370  32.618  14.896
68982W        W37376  36.017  24.937   0.932
68983W        W37377  16.101   7.894   2.538
68984W        W37378  15.217   0.365   3.680
68985W        W37379  18.676  20.213  14.062
68986W        W37380  37.840   9.176  14.682
68987W        W37381  34.018  27.930  12.942
68988W        W37382  27.272  33.827  12.077
68989W        W37383  23.801  32.560  14.875
68990W        W37384   8.571  32.566   2.813
68991W        W37385  44.380   9.156   0.925
68992W        W37386   2.105  43.726  12.927
68993W        W37387   8.784   8.940  11.055
68994W        W37388  20.913  25.818   4.842
68995W        W37389  29.559  29.886  11.956
68996W        W37390  25.010  44.263   4.029
68997W        W37391  23.799  22.559  11.611
68998W        W37392  12.329  21.681   2.151
68999W        W37393  14.094   1.945  11.430
69000W        W37394  14.317  35.766   2.195
69001W        W37395   4.184  42.347   3.225
69002W        W37396  25.392   1.454  13.660
69003W        W37397  23.075  35.673  14.049
69004W        W37398   5.009  17.975   4.640
69005W        W37399   6.670   3.037   2.445
69006W        W37400  27.154  38.544  13.550
69007W        W37401  31.882  33.853   2.794
69008W        W37402   7.176   5.823  13.886
69009W        W37403  23.909  18.228  10.175
69010W        W37404  44.013  42.719  11.507
69011W        W37405  16.131   1.583  13.849
69012W        W37406  24.397  43.311  12.086
69013W        W37407  10.649  41.427  10.409
69014W        W37408  39.064  37.715  13.479
69015W        W37409  31.513  15.328  12.102
69016W        W37410  32.111   1.248  11.735
69017W        W37411  40.429  44.268   0.238
69018W        W37412  16.618  31.458  10.691
69019W        W37413  20.438  14.232   3.924
69020W        W37414  38.912  17.532   2.828
69021W        W37415  43.833  11.841  14.806
69022W        W37416  34.145  26.010   2.631
69023W        W37417  13.939   3.591   4.985
69024W        W37418  35.968  32.995  11.188
69025W        W37419   6.338   6.875   2.216
69026W        W37420  36.997   1.886  13.613
69027W        W37421  25.673  10.096  10.623
69028W        W37422   9.649  17.455   3.289
69029W        W37423  13.343  44.960  10.859
69030W        W37424  42.265  37.133   4.563
69031W        W37425  31.815  42.352  12.552
69032W        W37426  41.591  38.393  13.088
69033W        W37427  25.203  26.056   0.579
69034W        W37428  43.450   2.185  14.952
69035W        W37429  37.985  21.966  14.589
69036W        W37430   6.138  36.136   2.716
69037W        W37431   4.468  12.266   0.901
69038W        W37432  32.007  29.690  12.792
69039W        W37433  43.336   5.748  14.888
69040W        W37434  44.819  29.465  10.968
69041W        W37435  15.593  36.239   0.499
69042W        W37436  38.458   9.733  11.685
69043W        W37437  17.874   8.080   5.476
69044W        W37438  31.478   6.925   4.313
69045W        W37439  36.699  36.424   3.283
69046W        W37440  32.342  31.246  13.477
69047W        W37441   8.184   5.765  13.498
69048W        W37442  32.893  43.247   1.775
69049W        W37443   4.681  41.910   3.825
69050W        W37444   2.931  42.749   4.803
69051W        W37445  34.187   4.849  10.782
69052W        W37446  39.638   6.418   0.810
69053W        W37447  22.712  28.814  12.283
69054W        W37448  18.909  29.588   1.337
69055W        W37449  25.303  25.876   2.226
69056W        W37450  32.926  42.898   2.883
69057W        W37451   0.797   2.439   3.341
69058W        W37452  40.738  12.238  10.918
69059W        W37453  36.450   5.098   4.145
69060W        W37454   1.651  41.888   3.188
69061W        W37455  28.201  42.448  11.982
69062W        W37456  27.165  43.537   4.047
69063W        W37457  16.298  33.008   3.876
69064W        W37458  40.932  41.041  13.466
69065W        W37459  28.341   7.715   4.833
69066W        W37460  33.589   8.810   0.772
69067W        W37461  24.613  24.161   0.776
69068W        W37462  44.520   2.116   2.127
69069W        W37463  15.000  42.004  13.338
69070W        W37464   0.342  36.507   4.626
69071W        W37465  33.907  23.065   2.433
69072W        W37466  36.678  10.095  12.927
69073W        W37467  13.308  28.740  12.049
69074W        W37468  41.904  22.806   0.432
69075W        W37469  41.438  19.808   3.132
69076W        W37470  14.483  31.658  13.386
69077W        W37471  31.590   8.883   0.270
69078W        W37472  41.040  22.463  12.618
69079W        W37473  43.293  42.137  10.830
69080W        W37474  13.156  17.659  11.224
69081W        W37475  40.976  12.257   0.238
69082W        W37476  24.563  22.037   2.190
69083W        W37477  28.674  37.874  14.964
69084W        W37478  17.755  32.110   0.305
69085W        W37479  36.105   7.948  12.645
69086W        W37480  30.682  28.455   3.325
69087W        W37481  10.263  43.974   4.756
69088W        W37482   7.427  33.508   0.850
69089W        W37483  44.603  23.725  10.512
69090W        W37484  41.133  11.355  10.840
69091W        W37485  37.988  43.999   3.696
69092W        W37486   1.288  37.005   4.747
69093W        W37487  28.359  24.412   0.846
69094W        W37488  40.831  31.933   4.730
69095W        W37489  18.164  35.638   3.833
69096W        W37490  23.947   9.741  13.319
69097W        W37491  38.652   6.380   0.892
69098W        W37492  14.612  32.046  11.535
69099W        W37493  26.035  42.426  10.536
69100W        W37494  24.138  11.637   0.919
69101W        W37495  37.895  44.488  13.507
69102W        W37496  14.649  43.089  13.775
69103W        W37497  43.210  42.365   4.969
69104W        W37498  43.578  24.592   1.420
69105W        W37499  12.144  19.738   2.333
69106W        W37500  43.198  17.033   1.830
69107W        W37501  37.443   4.241  12.063
69108W        W37502  37.224   6.336  13.644
69109W        W37503  27.169  22.503  14.933
69110W        W37504  23.305  43.496   2.229
69111W        W37505  32.392   6.741   4.761
69112W        W37506  23.042  15.106  11.386
69113W        W37507  41.395  31.870   1.917
69114W        W37508  38.055  15.467   1.281
69115W        W37509  39.359   4.482  12.990
69116W        W37510  29.095  41.811  12.077
69117W        W37511  41.878  21.228   1.427
69118W        W37512  21.670  28.482   2.396
69119W        W37513  10.841  32.422  12.032
69120W        W37514  31.026  32.320   0.908
69121W        W37515  23.692   5.676   0.853
69122W        W37516  24.579  13.582   4.612
69123W        W37517   6.329   1.750   3.715
69124W        W37518  29.372  19.507  13.645
69125W        W37519  24.001  15.711   3.136
69126W        W37520  44.569  38.952   4.611
69127W        W37521  29.513  35.301   2.357
69128W        W37522   6.610  43.013   0.313
69129W        W37523   2.481  15.657   3.602
69130W        W37524  24.323   5.410  10.608
69131W        W37525  39.544  24.035  12.441
69132W        W37526  37.264  33.811   4.282
69133W        W37527   9.975   8.703   3.933
69134W        W37528  35.998  44.826   4.568
69135W        W37529   0.702  27.131   3.373
69136W        W37530  10.980   8.095  13.826
69137W        W37531   2.504  42.355  12.907
69138W        W37532   8.719  11.188  12.641
69139W        W37533  18.546  10.449   2.207
69140W        W37534  33.531  22.729   2.664
69141W        W37535  21.929   7.709   4.001
69142W        W37536  34.977   0.204  10.689
69143W        W37537  29.486  26.645   0.109
69144W        W37538  20.732  33.926   5.034
69145W        W37539   9.848  35.133   4.888
69146W        W37540  18.141  44.773  14.987
69147W        W37541  31.221  32.869  14.942
69148W        W37542  11.551  13.596  13.388
69149W        W37543  11.995  30.406   4.979
69150W        W37544   1.045   8.329  12.090
69151W        W37545  26.872  17.655  12.495
69152W        W37546  39.545  35.385  13.398
69153W        W37547   7.904  25.754   3.686
69154W        W37548  16.134  23.217   4.258
69155W        W37549  26.181  12.190   0.279
69156W        W37550   1.502  33.942   4.596
69157W        W37551  26.595  40.020  13.951
69158W        W37552   2.356  36.356   1.533
69159W        W37553   4.179  37.851  13.457
69160W        W37554   7.310  20.381  10.989
69161W        W37555  26.576  17.055  10.771
69162W        W37556  31.304  12.720   0.642
69163W        W37557  23.609  30.898   0.548
69164W        W37558  13.227   1.439   4.559
69165W        W37559  19.959  18.558   2.257
69166W        W37560  13.115  20.355   2.916
69167W        W37561  44.979   4.945   2.380
69168W        W37562  16.259  22.541   4.908
69169W        W37563   6.872  39.881  11.124
69170W        W37564  19.089  21.314  10.382
69171W        W37565  28.234  19.799  11.258
69172W        W37566  39.073  34.490   0.900
69173W        W37567  20.741  35.489   4.596
69174W        W37568  33.683  13.634  14.540
69175W        W37569   9.259  36.393  12.075
69176W        W37570  26.117   7.641   4.619
69177W        W37571  13.545   4.856   0.064
69178W        W37572  38.924  20.860   2.735
69179W        W37573  35.139  31.583  11.704
69180W        W37574   7.456  40.545   4.152
69181W        W37575  43.058  36.187  10.383
69182W        W37576  42.406  20.008  11.441
69183W        W37577  34.707  27.310  12.097
69184W        W37578  29.693  42.922   0.754
69185W        W37579  27.242  36.969   3.146
69186W        W37580  35.080  11.514   4.610
69187W        W37581  19.206  22.278   1.348
69188W        W37582  43.126   9.810  13.284
69189W        W37583  27.998  24.071  12.561
69190W        W37584  10.296  32.996   4.351
69191W        W37585   7.805  44.531   0.576
69192W        W37586  18.666  12.276   3.821
69193W        W37587  17.152  12.803   4.537
69194W        W37588  41.707   9.798   0.435
69195W        W37589  30.393  17.236   2.284
69196W        W37590   8.885  13.562   0.216
69197W        W37591  25.870  30.556  14.608
69198W        W37592  11.658  12.717  12.391
69199W        W37593   3.990  31.362   4.206
69200W        W37594  42.852  26.062   0.899
69201W        W37595  29.064  32.827  11.242
69202W        W37596   9.772  16.632   0.134
69203W        W37597  34.023   0.990  12.058
69204W        W37598  11.621  17.405  11.250
69205W        W37599  29.016   8.687  13.109
69206W        W37600   3.301  40.256   5.046
69207W        W37601  23.276   3.931  13.829
69208W        W37602  24.104  29.223  13.848
69209W        W37603   3.328  35.436  13.910
69210W        W37604  37.467  23.298   0.976
69211W        W37605  33.604   8.645   5.245
69212W        W37606  39.913   1.326  11.820
69213W        W37607  21.172   3.219   1.196
69214W        W37608   1.515  27.943   0.898
69215W        W37609  43.744  33.280  14.404
69216W        W37610   0.442  39.462  12.134
69217W        W37611  24.209   8.921   3.598
69218W        W37612   4.904  13.251   0.759
69219W        W37613  27.141  41.086  12.612
69220W        W37614  38.160  20.274   3.679
69221W        W37615  32.799  11.729   3.142
69222W        W37616  43.540  24.994   4.112
69223W        W37617   6.810  38.260  13.039
69224W        W37618  40.096  33.544  10.144
69225W        W37619  37.355  37.672  12.953
69226W        W37620  31.534  34.397  11.957
69227W        W37621  19.297   8.383   3.895
69228W        W37622  19.017  43.130   0.792
69229W        W37623  22.517  43.107  12.604
69230W        W37624   0.211  10.381  13.813
69231W        W37625  20.758  17.062  11.083
69232W        W37626  11.445  10.936   3.281
69233W        W37627  41.852  40.910   1.953
69234W        W37628  27.873  11.193   4.060
69235W        W37629  16.089  19.479   1.326
69236W        W37630  30.130   1.495   0.969
69237W        W37631  36.241  13.168  12.431
69238W        W37632  26.129  29.852   1.282
69239W        W37633  38.064  39.171   3.213
69240W        W37634  14.445   3.268   3.432
69241W        W37635  15.265  44.342  13.324
69242W        W37636  31.590  21.410   0.811
69243W        W37637  19.336  43.582   3.277
69244W        W37638  32.005   4.166  10.895
69245W        W37639  33.747  22.832   1.846
69246W        W37640   0.708  40.727  11.544
69247W        W37641  15.160   8.217  14.426
69248W        W37642  26.096   3.706   4.973
69249W        W37643   1.986   9.092  11.458
69250W        W37644  18.843  31.121   3.710
69251W        W37645  14.066  38.034  11.185
69252W        W37646   4.755  13.620  13.764
69253W        W37647  32.427  20.787   1.961
69254W        W37648   7.787  17.833   3.660
69255W        W37649  12.717  30.557  11.545
69256W        W37650  10.753  44.950  14.310
69257W        W37651   3.420  29.030  11.199
69258W        W37652   0.041  24.131   2.377
69259W        W37653  36.087  29.207   3.204
69260W        W37654  27.447  22.193   2.385
69261W        W37655  16.171   5.798  11.069
69262W        W37656  18.134  24.328  11.985
69263W        W37657   9.324  42.770   2.212
69264W        W37658  10.607  30.211  12.407
69265W        W37659  15.736  15.248   3.784
69266W        W37660  31.591  33.518   3.677
69267W        W37661   6.182  28.633   0.901
69268W        W37662   1.386  34.826  14.480
69269W        W37663  22.999   0.766   3.240
69270W        W37664  36.931  40.468   0.840
69271W        W37665  19.285  16.718   4.959
69272W        W37666  28.586   2.839   4.155
69273W        W37667   2.166   2.316   3.768
69274W        W37668  14.764   2.056  10.379
69275W        W37669   1.361  13.132  10.464
69276W        W37670   9.290  20.604   1.385
69277W        W37671  30.758  43.392  12.450
69278W        W37672  42.951  14.947  11.444
69279W        W37673   4.189  40.038  11.620
69280W        W37674  38.511  35.325   4.133
69281W        W37675  33.465  14.604   3.634
69282W        W37676  37.783  13.976   1.238
69283W        W37677  11.276  17.678  13.900
69284W        W37678   9.933  11.172  14.963
69285W        W37679  22.407  36.452   2.206
69286W        W37680  27.462  20.137  11.788
69287W        W37681  21.073  37.137  12.568
69288W        W37682  11.039  15.881  10.539
69289W        W37683   7.915   2.667   0.202
69290W        W37684  11.507  42.529   0.259
69291W        W37685  20.657  33.142  11.978
69292W        W37686   1.233   7.358   0.142
69293W        W37687   9.098  21.251   4.590
69294W        W37688  40.009  35.367   2.385
69295W        W37689  23.941  35.633  10.703
69296W        W37690  37.101  33.240   1.466
69297W        W37691   4.300  41.587  13.073
69298W        W37692   0.072  31.976   2.254
69299W        W37693  13.396  13.096  12.416
69300W        W37694  21.795  13.284  12.630
69301W        W37695  23.747   9.492   4.908
69302W        W37696  34.555  12.349  13.166
69303W        W37697  14.143  27.651   4.515
69304W        W37698  10.299  36.149  12.194
69305W        W37699  40.782  41.588  10.750
69306W        W37700  18.399  20.130  13.624
69307W        W37701   4.396   0.242  10.884
69308W        W37702  19.355   3.241   3.334
69309W        W37703   9.870  34.823   1.629
69310W        W37704  11.578  26.063   4.638
69311W        W37705  42.337  43.417   2.092
69312W        W37706  43.040  18.157  10.859
69313W        W37707  31.924  28.221   2.263
69314W        W37708   9.729  22.943  14.304
69315W        W37709  32.047  18.061  10.423
69316W        W37710  24.862   9.189   4.970
69317W        W37711   6.658  35.837  11.592
69318W        W37712  11.587  28.780  11.348
69319W        W37713  32.987  25.298  11.434
69320W        W37714  26.117  36.969  12.596
69321W        W37715   2.404  18.302   0.435
69322W        W37716  44.255  20.229  12.500
69323W        W37717  38.376  40.104  12.999
69324W        W37718  36.880   6.959   1.630
69325W        W37719  35.923   2.892   2.817
69326W        W37720  18.198  21.791   0.888
69327W        W37721  25.558  39.862  11.633
69328W        W37722  37.998   9.355   4.626
69329W        W37723  17.059  10.325  10.655
69330W        W37724   4.139  20.888   2.881
69331W        W37725  36.338  44.941  12.097
69332W        W37726  19.251  25.598   9.859
69333W        W37727   2.591  23.700   2.553
69334W        W37728   4.141  43.001   1.175
69335W        W37729  21.774  39.950  12.321
69336W        W37730  28.590  13.836   0.368
69337W        W37731  26.000  22.143   3.296
69338W        W37732   9.158  10.226   0.922
69339W        W37733   6.100  15.485  13.436
69340W        W37734  13.186  10.851   4.097
69341W        W37735  15.154  19.632   0.185
69342W        W37736  25.299   6.379  14.795
69343W        W37737   8.643  29.082   0.812
69344W        W37738  15.657  20.230   2.777
69345W        W37739  35.884  10.328  13.452
69346W        W37740  17.260  24.308  10.668
69347W        W37741  33.785  29.629   0.805
69348W        W37742   3.728  30.885  11.140
69349W        W37743  28.199  41.252  13.015
69350W        W37744  29.192  32.188   4.654
69351W        W37745  44.872  20.741   2.345
69352W        W37746  42.534   5.649  12.805
69353W        W37747  30.064  41.779   2.352
69354W        W37748  33.488  20.942   4.973
69355W        W37749  27.361  24.174   4.534
69356W        W37750  15.189  15.426  14.820
69357W        W37751  10.223   8.488   0.943
69358W        W37752   1.397  37.520   4.808
69359W        W37753  20.394   7.760   1.785
69360W        W37754  14.673  31.144   3.154
69361W        W37755  35.252   1.357  14.565
69362W        W37756   3.752  24.560  10.451
69363W        W37757  12.874  30.429  10.602
69364W        W37758  16.632   9.678  10.668
69365W        W37759   2.689  17.220  12.839
69366W        W37760  27.411  25.508  14.722
69367W        W37761  24.294  35.140   4.228
69368W        W37762  20.180  40.373   4.601
69369W        W37763  22.749  22.777   0.885
69370W        W37764  30.630  34.971   3.840
69371W        W37765  36.225  12.654   1.173
69372W        W37766  28.541   0.883  12.832
69373W        W37767  14.117   0.459   4.365
69374W        W37768  36.575  38.041  10.662
69375W        W37769   3.194  12.538   2.780
69376W        W37770   4.747  31.928   3.262
69377W        W37771  41.393   2.920   0.965
69378W        W37772  13.293  26.826   3.740
69379W        W37773  31.385  12.786   3.398
69380W        W37774  25.697  41.934  11.215
69381W        W37775  28.233  20.653   2.797
69382W        W37776  19.373  18.208  14.709
69383W        W37777  12.536  12.660   2.940
69384W        W37778   7.116  29.175  13.166
69385W        W37779  34.913   1.781  10.844
69386W        W37780  11.827  40.353  14.798
69387W        W37781  42.999  18.718  13.109
69388W        W37782  18.016  40.775  12.565
69389W        W37783  35.405  13.227  12.839
69390W        W37784  25.516  41.042   2.234
69391W        W37785  14.802  15.625  14.043
69392W        W37786  12.750  20.481   2.141
69393W        W37787  19.163  40.073  10.882
69394W        W37788  41.007  21.755   4.185
69395W        W37789  19.567  40.552   1.867
69396W        W37790  30.972  40.030   4.726
69397W        W37791  38.060  35.079   3.099
69398W        W37792  10.351   8.897  12.617
69399W        W37793   9.367  16.549   3.187
69400W        W37794  32.266  39.836  13.924
69401W        W37795  39.186  15.610   0.792
69402W        W37796  16.747  20.071  10.773
69403W        W37797  42.502  10.139   0.459
69404W        W37798   5.910  36.854  13.531
69405W        W37799  26.751  21.730   3.722
69406W        W37800   7.745   9.916   4.370
69407W        W37801   3.150  16.757  13.644
69408W        W37802  25.343  23.051   2.319
69409W        W37803  17.512  40.858  12.748
69410W        W37804   4.454  24.992   1.727
69411W        W37805  33.892  12.893   4.297
69412W        W37806  31.005  38.400   0.436
69413W        W37807  24.968  36.439  14.200
69414W        W37808  37.566   8.821   4.628
69415W        W37809  17.548  36.372  10.555
69416W        W37810  42.208  26.609   4.164
69417W        W37811  25.562  29.477   1.723
69418W        W37812  40.392  19.685   1.584
69419W        W37813  41.014   6.764   3.893
69420W        W37814   4.645  19.656   2.303
69421W        W37815  20.581  14.290   4.444
69422W        W37816   7.004  23.465   0.398
69423W        W37817  41.785  33.430   2.831
69424W        W37818  23.990   6.749   2.195
69425W        W37819   4.757  40.524  11.191
69426W        W37820  22.250  26.874   1.233
69427W        W37821  12.955  39.466   0.900
69428W        W37822  22.335   9.903   2.882
69429W        W37823  23.161  42.102   4.148
69430W        W37824   1.031  13.818  11.598
69431W        W37825  30.304   6.515   3.044
69432W        W37826  37.274  17.555  14.858
69433W        W37827  15.790  18.668   2.398
69434W        W37828   9.733  38.202  14.609
69435W        W37829  18.821  24.130  13.810
69436W        W37830  18.405  43.529   3.247
69437W        W37831   5.284  36.474   3.197
69438W        W37832  34.103  35.151   0.401
69439W        W37833  14.686   2.835  13.473
69440W        W37834  29.961  21.727   1.333
69441W        W37835  12.419  25.255  13.793
69442W        W37836   2.637  16.848   5.031
69443W        W37837  19.366  30.188   2.547
69444W        W37838  10.132  38.033  12.037
69445W        W37839  14.252  29.617  11.586
69446W        W37840  16.285  21.941  11.923
69447W        W37841  16.187  11.208   4.016
69448W        W37842  44.242  12.011  12.337
69449W        W37843  40.650  29.568  13.999
69450W        W37844  16.721   7.728   4.136
69451W        W37845  33.475   7.700  10.515
69452W        W37846  19.010   2.842   1.249
69453W        W37847  29.236  32.979   0.832
69454W        W37848   7.034  22.644   5.249
69455W        W37849  27.205  23.619   4.050
69456W        W37850  26.195  29.750  12.986
69457W        W37851  20.691  35.454   2.641
69458W        W37852  17.720  20.181   0.293
69459W        W37853  21.635  38.097   0.303
69460W        W37854  33.674   0.444  12.900
69461W        W37855  29.908  40.707   0.994
69462W        W37856  27.528  21.738   2.663
69463W        W37857  20.575  22.765   3.975
69464W        W37858  29.950  33.612  11.435
69465W        W37859  15.601  17.091  14.486
69466W        W37860   0.314  10.088  14.775
69467W        W37861  33.291   2.649  11.110
69468W        W37862   2.068  40.993   1.142
69469W        W37863  32.789   3.410   4.785
69470W        W37864  14.801  31.622  11.291
69471W        W37865  15.759  40.026   3.894
69472W        W37866   3.850  12.192   3.092
69473W        W37867  10.157   0.784   1.306
69474W        W37868  42.781  40.347  12.551
69475W        W37869   7.560  23.598  11.371
69476W        W37870  25.544  10.634  11.986
69477W        W37871  30.940  23.268   1.821
69478W        W37872  27.662  34.604   1.230
69479W        W37873  18.173   5.417   3.599
69480W        W37874  11.215  23.578  13.991
69481W        W37875  34.390   9.224   1.042
69482W        W37876   2.942  18.597  14.012
69483W        W37877  24.442   7.898  10.733
69484W        W37878  41.235   2.221   2.777
69485W        W37879  11.121  27.457  10.770
69486W        W37880  24.777  28.492  13.002
69487W        W37881  35.845  11.363   1.819
69488W        W37882  43.743  40.378  12.682
69489W        W37883  13.764   8.643  14.424
69490W        W37884  12.967  23.469   3.975
69491W        W37885  24.535   7.602  11.182
69492W        W37886  13.257  11.933  13.936
69493W        W37887  32.594  13.528  14.014
69494W        W37888  23.042  37.800   3.393
69495W        W37889  13.074  44.498  14.223
69496W        W37890  16.880  36.625  10.090
69497W        W37891  44.482   7.788   0.797
69498W        W37892  35.857  10.241  13.979
69499W        W37893  36.632   3.229  11.602
69500W        W37894  28.497  30.687  12.870
69501W        W37895  11.446   6.763  11.045
69502W        W37896  31.508  40.414   2.157
69503W        W37897  11.613  26.156  10.886
69504W        W37898  34.962   3.639  13.052
69505W        W37899  21.105  14.866   2.228
69506W        W37900   1.907  12.043   0.882
69507W        W37901  32.614   2.243   2.373
69508W        W37902  41.390   0.231  12.453
69509W        W37903  18.035  35.132  12.857
69510W        W37904  34.599  37.013   0.840
69511W        W37905  18.945  10.164  14.905
69512W        W37906  20.156  24.412   3.744
69513W        W37907  32.993  32.884  14.521
69514W        W37908  31.238  14.656   1.275
69515W        W37909  23.781  12.356   5.121
69516W        W37910  18.542   6.410   3.478
69517W        W37911  14.180  23.445   3.392
69518W        W37912  43.312  22.018  12.409
69519W        W37913  33.814  44.996  12.116
69520W        W37914  29.121  13.052   0.498
69521W        W37915   5.654   3.634  14.930
69522W        W37916  44.732   9.052  14.976
69523W        W37917  10.585  40.525  12.423
69524W        W37918  27.225  42.515  14.386
69525W        W37919  12.118   2.478   1.749
69526W        W37920  19.783  18.220   1.350
69527W        W37921  41.724  33.572  10.211
69528W        W37922   6.331  40.910   4.309
69529W        W37923   2.184  20.197   2.705
69530W        W37924  38.629   3.213  13.217
69531W        W37925  26.533  19.333  10.284
69532W        W37926  37.820  22.671   2.261
69533W        W37927  33.054  28.126   3.070
69534W        W37928  37.833  37.582  13.755
69535W        W37929  26.571   9.125  13.855
69536W        W37930  16.271  26.961   2.251
69537W        W37931  30.055  23.257   1.374
69538W        W37932  42.844  30.306  13.609
69539W        W37933  10.166  13.818  13.925
69540W        W37934  37.362  42.202   1.270
69541W        W37935  38.305  42.509   4.538
69542W        W37936  37.810  26.974   3.311
69543W        W37937  23.316  41.152  14.822
69544W        W37938  38.008  14.162   0.800
69545W        W37939  43.862  25.386  11.183
69546W        W37940   0.848  43.877   4.329
69547W        W37941  38.652  13.074  10.489
69548W        W37942  21.662   9.868   1.905
69549W        W37943  28.497  25.843  13.489
69550W        W37944  31.105  12.165  14.455
69551W        W37945  39.410  10.913  11.138
69552W        W37946  38.602  41.310  11.713
69553W        W37947  28.314  18.134   1.372
69554W        W37948  26.054  14.292   1.214
69555W        W37949  20.700  29.876   2.397
69556W        W37950  39.300   2.472   0.938
69557W        W37951   0.513  23.297  13.419
69558W        W37952   0.231  29.923   3.675
69559W        W37953  39.102  10.201   4.636
69560W        W37954  22.121  26.192  10.341
69561W        W37955  42.926   4.846   0.854
69562W        W37956  27.774  30.767   4.104
69563W        W37957  39.641   0.910  11.703
69564W        W37958  12.319  11.164  12.152
69565W        W37959  11.363  35.368  11.827
69566W        W37960   3.808  18.735  12.937
69567W        W37961  14.211  23.145   2.749
69568W        W37962   9.752  21.683   2.153
69569W        W37963  15.825  39.526  10.908
69570W        W37964  43.459   4.211  12.466
69571W        W37965   5.763  15.061   1.844
69572W        W37966  18.053  11.601   0.296
69573W        W37967   8.439   3.167  10.534
69574W        W37968   7.217  24.912   2.470
69575W        W37969  38.507  27.979   4.447
69576W        W37970  30.311   5.613   2.678
69577W        W37971  16.653   2.144  12.355
69578W        W37972  19.024  38.068   4.629
69579W        W37973  36.930  42.482   1.219
69580W        W37974  44.728  43.034  11.504
69581W        W37975  13.167  12.755  13.335
69582W        W37976  15.954  38.845   3.396
69583W        W37977  36.131  33.489  13.012
69584W        W37978   8.406  30.078  13.066
69585W        W37979  33.667   9.607  14.490
69586W        W37980  35.525  40.419   3.217
69587W        W37981  37.587  11.512   4.799
69588W        W37982   5.851  41.280   3.481
69589W        W37983  35.050   6.440  11.136
69590W        W37984  19.062   9.725   4.539
69591W        W37985  42.460  33.640   0.476
69592W        W37986   6.006   0.302  11.033
69593W        W37987  31.048  32.834   0.847
69594W        W37988  26.981  12.021  10.538
69595W        W37989  39.429   1.291   0.202
69596W        W37990  20.758  26.984   0.034
69597W        W37991  35.245   3.773   3.228
69598W        W37992  37.734  10.167   2.666
69599W        W37993  21.802  18.784   0.456
69600W        W37994  31.840   3.812  10.560
69601W        W37995   3.706  34.341  12.563
69602W        W37996  43.654   2.227  14.449
69603W        W37997  29.948  36.129  13.452
69604W        W37998  35.011  34.057   0.279
69605W        W37999  20.948  33.566  11.055
69606W        W38000  32.403   7.104  10.754
69607W        W38001  19.719   2.752  14.869
69608W        W38002  17.698  40.422   2.549
69609W        W38003  19.158  27.045   3.166
69610W        W38004  43.882  17.303   2.572
69611W        W38005   0.478  30.695  14.757
69612W        W38006  11.246  37.935  12.236
69613W        W38007   5.349  23.630   3.146
69614W        W38008  11.749  11.100   0.720
69615W        W38009  15.799  44.430   0.913
69616W        W38010  38.503  31.162   0.928
69617W        W38011  13.696   5.146  10.242
69618W        W38012   3.504  11.416  12.798
69619W        W38013  17.462  19.050   2.467
69620W        W38014   0.865  41.392   1.476
69621W        W38015   1.916  35.405  13.624
69622W        W38016  32.700  16.701   3.833
69623W        W38017  34.175  30.690   3.858
69624W        W38018  37.333  24.511   0.861
69625W        W38019  36.143  32.931   3.845
69626W        W38020  35.413   1.922  10.962
69627W        W38021  25.692  29.939  13.053
69628W        W38022  25.762  25.195  12.378
69629W        W38023  41.400  36.761  13.965
69630W        W38024  16.308  41.970   2.308
69631W        W38025  42.144  21.160  14.328
69632W        W38026   5.757   5.794   1.856
69633W        W38027   8.944  25.702   2.189
69634W        W38028   4.580   3.402   2.736
69635W        W38029  13.384   5.880  11.512
69636W        W38030  33.600  38.730   3.545
69637W        W38031  44.851  14.737  10.647
69638W        W38032   0.161  40.848  14.316
69639W        W38033   5.527  11.689   4.256
69640W        W38034  41.896   6.027   4.581
69641W        W38035  24.295  30.130   3.937
69642W        W38036  41.807  17.320   1.841
69643W        W38037  43.748  37.505   0.743
69644W        W38038  22.437  43.888  14.867
69645W        W38039   1.857  29.490   0.876
69646W        W38040  29.976   9.322   2.594
69647W        W38041  35.127  12.813  14.961
69648W        W38042  40.456  31.165  14.426
69649W        W38043  21.275  28.418  10.722
69650W        W38044  16.256   8.253  10.747
69651W        W38045  31.125  12.373  12.505
69652W        W38046  38.393  39.557   1.201
69653W        W38047  40.023   1.926   0.453
69654W        W38048  24.182  31.499  12.422
69655W        W38049   0.988  44.399   4.024
69656W        W38050  38.382  33.138  13.182
69657W        W38051   0.795  16.447  11.539
69658W        W38052  33.611  42.476  14.347
69659W        W38053  40.292  15.635   1.686
69660W        W38054   7.190  29.991  11.659
69661W        W38055   3.846  14.205  12.982
69662W        W38056  22.211   6.667   4.238
69663W        W38057  22.050   1.957  14.446
69664W        W38058  32.133  29.208   2.381
69665W        W38059  35.096   8.834  14.544
69666W        W38060  17.206  37.548  14.595
69667W        W38061   8.663  24.925   3.945
69668W        W38062  11.116  25.415  13.992
69669W        W38063  40.436  19.760   2.099
69670W        W38064  31.486  18.487   3.703
69671W        W38065  27.717   6.945   3.811
69672W        W38066  19.083  34.864   1.792
69673W        W38067  18.990  10.217  10.630
69674W        W38068  15.374   8.423  11.207
69675W        W38069  16.660  13.612   0.945
69676W        W38070  36.361  32.442  14.293
69677W        W38071  16.107   2.157  12.242
69678W        W38072  26.161  27.724  14.515
69679W        W38073  44.724  22.407  10.881
69680W        W38074  31.876  26.318  14.492
69681W        W38075  20.051  36.975  10.500
69682W        W38076  35.195  16.566  13.493
69683W        W38077  19.657   0.543  13.844
69684W        W38078   4.483   2.921  13.882
69685W        W38079  41.544  30.483   3.791
69686W        W38080   5.941   0.227   2.501
69687W        W38081  37.576  41.279  14.362
69688W        W38082  24.585  36.469   2.319
69689W        W38083  27.087   8.768  14.548
69690W        W38084  40.579   7.324   1.949
69691W        W38085  27.696   5.657  12.911
69692W        W38086   2.222  27.575  13.247
69693W        W38087  28.255  22.490   3.512
69694W        W38088  30.709  23.283  11.647
69695W        W38089  31.131   4.399  14.306
69696W        W38090  33.285   5.402   2.789
69697W        W38091  20.809  28.233   1.379
69698W        W38092  16.736  41.942  14.400
69699W        W38093  15.822  18.880  13.000
69700W        W38094  22.207   3.544  12.050
69701W        W38095  39.806   8.657   0.353
69702W        W38096  22.546  19.330  13.316
69703W        W38097  33.395  36.558  12.645
69704W        W38098  44.476  28.408   2.182
69705W        W38099  12.735   8.728   4.435
69706W        W38100   5.387  15.364   4.091
69707W        W38101  38.315   9.366   1.438
69708W        W38102  29.694  15.617  12.832
69709W        W38103  35.119  24.402  14.826
69710W        W38104  34.462  22.002   2.416
69711W        W38105   3.705   0.923  14.552
69712W        W38106   0.891  18.665   0.433
69713W        W38107  43.004   8.422   0.060
69714W        W38108   7.480  36.173   1.740
69715W        W38109  33.616   3.387   4.409
69716W        W38110  26.392   4.178  13.951
69717W        W38111  16.738  23.753   1.730
69718W        W38112   3.964  18.321   1.793
69719W        W38113  34.530  18.505  11.838
69720W        W38114  31.368  22.968   1.765
69721W        W38115  33.351  21.006  11.159
69722W        W38116  26.674   3.141   4.683
69723W        W38117  26.769  35.576  13.806
69724W        W38118  13.271  33.423  14.089
69725W        W38119  28.266  43.275  11.458
69726W        W38120   1.245  37.037   4.227
69727W        W38121  38.380  28.997   3.658
69728W        W38122  28.025  34.333  14.826
69729W        W38123  27.964   9.341   3.444
69730W        W38124  19.012   1.912  14.970
69731W        W38125  32.125  38.504  12.386
69732W        W38126  21.535  34.565   3.361
69733W        W38127   9.978  41.041   3.240
69734W        W38128  13.098   6.929  12.022
69735W        W38129  33.195  27.758   2.741
69736W        W38130  28.787   1.036   4.566
69737W        W38131  27.010  41.835  12.093
69738W        W38132  41.291  39.888  12.089
69739W        W38133  37.760  43.167   2.717
69740W        W38134  34.648   6.947  13.419
69741W        W38135  21.730  39.981   1.885
69742W        W38136  14.050   7.514   3.192
69743W        W38137  40.158  39.740  13.655
69744W        W38138  20.713  18.800   1.095
69745W        W38139  43.615  25.706  11.635
69746W        W38140  25.685   1.715   3.709
69747W        W38141  23.058  19.675   1.299
69748W        W38142  37.946  15.042  11.130
69749W        W38143  36.386  37.620  11.536
69750W        W38144  13.656  28.267   0.021
69751W        W38145  37.983  34.304   1.841
69752W        W38146   0.944  13.245  12.902
69753W        W38147  25.985  41.724   4.159
69754W        W38148  25.182  12.882  12.956
69755W        W38149  10.121   0.927   4.199
69756W        W38150  42.834  23.223   1.852
69757W        W38151   1.161  19.779   1.354
69758W        W38152  43.286   9.655  11.417
69759W        W38153  27.459  23.710  13.884
69760W        W38154  17.024  36.370  10.512
69761W        W38155  29.921  34.966   4.500
69762W        W38156  10.261  39.857   0.451
69763W        W38157  25.133   2.478   4.058
69764W        W38158   8.437  22.702  10.665
69765W        W38159  17.086  22.956   1.791
69766W        W38160  25.900  11.537   4.029
69767W        W38161  38.345  12.782  11.236
69768W        W38162  33.285  18.558   0.612
69769W        W38163  26.973  38.223  12.062
69770W        W38164  29.180  11.042   3.283
69771W        W38165  20.253  23.158  12.084
69772W        W38166   6.271   9.342   4.217
69773W        W38167   3.880  20.865  10.657
69774W        W38168  39.977  17.963   0.802
69775W        W38169  38.386  10.662   0.318
69776W        W38170   5.834  12.976  13.892
69777W        W38171   6.403  14.935   0.249
69778W        W38172  11.839   4.835  10.480
69779W        W38173  38.983  30.206  10.773
69780W        W38174  35.062  22.912   2.680
69781W        W38175  39.909  14.252   4.254
69782W        W38176  26.956  11.762  11.014
69783W        W38177  43.737   0.220  12.990
69784W        W38178  28.446  15.510  14.850
69785W        W38179  18.029  20.581  14.932
69786W        W38180   7.492  37.010  12.920
69787W        W38181  16.267  31.635   3.686
69788W        W38182  28.906  35.600  12.928
69789W        W38183   7.118  31.649  12.460
69790W        W38184   8.263  37.405  11.122
69791W        W38185  35.300   7.193   3.672
69792W        W38186  37.965  34.215   0.810
69793W        W38187  38.724   6.844  10.698
69794W        W38188  10.193  25.060  13.584
69795W        W38189  19.382  33.518   3.834
69796W        W38190  40.746   3.934  12.923
69797W        W38191  26.502  14.986  11.028
69798W        W38192   7.408  23.115   2.257
69799W        W38193  17.973   9.253  10.818
69800W        W38194  27.156  18.121  12.520
69801W        W38195  23.579  20.065   0.062
69802W        W38196  21.833  22.568  11.716
69803W        W38197  37.767  23.972   3.493
69804W        W38198  31.564  18.662   1.226
69805W        W38199   6.706  44.871   0.618
69806W        W38200  10.916  11.393   2.757
69807W        W38201  21.639  16.097  10.724
69808W        W38202  23.575   8.942   1.383
69809W        W38203  30.646  17.278  12.564
69810W        W38204  18.898  15.176   2.749
69811W        W38205  39.416  26.196   2.194
69812W        W38206  37.192  22.388  12.000
69813W        W38207  14.401   4.280   4.097
69814W        W38208  44.862   6.882  11.574
69815W        W38209  18.246  22.285   1.651
69816W        W38210  42.762  17.489  11.324
69817W        W38211  34.100  14.432  12.644
69818W        W38212  27.294  19.632  11.399
69819W        W38213   0.952  22.310  12.357
69820W        W38214   3.336   1.942   3.744
69821W        W38215  43.789  28.605   2.715
69822W        W38216  15.830   4.356   0.259
69823W        W38217  20.327  16.316   0.442
69824W        W38218  30.948   9.271  12.451
69825W        W38219  37.517  42.964   1.822
69826W        W38220  11.465  10.728  12.584
69827W        W38221  10.718   2.722   4.603
69828W        W38222   3.437   1.505  11.661
69829W        W38223  35.651  12.691   1.772
69830W        W38224  32.656  12.404   0.446
69831W        W38225   6.624  37.984  11.953
69832W        W38226  33.147  31.495   2.858
69833W        W38227   2.838  17.981  11.373
69834W        W38228   9.851  28.415  12.126
69835W        W38229  25.606  28.518   3.783
69836W        W38230  39.459  30.565  12.201
69837W        W38231  36.579  43.981  11.687
69838W        W38232  24.084  20.509  12.095
69839W        W38233  40.685  17.128  12.054
69840W        W38234  43.327  31.520  14.530
69841W        W38235  44.489   8.349  13.869
69842W        W38236  10.825  26.034   1.673
69843W        W38237  23.657   8.082   5.099
69844W        W38238   5.625   5.783  13.958
69845W        W38239  41.527  19.085  11.176
69846W        W38240  34.239  12.782  11.110
69847W        W38241  11.620  35.999  14.943
69848W        W38242  27.473  34.030   2.299
69849W        W38243   0.706  42.359  14.375
69850W        W38244  12.411  25.052   0.474
69851W        W38245  12.843  12.068   1.913
69852W        W38246  22.221  35.233  11.389
69853W        W38247  10.833   6.376  12.420
69854W        W38248  11.751  30.244   3.223
69855W        W38249  32.827  13.773   0.398
69856W        W38250  16.448  33.137   2.077
69857W        W38251  30.416   6.234   0.471
69858W        W38252   5.960  19.570   2.699
69859W        W38253  17.343   6.154   3.674
69860W        W38254  33.554  15.939   0.192
69861W        W38255  28.345  16.615  10.664
69862W        W38256  34.574   0.312  14.782
69863W        W38257   1.518  27.981   1.768
69864W        W38258   5.271  16.933  12.926
69865W        W38259  33.434  20.935  14.042
69866W        W38260  15.830  25.869   0.567
69867W        W38261  18.764   6.143   1.857
69868W        W38262  36.942  42.168  13.889
69869W        W38263  12.591   8.731  11.594
69870W        W38264  10.286  19.509   4.203
69871W        W38265   5.279  26.208  14.124
69872W        W38266  28.212   7.445  11.997
69873W        W38267  21.051  30.338  13.419
69874W        W38268  13.665  37.096  13.981
69875W        W38269  29.835  37.482   4.446
69876W        W38270  38.084  28.666  14.237
69877W        W38271  18.191  21.609   4.056
69878W        W38272   6.467  29.985  11.941
69879W        W38273  25.499  34.836  11.116
69880W        W38274   6.416  17.234  10.159
69881W        W38275   4.784   7.783   3.119
69882W        W38276  40.890  28.436  12.839
69883W        W38277  39.410  27.988  13.825
69884W        W38278  33.590   6.734   4.317
69885W        W38279  44.011   1.025  13.356
69886W        W38280  37.431  27.584  12.989
69887W        W38281  35.394  32.875   2.894
69888W        W38282  13.791  14.034   3.675
69889W        W38283  37.992   6.775  14.384
69890W        W38284  36.916  42.603   2.744
69891W        W38285   5.792  16.728   2.359
69892W        W38286  10.254  25.424   4.300
69893W        W38287  25.210  35.079  12.124
69894W        W38288   6.103  26.611  10.904
69895W        W38289  28.667  39.068   3.637
69896W        W38290  42.901  14.796   1.851
69897W        W38291   6.350  42.563  12.223
69898W        W38292   0.968  23.154   3.899
69899W        W38293  29.149  24.152   0.757
69900W        W38294  26.460  38.812  13.231
69901W        W38295  39.552  34.184  12.476
69902W        W38296  36.640  24.351  11.058
69903W        W38297   1.975  44.543   1.821
69904W        W38298  11.897  36.406   1.659
69905W        W38299   7.415   9.950   2.388
69906W        W38300   1.276   7.963  13.390
69907W        W38301  24.548   8.781   4.786
69908W        W38302   8.065  11.410   4.956
69909W        W38303  20.640  42.375  13.110
69910W        W38304  24.932  35.342  10.656
69911W        W38305   0.257  14.244  13.716
69912W        W38306  40.723   1.019  12.977
69913W        W38307  26.902   4.319   1.770
69914W        W38308  14.107  31.389   0.845
69915W        W38309   8.911  39.243   0.048
69916W        W38310  14.342  26.678   0.157
69917W        W38311  18.778   0.275  10.821
69918W        W38312  26.198  26.234   0.313
69919W        W38313  40.891  20.063  14.017
69920W        W38314  10.724  24.216   4.749
69921W        W38315  24.429  10.700   0.350
69922W        W38316  44.321   2.723  13.863
69923W        W38317  25.024  41.535   2.804
69924W        W38318  27.906   0.085   3.679
69925W        W38319  42.294  40.989   3.760
69926W        W38320  42.335  34.087  12.679
69927W        W38321  13.107   4.530   0.446
69928W        W38322  31.124  28.647  14.893
69929W        W38323  29.047  25.511  13.425
69930W        W38324   3.248  41.345   0.844
69931W        W38325  23.999   0.137   1.254
69932W        W38326  14.612  10.186   1.747
69933W        W38327  12.161  32.142   4.741
69934W        W38328   4.824  31.196   0.418
69935W        W38329  19.080   1.664  10.499
69936W        W38330  24.279  33.477  10.684
69937W        W38331  37.384  10.757   2.906
69938W        W38332  16.759   1.991   3.415
69939W        W38333  32.318   6.425   0.523
69940W        W38334  21.020  32.554  10.931
69941W        W38335  29.477  35.041   2.820
69942W        W38336   0.595  14.387  12.863
69943W        W38337  38.085  40.498   0.917
69944W        W38338  11.417   0.506  14.378
69945W        W38339  43.686   7.426  11.160
69946W        W38340   5.187   2.321   4.711
69947W        W38341   3.385  12.667  13.462
69948W        W38342  43.797  22.010   1.818
69949W        W38343   9.511  26.967   0.014
69950W        W38344  34.910  16.169   3.116
69951W        W38345  44.985   3.248  13.758
69952W        W38346  32.098  22.522   4.090
69953W        W38347  18.153  29.409   2.379
69954W        W38348  23.111  22.500   3.067
69955W        W38349  17.223  22.837  14.273
69956W        W38350  43.812  39.774   0.931
69957W        W38351   8.782  37.382  11.322
69958W        W38352  39.105   3.003  13.096
69959W        W38353  16.224  41.331  12.585
69960W        W38354   2.675  32.468   2.825
69961W        W38355  38.053   2.972  14.894
69962W        W38356  19.520  30.661  14.864
69963W        W38357  26.901  28.648  13.464
69964W        W38358  31.856  37.992   3.196
69965W        W38359  25.279  28.165   0.722
69966W        W38360   1.992  23.770   2.346
69967W        W38361   9.854  31.613   0.291
69968W        W38362   3.370  36.947  12.101
69969W        W38363  34.094  31.478   1.707
69970W        W38364  19.079  10.902   3.482
69971W        W38365  30.430  19.204   0.041
69972W        W38366   9.104   7.619  12.477
69973W        W38367  33.350  38.280   0.917
69974W        W38368  15.152  21.020   2.918
69975W        W38369  13.952  33.155  11.571
69976W        W38370  16.499   7.767  11.641
69977W        W38371  44.973   0.856  13.445
69978W        W38372  36.783  24.081   5.188
69979W        W38373  22.189  25.720   2.675
69980W        W38374  19.579  24.261   0.202
69981W        W38375  40.999  24.973   2.241
69982W        W38376  21.707  41.310  14.527
69983W        W38377   3.272   5.001   0.435
69984W        W38378  38.326  33.225  14.959
69985W        W38379  33.116  39.579   3.795
69986W        W38380  24.514  34.880   5.272
69987W        W38381  26.433  28.923   0.944
69988W        W38382  22.491  30.414  13.098
69989W        W38383  25.225  33.202   3.728
69990W        W38384  35.936   4.797  12.551
69991W        W38385  13.189   6.501  13.918
69992W        W38386  31.377  11.142  13.883
69993W        W38387  11.126   2.626   0.185
69994W        W38388  26.133  38.919  11.713
69995W        W38389  23.791  24.397  11.603
69996W        W38390  18.714  34.416  13.373
69997W        W38391  33.491  33.423   2.013
69998W        W38392  35.125  21.271   0.734
69999W        W38393  40.686  44.406   3.221
70000W        W38394  41.326  35.984   0.071
70001W        W38395  14.750  22.329   1.906
70002W        W38396  19.727  42.299  10.987
70003W        W38397  18.703  39.886  13.804
70004W        W38398  25.070   0.131   9.849
70005W        W38399  42.011  12.227   0.417
70006W        W38400   2.227   8.292  11.679
70007W        W38401  35.301  36.595  12.128
70008W        W38402   2.444  36.675  11.624
70009W        W38403  21.528   6.714  14.740
70010W        W38404  30.232  15.038  13.424
70011W        W38405  14.323  20.363   5.157
70012W        W38406  21.823   5.223   0.500
70013W        W38407  27.543  41.958   3.712
70014W        W38408  13.818   0.569  10.427
70015W        W38409  34.984   1.459   0.011
70016W        W38410   7.898  19.425  11.209
70017W        W38411  10.602  12.685   3.551
70018W        W38412  33.015  18.650   1.114
70019W        W38413   5.868   7.492  13.499
70020W        W38414  30.031   0.242   0.331
70021W        W38415   6.368  21.271  11.278
70022W        W38416  21.183  32.645   3.274
70023W        W38417  16.954   3.553  12.434
70024W        W38418  27.715  36.374  14.888
70025W        W38419  31.298  35.975   4.124
70026W        W38420   5.663  14.060   3.301
70027W        W38421  17.715  32.973  13.369
70028W        W38422   2.321  41.928   3.523
70029W        W38423  42.478  25.314  14.727
70030W        W38424  24.134  39.061   2.843
70031W        W38425  43.734  38.038  11.122
70032W        W38426  43.491  34.978  12.056
70033W        W38427  11.855   9.791   4.783
70034W        W38428  32.375   7.276  11.961
70035W        W38429   5.673  38.952  11.670
70036W        W38430  12.676   9.255  13.974
70037W        W38431   5.916   6.376  14.825
70038W        W38432   8.019   6.390  11.601
70039W        W38433  14.778  17.851   3.920
70040W        W38434  10.641  38.843   2.980
70041W        W38435  16.547  30.005  11.494
70042W        W38436  26.089  39.889  13.830
70043W        W38437  15.343   8.121   3.157
70044W        W38438  21.984  17.813   4.364
70045W        W38439   0.719   6.999  14.336
70046W        W38440  44.305  36.245  12.560
70047W        W38441  14.089  42.507   1.392
70048W        W38442  13.870  18.861   4.271
70049W        W38443  30.885  23.804  14.303
70050W        W38444   1.481  40.557  10.585
70051W        W38445  23.483  41.406   4.538
70052W        W38446   4.938  36.173  13.818
70053W        W38447  21.734  15.983  12.057
70054W        W38448  33.119  44.458   1.928
70055W        W38449  37.229   5.279  10.379
70056W        W38450  27.221  22.217   1.468
70057W        W38451  32.509  30.087  12.609
70058W        W38452  43.910   0.709  11.040
70059W        W38453   2.512  31.704   1.291
70060W        W38454  23.555  20.568  14.189
70061W        W38455  34.905  44.799  12.484
70062W        W38456  43.213   7.269  12.618
70063W        W38457  30.690  44.222  12.384
70064W        W38458  17.640  13.691  13.446
70065W        W38459  21.554  14.575  12.781
70066W        W38460  10.751  13.612  13.993
70067W        W38461  17.805  21.163   4.934
70068W        W38462  33.163  28.639   3.811
70069W        W38463   6.818  13.879  14.416
70070W        W38464   6.460  11.811   3.426
70071W        W38465  32.002  18.303   3.787
70072W        W38466   5.104  37.541  14.847
70073W        W38467  41.735   1.657   4.972
70074W        W38468  34.376  28.081   1.756
70075W        W38469  44.886  21.944  13.304
70076W        W38470  14.752  35.054   3.132
70077W        W38471   8.093   4.494  11.913
70078W        W38472  19.769  32.008   4.542
70079W        W38473  29.157  39.392  13.667
70080W        W38474  18.436   5.059   0.501
70081W        W38475   9.398  23.941  14.819
70082W        W38476  18.330  40.530  10.780
70083W        W38477  15.552  18.936   4.060
70084W        W38478  36.105  32.419  13.846
70085W        W38479  37.335   5.327  13.707
70086W        W38480  43.787  20.292   4.557
70087W        W38481  13.585   2.417   3.598
70088W        W38482  19.438  38.788  14.474
70089W        W38483  10.854   0.226   5.028
70090W        W38484   9.380   5.650   2.215
70091W        W38485  27.913  10.147   2.633
70092W        W38486  32.492   5.463   3.090
70093W        W38487  17.335  19.781   1.547
70094W        W38488  32.192   5.798  11.105
70095W        W38489  30.469  35.754   3.556
70096W        W38490  36.487  35.746   1.126
70097W        W38491  17.705  22.173  13.351
70098W        W38492  41.537  15.364   3.205
70099W        W38493  10.620  20.721  13.128
70100W        W38494  15.244  13.905   4.993
70101W        W38495  18.132  41.705   1.405
70102W        W38496  21.250  37.377   2.326
70103W        W38497  39.024  16.760   2.188
70104W        W38498  23.628  24.479  12.965
70105W        W38499  10.104  37.321  11.572
70106W        W38500  15.425   2.504  10.638
70107W        W38501  15.731  39.368  13.958
70108W        W38502   8.229   7.846   1.599
70109W        W38503   6.497  37.809   1.662
70110W        W38504   3.645   2.900   2.194
70111W        W38505  25.143  18.690  13.436
70112W        W38506   9.750  20.610   2.934
70113W        W38507  17.672  22.103   3.542
70114W        W38508  26.681  26.290   0.534
70115W        W38509  20.106  26.576  11.126
70116W        W38510  41.732  24.017   1.758
70117W        W38511  39.572   2.896  11.247
70118W        W38512  34.052  20.387   1.390
70119W        W38513  17.590  25.422   0.532
70120W        W38514  10.741  36.990  13.285
70121W        W38515  41.807  40.189  12.833
70122W        W38516   9.741   3.847  11.526
70123W        W38517  41.494   8.313   0.310
70124W        W38518  35.604  14.657  11.116
70125W        W38519  21.983  11.374  13.391
70126W        W38520  33.177  10.859   0.856
70127W        W38521  19.008  36.869   1.378
70128W        W38522  23.087   6.192  14.338
70129W        W38523   0.239  33.904   1.256
70130W        W38524  37.099  30.034   3.885
70131W        W38525  12.071   6.295   4.548
70132W        W38526  17.345   6.382  10.371
70133W        W38527  33.447  33.751  14.693
70134W        W38528  14.605  42.584   1.462
70135W        W38529  36.707   3.305   1.293
70136W        W38530  25.307   3.306  11.962
70137W        W38531   9.446  18.720   0.428
70138W        W38532  37.618  39.989   2.657
70139W        W38533  37.444  12.742   2.366
70140W        W38534  39.449  17.835   3.853
70141W        W38535  39.034   9.879   4.241
70142W        W38536  11.630  15.975   0.292
70143W        W38537   9.108  28.370   0.248
70144W        W38538  41.563  30.566  14.858
70145W        W38539   1.378  12.847   2.751
70146W        W38540  17.186  10.828   2.711
70147W        W38541  33.171  41.771   2.334
70148W        W38542  37.603  35.142   0.400
70149W        W38543  44.238  40.528   4.028
70150W        W38544  36.977   0.201   4.459
70151W        W38545  36.619  32.385  13.838
70152W        W38546  42.043  41.301  14.115
70153W        W38547  11.221  41.736  12.860
70154W        W38548  14.632  16.157   2.783
70155W        W38549   6.806  29.575  13.239
70156W        W38550  39.024  44.884  10.965
70157W        W38551  16.797  25.027  12.492
70158W        W38552   9.179  34.522  13.650
70159W        W38553  43.237  33.128  14.469
70160W        W38554  15.996   3.374   1.730
70161W        W38555  15.913  23.848   2.077
70162W        W38556  42.563  27.159   1.972
70163W        W38557   7.383  23.347  12.634
70164W        W38558  25.432  12.438   3.380
70165W        W38559  20.809  32.615   0.949
70166W        W38560  42.043  18.102  11.852
70167W        W38561  29.514  40.827  14.271
70168W        W38562  19.221  41.136  10.539
70169W        W38563  14.344  16.353   1.696
70170W        W38564  43.691  40.587  14.868
70171W        W38565  23.431   6.269  10.944
70172W        W38566   1.401  11.807   1.351
70173W        W38567   2.249  41.408   4.813
70174W        W38568  22.667  27.890   1.480
70175W        W38569  19.525  27.173  13.507
70176W        W38570  28.688  10.159   3.629
70177W        W38571  13.595   6.272   0.727
70178W        W38572  40.460  17.683   0.238
70179W        W38573  31.569  24.318   1.457
70180W        W38574  26.165  18.990  10.499
70181W        W38575  33.707  14.775   1.175
70182W        W38576   4.690  33.360   4.502
70183W        W38577   7.908  14.759   2.217
70184W        W38578  43.360   3.990   4.091
70185W        W38579  41.350  12.504   0.491
70186W        W38580   6.661  43.589   3.475
70187W        W38581  22.186  33.108   4.309
70188W        W38582  38.013   7.349   2.384
70189W        W38583   0.418  43.287   1.154
70190W        W38584  29.553  42.918  14.709
70191W        W38585  20.053  40.539   5.066
70192W        W38586  15.155  43.726  14.080
70193W        W38587   2.244   9.376   1.762
70194W        W38588  12.444   1.729   0.207
70195W        W38589   9.218  41.882   0.315
70196W        W38590  12.600  16.484  12.593
70197W        W38591   7.721   6.811   3.626
70198W        W38592  15.617  35.997   4.125
70199W        W38593  28.506   6.533   3.991
70200W        W38594  30.401  39.530   4.172
70201W        W38595  31.838  27.447  13.575
70202W        W38596  27.643   8.342  14.167
70203W        W38597  24.644  44.443   4.972
70204W        W38598  30.213  21.970   2.239
70205W        W38599  29.703  23.889   2.285
70206W        W38600   1.033  13.903  10.828
70207W        W38601  40.279  14.532  12.017
70208W        W38602  29.385  39.945  13.285
70209W        W38603   3.206  12.960   1.887
70210W        W38604  41.581  38.953   2.143
70211W        W38605  36.369  38.136   1.806
70212W        W38606   0.420   7.402   1.838
70213W        W38607  12.488  12.589  12.145
70214W        W38608   2.314   5.150  11.439
70215W        W38609  11.231  19.748  13.873
70216W        W38610   0.768  42.337  12.633
70217W        W38611   9.137  35.972  10.616
70218W        W38612   4.792  32.554   1.433
70219W        W38613   4.547   6.533  12.809
70220W        W38614  27.076  13.132   4.603
70221W        W38615  35.601  34.844   2.220
70222W        W38616  28.931  40.506   3.684
70223W        W38617  27.826  37.555   5.087
70224W        W38618  17.745  43.983   2.852
70225W        W38619   2.363  17.959  10.660
70226W        W38620  38.350  43.816  12.439
70227W        W38621  37.686  14.759   4.614
70228W        W38622  15.253  33.509   2.164
70229W        W38623  31.124  28.124  14.786
70230W        W38624  29.391  12.169   4.199
70231W        W38625  25.648  28.479  11.634
70232W        W38626  19.692  13.354  12.919
70233W        W38627  34.121  30.450  14.906
70234W        W38628  35.936  15.748  10.383
70235W        W38629  34.310  13.564   1.256
70236W        W38630  31.977  14.051  10.665
70237W        W38631  41.516  24.113   0.493
70238W        W38632  17.077   8.632   3.301
70239W        W38633  25.603  14.037   1.194
70240W        W38634  31.692   5.968  11.088
70241W        W38635   8.966  24.432  12.935
70242W        W38636  36.636  38.190   1.352
70243W        W38637  10.652  34.596  11.071
70244W        W38638  19.041  41.947  11.119
70245W        W38639   5.324  21.010   4.036
70246W        W38640  27.907  37.076  11.019
70247W        W38641  44.826   8.405  11.277
70248W        W38642   3.561  40.717  11.172
70249W        W38643  44.272  19.694   2.022
70250W        W38644  10.933  14.307   2.297
70251W        W38645  31.443  37.401   0.527
70252W        W38646  24.376  27.838   3.071
70253W        W38647  31.684  19.976   0.370
70254W        W38648  25.586  31.471   4.050
70255W        W38649  26.610  19.136  13.876
70256W        W38650  28.417  14.303   0.264
70257W        W38651  19.255  14.778  12.212
70258W        W38652  35.927   2.433   0.931
70259W        W38653   8.394  32.244   3.679
70260W        W38654   5.292  12.629   2.824
70261W        W38655   9.889  41.445   4.920
70262W        W38656   3.909   7.757   0.250
70263W        W38657   2.867   0.520   4.323
70264W        W38658  35.672  35.634  13.064
70265W        W38659  17.564  15.291  14.472
70266W        W38660  31.770  20.759   2.345
70267W        W38661  12.785  31.934   3.951
70268W        W38662   4.382  22.613   0.319
70269W        W38663  34.702  32.429   0.685
70270W        W38664   8.347  28.870   1.300
70271W        W38665  19.272  39.560  14.795
70272W        W38666   9.089  12.192  14.604
70273W        W38667  42.393  14.265  10.896
70274W        W38668  37.506  31.571  14.258
70275W        W38669  13.621  38.644   2.454
70276W        W38670  27.676  12.730  12.661
70277W        W38671  37.126  43.303   4.525
70278W        W38672  29.570  17.194  10.604
70279W        W38673  20.601  21.976   1.735
70280W        W38674   1.223   1.909   3.419
70281W        W38675   8.085  32.674  12.575
70282W        W38676   7.776   8.130   0.304
70283W        W38677   7.311  40.390   3.243
70284W        W38678  22.171  14.603   2.764
70285W        W38679   1.741  27.036   1.691
70286W        W38680   4.159  41.533   0.628
70287W        W38681  31.339  27.609  11.134
70288W        W38682   8.310  20.316  10.865
70289W        W38683   2.850  24.864   4.730
70290W        W38684  23.223  32.372  12.104
70291W        W38685  43.540  33.048   0.909
70292W        W38686  25.776  27.985  11.191
70293W        W38687  29.045  26.892   0.591
70294W        W38688  26.039   5.366   0.989
70295W        W38689  25.622  27.167   3.355
70296W        W38690  33.900  31.781  14.798
70297W        W38691  35.874  18.282  14.130
70298W        W38692  25.194   9.206   3.631
70299W        W38693  33.932   4.438  12.843
70300W        W38694  41.579  13.708   4.159
70301W        W38695  36.333  31.987  13.597
70302W        W38696   4.207   5.967   0.934
70303W        W38697  17.635  42.379   1.285
70304W        W38698  15.306  36.931   3.697
70305W        W38699   3.293   2.926   2.601
70306W        W38700   4.112  14.169   4.362
70307W        W38701  39.030  23.977  11.753
70308W        W38702  16.180  21.997  11.110
70309W        W38703  20.648  25.020  12.435
70310W        W38704  40.559  34.453   0.773
70311W        W38705   4.152  40.383   3.271
70312W        W38706  40.803   3.681   1.510
70313W        W38707  44.350  30.024  12.106
70314W        W38708  39.515   6.542  11.569
70315W        W38709   1.065  32.004  12.989
70316W        W38710  20.804  34.538  11.817
70317W        W38711  38.335   2.927   3.453
70318W        W38712  14.342  40.088   0.853
70319W        W38713  17.703  34.618  14.886
70320W        W38714   7.200  11.065  11.165
70321W        W38715   2.759  25.360   2.212
70322W        W38716  13.553  39.041   1.663
70323W        W38717  38.078  38.882  14.778
70324W        W38718   8.624  24.451  14.339
70325W        W38719  43.406  38.523  12.501
70326W        W38720  31.142  17.957   1.307
70327W        W38721  10.694  28.346  10.595
70328W        W38722   3.880  21.214  11.070
70329W        W38723  17.659  15.574   3.249
70330W        W38724   8.606  13.224  11.961
70331W        W38725  20.727  32.384  11.697
70332W        W38726  15.666  22.573  14.477
70333W        W38727  12.469  17.008  14.852
70334W        W38728  42.739   1.840   4.755
70335W        W38729  42.369  26.075  11.236
70336W        W38730   4.422   8.096  10.702
70337W        W38731  32.478  10.677   4.845
70338W        W38732  16.839   6.800  11.753
70339W        W38733  36.805  14.288  13.570
70340W        W38734  15.266  17.048  14.876
70341W        W38735   1.339   3.512  13.047
70342W        W38736  42.021  11.427  12.738
70343W        W38737  18.579  22.143   0.762
70344W        W38738  11.944  29.240  12.015
70345W        W38739  13.806   3.289  14.219
70346W        W38740  23.790   6.308  14.778
70347W        W38741  11.310  42.961   2.906
70348W        W38742  28.949   4.698  11.872
70349W        W38743   9.797  34.988  11.117
70350W        W38744  11.085  18.204  13.904
70351W        W38745  37.391  33.669   0.135
70352W        W38746  35.559   2.062   3.658
70353W        W38747   1.719   5.970   1.007
70354W        W38748  17.563  23.772  13.910
70355W        W38749   8.735  19.029   3.253
70356W        W38750  15.811  20.239  10.771
70357W        W38751   4.925  21.284   0.462
70358W        W38752  21.519   6.551   2.381
70359W        W38753  36.885   2.505   0.446
70360W        W38754   0.942  29.143  13.838
70361W        W38755  17.691  20.001  11.579
70362W        W38756  41.101   6.692   2.896
70363W        W38757  31.615  25.611  12.411
70364W        W38758  36.615  28.589  13.874
70365W        W38759  28.523   4.322   1.670
70366W        W38760  43.877   7.703   1.703
70367W        W38761   3.827  17.423  14.133
70368W        W38762  40.796  31.556  14.319
70369W        W38763  17.289  26.180   2.812
70370W        W38764  36.988  29.552  14.088
70371W        W38765  35.514  28.746  14.484
70372W        W38766   7.185  24.425   2.649
70373W        W38767   3.596  36.003  11.132
70374W        W38768  16.912  11.628   3.681
70375W        W38769  29.545  44.105  11.490
70376W        W38770   0.409  36.844  12.811
70377W        W38771  15.798  35.620  13.042
70378W        W38772  36.917  32.972   4.334
70379W        W38773  17.461  20.191  14.054
70380W        W38774  35.410   2.936  13.313
70381W        W38775   3.808  10.602   3.681
70382W        W38776  20.110  10.087  12.410
70383W        W38777  30.919  15.349  12.626
70384W        W38778  32.495  14.485  12.876
70385W        W38779  35.293  27.316   0.405
70386W        W38780  15.370  12.421  11.209
70387W        W38781  37.824   7.507  13.675
70388W        W38782  12.396  26.612  14.809
70389W        W38783  24.049  10.507  13.433
70390W        W38784  42.052   2.974   3.816
70391W        W38785  18.918   9.662  10.685
70392W        W38786  26.477  24.074  12.103
70393W        W38787  25.772  15.337  13.311
70394W        W38788  39.372  42.946   0.691
70395W        W38789  29.060  33.331  11.506
70396W        W38790  22.193  42.786  13.859
70397W        W38791  43.416  12.481   2.629
70398W        W38792  13.650  11.797   0.418
70399W        W38793   7.911   7.115  11.977
70400W        W38794  15.574   1.195  10.953
70401W        W38795  26.523  11.633   2.462
70402W        W38796  14.076   3.458  11.232
70403W        W38797   0.354  40.348   1.489
70404W        W38798  34.994  37.759   0.526
70405W        W38799  37.322  22.781   2.290
70406W        W38800  11.056  11.744  10.655
70407W        W38801  40.487  38.598  11.591
70408W        W38802  25.366  18.237  11.917
70409W        W38803  14.805  23.722   0.140
70410W        W38804   3.790   2.952   2.700
70411W        W38805  41.383  37.329  12.030
70412W        W38806  21.023   6.791  12.996
70413W        W38807  32.301  22.526  10.309
70414W        W38808   0.944  36.019   0.835
70415W        W38809  11.949  41.331   4.001
70416W        W38810  29.005  17.527  13.404
70417W        W38811  30.401  28.476  12.135
70418W        W38812   0.616  27.812  11.234
70419W        W38813  19.624   9.446  11.629
70420W        W38814  12.751  24.249  14.761
70421W        W38815  15.212  11.421   3.657
70422W        W38816   1.695   9.439  14.951
70423W        W38817  26.949   3.873  14.504
70424W        W38818  25.479  41.936  13.821
70425W        W38819  25.702  30.125   1.857
70426W        W38820  12.716   9.560  12.675
70427W        W38821  16.518  42.914   4.668
70428W        W38822  18.900  25.262   4.499
70429W        W38823  23.372  19.197  11.060
70430W        W38824  38.655  37.589   1.420
70431W        W38825  29.713  29.576  11.561
70432W        W38826  13.730  37.536  13.066
70433W        W38827   7.569  14.585  10.549
70434W        W38828  39.205  44.183   1.831
70435W        W38829   7.154  27.697  12.534
70436W        W38830   7.361   4.814   3.129
70437W        W38831  21.520  13.211   4.104
70438W        W38832  34.581   2.519  11.118
70439W        W38833   2.088  41.583   3.204
70440W        W38834  17.063  41.937  11.328
70441W        W38835  22.592  10.483  14.994
70442W        W38836  21.275  44.524  14.972
70443W        W38837   1.738  31.630  13.385
70444W        W38838  13.824  42.523   4.367
70445W        W38839   6.796   9.392   2.003
70446W        W38840  15.843  15.153  11.355
70447W        W38841  34.605  30.954  11.643
70448W        W38842  38.964  29.223   4.848
70449W        W38843  44.909  21.466   3.104
70450W        W38844  22.347  32.517  14.749
70451W        W38845  30.294  14.940   4.509
70452W        W38846  44.708   7.728  13.068
70453W        W38847  37.195  35.447   3.345
70454W        W38848  29.658  33.919  10.375
70455W        W38849  28.803  32.609   1.357
70456W        W38850  24.284  43.770   3.560
70457W        W38851  23.509  40.794   1.901
70458W        W38852  11.181  36.033   3.876
70459W        W38853  18.334  14.850  14.381
70460W        W38854  10.579   1.098  11.815
70461W        W38855  36.471  35.064  13.078
70462W        W38856  13.887  39.598  12.362
70463W        W38857  42.047  14.124  12.646
70464W        W38858   9.679  23.856   4.579
70465W        W38859   5.911  23.846  14.025
70466W        W38860  29.183  27.022   4.109
70467W        W38861   7.898  13.407  11.487
70468W        W38862   0.535   4.943   0.049
70469W        W38863  40.774   3.772   0.978
70470W        W38864  36.845  21.516   3.816
70471W        W38865  24.536  15.597   0.332
70472W        W38866  33.160  16.571   3.608
70473W        W38867   0.581  38.425  10.148
70474W        W38868  33.020  16.160   3.289
70475W        W38869   7.654  37.806   1.148
70476W        W38870  14.756   7.794   2.886
70477W        W38871  14.583  33.706   0.985
70478W        W38872  11.613   8.764  13.642
70479W        W38873   3.759  36.923   4.660
70480W        W38874   3.475   1.444   3.827
70481W        W38875  17.423  28.098  11.061
70482W        W38876  19.489  35.432   4.174
70483W        W38877  29.960  30.468   3.022
70484W        W38878  17.005   2.937   3.205
70485W        W38879  14.190   1.878  13.410
70486W        W38880   6.846  25.758  11.177
70487W        W38881  20.748  19.057  12.773
70488W        W38882  40.457  26.225  12.145
70489W        W38883  41.439  22.301   0.770
70490W        W38884   2.886  34.016   0.351
70491W        W38885  11.006   2.976  12.071
70492W        W38886  41.315   3.201  12.613
70493W        W38887  38.881  40.513  11.235
70494W        W38888   7.728  37.775   3.788
70495W        W38889  16.879  36.024  11.827
70496W        W38890  13.675   9.284   1.414
70497W        W38891  38.449  44.179   2.144
70498W        W38892  29.105   5.156  14.036
70499W        W38893  16.704  38.224  11.296
70500W        W38894  22.400  28.364   3.668
70501W        W38895  19.744   1.676   3.703
70502W        W38896  13.528  10.689   3.688
70503W        W38897   2.280  17.108  11.476
70504W        W38898   1.549  37.899  12.900
70505W        W38899  42.739   1.694   2.127
70506W        W38900   9.756  37.036   4.874
70507W        W38901   8.753  35.055  11.173
70508W        W38902   3.366  38.036  12.051
70509W        W38903  10.557  27.028  14.850
70510W        W38904  36.445  28.569  10.636
70511W        W38905  42.653   5.441  13.937
70512W        W38906  30.193  20.674   2.641
70513W        W38907  22.692  18.772  13.909
70514W        W38908  31.412   0.948  10.751
70515W        W38909   2.206  41.926  10.696
70516W        W38910  18.053  14.374  14.344
70517W        W38911  17.063  42.581  11.932
70518W        W38912   0.843  29.961   1.311
70519W        W38913  35.352   9.300   2.456
70520W        W38914   1.864  41.702  13.929
70521W        W38915  36.012  37.361  13.061
70522W        W38916  22.373  31.863   3.116
70523W        W38917  12.801  16.687   2.436
70524W        W38918  27.668  40.923   1.654
70525W        W38919  34.924  38.923  14.419
70526W        W38920  39.884  42.075  14.897
70527W        W38921  24.868   3.410  10.459
70528W        W38922  33.064  33.865  14.295
70529W        W38923  13.602  28.747  11.057
70530W        W38924  44.457  42.917  10.179
70531W        W38925   2.563   7.139   2.187
70532W        W38926  40.808  15.737  12.599
70533W        W38927  10.405  44.961   3.244
70534W        W38928  24.469   2.509  10.786
70535W        W38929  19.898  29.153  13.894
70536W        W38930  26.237  22.164  12.283
70537W        W38931   5.741   6.759   2.126
70538W        W38932  21.218  44.596   3.664
70539W        W38933  33.173  18.472  12.968
70540W        W38934  42.955   0.376   0.742
70541W        W38935  27.809  28.240  14.252
70542W        W38936  16.074  36.461   1.347
70543W        W38937  44.315   7.912   0.300
70544W        W38938  12.950  28.224   1.328
70545W        W38939  33.679  12.686   0.381
70546W        W38940  27.667   2.945  10.917
70547W        W38941  16.653  42.523   0.260
70548W        W38942  44.283  15.132  14.422
70549W        W38943  32.405  30.385  11.079
70550W        W38944  34.015  20.604  10.776
70551W        W38945  10.885  23.951   0.639
70552W        W38946  13.198  20.721   2.164
70553W        W38947  28.606   4.716  12.751
70554W        W38948   1.106  38.545  10.157
70555W        W38949  14.617  32.066   3.212
70556W        W38950  39.478  20.976   2.572
70557W        W38951  34.610  24.942   2.929
70558W        W38952  29.986  33.345   4.574
70559W        W38953   5.913  29.433  14.420
70560W        W38954   6.340  19.666   3.034
70561W        W38955  23.277  32.021  11.561
70562W        W38956  24.234   2.591   0.788
70563W        W38957  36.524  37.125   2.060
70564W        W38958   0.718   5.460   2.783
70565W        W38959   3.897  43.712  12.437
70566W        W38960  42.507  31.134   4.216
70567W        W38961  39.418  34.650  13.546
70568W        W38962  23.343  27.976   4.091
70569W        W38963  15.700  32.685  11.089
70570W        W38964   4.527  26.199   0.358
70571W        W38965  26.038   9.709   3.124
70572W        W38966  31.370   5.702  10.736
70573W        W38967  44.472  34.690  11.429
70574W        W38968  44.166  25.984   1.962
70575W        W38969  36.006   9.716   4.472
70576W        W38970  35.620  33.328   2.864
70577W        W38971  29.003   7.374   4.298
70578W        W38972  10.642  12.298  11.143
70579W        W38973  13.570  10.844  13.008
70580W        W38974  24.174  18.285   0.838
70581W        W38975   1.519  13.659  11.666
70582W        W38976  43.631  14.652  11.409
70583W        W38977  15.617  25.150   5.098
70584W        W38978  14.729  20.544  13.466
70585W        W38979  18.682   0.708  13.677
70586W        W38980  40.335  35.423   2.770
70587W        W38981  25.511  15.069  12.916
70588W        W38982  34.328  12.978  13.341
70589W        W38983  12.396  13.130  13.401
70590W        W38984  25.550  19.496  12.689
70591W        W38985  42.986  33.581   1.512
70592W        W38986  18.155   9.559   1.400
70593W        W38987  15.687   0.105  11.076
70594W        W38988  15.777  10.582   2.405
70595W        W38989  43.848   6.701  10.691
70596W        W38990  29.922  36.574   2.497
70597W        W38991  19.764  22.155   0.308
70598W        W38992  15.671  30.566   3.199
70599W        W38993  15.360   5.676  10.729
70600W        W38994   3.759   3.348   0.887
70601W        W38995   6.747  34.441  13.319
70602W        W38996   8.404  16.639   2.874
70603W        W38997  41.655  34.962  14.308
70604W        W38998  43.887  15.120  10.643
70605W        W38999  26.683  43.924  11.103
70606W        W39000   4.636  11.407  14.928
70607W        W39001  37.879   2.599  12.322
70608W        W39002  25.533  24.987   4.377
70609W        W39003  30.308  21.112   2.978
70610W        W39004   5.882  35.549  11.110
70611W        W39005  35.117  38.782  10.375
70612W        W39006  39.870  24.673   1.370
70613W        W39007  14.053  19.634  14.778
70614W        W39008  12.227  16.892  13.164
70615W        W39009   3.311  15.290  11.953
70616W        W39010   7.718  28.348   4.624
70617W        W39011   5.240  31.427  10.395
70618W        W39012  43.828  10.538  10.358
70619W        W39013  32.230  34.327  13.058
70620W        W39014  14.833   1.296  11.126
70621W        W39015  39.387  17.228   0.755
70622W        W39016  12.263  44.707  11.543
70623W        W39017  12.117   8.105   1.338
70624W        W39018  22.624   2.253   2.165
70625W        W39019   9.416  40.341   3.378
70626W        W39020  20.197  39.490   2.331
70627W        W39021   1.858  40.634   2.321
70628W        W39022  19.148  44.709  13.961
70629W        W39023  44.795  21.644   1.642
70630W        W39024  27.544  13.828   1.218
70631W        W39025  33.229  31.171   1.266
70632W        W39026  14.614  30.115  14.316
70633W        W39027   0.786   8.210  13.396
70634W        W39028  29.243  36.120   1.592
70635W        W39029   6.745  13.872  10.718
70636W        W39030  33.887  34.602   4.188
70637W        W39031  23.046  43.939  11.715
70638W        W39032  11.786  16.463   4.525
70639W        W39033  12.944  34.702  11.190
70640W        W39034  28.193   1.418   1.411
70641W        W39035   3.864  25.929  11.975
70642W        W39036  31.115  12.954   5.357
70643W        W39037   3.230  34.112  12.517
70644W        W39038  17.784  26.129   2.596
70645W        W39039   3.691  44.562   0.438
70646W        W39040  32.316  10.280   3.597
70647W        W39041  18.094  25.288  14.128
70648W        W39042   9.915  31.685  14.785
70649W        W39043  24.090  21.540  13.634
70650W        W39044  27.736  14.015   1.706
70651W        W39045  40.818  12.740   0.033
70652W        W39046  44.012  15.060   2.601
70653W        W39047  39.960  37.276  13.411
70654W        W39048  24.537   7.716   1.278
70655W        W39049  18.146  26.600  11.365
70656W        W39050  20.997  23.215   4.626
70657W        W39051  10.393   4.195   3.202
70658W        W39052  25.126  18.648  12.066
70659W        W39053   3.688  23.389   4.141
70660W        W39054   3.011  38.993   4.537
70661W        W39055   3.917  16.471  10.645
70662W        W39056   9.191  32.640  13.356
70663W        W39057   9.228  27.560  11.441
70664W        W39058   0.575  42.564   9.728
70665W        W39059  14.050  11.199   0.820
70666W        W39060  10.329  29.949  10.456
70667W        W39061  24.308   5.484   0.183
70668W        W39062  36.055  15.707   1.563
70669W        W39063  36.974  35.998   1.467
70670W        W39064   6.168  24.752  13.632
70671W        W39065  25.634  41.257  14.405
70672W        W39066  34.124   5.770   1.313
70673W        W39067   0.063   6.899   0.888
70674W        W39068  23.897  18.186  12.420
70675W        W39069  37.397  41.265   3.687
70676W        W39070  12.038  17.194   2.155
70677W        W39071  40.888  21.080  13.830
70678W        W39072  31.530   2.501  10.697
70679W        W39073  15.255  40.371  13.408
70680W        W39074  39.122  38.008  13.920
70681W        W39075  39.212  18.953   5.076
70682W        W39076   6.920  41.018  12.593
70683W        W39077  31.991  15.865   0.314
70684W        W39078  29.675  15.115  12.784
70685W        W39079  19.906  31.873   3.351
70686W        W39080   8.395  13.142  12.908
70687W        W39081  33.411   6.387   2.697
70688W        W39082  36.944  42.408  11.345
70689W        W39083  27.770  22.025  13.420
70690W        W39084  12.949  23.059   1.680
70691W        W39085  30.427  22.959   1.144
70692W        W39086  26.788   8.258  14.937
70693W        W39087  43.824  27.051  13.077
70694W        W39088  11.221  18.689   4.448
70695W        W39089  30.238  27.121   3.216
70696W        W39090   5.654  39.514   1.284
70697W        W39091  12.641  38.068  13.817
70698W        W39092  37.879  12.660  11.431
70699W        W39093  21.132  16.664   0.202
70700W        W39094   1.303  38.284  11.602
70701W        W39095  28.036  28.807  11.846
70702W        W39096  40.955   1.759   4.545
70703W        W39097  33.689  37.867   0.368
70704W        W39098  12.299  12.282  11.190
70705W        W39099   6.452  15.099   4.106
70706W        W39100  31.135  32.052  10.933
70707W        W39101   2.220  25.865   4.244
70708W        W39102  21.923   9.129   3.588
70709W        W39103  33.150  18.308   4.647
70710W        W39104  41.859   2.488   1.755
70711W        W39105  19.624  10.777  12.040
70712W        W39106   3.970  23.217   1.299
70713W        W39107  10.224  39.727   3.376
70714W        W39108   4.850  22.492   3.380
70715W        W39109   2.266   4.401  12.088
70716W        W39110   0.969  19.263   4.448
70717W        W39111   2.328   4.824  10.373
70718W        W39112  30.756  36.115   1.323
70719W        W39113   5.847   1.802  14.585
70720W        W39114   6.604   9.587  14.388
70721W        W39115  21.490   5.358  13.081
70722W        W39116  29.364  23.971  12.987
70723W        W39117  11.133   7.909   1.820
70724W        W39118  26.287  44.911  10.460
70725W        W39119  38.653  11.420  11.704
70726W        W39120  19.427  11.653   3.287
70727W        W39121  20.015   8.099   2.544
70728W        W39122   2.237   8.839   4.807
70729W        W39123  36.346  33.028   3.344
70730W        W39124  30.025  44.011  10.709
70731W        W39125  29.733  42.925   0.210
70732W        W39126  12.575  11.277   2.663
70733W        W39127  16.694  28.936   4.516
70734W        W39128   3.213  16.699   0.491
70735W        W39129  25.058  36.040   3.306
70736W        W39130  18.677  37.756   0.899
70737W        W39131   3.953  40.422   2.780
70738W        W39132  39.990  13.621  11.163
70739W        W39133  44.699   6.194  11.698
70740W        W39134   4.766  32.609  10.769
70741W        W39135  40.375  10.983   3.708
70742W        W39136  17.956  17.758  13.486
70743W        W39137   9.136  20.810   0.904
70744W        W39138  27.085  44.538   1.631
70745W        W39139  28.447   8.519   4.950
70746W        W39140  41.350  44.280  11.475
70747W        W39141   5.963  18.760  14.972
70748W        W39142  43.359  12.598   0.867
70749W        W39143  43.363  19.332  12.651
70750W        W39144  22.809  24.512  11.600
70751W        W39145  15.601  41.509  14.114
70752W        W39146  10.166  12.376  13.041
70753W        W39147  39.575  44.309   2.303
70754W        W39148  17.333   4.825   0.450
70755W        W39149  28.309  20.443   1.046
70756W        W39150  29.548   9.178  10.714
70757W        W39151   7.362   3.773   1.252
70758W        W39152  42.025  38.987  14.595
70759W        W39153   2.287  39.304  11.089
70760W        W39154  21.769  37.882   0.801
70761W        W39155  28.604  10.656  14.455
70762W        W39156  40.543   3.443  12.963
70763W        W39157  12.053   3.964  12.473
70764W        W39158  10.982  44.034  11.773
70765W        W39159  21.633   9.160  10.626
70766W        W39160   3.964  26.028  13.273
70767W        W39161  21.716   9.765  14.975
70768W        W39162  23.999  16.286   1.358
70769W        W39163  27.596   7.951   2.960
70770W        W39164  11.427   5.638   0.327
70771W        W39165  13.453  15.482   3.193
70772W        W39166  14.347  24.243   1.692
70773W        W39167  19.152  42.043  12.995
70774W        W39168  28.157  33.108  11.186
70775W        W39169  34.052   5.691   2.209
70776W        W39170  13.791  12.873  14.072
70777W        W39171  42.878  29.031   0.039
70778W        W39172  23.747  16.081   0.359
70779W        W39173   1.456   2.245  11.516
70780W        W39174  29.989   5.957   4.661
70781W        W39175  35.964  23.617   3.476
70782W        W39176  26.191  40.699   4.200
70783W        W39177  39.927  30.342   1.370
70784W        W39178  29.616  38.798   2.883
70785W        W39179  13.692  24.703   2.304
70786W        W39180  34.621  43.928   3.197
70787W        W39181  42.269   0.482   4.453
70788W        W39182   9.220   5.914  11.240
70789W        W39183  39.635  39.749  14.866
70790W        W39184  27.286  37.989   0.386
70791W        W39185  25.595  27.031  11.527
70792W        W39186  25.123  21.623   3.201
70793W        W39187  17.788  36.049  10.855
70794W        W39188  19.279   6.717  12.402
70795W        W39189  15.700  16.644  13.763
70796W        W39190  15.612   9.985   1.843
70797W        W39191  17.435  25.689   0.954
70798W        W39192  29.389  12.750   3.601
70799W        W39193  38.067   0.735  12.234
70800W        W39194  24.116  15.411  12.857
70801W        W39195  22.543  36.413  13.960
70802W        W39196   1.452  31.580  10.606
70803W        W39197  25.543  29.901  14.020
70804W        W39198  36.287   0.245  13.501
70805W        W39199  22.206  13.139   9.951
70806W        W39200  13.633  32.029   3.813
70807W        W39201  17.765  20.207  14.457
70808W        W39202  31.476  34.623  13.338
70809W        W39203  39.506  11.382  13.457
70810W        W39204  16.708  12.613   0.719
70811W        W39205  17.191  16.539   3.684
70812W        W39206   1.319  10.069  12.079
70813W        W39207   8.650   4.695  11.706
70814W        W39208  42.024   3.886   1.878
70815W        W39209  35.602  38.858  12.478
70816W        W39210  31.516  20.729  14.578
70817W        W39211  28.065  26.120   2.186
70818W        W39212   7.697  29.736   3.672
70819W        W39213  18.825  30.915  13.491
70820W        W39214   7.800  39.869   2.707
70821W        W39215  24.482  25.587  11.490
70822W        W39216  12.979  30.927  11.304
70823W        W39217  30.687  41.104  13.911
70824W        W39218  21.381   3.739   5.136
70825W        W39219  25.462  36.503  14.335
70826W        W39220  33.079  27.582  14.877
70827W        W39221  24.534  25.677   2.340
70828W        W39222  10.874   7.198  12.954
70829W        W39223   4.253  15.356   4.980
70830W        W39224  20.352  14.166  11.826
70831W        W39225  41.970  29.943   4.001
70832W        W39226  11.376   4.435   4.076
70833W        W39227  31.250  21.983   2.413
70834W        W39228   3.913  11.226   2.198
70835W        W39229   8.209  11.125  12.000
70836W        W39230  30.476  20.600  11.482
70837W        W39231  10.785  41.613   1.951
70838W        W39232   1.319  38.409  10.616
70839W        W39233  23.061   4.827   4.603
70840W        W39234  36.368  15.796  12.894
70841W        W39235  30.029  11.885   0.430
70842W        W39236   5.090  22.512  14.898
70843W        W39237  21.353  11.454   2.418
70844W        W39238  18.716  26.388  11.619
70845W        W39239  35.030   9.587  11.398
70846W        W39240   8.791  27.790  13.609
70847W        W39241  13.902  38.362   2.817
70848W        W39242  40.153  10.181  13.995
70849W        W39243  31.435  22.094  14.242
70850W        W39244  37.828   4.457  14.432
70851W        W39245   1.244  22.609   5.025
70852W        W39246  29.106  43.291   2.080
70853W        W39247  21.984  33.616  11.941
70854W        W39248   4.535  33.769   1.754
70855W        W39249  21.907  40.602  11.206
70856W        W39250   6.250  12.856  13.604
70857W        W39251   2.440  21.778   3.029
70858W        W39252  15.121  44.962   0.703
70859W        W39253  20.991  13.159  13.905
70860W        W39254   9.186  10.727   4.444
70861W        W39255  32.027  37.805  13.047
70862W        W39256  30.121  26.496  12.521
70863W        W39257   0.140   4.667  12.435
70864W        W39258  32.605  31.970  14.862
70865W        W39259  38.119  14.552   0.482
70866W        W39260  23.597  15.593   0.270
70867W        W39261  33.152   1.917  14.441
70868W        W39262  26.099   4.785   3.037
70869W        W39263  14.876  23.310  14.487
70870W        W39264  30.082   2.541  12.064
70871W        W39265  36.566  13.688  14.764
70872W        W39266  22.249  39.816  14.930
70873W        W39267  31.868  20.518   3.312
70874W        W39268  37.454  15.770   2.827
70875W        W39269   6.801  10.676   2.261
70876W        W39270  27.164  39.354  11.159
70877W        W39271  19.967  43.594  11.183
70878W        W39272  15.852  17.201   1.663
70879W        W39273  19.724  19.528  14.793
70880W        W39274  29.517  32.054   2.280
70881W        W39275  29.578  38.280   2.868
70882W        W39276  42.849  39.058  14.483
70883W        W39277   9.660  34.116  14.376
70884W        W39278  38.300  39.737  14.580
70885W        W39279  23.088  36.516   2.404
70886W        W39280  18.129  41.404   3.170
70887W        W39281   9.043  28.444   2.780
70888W        W39282   8.672   8.290  10.479
70889W        W39283   0.376   3.549  13.907
70890W        W39284   5.646  17.983  12.972
70891W        W39285  41.055  40.453   2.766
70892W        W39286  12.266  10.793  13.276
70893W        W39287   9.868   9.059   5.028
70894W        W39288  27.261  15.783   0.407
70895W        W39289  24.722  10.284  13.490
70896W        W39290  32.596  37.725   3.580
70897W        W39291  44.493  20.689  12.604
70898W        W39292  19.708   6.104   0.254
70899W        W39293  13.581  30.086   3.515
70900W        W39294   3.717  43.023   0.373
70901W        W39295  22.970   1.951  12.090
70902W        W39296   1.822  42.264   2.790
70903W        W39297  23.082  19.127   4.346
70904W        W39298  21.130  30.037   0.753
70905W        W39299  13.380  39.379   4.359
70906W        W39300  16.359  42.272  13.468
70907W        W39301  15.223   1.242   1.975
70908W        W39302  37.055  12.907  11.667
70909W        W39303  34.420  18.320  10.898
70910W        W39304   2.030  36.546  11.952
70911W        W39305  25.658  33.421  12.158
70912W        W39306  36.131  10.279  10.993
70913W        W39307  17.839   8.893   2.906
70914W        W39308   0.081   4.408   3.778
70915W        W39309   2.478  18.955  11.470
70916W        W39310   1.968   0.536  13.840
70917W        W39311  32.645  38.628  12.494
70918W        W39312  38.385   1.940   0.894
70919W        W39313  38.296  35.993   2.378
70920W        W39314  11.269  10.634   3.680
70921W        W39315  12.758  35.209   1.674
70922W        W39316  34.627  25.716  11.820
70923W        W39317  16.591  31.875   4.953
70924W        W39318  38.862   3.734  10.385
70925W        W39319  36.149  30.288   4.117
70926W        W39320   7.617   8.247  10.541
70927W        W39321  37.625  24.188   0.536
70928W        W39322   8.340  29.469   2.253
70929W        W39323  20.131  28.999   3.739
70930W        W39324   6.792  28.237   4.720
70931W        W39325   6.388  29.253   2.394
70932W        W39326  43.758   7.278  13.491
70933W        W39327   9.402   8.753  14.300
70934W        W39328  13.042   0.391   2.948
70935W        W39329   8.795   3.330   4.775
70936W        W39330  40.036  13.232  14.817
70937W        W39331   5.922  40.391   1.103
70938W        W39332  33.022  34.404   1.696
70939W        W39333   0.569  22.127  11.105
70940W        W39334  11.559  26.153  10.376
70941W        W39335   6.806   1.646  13.468
70942W        W39336  29.422  25.472  11.998
70943W        W39337  17.858  40.436   0.521
70944W        W39338  38.263  33.968  13.363
70945W        W39339  27.085  42.883  12.673
70946W        W39340   3.176  10.862   2.876
70947W        W39341  11.793  15.015  11.457
70948W        W39342  15.608   4.392  12.537
70949W        W39343  38.493  13.555  13.135
70950W        W39344  27.562  25.908   0.953
70951W        W39345  25.931  32.035  10.457
70952W        W39346  44.355   4.147   2.696
70953W        W39347  42.534  42.369  14.411
70954W        W39348  30.850  33.457   3.291
70955W        W39349  29.348  30.320  12.669
70956W        W39350  22.780   5.574   1.151
70957W        W39351  16.633  36.835   4.653
70958W        W39352  12.086  12.067  11.616
70959W        W39353   5.754   3.205  14.231
70960W        W39354  31.189  34.608  10.796
70961W        W39355  30.834  30.708  11.167
70962W        W39356  33.667  39.990   1.344
70963W        W39357  40.769  29.437  10.742
70964W        W39358  35.044  26.951   4.570
70965W        W39359  22.678  17.119   0.875
70966W        W39360  36.417   1.047  12.935
70967W        W39361  35.356  20.462   3.653
70968W        W39362   6.978   5.660  11.715
70969W        W39363  11.401  41.233   1.316
70970W        W39364  16.328  30.941  13.537
70971W        W39365  25.479  28.695  13.556
70972W        W39366  16.774  19.327  14.980
70973W        W39367  28.387   2.673  12.149
70974W        W39368  30.909  11.581   3.205
70975W        W39369  31.921  40.728   2.344
70976W        W39370  43.453  27.213  11.264
70977W        W39371  18.616  20.044   0.991
70978W        W39372   6.788  14.037   9.734
70979W        W39373  42.479  25.635  13.635
70980W        W39374  21.618  43.703   0.322
70981W        W39375  14.090  23.563  14.380
70982W        W39376   2.958  35.511   0.352
70983W        W39377  38.770   4.178   0.806
70984W        W39378  40.764  19.635   0.323
70985W        W39379  15.933   2.262  13.396
70986W        W39380  19.628  40.518   2.550
70987W        W39381  23.962  42.237  10.665
70988W        W39382   1.028  17.501   2.185
70989W        W39383   5.945  38.394  12.865
70990W        W39384   1.982  21.925  13.931
70991W        W39385  18.651  19.278  14.491
70992W        W39386  11.371   6.395  12.142
70993W        W39387  42.499  15.572   2.157
70994W        W39388  38.230  11.064  14.036
70995W        W39389  21.752  21.837   2.895
70996W        W39390  20.018  17.375  11.423
70997W        W39391  12.679  19.564   4.515
70998W        W39392  28.194   1.965   3.792
70999W        W39393  34.143   8.104   3.684
71000W        W39394   7.144  19.135   3.244
71001W        W39395  13.871  23.069  14.304
71002W        W39396  24.734   3.761  11.945
71003W        W39397  18.665  13.858   1.623
71004W        W39398  39.733   5.442  12.530
71005W        W39399  22.757  35.481  10.065
71006W        W39400  39.296   3.326  11.117
71007W        W39401  20.539  24.580   2.316
71008W        W39402  27.692   3.933  14.015
71009W        W39403  30.056  13.820   4.574
71010W        W39404   4.910  28.141   0.203
71011W        W39405  27.541  41.267   4.827
71012W        W39406  37.358   2.867   4.592
71013W        W39407  29.226   4.155  14.216
71014W        W39408  29.444  15.763   1.135
71015W        W39409  23.922  28.447   2.797
71016W        W39410   4.420  26.980  14.427
71017W        W39411   2.913  11.590   3.576
71018W        W39412   0.315  41.395  14.394
71019W        W39413  22.793   2.440   3.747
71020W        W39414  25.964   9.632   1.298
71021W        W39415  24.366  32.070  10.732
71022W        W39416   2.830  36.627   0.203
71023W        W39417   8.884  42.873  10.463
71024W        W39418  31.892   7.390  14.028
71025W        W39419  40.287  23.615   0.031
71026W        W39420  22.115   8.481  13.026
71027W        W39421  31.459  42.276  12.944
71028W        W39422  24.280  25.035   0.987
71029W        W39423  21.361  25.184  11.990
71030W        W39424  12.860  22.327  12.581
71031W        W39425  32.431  35.915   1.868
71032W        W39426  33.627  32.622  14.013
71033W        W39427  19.756   3.379   1.174
71034W        W39428   2.493  37.108   1.906
71035W        W39429  13.353  39.566  14.288
71036W        W39430  40.991  30.710  14.855
71037W        W39431  36.311  14.909  14.114
71038W        W39432  36.951  27.402  13.411
71039W        W39433   6.395  13.172  10.139
71040W        W39434  13.857  24.699   1.783
71041W        W39435  10.092  31.994  12.093
71042W        W39436  37.000   9.870   3.330
71043W        W39437   6.463   7.163   1.825
71044W        W39438  37.375  16.768  14.004
71045W        W39439  25.210   0.822  14.259
71046W        W39440  35.913  28.731   0.543
71047W        W39441  42.949  24.246  11.623
71048W        W39442  19.170  33.643   4.854
71049W        W39443  42.742  27.492  13.422
71050W        W39444  36.306  41.446  13.440
71051W        W39445  31.339  40.610  11.123
71052W        W39446   0.230  18.574  12.949
71053W        W39447  33.135   7.421  14.164
71054W        W39448   2.360  27.228  11.457
71055W        W39449  33.432   9.171  10.556
71056W        W39450  15.371  16.751   2.381
71057W        W39451  35.696   5.262   3.702
71058W        W39452  19.488  38.953   3.223
71059W        W39453  24.560   2.377  12.070
71060W        W39454   5.685  23.686   0.576
71061W        W39455  18.695   9.596   2.544
71062W        W39456  29.857  20.544   1.741
71063W        W39457  39.070  11.656   1.376
71064W        W39458  20.784  16.516  13.002
71065W        W39459   9.266  13.830  14.869
71066W        W39460  36.831  41.763  14.927
71067W        W39461   7.890  14.072   0.900
71068W        W39462   1.619  18.960  10.682
71069W        W39463  34.509  21.715   4.543
71070W        W39464  33.466  16.091   1.434
71071W        W39465  41.387  44.767  14.359
71072W        W39466   3.297   9.741   1.935
71073W        W39467   7.805  30.921  12.610
71074W        W39468   7.289   1.998   1.145
71075W        W39469  16.828  35.898   3.742
71076W        W39470  12.539  26.583   2.400
71077W        W39471  22.649  25.669  11.999
71078W        W39472  29.992  17.110   3.705
71079W        W39473  21.636  32.905  12.277
71080W        W39474  17.051  43.144   3.585
71081W        W39475   9.167  37.096  13.841
71082W        W39476  28.469  20.657  14.555
71083W        W39477  35.858  25.157   1.401
71084W        W39478  16.397  44.034   3.240
71085W        W39479  35.620  39.778  10.693
71086W        W39480  14.839   6.364   3.682
71087W        W39481  31.408  35.372   1.193
71088W        W39482  24.305   9.890  11.965
71089W        W39483  34.388  37.702  13.965
71090W        W39484   8.358   3.728  12.504
71091W        W39485  10.466  20.048   0.439
71092W        W39486  42.334  35.729  14.345
71093W        W39487  34.386  44.576   1.189
71094W        W39488  23.104  17.744  11.534
71095W        W39489   6.029   0.818  12.217
71096W        W39490  38.717  37.213   2.704
71097W        W39491  19.539  14.822   5.075
71098W        W39492  13.247  21.026  10.656
71099W        W39493  25.935  35.937  14.857
71100W        W39494  16.322  26.447   9.777
71101W        W39495  37.040  29.602   4.671
71102W        W39496  22.469  36.115  12.501
71103W        W39497  40.314  44.954   2.082
71104W        W39498   7.296   7.804  12.167
71105W        W39499   9.192  21.288  13.870
71106W        W39500  23.034  30.115  12.436
71107W        W39501  34.160   5.145   3.746
71108W        W39502  14.911  44.271   1.868
71109W        W39503   3.842  10.161   4.417
71110W        W39504   7.783  11.772   0.536
71111W        W39505  32.001  33.678   0.519
71112W        W39506  39.515   0.376  13.311
71113W        W39507   6.923  39.007  14.280
71114W        W39508   5.814  30.979   3.220
71115W        W39509   1.720  26.188  12.189
71116W        W39510  32.557   5.199   4.597
71117W        W39511   8.399  33.841   3.829
71118W        W39512   3.461  30.475  11.686
71119W        W39513  40.262   0.808  10.518
71120W        W39514  13.018  12.913  13.952
71121W        W39515   1.737  11.576  13.901
71122W        W39516  38.531  16.888   3.209
71123W        W39517  21.600  32.267   3.993
71124W        W39518  30.990  38.800   2.815
71125W        W39519  31.075  34.365  11.230
71126W        W39520  31.925  21.721   1.983
71127W        W39521  31.418   2.890   0.928
71128W        W39522  20.675  20.490  10.738
71129W        W39523  24.818  14.577   2.048
71130W        W39524  18.340  31.964   1.252
71131W        W39525  39.539  29.439   1.327
71132W        W39526   3.688   8.300  14.417
71133W        W39527  31.880  37.055   0.784
71134W        W39528  25.165   1.683  14.510
71135W        W39529  14.781  16.536   0.446
71136W        W39530  15.172  32.763   2.281
71137W        W39531  21.462   8.123   2.641
71138W        W39532  37.016  13.689   0.521
71139W        W39533   8.150  23.589  10.622
71140W        W39534   0.352  41.780   0.818
71141W        W39535  18.996  25.581  10.299
71142W        W39536  32.710  38.999  12.915
71143W        W39537  24.958  41.582  11.517
71144W        W39538  25.423  35.529  11.958
71145W        W39539   8.764   2.895  12.470
71146W        W39540  28.344   0.882  13.829
71147W        W39541  18.113  14.106  13.902
71148W        W39542  36.103  33.359  13.518
71149W        W39543  42.730  20.594   1.815
71150W        W39544  39.748  28.496  12.316
71151W        W39545  11.053  15.110  14.717
71152W        W39546  38.972  24.574   1.696
71153W        W39547  23.486  40.521   1.450
71154W        W39548  26.007   9.026  14.936
71155W        W39549   8.186  30.896  14.459
71156W        W39550  35.961  34.529   2.397
71157W        W39551  17.171  27.752  13.408
71158W        W39552  30.557  20.526  14.165
71159W        W39553   5.225  13.393   9.849
71160W        W39554   0.760  32.759   4.320
71161W        W39555  14.310   5.209  14.494
71162W        W39556  11.144  25.397   0.487
71163W        W39557   7.650   8.485  14.869
71164W        W39558   2.174  20.914   3.929
71165W        W39559  22.416  17.401   1.230
71166W        W39560  14.268  17.846   4.847
71167W        W39561   9.957   0.518   0.903
71168W        W39562  37.463  10.902   1.403
71169W        W39563  21.718  41.811  10.605
71170W        W39564  10.780  26.644   1.932
71171W        W39565  25.061   9.440   1.374
71172W        W39566  19.641  16.465  11.751
71173W        W39567   0.319  24.870  14.183
71174W        W39568   3.004   6.654  12.812
71175W        W39569  33.942  10.834  10.539
71176W        W39570   0.382   2.390   4.658
71177W        W39571  18.617   4.776   4.115
71178W        W39572  39.809  41.888  13.407
71179W        W39573  29.686   6.885   4.535
71180W        W39574  16.098  11.330  14.314
71181W        W39575  22.908  10.238  10.826
71182W        W39576   8.884  42.906   2.429
71183W        W39577  26.104  26.238   1.370
71184W        W39578  31.451  34.823   3.347
71185W        W39579  31.553  40.229  14.310
71186W        W39580  31.136  20.168   2.181
71187W        W39581   3.651  39.376  14.804
71188W        W39582  18.445  32.579  10.740
71189W        W39583   5.362  17.593   1.235
71190W        W39584  11.637  42.774   1.946
71191W        W39585  16.992  42.037   5.014
71192W        W39586  30.085  35.497  11.604
71193W        W39587  28.711   7.910   2.715
71194W        W39588  30.800  13.258  11.255
71195W        W39589  20.198   7.281   4.620
71196W        W39590   6.808  26.569  10.790
71197W        W39591  21.039  30.545   0.783
71198W        W39592  22.485   8.915  12.326
71199W        W39593  11.603  33.199   1.415
71200W        W39594  42.909  30.636   4.738
71201W        W39595  16.731  17.634  12.626
71202W        W39596  11.687   8.488  12.383
71203W        W39597  10.157  38.076  12.928
71204W        W39598   8.892  21.656  14.838
71205W        W39599   8.896  21.666  11.365
71206W        W39600  43.495  16.554  11.595
71207W        W39601  25.416  41.789  11.616
71208W        W39602  29.084   1.947  11.540
71209W        W39603  28.122  17.749   4.600
71210W        W39604  31.241   6.606  11.705
71211W        W39605  19.296  29.967   3.586
71212W        W39606  11.952  29.077   3.654
71213W        W39607   8.390   4.003  14.776
71214W        W39608  31.381  36.938  13.361
71215W        W39609  13.155  30.407  13.676
71216W        W39610   1.017  42.567  14.035
71217W        W39611  12.689  44.599   0.252
71218W        W39612   1.792  32.939   3.777
71219W        W39613  28.109   6.412   0.976
71220W        W39614  28.325  30.813  10.274
71221W        W39615  35.400  36.317  11.712
71222W        W39616  15.669  10.152  14.351
71223W        W39617   6.155  44.473   4.273
71224W        W39618  25.617  25.049   2.590
71225W        W39619  12.172  25.246  11.649
71226W        W39620  28.133  10.108   1.867
71227W        W39621  34.194   8.294  13.807
71228W        W39622   3.673  26.589   2.592
71229W        W39623  23.065  15.549  14.540
71230W        W39624   8.593  11.187   0.364
71231W        W39625  10.585  27.619   1.683
71232W        W39626  31.434   7.149   1.445
71233W        W39627  22.165  13.851   1.130
71234W        W39628  10.731  25.633   3.982
71235W        W39629  17.171  20.115   4.200
71236W        W39630   6.682  31.096   1.921
71237W        W39631  28.258  12.671  11.373
71238W        W39632   9.948  19.237  13.372
71239W        W39633  15.671  36.439   4.461
71240W        W39634  20.690  14.625  13.423
71241W        W39635   5.780  23.613   4.528
71242W        W39636  41.251  20.343   3.741
71243W        W39637  40.818   1.912   2.929
71244W        W39638  39.900  42.333   1.863
71245W        W39639  42.676  40.230  11.610
71246W        W39640   6.396  38.456  11.454
71247W        W39641  34.249  33.590  13.714
71248W        W39642  19.234  24.524   1.250
71249W        W39643  21.425  10.128   9.792
71250W        W39644  13.088  24.982   2.807
71251W        W39645   2.525  35.011   4.710
71252W        W39646   4.741  10.117   3.283
71253W        W39647  16.030  13.592   0.316
71254W        W39648  24.082  22.130  11.598
71255W        W39649  19.504  17.225  11.447
71256W        W39650  37.836  34.133   1.310
71257W        W39651   8.403   6.230  11.092
71258W        W39652  29.248  18.621  12.094
71259W        W39653  16.771  37.315   4.879
71260W        W39654   3.719  15.321  13.828
71261W        W39655  43.799  44.517  11.942
71262W        W39656   3.917  31.985  12.180
71263W        W39657   3.223  24.044   3.303
71264W        W39658   9.633   7.180  12.456
71265W        W39659  34.667  38.556  10.620
71266W        W39660  44.731  35.846  11.072
71267W        W39661  14.686   6.264   0.835
71268W        W39662  39.709  21.112  10.938
71269W        W39663  41.416  14.828  11.135
71270W        W39664   1.355  23.633   3.191
71271W        W39665  31.635  36.916  10.735
71272W        W39666  44.796  14.589   2.289
71273W        W39667   3.565  35.016  11.644
71274W        W39668  25.998  17.231   4.514
71275W        W39669  33.437  22.983   3.360
71276W        W39670  22.239  39.555  13.199
71277W        W39671   6.120   4.705  12.716
71278W        W39672  11.207  43.056   2.404
71279W        W39673  40.779  39.887   3.795
71280W        W39674  26.420   7.218   1.246
71281W        W39675   6.668   7.305  13.075
71282W        W39676  14.467  41.072  14.290
71283W        W39677  17.864  19.047  12.961
71284W        W39678  18.669  35.787   0.618
71285W        W39679   2.732  15.086  10.826
71286W        W39680  40.902  34.198   1.443
71287W        W39681   5.922   1.829  10.684
71288W        W39682  16.361  23.079   2.206
71289W        W39683  36.967  12.528   3.762
71290W        W39684  29.409  44.422   1.221
71291W        W39685   8.753  34.825  13.007
71292W        W39686  39.598   2.824   3.650
71293W        W39687  24.500   4.254  11.888
71294W        W39688  34.022   1.289   4.579
71295W        W39689   0.964  40.999   2.182
71296W        W39690  40.909   9.284   2.803
71297W        W39691  32.374  18.803  13.130
71298W        W39692  11.248  16.734   0.523
71299W        W39693  21.115  43.648  12.969
71300W        W39694  25.617   8.866   3.641
71301W        W39695  20.757  16.101  14.588
71302W        W39696  11.457  22.180   1.844
71303W        W39697  26.712  11.870   4.407
71304W        W39698  20.401   3.876  14.476
71305W        W39699   3.408  43.454   0.532
71306W        W39700  43.308   4.369  11.586
71307W        W39701  14.119  24.134   1.227
71308W        W39702  24.376  29.255  13.084
71309W        W39703  43.276  34.555  12.940
71310W        W39704  29.513  18.642  12.534
71311W        W39705   4.057  22.093  14.311
71312W        W39706  20.081  27.528  11.189
71313W        W39707  34.356  14.071  12.273
71314W        W39708  41.742  33.618  13.451
71315W        W39709  44.277  35.926   3.193
71316W        W39710  26.142  43.018   4.313
71317W        W39711  30.082  11.995   0.972
71318W        W39712  44.975  39.436   1.279
71319W        W39713   7.528   3.777  14.879
71320W        W39714  20.089   0.758   0.456
71321W        W39715   1.452   5.375   4.102
71322W        W39716  12.320  33.163  13.513
71323W        W39717   9.046  31.142  13.633
71324W        W39718  10.734   4.774  11.539
71325W        W39719  32.436  41.176   0.989
71326W        W39720   9.605  20.215  12.493
71327W        W39721  42.778  33.552   0.901
71328W        W39722   1.598  15.138  10.651
71329W        W39723  20.894  28.069  13.026
71330W        W39724  38.287  14.115   0.319
71331W        W39725  18.682  30.393   0.004
71332W        W39726  17.553  30.973   0.859
71333W        W39727  13.075  29.024  14.788
71334W        W39728  35.336   4.250   0.011
71335W        W39729   0.492  14.142   2.413
71336W        W39730   5.698   4.279   1.829
71337W        W39731  38.513  43.819   0.521
71338W        W39732  39.799  19.317  14.504
71339W        W39733  40.882   7.714   3.772
71340W        W39734   4.158  29.913  13.645
71341W        W39735  38.816  21.611   3.610
71342W        W39736   8.444  32.056   2.802
71343W        W39737  21.251  41.065   1.740
71344W        W39738  29.462  39.792   2.697
71345W        W39739  10.761  12.573  14.781
71346W        W39740  17.630  16.647   0.832
71347W        W39741  30.640  40.291  14.329
71348W        W39742  14.608   0.063   0.874
71349W        W39743  17.228  43.831   2.702
71350W        W39744  43.971  42.972   0.037
71351W        W39745  41.521  19.719   0.762
71352W        W39746  11.596  14.497   2.654
71353W        W39747  39.492  29.559  14.463
71354W        W39748  21.396  16.785   0.926
71355W        W39749  41.103  38.834   0.727
71356W        W39750  11.877  32.310  12.016
71357W        W39751  31.962   6.597   0.877
71358W        W39752  41.019   6.221  13.933
71359W        W39753  11.580  13.242  13.879
71360W        W39754  37.014  25.080   2.673
71361W        W39755  10.239  16.774   3.339
71362W        W39756  13.366  40.462   1.755
71363W        W39757  35.808  18.571   2.648
71364W        W39758  40.764  16.004  14.002
71365W        W39759   1.189   1.799   2.409
71366W        W39760  33.510  29.508  14.040
71367W        W39761  10.227  40.784  13.996
71368W        W39762  20.304   6.841  13.507
71369W        W39763  28.287  28.223  13.653
71370W        W39764  38.695  10.385   0.723
71371W        W39765   1.216  42.532  11.356
71372W        W39766  29.722  37.119  14.207
71373W        W39767  38.875  23.721   0.951
71374W        W39768  36.281  25.237  14.983
71375W        W39769   4.940   8.270   3.251
71376W        W39770  34.501  40.582  13.831
71377W        W39771  14.079  40.013  14.985
71378W        W39772  11.662   7.430  12.428
71379W        W39773  42.473  25.887  12.123
71380W        W39774  21.557   2.424  11.490
71381W        W39775  12.819  33.341  10.789
71382W        W39776  13.061  22.526  14.458
71383W        W39777  19.735  27.882  11.040
71384W        W39778  40.861  41.260  13.918
71385W        W39779   5.230   7.107   2.806
71386W        W39780   6.902  26.486   3.230
71387W        W39781  30.097  24.654   2.178
71388W        W39782   8.770  44.491  13.584
71389W        W39783   6.351  29.976   3.662
71390W        W39784   3.719   6.759  12.011
71391W        W39785  39.857  42.319   0.968
71392W        W39786  42.844  15.746  11.168
71393W        W39787   1.928  25.606   1.400
71394W        W39788  40.383   9.315  13.975
71395W        W39789  25.490  14.425   2.204
71396W        W39790   5.780  39.362   2.202
71397W        W39791  34.699  31.476  10.889
71398W        W39792  12.532  39.436  13.044
71399W        W39793  39.118  15.229   2.111
71400W        W39794  27.467  33.683  11.575
71401W        W39795  21.215  13.252   3.693
71402W        W39796  18.116  30.527  13.512
71403W        W39797  11.308   6.345   3.025
71404W        W39798  42.997   9.705  14.783
71405W        W39799  38.190   5.775  14.268
71406W        W39800  42.387   9.509   1.669
71407W        W39801   5.314   7.912   3.309
71408W        W39802  15.339   4.893  13.391
71409W        W39803  11.698  25.704   0.296
71410W        W39804  18.153   0.705  14.505
71411W        W39805  42.616  29.050  13.158
71412W        W39806  39.233  13.169   3.056
71413W        W39807   8.170  21.043   4.324
71414W        W39808  23.808   0.415  13.779
71415W        W39809  24.243   6.706   0.431
71416W        W39810  39.003  12.080  11.019
71417W        W39811  14.221  40.933   0.295
71418W        W39812  16.506   1.516   3.264
71419W        W39813  24.264  37.559   1.947
71420W        W39814  34.037  25.557   4.901
71421W        W39815  42.550  34.707   4.869
71422W        W39816  18.356  34.637   2.308
71423W        W39817  38.058   0.249  12.025
71424W        W39818  40.750   7.861  10.744
71425W        W39819  12.810  24.974   0.123
71426W        W39820  35.234  11.324  14.969
71427W        W39821   3.036  37.511   2.846
71428W        W39822  11.126  36.446  10.392
71429W        W39823  35.148  44.407   2.780
71430W        W39824   4.737  38.022   3.564
71431W        W39825  30.308  28.662   0.521
71432W        W39826  13.224  18.548  13.533
71433W        W39827  16.715  40.353  10.628
71434W        W39828  10.767  20.109  10.890
71435W        W39829  38.699  19.803   4.174
71436W        W39830   9.403  33.367   3.199
71437W        W39831  13.118  20.063   1.840
71438W        W39832   0.747  21.059   1.267
71439W        W39833   2.423   6.748  12.855
71440W        W39834   2.117  12.891  12.481
71441W        W39835  20.204  33.878   1.919
71442W        W39836   1.431  40.287  12.872
71443W        W39837  20.205  16.621  14.227
71444W        W39838  36.467  18.580  14.929
71445W        W39839   3.830  39.141   0.724
71446W        W39840   3.845  23.632  11.976
71447W        W39841  43.225  35.901   5.031
71448W        W39842  42.048  18.671   4.400
71449W        W39843   0.460  20.534  12.615
71450W        W39844  30.896  30.933   0.623
71451W        W39845  31.498  40.571  14.714
71452W        W39846  38.039   6.206   0.227
71453W        W39847  33.503  22.691  10.677
71454W        W39848  37.345  30.482  12.229
71455W        W39849   6.696   7.864   1.227
71456W        W39850  38.805  28.695  11.560
71457W        W39851  33.836  40.465   2.380
71458W        W39852  35.393   2.205  13.964
71459W        W39853  22.533  31.021  14.347
71460W        W39854  30.519   9.817   1.344
71461W        W39855   0.365  39.980  14.382
71462W        W39856  28.992  44.837   2.633
71463W        W39857  23.165   3.236   4.220
71464W        W39858  44.676   9.069  13.505
71465W        W39859  16.723  28.765   3.218
71466W        W39860  43.838   2.795  12.026
71467W        W39861  35.032   3.851   0.484
71468W        W39862  42.983  36.408  14.267
71469W        W39863  32.347  26.678   0.951
71470W        W39864  18.348   0.771   0.955
71471W        W39865  14.631  21.625  11.603
71472W        W39866  11.106   5.671  10.873
71473W        W39867  40.800   8.405   1.867
71474W        W39868  19.276  23.917  14.006
71475W        W39869  29.938   8.032  13.336
71476W        W39870  43.718  44.264   4.819
71477W        W39871  21.273  33.491   4.438
71478W        W39872  37.576  35.549   0.067
71479W        W39873  31.770  35.567  12.601
71480W        W39874  13.015  40.780  10.790
71481W        W39875  29.801   4.437   3.813
71482W        W39876  37.282  43.468   1.883
71483W        W39877  21.893  14.450   4.519
71484W        W39878  19.779  36.639  12.165
71485W        W39879   1.862  30.626  14.530
71486W        W39880   8.474  18.224  11.460
71487W        W39881   0.390  35.418   3.866
71488W        W39882  30.678   3.977  11.687
71489W        W39883  27.966   3.821  10.933
71490W        W39884  25.498  10.753   0.405
71491W        W39885   8.751  44.728  12.778
71492W        W39886   0.419  36.992   4.474
71493W        W39887  35.387  38.801  11.554
71494W        W39888  41.707  34.708  14.759
71495W        W39889  20.470  35.079  10.679
71496W        W39890  10.271  12.328  13.966
71497W        W39891  42.431  12.183   4.042
71498W        W39892  11.529  18.149   5.049
71499W        W39893   3.888  23.160  12.590
71500W        W39894   6.983  40.518   3.619
71501W        W39895   3.532   7.018   2.507
71502W        W39896   0.030   6.661  13.792
71503W        W39897  16.379  31.506  14.853
71504W        W39898  15.790  10.026   4.483
71505W        W39899  36.087  19.761  12.075
71506W        W39900  44.221  14.713   0.002
71507W        W39901  11.960  27.234  10.712
71508W        W39902  24.561  44.506  14.450
71509W        W39903  41.393  22.496   1.257
71510W        W39904  43.027   0.404  12.300
71511W        W39905  42.767   9.347   3.917
71512W        W39906   8.538  36.970   1.893
71513W        W39907  28.442  38.328   2.264
71514W        W39908  28.439  17.203   1.309
71515W        W39909  26.465  22.378   0.348
71516W        W39910  23.555  23.695   3.875
71517W        W39911  26.650  30.175   4.095
71518W        W39912  17.781  35.391   1.957
71519W        W39913   9.387  43.274  11.894
71520W        W39914  21.254  33.567  13.792
71521W        W39915  38.109  18.212   3.354
71522W        W39916  32.229  32.127   2.305
71523W        W39917  20.740  32.839  12.421
71524W        W39918  14.682  13.146   3.617
71525W        W39919  27.582   1.428  14.702
71526W        W39920  23.593  28.878  12.588
71527W        W39921  13.201  44.762   4.862
71528W        W39922  10.688  40.445   1.294
71529W        W39923  12.157  24.442   0.374
71530W        W39924  12.219  38.146  12.890
71531W        W39925  19.994  18.123   4.097
71532W        W39926  36.030  31.367  11.287
71533W        W39927  42.128  34.462   5.031
71534W        W39928  17.614  12.777  12.472
71535W        W39929  43.436  11.554   0.949
71536W        W39930  40.006  42.971  14.292
71537W        W39931  25.761  10.209   4.936
71538W        W39932  21.030  15.217  12.988
71539W        W39933  23.689  27.485   2.764
71540W        W39934  12.898  10.808  14.944
71541W        W39935  22.886  20.809  14.551
71542W        W39936  37.791  42.405  11.658
71543W        W39937  36.186   6.732   4.578
71544W        W39938   6.156  14.383  14.717
71545W        W39939  21.963  42.969   2.391
71546W        W39940  33.899  34.825  12.933
71547W        W39941  25.584   7.722   2.300
71548W        W39942  27.498  16.527  11.541
71549W        W39943  12.224  16.628  13.603
71550W        W39944   3.353   7.797   3.545
71551W        W39945  18.074  35.565  14.925
71552W        W39946  20.528  43.026  14.365
71553W        W39947  44.808  30.085  11.220
71554W        W39948   1.219   3.846   4.227
71555W        W39949  37.661  21.294  11.009
71556W        W39950  25.784  37.739   2.856
71557W        W39951  33.642   8.070   0.355
71558W        W39952  40.796  41.918   4.644
71559W        W39953  37.286  42.248   2.783
71560W        W39954  32.570  44.198   1.255
71561W        W39955  12.478  23.099  14.798
71562W        W39956  23.186  18.604  14.939
71563W        W39957  28.105  21.101   0.305
71564W        W39958  12.545  18.928   3.766
71565W        W39959  26.132  22.437   4.649
71566W        W39960  24.169  21.338   0.345
71567W        W39961  12.372  29.428   1.788
71568W        W39962   7.754   7.236  13.770
71569W        W39963   6.471   3.880  12.828
71570W        W39964  18.264  17.643  14.431
71571W        W39965  35.704  23.952   0.936
71572W        W39966   7.927  34.947   3.734
71573W        W39967  44.131   8.100  11.420
71574W        W39968  28.580  32.492   2.271
71575W        W39969   5.267  33.140  13.308
71576W        W39970  19.696  14.348  13.099
71577W        W39971  34.313  24.495   4.255
71578W        W39972   6.418  29.414  13.534
71579W        W39973  40.492   3.688  13.422
71580W        W39974  42.411  39.792  11.619
71581W        W39975  21.053   3.146   2.256
71582W        W39976   4.895   5.298   1.178
71583W        W39977   1.968  35.322   4.143
71584W        W39978  16.182   8.340   2.792
71585W        W39979  39.819  33.014   2.723
71586W        W39980   3.807  19.225  13.149
71587W        W39981  43.085   1.800   0.505
71588W        W39982  40.187  35.669  12.134
71589W        W39983  14.248   5.506  11.144
71590W        W39984  10.187  12.097  13.495
71591W        W39985  14.745  15.179  14.723
71592W        W39986  19.168  15.510  14.486
71593W        W39987   9.193  24.750  12.598
71594W        W39988  25.619  41.522  10.692
71595W        W39989  33.846  28.791   2.038
71596W        W39990   8.361   3.733   2.249
71597W        W39991  13.634   7.316  14.502
71598W        W39992  37.727  36.338   3.316
71599W        W39993  18.020  44.788   0.514
71600W        W39994  42.776  27.960   5.112
71601W        W39995  24.523  27.930   1.454
71602W        W39996  13.627   1.550   2.804
71603W        W39997  11.101  22.636  10.594
71604W        W39998  31.466  17.270   2.093
71605W        W39999  31.704  26.448   1.317
71606W        W40000  29.423  41.410  11.960
71607W        W40001  26.525  40.374   3.625
71608W        W40002  25.551   5.292  12.507
71609W        W40003  18.157  10.641   4.636
71610W        W40004   0.583  22.650  11.131
71611W        W40005  21.550   8.964  14.273
71612W        W40006  14.755  12.713   0.572
71613W        W40007  41.428  41.711   5.004
71614W        W40008  11.105  41.297  14.375
71615W        W40009  13.302  22.275   0.329
71616W        W40010   5.415  10.577   0.936
71617W        W40011   0.094   1.122  12.474
71618W        W40012  13.709  25.501  12.324
71619W        W40013   8.924  27.456   3.357
71620W        W40014   6.810  35.334  12.864
71621W        W40015   7.493  18.945  14.376
71622W        W40016  40.228  26.971   1.399
71623W        W40017  25.668   2.820   0.626
71624W        W40018  33.480  14.452   0.772
71625W        W40019  16.445  31.966   4.052
71626W        W40020  38.972  42.416   2.903
71627W        W40021  28.469  32.195  11.310
71628W        W40022  40.211  33.027  13.352
71629W        W40023   5.281   4.664  12.060
71630W        W40024  26.670  31.989   3.612
71631W        W40025  42.855   4.889   4.469
71632W        W40026   2.687   3.300   0.936
71633W        W40027   3.417   7.411   4.403
71634W        W40028  33.839   8.270   4.093
71635W        W40029  35.655  27.618   1.315
71636W        W40030   5.850  35.905  10.733
71637W        W40031  14.097  25.188   1.296
71638W        W40032  34.508  29.283  10.739
71639W        W40033  33.180  28.557  11.554
71640W        W40034  27.523   0.882   0.368
71641W        W40035  38.483   9.691  13.084
71642W        W40036  17.272   0.189   1.884
71643W        W40037  36.494  25.793  14.349
71644W        W40038  32.547  17.843   1.836
71645W        W40039  31.976  18.142   4.750
71646W        W40040  37.232  37.256   4.069
71647W        W40041   2.184  30.822   1.279
71648W        W40042  41.231   8.758   1.971
71649W        W40043   6.195  13.837  13.837
71650W        W40044  22.891  41.324  14.603
71651W        W40045   8.689  27.851  10.386
71652W        W40046   9.744  24.673   4.323
71653W        W40047  15.865  40.444   2.335
71654W        W40048   5.710   0.805  11.826
71655W        W40049  36.580  22.192   2.440
71656W        W40050  15.295   0.981   4.791
71657W        W40051  37.302  43.870  14.393
71658W        W40052  38.813  23.613   1.819
71659W        W40053  30.533  43.992   2.307
71660W        W40054  41.110  34.597  11.662
71661W        W40055  22.630  39.234  13.303
71662W        W40056   0.995  12.786   1.303
71663W        W40057   6.698  39.504   1.234
71664W        W40058   5.175  31.386  11.990
71665W        W40059  18.009  16.747  13.191
71666W        W40060  43.324  38.822  11.122
71667W        W40061  26.572  10.810   3.981
71668W        W40062  42.305  33.574  12.700
71669W        W40063  37.862   3.982  11.235
71670W        W40064   6.350  40.353  10.155
71671W        W40065  16.081  40.410   3.730
71672W        W40066  27.660  19.280  13.494
71673W        W40067  29.274  11.786  10.715
71674W        W40068   6.207  20.369   2.299
71675W        W40069  35.182  39.499  13.436
71676W        W40070   7.137  36.921   2.175
71677W        W40071  27.918  14.070   5.254
71678W        W40072   8.994  12.161   0.127
71679W        W40073  24.552   4.857  13.439
71680W        W40074  42.204  17.297   2.179
71681W        W40075  43.016  23.960  12.037
71682W        W40076  32.935   5.636  11.447
71683W        W40077  34.913  31.939  10.979
71684W        W40078  30.052  32.304   3.532
71685W        W40079  12.682  34.423   3.666
71686W        W40080  19.168   3.536  12.450
71687W        W40081  16.827  19.575   1.857
71688W        W40082   0.398   4.726   2.148
71689W        W40083  10.942   5.977   3.079
71690W        W40084  27.075  27.318  13.917
71691W        W40085  34.759   1.239  14.362
71692W        W40086   2.330  10.415   1.799
71693W        W40087  39.646  18.302  11.657
71694W        W40088  44.273  34.430  12.104
71695W        W40089  21.130  40.934  10.451
71696W        W40090  26.724  24.496   1.374
71697W        W40091  38.465  17.062   4.183
71698W        W40092  30.509  13.184   2.670
71699W        W40093  18.265  23.745  13.371
71700W        W40094  21.973  16.208   1.244
71701W        W40095   4.733   0.236  12.688
71702W        W40096   3.023   7.661   1.382
71703W        W40097  18.357   6.262   0.728
71704W        W40098  10.865  19.823   3.226
71705W        W40099  29.406  43.422  12.290
71706W        W40100  15.309  30.679  10.468
71707W        W40101  15.033  19.126   2.269
71708W        W40102  11.109  15.996   1.269
71709W        W40103   4.048  21.469   3.703
71710W        W40104  26.967  15.685  14.983
71711W        W40105  37.580  39.966  10.685
71712W        W40106   0.133  33.438   3.852
71713W        W40107  31.306   3.727   0.509
71714W        W40108  24.621   1.219  14.981
71715W        W40109  14.378  15.293   1.680
71716W        W40110  11.595   4.042  14.860
71717W        W40111   8.346  10.356  11.918
71718W        W40112  29.987  10.512   1.067
71719W        W40113  34.457  42.996   1.986
71720W        W40114  39.611  11.439   1.489
71721W        W40115  32.517  34.224  11.951
71722W        W40116  11.809  39.996  13.129
71723W        W40117  44.191   4.332   0.037
71724W        W40118  36.921  38.453  14.960
71725W        W40119  39.380  19.264  11.399
71726W        W40120  42.388  24.321  14.519
71727W        W40121   7.623  28.474   2.467
71728W        W40122  20.836  38.974  13.403
71729W        W40123  33.823  42.691  10.784
71730W        W40124   4.363  36.382   2.656
71731W        W40125  30.960  14.619  11.697
71732W        W40126   1.701  14.077   3.596
71733W        W40127  19.181   6.596   2.811
71734W        W40128  16.759  13.252   1.368
71735W        W40129  19.584  39.021   9.721
71736W        W40130  38.089   7.129  11.032
71737W        W40131   9.227  11.441  12.579
71738W        W40132  10.636  20.808   2.451
71739W        W40133  15.082  13.671  13.606
71740W        W40134   0.894  15.894   3.183
71741W        W40135  12.094  28.136  13.954
71742W        W40136  13.861  13.907  10.703
71743W        W40137  39.800  29.900  12.996
71744W        W40138  32.154  38.889   1.416
71745W        W40139   2.668  15.798   3.122
71746W        W40140  43.492  25.664  13.336
71747W        W40141  20.288  21.141   4.108
71748W        W40142  15.593  37.915   9.768
71749W        W40143   5.885  26.497   0.457
71750W        W40144   2.228  42.420   1.642
71751W        W40145  34.631  13.475  10.547
71752W        W40146  37.589   1.863  14.432
71753W        W40147   9.799  12.813  11.214
71754W        W40148   8.927  16.631  11.359
71755W        W40149  11.818   5.928   2.722
71756W        W40150  28.195   1.427  12.194
71757W        W40151  25.727  21.182   3.206
71758W        W40152   9.606   6.247  13.921
71759W        W40153  24.606  23.239  11.619
71760W        W40154  37.885  36.516   1.835
71761W        W40155   4.397  12.635   1.491
71762W        W40156  17.640  11.235   0.321
71763W        W40157   6.431  16.009   0.454
71764W        W40158  44.392  24.490   1.225
71765W        W40159  18.135   9.810  11.531
71766W        W40160  30.502  44.232   0.049
71767W        W40161  10.302  40.428   4.173
71768W        W40162  40.942  20.240  11.505
71769W        W40163  37.812   6.950  10.568
71770W        W40164  15.420   9.491   4.936
71771W        W40165   0.718   3.069  11.787
71772W        W40166  33.525  25.533   4.608
71773W        W40167  23.546  11.700  12.124
71774W        W40168  41.250   9.695   2.929
71775W        W40169  38.733  32.516   0.268
71776W        W40170   1.703  33.667  12.044
71777W        W40171   5.213  41.683   4.734
71778W        W40172  38.414  31.600  14.914
71779W        W40173  19.087  37.363   2.058
71780W        W40174  18.829  28.173  14.088
71781W        W40175   1.798  27.247  10.809
71782W        W40176  13.494  40.282  13.058
71783W        W40177   1.924  42.287   0.852
71784W        W40178  44.574  42.981   2.293
71785W        W40179  39.137  38.372  11.929
71786W        W40180  36.447  31.679   0.305
71787W        W40181  30.507   5.356   2.229
71788W        W40182   6.331  43.553   4.059
71789W        W40183   3.814  25.053  13.601
71790W        W40184   3.506  38.374   0.385
71791W        W40185  40.457  40.997   3.312
71792W        W40186  43.787   4.918  12.311
71793W        W40187  24.052  39.622   3.710
71794W        W40188   0.381  33.616   1.706
71795W        W40189  35.269  14.187   4.076
71796W        W40190  42.245  37.179   2.365
71797W        W40191  37.589  30.024   2.566
71798W        W40192   4.717  18.997   4.595
71799W        W40193  40.772   0.354  11.640
71800W        W40194  32.142  12.551  12.062
71801W        W40195   2.264  16.184  10.330
71802W        W40196  44.924  31.711   1.835
71803W        W40197   8.634  18.019  13.110
71804W        W40198  27.161  39.580  13.315
71805W        W40199  42.540  44.308  13.860
71806W        W40200   7.221  30.059  10.708
71807W        W40201  22.147  22.541   0.206
71808W        W40202   4.175   1.727  14.438
71809W        W40203   5.970  37.455   4.234
71810W        W40204   4.327  37.760   3.364
71811W        W40205  26.584   4.890   2.869
71812W        W40206  30.136   8.684   4.705
71813W        W40207  39.094  30.324   3.449
71814W        W40208  32.338   4.622   4.555
71815W        W40209   7.411  12.993  13.076
71816W        W40210  41.760  40.214   3.326
71817W        W40211  13.957  15.344   3.128
71818W        W40212  17.099  26.583   4.652
71819W        W40213  37.995   1.719  11.516
71820W        W40214  14.909  21.511  11.998
71821W        W40215  16.368  18.094   5.026
71822W        W40216  29.614  27.805   5.080
71823W        W40217  15.346  33.972   3.478
71824W        W40218  30.384  27.257  13.793
71825W        W40219  26.952  31.886  14.209
71826W        W40220   3.181   5.616  12.533
71827W        W40221  41.821  37.593  12.041
71828W        W40222  25.244  39.520   4.562
71829W        W40223  15.789  24.294  14.290
71830W        W40224  29.988  33.663  11.943
71831W        W40225  19.074   2.039   0.882
71832W        W40226  25.367   0.671  10.491
71833W        W40227   3.791  20.261  10.668
71834W        W40228  44.710  17.238   4.051
71835W        W40229  29.181  41.371   0.886
71836W        W40230  29.786  21.795  13.058
71837W        W40231  41.745  10.871  14.445
71838W        W40232   4.548  17.826  14.349
71839W        W40233  22.080  14.600  13.954
71840W        W40234  38.974  34.559   3.824
71841W        W40235   5.360  44.168   0.007
71842W        W40236  29.110  42.007   2.665
71843W        W40237  32.499  42.278   3.864
71844W        W40238  11.626   3.392   1.786
71845W        W40239  22.782  42.396   3.855
71846W        W40240  18.224   0.296   0.676
71847W        W40241  20.494  21.918  13.806
71848W        W40242  33.115  13.264  12.938
71849W        W40243  26.037  38.836   2.204
71850W        W40244  35.000  35.808  11.987
71851W        W40245  25.060   5.152  12.068
71852W        W40246   3.825  17.065  14.547
71853W        W40247   8.160  23.346  13.842
71854W        W40248  30.032  39.409   4.554
71855W        W40249   0.645   4.502  14.773
71856W        W40250   0.015  12.756   2.269
71857W        W40251  15.957  21.783   0.456
71858W        W40252  44.796  30.561   0.907
71859W        W40253  30.966  13.225   1.522
71860W        W40254  31.178  31.349   1.885
71861W        W40255  32.220  17.465   1.707
71862W        W40256  12.785   2.376   0.960
71863W        W40257  31.706  37.759  11.018
71864W        W40258  42.047  33.190  11.586
71865W        W40259  11.550  12.753   1.342
71866W        W40260  23.747  33.525  14.422
71867W        W40261  36.999  30.187  11.948
71868W        W40262  25.417   3.188  13.246
71869W        W40263   8.775   1.235  10.676
71870W        W40264  34.754  15.347   1.827
71871W        W40265  43.553  13.923  13.353
71872W        W40266  33.443   7.072  13.130
71873W        W40267  21.274  23.598  13.379
71874W        W40268  30.442   5.762  12.490
71875W        W40269  15.797  32.113   1.126
71876W        W40270  11.838   6.744  10.724
71877W        W40271  41.876  13.358  13.191
71878W        W40272  33.697   1.477  13.373
71879W        W40273   7.138  26.945  10.714
71880W        W40274  12.277   1.860   1.611
71881W        W40275   5.984  25.023   0.680
71882W        W40276  33.310  10.337   0.872
71883W        W40277  43.079   8.431   2.796
71884W        W40278  23.918  37.887  11.114
71885W        W40279   4.493  40.308   5.042
71886W        W40280  11.307   3.682  11.523
71887W        W40281   9.091  20.068   0.488
71888W        W40282   1.769   6.128  12.598
71889W        W40283   0.546  15.533   0.863
71890W        W40284  36.981   1.933  11.170
71891W        W40285  38.248  24.423   1.102
71892W        W40286  39.565  16.677   1.811
71893W        W40287  14.321  35.102  13.119
71894W        W40288   8.436   0.401  12.273
71895W        W40289  43.854  24.984  12.971
71896W        W40290   9.341  23.988   3.703
71897W        W40291  44.569  25.885   2.292
71898W        W40292  22.729  40.984   1.835
71899W        W40293  20.410   4.433   3.375
71900W        W40294  32.810  11.626  12.497
71901W        W40295  40.867  43.537  14.359
71902W        W40296  33.465  14.662  13.671
71903W        W40297  39.092  30.070  12.309
71904W        W40298  11.882  35.441   3.239
71905W        W40299  10.010   1.367   0.484
71906W        W40300  42.878   3.905  10.485
71907W        W40301  39.701  24.515   2.211
71908W        W40302  43.710   9.961   3.467
71909W        W40303  17.097  16.806  13.143
71910W        W40304  10.392  21.748   1.480
71911W        W40305  28.214  10.364  11.003
71912W        W40306  32.908  15.668   3.417
71913W        W40307  42.390   5.260  10.908
71914W        W40308  30.722  38.043  10.947
71915W        W40309  29.217  15.086  12.067
71916W        W40310  18.566   6.331  10.624
71917W        W40311  33.455   6.232  10.691
71918W        W40312   9.727  10.537   3.777
71919W        W40313  42.868  15.356  13.921
71920W        W40314  16.162  34.815   3.679
71921W        W40315  44.663  30.991   2.782
71922W        W40316  17.714   9.797   1.064
71923W        W40317  29.987  43.858   0.814
71924W        W40318  29.377  23.044  13.354
71925W        W40319  37.209   1.347   0.776
71926W        W40320  39.771  36.310  10.518
71927W        W40321  43.512  40.617   2.816
71928W        W40322  24.624  29.211   3.648
71929W        W40323  20.485  12.697  10.740
71930W        W40324  36.035   1.544  13.932
71931W        W40325  38.097  39.002   1.796
71932W        W40326   4.497  17.499  12.528
71933W        W40327  20.234  30.136  12.175
71934W        W40328  13.568  37.332  11.177
71935W        W40329   2.705  24.095   3.232
71936W        W40330   1.781  18.072  14.999
71937W        W40331  37.036  26.567  12.231
71938W        W40332  19.624  40.786  12.606
71939W        W40333  14.755  39.576   4.211
71940W        W40334  37.871   7.206   2.859
71941W        W40335  19.542  34.615   1.797
71942W        W40336  44.664  25.205   3.624
71943W        W40337  32.896  33.588   4.135
71944W        W40338   9.958   5.857   2.753
71945W        W40339  17.597   5.328  14.437
71946W        W40340  20.612  28.393   2.386
71947W        W40341   6.962  43.822  12.459
71948W        W40342  28.629   0.893   2.771
71949W        W40343  12.642   9.610   0.367
71950W        W40344  20.338  44.958  11.218
71951W        W40345  41.592  25.033   1.196
71952W        W40346  37.128  16.701   0.850
71953W        W40347  43.249  17.163   0.749
71954W        W40348  33.346  44.641  13.372
71955W        W40349   3.942  35.150  12.051
71956W        W40350  36.044  22.923  12.046
71957W        W40351  22.143  23.990   0.794
71958W        W40352  27.924  42.387  11.546
71959W        W40353  31.198   9.568  12.076
71960W        W40354   3.676  27.304   0.277
71961W        W40355  17.940  22.961   0.364
71962W        W40356  31.403  43.980   2.890
71963W        W40357  24.595  26.910   1.269
71964W        W40358  21.270  35.335  11.626
71965W        W40359  18.694  39.027   0.561
71966W        W40360  13.333  29.626   5.125
71967W        W40361  40.484  30.398  14.902
71968W        W40362  28.994   5.863  11.876
71969W        W40363  19.727  17.544   1.806
71970W        W40364  34.847   2.931  11.962
71971W        W40365  44.412  43.510  13.007
71972W        W40366  18.122  44.309  12.270
71973W        W40367  11.320  18.016   3.651
71974W        W40368   1.210  40.857  14.396
71975W        W40369  35.601  14.065  13.010
71976W        W40370   7.188  13.350  13.951
71977W        W40371   2.163  21.018   2.037
71978W        W40372   1.259  31.755   3.361
71979W        W40373  35.574   8.072  14.271
71980W        W40374  18.531  10.025  10.766
71981W        W40375  17.782  15.838   1.713
71982W        W40376  31.245  43.281  12.524
71983W        W40377  12.467  40.192  11.083
71984W        W40378   8.408  20.103  11.787
71985W        W40379  20.516   6.354   4.582
71986W        W40380  34.521   5.858  14.721
71987W        W40381  33.109  16.627  14.218
71988W        W40382  23.785  12.601   4.219
71989W        W40383  13.640  13.242  13.153
71990W        W40384   9.852  15.843   4.253
71991W        W40385  40.310  31.044   2.791
71992W        W40386  21.079  21.200  11.593
71993W        W40387  29.479  10.293   1.293
71994W        W40388  38.022  25.159   4.048
71995W        W40389  34.586  24.955  13.511
71996W        W40390  22.091   9.447  12.799
71997W        W40391  37.324  40.030   3.953
71998W        W40392  24.700  22.552   4.525
71999W        W40393  11.799   5.081   0.928
72000W        W40394  34.476  32.694   1.262
72001W        W40395   6.950  39.848   4.664
72002W        W40396   8.909  42.359  14.426
72003W        W40397   4.509   9.602   2.394
72004W        W40398   8.151  40.285  11.471
72005W        W40399  37.314  32.983  10.228
72006W        W40400  37.461  13.862  12.207
72007W        W40401  39.968   9.129   4.596
72008W        W40402  10.792  10.533   0.457
72009W        W40403  39.361  26.910   0.054
72010W        W40404   9.732  11.469  14.084
72011W        W40405   8.722  30.116  10.988
72012W        W40406  31.426  31.018   0.769
72013W        W40407  44.716   6.660  12.005
72014W        W40408  35.625  12.516   4.150
72015W        W40409  14.345  36.774  12.514
72016W        W40410  21.530  40.910  12.605
72017W        W40411  27.247  23.668   4.972
72018W        W40412  14.845   3.569  12.826
72019W        W40413  16.330   6.392  14.825
72020W        W40414  28.456  25.216   0.550
72021W        W40415  26.409  32.680  14.001
72022W        W40416  20.734   4.162  14.123
72023W        W40417  34.532  32.220  14.626
72024W        W40418  23.637  29.213  14.426
72025W        W40419  17.001  29.210   4.133
72026W        W40420  26.551   3.952   4.994
72027W        W40421  28.240   8.286  13.279
72028W        W40422  30.218  35.248   4.842
72029W        W40423   4.405  37.178  14.453
72030W        W40424  25.018  19.507  13.804
72031W        W40425  30.502  25.078  14.366
72032W        W40426  12.319   7.250   4.632
72033W        W40427  43.857  28.673  13.909
72034W        W40428  24.906  14.419   3.318
72035W        W40429  27.454  26.186  14.409
72036W        W40430  30.020   0.014  10.491
72037W        W40431  12.348   5.404  11.782
72038W        W40432  24.762   2.883   4.336
72039W        W40433  44.829   1.095  11.090
72040W        W40434  25.693  34.891   3.126
72041W        W40435  13.622   1.788  14.058
72042W        W40436  21.107  28.621  11.161
72043W        W40437  20.744  16.091  10.756
72044W        W40438  30.563  21.773  10.620
72045W        W40439  13.250  16.538  13.795
72046W        W40440   0.260  23.391   3.710
72047W        W40441  26.547  38.883   1.841
72048W        W40442  43.128  40.729  12.758
72049W        W40443  10.205  34.437  13.162
72050W        W40444  35.681  21.169  13.930
72051W        W40445  13.082  30.204   1.576
72052W        W40446   4.278   3.786   3.361
72053W        W40447  35.537  33.885   0.986
72054W        W40448   1.748  35.311   0.802
72055W        W40449  22.626   9.700  14.446
72056W        W40450  44.740   8.555  13.468
72057W        W40451   2.345  10.100  11.144
72058W        W40452  19.796  39.893   3.768
72059W        W40453   8.948  27.314  12.844
72060W        W40454   1.298   0.973   0.345
72061W        W40455   4.822  20.615   1.313
72062W        W40456  35.917  39.050   1.332
72063W        W40457  27.570  36.668   2.363
72064W        W40458   8.295   7.196  11.071
72065W        W40459   5.858  21.765   1.959
72066W        W40460  29.178  18.768  13.539
72067W        W40461   9.057   5.656   0.837
72068W        W40462  38.399  21.482   3.297
72069W        W40463  26.468  23.160  12.919
72070W        W40464  25.311  24.696   3.710
72071W        W40465  24.593  43.672   3.115
72072W        W40466  12.163   5.873  13.948
72073W        W40467   9.382  34.810   3.175
72074W        W40468  13.288  19.024   3.248
72075W        W40469   7.167   3.998   3.060
72076W        W40470  35.786  25.148  12.682
72077W        W40471   2.761  38.066  12.403
72078W        W40472  12.755  10.319   2.269
72079W        W40473   1.376  27.088  13.506
72080W        W40474  37.064  13.621  14.967
72081W        W40475  32.022  22.965   4.670
72082W        W40476   9.296   8.111  12.667
72083W        W40477  24.079  42.678  11.499
72084W        W40478  17.758  30.011   4.452
72085W        W40479  27.718  33.933  10.620
72086W        W40480  36.285  44.738  13.733
72087W        W40481  17.951   6.273  14.385
72088W        W40482  33.086  29.231  13.472
72089W        W40483  12.674  40.317  13.416
72090W        W40484  30.039  32.327  12.892
72091W        W40485  39.931  29.466   0.382
72092W        W40486  16.521   2.298   2.815
72093W        W40487   7.940  23.643   4.548
72094W        W40488  44.469   9.753  10.977
72095W        W40489  15.186  43.827  12.472
72096W        W40490  35.884   6.967   3.301
72097W        W40491  17.891  13.730  14.957
72098W        W40492   5.768  43.876   3.281
72099W        W40493  16.292  32.005   1.867
72100W        W40494  43.518   2.143   1.311
72101W        W40495  14.594   1.883  11.635
72102W        W40496  27.060  37.404   2.430
72103W        W40497  13.510  21.894   4.647
72104W        W40498  16.462   2.277   1.767
72105W        W40499   1.469  37.803  12.064
72106W        W40500   2.728  11.764  11.944
72107W        W40501   9.459  25.731  10.330
72108W        W40502   1.499   2.658  11.209
72109W        W40503  36.340  26.175   2.074
72110W        W40504  40.625   3.829   4.670
72111W        W40505  12.637  15.891   3.642
72112W        W40506   5.370   8.331  10.640
72113W        W40507   6.540   7.481  11.408
72114W        W40508   0.709  29.841   0.280
72115W        W40509  19.652  26.020   1.943
72116W        W40510  18.296   2.898   4.515
72117W        W40511   8.740  40.448  13.555
72118W        W40512  31.507  36.031  14.987
72119W        W40513  20.255  38.980  11.483
72120W        W40514  27.204  31.047  14.966
72121W        W40515  11.345  15.585  13.385
72122W        W40516  20.665  36.752   1.435
72123W        W40517   0.867   5.329  13.651
72124W        W40518   4.494   0.434  14.529
72125W        W40519  36.834  21.162  11.661
72126W        W40520   5.658   8.355  11.074
72127W        W40521  31.681   7.783  14.308
72128W        W40522  39.973  11.360   4.682
72129W        W40523  37.571  11.364   2.182
72130W        W40524  25.598  26.272   1.322
72131W        W40525   1.430  18.413  11.792
72132W        W40526  43.712  29.920  11.177
72133W        W40527  18.392  41.150   2.425
72134W        W40528  25.146  40.471   3.736
72135W        W40529  30.893  11.500   0.884
72136W        W40530  39.937  26.104  14.957
72137W        W40531   1.143   2.857   0.326
72138W        W40532   7.395  34.971   4.601
72139W        W40533   0.869  30.917  10.692
72140W        W40534  35.087  23.335  11.805
72141W        W40535  43.831  43.660   4.204
72142W        W40536  33.994  28.601   4.958
72143W        W40537  27.225  25.623   1.419
72144W        W40538  27.702   2.222   0.405
72145W        W40539  29.601  41.457   4.582
72146W        W40540  13.798  39.357   4.693
72147W        W40541  29.953  30.365   0.809
72148W        W40542   0.897  16.862   4.403
72149W        W40543  32.440  19.295  12.978
72150W        W40544   4.000  44.975   1.276
72151W        W40545  15.788  13.652   2.061
72152W        W40546  12.728   6.224  10.471
72153W        W40547  16.623  33.708   2.852
72154W        W40548  23.957  22.335   4.675
72155W        W40549  43.035  27.138  12.600
72156W        W40550  29.444  37.298   0.916
72157W        W40551  20.957  42.773  13.019
72158W        W40552  20.216   4.926  14.494
72159W        W40553  41.865  29.503   0.927
72160W        W40554   8.404   6.954   2.008
72161W        W40555  19.289   7.106  13.213
72162W        W40556  11.322  26.719   3.797
72163W        W40557  37.967  17.354  11.542
72164W        W40558  44.828  44.830  14.068
72165W        W40559  25.934  15.978  10.907
72166W        W40560  13.611  11.216   3.759
72167W        W40561   7.082  38.003   0.338
72168W        W40562  40.375   9.631  13.576
72169W        W40563  12.531  20.191  12.850
72170W        W40564  39.108   0.975   2.256
72171W        W40565  29.915  19.364   0.769
72172W        W40566  26.070   6.708   2.566
72173W        W40567  16.477   6.167   0.289
72174W        W40568  42.633  42.660   1.573
72175W        W40569  44.869  40.120  12.167
72176W        W40570  10.847   5.207  14.397
72177W        W40571  29.451  20.088   2.672
72178W        W40572  16.523  13.607   3.702
72179W        W40573  27.926   5.182  12.926
72180W        W40574   5.590  31.173   2.750
72181W        W40575  10.537   6.942  14.985
72182W        W40576  34.855  41.172   4.712
72183W        W40577  22.251  15.834  12.066
72184W        W40578  34.583   1.352   0.827
72185W        W40579  36.109   4.344  11.835
72186W        W40580   6.313  23.031  10.625
72187W        W40581  18.514  41.037   3.308
72188W        W40582  38.517  28.003   3.942
72189W        W40583   1.971  41.872  11.168
72190W        W40584  44.991   3.221  11.794
72191W        W40585  39.137  25.553  12.862
72192W        W40586  18.564  18.489  14.330
72193W        W40587  34.235  15.482   3.292
72194W        W40588  32.475  34.622  12.298
72195W        W40589  26.159  31.026  10.574
72196W        W40590   4.419   4.949   4.038
72197W        W40591  17.219  43.330  11.444
72198W        W40592  11.184  21.028  11.580
72199W        W40593  15.150  42.589  12.123
72200W        W40594  40.442   5.604  11.195
72201W        W40595  17.642  21.587   3.300
72202W        W40596  25.591  21.791   1.952
72203W        W40597  17.807  11.803   1.308
72204W        W40598   7.122   8.716  11.066
72205W        W40599   2.365  28.441   1.327
72206W        W40600   6.216  34.656  11.077
72207W        W40601  33.604  42.307   2.350
72208W        W40602  36.537  13.643   1.924
72209W        W40603  44.872  23.483   3.312
72210W        W40604  35.148  22.643   0.248
72211W        W40605  24.534   8.319   5.090
72212W        W40606   3.843   9.093  11.685
72213W        W40607  24.655  19.269  12.393
72214W        W40608  13.415   3.532   5.006
72215W        W40609  26.515  34.450   4.113
72216W        W40610  22.094  24.108  14.872
72217W        W40611  11.327  11.959   3.693
72218W        W40612  23.184  37.433  10.697
72219W        W40613   1.489  35.421  13.964
72220W        W40614  30.102  42.010  11.986
72221W        W40615  24.716  39.607   4.698
72222W        W40616  26.205  42.563   3.587
72223W        W40617  30.391   8.199  14.352
72224W        W40618  34.172   2.552   3.420
72225W        W40619  32.457  38.465   2.440
72226W        W40620   8.800  20.267  14.793
72227W        W40621   3.134  44.629   2.389
72228W        W40622  31.377   8.482   4.076
72229W        W40623  44.511  19.845   3.424
72230W        W40624  42.453   6.851  12.624
72231W        W40625   2.223  18.862   4.640
72232W        W40626  27.969  35.041   4.394
72233W        W40627  34.163  21.622  11.136
72234W        W40628  37.420  42.352  11.178
72235W        W40629   3.255  20.066   0.369
72236W        W40630  35.322  21.169   4.116
72237W        W40631  22.369  28.432  13.051
72238W        W40632  16.769  21.226  13.000
72239W        W40633   6.653  38.647  12.469
72240W        W40634   6.938   8.155  11.807
72241W        W40635  14.268  35.921  10.536
72242W        W40636  37.933  15.576   0.367
72243W        W40637  43.030  14.352   2.699
72244W        W40638  22.031  15.170   3.447
72245W        W40639  17.159  13.175  11.976
72246W        W40640   1.033   9.802  12.846
72247W        W40641   1.460  30.743   3.245
72248W        W40642  40.131  27.529  13.440
72249W        W40643   2.266   7.030  11.565
72250W        W40644  21.358   7.559   2.425
72251W        W40645  13.877  15.313  13.918
72252W        W40646  28.438   4.280  10.418
72253W        W40647  22.203   2.541  13.283
72254W        W40648  43.857  23.194  11.470
72255W        W40649  35.836  38.617   3.297
72256W        W40650  16.422   2.495  12.040
72257W        W40651   8.219   6.863   3.832
72258W        W40652  28.444  17.642  14.888
72259W        W40653  37.333  42.466  14.056
72260W        W40654  15.729  26.396  12.202
72261W        W40655  28.202  40.144   4.373
72262W        W40656   8.436  26.566   4.062
72263W        W40657  25.574  38.565   2.326
72264W        W40658  36.281  39.040  12.978
72265W        W40659  21.593  32.822   1.820
72266W        W40660   5.265  31.100   3.253
72267W        W40661   2.766  25.976   4.356
72268W        W40662  40.286   2.168  10.769
72269W        W40663  26.208   2.289  10.314
72270W        W40664  26.791  18.140   2.381
72271W        W40665   2.371  36.307  14.361
72272W        W40666   1.823  10.322  13.547
72273W        W40667  17.527   3.002   3.214
72274W        W40668  16.604  34.240   2.811
72275W        W40669  38.857  21.487   4.096
72276W        W40670  19.277  37.254   3.407
72277W        W40671   4.667  37.975  13.417
72278W        W40672  21.303  28.676  10.271
72279W        W40673  24.235  37.300   2.404
72280W        W40674  35.389  24.709  11.013
72281W        W40675  24.702  42.467   2.783
72282W        W40676  26.181  27.953  13.558
72283W        W40677  16.953   7.270   1.799
72284W        W40678  29.161  41.060   4.332
72285W        W40679  28.410  30.522   1.704
72286W        W40680  31.463  42.979  13.561
72287W        W40681  23.739  31.953   3.620
72288W        W40682  26.429  28.413  13.451
72289W        W40683  23.134  30.856  13.800
72290W        W40684   6.153  15.701  14.529
72291W        W40685  32.903  25.129  14.339
72292W        W40686  22.777   3.876  12.879
72293W        W40687  26.096  27.399  14.940
72294W        W40688  39.756   6.281  14.512
72295W        W40689  34.933   3.518  14.920
72296W        W40690  26.144   1.970  13.455
72297W        W40691  31.957  44.197   4.680
72298W        W40692   5.105  24.061  14.352
72299W        W40693  34.513  11.402   2.628
72300W        W40694  27.580   6.434  12.429
72301W        W40695  11.867   3.731  12.028
72302W        W40696  23.037  16.358   4.633
72303W        W40697  30.735  40.928   1.977
72304W        W40698  30.560  44.631   3.478
72305W        W40699  31.174  20.150   4.679
72306W        W40700  43.277   2.371   2.401
72307W        W40701  43.420  15.802   4.932
72308W        W40702   9.644  22.107   0.387
72309W        W40703  12.803  40.865   1.820
72310W        W40704  37.050   4.016  11.036
72311W        W40705  30.649  19.138   1.450
72312W        W40706  23.068   1.657   3.415
72313W        W40707  34.416  24.234   3.811
72314W        W40708  40.864  43.869   4.607
72315W        W40709  17.559  40.832   4.537
72316W        W40710  18.567  32.171  10.390
72317W        W40711  40.525  21.615  12.576
72318W        W40712  38.603  19.694  14.329
72319W        W40713  36.580  19.137  11.632
72320W        W40714   0.724  36.885  12.012
72321W        W40715  36.399  43.892   4.573
72322W        W40716   8.816  22.962   1.285
72323W        W40717  26.088  11.739   1.697
72324W        W40718   8.659  24.032   2.285
72325W        W40719  16.070  30.006   2.109
72326W        W40720  26.056  13.731  11.159
72327W        W40721   8.505  36.723  10.630
72328W        W40722  42.904  24.866  13.894
72329W        W40723  28.379  24.964   2.015
72330W        W40724  20.670  43.416   0.912
72331W        W40725  38.015  39.506   1.978
72332W        W40726  14.621  31.680  12.330
72333W        W40727   4.462  22.442  11.955
72334W        W40728  42.948  11.123  11.066
72335W        W40729  23.350   9.371   0.431
72336W        W40730  27.193  18.724  12.047
72337W        W40731   3.782   4.287  11.001
72338W        W40732   0.330  38.074   2.649
72339W        W40733   1.349  18.478   4.184
72340W        W40734  38.893  21.517  11.873
72341W        W40735   4.768  15.500   3.680
72342W        W40736  30.788  15.147   4.578
72343W        W40737  39.834  38.849   3.386
72344W        W40738   5.387  12.230  14.482
72345W        W40739  40.361  43.978  11.555
72346W        W40740   8.577   0.719  11.892
72347W        W40741  28.630  16.219  13.121
72348W        W40742  20.494  39.401   3.661
72349W        W40743  30.119  33.516   2.615
72350W        W40744   6.564  30.088  12.468
72351W        W40745   2.240  27.312   0.457
72352W        W40746  10.848  43.332  11.852
72353W        W40747  11.265  28.420   1.785
72354W        W40748  36.482  29.547  10.645
72355W        W40749  43.891  14.154   3.643
72356W        W40750  36.370   3.390  13.083
72357W        W40751  31.313  12.727  13.450
72358W        W40752  34.789  34.652  10.495
72359W        W40753  44.768   4.839  11.655
72360W        W40754   2.420  24.114   3.957
72361W        W40755  18.547   5.732  14.868
72362W        W40756  13.194  41.008  12.437
72363W        W40757  25.716   5.401  13.020
72364W        W40758  17.098  21.340   1.401
72365W        W40759  30.783  38.469  12.616
72366W        W40760   0.974  31.083  13.763
72367W        W40761  43.030   3.726  10.952
72368W        W40762  41.467  41.244   1.838
72369W        W40763  36.894  13.725   4.653
72370W        W40764  14.171   1.311  14.701
72371W        W40765  30.460  40.091  13.877
72372W        W40766   6.400  26.103   2.794
72373W        W40767  15.093  44.369  14.832
72374W        W40768  41.004  36.417   4.926
72375W        W40769  22.066  43.947  14.022
72376W        W40770  35.742  19.079   0.896
72377W        W40771  17.550  44.428  14.742
72378W        W40772  11.644  33.120  11.616
72379W        W40773   8.048  13.115   0.079
72380W        W40774  11.790  35.885   5.162
72381W        W40775  12.415  39.912   3.213
72382W        W40776   7.908  21.639   0.812
72383W        W40777  13.743   0.074  14.513
72384W        W40778  41.641   5.256  11.590
72385W        W40779   1.716   3.796  11.231
72386W        W40780  11.865  17.705  13.143
72387W        W40781  31.996  41.996  14.560
72388W        W40782   3.902   1.777   4.711
72389W        W40783  16.414   6.910  11.490
72390W        W40784  13.396  14.098  10.811
72391W        W40785  20.891  31.036   0.943
72392W        W40786   3.861  11.635   0.526
72393W        W40787   3.610   2.205  14.845
72394W        W40788  18.199  41.530  12.101
72395W        W40789  15.637  27.176  14.392
72396W        W40790   1.990  24.598   1.223
72397W        W40791   7.517  11.322  12.624
72398W        W40792  11.160  44.329   2.777
72399W        W40793   1.692  21.047  11.581
72400W        W40794  22.055  29.899   2.174
72401W        W40795  16.276  25.673  13.440
72402W        W40796   1.692  22.207  14.267
72403W        W40797  20.759  33.447   3.704
72404W        W40798   4.766  14.190  12.053
72405W        W40799   8.167  22.301  10.500
72406W        W40800   5.627  19.894   1.540
72407W        W40801  10.896  21.525  12.990
72408W        W40802  41.595  16.732  12.022
72409W        W40803   2.439  11.365  10.933
72410W        W40804  24.439   0.179   0.917
72411W        W40805  16.708  27.852  12.202
72412W        W40806  32.686  26.483  12.865
72413W        W40807  27.517   8.648   4.637
72414W        W40808  22.265  23.695  12.176
72415W        W40809  13.930  44.319   0.804
72416W        W40810   9.143  27.681   2.424
72417W        W40811  32.118  22.670  12.131
72418W        W40812  25.631   3.847  12.442
72419W        W40813  25.739  41.297   4.449
72420W        W40814   6.695  42.582  10.609
72421W        W40815  33.121  15.717   2.303
72422W        W40816  28.089  16.779   3.681
72423W        W40817  18.724  32.141  12.336
72424W        W40818   2.921  15.370  13.361
72425W        W40819  15.682  23.103   4.038
72426W        W40820  12.146  21.424  11.642
72427W        W40821  14.671   3.800   0.196
72428W        W40822  28.598  35.609   0.483
72429W        W40823   3.121  34.844  11.429
72430W        W40824  32.500  24.165  13.361
72431W        W40825  32.074  34.560  10.658
72432W        W40826  10.642   0.682  13.871
72433W        W40827  13.775   2.565   2.738
72434W        W40828   3.264   4.691  12.072
72435W        W40829   5.162  22.456  12.547
72436W        W40830  31.153  40.274   4.278
72437W        W40831  11.926  28.038   3.234
72438W        W40832   0.360   6.332  13.468
72439W        W40833  10.713  29.736   1.204
72440W        W40834  26.588  32.910  13.163
72441W        W40835  34.963  29.102   2.753
72442W        W40836  25.060  28.666  14.905
72443W        W40837  10.591  27.670  11.134
72444W        W40838   1.832   6.649   0.212
72445W        W40839  42.465  13.222  12.519
72446W        W40840   4.522  19.797   0.298
72447W        W40841  25.981   7.703  13.106
72448W        W40842  16.814  28.943   0.642
72449W        W40843  26.415  39.756  13.437
72450W        W40844  34.010  36.285  13.779
72451W        W40845   6.730  23.467  11.985
72452W        W40846  23.884  41.801  12.653
72453W        W40847   2.279   7.438   3.334
72454W        W40848   2.121   4.758   4.743
72455W        W40849  29.145  36.943  12.542
72456W        W40850  35.835  32.088  10.814
72457W        W40851   6.980  17.092  13.102
72458W        W40852  20.446  33.154  13.638
72459W        W40853  15.367   5.332   2.900
72460W        W40854  27.674  20.742  10.711
72461W        W40855  36.329   1.345  12.046
72462W        W40856  29.348   2.462  13.834
72463W        W40857   0.754  27.632   4.592
72464W        W40858  22.134  20.516   0.016
72465W        W40859  14.669  23.482  12.847
72466W        W40860  41.392  30.862   0.727
72467W        W40861  13.237  13.642   1.528
72468W        W40862  13.650  44.566  10.208
72469W        W40863  34.429   2.912   3.699
72470W        W40864  41.276   3.005  10.579
72471W        W40865  39.912  36.838   1.478
72472W        W40866   7.204  26.363   1.954
72473W        W40867  29.679   6.665   4.070
72474W        W40868  36.347  10.183  12.490
72475W        W40869  33.992   6.787   0.025
72476W        W40870  39.209  31.901  11.124
72477W        W40871  38.878  20.775  11.088
72478W        W40872  44.871  14.136   0.475
72479W        W40873  34.840  10.080   2.830
72480W        W40874   7.856  12.053   2.339
72481W        W40875   2.822  32.351  11.628
72482W        W40876  31.712  20.509  10.837
72483W        W40877  24.068  31.387   2.269
72484W        W40878   7.183  30.685  10.814
72485W        W40879  33.418  20.060  11.132
72486W        W40880  20.997  20.056  10.646
72487W        W40881  18.590  44.518   4.126
72488W        W40882  29.851   1.041   0.786
72489W        W40883  14.995  12.228   0.898
72490W        W40884   3.790   2.025   4.283
72491W        W40885  18.713  17.077   1.358
72492W        W40886   5.846  29.051   3.662
72493W        W40887   8.218  32.427  14.430
72494W        W40888  30.640   8.673  14.348
72495W        W40889  39.579  26.250   3.158
72496W        W40890  36.470  22.305   0.788
72497W        W40891  43.023  40.015  13.384
72498W        W40892  44.363   2.770  14.799
72499W        W40893  40.438  26.130   2.594
72500W        W40894  29.874  16.816   2.899
72501W        W40895   4.908  21.742  10.445
72502W        W40896  23.074  32.493  11.563
72503W        W40897  13.892   6.287  12.952
72504W        W40898  39.278  23.915  10.576
72505W        W40899  15.842  32.053   4.539
72506W        W40900   5.010  38.067   2.194
72507W        W40901  34.949  29.926  13.830
72508W        W40902  25.614  43.411  11.704
72509W        W40903   7.481   8.784   4.504
72510W        W40904   7.917   3.817  13.596
72511W        W40905  36.382  11.245  14.776
72512W        W40906  23.058   2.927   3.779
72513W        W40907   2.684  34.524   2.789
72514W        W40908  41.079  36.436   3.982
72515W        W40909  16.886  34.906   2.297
72516W        W40910  17.309  29.406   3.455
72517W        W40911  34.868  29.553  11.614
72518W        W40912  31.719  13.403  12.915
72519W        W40913   7.375  40.286   1.317
72520W        W40914  28.992   8.718  14.930
72521W        W40915  36.348  20.499   0.229
72522W        W40916  18.308  13.206   0.244
72523W        W40917  35.876   1.441  13.459
72524W        W40918  32.568  35.078  12.085
72525W        W40919   4.389  37.513   0.394
72526W        W40920   9.378  33.899   3.213
72527W        W40921  26.097  11.736   2.198
72528W        W40922   8.274  24.062   3.867
72529W        W40923   2.136  26.262  12.510
72530W        W40924  30.143   4.969  14.321
72531W        W40925  18.329  27.774   0.741
72532W        W40926  28.657   1.706  12.311
72533W        W40927  13.749  22.213  14.144
72534W        W40928  37.359  13.184   2.640
72535W        W40929  19.542  31.468   2.498
72536W        W40930   5.283  32.147  12.413
72537W        W40931  12.097  29.061  12.911
72538W        W40932  25.122  29.984   3.256
72539W        W40933  43.773  39.282   0.708
72540W        W40934   5.243  16.714   3.052
72541W        W40935  13.252  42.734  12.937
72542W        W40936  15.895  13.873  14.876
72543W        W40937  27.853   1.325  13.471
72544W        W40938  39.848  37.804  12.060
72545W        W40939  21.106  22.452   1.476
72546W        W40940  16.473  30.724   1.381
72547W        W40941  15.179  27.451  14.304
72548W        W40942  36.390  44.429  11.514
72549W        W40943  41.481  11.115  12.596
72550W        W40944  35.866  18.778  12.056
72551W        W40945  19.659  22.704   0.348
72552W        W40946  40.395   0.243  13.145
72553W        W40947  30.970  26.477   3.172
72554W        W40948  13.617   7.856   4.487
72555W        W40949  17.424   3.695  12.476
72556W        W40950  27.113  15.775   1.901
72557W        W40951  10.659  35.402   1.780
72558W        W40952   4.377  44.789  12.827
72559W        W40953  31.515  18.585  13.871
72560W        W40954  43.822  12.191   1.240
72561W        W40955  10.830  19.328  13.499
72562W        W40956  12.422  13.090  11.706
72563W        W40957   2.030  36.696  14.440
72564W        W40958  36.033   7.365  11.957
72565W        W40959  35.093  29.984   0.722
72566W        W40960  23.913  17.173   1.423
72567W        W40961   9.678  29.692  12.980
72568W        W40962  22.749  32.553   2.754
72569W        W40963  19.231   1.381   3.284
72570W        W40964  25.433  14.209  12.523
72571W        W40965  24.443  18.429  11.514
72572W        W40966  44.952   4.619   3.332
72573W        W40967  31.738  24.539   3.909
72574W        W40968  28.261  34.418  10.827
72575W        W40969  27.004  14.632   4.360
72576W        W40970  35.176   4.177   3.577
72577W        W40971   0.906  34.987   0.395
72578W        W40972  41.974  25.660  14.347
72579W        W40973  43.361  35.154   2.842
72580W        W40974  18.705  30.201   4.163
72581W        W40975  13.604  12.203  11.507
72582W        W40976  21.823  24.451  12.232
72583W        W40977  29.574   0.216  14.051
72584W        W40978   3.899  30.864   4.208
72585W        W40979  15.095  21.921   4.923
72586W        W40980  10.775  38.967  13.915
72587W        W40981  38.737  20.677   4.683
72588W        W40982  32.547  13.892   1.689
72589W        W40983  27.672  28.281   1.801
72590W        W40984  42.635   5.806  12.266
72591W        W40985   8.810  39.957  12.620
72592W        W40986  39.415  38.984  14.492
72593W        W40987  21.810   6.792  11.026
72594W        W40988  31.203  29.943  11.607
72595W        W40989  31.039  27.405  14.053
72596W        W40990  31.373  36.437  12.618
72597W        W40991  12.890  12.689   2.526
72598W        W40992  10.854   0.167   0.471
72599W        W40993  33.559  12.218   4.766
72600W        W40994  22.064  34.921  13.039
72601W        W40995  33.629  18.667  12.822
72602W        W40996   2.587  12.723  12.299
72603W        W40997  34.090  23.202  13.542
72604W        W40998  43.961  17.983  13.644
72605W        W40999  11.236  42.051  14.801
72606W        W41000  36.923  41.270   3.485
72607W        W41001   9.696   7.683   2.864
72608W        W41002   2.180  16.658  13.345
72609W        W41003  36.520   9.635   2.617
72610W        W41004  25.449  13.213   4.630
72611W        W41005   6.724  35.807  13.840
72612W        W41006  11.239  19.624  11.388
72613W        W41007  18.802   5.721  11.814
72614W        W41008   6.889  27.075  13.562
72615W        W41009  16.328  41.982  10.845
72616W        W41010  12.681   9.843   2.095
72617W        W41011  19.233  28.573  12.653
72618W        W41012  15.102  27.311  12.910
72619W        W41013  40.142  22.692   4.097
72620W        W41014  34.365  28.363  14.410
72621W        W41015  10.501  40.015   4.417
72622W        W41016  25.586  40.031   4.009
72623W        W41017  21.478  16.712   1.920
72624W        W41018   5.333  19.491  11.563
72625W        W41019  43.932  11.604   0.248
72626W        W41020  20.605   3.450  12.486
72627W        W41021  43.774  16.648  10.696
72628W        W41022  29.979  24.486  13.439
72629W        W41023  36.348  18.983  11.184
72630W        W41024   6.957   8.725  12.459
72631W        W41025  24.258  17.586  13.931
72632W        W41026  23.598  23.221   4.630
72633W        W41027  34.357  30.742   0.655
72634W        W41028  11.513   7.690   2.537
72635W        W41029  44.133  18.003  14.155
72636W        W41030  31.557  28.821   0.122
72637W        W41031  37.362   8.562  13.223
72638W        W41032  17.282   9.358   4.298
72639W        W41033  42.840  34.833   3.311
72640W        W41034  24.520  36.531  13.896
72641W        W41035  17.620   0.187  13.883
72642W        W41036  12.391  15.571  11.085
72643W        W41037  11.378  25.996   2.834
72644W        W41038  37.065   1.822  14.490
72645W        W41039  41.327  32.675   0.460
72646W        W41040  31.906  33.470   2.372
72647W        W41041  13.255  12.500   4.600
72648W        W41042   2.890  17.195  12.364
72649W        W41043  27.927  34.033  14.373
72650W        W41044  33.809  38.343  12.883
72651W        W41045  18.651  16.701  13.926
72652W        W41046  35.494  13.152   1.558
72653W        W41047  20.306  26.891  14.798
72654W        W41048  31.696   7.897   1.917
72655W        W41049  38.140   8.955   0.641
72656W        W41050   6.997   5.783   2.448
72657W        W41051   2.206  28.475   5.118
72658W        W41052  26.412   9.376   3.039
72659W        W41053   6.995  22.462   4.763
72660W        W41054  26.290  17.784  11.191
72661W        W41055  42.315  18.625  12.896
72662W        W41056   0.355  37.485   3.364
72663W        W41057  22.800  38.366  14.918
72664W        W41058   5.297   9.461  11.119
72665W        W41059  35.027  24.803   4.300
72666W        W41060   8.293  42.776  11.711
72667W        W41061   9.360   4.283  12.109
72668W        W41062  41.804  20.714  11.700
72669W        W41063  22.310   6.380  13.851
72670W        W41064   0.495   5.796   1.385
72671W        W41065  14.479  30.933  13.871
72672W        W41066  37.974  12.822   3.589
72673W        W41067  35.928   9.605   1.435
72674W        W41068   1.015  37.802  10.666
72675W        W41069   7.895  28.284  10.748
72676W        W41070  38.283  23.706  12.944
72677W        W41071   8.559  41.291  13.178
72678W        W41072   8.500   2.178   4.625
72679W        W41073  34.437  11.143  10.613
72680W        W41074  42.456  40.772   2.772
72681W        W41075  22.996  20.006   2.699
72682W        W41076   9.381   8.224  14.349
72683W        W41077   9.583   9.274  11.769
72684W        W41078  33.427  33.929   3.730
72685W        W41079  20.474  24.064  11.076
72686W        W41080  27.721  26.738   2.796
72687W        W41081  10.524  44.818  13.339
72688W        W41082  41.449   2.991   4.578
72689W        W41083  39.793  40.324  13.086
72690W        W41084   0.467  30.639  11.447
72691W        W41085  28.099   4.211   2.887
72692W        W41086  38.727  44.499  14.297
72693W        W41087  16.217   7.496  13.843
72694W        W41088  33.015  34.393  14.145
72695W        W41089  25.054   3.508   1.801
72696W        W41090   1.379  25.843  13.836
72697W        W41091  42.588  12.251  11.102
72698W        W41092  17.730  11.685  11.674
72699W        W41093  25.904  31.046  12.434
72700W        W41094  38.824  26.763  11.661
72701W        W41095  39.024   9.427   0.165
72702W        W41096  17.303   9.568  11.063
72703W        W41097   6.915  38.508   0.266
72704W        W41098  22.158  18.975   4.511
72705W        W41099   0.684  25.221  14.013
72706W        W41100   6.449  31.245  10.724
72707W        W41101  38.205  22.956  13.326
72708W        W41102  16.071  19.250  12.441
72709W        W41103  40.259  41.471   4.285
72710W        W41104  13.761  12.675  11.252
72711W        W41105  13.194  18.236   4.321
72712W        W41106  38.087   0.739  11.715
72713W        W41107  11.657  35.894  10.250
72714W        W41108   0.801  30.655  13.120
72715W        W41109  36.881   4.753   2.199
72716W        W41110  11.158  34.507   1.840
72717W        W41111  14.374  19.124   0.246
72718W        W41112  42.982   5.298   3.056
72719W        W41113  39.820  29.611  10.949
72720W        W41114   7.757  26.764  12.522
72721W        W41115  39.007  18.435  13.977
72722W        W41116  18.349  36.870   3.631
72723W        W41117  43.897  11.863   0.738
72724W        W41118  30.194  30.480  11.621
72725W        W41119  37.463  33.672   2.195
72726W        W41120   2.210   7.467   0.000
72727W        W41121   0.820  31.942  11.612
72728W        W41122  12.686  34.808   4.635
72729W        W41123  11.677  23.614   4.977
72730W        W41124  29.309  27.790  11.241
72731W        W41125  27.251  44.991  12.482
72732W        W41126  20.495  36.853  14.530
72733W        W41127  12.048  12.438   4.811
72734W        W41128  23.160  27.919   0.066
72735W        W41129   9.848  28.509  13.665
72736W        W41130  31.334  26.480  11.471
72737W        W41131  28.751   4.355  13.170
72738W        W41132  32.883  17.697  10.383
72739W        W41133  43.718  38.434  12.899
72740W        W41134  29.464  29.559  12.518
72741W        W41135  26.678   1.521  12.838
72742W        W41136   4.368  41.071   1.451
72743W        W41137  17.801  39.874  13.798
72744W        W41138  37.417  25.539  13.024
72745W        W41139  40.069  43.142  13.025
72746W        W41140   3.014  20.725  11.677
72747W        W41141  43.628  27.176   0.474
72748W        W41142  18.839  21.934  12.061
72749W        W41143  37.853  10.775   4.242
72750W        W41144  24.779  44.429   1.335
72751W        W41145  30.069   7.170  11.689
72752W        W41146  29.299  27.933  13.428
72753W        W41147  26.378  37.621  14.024
72754W        W41148  24.901  42.869  14.850
72755W        W41149  34.080   3.445  11.067
72756W        W41150  30.306  22.049  13.936
72757W        W41151  21.782  36.270   1.066
72758W        W41152  27.455  25.777  10.864
72759W        W41153  40.056  38.710  11.119
72760W        W41154  31.946  30.012  14.371
72761W        W41155   2.435   5.541  14.928
72762W        W41156   9.655   1.340   2.221
72763W        W41157   0.537  23.171   0.176
72764W        W41158  23.816  37.759   0.824
72765W        W41159  13.431  19.054  14.342
72766W        W41160  18.032   4.356  13.419
72767W        W41161  25.094  28.393  14.441
72768W        W41162  24.027  15.643   4.026
72769W        W41163  26.233  24.268  14.340
72770W        W41164  12.411   0.863   2.292
72771W        W41165   2.343  40.007  12.865
72772W        W41166  33.553  11.757   2.621
72773W        W41167  11.772  11.371  14.709
72774W        W41168  17.778   5.408   0.868
72775W        W41169  36.079  17.680   2.730
72776W        W41170  35.393  20.142  13.391
72777W        W41171   2.876  34.193   4.187
72778W        W41172  15.736  41.169   1.816
72779W        W41173  43.779  10.641  13.463
72780W        W41174  33.384   2.833  14.415
72781W        W41175  21.732   0.892  10.719
72782W        W41176  28.551  24.282   0.141
72783W        W41177  26.738  20.840  10.726
72784W        W41178  42.309   0.335   0.508
72785W        W41179   2.544   6.166   2.120
72786W        W41180  38.990  14.919  10.390
72787W        W41181  36.954   7.741   4.362
72788W        W41182  14.660  26.125  14.373
72789W        W41183  17.312  13.579   3.015
72790W        W41184  20.058  24.429   2.342
72791W        W41185  30.622   0.963   3.345
72792W        W41186  24.631   1.456  11.891
72793W        W41187  26.893  23.493  10.352
72794W        W41188  13.155   9.626   1.940
72795W        W41189  38.131  21.030   3.208
72796W        W41190   4.904  38.963   2.566
72797W        W41191  14.813  30.447  12.961
72798W        W41192  31.611  24.977  14.422
72799W        W41193  14.345   8.293   0.765
72800W        W41194  28.636  41.807   0.866
72801W        W41195   9.140  24.030  11.976
72802W        W41196  36.961  36.321  13.106
72803W        W41197   7.331  40.479   2.323
72804W        W41198   4.127  19.416  10.831
72805W        W41199  31.426   9.741  12.894
72806W        W41200  23.203  22.230   0.192
72807W        W41201  27.484  43.184  14.744
72808W        W41202   5.877  34.621   3.236
72809W        W41203  38.258  23.960   3.748
72810W        W41204  22.106  35.365   0.759
72811W        W41205  14.653   8.241  14.351
72812W        W41206  28.103  19.272   1.932
72813W        W41207  41.754   2.901  12.127
72814W        W41208  10.752   4.466   1.373
72815W        W41209  43.200  26.996   0.246
72816W        W41210  36.878   8.811  13.434
72817W        W41211   0.807  17.843   1.819
72818W        W41212  16.095  24.042   1.274
72819W        W41213  31.332   7.736  11.245
72820W        W41214  39.101  19.515  12.109
72821W        W41215  17.544   6.911   3.380
72822W        W41216  37.366  20.314  12.953
72823W        W41217  12.413  32.092   1.173
72824W        W41218  21.786  25.679   1.733
72825W        W41219   6.654  21.321   0.341
72826W        W41220   2.039  21.295   1.601
72827W        W41221  43.893  38.960   0.305
72828W        W41222  23.350   2.797  11.803
72829W        W41223   6.220  36.501  14.867
72830W        W41224  11.658  13.754   3.772
72831W        W41225   1.691  26.606  12.526
72832W        W41226  16.758  17.479   1.778
72833W        W41227   0.110  11.161   1.726
72834W        W41228   8.314  35.023  14.780
72835W        W41229   1.728  12.666  14.396
72836W        W41230  21.437  40.837  12.089
72837W        W41231  30.496   5.920   3.134
72838W        W41232  19.597   3.874   0.352
72839W        W41233  14.660  17.299  11.972
72840W        W41234  30.492  13.903   0.676
72841W        W41235  39.032   0.503   1.396
72842W        W41236   1.044  11.573   3.671
72843W        W41237   2.457   4.172  11.110
72844W        W41238  24.341  32.300   1.104
72845W        W41239  43.010  18.189   4.598
72846W        W41240  11.174  27.967  14.921
72847W        W41241  34.133  10.978  14.361
72848W        W41242  23.458  37.062   1.974
72849W        W41243  29.995  17.699  13.359
72850W        W41244  41.516  43.261  11.126
72851W        W41245   0.235  33.312  13.330
72852W        W41246   4.504  34.169   4.656
72853W        W41247   7.900  10.705  13.381
72854W        W41248   7.208  20.431  13.492
72855W        W41249  43.803   3.851  10.545
72856W        W41250  22.565  35.512   4.285
72857W        W41251   5.445  10.604   0.036
72858W        W41252   9.808  36.653   2.057
72859W        W41253  36.320  20.216   3.800
72860W        W41254  19.277  39.948   1.409
72861W        W41255  33.854  36.377  12.843
72862W        W41256  25.571   4.095   0.465
72863W        W41257  44.972  36.216  14.571
72864W        W41258  44.664  39.822   2.659
72865W        W41259  27.002  10.549   4.148
72866W        W41260  23.994  12.857  12.135
72867W        W41261  25.107  14.250   4.686
72868W        W41262  17.068  12.885  11.572
72869W        W41263  18.318  36.026   4.791
72870W        W41264  41.425  28.309  12.957
72871W        W41265  29.031  12.485   1.901
72872W        W41266  36.575   2.415   1.669
72873W        W41267  28.605  14.237   2.328
72874W        W41268  36.498  10.577  12.837
72875W        W41269  30.930   1.050   1.800
72876W        W41270  40.052   0.748   0.750
72877W        W41271  16.841   3.016  10.290
72878W        W41272  14.497  12.770  14.583
72879W        W41273   9.789  42.077   2.280
72880W        W41274  18.878  14.278   2.963
72881W        W41275   6.804  28.529   4.282
72882W        W41276  28.024   9.741  14.434
72883W        W41277  17.233  13.674  14.129
72884W        W41278  42.504  39.050   3.661
72885W        W41279  31.092  25.294   1.657
72886W        W41280  26.382   7.790   3.340
72887W        W41281  31.752  14.549   1.228
72888W        W41282  31.640  35.241  12.064
72889W        W41283   9.104  22.042  10.467
72890W        W41284   8.875   6.308   2.831
72891W        W41285  13.313  23.451  11.776
72892W        W41286   4.334   0.053   1.683
72893W        W41287  35.599  43.401   3.632
72894W        W41288  33.435  32.463  13.112
72895W        W41289  40.321  21.397   3.559
72896W        W41290  32.608  33.449   4.549
72897W        W41291  23.970  24.233   4.466
72898W        W41292  22.049  42.766   3.368
72899W        W41293  17.134   9.470   3.738
72900W        W41294  19.555  30.648   3.162
72901W        W41295  27.547  23.725  11.103
72902W        W41296  39.029  39.562  13.941
72903W        W41297  20.095  22.161   3.490
72904W        W41298   7.941  37.419   2.834
72905W        W41299  17.942  10.151  13.759
72906W        W41300  22.396   7.685   2.204
72907W        W41301   5.858   7.895  11.187
72908W        W41302   7.652  38.978   0.959
72909W        W41303  39.392  17.465  12.438
72910W        W41304  21.467   5.929   4.671
72911W        W41305  10.367  21.211   0.765
72912W        W41306   0.023  30.226  10.768
72913W        W41307  31.111  31.117  13.972
72914W        W41308  36.618   2.098   1.251
72915W        W41309  40.886  33.679   2.873
72916W        W41310  38.185  28.694   1.284
72917W        W41311   3.127  40.854   4.534
72918W        W41312  34.537  32.460   3.862
72919W        W41313  40.906  17.782  11.025
72920W        W41314  44.315  12.559   2.378
72921W        W41315   0.631  24.117  12.967
72922W        W41316   6.376  14.829  14.558
72923W        W41317  15.107  40.339   0.247
72924W        W41318  28.555   3.018  10.943
72925W        W41319  21.254   3.587   0.795
72926W        W41320   1.604  33.553   4.971
72927W        W41321  13.090   0.120   5.189
72928W        W41322   2.868  10.812   4.716
72929W        W41323  43.483  19.149  14.048
72930W        W41324  19.201  34.661  12.062
72931W        W41325   9.719   4.831   3.583
72932W        W41326  28.319   1.654   9.881
72933W        W41327  24.528  21.595   4.540
72934W        W41328  21.768  33.044   2.260
72935W        W41329  37.339  38.391   1.924
72936W        W41330   4.256   2.578  11.467
72937W        W41331  28.188  19.247  13.607
72938W        W41332  21.641  27.962   3.250
72939W        W41333  41.915  21.700   4.488
72940W        W41334  34.912  39.766   4.245
72941W        W41335  37.342   9.338   3.511
72942W        W41336  31.270   1.498   3.484
72943W        W41337   5.400  12.357   0.406
72944W        W41338  15.142  15.864   1.900
72945W        W41339  18.294  35.482   1.387
72946W        W41340  15.771   3.781   0.885
72947W        W41341  11.667  11.310  13.443
72948W        W41342  24.966   2.912  13.343
72949W        W41343   0.856  34.625  11.014
72950W        W41344   5.291  36.478   1.371
72951W        W41345  12.879  16.062  14.902
72952W        W41346  41.889  33.840  12.846
72953W        W41347  24.462  12.647  11.604
72954W        W41348  35.571  21.073   1.213
72955W        W41349  16.124  17.259  10.217
72956W        W41350  19.212  20.982   1.838
72957W        W41351  38.359  33.956   1.024
72958W        W41352  36.549  37.814   4.525
72959W        W41353  20.121  32.156  11.176
72960W        W41354  43.498  20.643  14.432
72961W        W41355  40.363  28.069   0.197
72962W        W41356  29.269  20.371   4.685
72963W        W41357  34.506  17.564   4.683
72964W        W41358   8.940  44.231  12.776
72965W        W41359  20.750   7.892  14.026
72966W        W41360  39.581   5.465   4.102
72967W        W41361  33.236  11.159   4.910
72968W        W41362  41.226  37.474   0.806
72969W        W41363  37.867  43.373  12.015
72970W        W41364   7.878  21.243   4.717
72971W        W41365  21.889  42.170   1.194
72972W        W41366  10.397  40.760   0.853
72973W        W41367  31.577  39.845   0.287
72974W        W41368  37.142  30.023   0.809
72975W        W41369   2.567  41.969   0.185
72976W        W41370  21.226  12.396   4.173
72977W        W41371   7.806  18.148  13.618
72978W        W41372  28.904  39.297   0.349
72979W        W41373  28.402  29.136   1.573
72980W        W41374  12.756  22.348   2.556
72981W        W41375  26.179  36.006  12.894
72982W        W41376  38.987  43.254   4.231
72983W        W41377  19.577  36.418   3.440
72984W        W41378  14.608  38.716   0.971
72985W        W41379  42.414  21.966   0.335
72986W        W41380  43.835  28.232   2.352
72987W        W41381   8.193   7.523   0.028
72988W        W41382   6.215  17.137   4.150
72989W        W41383  35.287  30.053   3.690
72990W        W41384  12.757   5.308  11.399
72991W        W41385  19.683  22.440   2.829
72992W        W41386  22.237   2.946  12.969
72993W        W41387  44.075  29.941   0.965
72994W        W41388  13.117  26.215  11.164
72995W        W41389   8.257  31.398  10.973
72996W        W41390  34.606  20.862  12.981
72997W        W41391   3.217  14.688  13.472
72998W        W41392  22.209  43.258  14.072
72999W        W41393  18.517  27.411  11.581
73000W        W41394  25.130   7.317  14.220
73001W        W41395  32.495  34.969  14.105
73002W        W41396  31.578  22.694  10.434
73003W        W41397  33.514   8.361   2.624
73004W        W41398   9.342  17.580  11.978
73005W        W41399  42.570  21.185   4.761
73006W        W41400  25.708  17.243  13.788
73007W        W41401   2.929  40.204  11.755
73008W        W41402   1.345  20.173  14.531
73009W        W41403  25.462  26.776  11.129
73010W        W41404  16.040  29.135   2.207
73011W        W41405   9.745  19.657  14.445
73012W        W41406  12.124  24.725   4.214
73013W        W41407  14.682  26.552  13.178
73014W        W41408  38.470  11.370  10.838
73015W        W41409  17.302   0.871  13.608
73016W        W41410  29.070  32.418   2.495
73017W        W41411  14.890  22.087  11.552
73018W        W41412  31.625   0.757  12.680
73019W        W41413  35.498  43.276  10.843
73020W        W41414  26.016  29.426   0.281
73021W        W41415  27.493  38.131   2.346
73022W        W41416  25.290   5.637  12.810
73023W        W41417  25.035  12.480   1.394
73024W        W41418  18.225  23.144  14.392
73025W        W41419   3.665   9.743  13.537
73026W        W41420   3.263   2.807  12.132
73027W        W41421  34.696  40.139  10.230
73028W        W41422   3.443  44.936   2.665
73029W        W41423   6.703   6.473   1.272
73030W        W41424  27.240   3.156  11.180
73031W        W41425   1.968  11.629  10.886
73032W        W41426  19.867  39.688   4.332
73033W        W41427  38.274  30.243   0.096
73034W        W41428  14.864  34.093   0.427
73035W        W41429   7.721  42.793  13.999
73036W        W41430  29.132  24.070   0.211
73037W        W41431   0.859   2.681  12.105
73038W        W41432  19.005  26.417   2.357
73039W        W41433   3.402  33.131   2.725
73040W        W41434   2.813  28.237  14.685
73041W        W41435  40.979  43.260  12.872
73042W        W41436   1.995  16.863   4.522
73043W        W41437  28.377  36.454   4.587
73044W        W41438  32.223  10.597   3.012
73045W        W41439  15.869  38.365   2.780
73046W        W41440   8.989  13.475   4.232
73047W        W41441  19.025  22.563   1.738
73048W        W41442  41.884   6.338   2.655
73049W        W41443  13.830  13.097   4.513
73050W        W41444  22.405   7.439   4.105
73051W        W41445  13.868  30.515  14.972
73052W        W41446   2.439  28.140  13.964
73053W        W41447   2.753  32.564   0.316
73054W        W41448  40.997   6.806  12.323
73055W        W41449  13.031  36.191   0.216
73056W        W41450   7.384   0.236  12.130
73057W        W41451  16.090   5.203   4.509
73058W        W41452  40.707   1.778   1.755
73059W        W41453  20.183  39.383   4.552
73060W        W41454   9.650   1.204  10.627
73061W        W41455  14.219  21.820   3.080
73062W        W41456   8.124   8.009  13.851
73063W        W41457  12.809  21.177   0.748
73064W        W41458  35.694  11.100   2.326
73065W        W41459  30.145  43.418   3.472
73066W        W41460  19.335  40.846   4.901
73067W        W41461  25.470  15.601   3.249
73068W        W41462  33.967  10.094  13.039
73069W        W41463  26.805  42.857   0.840
73070W        W41464   1.906  32.817   0.356
73071W        W41465  32.324  22.913  14.906
73072W        W41466  22.278   1.610   4.051
73073W        W41467   5.414  43.515  12.959
73074W        W41468   8.654  32.314   2.370
73075W        W41469  32.580  33.668  14.782
73076W        W41470  41.352  17.732  12.179
73077W        W41471   2.944   4.533  10.532
73078W        W41472  36.251  16.299   0.383
73079W        W41473  20.260  16.961   4.356
73080W        W41474  36.726   2.608  14.108
73081W        W41475  30.469   9.422   2.789
73082W        W41476  33.665  16.979  11.577
73083W        W41477  27.688  12.242   3.280
73084W        W41478   1.114  30.221  12.386
73085W        W41479   3.438  17.069   3.271
73086W        W41480  41.263   3.138   3.260
73087W        W41481  27.598  43.499   0.298
73088W        W41482  44.952  17.336  13.508
73089W        W41483   1.392  33.241   0.923
73090W        W41484  39.625  23.301  11.141
73091W        W41485   9.281  22.942   3.768
73092W        W41486  31.513  27.566   2.847
73093W        W41487   1.796  14.726   0.022
73094W        W41488  15.659   8.380   5.343
73095W        W41489  16.175  13.495  10.775
73096W        W41490  42.939  35.183   0.762
73097W        W41491  21.749  10.927   3.616
73098W        W41492  14.798   9.691  12.194
73099W        W41493  15.106  19.710  10.480
73100W        W41494  24.445  17.294   0.567
73101W        W41495  38.895  44.047  10.069
73102W        W41496  35.470  43.914   1.120
73103W        W41497  13.730  10.080  14.921
73104W        W41498  39.364  27.431   0.077
73105W        W41499  32.023  20.743   1.222
73106W        W41500   8.653   3.884   3.623
73107W        W41501  15.823  33.278   0.877
73108W        W41502  36.321   9.193   2.748
73109W        W41503  12.431  37.593  14.776
73110W        W41504  27.583  37.756  13.500
73111W        W41505   2.871  42.233  14.889
73112W        W41506  13.084  30.966   3.630
73113W        W41507  13.779   7.432  11.175
73114W        W41508  22.692  42.359  13.325
73115W        W41509   9.176   4.059  11.209
73116W        W41510  22.680  26.990  10.667
73117W        W41511  20.618  37.385  12.594
73118W        W41512   0.878  36.768   4.491
73119W        W41513  28.881  22.466   1.675
73120W        W41514   7.906  17.828  12.056
73121W        W41515  15.584  30.456  13.353
73122W        W41516   8.711   0.785  12.715
73123W        W41517  38.248  25.034   1.839
73124W        W41518  17.599  11.306   1.832
73125W        W41519  25.713  33.334   4.431
73126W        W41520   4.964  33.963  12.090
73127W        W41521  20.292  30.541  10.898
73128W        W41522  27.157   9.419  10.751
73129W        W41523   5.750  24.159   3.285
73130W        W41524   3.334  19.312   2.832
73131W        W41525  22.171  27.320   2.080
73132W        W41526  35.315  33.152   3.345
73133W        W41527  40.922  21.535  14.961
73134W        W41528  31.687  39.485  13.507
73135W        W41529   9.259   5.142   3.654
73136W        W41530   2.007  35.932  14.433
73137W        W41531  38.359  27.470   4.342
73138W        W41532  25.622  16.169  11.750
73139W        W41533  35.684  21.793  13.729
73140W        W41534  34.595  15.678   4.186
73141W        W41535  21.757  22.779   0.490
73142W        W41536   2.707  43.800   3.258
73143W        W41537  24.249  23.224  12.894
73144W        W41538  36.798  41.431  13.298
73145W        W41539   7.924  32.491   0.354
73146W        W41540  38.880  35.593  14.103
73147W        W41541  16.601  14.534   3.528
73148W        W41542  38.957  19.776  12.986
73149W        W41543  41.568  44.030   3.500
73150W        W41544   4.808  21.324   1.846
73151W        W41545  26.396  17.218   1.591
73152W        W41546  40.609  27.176   2.435
73153W        W41547  42.717  33.160   4.600
73154W        W41548  40.922  19.688   2.329
73155W        W41549  14.755  22.545  14.989
73156W        W41550  10.259  20.298  14.284
73157W        W41551  16.391  15.637  14.862
73158W        W41552   7.145  44.749  13.976
73159W        W41553  15.333  42.407  13.445
73160W        W41554  36.374   5.475  14.985
73161W        W41555   3.061  30.148  11.214
73162W        W41556  12.068  20.017   1.854
73163W        W41557  44.540  42.668  12.634
73164W        W41558  20.570   5.256  10.493
73165W        W41559  14.546  29.925   1.809
73166W        W41560  29.152  33.386   2.284
73167W        W41561  27.642  14.756   4.562
73168W        W41562  12.721  32.552   0.963
73169W        W41563  23.012   6.390   0.736
73170W        W41564  15.427  27.076   4.103
73171W        W41565  38.945   5.467   0.334
73172W        W41566   9.256  32.072  12.459
73173W        W41567  20.230   1.577  10.925
73174W        W41568   4.669  14.049   3.722
73175W        W41569  25.394   5.442  13.545
73176W        W41570  18.551  31.648  10.465
73177W        W41571  18.594   5.678   1.677
73178W        W41572  22.117  40.299   3.855
73179W        W41573  15.020  12.320   2.698
73180W        W41574   6.788  40.593   3.129
73181W        W41575  37.967  29.176   3.894
73182W        W41576  36.447   7.724   3.022
73183W        W41577  38.572  41.131  12.935
73184W        W41578   4.149  34.587  12.760
73185W        W41579   6.118  28.663   0.336
73186W        W41580  24.522  44.250   0.931
73187W        W41581  25.836   1.537  13.380
73188W        W41582  17.878  34.415   0.331
73189W        W41583  14.380  30.440   1.013
73190W        W41584  10.328  40.250   3.336
73191W        W41585  44.277  10.815  13.559
73192W        W41586  17.804  37.356   4.561
73193W        W41587  10.157  39.110   4.073
73194W        W41588   2.919   1.309   0.282
73195W        W41589  19.011  40.778   4.471
73196W        W41590  33.901  37.050   2.304
73197W        W41591  14.395  31.367   3.540
73198W        W41592  17.878  21.078   3.183
73199W        W41593  17.176  23.509   1.883
73200W        W41594   7.217  40.324  13.068
73201W        W41595  33.397   3.479   2.338
73202W        W41596  16.304  14.977   0.420
73203W        W41597  37.689  44.007  13.604
73204W        W41598   4.369  23.563  13.414
73205W        W41599  35.494  34.665  14.575
73206W        W41600  12.842   8.606  12.472
73207W        W41601  30.272   6.916  14.404
73208W        W41602  21.521  30.139  10.679
73209W        W41603  44.756  12.210  11.531
73210W        W41604   5.576  18.724  14.617
73211W        W41605  10.655   6.508   1.330
73212W        W41606  39.759  34.246   3.152
73213W        W41607   9.347  28.354   3.224
73214W        W41608  15.679  24.910   3.173
73215W        W41609  38.253  38.441   1.735
73216W        W41610  37.242  13.041   5.006
73217W        W41611  27.668  25.520  12.560
73218W        W41612  15.235  34.706  11.408
73219W        W41613   0.824  31.660  13.339
73220W        W41614  26.606  23.831   0.557
73221W        W41615  37.059   1.250  14.391
73222W        W41616   1.774  33.052   1.234
73223W        W41617  32.268  43.473   1.715
73224W        W41618  24.732   0.017   2.611
73225W        W41619  15.799  33.375  13.439
73226W        W41620  37.913   3.934   1.168
73227W        W41621  26.929  12.229  11.373
73228W        W41622  14.111   3.976   4.693
73229W        W41623  28.604  28.965  10.742
73230W        W41624  12.092  15.327   4.059
73231W        W41625  15.493  12.825   1.340
73232W        W41626  29.866   8.852   2.820
73233W        W41627  29.081  24.698   4.056
73234W        W41628   1.844  27.683   2.861
73235W        W41629  19.743  25.712   3.307
73236W        W41630  17.654  29.899  10.592
73237W        W41631  14.384  38.595   2.808
73238W        W41632  19.339  11.719   2.478
73239W        W41633   4.087  25.460   2.969
73240W        W41634  40.124   0.812  11.860
73241W        W41635  31.483  12.119  11.517
73242W        W41636  44.901  38.375  14.044
73243W        W41637  35.566  32.743  11.996
73244W        W41638  34.118  18.228  12.957
73245W        W41639   5.305  13.565  14.920
73246W        W41640  14.173  20.771   3.148
73247W        W41641  31.669  42.492   1.877
73248W        W41642  44.417   3.797  11.261
73249W        W41643  40.892  36.873  14.848
73250W        W41644  44.430  30.026   4.087
73251W        W41645  39.010  42.492   1.464
73252W        W41646  29.404  43.060  13.364
73253W        W41647  25.568   3.988  14.480
73254W        W41648  42.758  11.355   1.404
73255W        W41649   6.129  29.044   3.217
73256W        W41650  16.584   5.285   1.036
73257W        W41651  37.797  19.526  14.807
73258W        W41652  26.794   8.766  10.238
73259W        W41653   7.048  40.951  13.912
73260W        W41654  30.798  43.457   4.086
73261W        W41655   2.821  23.520   4.045
73262W        W41656  28.351  41.893   4.126
73263W        W41657   7.283  24.499   2.133
73264W        W41658   0.216   0.787  14.524
73265W        W41659  37.851  17.056  11.107
73266W        W41660   1.820  17.094  12.127
73267W        W41661  12.593  22.729  11.278
73268W        W41662  24.156  16.346  11.235
73269W        W41663  20.092  32.001  12.058
73270W        W41664  18.064  12.193   2.965
73271W        W41665  18.905  13.601  10.424
73272W        W41666  41.810  34.266   0.247
73273W        W41667  15.676   8.214  14.392
73274W        W41668  29.644  39.119   5.167
73275W        W41669  34.896   9.012  14.105
73276W        W41670   8.127   7.797  10.770
73277W        W41671  33.782  41.430   2.712
73278W        W41672  20.219  10.915  14.861
73279W        W41673  31.428  17.151   2.601
73280W        W41674   0.429  11.934  13.752
73281W        W41675  11.226  20.760  10.917
73282W        W41676  24.057  41.278   2.713
73283W        W41677  18.166  26.240   4.748
73284W        W41678   4.379   0.200  12.349
73285W        W41679  18.117  35.542   4.342
73286W        W41680  30.057  20.915   3.636
73287W        W41681  18.429  19.913   3.740
73288W        W41682  28.753   2.988  12.312
73289W        W41683  21.042  18.763   4.642
73290W        W41684  43.539   1.405   3.192
73291W        W41685  16.734  32.080   1.602
73292W        W41686  21.564  38.306  13.764
73293W        W41687  42.590  26.102  13.860
73294W        W41688  20.798  22.704  13.495
73295W        W41689  42.452  26.252   3.812
73296W        W41690  19.283  12.580  13.020
73297W        W41691  15.674  43.893   0.895
73298W        W41692  41.363  12.922  12.132
73299W        W41693   5.542  40.240  14.865
73300W        W41694  34.731  11.480  14.844
73301W        W41695   9.871   1.212   1.343
73302W        W41696  29.904  34.946  12.522
73303W        W41697  20.819  32.531  14.905
73304W        W41698   1.942  37.664  10.596
73305W        W41699  20.018   7.201  11.665
73306W        W41700  20.833  41.031   2.665
73307W        W41701  41.747  25.373   4.098
73308W        W41702   8.668  34.354  14.370
73309W        W41703  39.282  29.177  13.035
73310W        W41704   4.479  26.693   0.476
73311W        W41705  25.872  32.913  10.596
73312W        W41706  28.080  30.060  13.302
73313W        W41707  29.575  16.626   2.524
73314W        W41708  19.699  22.107   1.216
73315W        W41709  34.696  17.321   0.631
73316W        W41710  12.800  42.026  14.039
73317W        W41711   2.601  10.433   1.335
73318W        W41712  44.171   6.948  13.446
73319W        W41713  26.077  43.226   0.260
73320W        W41714  16.557  40.306   4.534
73321W        W41715  27.711  38.027   2.826
73322W        W41716  24.201  17.904  12.104
73323W        W41717   9.202  17.208   1.234
73324W        W41718   9.599  15.655  12.060
73325W        W41719  40.201  15.166   1.893
73326W        W41720   5.918  10.138   5.317
73327W        W41721  33.982  31.014  10.948
73328W        W41722  34.901  36.324  11.947
73329W        W41723  16.849   0.502   0.765
73330W        W41724   6.188  33.491   4.515
73331W        W41725  11.704  31.074   0.608
73332W        W41726  20.575  26.045  11.586
73333W        W41727  16.547  40.949  13.505
73334W        W41728   0.133  41.969   1.343
73335W        W41729   9.930  25.643   4.986
73336W        W41730  44.231  22.221   0.863
73337W        W41731  37.603  33.550  11.382
73338W        W41732  28.735  41.926  13.358
73339W        W41733   7.014   4.445   0.749
73340W        W41734  15.912   8.429  12.125
73341W        W41735  26.229  14.105   1.897
73342W        W41736   6.840  12.389  11.984
73343W        W41737  43.572   9.386  11.052
73344W        W41738  21.986  23.514   2.913
73345W        W41739   3.890  10.479  10.246
73346W        W41740   0.492  35.767  11.986
73347W        W41741  16.954  18.071   0.941
73348W        W41742   3.986  41.873   4.561
73349W        W41743  23.102   8.725   1.426
73350W        W41744  31.260  27.138  10.358
73351W        W41745  36.929  41.425  11.037
73352W        W41746  34.829   6.816  12.121
73353W        W41747  33.144  39.979  12.110
73354W        W41748   4.995  12.295  13.483
73355W        W41749   0.822  40.951  12.041
73356W        W41750  11.221  39.806  10.865
73357W        W41751  29.191  23.291   1.102
73358W        W41752  25.682  42.794  13.891
73359W        W41753  11.365  20.201  12.137
73360W        W41754  20.160   7.103   0.276
73361W        W41755  24.982  23.334  12.521
73362W        W41756   4.673   8.211  11.129
73363W        W41757  21.981   3.835  12.449
73364W        W41758  30.026  40.185   2.192
73365W        W41759  14.029  37.140  11.530
73366W        W41760  16.529   3.258   0.858
73367W        W41761  29.724  44.686  12.541
73368W        W41762   7.023   0.165  13.658
73369W        W41763  24.607  28.256   3.882
73370W        W41764  12.219  39.055  12.907
73371W        W41765  32.670  38.019   1.318
73372W        W41766   2.749  33.098  14.834
73373W        W41767   6.880  14.290   0.928
73374W        W41768  13.857  17.091   4.035
73375W        W41769  30.916  40.891   3.429
73376W        W41770  28.467  42.022  12.038
73377W        W41771   5.136  34.938   3.475
73378W        W41772  29.012   1.735   1.907
73379W        W41773  25.089   9.133  13.827
73380W        W41774   2.002   8.306  10.914
73381W        W41775  24.033  28.671   2.340
73382W        W41776  34.332   1.763  10.835
73383W        W41777  36.838  10.780  10.740
73384W        W41778  44.178  38.741  12.943
73385W        W41779  16.524   9.785  13.090
73386W        W41780  19.753  17.718  12.883
73387W        W41781  12.902  17.212   4.140
73388W        W41782  14.589   9.219   0.231
73389W        W41783  20.618  44.128   3.440
73390W        W41784   0.266  38.337   1.256
73391W        W41785  40.391  23.251   3.893
73392W        W41786   3.308  20.251   0.842
73393W        W41787  36.101  22.976   0.928
73394W        W41788  40.790  35.071  12.919
73395W        W41789  12.716  41.831  11.147
73396W        W41790  26.728  11.343  13.424
73397W        W41791   0.364   8.342   0.348
73398W        W41792  14.795  40.327   0.816
73399W        W41793  17.101  11.295   1.997
73400W        W41794   8.799  20.270  12.148
73401W        W41795   8.860  25.496   2.701
73402W        W41796  27.065   6.561  13.153
73403W        W41797  19.785   5.244  13.112
73404W        W41798  24.019   0.914  10.868
73405W        W41799  11.119  17.183   1.361
73406W        W41800  39.359   1.241  11.959
73407W        W41801  26.878  29.046   1.203
73408W        W41802  24.536   2.821   2.805
73409W        W41803  29.327   7.911  11.003
73410W        W41804  34.560   1.472   0.316
73411W        W41805  21.179  44.849  14.556
73412W        W41806  13.117  42.835  14.420
73413W        W41807  11.113  28.402  11.182
73414W        W41808  26.402  20.206  11.245
73415W        W41809  26.388  13.355   0.817
73416W        W41810  29.709  27.115  12.028
73417W        W41811  32.870  35.611   3.198
73418W        W41812   9.445   0.284   4.575
73419W        W41813  41.569  26.569   0.512
73420W        W41814  16.015   0.806   2.769
73421W        W41815  17.244  23.290   1.415
73422W        W41816  37.479  35.041   1.293
73423W        W41817  11.202  18.292   4.099
73424W        W41818  23.547  13.026   2.751
73425W        W41819  14.879  19.622  12.434
73426W        W41820  44.881   4.289   2.766
73427W        W41821  38.067  44.884  14.688
73428W        W41822  24.079  32.314  11.727
73429W        W41823   9.323  31.464   2.440
73430W        W41824  20.506  34.065   3.722
73431W        W41825  41.373  17.019  11.220
73432W        W41826  22.043  11.651  12.919
73433W        W41827  11.636  25.597   1.856
73434W        W41828  41.873  43.575  12.520
73435W        W41829  32.287  20.764   2.440
73436W        W41830   9.138  10.631   2.133
73437W        W41831   2.021  35.081   1.212
73438W        W41832  32.557  14.199   0.170
73439W        W41833  35.546   5.301   2.436
73440W        W41834  38.725  28.010  10.437
73441W        W41835  21.270   6.679  10.581
73442W        W41836   8.682   6.882  12.640
73443W        W41837  19.207  36.396   1.216
73444W        W41838  18.212  41.250  12.566
73445W        W41839  39.946  37.330   3.720
73446W        W41840  24.449  26.801  12.569
73447W        W41841  18.246  14.281   2.288
73448W        W41842  11.109  21.783  12.523
73449W        W41843  43.005  15.685  11.658
73450W        W41844  42.904  23.474  12.948
73451W        W41845  14.679  19.939  10.239
73452W        W41846  30.577  21.158  12.948
73453W        W41847  13.703  23.853  12.986
73454W        W41848  14.864  26.495  14.037
73455W        W41849   7.817  41.567  11.773
73456W        W41850  43.819  16.710  11.973
73457W        W41851  40.999  37.802   3.391
73458W        W41852  30.475  10.233   0.131
73459W        W41853  18.418  38.811  14.077
73460W        W41854  20.300  44.740  12.526
73461W        W41855  44.846   5.092  14.849
73462W        W41856  10.211   5.938  13.792
73463W        W41857  29.152  27.604   5.000
73464W        W41858   2.108  17.608  13.820
73465W        W41859  20.026  28.318   0.938
73466W        W41860  28.401   3.327   0.973
73467W        W41861  24.976   1.912  12.461
73468W        W41862  35.060  34.893   0.427
73469W        W41863  19.523  33.426   5.163
73470W        W41864  37.834  15.910  14.306
73471W        W41865  32.540  26.565   0.486
73472W        W41866   2.208   6.619  14.329
73473W        W41867  44.378  17.679   2.496
73474W        W41868  36.434  19.068   2.345
73475W        W41869  16.670  43.988   2.405
73476W        W41870   4.668  34.399  12.080
73477W        W41871  35.789  19.046   3.975
73478W        W41872  44.782  18.607   2.127
73479W        W41873  29.617  24.212   4.687
73480W        W41874  37.827  20.000   2.056
73481W        W41875  34.415  11.349   1.728
73482W        W41876  30.587  19.126  14.076
73483W        W41877  30.406   8.484   4.213
73484W        W41878  34.685   8.689  14.834
73485W        W41879  13.469  42.751   5.086
73486W        W41880  25.967   3.229   4.071
73487W        W41881   5.943   9.209   4.628
73488W        W41882  25.537  21.677  11.204
73489W        W41883  36.917  20.296  13.342
73490W        W41884  17.370  43.780  11.748
73491W        W41885  28.635  33.324   2.676
73492W        W41886  22.045  15.262  13.061
73493W        W41887  34.929  23.354   3.660
73494W        W41888  11.308  10.703   4.588
73495W        W41889  10.128  16.249   4.007
73496W        W41890  14.806  32.335   3.636
73497W        W41891  28.564   4.449   2.885
73498W        W41892  32.148   8.243   1.759
73499W        W41893   5.239   9.183   4.024
73500W        W41894  33.931  11.257  14.864
73501W        W41895  24.202  26.563  11.637
73502W        W41896  25.743  42.753  10.808
73503W        W41897  43.661   4.892   2.729
73504W        W41898  37.355  20.304  11.185
73505W        W41899   6.911  21.126  12.446
73506W        W41900  10.266  15.649  13.580
73507W        W41901  25.718   2.376   3.253
73508W        W41902   0.783   4.423   2.733
73509W        W41903  23.326  20.482   1.006
73510W        W41904   1.246  27.675   3.757
73511W        W41905  33.211  23.294  14.433
73512W        W41906   2.578  41.509  14.976
73513W        W41907  22.519  34.177  14.714
73514W        W41908  21.567  33.859   4.637
73515W        W41909  17.115  34.057  12.943
73516W        W41910  28.848  26.830   4.492
73517W        W41911  35.907  20.008   4.583
73518W        W41912  10.566   0.851   0.984
73519W        W41913  23.804  40.052   2.237
73520W        W41914  17.027  28.886  12.377
73521W        W41915  29.056   4.627  13.980
73522W        W41916   3.453   0.536   1.849
73523W        W41917   9.753   5.386   4.433
73524W        W41918  20.482  44.017  11.920
73525W        W41919  39.203  41.595   1.871
73526W        W41920  11.291  19.743   1.672
73527W        W41921  19.308  10.933  11.148
73528W        W41922  43.962  21.804  13.965
73529W        W41923   7.733  42.082   0.356
73530W        W41924  11.587  28.507  10.397
73531W        W41925  35.474   5.810  10.751
73532W        W41926  26.195  42.795  12.786
73533W        W41927  44.285  21.603  12.071
73534W        W41928  11.884  24.041   2.752
73535W        W41929  17.549  18.100   2.891
73536W        W41930  41.273  28.428   1.174
73537W        W41931  10.333   6.462  14.993
73538W        W41932  40.386  44.909  11.070
73539W        W41933  39.479  31.815  14.032
73540W        W41934  25.048  30.522   3.556
73541W        W41935  42.790  21.516  13.032
73542W        W41936   2.893   8.463  12.420
73543W        W41937  39.993  43.901   1.458
73544W        W41938  14.199   4.379   5.049
73545W        W41939   7.215   3.473  14.502
73546W        W41940  25.013  38.986   2.659
73547W        W41941  21.414  32.886   0.956
73548W        W41942  43.269  27.733   0.774
73549W        W41943  33.000  43.375  13.764
73550W        W41944  34.709  10.683  12.160
73551W        W41945   6.824  18.505  13.788
73552W        W41946   8.436  16.007   3.867
73553W        W41947  31.994   9.661  11.163
73554W        W41948   1.619   7.887  12.533
73555W        W41949  39.911  31.626  14.835
73556W        W41950  38.843  15.906   1.064
73557W        W41951  31.081  34.013   3.233
73558W        W41952  15.487  20.523   2.389
73559W        W41953  11.661  36.348  12.048
73560W        W41954   6.409  29.660   4.089
73561W        W41955   7.722  35.284  14.386
73562W        W41956  44.915  20.624   2.861
73563W        W41957  19.309  37.926  13.836
73564W        W41958  17.034  39.952   0.001
73565W        W41959  26.402  24.216   5.015
73566W        W41960  29.521  15.341  14.243
73567W        W41961  13.387  15.392   4.940
73568W        W41962   4.349  13.905  13.051
73569W        W41963  14.210  15.801   0.926
73570W        W41964  31.014  14.097   4.585
73571W        W41965  13.602  27.227   0.834
73572W        W41966  16.093  38.470  13.304
73573W        W41967  13.451  20.198   4.853
73574W        W41968   0.726  40.606   2.418
73575W        W41969  28.478  28.171   1.942
73576W        W41970  17.328  44.123  13.898
73577W        W41971  10.074  43.981   1.693
73578W        W41972  32.726   3.359  14.853
73579W        W41973  19.170  41.211  11.670
73580W        W41974   5.363  43.769   4.725
73581W        W41975  32.884  44.970  12.480
73582W        W41976  32.392  39.543  14.768
73583W        W41977  38.765  33.834  11.203
73584W        W41978  38.979  30.651   3.850
73585W        W41979  16.635  44.311   2.826
73586W        W41980  40.098  26.527   4.587
73587W        W41981   2.748  28.749  12.914
73588W        W41982  28.041  30.398   3.038
73589W        W41983  27.066  43.917  12.417
73590W        W41984  38.627  27.610  10.096
73591W        W41985  25.687  32.004  13.086
73592W        W41986  39.034  13.838  14.382
73593W        W41987  42.332   1.321   4.375
73594W        W41988  31.211   2.484   1.320
73595W        W41989  38.401  26.467  14.034
73596W        W41990  25.999  27.156  12.454
73597W        W41991  16.120  37.879  12.051
73598W        W41992   9.411  18.112   1.844
73599W        W41993   8.012  14.825   0.442
73600W        W41994  21.449  15.804   4.299
73601W        W41995   4.217  34.600  12.266
73602W        W41996  42.318   9.719  14.292
73603W        W41997  18.221  37.305  12.080
73604W        W41998   6.331   3.385  12.683
73605W        W41999   4.272  41.454   4.669
73606W        W42000  31.209  24.047   4.475
73607W        W42001  15.097   2.115  11.737
73608W        W42002  13.235  36.872   1.347
73609W        W42003  34.198  39.958  10.379
73610W        W42004  13.717   1.368  12.066
73611W        W42005  11.161   7.708  11.565
73612W        W42006  32.958  29.856  14.391
73613W        W42007  15.465  22.625   4.042
73614W        W42008   6.365  12.108  12.467
73615W        W42009  42.581  14.359   0.389
73616W        W42010  29.449  33.003  11.544
73617W        W42011  34.150  11.375   4.840
73618W        W42012  25.208  38.522   1.704
73619W        W42013   1.852  10.735  12.398
73620W        W42014   8.962  11.449  13.053
73621W        W42015   4.307  42.297   0.288
73622W        W42016  37.564  22.835  14.913
73623W        W42017  42.288  29.596  12.863
73624W        W42018   2.784  31.168  14.089
73625W        W42019  35.571  16.306  10.715
73626W        W42020  27.268  34.678   4.610
73627W        W42021   4.602  16.706  13.544
73628W        W42022  21.732  34.365  12.542
73629W        W42023   1.863   7.338   0.877
73630W        W42024  14.680  12.650   3.583
73631W        W42025  31.574   6.413  12.474
73632W        W42026  30.634  23.546   3.537
73633W        W42027  33.368  31.020   2.805
73634W        W42028  41.943  22.574   3.369
73635W        W42029  35.113   5.677   4.482
73636W        W42030  37.630  19.607   0.643
73637W        W42031  14.488   5.455   0.784
73638W        W42032  17.343  39.588  10.859
73639W        W42033   1.318  30.659  11.461
73640W        W42034   6.928   1.184  11.185
73641W        W42035   9.186  38.465   3.540
73642W        W42036   8.978  41.808   5.183
73643W        W42037  35.788  32.181   3.303
73644W        W42038  33.195  18.675   3.208
73645W        W42039  15.122  11.071  12.061
73646W        W42040  21.529  22.234  13.772
73647W        W42041  26.063   4.935  13.168
73648W        W42042  15.581  16.677  11.976
73649W        W42043  37.892  25.514  12.869
73650W        W42044  14.474  44.383  13.145
73651W        W42045  16.456   5.563  10.714
73652W        W42046  35.665  31.378  10.627
73653W        W42047   7.132  33.559  11.094
73654W        W42048  33.423  29.289   5.023
73655W        W42049  28.210  27.656   2.856
73656W        W42050   3.799  23.016  14.164
73657W        W42051  15.177  11.187   3.197
73658W        W42052  13.542  27.213  14.940
73659W        W42053   1.129   6.890   2.859
73660W        W42054  42.777   8.931   1.917
73661W        W42055  39.314  31.141  13.484
73662W        W42056  31.918  41.861  11.586
73663W        W42057  17.294  24.458   4.998
73664W        W42058  39.277  27.210   2.273
73665W        W42059  34.687  23.087   3.260
73666W        W42060  33.214  17.155   0.730
73667W        W42061  38.498  14.118   4.617
73668W        W42062   0.890  18.038  14.422
73669W        W42063  37.921  17.146  13.916
73670W        W42064  19.046   2.518  11.646
73671W        W42065  27.643  16.734  12.037
73672W        W42066  20.746  28.747  14.814
73673W        W42067  42.219  26.462  13.848
73674W        W42068  22.409  34.770  13.392
73675W        W42069  28.593  11.335   0.934
73676W        W42070   5.804   9.675   0.518
73677W        W42071   8.773   0.931  11.090
73678W        W42072  15.604  21.486  11.571
73679W        W42073  20.179  16.061  12.898
73680W        W42074  34.582  25.528   1.253
73681W        W42075  35.575   8.829  12.854
73682W        W42076  10.848  12.275  10.624
73683W        W42077   4.387   4.569   3.109
73684W        W42078   3.514  34.483   0.448
73685W        W42079  43.353   5.132   0.276
73686W        W42080  18.992   8.056   2.827
73687W        W42081  10.244   0.061   2.215
73688W        W42082  29.377  36.579  11.170
73689W        W42083  16.899  21.728  14.522
73690W        W42084  27.978   1.179  14.480
73691W        W42085  10.054  15.861  12.830
73692W        W42086   2.176   5.243   1.366
73693W        W42087  37.463  28.714   2.836
73694W        W42088  44.871  23.872   1.029
73695W        W42089   4.172  42.940  13.930
73696W        W42090   7.361  17.867  13.644
73697W        W42091  14.230   9.606   0.292
73698W        W42092  12.262   7.778  12.213
73699W        W42093  20.769  18.024  12.930
73700W        W42094  11.828  39.462   4.493
73701W        W42095  35.555   1.870  11.506
73702W        W42096  31.518   6.372  13.380
73703W        W42097  39.034  27.456   0.479
73704W        W42098   7.739  17.681   3.179
73705W        W42099  25.775  22.071  10.988
73706W        W42100  34.157  26.452  12.002
73707W        W42101  18.044  26.927  13.124
73708W        W42102  10.112  37.551  12.930
73709W        W42103  20.327  13.611   0.035
73710W        W42104  16.680  32.645  12.475
73711W        W42105  21.081  16.470  12.443
73712W        W42106   8.280  13.311   2.336
73713W        W42107  29.697   9.845   0.377
73714W        W42108  35.650  27.134  14.004
73715W        W42109   9.325  23.342   0.451
73716W        W42110  25.035   0.233  13.380
73717W        W42111  40.416  11.348  14.064
73718W        W42112   0.754  22.988  13.052
73719W        W42113  41.503   2.760   1.459
73720W        W42114  44.065  23.775   1.588
73721W        W42115   6.482  43.534   0.003
73722W        W42116  10.372  15.726   1.695
73723W        W42117  43.393  23.517  11.548
73724W        W42118  41.442   9.929   3.914
73725W        W42119   9.642  14.052  12.445
73726W        W42120  15.033  43.302   1.735
73727W        W42121  16.294  18.321  14.528
73728W        W42122  40.699  23.187   2.737
73729W        W42123   2.864  13.737   0.390
73730W        W42124  13.152  29.008  12.795
73731W        W42125  10.146  31.872  10.461
73732W        W42126  16.506  15.083   4.907
73733W        W42127  13.633   1.856  11.150
73734W        W42128  15.148  41.473   3.998
73735W        W42129  34.454  32.007   4.129
73736W        W42130  10.700  29.619  13.052
73737W        W42131   8.888  17.593  11.183
73738W        W42132   9.452   5.277   0.819
73739W        W42133  11.634  32.909  10.644
73740W        W42134  33.410  21.770  10.470
73741W        W42135  15.220  39.598   3.160
73742W        W42136  26.712  29.139   4.304
73743W        W42137  44.380  15.207  14.929
73744W        W42138  31.267  34.507   4.194
73745W        W42139  26.683  25.572   2.224
73746W        W42140   1.139   1.411   1.823
73747W        W42141  14.672  36.943  13.765
73748W        W42142  12.992  33.957   3.574
73749W        W42143   2.267  36.549  13.869
73750W        W42144  34.298  28.502  11.171
73751W        W42145   4.858  36.979   0.895
73752W        W42146   5.263  14.371   2.257
73753W        W42147   0.494   1.324   3.347
73754W        W42148  40.925  32.265   2.950
73755W        W42149  13.562  22.143  13.624
73756W        W42150  24.979  12.622   3.220
73757W        W42151   6.214  43.880   2.366
73758W        W42152   8.807   2.840  10.659
73759W        W42153  32.987  32.921  11.487
73760W        W42154  22.667   7.727   3.743
73761W        W42155  27.382  14.750  10.536
73762W        W42156  10.414  25.881   1.397
73763W        W42157  25.177  25.582   4.574
73764W        W42158   5.408   4.724   2.673
73765W        W42159   2.475  26.131  11.120
73766W        W42160  22.762  30.067  14.046
73767W        W42161  21.047   8.832  10.497
73768W        W42162  15.245  22.741   4.500
73769W        W42163  44.431  18.098   3.796
73770W        W42164  16.166  37.544  13.553
73771W        W42165  22.174  19.778  12.902
73772W        W42166   0.927  27.445  11.047
73773W        W42167   1.371   6.369   0.817
73774W        W42168   1.246  13.247   1.357
73775W        W42169   2.040   4.110  12.459
73776W        W42170  25.710  10.647   2.470
73777W        W42171  35.744  27.094   2.934
73778W        W42172  27.915  23.334   4.467
73779W        W42173  18.735  37.616   4.529
73780W        W42174   5.428   8.964   1.750
73781W        W42175  22.013   3.801   3.094
73782W        W42176  38.698  16.119  10.898
73783W        W42177   6.113  10.345  14.924
73784W        W42178   0.389  28.713  11.180
73785W        W42179  34.817  19.287  11.165
73786W        W42180   9.838  10.778   0.655
73787W        W42181   4.396  41.994   0.704
73788W        W42182  33.220   2.852   0.736
73789W        W42183  32.855  18.026  13.854
73790W        W42184   6.163  31.323  13.338
73791W        W42185  17.114  34.352   4.082
73792W        W42186  26.140  16.361  13.911
73793W        W42187  12.001  32.649   4.624
73794W        W42188   8.165  36.720  11.892
73795W        W42189  34.114  31.166   4.542
73796W        W42190  26.547  23.192  10.612
73797W        W42191   9.696  10.692  14.646
73798W        W42192  16.111  33.197   9.903
73799W        W42193   4.378  20.546   3.657
73800W        W42194  31.579  33.992   1.983
73801W        W42195  37.510  29.035  13.075
73802W        W42196  31.313  19.025  13.593
73803W        W42197  28.769  37.829   3.145
73804W        W42198   6.033  11.825   2.569
73805W        W42199   3.820  39.401  12.845
73806W        W42200  24.781   4.318   3.786
73807W        W42201  38.524  18.759   3.876
73808W        W42202  25.320   4.769  10.171
73809W        W42203  37.362   0.875  14.569
73810W        W42204  13.121  36.074   4.188
73811W        W42205  18.389   1.251   1.852
73812W        W42206  17.783  42.082   4.643
73813W        W42207  14.444  42.021  10.771
73814W        W42208  13.172   5.471   0.841
73815W        W42209  26.043   2.393   5.104
73816W        W42210  17.132  40.818   0.371
73817W        W42211  12.216  25.300  12.441
73818W        W42212  17.242  29.367  11.540
73819W        W42213  11.866  25.021  12.973
73820W        W42214  35.305  12.367   4.538
73821W        W42215   4.798  38.916   5.022
73822W        W42216  29.021   4.742   4.164
73823W        W42217  26.111  38.926  12.249
73824W        W42218  19.080   4.927  11.987
73825W        W42219  15.085  42.823   1.394
73826W        W42220  23.236  33.591   2.806
73827W        W42221  41.443  35.443  14.365
73828W        W42222   7.927  40.931  12.482
73829W        W42223   8.520  13.681   0.639
73830W        W42224  37.964  44.827  11.543
73831W        W42225  34.324  30.718  14.494
73832W        W42226  18.365  13.629  12.491
73833W        W42227   7.424  28.382  10.544
73834W        W42228  43.368  24.217  13.066
73835W        W42229  35.445   5.409  12.479
73836W        W42230   7.448  23.363  10.946
73837W        W42231  23.626   0.239   2.615
73838W        W42232  27.403  15.450  13.237
73839W        W42233  25.048  39.531   2.688
73840W        W42234   5.327  12.393   2.375
73841W        W42235   2.366  13.389  14.686
73842W        W42236   9.603  40.768  12.994
73843W        W42237  30.628  29.483   2.309
73844W        W42238  31.356   5.886  13.470
73845W        W42239  13.838   9.427   5.511
73846W        W42240  15.692  30.734   1.810
73847W        W42241  36.492   9.820   1.697
73848W        W42242   1.871  35.515  13.078
73849W        W42243  20.687  40.645  13.163
73850W        W42244  30.493  27.344   0.745
73851W        W42245   1.435  42.875  14.049
73852W        W42246  21.265  22.460   2.278
73853W        W42247  39.524  12.402   2.855
73854W        W42248   9.187  41.422   1.793
73855W        W42249  32.564  43.692  10.648
73856W        W42250  30.613  29.587  13.215
73857W        W42251  19.192  36.362  11.583
73858W        W42252  27.255  39.905   0.027
73859W        W42253  21.590   9.147   2.621
73860W        W42254  39.961  26.288  14.017
73861W        W42255  17.598  31.023  13.583
73862W        W42256   0.234  41.440   2.462
73863W        W42257  29.522   5.641  11.025
73864W        W42258   5.399  19.480   0.758
73865W        W42259  32.283   0.065  13.033
73866W        W42260  40.639  17.600   2.725
73867W        W42261   9.261   9.797   4.641
73868W        W42262  39.913  40.937   0.689
73869W        W42263  25.320  38.896   4.120
73870W        W42264  17.841  11.199  11.502
73871W        W42265  19.519  43.687   4.594
73872W        W42266  24.414  10.175   0.508
73873W        W42267  27.344  22.154  14.365
73874W        W42268  23.205  44.815  14.319
73875W        W42269  18.615  19.778  10.438
73876W        W42270   0.348  27.015   2.256
73877W        W42271  30.238  28.731   4.472
73878W        W42272  37.560  31.873   0.974
73879W        W42273  10.847  21.463  11.597
73880W        W42274  41.847  20.643   4.308
73881W        W42275  22.855  43.440  12.410
73882W        W42276  33.573  44.005   1.911
73883W        W42277  24.578  43.424   1.266
73884W        W42278  29.949  33.477  10.415
73885W        W42279  30.124   0.370  14.836
73886W        W42280   7.906   2.295  10.736
73887W        W42281  20.227  29.856   2.144
73888W        W42282   0.904  25.815   2.404
73889W        W42283   6.442  42.652   9.719
73890W        W42284   3.704   1.038   2.250
73891W        W42285   7.187  15.726  13.597
73892W        W42286  28.238  42.396   2.219
73893W        W42287  36.447  38.523   2.216
73894W        W42288  38.853  41.084  12.081
73895W        W42289  36.836  27.584  11.651
73896W        W42290  28.761  27.175  13.098
73897W        W42291  34.520  28.358  13.455
73898W        W42292  10.232  36.542  13.874
73899W        W42293  28.552  27.699   1.736
73900W        W42294  31.993  35.115  10.890
73901W        W42295   1.574  10.363   1.363
73902W        W42296  18.650  12.493   1.085
73903W        W42297  29.796  20.302   0.919
73904W        W42298  42.968   7.650   3.680
73905W        W42299  31.012   9.454  11.605
73906W        W42300  35.999  40.999  13.248
73907W        W42301  11.179  43.708  10.661
73908W        W42302  14.615  14.767   0.019
73909W        W42303  11.818  24.042  14.000
73910W        W42304  12.743   9.667   3.921
73911W        W42305  32.672  14.225   3.052
73912W        W42306  42.067  38.758   0.530
73913W        W42307   2.344  22.255   3.230
73914W        W42308  22.095  40.771   2.242
73915W        W42309  16.526   2.281  11.491
73916W        W42310  33.212  42.521   2.658
73917W        W42311  18.223  40.132  13.595
73918W        W42312  37.565  32.130   0.006
73919W        W42313  34.037  40.576  13.516
73920W        W42314  25.531  17.643  10.679
73921W        W42315  28.867  33.389   3.187
73922W        W42316   8.336  28.421   3.074
73923W        W42317  31.644  15.311  13.617
73924W        W42318   8.760  29.342  10.635
73925W        W42319  21.148   9.879   2.221
73926W        W42320   2.205  18.052   3.277
73927W        W42321  19.924  12.836   2.830
73928W        W42322  31.696   4.013   0.247
73929W        W42323  28.083  16.157  10.883
73930W        W42324   3.668   4.429   2.758
73931W        W42325  17.887  16.941  13.862
73932W        W42326  11.161  17.595   1.020
73933W        W42327  44.853  24.606  12.379
73934W        W42328  27.923  37.316  12.966
73935W        W42329  23.747  32.677   2.702
73936W        W42330  38.363  35.805  14.016
73937W        W42331  19.969  40.191  11.592
73938W        W42332  17.644   6.408  11.042
73939W        W42333  13.105   4.815  12.504
73940W        W42334  19.956  19.945  14.493
73941W        W42335  44.548   9.182  12.496
73942W        W42336  41.815  23.974   3.024
73943W        W42337  25.102  17.640   2.796
73944W        W42338  37.778  30.079   0.091
73945W        W42339  26.178  37.775   0.912
73946W        W42340  34.870  39.090  13.471
73947W        W42341  22.214   5.996  13.390
73948W        W42342  16.097  34.562   1.486
73949W        W42343  24.158   3.856   1.348
73950W        W42344  16.769  44.244   1.734
73951W        W42345  12.691  18.793   1.554
73952W        W42346   1.557  43.555  13.554
73953W        W42347  24.048  36.265  12.075
73954W        W42348  44.514  16.690   2.861
73955W        W42349  14.680   7.195  13.070
73956W        W42350  21.123  27.179  12.064
73957W        W42351  10.275  35.270  13.447
73958W        W42352  37.992  14.925   3.206
73959W        W42353  36.813  18.710   2.304
73960W        W42354   4.453  18.787   4.117
73961W        W42355  37.892  27.088  11.187
73962W        W42356  15.455  44.593   0.527
73963W        W42357  43.634   3.440  10.137
73964W        W42358   5.630   3.830  12.452
73965W        W42359  42.806   8.175   3.196
73966W        W42360  15.732   5.395  13.806
73967W        W42361  16.020  19.932  11.984
73968W        W42362   4.190  40.511  10.591
73969W        W42363  36.305  36.365  14.412
73970W        W42364  27.156  17.177   0.011
73971W        W42365  20.489   6.778  12.141
73972W        W42366  34.256  37.044  12.172
73973W        W42367  26.916  15.208   1.334
73974W        W42368  14.755  38.746   3.837
73975W        W42369  22.546  44.033   1.317
73976W        W42370  10.446  13.745   1.498
73977W        W42371  20.186  20.219   3.398
73978W        W42372   2.160   2.939   0.318
73979W        W42373  16.564  26.102  12.607
73980W        W42374  22.300  39.545   0.814
73981W        W42375  21.757   5.707   0.662
73982W        W42376  38.739  10.814  13.743
73983W        W42377  28.631  10.015   1.005
73984W        W42378  16.994  23.201   0.654
73985W        W42379  13.274  42.943  10.813
73986W        W42380  14.098  27.089  13.022
73987W        W42381  31.019  36.890   4.573
73988W        W42382  41.503  19.889  12.178
73989W        W42383  30.026   7.333   2.621
73990W        W42384  19.800  32.142   0.303
73991W        W42385   6.713   1.577   4.568
73992W        W42386   2.554  14.630  13.069
73993W        W42387   5.865   1.863   5.406
73994W        W42388   7.107   2.435   1.414
73995W        W42389   6.992  14.263   5.373
73996W        W42390  10.272  12.788  10.582
73997W        W42391  33.446   1.795   2.703
73998W        W42392   5.016  15.820  13.952
73999W        W42393  37.747  11.835  11.168
74000W        W42394  24.630   5.789   4.093
74001W        W42395  33.603   5.885   1.285
74002W        W42396   6.265   2.319  12.099
74003W        W42397  36.196  44.816  13.229
74004W        W42398  27.668  28.676  11.507
74005W        W42399  11.099  15.214  11.163
74006W        W42400  24.194  26.710  14.801
74007W        W42401   7.854   4.518  14.910
74008W        W42402  17.320   5.208  13.821
74009W        W42403  35.310  29.211  11.137
74010W        W42404  40.374  32.218   0.404
74011W        W42405  14.034  37.163  10.058
74012W        W42406  26.351  31.491   4.550
74013W        W42407  11.989  13.364  10.836
74014W        W42408  25.454  32.295   3.938
74015W        W42409  27.767   8.342  11.994
74016W        W42410   6.266   7.956   3.117
74017W        W42411  41.609  38.238  12.186
74018W        W42412  32.368  40.981  11.184
74019W        W42413  28.483  25.430   1.059
74020W        W42414  14.788  15.722  14.961
74021W        W42415  27.012  13.712  13.036
74022W        W42416  17.267   9.303  12.964
74023W        W42417  23.604  43.618  14.512
74024W        W42418  27.287  39.780   3.293
74025W        W42419  42.448  18.176  14.786
74026W        W42420  39.369   5.476  12.953
74027W        W42421  43.777  19.089   0.006
74028W        W42422   0.387   4.797   1.637
74029W        W42423  12.068  40.844  10.411
74030W        W42424  20.110  19.941   5.660
74031W        W42425  23.963  17.241   2.360
74032W        W42426  15.275   7.183  11.682
74033W        W42427   0.376   3.933   4.651
74034W        W42428  28.574  44.087  12.386
74035W        W42429  13.820  11.223   3.282
74036W        W42430  17.729  31.419  12.107
74037W        W42431  32.470   7.305  13.339
74038W        W42432   5.432  10.917   1.376
74039W        W42433  26.133  17.826  12.163
74040W        W42434  27.662  27.105  13.188
74041W        W42435  12.001   5.263  10.237
74042W        W42436  28.412  16.043  13.925
74043W        W42437   0.012  26.576   3.191
74044W        W42438  38.063   5.808  13.744
74045W        W42439  12.585  36.814  12.936
74046W        W42440   1.852   9.333  13.310
74047W        W42441   9.137   5.103  14.874
74048W        W42442  12.818  40.762   4.154
74049W        W42443  28.037   3.501   0.298
74050W        W42444  11.080  31.721   0.920
74051W        W42445   1.346  18.304  12.505
74052W        W42446   2.456  42.845   3.857
74053W        W42447  35.890  24.624  14.305
74054W        W42448  28.915  44.310   2.784
74055W        W42449  36.034  15.389  14.316
74056W        W42450  29.956  24.197   4.288
74057W        W42451  36.858  29.978  13.831
74058W        W42452  37.891  37.678  12.926
74059W        W42453  34.661  16.343  12.545
74060W        W42454  21.927  32.775  10.904
74061W        W42455  14.544   6.501  12.259
74062W        W42456  32.605  26.863   2.876
74063W        W42457  34.469   7.705  13.862
74064W        W42458  34.696   9.779   4.100
74065W        W42459   0.811  28.969   2.959
74066W        W42460  29.967   7.136  13.079
74067W        W42461  34.222  25.428   0.884
74068W        W42462   3.260   0.750   2.285
74069W        W42463  14.706  41.416   4.462
74070W        W42464  16.284  36.325  14.548
74071W        W42465  15.067  17.690  10.760
74072W        W42466  38.913  26.921   1.349
74073W        W42467  26.822  37.406  14.145
74074W        W42468  33.445  33.029   1.684
74075W        W42469  27.925   0.912   2.117
74076W        W42470   2.474  13.802  14.422
74077W        W42471   9.888  36.487  14.865
74078W        W42472   8.340  37.825   4.511
74079W        W42473   6.088  44.903   1.802
74080W        W42474   2.962  29.651   3.799
74081W        W42475  22.400  34.913  12.136
74082W        W42476   6.276  39.406  10.699
74083W        W42477  42.929  16.381   2.930
74084W        W42478  25.600  33.041   0.754
74085W        W42479  40.478  11.370   4.911
74086W        W42480  10.749  32.861  11.161
74087W        W42481   8.606  19.215  13.868
74088W        W42482  16.174  25.950   2.856
74089W        W42483  36.592  44.120   4.139
74090W        W42484  41.108  13.644   4.393
74091W        W42485  30.825  13.669  14.513
74092W        W42486  24.125  27.754  13.811
74093W        W42487  17.133  14.103  13.853
74094W        W42488  27.960  22.620  14.746
74095W        W42489   7.224  38.050  10.691
74096W        W42490  40.201  44.626  10.132
74097W        W42491  39.478  28.720  10.629
74098W        W42492  15.535  22.077  14.550
74099W        W42493  43.567   5.963   1.419
74100W        W42494   8.756  18.656   5.042
74101W        W42495   0.876  30.479  11.660
74102W        W42496  33.976  25.009  10.579
74103W        W42497  24.079   7.116  12.963
74104W        W42498   1.682   7.714  13.646
74105W        W42499   8.092   7.244   2.799
74106W        W42500   5.329   9.858   0.430
74107W        W42501  36.006   0.528   4.088
74108W        W42502  27.581  12.748  13.698
74109W        W42503  17.694  16.089  14.850
74110W        W42504  33.002  11.301   3.838
74111W        W42505  25.862  35.180  11.012
74112W        W42506  24.034  12.372  13.020
74113W        W42507  20.183   1.436   3.592
74114W        W42508  37.825  10.141   3.565
74115W        W42509  24.949  26.551  14.987
74116W        W42510  32.295  12.181  13.050
74117W        W42511  42.053   2.608  10.907
74118W        W42512  44.865  38.564  10.741
74119W        W42513  39.474  10.154   4.219
74120W        W42514  28.414  33.415   0.425
74121W        W42515  33.377  23.769   2.694
74122W        W42516  42.861  34.925  11.078
74123W        W42517   0.325   8.587  12.211
74124W        W42518  12.738   0.970  14.800
74125W        W42519  29.961  33.820   3.665
74126W        W42520  11.430  38.539   4.188
74127W        W42521  37.852  18.738  12.601
74128W        W42522  14.184  43.349  13.918
74129W        W42523  42.036  28.579   0.046
74130W        W42524  39.822  11.477   2.694
74131W        W42525  39.460   3.712   2.432
74132W        W42526  36.532  25.257  14.364
74133W        W42527   0.003   7.273  13.051
74134W        W42528  42.256  18.190   0.797
74135W        W42529   8.429  29.879  11.319
74136W        W42530  20.754   1.360  14.036
74137W        W42531  15.245  15.115  12.870
74138W        W42532   9.369  35.876   3.252
74139W        W42533   2.765   5.017  10.602
74140W        W42534   1.092  34.479   0.358
74141W        W42535  23.602  21.781   0.902
74142W        W42536  30.596  38.883   3.759
74143W        W42537  34.767   5.467  14.299
74144W        W42538   4.674   0.713   2.191
74145W        W42539  10.091  25.098   5.003
74146W        W42540  35.766  14.317  13.425
74147W        W42541  28.460  15.224   2.258
74148W        W42542  41.931  13.848   2.275
74149W        W42543  33.008   6.237   0.440
74150W        W42544  22.587  31.614   1.324
74151W        W42545  30.416  40.864   0.959
74152W        W42546   2.893  31.680  12.897
74153W        W42547  21.538  25.514   1.316
74154W        W42548  44.971  12.237   4.537
74155W        W42549  14.646  13.892  11.606
74156W        W42550  23.466  12.870   3.263
74157W        W42551  21.080   8.846   0.014
74158W        W42552   3.275  42.810   9.995
74159W        W42553  11.790   7.803  14.464
74160W        W42554   1.885  24.779  13.353
74161W        W42555  23.958  41.582   0.419
74162W        W42556   0.980   4.834  12.421
74163W        W42557   0.677   2.927   2.129
74164W        W42558  23.314  23.457   2.319
74165W        W42559  29.495  31.711  11.919
74166W        W42560  20.999   8.155   2.932
74167W        W42561   8.364  10.410  11.205
74168W        W42562  43.161  42.999   4.642
74169W        W42563  34.277   7.929  11.705
74170W        W42564  20.045   2.371   2.754
74171W        W42565   5.150  27.094   5.421
74172W        W42566   1.774  30.523  11.243
74173W        W42567  43.821  22.047  12.415
74174W        W42568   6.584  14.137  11.594
74175W        W42569  22.624   2.198   3.305
74176W        W42570   0.726  36.849   9.791
74177W        W42571  14.329  28.661   0.421
74178W        W42572  38.924   4.928   2.183
74179W        W42573   7.695   5.395  14.508
74180W        W42574  32.412  33.654   0.831
74181W        W42575  37.571   0.461   0.818
74182W        W42576  14.857  38.798  14.034
74183W        W42577  40.206  17.008  11.954
74184W        W42578  39.072  31.144   3.103
74185W        W42579  35.523  11.285  14.539
74186W        W42580  19.740  12.348  12.906
74187W        W42581  31.385  11.573   1.645
74188W        W42582  19.985  22.024   4.431
74189W        W42583  24.252   6.859   1.737
74190W        W42584   5.147  41.176   4.851
74191W        W42585  40.427  27.487  11.950
74192W        W42586  13.227   2.798   4.649
74193W        W42587   7.682  38.658  14.802
74194W        W42588  40.013  39.088  13.748
74195W        W42589   7.103  15.418   0.881
74196W        W42590  24.400   3.485  12.379
74197W        W42591   5.072  20.502   0.848
74198W        W42592  20.217  32.447   1.328
74199W        W42593   2.712  23.146  12.004
74200W        W42594  34.078  40.751   1.068
74201W        W42595  40.551  14.723   4.862
74202W        W42596  31.882  25.807   1.588
74203W        W42597  40.891  33.523   1.180
74204W        W42598  36.381  21.782  13.431
74205W        W42599  23.092  28.480   4.149
74206W        W42600  41.443   4.844   4.108
74207W        W42601  29.748   1.780   2.789
74208W        W42602  37.336   0.906  13.559
74209W        W42603   3.002  42.299   4.016
74210W        W42604  40.005   8.462  14.911
74211W        W42605  30.192  31.615   1.846
74212W        W42606  32.113   0.335   4.778
74213W        W42607  21.438  34.815  13.728
74214W        W42608  43.333   8.919   3.039
74215W        W42609   0.838  27.179   2.132
74216W        W42610  22.553  34.910   1.375
74217W        W42611  22.022   3.785   3.624
74218W        W42612  12.245  15.326   2.720
74219W        W42613  10.378  11.653   2.595
74220W        W42614  36.295   5.223   0.875
74221W        W42615   9.308  30.040   3.503
74222W        W42616  41.317  26.517   2.597
74223W        W42617  10.190  38.112  10.767
74224W        W42618   3.690   3.183   9.913
74225W        W42619   1.209  42.208  12.329
74226W        W42620  13.895   3.207  13.714
74227W        W42621  16.313  19.519  12.077
74228W        W42622  12.308  18.174  14.508
74229W        W42623   4.940  33.110  12.391
74230W        W42624  32.467  40.225   3.062
74231W        W42625   9.875  41.386   1.879
74232W        W42626  19.882   5.642   0.472
74233W        W42627  12.790  21.796  12.315
74234W        W42628  30.033  26.635  13.857
74235W        W42629   4.265  15.124   0.176
74236W        W42630  43.752  27.226  13.999
74237W        W42631   3.843  41.863  12.648
74238W        W42632  27.416  25.088   2.360
74239W        W42633  22.840   5.257  12.566
74240W        W42634  11.861  12.105   3.921
74241W        W42635  27.858  25.337  10.711
74242W        W42636  26.467  25.472   0.829
74243W        W42637   9.881  19.243  10.648
74244W        W42638  36.097  30.478  10.770
74245W        W42639  13.847  40.915   3.175
74246W        W42640  32.652  43.638   2.015
74247W        W42641   1.904  37.860  14.801
74248W        W42642  21.557   1.505   1.422
74249W        W42643   4.907  44.735  11.966
74250W        W42644  35.048  21.564   0.312
74251W        W42645  29.723  37.910   4.130
74252W        W42646   3.218  26.238   1.286
74253W        W42647  33.446  32.814   2.586
74254W        W42648  37.690  22.444  12.153
74255W        W42649  26.536  27.140   1.453
74256W        W42650  42.869  42.378  12.667
74257W        W42651   3.731  23.616   0.415
74258W        W42652  34.661  11.131   1.312
74259W        W42653  30.611   1.366  14.991
74260W        W42654  18.628  30.425  14.441
74261W        W42655  33.440  11.103   1.776
74262W        W42656  21.054  19.055  10.723
74263W        W42657  36.591  41.089   4.207
74264W        W42658  40.120  11.610  12.361
74265W        W42659  31.034   8.298   3.091
74266W        W42660  17.351  41.943  10.858
74267W        W42661  22.021  20.626   3.325
74268W        W42662  14.685   4.643  11.166
74269W        W42663  21.184  11.863   2.160
74270W        W42664  26.414   5.500  11.169
74271W        W42665  28.017  41.421  11.596
74272W        W42666   9.297  10.765   3.591
74273W        W42667  33.596  15.088   3.818
74274W        W42668   1.728  34.667  11.133
74275W        W42669  11.340  20.349   2.302
74276W        W42670  34.849  26.117  14.483
74277W        W42671  16.116  19.439  10.662
74278W        W42672  40.309   6.909   0.232
74279W        W42673  43.680  24.737   4.532
74280W        W42674  21.188  25.205   3.561
74281W        W42675  28.225  11.795   2.703
74282W        W42676  33.677   5.144  13.353
74283W        W42677   6.256  14.220  12.007
74284W        W42678  29.485  42.508  13.372
74285W        W42679   0.005  36.500  11.626
74286W        W42680   9.714  18.248  10.812
74287W        W42681  24.394  30.443   2.268
74288W        W42682  36.503  10.829   1.515
74289W        W42683   4.241  21.681   2.305
74290W        W42684  34.238  14.858   1.134
74291W        W42685  23.955  41.242  10.967
74292W        W42686  25.721  13.041  13.915
74293W        W42687  24.709   6.181   1.408
74294W        W42688  17.070  31.676  13.531
74295W        W42689  17.220  33.103   2.449
74296W        W42690  38.309  14.709  13.658
74297W        W42691  21.571   5.766   2.755
74298W        W42692  37.323  41.560  10.620
74299W        W42693  12.536  27.458  12.954
74300W        W42694  30.089   3.443  12.607
74301W        W42695  33.842  19.739   2.400
74302W        W42696   0.430  26.605  10.011
74303W        W42697  20.638  27.765   1.192
74304W        W42698  40.344  23.950   1.703
74305W        W42699  40.560  10.204   9.902
74306W        W42700  33.632  35.539   1.810
74307W        W42701  31.619  43.561  10.674
74308W        W42702  40.028  19.852  12.491
74309W        W42703  12.843   4.782  13.845
74310W        W42704  36.836  20.637  14.353
74311W        W42705  18.908  20.260  13.584
74312W        W42706  31.019  18.695   0.960
74313W        W42707  43.934  41.923  13.058
74314W        W42708   1.473  34.102   2.728
74315W        W42709  34.968  19.381  12.609
74316W        W42710  31.283  16.025   3.818
74317W        W42711  23.211   6.617   4.075
74318W        W42712   5.361   3.350  13.509
74319W        W42713  20.261   2.924  14.316
74320W        W42714   3.660  33.220   4.199
74321W        W42715  19.635  16.675  13.528
74322W        W42716  15.114  19.048   2.802
74323W        W42717  29.885  20.134  10.533
74324W        W42718  35.505   8.080  13.345
74325W        W42719   1.020   1.299   4.321
74326W        W42720  36.979  42.854  12.099
74327W        W42721  37.465   0.474   2.301
74328W        W42722  38.565   1.423   0.634
74329W        W42723  29.111   3.327  12.408
74330W        W42724  10.369  10.209   2.269
74331W        W42725   3.706  15.204   0.706
74332W        W42726  27.617  38.531   2.670
74333W        W42727  19.334  22.638  13.492
74334W        W42728   0.292  25.636   3.295
74335W        W42729  31.955   7.147  11.625
74336W        W42730  40.409  16.073  14.908
74337W        W42731  30.756  37.960  12.495
74338W        W42732  18.637  18.838  11.238
74339W        W42733  25.621  15.575   1.413
74340W        W42734   0.407   6.120   4.279
74341W        W42735  31.937   1.242  14.053
74342W        W42736  25.942  28.645   4.646
74343W        W42737  14.137  35.540   1.647
74344W        W42738  10.285  20.760   3.720
74345W        W42739  42.916  34.939  14.876
74346W        W42740  28.063  39.367  10.620
74347W        W42741   3.558  10.601  11.839
74348W        W42742  18.940  33.061  14.047
74349W        W42743  41.290  40.545   5.070
74350W        W42744  25.001  12.743  13.776
74351W        W42745  15.297  19.012  10.697
74352W        W42746  16.189  37.342  12.130
74353W        W42747   9.295  16.248  12.964
74354W        W42748  23.973  20.315   2.669
74355W        W42749  28.453  10.922  14.897
74356W        W42750  22.286   7.567  12.763
74357W        W42751  22.913   2.840  13.605
74358W        W42752  26.676   1.393   3.327
74359W        W42753   8.387  15.106   1.354
74360W        W42754  41.319  37.448  14.417
74361W        W42755  36.316  25.079   3.552
74362W        W42756   8.613   1.070   1.675
74363W        W42757  25.452   8.660   0.779
74364W        W42758  41.317  30.946   0.214
74365W        W42759  32.824  24.655   1.843
74366W        W42760  40.460  22.563   0.115
74367W        W42761  21.678  36.019   4.519
74368W        W42762  17.867  40.265  10.711
74369W        W42763  27.020  28.070   2.807
74370W        W42764   0.200  32.971  12.933
74371W        W42765  22.694  14.446   2.773
74372W        W42766  13.728  12.210  14.500
74373W        W42767  30.377  42.743   2.808
74374W        W42768  43.318  42.545   2.828
74375W        W42769   8.949  41.278   2.236
74376W        W42770   1.868  24.245   3.711
74377W        W42771  32.567   9.309  10.444
74378W        W42772   3.425  34.086  14.317
74379W        W42773   6.291   4.611   2.876
74380W        W42774  29.009  25.013  13.543
74381W        W42775   7.395  28.017   2.621
74382W        W42776  27.220   0.938   1.329
74383W        W42777  14.615  13.528   1.765
74384W        W42778  27.472  40.826  14.889
74385W        W42779  18.083  43.478   1.832
74386W        W42780  41.543  24.601   0.335
74387W        W42781  12.546  22.035  13.432
74388W        W42782  38.891  22.267   2.376
74389W        W42783  23.322  38.369  12.446
74390W        W42784  27.934   0.432  12.547
74391W        W42785  11.108  24.100   2.342
74392W        W42786  17.726  31.328  13.033
74393W        W42787   2.667  12.235  11.683
74394W        W42788  34.653   1.506  13.346
74395W        W42789   6.909  23.180  12.377
74396W        W42790  14.271   4.012   2.852
74397W        W42791  15.557  40.077   0.093
74398W        W42792  21.299  13.900  14.890
74399W        W42793  36.378  32.850  13.152
74400W        W42794  30.463  17.501  13.524
74401W        W42795  15.177   1.494   4.732
74402W        W42796  14.470   9.442   4.947
74403W        W42797   1.473  33.466   1.401
74404W        W42798  25.597  18.662   2.899
74405W        W42799  41.518  21.748  12.667
74406W        W42800   6.680  14.578   0.502
74407W        W42801  30.584   6.483   4.035
74408W        W42802   7.681  41.631   9.792
74409W        W42803  42.312   7.635  12.875
74410W        W42804  37.613   2.863  13.933
74411W        W42805   4.521  22.612   0.834
74412W        W42806   4.768  41.294  13.089
74413W        W42807  25.001  44.279   0.751
74414W        W42808   8.133   8.337   3.595
74415W        W42809  28.545  22.194   4.531
74416W        W42810  13.307  27.677   0.810
74417W        W42811  28.629  26.132   4.013
74418W        W42812  21.155  20.618  11.963
74419W        W42813  43.088  21.957  12.925
74420W        W42814  11.379   2.263   2.400
74421W        W42815  10.784  35.853  13.869
74422W        W42816  23.062   7.450  11.054
74423W        W42817  22.533  20.135  12.824
74424W        W42818  23.691  11.819   3.519
74425W        W42819  29.425  20.004  13.466
74426W        W42820   0.451   2.155  14.357
74427W        W42821  31.496   2.740  14.471
74428W        W42822  42.166   8.504  11.951
74429W        W42823  29.726  27.482   2.774
74430W        W42824  25.256  42.361  12.493
74431W        W42825  18.617  36.320   2.783
74432W        W42826   1.689  17.438   0.989
74433W        W42827   4.119  28.069   3.153
74434W        W42828  34.602  17.128  13.499
74435W        W42829  38.489  16.761   2.256
74436W        W42830  43.979  15.793  14.540
74437W        W42831   2.925  36.582  14.331
74438W        W42832  16.864  13.358  11.596
74439W        W42833  18.646  39.114   3.135
74440W        W42834  31.063  26.184  14.294
74441W        W42835   3.893   5.022   0.833
74442W        W42836  13.205   9.814   4.161
74443W        W42837  38.012  21.651   1.348
74444W        W42838  27.176  36.002   4.408
74445W        W42839  25.628   7.446  13.949
74446W        W42840  44.858   1.814   3.265
74447W        W42841  12.940   0.890  12.460
74448W        W42842  30.560  30.592   2.269
74449W        W42843  35.886  19.943  12.508
74450W        W42844   7.175  34.589  14.314
74451W        W42845  42.041  19.218   1.317
74452W        W42846   3.570  32.369   3.345
74453W        W42847  23.172  34.484   4.083
74454W        W42848  44.716  33.593  14.365
74455W        W42849  35.572  14.935   0.459
74456W        W42850  26.775  20.267   0.229
74457W        W42851  26.189  33.583   2.619
74458W        W42852  19.585  44.439   4.187
74459W        W42853  33.903  24.581  11.148
74460W        W42854   4.759   6.602   3.783
74461W        W42855  12.903   8.830   1.449
74462W        W42856   9.604   7.918  13.860
74463W        W42857   0.792  42.544  12.166
74464W        W42858  33.660  35.322  11.142
74465W        W42859  39.609  36.782   2.352
74466W        W42860   6.863  15.744  13.168
74467W        W42861   9.844  22.636  13.471
74468W        W42862  28.636  42.333   3.133
74469W        W42863  27.336  22.221   0.938
74470W        W42864  22.504  12.451  12.451
74471W        W42865   3.272  23.229   3.542
74472W        W42866  38.852  28.774   2.438
74473W        W42867  37.441  17.790   0.374
74474W        W42868   8.451  35.491  12.493
74475W        W42869  24.116  11.999  10.361
74476W        W42870  30.908  38.210   4.039
74477W        W42871  43.113   1.851   3.950
74478W        W42872  31.922  16.801   2.814
74479W        W42873  14.595  13.181   2.654
74480W        W42874  36.031   9.949   4.999
74481W        W42875  22.322  37.655   2.641
74482W        W42876  30.537   2.441   0.702
74483W        W42877   9.812  35.080   4.365
74484W        W42878  12.980  15.227  12.612
74485W        W42879   3.641  24.681   4.463
74486W        W42880   7.176  31.561   3.074
74487W        W42881  39.517  18.166   0.762
74488W        W42882  23.782   7.629   2.315
74489W        W42883  12.705  35.728   1.791
74490W        W42884   0.870  32.488  12.891
74491W        W42885  40.050  40.328   1.847
74492W        W42886  16.808   2.168  11.076
74493W        W42887  20.753   2.640   3.031
74494W        W42888  27.841  30.453  14.987
74495W        W42889  25.234  24.004   0.076
74496W        W42890  13.343  11.257  14.269
74497W        W42891  41.401   5.229  12.421
74498W        W42892  44.257  23.936  10.172
74499W        W42893  28.084  43.195   5.468
74500W        W42894   6.200  13.878  10.671
74501W        W42895  26.511  39.861   2.667
74502W        W42896   8.285   0.715   2.325
74503W        W42897  41.905  36.202  10.384
74504W        W42898  36.501  34.671   3.319
74505W        W42899   6.641   2.168   3.634
74506W        W42900   4.875  15.549   4.563
74507W        W42901  31.392  13.097   1.848
74508W        W42902  43.844  12.802   3.514
74509W        W42903  31.163  18.357  11.099
74510W        W42904  17.292   3.045   0.990
74511W        W42905  37.537  10.827  14.945
74512W        W42906  15.370  13.121   0.791
74513W        W42907  17.297  26.508   4.185
74514W        W42908  32.177  18.679  12.673
74515W        W42909  27.915  41.354   1.316
74516W        W42910  36.973  17.689   4.288
74517W        W42911  27.994  23.131  14.590
74518W        W42912  15.450  26.066  13.506
74519W        W42913  22.962  41.632   0.544
74520W        W42914   5.484  10.815  11.059
74521W        W42915   7.807  43.891  10.690
74522W        W42916  37.221  32.368  12.411
74523W        W42917  31.927   1.751   3.807
74524W        W42918  16.834  16.842  14.071
74525W        W42919  20.181  32.884   2.448
74526W        W42920  16.369   8.187   4.266
74527W        W42921   0.848  20.218   1.879
74528W        W42922  18.156  36.875  11.125
74529W        W42923  38.557   3.603  12.088
74530W        W42924  22.460   2.547  11.037
74531W        W42925  31.169   2.446  13.524
74532W        W42926  14.595   3.272   1.121
74533W        W42927  16.579  11.303  11.956
74534W        W42928   4.689   4.828   1.352
74535W        W42929  42.881   1.465  12.571
74536W        W42930   8.133   3.243   1.393
74537W        W42931  28.901  12.711  14.091
74538W        W42932   0.341  19.894  10.785
74539W        W42933  11.168  40.105   0.483
74540W        W42934  39.275   5.198  12.468
74541W        W42935  36.611  29.047   3.031
74542W        W42936  14.365  10.814   4.641
74543W        W42937  41.894  27.665   2.953
74544W        W42938  27.329  16.326  11.965
74545W        W42939  20.665  12.615   1.668
74546W        W42940   0.790  39.848   4.711
74547W        W42941  21.749  26.992   2.114
74548W        W42942  29.943  16.402  11.513
74549W        W42943  15.293  25.669   4.280
74550W        W42944   0.359  36.359  13.840
74551W        W42945  23.703  10.649  13.069
74552W        W42946  17.353  36.475   9.737
74553W        W42947   2.866  16.727   2.770
74554W        W42948  32.532  33.623   0.319
74555W        W42949  33.688  10.829  12.077
74556W        W42950  28.390  32.100  14.369
74557W        W42951  29.683  29.919   0.393
74558W        W42952  20.029  34.246   3.768
74559W        W42953  28.135  40.370   3.268
74560W        W42954   4.143  35.014  14.897
74561W        W42955   5.643  31.441  11.192
74562W        W42956  30.056  14.257   2.354
74563W        W42957  16.575   3.505   3.211
74564W        W42958  17.551  24.216  14.302
74565W        W42959  40.460  25.765  11.533
74566W        W42960  33.856  37.942   3.562
74567W        W42961  12.101  13.882   3.130
74568W        W42962   6.340  44.510  12.059
74569W        W42963  20.275  31.100   1.886
74570W        W42964  41.862  32.089   1.159
74571W        W42965  12.519   4.995   0.958
74572W        W42966  28.268  42.961  10.201
74573W        W42967  20.976  37.590  14.305
74574W        W42968  37.780  29.986   1.444
74575W        W42969  31.802  42.971  11.940
74576W        W42970  13.113  27.690  13.646
74577W        W42971   0.187  12.244  14.921
74578W        W42972  31.788  24.135  11.149
74579W        W42973  22.954   1.856   5.090
74580W        W42974  14.838  34.528   1.891
74581W        W42975  30.299  14.844   3.865
74582W        W42976  31.444  23.561  10.507
74583W        W42977  16.228  19.824   2.585
74584W        W42978   2.715  29.995   2.597
74585W        W42979  26.971  15.344   0.440
74586W        W42980  44.305   9.695   4.549
74587W        W42981   3.282   1.517  11.163
74588W        W42982  42.279  17.768  10.889
74589W        W42983  23.669   9.768  10.493
74590W        W42984   7.968  36.536   0.321
74591W        W42985  34.187  43.805  11.488
74592W        W42986  32.091  17.133  12.871
74593W        W42987  14.133   2.590  14.442
74594W        W42988  22.027  25.583   2.190
74595W        W42989   1.886  37.561   2.205
74596W        W42990  41.022   0.788  14.529
74597W        W42991  32.292  17.736   0.901
74598W        W42992  12.759  31.113   4.002
74599W        W42993  44.100   3.398  11.387
74600W        W42994  44.967  27.249  12.159
74601W        W42995  17.215  12.401  12.402
74602W        W42996  19.302  12.113  13.796
74603W        W42997   3.368  16.790   1.502
74604W        W42998  39.785  32.535   4.054
74605W        W42999   7.705   4.285  11.614
74606W        W43000  25.392  18.754   0.539
74607W        W43001  10.736   5.366  13.029
74608W        W43002  20.058  13.301   1.410
74609W        W43003   3.826  27.299  13.188
74610W        W43004  26.045  26.746   4.134
74611W        W43005  21.524  26.071   3.219
74612W        W43006   7.853  38.415  10.746
74613W        W43007  14.335  22.050  12.940
74614W        W43008  19.248  25.663  13.405
74615W        W43009  18.199  17.052  10.755
74616W        W43010  14.598  42.393  11.121
74617W        W43011  44.939  40.303  10.865
74618W        W43012  36.869  15.764  14.504
74619W        W43013  38.923  41.816  10.494
74620W        W43014  22.836  16.392   0.259
74621W        W43015  25.139  23.197  14.852
74622W        W43016  34.457  11.825   3.605
74623W        W43017  10.632   0.837   4.206
74624W        W43018  30.047  25.098   3.357
74625W        W43019  28.171  33.802  12.456
74626W        W43020  44.774   9.364   4.331
74627W        W43021   4.602  37.505   2.597
74628W        W43022  39.586  17.762  13.967
74629W        W43023   4.693   3.594  12.410
74630W        W43024  11.587  12.288   4.942
74631W        W43025  22.894  14.063  14.646
74632W        W43026  31.561  10.381   2.671
74633W        W43027  25.849   0.874   3.600
74634W        W43028  21.276   7.771   4.612
74635W        W43029  16.735  29.879   4.674
74636W        W43030  16.563  15.148   4.387
74637W        W43031  14.735  14.215   2.424
74638W        W43032  41.015  41.345   1.011
74639W        W43033  41.378  26.165  11.435
74640W        W43034   2.239  44.899  12.021
74641W        W43035  27.860  43.984   2.112
74642W        W43036  42.545  40.299  13.451
74643W        W43037  30.538  34.078   4.800
74644W        W43038  44.717  26.622   1.837
74645W        W43039   5.764  26.143  13.967
74646W        W43040  14.746  37.807  13.955
74647W        W43041   5.167  12.695   1.967
74648W        W43042  17.769  17.995  13.054
74649W        W43043  27.170  31.399   1.374
74650W        W43044  15.796   8.588  11.609
74651W        W43045  41.999  39.137   3.789
74652W        W43046  25.190  18.437  14.836
74653W        W43047  31.824  29.101  11.610
74654W        W43048  31.634  14.112  14.787
74655W        W43049   3.968  29.980   3.800
74656W        W43050   0.226   8.442   2.591
74657W        W43051  29.398  28.946   4.548
74658W        W43052  38.292  32.357   4.793
74659W        W43053  21.259  35.106  12.473
74660W        W43054   0.242  33.039  11.465
74661W        W43055   9.475  30.243  13.522
74662W        W43056   9.829  31.133   0.928
74663W        W43057  26.478  27.389  12.474
74664W        W43058  12.768  28.554   4.842
74665W        W43059   5.201   4.888   1.352
74666W        W43060  11.627  35.103  11.476
74667W        W43061  36.329   9.801   0.346
74668W        W43062  30.143  38.322   1.402
74669W        W43063   5.000  14.569  13.820
74670W        W43064  21.668  30.413  11.106
74671W        W43065  31.098  42.419  14.788
74672W        W43066  39.489  30.421  11.205
74673W        W43067  18.571  31.028   0.898
74674W        W43068   2.236  34.082  13.138
74675W        W43069  44.393   0.506  14.061
74676W        W43070  24.382  19.664  13.044
74677W        W43071   8.403  23.404   4.515
74678W        W43072   6.692   7.851   2.824
74679W        W43073  18.442   4.680   2.241
74680W        W43074  42.799   6.691   3.343
74681W        W43075  29.456  36.559  11.723
74682W        W43076   0.029  33.567  10.910
74683W        W43077  12.182   6.283   2.568
74684W        W43078  42.898  28.610   2.722
74685W        W43079  24.977  15.679  12.084
74686W        W43080   8.185   1.507   3.603
74687W        W43081  24.281   6.641  12.055
74688W        W43082   3.386  25.000   1.903
74689W        W43083  42.155  17.407  10.147
74690W        W43084  12.645  20.525  14.035
74691W        W43085  25.646  42.340  14.947
74692W        W43086  25.377  36.887   2.710
74693W        W43087  31.933  28.182  10.680
74694W        W43088   5.762   0.578   2.989
74695W        W43089   6.018  39.148   3.187
74696W        W43090  23.631  36.908   0.995
74697W        W43091  27.036  34.472  13.544
74698W        W43092  44.129  11.951  12.860
74699W        W43093   4.234  25.071  14.971
74700W        W43094  35.971   1.351   1.769
74701W        W43095  18.335  24.082   0.740
74702W        W43096   3.376  33.038   4.607
74703W        W43097  41.521  35.517  12.327
74704W        W43098  10.279  43.037  14.323
74705W        W43099   3.916  13.077  14.013
74706W        W43100  41.230  20.105  10.850
74707W        W43101  24.938  24.916   2.529
74708W        W43102  23.330  22.120   2.753
74709W        W43103   3.237  27.001   0.337
74710W        W43104  42.864  12.559  13.365
74711W        W43105  13.538   8.429   3.763
74712W        W43106  11.125  27.864  14.070
74713W        W43107  24.041  34.038   2.628
74714W        W43108  24.437  21.093   4.532
74715W        W43109  43.298  41.376   3.229
74716W        W43110  24.159  38.506   1.434
74717W        W43111  15.063  25.685  12.024
74718W        W43112  10.300   4.172  12.622
74719W        W43113   5.667  27.907   1.801
74720W        W43114  36.402  44.257  12.399
74721W        W43115  40.254  21.437  11.619
74722W        W43116  39.103  32.587  14.885
74723W        W43117  44.575  30.418  10.541
74724W        W43118  39.555  30.132  12.547
74725W        W43119  21.974  18.003   0.007
74726W        W43120  16.195  25.757  12.542
74727W        W43121  30.130  27.694   0.865
74728W        W43122  35.028  21.181   2.555
74729W        W43123  36.551   3.801   4.499
74730W        W43124   2.488  21.170   3.575
74731W        W43125  30.187  10.707   0.082
74732W        W43126  25.633  11.991  13.873
74733W        W43127  10.595  15.123   0.025
74734W        W43128  23.334  20.459  10.718
74735W        W43129  16.684  12.351   3.209
74736W        W43130  15.605   8.872  11.219
74737W        W43131   3.844   1.822  11.775
74738W        W43132   4.324  17.079  14.863
74739W        W43133  29.724  26.413   0.507
74740W        W43134  23.994  29.818  11.090
74741W        W43135  17.559   8.316  14.927
74742W        W43136  43.554  20.054  13.916
74743W        W43137   1.230   9.678   1.214
74744W        W43138  26.722  36.897   3.160
74745W        W43139  14.182  33.931  11.161
74746W        W43140   8.764  27.016  13.206
74747W        W43141   4.830  39.681  12.208
74748W        W43142  28.562   0.816  14.308
74749W        W43143   2.684  39.019  11.534
74750W        W43144  43.421  19.815  11.212
74751W        W43145  42.764  42.488  14.881
74752W        W43146   8.616  19.659  11.616
74753W        W43147  13.816   9.938  11.408
74754W        W43148  10.444   6.372   3.113
74755W        W43149  20.575  15.672   4.361
74756W        W43150  41.097  43.851  13.359
74757W        W43151  39.045  34.516   4.320
74758W        W43152   4.220  21.603  11.800
74759W        W43153  39.867  44.469   4.083
74760W        W43154  35.116  13.085   0.562
74761W        W43155  42.829   2.205   2.174
74762W        W43156  24.856  36.440   4.134
74763W        W43157  36.098  19.810  11.247
74764W        W43158  37.062  29.709   0.394
74765W        W43159  10.769  41.108   4.517
74766W        W43160   3.260  20.078  12.906
74767W        W43161   4.417  11.208   2.894
74768W        W43162  34.491  10.920   3.917
74769W        W43163  32.613   2.958   0.144
74770W        W43164  12.893  12.164   3.802
74771W        W43165  37.563  41.506   0.505
74772W        W43166   3.696  36.040   4.152
74773W        W43167  38.903  18.723  14.920
74774W        W43168  25.638  37.966   3.326
74775W        W43169  19.660  10.874  13.468
74776W        W43170  22.764  23.693  13.048
74777W        W43171  44.348   5.241  14.843
74778W        W43172  42.217  44.588   4.503
74779W        W43173  24.368   5.843  13.588
74780W        W43174  35.105  40.910  11.963
74781W        W43175  14.412  39.043  13.963
74782W        W43176  25.750  27.080  12.895
74783W        W43177  34.521  42.774   3.906
74784W        W43178  10.580  37.673   3.749
74785W        W43179   2.614  26.908  14.866
74786W        W43180  13.594  20.991   1.908
74787W        W43181  29.911   7.905   0.263
74788W        W43182  43.857  17.168   0.336
74789W        W43183  13.202  38.119   3.242
74790W        W43184  42.604  13.234   1.824
74791W        W43185  42.524   0.318  12.523
74792W        W43186  19.842  38.140  11.963
74793W        W43187  28.004   4.469  13.404
74794W        W43188   9.693  28.313  14.520
74795W        W43189  20.325  25.117  10.269
74796W        W43190  25.424  17.966   4.075
74797W        W43191  33.776   2.736   1.779
74798W        W43192  27.036  32.713  13.311
74799W        W43193  40.064  40.271  12.196
74800W        W43194  13.800   7.403   3.649
74801W        W43195  11.239  21.053   1.783
74802W        W43196  34.996  41.993  14.781
74803W        W43197  37.733  32.654  11.645
74804W        W43198  19.635  15.784   4.140
74805W        W43199  13.811   1.139  10.631
74806W        W43200  19.293  19.853   3.660
74807W        W43201   6.700   8.323  12.232
74808W        W43202  27.473  30.906  11.977
74809W        W43203  34.415  26.928  11.313
74810W        W43204   4.971  40.983  11.351
74811W        W43205  22.339   2.644  11.636
74812W        W43206   4.876  12.696  10.818
74813W        W43207  29.608  36.457   3.819
74814W        W43208  12.444  19.510   3.632
74815W        W43209  37.071   2.447   3.424
74816W        W43210  30.446   7.980   4.218
74817W        W43211  10.336   8.344  14.398
74818W        W43212  29.867  38.194   0.015
74819W        W43213  18.115  31.880  12.966
74820W        W43214  38.029  43.120  11.151
74821W        W43215   1.323  43.839   0.400
74822W        W43216  26.097   0.515   2.293
74823W        W43217  44.695  23.730   2.292
74824W        W43218  18.791  41.813   9.964
74825W        W43219  28.247  17.840  10.304
74826W        W43220  33.254  39.877  10.542
74827W        W43221  20.536   4.544   1.287
74828W        W43222  13.245  32.161  13.479
74829W        W43223  21.730  14.027   1.361
74830W        W43224  35.826   9.857  12.753
74831W        W43225  37.752  14.352   2.074
74832W        W43226  40.277  41.919   4.536
74833W        W43227  12.892  26.196   2.118
74834W        W43228  36.018   5.846  10.854
74835W        W43229  15.317  12.389  12.500
74836W        W43230  12.608  12.525   4.071
74837W        W43231   2.678   1.848   4.580
74838W        W43232  20.540  27.678   3.642
74839W        W43233   4.365  35.582  11.400
74840W        W43234  17.583  28.968   0.211
74841W        W43235  41.532   4.211   0.496
74842W        W43236   6.343  19.329   1.739
74843W        W43237   0.588  27.644   1.238
74844W        W43238  40.459  29.563   4.499
74845W        W43239  13.582  17.763   0.064
74846W        W43240  22.567  28.370   5.424
74847W        W43241  39.375   0.931  10.755
74848W        W43242  30.758  35.508  11.646
74849W        W43243  22.033  40.681   4.680
74850W        W43244  40.477   3.886  12.044
74851W        W43245   4.097  32.634   2.643
74852W        W43246  29.592  22.435   4.667
74853W        W43247   6.588  33.503  10.235
74854W        W43248   1.666   7.179   2.784
74855W        W43249  39.981  20.630   1.696
74856W        W43250  37.409  25.337  11.009
74857W        W43251   8.195   3.628   3.613
74858W        W43252  25.423  35.745  13.857
74859W        W43253   1.966  11.276   0.305
74860W        W43254  30.453   5.400  13.103
74861W        W43255   3.015   1.110   0.782
74862W        W43256   4.175  37.300   5.005
74863W        W43257  43.180  42.470  11.712
74864W        W43258  35.666   0.910   1.852
74865W        W43259   9.661   8.910  13.842
74866W        W43260  26.609   1.556   2.802
74867W        W43261  31.638  38.424  14.943
74868W        W43262  32.444  19.428  11.609
74869W        W43263   0.739  12.351   1.182
74870W        W43264  33.618  33.098   1.207
74871W        W43265   2.004  40.216  13.987
74872W        W43266  17.143  20.070   5.088
74873W        W43267  21.945   3.321   2.228
74874W        W43268  23.690  36.413   1.205
74875W        W43269   8.282  35.480  13.360
74876W        W43270  33.598  28.562  13.664
74877W        W43271  15.860  23.745  14.311
74878W        W43272  44.429  13.432   0.212
74879W        W43273  27.483  10.368   4.105
74880W        W43274  12.283  33.663  11.994
74881W        W43275   1.543   0.318   0.741
74882W        W43276  40.243  34.837   5.041
74883W        W43277   9.782  12.802  10.703
74884W        W43278  24.031  13.665  10.255
74885W        W43279  34.572  15.615   1.060
74886W        W43280   7.125  22.526  14.985
74887W        W43281  28.505   3.434   3.090
74888W        W43282  34.075  30.354   0.423
74889W        W43283  22.156   9.710  14.708
74890W        W43284  10.327  35.627  13.802
74891W        W43285   0.740  13.127   3.678
74892W        W43286  31.167   9.686   0.368
74893W        W43287  25.605  32.065  13.958
74894W        W43288  14.987  14.268   1.982
74895W        W43289  44.043  20.519  12.950
74896W        W43290  10.741  24.372  11.919
74897W        W43291  24.955  40.287  11.192
74898W        W43292  16.349   7.539   5.441
74899W        W43293  20.348  32.987  10.620
74900W        W43294  41.703  38.109   0.013
74901W        W43295   1.662  33.429   3.643
74902W        W43296   4.396   2.799   3.372
74903W        W43297  41.022  23.647  11.023
74904W        W43298  35.513   7.694   4.364
74905W        W43299  16.860  42.357  13.475
74906W        W43300  36.908  40.128   2.192
74907W        W43301  33.607  37.771   2.978
74908W        W43302  33.133  42.579  12.015
74909W        W43303  14.806  41.427   3.486
74910W        W43304  24.821  35.983  11.114
74911W        W43305  15.295  35.847   0.920
74912W        W43306  43.797  16.359   4.355
74913W        W43307   7.321   1.172  13.838
74914W        W43308  37.223   9.247  13.457
74915W        W43309  16.523   0.869   2.766
74916W        W43310  42.468  35.238  14.296
74917W        W43311  43.384  33.482  12.874
74918W        W43312  22.846  19.005   2.769
74919W        W43313  18.589  33.354  11.066
74920W        W43314  12.305  23.697   4.218
74921W        W43315  39.033  44.439  10.719
74922W        W43316   2.411   4.774  11.776
74923W        W43317  20.639  19.981  13.977
74924W        W43318  30.844   5.785  13.411
74925W        W43319  31.191   9.940  11.540
74926W        W43320  17.003   2.038  10.279
74927W        W43321   2.622   8.886  12.164
74928W        W43322  15.848  42.722   4.170
74929W        W43323   6.431  17.529  12.532
74930W        W43324  21.168  44.530   4.157
74931W        W43325   2.661   2.833   2.327
74932W        W43326  35.887  11.327   2.745
74933W        W43327  15.633  23.144  12.188
74934W        W43328  18.892  35.871   4.967
74935W        W43329  14.585   7.863  14.711
74936W        W43330   0.043  15.351   4.435
74937W        W43331  16.224  17.128  12.135
74938W        W43332   1.051  30.409   3.728
74939W        W43333  12.408  44.273   1.772
74940W        W43334  21.788  34.484  11.640
74941W        W43335  21.768  19.616  11.935
74942W        W43336  18.586  37.340   2.755
74943W        W43337  12.611  16.547  11.235
74944W        W43338   5.958  13.780  11.167
74945W        W43339  28.651  37.363  14.900
74946W        W43340  38.016  10.219  10.700
74947W        W43341  27.989   2.769   5.040
74948W        W43342  31.140  26.674  10.569
74949W        W43343   1.847  37.512   0.203
74950W        W43344   5.632  29.846   0.609
74951W        W43345  16.300   0.756  12.522
74952W        W43346  11.418   3.448  14.646
74953W        W43347  37.479  43.618  13.921
74954W        W43348  12.368  30.936  14.136
74955W        W43349  24.694   8.828  13.124
74956W        W43350  43.088  32.626  12.381
74957W        W43351   5.544  20.023  12.811
74958W        W43352  41.979   7.850   0.931
74959W        W43353  12.772  14.213  14.853
74960W        W43354  23.148  39.595   3.540
74961W        W43355  23.327  19.360   3.377
74962W        W43356   3.094  44.122   2.632
74963W        W43357  35.581  22.504  12.927
74964W        W43358   1.851  31.592  12.875
74965W        W43359  31.093   8.733  14.125
74966W        W43360  32.693  18.570  12.757
74967W        W43361  14.573  21.806   0.271
74968W        W43362  10.347  25.198   1.957
74969W        W43363  10.810  40.520  11.979
74970W        W43364  32.068  18.623   4.541
74971W        W43365  38.712  31.924  11.007
74972W        W43366  29.171  36.976  11.662
74973W        W43367   9.597  23.971   2.297
74974W        W43368  33.795  38.670  11.554
74975W        W43369  33.527  16.197  12.361
74976W        W43370  27.683  18.324   3.837
74977W        W43371  26.230   3.477  12.092
74978W        W43372   6.673  13.230  10.575
74979W        W43373   9.674  30.569   2.803
74980W        W43374  42.453  10.138  14.573
74981W        W43375  29.917  23.715   1.841
74982W        W43376  39.102  36.005   4.073
74983W        W43377  40.834   1.467   2.656
74984W        W43378  21.646  30.060   1.453
74985W        W43379  36.140  31.230  12.559
74986W        W43380  40.039  18.211  14.863
74987W        W43381  44.657  27.616   3.668
74988W        W43382  19.162  35.488   1.677
74989W        W43383  18.785  31.149   1.755
74990W        W43384   6.737  25.438  12.081
74991W        W43385  15.502  36.092  14.167
74992W        W43386  20.551  29.547  12.943
74993W        W43387   0.865  29.116  12.100
74994W        W43388  14.554  11.406  14.965
74995W        W43389  21.820  29.518   3.316
74996W        W43390  40.005  25.533   4.519
74997W        W43391  27.656  17.066   0.182
74998W        W43392  21.063  11.773  12.944
74999W        W43393   2.404  29.348   3.752
75000W        W43394  31.611  20.967  10.668
75001W        W43395  34.644  35.454  13.048
75002W        W43396  35.555  40.799   4.525
75003W        W43397  37.881   1.230   3.109
75004W        W43398  34.894  35.306  13.751
75005W        W43399  26.249  40.009  14.845
75006W        W43400  15.711  40.917  13.964
75007W        W43401   4.784  28.238  10.263
75008W        W43402  44.451  18.514   0.446
75009W        W43403  37.863  24.626  13.043
75010W        W43404   6.606  32.585  13.467
75011W        W43405  28.515  37.092   3.505
75012W        W43406  41.839  39.613  13.073
75013W        W43407  25.901  42.285  11.928
75014W        W43408   5.341  40.911   0.851
75015W        W43409  15.220  14.287   3.636
75016W        W43410  11.798  21.916  10.380
75017W        W43411   0.968   0.872  11.091
75018W        W43412  37.596  40.632   3.228
75019W        W43413  28.462  17.161   4.336
75020W        W43414  38.667   9.315   1.820
75021W        W43415  37.784  13.246   0.435
75022W        W43416  23.496  29.880  12.504
75023W        W43417  41.259   6.669  13.822
75024W        W43418   1.967   0.501   2.094
75025W        W43419  30.617  33.427   2.792
75026W        W43420  34.792  43.302  10.877
75027W        W43421  29.089  34.114  12.080
75028W        W43422  17.254  17.739   2.230
75029W        W43423  36.315  16.961   4.577
75030W        W43424  39.104  24.241  12.660
75031W        W43425  35.776   7.626  13.441
75032W        W43426  36.835   9.668   0.309
75033W        W43427   6.807   8.726  11.937
75034W        W43428   6.884   0.320   1.815
75035W        W43429   4.243  25.547   2.500
75036W        W43430   1.923  23.185   0.135
75037W        W43431   9.373  28.180   1.885
75038W        W43432   2.936   5.635  14.262
75039W        W43433  14.365  42.100   1.203
75040W        W43434  38.144  30.463   4.112
75041W        W43435   2.556  12.415  10.021
75042W        W43436  19.784  25.577   9.845
75043W        W43437  31.060  22.614  11.202
75044W        W43438  36.285  23.534  13.115
75045W        W43439  23.476   3.308   2.326
75046W        W43440  16.627  25.459   3.197
75047W        W43441  28.820  18.210   1.387
75048W        W43442   3.901  40.958  10.583
75049W        W43443  33.488  26.065  10.123
75050W        W43444   9.264   9.139   3.964
75051W        W43445  33.114  19.362   0.964
75052W        W43446   1.332  40.934   3.537
75053W        W43447  33.236  42.634   5.052
75054W        W43448  33.774  12.838   3.360
75055W        W43449   8.615  18.302   4.277
75056W        W43450   2.567  40.878  12.869
75057W        W43451  44.783  33.879  11.232
75058W        W43452  14.079  41.924   0.768
75059W        W43453   8.970   2.068  12.673
75060W        W43454  15.126   5.003  10.345
75061W        W43455   9.104  18.224  13.994
75062W        W43456   1.744  35.950   2.191
75063W        W43457  40.121  18.017   4.042
75064W        W43458  12.333  31.138  13.327
75065W        W43459  41.353  14.603   3.694
75066W        W43460  30.270   2.594  13.497
75067W        W43461   8.453  44.583  14.000
75068W        W43462  16.181  37.962   3.384
75069W        W43463   6.245  22.987   1.374
75070W        W43464  14.982  16.772   5.404
75071W        W43465  37.922   8.005  13.529
75072W        W43466   0.484  18.794  14.327
75073W        W43467   4.369   8.401   4.621
75074W        W43468  12.444  35.247  13.566
75075W        W43469  31.585   9.701   0.891
75076W        W43470  17.054  30.113  14.256
75077W        W43471   8.591  20.669   3.588
75078W        W43472  29.903   2.898  13.306
75079W        W43473  32.549  16.344   4.207
75080W        W43474   8.792   1.519  11.948
75081W        W43475  34.981  15.625   2.638
75082W        W43476  17.116   5.258  14.277
75083W        W43477  42.126  11.693  12.145
75084W        W43478  42.363  21.833   1.667
75085W        W43479   1.232   8.158  10.767
75086W        W43480   9.578  11.778   2.906
75087W        W43481  32.592   1.237  13.549
75088W        W43482  37.941   2.910  14.321
75089W        W43483  11.405  26.370   4.264
75090W        W43484  43.459  43.986  13.902
75091W        W43485  16.682  20.173   4.108
75092W        W43486  15.712  15.550  10.155
75093W        W43487  31.173  44.747  11.615
75094W        W43488  33.849  31.592   4.699
75095W        W43489   5.937  40.761  14.883
75096W        W43490  38.866  39.283   3.765
75097W        W43491   9.285  43.179  13.301
75098W        W43492  31.558  30.698   1.170
75099W        W43493  13.750  31.392   1.617
75100W        W43494  39.045  21.199   3.364
75101W        W43495  36.631  40.369  13.957
75102W        W43496  38.483  26.131  10.661
75103W        W43497  35.084  37.834  11.219
75104W        W43498  23.005   5.869   1.957
75105W        W43499  24.640  17.197  11.597
75106W        W43500  12.547  40.004  10.572
75107W        W43501  38.938   0.353  12.201
75108W        W43502  39.044  17.921   4.171
75109W        W43503  44.366  38.868   2.568
75110W        W43504  41.778  28.619  13.445
75111W        W43505  38.557  30.146   0.732
75112W        W43506  38.904   6.509   3.437
75113W        W43507  44.473   1.578  13.794
75114W        W43508  10.319   5.215  14.356
75115W        W43509  15.755  40.037  14.587
75116W        W43510  16.166  42.348  13.961
75117W        W43511  36.091   6.488  11.605
75118W        W43512   0.995   6.161   0.519
75119W        W43513  31.149   8.335  10.805
75120W        W43514  37.311  24.166  13.403
75121W        W43515  36.876  15.633   0.489
75122W        W43516   7.145  23.924   1.186
75123W        W43517  20.773  41.235   4.210
75124W        W43518  27.393  24.632  13.719
75125W        W43519  25.423  44.904   3.572
75126W        W43520  13.095   0.332   1.919
75127W        W43521  38.088   7.087   0.145
75128W        W43522  32.032  23.489   2.306
75129W        W43523  13.133  35.370   5.145
75130W        W43524  21.207  26.294   5.516
75131W        W43525  37.653  30.533  10.821
75132W        W43526  12.535   9.067  12.583
75133W        W43527   0.364  26.921   4.609
75134W        W43528  23.378   0.685  13.832
75135W        W43529  35.361  40.832   1.687
75136W        W43530  34.519  17.038   2.905
75137W        W43531   7.797  35.009  14.815
75138W        W43532  11.536  40.153  10.083
75139W        W43533  36.593  24.085   0.467
75140W        W43534  22.393  17.862  14.714
75141W        W43535  17.030  42.643  13.935
75142W        W43536   9.156  26.136   3.077
75143W        W43537  31.532  15.763  13.406
75144W        W43538  12.037   3.621  11.553
75145W        W43539  26.137  30.529   1.902
75146W        W43540  25.054  24.412  11.151
75147W        W43541   0.906  37.288   4.533
75148W        W43542  21.978   9.887  10.636
75149W        W43543  38.992  37.840  14.922
75150W        W43544   3.814  34.831  12.470
75151W        W43545  38.386  22.146  14.277
75152W        W43546   7.827  17.626  13.587
75153W        W43547  18.288  42.231  13.519
75154W        W43548  27.533  35.823   3.180
75155W        W43549  26.999   3.418  12.530
75156W        W43550  36.817  24.344   0.849
75157W        W43551  32.336  24.885   3.439
75158W        W43552  41.387  11.946   4.001
75159W        W43553   6.725  21.067   4.167
75160W        W43554  17.769   2.389   2.225
75161W        W43555  19.529   0.980  11.967
75162W        W43556  10.427  11.422   0.938
75163W        W43557  29.814  35.081   3.303
75164W        W43558   0.463  36.161  14.372
75165W        W43559  17.141  13.276   4.772
75166W        W43560  40.817  12.330   2.398
75167W        W43561  17.656  26.623   4.545
75168W        W43562   6.479  39.926   2.407
75169W        W43563  26.963  44.734  12.856
75170W        W43564  17.810  29.033   3.462
75171W        W43565  39.342   0.246   0.240
75172W        W43566  18.328  27.019  12.114
75173W        W43567  34.347  43.833  11.990
75174W        W43568  44.743   2.947   2.359
75175W        W43569  22.537  21.191   3.099
75176W        W43570  26.189   0.969  11.516
75177W        W43571  35.326  19.036   1.239
75178W        W43572  15.411  32.613  11.539
75179W        W43573   0.857   0.971  14.946
75180W        W43574  15.118  10.120  14.454
75181W        W43575  34.584  26.629  11.711
75182W        W43576  30.629  25.132  11.612
75183W        W43577  10.310  12.188   0.503
75184W        W43578  31.366  11.395  12.568
75185W        W43579  26.512  14.491  11.072
75186W        W43580   7.435  23.419  14.438
75187W        W43581  39.283  21.528   4.918
75188W        W43582  31.016  34.695  12.966
75189W        W43583  30.929   3.869   3.339
75190W        W43584  36.962   9.154   3.820
75191W        W43585  41.581   5.928  14.346
75192W        W43586  25.162  23.989   4.840
75193W        W43587  39.102  20.053  12.532
75194W        W43588  38.099  22.612   0.349
75195W        W43589  17.833  29.066   2.628
75196W        W43590  25.083   4.533   0.051
75197W        W43591   6.916  44.234  14.036
75198W        W43592  24.911  10.410   1.116
75199W        W43593   5.779  15.267  11.369
75200W        W43594  24.696   6.983  13.022
75201W        W43595   3.307  17.240  10.610
75202W        W43596  21.320  21.456   0.797
75203W        W43597  42.800  19.392  14.359
75204W        W43598  18.087  11.519  12.499
75205W        W43599  11.979  34.475   4.653
75206W        W43600  40.389   6.801   1.095
75207W        W43601  10.586  15.626  12.761
75208W        W43602  13.654  16.854  12.942
75209W        W43603  38.944   0.625   2.859
75210W        W43604  22.820  30.695  13.399
75211W        W43605   8.145  25.184   1.608
75212W        W43606   6.133  26.026  11.656
75213W        W43607   7.966  25.565   2.377
75214W        W43608  33.551  29.672  12.596
75215W        W43609   1.839   6.439  11.590
75216W        W43610   6.891  12.078  11.162
75217W        W43611  41.405  44.221  14.239
75218W        W43612  43.100   9.389  13.576
75219W        W43613  44.891   3.797  13.005
75220W        W43614  30.965  36.120   4.859
75221W        W43615  39.900  39.200   0.488
75222W        W43616  28.089  31.013   1.842
75223W        W43617  20.598  12.350  13.537
75224W        W43618  14.644  32.541  10.755
75225W        W43619  35.907  25.891   1.943
75226W        W43620  21.731  23.213   2.613
75227W        W43621  30.539   1.970   3.350
75228W        W43622  25.132   7.532  12.426
75229W        W43623  37.910  23.068   0.221
75230W        W43624   8.240  27.469  11.129
75231W        W43625  15.351  12.768   1.859
75232W        W43626   4.161   5.330  10.729
75233W        W43627  11.842  13.564  14.237
75234W        W43628  29.506  34.616   0.701
75235W        W43629   5.608  30.489  12.020
75236W        W43630  21.751   5.950   3.194
75237W        W43631   0.290  22.219  11.538
75238W        W43632   3.892  12.114  14.275
75239W        W43633  33.598  35.573   4.133
75240W        W43634  17.872  41.555  10.096
75241W        W43635  15.500  11.678   5.016
75242W        W43636   6.736  36.831  13.955
75243W        W43637   3.447  31.421   3.178
75244W        W43638  17.323  14.768   4.213
75245W        W43639   5.465  30.101   1.144
75246W        W43640  38.067   3.930   2.512
75247W        W43641   9.843  36.865   0.250
75248W        W43642   2.408  23.159   3.530
75249W        W43643  24.049  24.351  12.111
75250W        W43644  26.456  33.079  11.258
75251W        W43645  11.745   2.015   4.260
75252W        W43646  16.511  23.650  11.586
75253W        W43647  34.614  18.806  11.431
75254W        W43648  32.254  12.323   4.697
75255W        W43649   3.698  25.430   0.528
75256W        W43650  26.630   7.744   4.683
75257W        W43651  27.823  24.158  11.071
75258W        W43652  24.641   0.935  13.637
75259W        W43653  10.217  23.560   3.982
75260W        W43654  30.964  15.619   3.712
75261W        W43655  35.475  25.139  11.400
75262W        W43656  18.501  12.838   2.453
75263W        W43657  28.986  12.401  11.504
75264W        W43658  11.220  42.399   0.694
75265W        W43659  19.733  19.554   2.907
75266W        W43660  44.495   9.308  11.621
75267W        W43661  13.208  44.826   1.899
75268W        W43662  14.802  21.746  11.131
75269W        W43663  12.429  21.054  11.093
75270W        W43664  33.748  19.554   3.718
75271W        W43665  31.832  38.134  14.468
75272W        W43666  39.604  42.998  12.121
75273W        W43667  21.024  30.131  14.803
75274W        W43668  27.213  41.308  14.848
75275W        W43669  20.228  29.958   3.149
75276W        W43670  15.810  12.112  10.711
75277W        W43671  11.549  12.650  10.178
75278W        W43672   3.899  24.209   2.226
75279W        W43673   6.299  11.123  12.095
75280W        W43674  30.041  18.077   0.086
75281W        W43675  36.318  11.446  12.519
75282W        W43676   9.914  35.592   4.610
75283W        W43677   4.661  37.632  13.810
75284W        W43678   5.511  33.403   3.164
75285W        W43679  38.341  13.625   4.596
75286W        W43680  15.720   1.236   3.503
75287W        W43681  19.825  34.483   1.363
75288W        W43682  20.918  24.218   1.321
75289W        W43683  21.592  16.698  11.584
75290W        W43684  10.700  38.749  12.621
75291W        W43685  36.084  25.611   1.476
75292W        W43686  19.072  42.527  13.117
75293W        W43687  34.303   6.704  10.655
75294W        W43688   6.944  11.747   4.724
75295W        W43689  41.235  40.517   4.134
75296W        W43690  25.538  37.240  14.020
75297W        W43691  13.125   3.800   2.266
75298W        W43692  10.960  21.192  13.386
75299W        W43693  30.734   5.545  11.224
75300W        W43694  41.966  14.582   1.848
75301W        W43695  42.800  24.370  13.893
75302W        W43696   7.018  14.402  11.497
75303W        W43697   3.919  22.572  14.434
75304W        W43698  28.738  18.503   0.844
75305W        W43699   9.875  25.562   0.292
75306W        W43700   0.755  39.738  13.105
75307W        W43701  37.090   6.285  13.112
75308W        W43702  35.936   0.272  10.676
75309W        W43703   3.836  18.571  12.445
75310W        W43704  19.942   9.294   4.544
75311W        W43705  17.748  17.135   3.220
75312W        W43706  39.486  24.065   0.011
75313W        W43707  15.213  29.699   2.637
75314W        W43708  10.189  20.662  10.535
75315W        W43709  24.092  31.247  10.727
75316W        W43710  12.634  23.647  12.093
75317W        W43711   3.480   6.807  11.169
75318W        W43712   6.133  12.877  13.064
75319W        W43713  44.247  21.222   0.861
75320W        W43714  11.609  10.601  10.523
75321W        W43715  31.494  23.118  12.134
75322W        W43716   8.354  38.042   1.756
75323W        W43717  14.809   7.453  12.070
75324W        W43718  20.170  18.362  10.313
75325W        W43719  21.684  33.895  12.335
75326W        W43720  24.430  33.529  13.497
75327W        W43721  37.194   6.374  11.010
75328W        W43722  31.558  37.513   1.961
75329W        W43723   0.068  22.586  11.232
75330W        W43724  41.531   3.893  10.648
75331W        W43725   3.931  35.504  11.666
75332W        W43726  18.805  10.617   3.163
75333W        W43727  25.482  32.837   4.013
75334W        W43728   0.624  25.519   3.680
75335W        W43729  16.158  21.807   4.333
75336W        W43730  18.175  17.192  12.457
75337W        W43731   3.771  10.740   2.276
75338W        W43732  34.182  16.689  13.345
75339W        W43733   7.312  26.233  13.277
75340W        W43734  15.900   1.073   0.202
75341W        W43735   8.666  14.162  14.049
75342W        W43736   8.292  29.688   2.728
75343W        W43737  27.951   2.814   2.855
75344W        W43738  33.446  44.234   0.958
75345W        W43739   6.990   1.846   0.404
75346W        W43740  43.868  22.530   1.109
75347W        W43741  10.723  24.164   0.196
75348W        W43742  22.988  23.063   2.403
75349W        W43743  23.121  13.254  13.444
75350W        W43744  12.054  34.547   1.789
75351W        W43745  28.402  11.877  13.405
75352W        W43746  34.105  19.019   0.014
75353W        W43747  22.984  41.589   0.024
75354W        W43748  12.317  29.877  13.964
75355W        W43749  12.803  35.329  13.947
75356W        W43750  44.493  15.700   5.028
75357W        W43751  30.944  33.795   4.593
75358W        W43752   6.345   6.987  11.492
75359W        W43753  10.251  21.653  14.352
75360W        W43754   8.761  30.627  12.917
75361W        W43755  30.294  22.854  11.634
75362W        W43756  14.600  19.228   2.748
75363W        W43757  15.143  14.769   3.424
75364W        W43758  23.083  13.695   3.669
75365W        W43759  25.197  22.731   4.537
75366W        W43760   6.306   4.240  11.556
75367W        W43761  28.007   6.536  13.040
75368W        W43762  22.665  34.058  13.888
75369W        W43763  35.033  29.429  14.700
75370W        W43764   0.182   9.144  14.341
75371W        W43765  18.666  13.141   3.608
75372W        W43766  23.144  42.583  10.482
75373W        W43767  15.110   0.879  12.129
75374W        W43768  30.686   7.933   2.872
75375W        W43769   6.761   7.079  11.185
75376W        W43770  10.364   7.778  13.362
75377W        W43771  41.071  34.136   4.460
75378W        W43772  22.476  39.579   3.790
75379W        W43773  30.385  44.456   1.305
75380W        W43774  43.003  22.048   3.674
75381W        W43775  40.579  18.357  12.558
75382W        W43776  19.545  12.088  12.486
75383W        W43777   1.477   0.400  10.533
75384W        W43778  16.495  19.071   1.328
75385W        W43779  30.978  30.609   2.593
75386W        W43780   0.089  24.790   0.361
75387W        W43781   8.355  11.635   0.221
75388W        W43782  19.665  10.449   2.420
75389W        W43783  24.713  34.515   2.634
75390W        W43784  34.070  32.127   4.452
75391W        W43785  27.128   5.491  11.556
75392W        W43786  22.699  17.259   2.924
75393W        W43787  39.829  18.003   2.740
75394W        W43788  21.671  33.383  12.516
75395W        W43789  25.407  33.129  14.800
75396W        W43790  27.062  41.304   3.273
75397W        W43791  11.255  31.737  10.989
75398W        W43792  38.894  31.011   0.560
75399W        W43793   9.255   7.572   4.071
75400W        W43794  22.507  16.773   1.856
75401W        W43795  22.281  16.473  13.511
75402W        W43796  24.098  43.371  14.668
75403W        W43797  30.497   4.921   1.277
75404W        W43798  18.736  43.689  12.421
75405W        W43799   4.160  43.292   0.257
75406W        W43800  11.681  27.594   1.416
75407W        W43801  20.402  25.669   4.891
75408W        W43802  10.284  23.716  12.485
75409W        W43803  34.547  31.327   1.921
75410W        W43804   1.898  30.463   3.291
75411W        W43805  22.977  18.965  11.901
75412W        W43806  43.383  16.230  13.946
75413W        W43807  13.229  18.365   2.850
75414W        W43808   5.513  28.164   4.553
75415W        W43809  10.169   6.283   0.456
75416W        W43810  28.570  32.160  13.000
75417W        W43811  34.174  42.076   1.267
75418W        W43812  40.953   0.094   3.935
75419W        W43813  32.595   2.514  14.885
75420W        W43814  40.570  21.937   1.296
75421W        W43815  35.503  43.341  11.991
75422W        W43816  32.622  20.731  10.753
75423W        W43817  32.641  13.252  12.337
75424W        W43818   5.703  38.494  13.881
75425W        W43819   6.298  34.249   1.336
75426W        W43820  36.822  28.631   1.145
75427W        W43821  44.013  20.431   0.480
75428W        W43822  37.227  29.999  12.357
75429W        W43823  26.715  20.681   4.811
75430W        W43824  28.886   3.717   2.256
75431W        W43825  13.112   6.306   2.781
75432W        W43826  44.812  23.887  11.206
75433W        W43827   3.977  25.429  11.981
75434W        W43828  38.444  30.697   2.754
75435W        W43829   6.782  29.259   1.811
75436W        W43830  44.993  20.649   1.825
75437W        W43831   3.806  11.451   0.052
75438W        W43832  33.497   4.051   1.756
75439W        W43833  26.803  10.265  11.925
75440W        W43834  25.795  16.642  12.510
75441W        W43835  41.818  12.409  11.538
75442W        W43836  15.136  33.140  13.054
75443W        W43837  20.046  34.951  13.088
75444W        W43838  36.127  21.638   1.859
75445W        W43839  41.303  23.785  11.485
75446W        W43840   4.942  28.092   3.889
75447W        W43841  18.611  13.198  11.563
75448W        W43842   3.712  10.775  11.368
75449W        W43843  40.400  29.898   2.188
75450W        W43844   3.198  15.965  14.873
75451W        W43845  36.783  25.300  11.707
75452W        W43846  28.865  41.428   4.103
75453W        W43847  43.984  35.415   2.088
75454W        W43848  43.847  30.301   3.682
75455W        W43849  19.144   0.993   2.019
75456W        W43850   4.383  31.459  10.618
75457W        W43851  31.936  31.619   4.889
75458W        W43852   7.011   2.206  10.814
75459W        W43853   9.596   2.684   1.656
75460W        W43854  10.089  28.440   2.781
75461W        W43855  39.700  23.604  11.923
75462W        W43856  28.516   5.945   3.599
75463W        W43857  39.421  44.844  11.523
75464W        W43858   6.758  15.326  12.433
75465W        W43859  20.952  41.620  12.079
75466W        W43860  38.137  44.040  11.083
75467W        W43861  25.100  38.757   2.190
75468W        W43862   5.753  18.692  13.620
75469W        W43863  29.290   1.204  13.997
75470W        W43864  19.113  33.407  11.933
75471W        W43865  14.299  18.634   3.358
75472W        W43866  11.697  10.031   1.047
75473W        W43867  25.661  34.545   2.266
75474W        W43868  33.866  17.721   3.146
75475W        W43869  43.297  42.012  11.499
75476W        W43870  44.010   0.040  13.380
75477W        W43871   2.673  11.854   2.254
75478W        W43872  29.180  19.106  14.380
75479W        W43873   9.588   5.278  13.811
75480W        W43874   9.242  41.258  14.541
75481W        W43875  22.662  34.985   3.078
75482W        W43876  30.385  26.937   1.820
75483W        W43877  22.128  40.528  10.724
75484W        W43878  19.129  19.338   3.392
75485W        W43879  24.764  35.492  11.175
75486W        W43880  18.719   9.968   2.173
75487W        W43881  23.066   8.576   4.703
75488W        W43882  44.111   0.729   3.172
75489W        W43883  44.516  18.283  11.973
75490W        W43884  19.790   5.106   1.349
75491W        W43885  15.222  21.482  13.794
75492W        W43886  21.223   2.729  12.086
75493W        W43887  34.556   7.683  12.572
75494W        W43888  41.324  44.904  10.747
75495W        W43889  33.341  41.259   3.885
75496W        W43890  19.542  26.113  13.391
75497W        W43891   1.959   3.710   0.558
75498W        W43892  13.118  16.312   2.617
75499W        W43893  30.203  11.952  12.414
75500W        W43894  26.037   4.975  14.949
75501W        W43895  27.030   4.679   3.047
75502W        W43896  25.600  16.115  13.041
75503W        W43897  23.302   7.318   3.217
75504W        W43898  38.912   2.127  10.333
75505W        W43899  10.574  32.060  10.830
75506W        W43900  14.893  37.947  12.423
75507W        W43901   9.888  17.170   0.863
75508W        W43902  35.470  28.055  11.522
75509W        W43903  30.175  34.236   1.905
75510W        W43904  44.342  19.106  10.797
75511W        W43905   3.718  26.596  12.537
75512W        W43906  13.412  18.161   2.408
75513W        W43907   9.591   3.642  14.445
75514W        W43908  10.308  23.532   3.008
75515W        W43909  26.945   2.203  14.925
75516W        W43910  16.823  22.519  11.567
75517W        W43911   2.576  34.487  10.043
75518W        W43912  30.640  36.592  14.766
75519W        W43913  27.624  25.484   0.647
75520W        W43914  18.671  12.853   1.916
75521W        W43915  32.326   8.657   1.183
75522W        W43916  19.533  29.508  14.050
75523W        W43917  32.851  23.341   2.681
75524W        W43918   8.311   5.615  10.246
75525W        W43919  28.377  22.042  10.370
75526W        W43920   0.728   3.471   3.225
75527W        W43921  12.621  44.322   1.188
75528W        W43922  17.108  28.148   0.227
75529W        W43923  19.571   2.406   1.848
75530W        W43924  11.321  32.373  12.843
75531W        W43925  44.015  27.758   1.172
75532W        W43926  17.979  33.054  12.921
75533W        W43927  44.735  16.230   2.694
75534W        W43928  38.084  39.968  10.662
75535W        W43929  23.905  38.742  14.299
75536W        W43930  15.640  18.236  10.225
75537W        W43931  22.712  25.963   1.440
75538W        W43932   9.692  33.924  12.093
75539W        W43933  22.414   5.341   3.127
75540W        W43934  26.808   3.187   3.235
75541W        W43935   2.484  13.463   2.592
75542W        W43936  39.446  34.126   0.890
75543W        W43937  16.774  36.540  11.186
75544W        W43938  18.612  21.529  10.415
75545W        W43939  26.681  32.078  11.091
75546W        W43940  15.796  12.708   2.218
75547W        W43941   4.503   3.008  14.377
75548W        W43942  25.388  37.732  13.973
75549W        W43943  14.828  36.531  14.023
75550W        W43944  39.465  13.867   4.233
75551W        W43945  35.012  23.546  10.877
75552W        W43946  22.388  32.908  14.424
75553W        W43947   0.498  32.854   0.844
75554W        W43948  24.243  40.280  10.652
75555W        W43949   0.743  21.675  10.817
75556W        W43950  37.824  18.774  13.132
75557W        W43951  21.518  28.540  12.004
75558W        W43952  38.008  38.669   3.309
75559W        W43953   1.557  18.052  12.110
75560W        W43954  29.667  14.817   1.298
75561W        W43955  36.526  35.505   4.174
75562W        W43956  30.339  25.457   5.045
75563W        W43957   1.723  25.727   4.267
75564W        W43958  35.959  11.404  10.976
75565W        W43959  19.560  35.571   2.619
75566W        W43960  37.475  13.186   3.636
75567W        W43961  35.238  35.314  11.941
75568W        W43962  24.169   5.149  11.927
75569W        W43963  32.994  37.399  11.047
75570W        W43964  25.492   9.191  10.806
75571W        W43965  36.835  21.914  11.182
75572W        W43966  30.948   5.239  13.796
75573W        W43967   9.857  10.765  13.593
75574W        W43968  19.182  16.880  13.384
75575W        W43969   2.697   0.462  13.809
75576W        W43970  44.956  29.254   2.263
75577W        W43971  27.524  29.383  13.412
75578W        W43972  27.302  19.082   1.345
75579W        W43973  20.173   4.552   2.497
75580W        W43974  21.488  40.939  13.528
75581W        W43975  34.047  37.815  13.169
75582W        W43976  23.629  18.149   2.717
75583W        W43977   6.801  32.045  11.559
75584W        W43978  17.403   3.163  12.637
75585W        W43979  38.132  22.754  10.572
75586W        W43980  21.218   3.081   0.667
75587W        W43981  10.101  30.951  13.745
75588W        W43982   4.908   2.238  12.928
75589W        W43983  20.094   1.973   0.632
75590W        W43984  41.020  42.744  12.732
75591W        W43985  10.883  26.949   2.831
75592W        W43986   9.363  20.624  11.906
75593W        W43987  37.003  35.311   2.891
75594W        W43988  41.833   9.162  14.962
75595W        W43989  33.882  34.424   1.357
75596W        W43990   3.047  41.010  12.038
75597W        W43991  42.630  21.803  13.864
75598W        W43992   1.967  40.032   1.004
75599W        W43993  16.096  38.817  14.470
75600W        W43994  31.591   0.812  12.189
75601W        W43995  40.614  22.419  12.896
75602W        W43996  18.324  25.566  11.638
75603W        W43997  35.165  35.535  12.395
75604W        W43998   8.456  18.802   2.509
75605W        W43999  34.160   8.122   0.315
75606W        W44000   0.997  32.502  14.978
75607W        W44001  11.091  20.007  13.077
75608W        W44002  41.832  14.728  11.478
75609W        W44003  26.176   4.534   3.750
75610W        W44004  14.803  28.451   4.329
75611W        W44005  24.537  32.220   2.393
75612W        W44006   0.533  17.740  10.477
75613W        W44007   4.529  21.903   4.594
75614W        W44008   4.805  34.665   1.893
75615W        W44009  32.648  13.419   4.419
75616W        W44010  41.756   3.441   1.853
75617W        W44011  10.729  33.672   3.890
75618W        W44012  25.137  26.678  13.003
75619W        W44013   0.883  18.020  10.756
75620W        W44014  35.640  40.425  13.098
75621W        W44015  22.177  28.407  10.602
75622W        W44016  34.285  37.879   3.888
75623W        W44017   9.696  11.570   3.354
75624W        W44018  24.416  13.068  14.952
75625W        W44019  10.201  44.511  11.825
75626W        W44020  19.112  14.865   4.622
75627W        W44021  33.855  10.211  13.995
75628W        W44022   2.924  37.814  13.867
75629W        W44023   7.926  27.576   4.951
75630W        W44024  35.462  19.396  10.618
75631W        W44025  20.872  41.957   2.669
75632W        W44026  11.466   9.336  10.710
75633W        W44027   1.458  24.068   2.346
75634W        W44028   2.890  13.537   2.885
75635W        W44029  40.295  28.921   1.363
75636W        W44030   9.898  22.562  11.405
75637W        W44031   0.585  10.862  11.546
75638W        W44032  12.346  28.425   1.897
75639W        W44033  15.079   2.757  10.949
75640W        W44034  42.891   9.422   1.835
75641W        W44035  14.568  18.189  11.457
75642W        W44036   4.302   7.176  14.476
75643W        W44037   9.789  16.043   3.688
75644W        W44038  22.179   5.667  10.944
75645W        W44039  30.122  19.560  12.473
75646W        W44040  36.620  37.013  13.984
75647W        W44041  21.999   6.366   0.578
75648W        W44042  12.370  28.805  13.627
75649W        W44043  44.238   5.110   3.661
75650W        W44044  19.532  10.865   3.714
75651W        W44045  24.050  13.828   0.749
75652W        W44046  10.669  20.696  14.980
75653W        W44047  40.560  26.883  10.576
75654W        W44048  38.877  44.898   4.638
75655W        W44049  32.937   8.150  12.349
75656W        W44050  29.511   2.194  14.722
75657W        W44051  33.526  34.439   4.567
75658W        W44052  31.965  22.224  10.011
75659W        W44053  40.532  13.207   2.706
75660W        W44054  10.366   2.470  11.581
75661W        W44055  42.832  43.495   1.950
75662W        W44056  21.769   2.845  14.332
75663W        W44057   2.393   0.448  12.931
75664W        W44058  16.589  10.274   3.038
75665W        W44059  25.726  22.684  12.974
75666W        W44060  14.530  23.089   3.194
75667W        W44061  34.577   9.664  14.867
75668W        W44062  28.221  22.651   4.560
75669W        W44063  24.972  25.778  12.308
75670W        W44064  17.018  44.139   4.129
75671W        W44065   4.239   3.769  13.781
75672W        W44066  17.282  15.720   1.898
75673W        W44067  23.985  42.418   0.198
75674W        W44068  10.113  40.343   4.649
75675W        W44069  27.741  23.936  13.039
75676W        W44070  36.560   3.903   3.579
75677W        W44071   8.836   4.291  14.728
75678W        W44072  34.461   1.805  14.941
75679W        W44073  25.591  39.710  13.864
75680W        W44074  24.558   7.377   4.096
75681W        W44075  14.850  29.105  11.976
75682W        W44076   6.348  21.807   4.566
75683W        W44077  23.080  29.038  12.588
75684W        W44078  39.270  32.062  12.413
75685W        W44079  26.179  25.980  14.871
75686W        W44080  12.252  18.006  14.998
75687W        W44081  30.353  43.821  11.681
75688W        W44082   8.240  28.762  13.129
75689W        W44083  21.941   5.863   4.496
75690W        W44084  22.975  36.602   4.558
75691W        W44085  33.417   6.211   1.769
75692W        W44086  18.547  29.999  14.167
75693W        W44087   5.964  23.624   4.045
75694W        W44088   6.755  27.781  12.018
75695W        W44089  22.282  10.726   1.291
75696W        W44090  29.548  43.301  11.768
75697W        W44091  26.626  30.697   4.094
75698W        W44092   6.431   6.324  14.734
75699W        W44093   5.916  38.045   1.781
75700W        W44094  16.320   8.844   2.643
75701W        W44095  37.192  26.595   2.744
75702W        W44096  20.767  36.586   0.492
75703W        W44097   0.377   7.878   2.795
75704W        W44098  36.445  27.936  12.857
75705W        W44099  43.727   6.350  11.074
75706W        W44100  21.167  21.213   4.112
75707W        W44101  19.387  29.227  11.411
75708W        W44102   7.140  27.896   1.758
75709W        W44103  36.494  10.661  13.770
75710W        W44104  12.844  39.315   1.869
75711W        W44105  36.081  21.045  10.949
75712W        W44106  31.958   9.582   3.195
75713W        W44107  40.243  28.336  11.602
75714W        W44108  38.951  38.633  12.594
75715W        W44109  38.814  29.521   2.998
75716W        W44110   2.239  41.859  14.766
75717W        W44111  40.542   2.227   2.427
75718W        W44112  24.403  40.332   4.219
75719W        W44113   8.105  30.375  14.582
75720W        W44114  44.830  31.581  14.377
75721W        W44115  12.823  31.376   0.421
75722W        W44116   1.321  33.598   1.876
75723W        W44117  31.654  44.553   1.304
75724W        W44118  29.716  17.290   1.865
75725W        W44119  21.001  22.536  14.199
75726W        W44120  11.036   9.062   0.988
75727W        W44121  37.884  42.860   2.293
75728W        W44122   1.295  17.045  12.802
75729W        W44123  37.960  38.348   2.619
75730W        W44124  24.116   8.071   3.193
75731W        W44125   2.724  26.168   2.783
75732W        W44126   5.822   1.622   3.693
75733W        W44127   2.830   4.735   0.491
75734W        W44128  44.219  28.939  12.952
75735W        W44129  25.443  34.270   1.606
75736W        W44130  26.047  16.749   0.462
75737W        W44131   2.681  41.521   5.127
75738W        W44132  30.565  25.176   4.603
75739W        W44133   5.602   6.906   3.504
75740W        W44134   9.369  35.604   0.235
75741W        W44135  31.298  19.923   1.365
75742W        W44136  34.428  36.909   0.319
75743W        W44137  10.762   6.794   3.719
75744W        W44138  36.702  42.255   0.225
75745W        W44139   0.525  20.837  11.706
75746W        W44140  26.525  19.197   2.563
75747W        W44141  33.266  39.325   0.108
75748W        W44142  34.653  20.359  13.908
75749W        W44143  15.273  19.550  11.463
75750W        W44144   7.515  26.417  14.837
75751W        W44145  44.979  37.745   4.254
75752W        W44146  18.251   3.425  11.041
75753W        W44147   9.842  18.329  14.167
75754W        W44148  32.576  12.579   3.299
75755W        W44149  22.194  23.740   3.800
75756W        W44150  38.575  37.025  14.748
75757W        W44151  14.577  34.051   1.932
75758W        W44152  27.607  44.001  14.428
75759W        W44153  28.227  40.690   1.899
75760W        W44154  27.057   0.799   4.125
75761W        W44155  26.500  33.704  11.681
75762W        W44156   1.900  14.308  11.559
75763W        W44157  40.764  43.353   2.689
75764W        W44158  16.599  24.609  12.951
75765W        W44159  44.810   1.567   3.728
75766W        W44160  33.670   0.029   2.702
75767W        W44161   1.877  43.103   2.149
75768W        W44162  39.893  19.285   0.386
75769W        W44163  35.830  38.537   1.338
75770W        W44164  32.605   1.297  11.930
75771W        W44165  13.646  32.598   1.025
75772W        W44166  42.553  40.928   1.432
75773W        W44167   2.701  10.933  12.355
75774W        W44168  28.157   2.634   3.307
75775W        W44169  19.744  18.193  12.043
75776W        W44170  34.402  29.469  12.590
75777W        W44171   2.791   0.789   3.085
75778W        W44172   6.765  23.669  12.480
75779W        W44173   1.142  39.036  14.632
75780W        W44174  10.581  14.698   3.752
75781W        W44175  34.941  14.163  10.965
75782W        W44176  21.534  22.966  12.606
75783W        W44177  27.600  41.969  11.013
75784W        W44178  21.743   1.327   1.875
75785W        W44179  37.881  13.147  12.136
75786W        W44180  41.306  27.790  14.184
75787W        W44181   2.180  39.179  14.972
75788W        W44182  37.618   5.478  12.266
75789W        W44183  16.098  21.757  10.636
75790W        W44184  34.532  26.419  11.244
75791W        W44185  12.280  18.734   1.873
75792W        W44186   1.958  23.061   3.734
75793W        W44187  43.028   3.322  13.035
75794W        W44188  37.183   4.859  11.561
75795W        W44189  42.426  24.309  12.958
75796W        W44190   5.405   8.609   4.708
75797W        W44191  24.457  43.249  13.010
75798W        W44192  27.146   2.942  12.594
75799W        W44193  35.010  39.908   2.777
75800W        W44194  10.036  19.726  10.570
75801W        W44195   3.647   6.433  12.570
75802W        W44196  44.346   7.443  11.996
75803W        W44197   4.322   4.925  13.546
75804W        W44198   9.739  40.299   3.767
75805W        W44199  43.321  32.447   4.439
75806W        W44200  44.807  42.833  14.463
75807W        W44201   6.142  16.210   2.307
75808W        W44202  34.160  17.345  10.838
75809W        W44203  22.168  37.820   4.743
75810W        W44204  33.796  12.033   2.202
75811W        W44205  41.539   7.386  10.638
75812W        W44206  40.546  43.769  12.493
75813W        W44207   2.705  38.570   4.443
75814W        W44208   9.656   1.535  13.620
75815W        W44209  28.171  10.912  13.527
75816W        W44210  17.807  43.101   0.324
75817W        W44211  24.686  14.894   4.179
75818W        W44212  14.650   0.860   3.101
75819W        W44213  41.641  24.638   2.825
75820W        W44214   9.808   1.695  13.135
75821W        W44215  19.479   7.678  14.342
75822W        W44216  28.873  20.713  12.034
75823W        W44217  19.428  42.195   0.429
75824W        W44218   3.896  29.662   0.372
75825W        W44219   2.833  23.063  13.062
75826W        W44220  13.732  33.682   1.693
75827W        W44221  30.972  40.794  12.439
75828W        W44222  41.900  34.989   2.778
75829W        W44223  27.032  24.385  13.349
75830W        W44224  36.753  38.943  12.033
75831W        W44225  26.586  13.733   4.907
75832W        W44226  20.080  29.173  11.131
75833W        W44227  27.956   8.740   1.196
75834W        W44228  10.678  27.181   4.911
75835W        W44229  29.419  13.226   1.968
75836W        W44230  15.239   1.187   4.307
75837W        W44231  13.435   1.858   5.015
75838W        W44232  29.336  16.115  13.908
75839W        W44233  15.705  18.158   4.274
75840W        W44234  19.460  33.539   0.406
75841W        W44235  25.559  28.596   4.303
75842W        W44236  26.514  16.015  13.511
75843W        W44237  39.989  28.151  13.530
75844W        W44238   7.318  19.758   1.710
75845W        W44239   2.175  10.793  14.040
75846W        W44240  16.817  29.239  11.124
75847W        W44241   2.701   1.335   2.915
75848W        W44242   6.848   6.910   0.717
75849W        W44243   5.211  34.166  14.785
75850W        W44244  32.767   0.187  12.934
75851W        W44245  24.520  21.802  11.186
75852W        W44246  35.703  28.935   2.314
75853W        W44247  33.726  31.556  11.711
75854W        W44248  42.808   9.635   1.351
75855W        W44249   0.185   1.812  13.597
75856W        W44250  10.682  17.527   4.011
75857W        W44251  38.814  20.210   2.249
75858W        W44252  26.506  36.476   2.390
75859W        W44253  26.154  36.806  11.776
75860W        W44254  35.474  30.486   1.648
75861W        W44255  12.875  32.983  11.173
75862W        W44256  23.642  41.927  11.475
75863W        W44257   3.409  42.433  13.858
75864W        W44258  39.586  34.153   2.256
75865W        W44259  10.607  18.977  14.796
75866W        W44260  24.462  42.983  10.685
75867W        W44261  22.487  33.839  14.324
75868W        W44262  17.194  30.505  13.878
75869W        W44263  35.395   0.198   4.124
75870W        W44264   7.509   6.804  12.018
75871W        W44265  12.212  19.801   3.220
75872W        W44266  28.848   4.152  13.828
75873W        W44267  37.616  10.687   4.706
75874W        W44268  42.000  38.651   2.152
75875W        W44269  24.628  25.190   2.203
75876W        W44270  42.496  38.144   1.023
75877W        W44271   9.159   8.258  14.840
75878W        W44272  40.822   9.788  13.337
75879W        W44273  35.962   8.406  14.200
75880W        W44274  27.582  30.473   1.178
75881W        W44275  11.871  30.893  13.372
75882W        W44276  35.156  41.008  11.130
75883W        W44277  27.731  35.305   1.733
75884W        W44278  21.002  34.185  11.500
75885W        W44279  10.623  33.586  10.720
75886W        W44280   4.167  14.227  13.400
75887W        W44281  20.704   8.687  11.089
75888W        W44282  38.972  10.960   2.321
75889W        W44283  23.332   0.896   1.113
75890W        W44284   8.288  33.258   3.206
75891W        W44285  31.577  36.421  11.466
75892W        W44286  16.536  30.073   2.318
75893W        W44287  40.861   6.233   2.737
75894W        W44288  33.091  41.426   4.380
75895W        W44289   6.788  13.064   2.376
75896W        W44290   2.254  12.272   1.233
75897W        W44291  14.636  43.097   1.462
75898W        W44292  11.417  14.972  10.851
75899W        W44293  19.052  10.596   2.126
75900W        W44294  27.589  23.203  13.771
75901W        W44295  12.885  24.470   0.916
75902W        W44296  19.840   7.901   0.387
75903W        W44297  26.817   5.141   3.274
75904W        W44298  32.966  37.526   0.661
75905W        W44299  16.643  18.514   2.661
75906W        W44300   7.416  16.926  12.628
75907W        W44301  29.500   4.394   2.656
75908W        W44302  31.136   7.218  14.921
75909W        W44303   4.412  12.359   1.943
75910W        W44304  23.685  21.541   0.351
75911W        W44305  18.757   4.748  10.649
75912W        W44306  12.746  18.161  11.532
75913W        W44307   3.521  21.569   0.725
75914W        W44308  44.308  16.289  13.080
75915W        W44309  36.129   8.461  12.737
75916W        W44310   2.532  25.596  12.020
75917W        W44311  16.546   3.287   1.709
75918W        W44312  20.735   3.429   1.380
75919W        W44313   1.966  23.269  14.609
75920W        W44314  43.409   4.235  14.444
75921W        W44315   6.175  41.871  13.382
75922W        W44316  17.271  17.275  13.305
75923W        W44317  16.044  18.236  12.438
75924W        W44318  29.128  29.521   1.622
75925W        W44319  20.146  31.549   1.667
75926W        W44320  27.322  17.369  13.429
75927W        W44321   8.538  14.369   3.006
75928W        W44322  41.312   0.737  12.438
75929W        W44323  13.675  19.125   2.874
75930W        W44324  14.257  11.199   0.318
75931W        W44325   1.769  30.049   1.134
75932W        W44326   8.778  23.440  13.067
75933W        W44327  29.141   4.517  12.891
75934W        W44328  42.033  25.012  12.060
75935W        W44329  19.206  36.003   1.968
75936W        W44330  15.285  43.806  12.998
75937W        W44331  34.595  41.418   1.939
75938W        W44332  38.039  37.983  14.053
75939W        W44333  33.328   1.815   1.817
75940W        W44334  31.164  16.178   2.515
75941W        W44335  31.116  44.685  11.120
75942W        W44336  12.692   5.484   1.047
75943W        W44337  37.156   2.961   0.457
75944W        W44338  14.075  31.908   0.874
75945W        W44339  28.181  16.202  11.415
75946W        W44340  37.523  40.853  14.664
75947W        W44341   8.864  19.227  10.587
75948W        W44342   8.389  31.900  14.431
75949W        W44343  28.024  44.992   1.036
75950W        W44344  24.925  20.207   2.724
75951W        W44345  14.738  16.496   2.371
75952W        W44346  28.947  14.778  11.687
75953W        W44347  30.098  31.267  10.461
75954W        W44348  26.428  44.260   3.695
75955W        W44349  25.019   0.332   4.608
75956W        W44350  26.196  13.774   2.743
75957W        W44351  23.530   2.687   2.629
75958W        W44352  11.849  21.232  12.056
75959W        W44353  32.666  10.746  11.128
75960W        W44354  40.467  40.527  14.630
75961W        W44355  20.589   6.636  14.136
75962W        W44356  28.011  36.363  11.735
75963W        W44357  23.968   8.593  14.009
75964W        W44358  11.733   3.350   4.157
75965W        W44359  41.734  34.113  11.381
75966W        W44360  17.676  16.471  13.880
75967W        W44361  37.047  17.285   0.999
75968W        W44362  35.354  41.253   1.415
75969W        W44363  32.666  19.676   3.250
75970W        W44364  26.241   6.864  12.840
75971W        W44365  29.924  30.560   4.148
75972W        W44366  25.433   9.558  14.284
75973W        W44367   2.494  19.112  10.986
75974W        W44368  29.264  19.578   0.098
75975W        W44369  14.489  43.678   3.250
75976W        W44370  16.314  16.474   4.648
75977W        W44371  18.716  21.042   2.543
75978W        W44372  41.362  40.173  12.522
75979W        W44373  23.150  35.985   3.704
75980W        W44374  26.919  27.627   3.221
75981W        W44375  19.218  34.829   3.634
75982W        W44376  20.655  27.423  12.531
75983W        W44377   6.371   9.818  10.641
75984W        W44378  28.815  15.348   4.700
75985W        W44379  11.574   4.010   4.656
75986W        W44380  36.578   5.199   1.310
75987W        W44381   3.968  27.243  14.313
75988W        W44382  36.532  32.299   3.778
75989W        W44383  20.708  41.627   1.094
75990W        W44384   6.852  16.803  11.237
75991W        W44385  39.854  29.037   3.110
75992W        W44386   1.449  34.316  14.542
75993W        W44387  39.948  44.414   1.329
75994W        W44388  11.601  35.814  12.026
75995W        W44389   9.542  42.275  11.692
75996W        W44390  37.076  43.982  11.859
75997W        W44391  11.425  32.013   2.803
75998W        W44392  44.065  24.410  11.098
75999W        W44393   9.228   0.686  11.079
76000W        W44394   0.223  15.433   2.800
76001W        W44395  13.086  11.213   2.708
76002W        W44396  43.828  19.927   0.176
76003W        W44397  23.198  22.906   4.713
76004W        W44398  43.855  12.111  10.583
76005W        W44399  27.216  12.147   9.709
76006W        W44400   3.416   6.104  10.608
76007W        W44401  36.563  23.454   4.207
76008W        W44402  13.139  43.734  13.842
76009W        W44403   3.075  28.224   3.062
76010W        W44404  24.245   9.750   1.340
76011W        W44405   8.574   6.498  13.051
76012W        W44406  22.487  37.472  12.995
76013W        W44407  32.570  43.339   3.632
76014W        W44408  15.194  29.984  12.180
76015W        W44409  20.962  23.801   2.868
76016W        W44410  26.213  23.640  11.980
76017W        W44411  43.993  16.266  14.322
76018W        W44412  13.727  27.126   3.584
76019W        W44413  12.182  30.809   4.716
76020W        W44414  12.165   7.047  13.314
76021W        W44415  42.475   2.911  12.929
76022W        W44416   0.676  42.759   1.173
76023W        W44417  22.995   4.947  13.866
76024W        W44418  32.154   6.141  10.723
76025W        W44419   1.418   8.838  11.497
76026W        W44420  19.551  19.117   3.141
76027W        W44421  22.712   4.401  14.498
76028W        W44422  19.877  36.788   1.760
76029W        W44423  13.799  24.233   0.783
76030W        W44424  35.163  24.225   2.689
76031W        W44425   1.677  27.201   5.381
76032W        W44426  23.513   6.828  13.049
76033W        W44427  33.101  27.892   4.771
76034W        W44428  12.306  28.805   4.757
76035W        W44429  34.772  25.029   1.182
76036W        W44430   3.403  35.974  12.181
76037W        W44431  41.797  27.523   2.018
76038W        W44432  12.135  41.862  12.003
76039W        W44433  25.480  20.454   2.047
76040W        W44434   7.330  31.932  14.239
76041W        W44435  33.790   3.284  12.383
76042W        W44436  40.756   6.698   2.457
76043W        W44437  30.940   3.972   1.397
76044W        W44438   4.020  26.340   0.358
76045W        W44439  17.107  11.183  13.170
76046W        W44440  31.051   4.545   3.100
76047W        W44441  15.595  27.422   3.296
76048W        W44442   0.130  29.047  13.851
76049W        W44443  19.190  22.484   0.415
76050W        W44444   3.695  39.435   4.123
76051W        W44445  27.711  37.532   2.624
76052W        W44446  29.131   4.008  14.970
76053W        W44447   4.795  43.357   4.106
76054W        W44448  18.202  23.930   0.248
76055W        W44449  44.542   9.282   0.442
76056W        W44450  13.735  13.600   0.741
76057W        W44451  23.453   0.497  11.408
76058W        W44452  30.606  15.789   4.042
76059W        W44453  24.693  34.106  12.890
76060W        W44454   6.405  39.057  12.668
76061W        W44455  34.389  14.392  11.696
76062W        W44456  28.073  25.062  14.714
76063W        W44457  12.660   7.764  13.597
76064W        W44458   3.475  42.784   0.760
76065W        W44459   6.132  14.587   3.276
76066W        W44460  22.759  31.397  12.990
76067W        W44461   0.842   3.602  11.173
76068W        W44462  29.533  14.325   2.411
76069W        W44463  39.520  17.814  11.202
76070W        W44464  17.529  35.650   0.938
76071W        W44465   0.289  34.850  12.088
76072W        W44466  43.544  24.712  13.569
76073W        W44467   2.077  40.816   4.089
76074W        W44468  41.574   1.361  13.024
76075W        W44469  41.218   3.797   1.251
76076W        W44470  24.945   5.202   1.661
76077W        W44471  33.988  35.314  14.261
76078W        W44472  10.691  25.577   3.455
76079W        W44473  16.589  36.491  11.666
76080W        W44474  40.048  22.266  14.983
76081W        W44475  36.642  26.567   0.041
76082W        W44476  22.769  32.335  12.881
76083W        W44477  44.496   0.612   9.841
76084W        W44478  29.339  40.550  12.529
76085W        W44479  33.508  21.653   1.401
76086W        W44480  30.060   4.217  13.020
76087W        W44481  14.226  31.655   0.431
76088W        W44482  41.585  15.339  14.938
76089W        W44483  35.850   9.822  10.812
76090W        W44484  15.212  37.959   2.694
76091W        W44485   9.737  34.514  13.362
76092W        W44486  18.503  37.732  11.974
76093W        W44487  12.677  39.415   2.332
76094W        W44488  12.427  25.761  12.432
76095W        W44489  32.476  32.194   0.434
76096W        W44490  27.664   3.525   3.332
76097W        W44491  22.714  27.734   0.489
76098W        W44492   3.756   4.586   3.330
76099W        W44493   6.776  21.274  10.479
76100W        W44494  17.778  23.492   4.040
76101W        W44495  17.011  11.627  14.862
76102W        W44496  21.906  10.791   5.401
76103W        W44497   0.490  34.980   4.824
76104W        W44498  35.133  12.470   1.929
76105W        W44499  26.247  17.331  11.449
76106W        W44500  20.481   0.792   2.843
76107W        W44501  26.194  14.789   1.282
76108W        W44502  35.458   9.143  14.775
76109W        W44503  13.131  41.324   1.467
76110W        W44504  40.365  13.378  14.106
76111W        W44505  14.775  43.783  12.830
76112W        W44506  25.016  17.627  10.636
76113W        W44507  19.580  40.764   1.389
76114W        W44508  35.979  24.073  14.263
76115W        W44509  10.200  23.293  12.860
76116W        W44510  15.037  44.975  13.399
76117W        W44511   8.690  41.858   0.419
76118W        W44512  33.470   2.963   3.598
76119W        W44513  35.280  26.108  12.476
76120W        W44514  36.910  33.150   0.969
76121W        W44515  18.769  33.458  11.539
76122W        W44516  24.759   6.154   4.861
76123W        W44517  35.781   0.576   1.298
76124W        W44518  21.237   2.707   1.764
76125W        W44519   9.647  43.081   1.373
76126W        W44520  25.075  37.245   3.567
76127W        W44521  28.930   1.327   4.104
76128W        W44522  29.562  32.170  12.987
76129W        W44523  19.180   9.356   0.912
76130W        W44524  32.602   4.322   3.547
76131W        W44525   0.004  13.051   1.839
76132W        W44526  37.429   5.799  13.535
76133W        W44527  23.681  39.322  10.898
76134W        W44528  32.408  10.873  11.596
76135W        W44529  23.920  43.878  11.049
76136W        W44530  32.761  30.133  14.895
76137W        W44531  44.893  13.653   3.103
76138W        W44532  44.780  41.199  14.326
76139W        W44533  21.022  19.637   2.280
76140W        W44534   6.251   6.721   4.802
76141W        W44535  11.149  38.423  14.790
76142W        W44536   0.891  10.937   2.167
76143W        W44537  16.869   9.886  11.080
76144W        W44538  39.968  11.524   0.695
76145W        W44539   8.184  42.857   2.655
76146W        W44540  26.579  33.512   1.398
76147W        W44541  10.551  14.160  10.342
76148W        W44542  35.120   5.176   4.583
76149W        W44543   8.530  40.424  12.630
76150W        W44544   3.099  24.375   4.651
76151W        W44545  26.982  24.568  14.201
76152W        W44546  17.089  44.944   1.438
76153W        W44547  24.977  34.581   0.785
76154W        W44548   4.067  14.843   0.559
76155W        W44549   6.200  39.526   0.297
76156W        W44550  12.727  15.693   1.224
76157W        W44551   4.253  36.733   4.122
76158W        W44552   2.011  43.709   4.024
76159W        W44553  34.002  37.400  12.862
76160W        W44554  28.359  23.671   4.605
76161W        W44555   5.577  40.331   1.527
76162W        W44556  10.265  31.917  14.008
76163W        W44557  16.562  28.868   1.680
76164W        W44558  33.825  42.801  14.819
76165W        W44559   8.089  25.783  12.230
76166W        W44560  13.680   1.737  12.653
76167W        W44561  42.871  38.592  12.027
76168W        W44562  44.241  20.933  13.926
76169W        W44563  14.793  19.040   4.638
76170W        W44564  25.134   0.360  12.054
76171W        W44565   7.391   6.854   1.438
76172W        W44566  41.089   2.994  13.076
76173W        W44567  42.079   8.280  11.529
76174W        W44568  42.801  14.892  14.912
76175W        W44569   3.906  11.309  10.167
76176W        W44570  35.444   5.417  11.536
76177W        W44571  43.657  17.505  13.036
76178W        W44572  18.140  32.599  12.358
76179W        W44573  10.186  28.566   1.932
76180W        W44574   4.418  34.840  11.877
76181W        W44575   6.312   7.186  13.570
76182W        W44576  29.126  19.968  11.706
76183W        W44577  20.975  38.280  10.590
76184W        W44578  37.091  16.035   1.275
76185W        W44579   6.671  41.738   1.931
76186W        W44580  17.157  15.139  13.928
76187W        W44581  33.369  26.001   3.563
76188W        W44582  28.877  17.676  12.463
76189W        W44583  22.843  11.688  11.549
76190W        W44584  28.162   8.140   4.060
76191W        W44585  37.542  34.490   1.599
76192W        W44586  11.293  37.544   2.801
76193W        W44587  15.248  26.599  12.501
76194W        W44588  19.096  15.405   1.260
76195W        W44589  42.737  37.198   3.672
76196W        W44590  21.451  11.763  10.170
76197W        W44591   0.779  17.078  10.777
76198W        W44592   9.471  20.197   0.118
76199W        W44593   9.174  17.004  13.392
76200W        W44594  26.278  24.526  12.254
76201W        W44595  37.039   4.555  11.013
76202W        W44596  36.216   0.730   4.880
76203W        W44597   3.745  10.957   3.309
76204W        W44598  35.802  38.830   0.427
76205W        W44599  10.756  23.725   3.223
76206W        W44600  41.110  14.098  10.730
76207W        W44601  10.045   4.538   0.997
76208W        W44602   7.301  31.423  14.418
76209W        W44603  27.182   5.806  11.977
76210W        W44604  14.215  37.537  12.856
76211W        W44605  34.408  24.270   0.313
76212W        W44606  24.127  16.895  12.063
76213W        W44607  17.176   0.042   0.791
76214W        W44608  30.852   2.753   4.901
76215W        W44609  35.501  31.938  11.480
76216W        W44610  36.512  32.666   4.207
76217W        W44611   2.973  30.995   4.259
76218W        W44612  33.840  42.731  13.013
76219W        W44613  18.582  10.132  14.548
76220W        W44614  20.920   0.519   0.361
76221W        W44615  21.145  24.946   3.112
76222W        W44616  33.762   2.749   2.742
76223W        W44617  17.152   5.225   4.603
76224W        W44618  39.967  16.826  10.697
76225W        W44619   4.778  33.904   3.245
76226W        W44620  19.604   8.821   3.668
76227W        W44621  14.663  44.475  10.333
76228W        W44622  27.405  26.276  11.009
76229W        W44623  44.234  38.418   2.287
76230W        W44624  39.403  29.055   1.638
76231W        W44625  28.734  40.594   2.003
76232W        W44626   0.941  19.295   1.485
76233W        W44627  35.493  24.743   4.582
76234W        W44628   9.869  40.024   3.134
76235W        W44629   4.877  22.204   4.880
76236W        W44630   7.365  27.167   5.201
76237W        W44631  24.857   1.492   2.301
76238W        W44632   1.402  17.413   2.599
76239W        W44633  17.400  34.420   2.715
76240W        W44634  43.737   7.929   1.230
76241W        W44635   7.435  43.876   2.874
76242W        W44636  36.594  12.182   3.615
76243W        W44637  24.086   0.862   1.345
76244W        W44638  25.991  28.462   2.228
76245W        W44639  36.828  23.684   1.860
76246W        W44640   5.901  17.776  10.576
76247W        W44641  36.845  31.160   4.150
76248W        W44642  12.243   6.955   1.879
76249W        W44643   6.022   7.940  14.342
76250W        W44644  29.188  25.614   2.801
76251W        W44645   2.731   8.860   4.657
76252W        W44646  27.439  32.346   2.393
76253W        W44647  27.037   9.319  13.630
76254W        W44648  33.163  24.642  11.862
76255W        W44649   9.779  20.579   1.188
76256W        W44650  20.586  13.149   0.212
76257W        W44651  20.282  27.851  13.945
76258W        W44652   4.130  26.563  10.555
76259W        W44653  30.517  13.116  11.767
76260W        W44654   8.744   1.096   3.897
76261W        W44655  43.439   0.024  13.798
76262W        W44656  38.845  35.020  14.065
76263W        W44657   2.717  10.331   2.190
76264W        W44658  25.389  35.861   3.695
76265W        W44659   0.816  23.747  13.445
76266W        W44660   4.153  12.803   1.934
76267W        W44661  22.125  22.558  12.776
76268W        W44662  28.591  39.403   1.191
76269W        W44663  10.630  14.107  14.001
76270W        W44664  41.027  35.421   2.233
76271W        W44665   8.785  41.033   2.672
76272W        W44666  26.011  30.439   0.434
76273W        W44667   5.449   7.318  14.939
76274W        W44668  32.403  11.533   2.332
76275W        W44669   0.001   9.451  12.530
76276W        W44670  21.693  26.009   1.239
76277W        W44671  13.642  40.871   3.666
76278W        W44672  20.308  14.804   1.317
76279W        W44673  17.807  19.555  14.811
76280W        W44674  35.015   1.082   2.824
76281W        W44675  17.113  32.038  12.070
76282W        W44676  32.577  21.209  10.552
76283W        W44677   4.574  39.529  14.571
76284W        W44678  31.609  26.883  12.171
76285W        W44679  17.305  29.160  11.082
76286W        W44680  25.846   4.063  13.995
76287W        W44681  10.114  38.588   4.725
76288W        W44682  42.220  34.452   3.890
76289W        W44683  13.845   6.741   0.801
76290W        W44684   9.878  44.564   0.886
76291W        W44685   1.813   8.164  11.958
76292W        W44686  25.916  38.438   4.655
76293W        W44687  21.355  12.963   0.291
76294W        W44688  30.768   2.326  12.597
76295W        W44689  20.457  33.049   2.852
76296W        W44690  34.180  13.714  14.798
76297W        W44691  10.821  25.175  14.351
76298W        W44692  29.239   0.522   3.643
76299W        W44693   2.546  37.387  13.526
76300W        W44694  15.119  33.877  14.970
76301W        W44695   0.271  26.236  10.365
76302W        W44696  40.768  30.957   3.801
76303W        W44697  33.887  32.880   3.790
76304W        W44698   5.475  27.079   2.363
76305W        W44699  43.048  19.937  10.834
76306W        W44700  19.371  18.499  13.902
76307W        W44701  23.668  15.437   2.223
76308W        W44702  21.501  17.220  11.539
76309W        W44703  28.023   2.517  13.974
76310W        W44704  26.456  43.261  12.943
76311W        W44705   1.758  29.166  12.862
76312W        W44706  11.933  30.382  13.301
76313W        W44707  10.638   2.405   3.389
76314W        W44708  18.207  39.812  12.848
76315W        W44709   0.436  16.493  11.891
76316W        W44710   6.868  13.624   4.904
76317W        W44711  29.552  36.050   4.139
76318W        W44712  30.161  17.751  13.883
76319W        W44713  34.269  13.057   4.010
76320W        W44714  19.819  25.212  14.877
76321W        W44715  14.982   5.387   5.460
76322W        W44716  20.625  22.824  12.658
76323W        W44717   0.423  28.864  12.032
76324W        W44718  17.525  28.094  11.933
76325W        W44719   4.192   9.295  14.876
76326W        W44720  18.052  44.423   3.236
76327W        W44721  44.242  27.839   4.614
76328W        W44722  33.397  37.938  13.977
76329W        W44723  34.256  30.176   3.739
76330W        W44724  17.419  27.091   1.736
76331W        W44725   3.987  17.132   3.262
76332W        W44726  28.145  33.079  13.836
76333W        W44727  19.282   8.307  13.238
76334W        W44728  22.585  32.832   3.933
76335W        W44729  39.252  22.517   4.600
76336W        W44730  40.762  33.264   1.608
76337W        W44731   4.436   7.737   0.344
76338W        W44732   9.153  14.758   4.954
76339W        W44733  39.547  27.606   1.367
76340W        W44734   0.909   7.194   4.064
76341W        W44735   8.856   7.608   2.903
76342W        W44736  16.317  27.016   4.550
76343W        W44737  21.470  34.794  14.240
76344W        W44738  30.274   5.452   0.506
76345W        W44739   9.327   2.930  14.070
76346W        W44740   2.435  35.084   4.216
76347W        W44741   2.798  42.289   2.317
76348W        W44742  35.020   4.972   1.044
76349W        W44743   8.705  15.852   3.196
76350W        W44744  23.588  42.464   1.874
76351W        W44745  35.079  37.906   1.020
76352W        W44746  28.044  25.010  11.947
76353W        W44747  18.677  15.642   4.146
76354W        W44748  15.061  19.609  11.949
76355W        W44749   5.381   9.107  11.511
76356W        W44750   7.769  32.968   0.482
76357W        W44751  38.327  13.094   1.135
76358W        W44752  30.458  24.947   4.130
76359W        W44753  26.383  35.523  13.007
76360W        W44754  20.439  18.816  12.412
76361W        W44755  41.905  38.041  14.551
76362W        W44756  42.143  36.336  13.797
76363W        W44757  29.484  23.933  12.138
76364W        W44758  28.698  30.036  10.751
76365W        W44759  11.164   4.279   4.511
76366W        W44760  14.244   4.847   2.401
76367W        W44761  21.954  10.464   2.138
76368W        W44762  11.180  17.333   2.034
76369W        W44763  24.634  15.650  12.934
76370W        W44764   4.904  27.781  13.433
76371W        W44765   0.452  35.521  10.965
76372W        W44766  21.730  36.933   3.571
76373W        W44767  39.218  38.066   4.789
76374W        W44768  37.008  17.794   1.129
76375W        W44769  29.638  16.155   1.409
76376W        W44770  44.044  14.190   1.599
76377W        W44771  44.792  28.040  11.408
76378W        W44772  38.117  23.095   2.193
76379W        W44773   0.849  14.558   4.171
76380W        W44774  41.210  32.924   5.019
76381W        W44775  11.266   7.026   0.858
76382W        W44776   2.483  38.202  13.029
76383W        W44777   6.331   3.876  11.918
76384W        W44778  21.026  20.246   0.866
76385W        W44779  29.585  36.136  10.963
76386W        W44780  18.721   0.576  14.168
76387W        W44781  26.458   3.566   5.332
76388W        W44782   2.035  31.115   4.071
76389W        W44783  40.957  17.447  10.635
76390W        W44784   8.120  11.667   1.779
76391W        W44785  11.744  38.514  13.934
76392W        W44786  13.899   2.333   5.081
76393W        W44787   2.359   6.691   4.905
76394W        W44788  43.814  43.160   4.066
76395W        W44789  23.341  24.972  13.858
76396W        W44790  34.253  37.453   1.453
76397W        W44791   4.824  20.805   3.735
76398W        W44792  15.256  28.121  13.842
76399W        W44793  22.948   7.843   2.881
76400W        W44794  18.225  33.617   2.321
76401W        W44795  32.616  31.644  14.393
76402W        W44796  14.272  14.857  12.463
76403W        W44797  10.643  21.573  12.536
76404W        W44798  40.819   3.279  13.411
76405W        W44799  24.978  39.009  10.577
76406W        W44800  27.563  40.874   0.734
76407W        W44801  22.350  43.522  12.350
76408W        W44802  21.055  22.327   0.971
76409W        W44803   5.496  19.849  11.919
76410W        W44804   4.567  33.693   4.893
76411W        W44805  27.391  14.523   0.032
76412W        W44806  10.362  11.919  10.325
76413W        W44807  36.502  30.294  11.935
76414W        W44808  20.310  40.897   4.775
76415W        W44809   8.253  25.266  12.154
76416W        W44810  23.223  11.229   1.773
76417W        W44811  34.884  30.202  13.399
76418W        W44812  18.832  34.104   0.261
76419W        W44813   6.239  35.167  11.138
76420W        W44814  33.108  36.907  13.016
76421W        W44815  31.677   8.410   1.819
76422W        W44816  31.899   3.829   3.007
76423W        W44817  11.772  16.717  13.376
76424W        W44818   6.120  16.394  12.053
76425W        W44819   4.523  43.082   2.087
76426W        W44820  40.318  10.304  11.214
76427W        W44821   0.614  38.262  12.058
76428W        W44822  21.249  26.378   0.321
76429W        W44823  10.298  23.972  14.926
76430W        W44824  34.969  39.131   3.184
76431W        W44825  19.704  38.075  10.219
76432W        W44826  23.558  33.860   3.684
76433W        W44827  24.244   9.290   0.898
76434W        W44828  20.177  20.735   1.890
76435W        W44829  40.397   1.396   1.499
76436W        W44830  29.813  28.933   4.245
76437W        W44831  16.385  25.479  14.807
76438W        W44832  12.600  38.908   4.506
76439W        W44833   3.821  23.108  12.042
76440W        W44834  17.878  13.065   0.496
76441W        W44835   2.424  37.992   0.871
76442W        W44836  44.133  39.065   1.584
76443W        W44837  22.337   8.087   1.343
76444W        W44838  13.289  14.219   2.163
76445W        W44839  16.783  16.598  11.279
76446W        W44840  30.333  28.955  14.428
76447W        W44841  40.859   7.728   1.221
76448W        W44842  38.760  31.455   0.304
76449W        W44843  34.368   9.862   1.818
76450W        W44844  11.626  23.254  11.581
76451W        W44845  35.001  27.416   3.379
76452W        W44846  22.556  27.876   2.933
76453W        W44847  29.446  39.512   0.941
76454W        W44848   0.384  13.349   0.903
76455W        W44849  22.343   7.203  14.690
76456W        W44850   5.540   8.116  11.536
76457W        W44851  28.360  44.081   2.233
76458W        W44852  39.526  20.275  11.768
76459W        W44853   1.764  35.000  13.268
76460W        W44854  28.658  32.789  12.579
76461W        W44855  12.352   3.983   4.180
76462W        W44856  13.676   1.870  13.147
76463W        W44857   1.340   9.309   2.835
76464W        W44858  15.838   9.685   1.466
76465W        W44859  11.728  19.473   9.936
76466W        W44860  30.542  21.764   1.777
76467W        W44861  23.118  39.890  11.460
76468W        W44862  16.597  38.089  14.185
76469W        W44863  38.749  12.593   2.569
76470W        W44864  32.325  32.547  14.088
76471W        W44865  34.371  29.016  11.201
76472W        W44866  21.979  36.278  14.578
76473W        W44867   5.224  35.316  12.369
76474W        W44868  18.935  16.686   1.735
76475W        W44869  39.504  39.246  14.044
76476W        W44870  16.813   2.255   0.777
76477W        W44871  11.789   7.805   3.908
76478W        W44872  39.277   4.596   9.884
76479W        W44873  36.844  10.250   1.957
76480W        W44874  11.539  29.995   3.645
76481W        W44875  13.171  22.548  11.966
76482W        W44876   0.721  23.641   4.584
76483W        W44877  38.595   7.209  13.447
76484W        W44878  29.284   2.657   2.696
76485W        W44879  42.351  29.002   0.171
76486W        W44880  14.795  19.103  10.843
76487W        W44881  24.192   1.916   1.370
76488W        W44882  10.771  34.575  14.048
76489W        W44883  19.644  37.673  13.432
76490W        W44884  24.996  10.159  12.957
76491W        W44885  43.791   8.773  12.631
76492W        W44886  32.361   2.064  14.962
76493W        W44887  38.161  44.883  13.327
76494W        W44888  33.611  24.923  12.448
76495W        W44889   8.581  36.882  14.771
76496W        W44890  13.617  34.361   0.366
76497W        W44891   2.128   4.193  10.702
76498W        W44892  29.423   3.709  14.439
76499W        W44893   8.905  25.771  13.427
76500W        W44894   2.737  30.053  10.330
76501W        W44895  33.895  38.118   2.151
76502W        W44896  21.510  31.645  14.399
76503W        W44897   1.463   3.068  13.385
76504W        W44898  44.808  29.076   0.395
76505W        W44899  24.434   7.433   1.703
76506W        W44900  29.548   0.535  11.586
76507W        W44901   7.740   6.692   2.249
76508W        W44902   5.189   4.288  13.972
76509W        W44903  14.124   5.227  11.571
76510W        W44904   9.076   2.498  12.391
76511W        W44905  20.440   5.023  10.941
76512W        W44906  37.561  38.496  12.010
76513W        W44907  29.367   2.755   4.824
76514W        W44908  42.220  32.361   1.404
76515W        W44909   5.348  28.832  11.014
76516W        W44910   0.024  23.898   1.909
76517W        W44911   3.087  29.998   2.218
76518W        W44912  40.250   3.681  13.874
76519W        W44913  19.297   5.247   1.278
76520W        W44914  15.060  24.633   3.794
76521W        W44915  10.408  22.060   1.900
76522W        W44916  43.696  36.277   2.280
76523W        W44917   6.218  43.860   0.301
76524W        W44918   0.096  21.612  12.249
76525W        W44919  19.179  35.484   2.955
76526W        W44920  34.984  14.735   2.794
76527W        W44921  20.313  23.714  13.495
76528W        W44922  31.214   8.255  13.963
76529W        W44923  32.376  39.287   2.682
76530W        W44924  28.215  11.824  11.513
76531W        W44925   1.844  30.650   1.935
76532W        W44926   2.738  19.772   2.318
76533W        W44927  33.524  41.088  14.424
76534W        W44928  41.365  41.949  14.901
76535W        W44929  21.040  25.375   4.048
76536W        W44930  26.395  32.018   4.052
76537W        W44931  43.550  10.269   1.299
76538W        W44932  37.867   8.498   4.912
76539W        W44933   8.695  12.675  12.672
76540W        W44934  23.218  30.963   0.868
76541W        W44935   8.236  38.367   3.108
76542W        W44936  29.580  39.911  14.314
76543W        W44937  44.443  27.081   2.683
76544W        W44938  24.622   8.862   2.289
76545W        W44939  16.852  30.503  12.953
76546W        W44940  23.276  34.969   2.196
76547W        W44941  38.206  39.069  10.544
76548W        W44942  10.727  14.217   4.679
76549W        W44943  15.832  22.683  13.512
76550W        W44944  38.542  34.457  11.846
76551W        W44945  25.123   2.806   0.744
76552W        W44946  27.250   1.200  12.034
76553W        W44947  23.071  31.362  10.531
76554W        W44948   3.335  26.074   3.262
76555W        W44949  26.707   5.715   4.177
76556W        W44950  42.844  43.018   1.240
76557W        W44951  21.720  29.617  12.432
76558W        W44952  26.984  30.602  10.484
76559W        W44953  16.151  16.606  13.473
76560W        W44954  22.013  38.547  14.430
76561W        W44955  31.060   3.389  10.671
76562W        W44956  12.637  35.554   1.312
76563W        W44957   2.959  12.851  14.900
76564W        W44958   1.970  39.516   0.306
76565W        W44959  10.892  31.933   2.812
76566W        W44960  33.972   2.304   3.010
76567W        W44961  27.084  10.378  13.351
76568W        W44962  38.584  31.840   4.144
76569W        W44963  27.167  29.511   1.403
76570W        W44964  19.853   8.986   4.939
76571W        W44965  24.441  11.436   1.748
76572W        W44966  21.167  18.434   4.180
76573W        W44967  27.814  32.391   2.761
76574W        W44968  31.148   7.591  10.363
76575W        W44969  33.449  24.273   4.267
76576W        W44970   0.766  16.107  11.138
76577W        W44971  14.038  21.651  13.010
76578W        W44972  20.136  28.125  11.326
76579W        W44973  34.421  35.056  12.259
76580W        W44974  33.372   0.834  13.096
76581W        W44975   3.969  17.273  12.067
76582W        W44976  15.141  18.542  10.552
76583W        W44977  22.099  42.104   2.500
76584W        W44978   4.385   0.942  12.077
76585W        W44979  27.692  18.019  11.701
76586W        W44980  11.581   4.296   1.700
76587W        W44981  30.314  33.178  13.522
76588W        W44982   7.924  17.663  11.155
76589W        W44983   8.453   0.239  13.535
76590W        W44984  18.024   4.937  11.107
76591W        W44985  29.496   3.355   1.879
76592W        W44986  17.895  15.189  13.442
76593W        W44987  11.133  10.842  11.710
76594W        W44988  13.644  29.384   0.482
76595W        W44989  38.064  35.333  11.990
76596W        W44990  14.252  33.838   4.212
76597W        W44991  14.707  31.474   4.398
76598W        W44992  26.302  26.628   0.635
76599W        W44993  24.090  42.559   3.124
76600W        W44994   9.983  20.200   0.257
76601W        W44995  34.015  28.489  12.964
76602W        W44996  39.844  36.574   4.243
76603W        W44997  14.977  41.232   1.225
76604W        W44998  15.816  43.205   9.903
76605W        W44999  41.861  31.803   4.220
76606W        W45000  20.628  19.447  14.744
76607W        W45001   5.118   2.317   0.217
76608W        W45002  39.965  34.888  14.788
76609W        W45003  30.950  37.463   0.289
76610W        W45004  29.209  14.280  10.733
76611W        W45005  18.523  30.224   2.317
76612W        W45006   7.442  34.345   2.244
76613W        W45007  31.641  30.801   3.793
76614W        W45008  12.704  17.501   1.992
76615W        W45009  33.402  43.944  12.109
76616W        W45010  10.126  43.563  14.201
76617W        W45011  10.952  37.315   2.471
76618W        W45012  29.615  41.166   4.146
76619W        W45013  43.628  20.516  12.145
76620W        W45014  17.287  25.966   4.286
76621W        W45015  34.061  19.816   0.399
76622W        W45016   1.311   7.987   4.721
76623W        W45017  34.530  28.095   4.325
76624W        W45018  36.170  13.953  11.992
76625W        W45019   9.862  20.637  13.788
76626W        W45020  16.452  14.331  11.602
76627W        W45021  44.235  44.446  14.172
76628W        W45022   7.791  32.649  11.223
76629W        W45023   3.990  16.671   4.619
76630W        W45024   1.512   7.328  13.938
76631W        W45025  41.903  30.832  11.264
76632W        W45026  24.535   6.825  10.643
76633W        W45027  40.428  25.015  11.157
76634W        W45028  38.664  25.172   5.003
76635W        W45029  12.284  27.663  11.420
76636W        W45030  25.562  14.729  12.479
76637W        W45031  22.796  27.559  13.960
76638W        W45032   1.398  28.617  11.856
76639W        W45033   8.350  19.516   0.784
76640W        W45034  34.570  23.479  11.858
76641W        W45035  13.045  20.250  12.757
76642W        W45036  27.467   9.843   4.205
76643W        W45037  10.378   0.731  14.723
76644W        W45038  38.358  43.759   2.534
76645W        W45039  12.082   8.644   0.442
76646W        W45040  36.775   3.949  14.169
76647W        W45041   2.458  10.864   3.789
76648W        W45042  38.120  36.063  14.951
76649W        W45043  35.488  39.033  13.475
76650W        W45044  31.521  37.142   2.944
76651W        W45045   4.306  16.289  14.379
76652W        W45046  17.269  42.216   4.619
76653W        W45047  42.724  28.223  13.828
76654W        W45048   3.339  32.904  11.186
76655W        W45049  27.234   3.379  14.424
76656W        W45050  43.796  22.925  12.988
76657W        W45051  24.114   9.915   9.734
76658W        W45052  14.105   0.472   1.393
76659W        W45053  27.198  29.663   2.832
76660W        W45054  42.199  44.614  10.584
76661W        W45055  23.879  39.472  13.943
76662W        W45056  15.804  43.978  10.349
76663W        W45057  24.219  14.877   1.849
76664W        W45058  20.155  33.982   0.223
76665W        W45059  29.589   9.782   1.208
76666W        W45060  30.970  15.935  13.465
76667W        W45061  16.516  12.000   4.177
76668W        W45062  19.164  11.841  14.690
76669W        W45063   9.675  41.291  10.994
76670W        W45064   5.978  33.591  10.747
76671W        W45065  12.330  23.964  12.676
76672W        W45066  12.473  43.013  11.596
76673W        W45067  30.485  31.384  13.535
76674W        W45068   6.349  42.003  11.036
76675W        W45069   3.868   7.660   2.639
76676W        W45070  18.605  37.550  14.264
76677W        W45071  22.310  12.641  13.069
76678W        W45072  18.878  27.686  13.925
76679W        W45073  38.534  43.913   2.999
76680W        W45074  43.187   5.508   1.520
76681W        W45075  24.489  17.120   3.270
76682W        W45076  31.917  20.800   0.358
76683W        W45077  19.072  36.813   0.778
76684W        W45078  36.178  27.364   0.269
76685W        W45079  27.734   8.627   0.298
76686W        W45080  31.174  14.804   3.958
76687W        W45081   6.116  44.141   0.751
76688W        W45082  29.496  17.402  11.874
76689W        W45083   9.970  12.347   1.757
76690W        W45084  25.480   8.145  12.046
76691W        W45085  28.677   7.639  13.362
76692W        W45086  15.627  34.500   4.240
76693W        W45087  11.119  44.204  14.267
76694W        W45088   8.266  28.882  13.639
76695W        W45089   7.184  17.310   3.749
76696W        W45090  35.553   6.194   4.236
76697W        W45091  20.215  42.370  11.182
76698W        W45092  16.846  21.317   4.614
76699W        W45093   8.710  38.199   1.401
76700W        W45094  16.345  30.870   4.081
76701W        W45095  38.823   4.886  13.842
76702W        W45096  25.765  27.952  13.147
76703W        W45097   9.666  41.820   3.537
76704W        W45098  25.674  24.523  14.329
76705W        W45099  12.250  11.777   0.721
76706W        W45100  21.639  41.615  12.941
76707W        W45101  15.120   5.540   4.623
76708W        W45102  38.451   9.180   2.292
76709W        W45103  43.047  33.076  13.870
76710W        W45104  28.458   7.446  11.147
76711W        W45105  33.482  19.592  13.056
76712W        W45106  26.498  12.229  14.784
76713W        W45107  17.340  25.531  14.254
76714W        W45108  39.567  19.794  12.123
76715W        W45109  19.281  22.026  14.538
76716W        W45110  33.225  25.901  10.666
76717W        W45111  18.997  31.904  10.248
76718W        W45112  21.433  35.099  10.653
76719W        W45113  24.108  29.723   4.263
76720W        W45114   1.420   9.168   0.270
76721W        W45115  15.654  42.447  13.852
76722W        W45116   6.912  22.624   1.793
76723W        W45117  29.180  13.468  12.868
76724W        W45118  22.845  42.914  14.860
76725W        W45119   0.948   1.938   1.953
76726W        W45120   8.403  33.881  12.587
76727W        W45121  31.475  38.396   1.003
76728W        W45122   1.738   6.905  11.755
76729W        W45123  25.980  16.465   4.012
76730W        W45124   3.128  37.780  10.329
76731W        W45125  33.037  43.411  11.107
76732W        W45126  17.803  24.763  10.050
76733W        W45127  40.893  10.472   2.797
76734W        W45128  26.655  23.225   0.079
76735W        W45129  35.193  20.625   1.965
76736W        W45130  38.925  14.230   4.952
76737W        W45131  29.903   1.849   1.727
76738W        W45132  14.326   8.753  13.551
76739W        W45133  37.651   6.908   3.670
76740W        W45134   3.410  22.112  10.147
76741W        W45135  31.034  26.566  11.066
76742W        W45136  26.064  23.419  13.719
76743W        W45137  33.872  17.623  11.730
76744W        W45138  15.773  40.065  12.714
76745W        W45139  42.369  15.771  13.360
76746W        W45140   4.473  19.933   4.949
76747W        W45141  12.256   6.399  13.954
76748W        W45142  40.099  44.234  14.052
76749W        W45143  26.656  30.909  13.000
76750W        W45144  26.698  40.341  12.597
76751W        W45145  35.869  27.461  14.353
76752W        W45146   6.730  15.037  13.841
76753W        W45147  15.614  27.973  13.480
76754W        W45148   0.743  24.256  11.919
76755W        W45149  36.980  34.323  13.980
76756W        W45150  31.210  14.039   4.113
76757W        W45151   9.309  15.550   1.333
76758W        W45152  17.576  13.777   4.094
76759W        W45153   9.033  26.735  14.919
76760W        W45154  11.289  33.148  13.384
76761W        W45155  33.919  14.805   2.839
76762W        W45156  17.581  33.885  11.909
76763W        W45157   7.614   6.260   1.008
76764W        W45158   2.179   4.518   1.942
76765W        W45159  14.266  13.868   3.835
76766W        W45160  14.117  25.990   2.893
76767W        W45161  10.186  13.935   1.895
76768W        W45162  21.187  24.628   3.516
76769W        W45163  31.938  41.454   1.927
76770W        W45164  33.509  32.134  14.837
76771W        W45165  41.072  44.804   0.329
76772W        W45166   4.446  27.873   2.634
76773W        W45167  35.835   3.409   2.920
76774W        W45168   3.450  15.315  13.373
76775W        W45169  17.943  14.582  12.711
76776W        W45170   3.963  16.187   3.366
76777W        W45171  23.147  37.688   2.727
76778W        W45172  43.316   8.356  11.113
76779W        W45173  30.435  37.419   0.439
76780W        W45174  21.024  19.690  13.229
76781W        W45175  29.148  33.565   1.757
76782W        W45176  28.898  25.045   1.881
76783W        W45177   4.866  12.730   3.714
76784W        W45178  20.510  26.755   1.390
76785W        W45179  14.692   5.470   2.165
76786W        W45180  26.726  26.447  13.756
76787W        W45181  32.222  41.101  12.983
76788W        W45182   6.181  37.812   0.806
76789W        W45183  38.003  18.585   1.925
76790W        W45184  21.310  18.004  14.388
76791W        W45185  17.710   2.114  13.483
76792W        W45186  18.319  40.561   3.193
76793W        W45187   8.690  42.909  13.036
76794W        W45188  44.376   9.372   3.188
76795W        W45189  20.354  38.577   1.364
76796W        W45190  37.949  21.293  14.030
76797W        W45191  26.122   5.420  10.701
76798W        W45192  24.175  41.242  14.302
76799W        W45193  43.431  23.828  13.559
76800W        W45194  17.575  35.361  12.571
76801W        W45195  39.050  42.332   4.439
76802W        W45196  10.159  26.179  12.599
76803W        W45197   5.689  43.361  12.529
76804W        W45198  16.877   0.712  12.074
76805W        W45199   4.754   5.788  12.110
76806W        W45200  27.396  38.185  14.903
76807W        W45201  18.059  24.691  11.632
76808W        W45202  42.945  33.924  14.310
76809W        W45203  40.283  40.217  11.108
76810W        W45204  38.328  25.338  10.844
76811W        W45205   1.740  39.620   0.746
76812W        W45206   7.677  44.737   3.702
76813W        W45207   2.779   5.700   2.098
76814W        W45208  10.132  20.068   2.188
76815W        W45209  15.139   6.292  13.341
76816W        W45210   3.339   7.780  13.763
76817W        W45211   2.734   1.902   1.379
76818W        W45212  10.517  38.254   1.216
76819W        W45213  34.970  43.023   4.141
76820W        W45214   6.871  18.570   4.322
76821W        W45215  42.421  38.518   5.174
76822W        W45216   7.907  30.021   2.638
76823W        W45217   0.462  23.280   1.273
76824W        W45218  44.254  37.279  12.848
76825W        W45219  10.573   9.449  13.245
76826W        W45220  18.763  31.537   2.889
76827W        W45221   0.821  26.897  11.189
76828W        W45222   0.298  36.063  11.630
76829W        W45223  40.727  24.544   2.342
76830W        W45224   9.049  44.754   1.673
76831W        W45225  42.095   5.847   9.795
76832W        W45226  10.799  26.450  11.026
76833W        W45227   5.755  15.849  13.421
76834W        W45228  20.115   4.863   0.799
76835W        W45229  44.683  40.951   1.769
76836W        W45230  38.610  18.655   2.841
76837W        W45231  33.895   1.830  12.089
76838W        W45232  14.846  18.690  12.623
76839W        W45233   4.679   2.852  13.409
76840W        W45234  32.054  23.343   0.057
76841W        W45235  36.126  14.134  13.041
76842W        W45236  31.998  39.837  10.495
76843W        W45237  18.258  29.967  13.732
76844W        W45238   2.821  15.178   0.161
76845W        W45239   0.777  41.609   3.984
76846W        W45240  12.345  28.787   2.299
76847W        W45241  21.302  44.431  12.229
76848W        W45242  10.363  25.223   3.257
76849W        W45243  22.157  35.752  11.582
76850W        W45244   5.923  32.890   1.322
76851W        W45245  19.640  38.590   4.111
76852W        W45246   9.309   5.155   4.573
76853W        W45247   7.256  43.796  12.001
76854W        W45248  18.878   0.838   1.030
76855W        W45249  15.188  18.238   4.550
76856W        W45250  17.772  18.290  12.600
76857W        W45251  44.066  13.375  14.837
76858W        W45252  25.294  10.660  13.771
76859W        W45253  41.060  25.017   4.145
76860W        W45254  31.382   1.306   1.823
76861W        W45255  33.958  14.211  11.904
76862W        W45256   1.586  26.366  11.021
76863W        W45257  42.470   3.283   0.019
76864W        W45258  20.348  33.406  11.626
76865W        W45259  43.463  42.355   1.163
76866W        W45260  15.151  29.618   2.131
76867W        W45261  27.590  24.974   0.425
76868W        W45262  32.877  33.541   1.386
76869W        W45263   7.103  11.755   2.656
76870W        W45264   1.032  42.354   4.392
76871W        W45265   8.880  41.825  14.930
76872W        W45266   6.796  15.004   4.719
76873W        W45267  43.016  35.908  11.963
76874W        W45268  17.754  37.067  14.867
76875W        W45269  26.657  44.782  13.722
76876W        W45270  36.707   9.316  13.547
76877W        W45271  12.137  28.508   3.224
76878W        W45272  14.745  10.936   3.062
76879W        W45273  28.994  13.294  11.638
76880W        W45274  42.342  12.112   3.175
76881W        W45275  15.648  43.929   3.861
76882W        W45276  27.505  20.222  10.773
76883W        W45277   4.613  32.465   2.469
76884W        W45278  43.864  33.293   1.858
76885W        W45279  23.762  10.710   2.044
76886W        W45280   2.420  28.132  10.688
76887W        W45281  32.854  11.779   3.667
76888W        W45282   4.891  31.145  11.635
76889W        W45283  19.229   1.780   3.679
76890W        W45284   5.165  38.520   1.439
76891W        W45285  17.119   1.742  13.023
76892W        W45286  42.870  41.493  11.141
76893W        W45287  39.523  36.542  13.017
76894W        W45288  22.809  32.455  10.198
76895W        W45289   1.837  44.524   1.259
76896W        W45290  23.230  27.577   4.407
76897W        W45291  14.813  18.831   0.426
76898W        W45292  40.158   0.320  13.989
76899W        W45293  18.801   8.821   2.636
76900W        W45294   4.709   8.133   1.783
76901W        W45295  39.867  30.911  12.915
76902W        W45296  22.739  35.403   1.345
76903W        W45297  32.659  21.872   3.966
76904W        W45298  22.900   5.824   4.998
76905W        W45299  15.188   4.949   2.532
76906W        W45300  13.160  37.017  14.277
76907W        W45301  36.865  23.438  11.154
76908W        W45302  15.555  17.711   2.758
76909W        W45303   4.355  20.708  13.954
76910W        W45304   3.801  15.302  10.234
76911W        W45305  43.378  16.222   0.697
76912W        W45306  19.976  30.625   2.322
76913W        W45307  24.552  42.208   4.481
76914W        W45308  35.820  32.344   2.361
76915W        W45309  30.602  43.748   1.816
76916W        W45310  32.803  37.498   0.134
76917W        W45311  20.077   5.244   1.761
76918W        W45312  29.025  15.805  10.755
76919W        W45313  11.203   9.584  14.717
76920W        W45314  18.623   3.968  11.889
76921W        W45315   1.095  25.093   4.461
76922W        W45316  16.888  31.503  13.993
76923W        W45317   9.096  27.098   5.449
76924W        W45318   6.454  14.273  13.859
76925W        W45319  34.561   1.392   4.537
76926W        W45320  11.868   5.041   4.718
76927W        W45321  17.826   7.205  13.324
76928W        W45322  21.212  13.145  11.562
76929W        W45323   8.346  34.169   0.915
76930W        W45324  20.508  23.610  12.064
76931W        W45325  18.662   5.861  10.838
76932W        W45326  20.077   2.800   2.231
76933W        W45327  26.482   0.757  11.870
76934W        W45328  42.490   3.425  12.963
76935W        W45329   5.240  16.508  13.827
76936W        W45330   0.295   1.779   3.500
76937W        W45331  14.663   3.033   2.619
76938W        W45332  15.689  34.546  11.718
76939W        W45333  28.733   0.112  11.209
76940W        W45334   9.247  35.984   1.211
76941W        W45335   5.958  22.171   2.785
76942W        W45336  25.243  31.498   0.356
76943W        W45337  23.484   8.254  12.594
76944W        W45338  44.746  35.976   4.982
76945W        W45339  26.460  12.506  12.586
76946W        W45340   2.723  30.214   3.128
76947W        W45341  29.145  11.850   2.705
76948W        W45342   9.576  21.052  11.097
76949W        W45343  22.498  40.477   0.196
76950W        W45344   9.095  26.114   0.944
76951W        W45345  28.690  13.327   0.388
76952W        W45346  15.036  22.706  12.837
76953W        W45347  38.535  37.827  12.443
76954W        W45348  25.980  10.818  13.392
76955W        W45349  29.731  11.954  13.330
76956W        W45350  30.490   1.916  13.897
76957W        W45351  15.153   1.110  11.655
76958W        W45352   6.907  13.975   4.425
76959W        W45353  43.713   3.191   3.121
76960W        W45354  41.931  19.591  12.893
76961W        W45355  25.168   4.731   3.796
76962W        W45356  15.749   7.816  12.067
76963W        W45357   2.315  34.883   2.747
76964W        W45358  19.011  31.145  11.676
76965W        W45359  36.242  18.921   0.233
76966W        W45360  12.866  11.691   2.683
76967W        W45361  31.636  22.092  12.949
76968W        W45362   0.797  38.045  13.393
76969W        W45363   0.720  39.562   0.797
76970W        W45364  14.789  41.623  10.699
76971W        W45365  28.671  36.368  13.553
76972W        W45366  24.015  24.064   3.049
76973W        W45367   0.574   9.713   4.638
76974W        W45368   4.376  33.375  12.891
76975W        W45369  19.225  15.283   3.191
76976W        W45370   0.647  44.461  14.024
76977W        W45371  30.390   9.183   2.330
76978W        W45372  30.450  35.239   3.418
76979W        W45373  23.136  24.544  13.672
76980W        W45374  41.390  11.165   2.702
76981W        W45375  44.464  12.362  10.513
76982W        W45376  14.622  39.760  11.163
76983W        W45377   3.223   2.767  13.437
76984W        W45378   4.734  16.543   9.856
76985W        W45379   8.664  43.911   4.363
76986W        W45380  13.204  16.699   0.591
76987W        W45381  31.982  41.776   0.055
76988W        W45382   1.743  42.090   2.328
76989W        W45383  34.975   4.514  14.708
76990W        W45384  21.012  41.837  13.895
76991W        W45385   5.005  34.590  11.709
76992W        W45386  36.098  18.557   1.546
76993W        W45387  44.547  32.013   4.093
76994W        W45388  14.702  14.594  12.613
76995W        W45389   3.262   6.238  12.964
76996W        W45390   4.046   8.332  12.584
76997W        W45391  17.522   1.303  13.793
76998W        W45392  10.671   2.338   0.240
76999W        W45393  22.053  41.791  12.350
77000W        W45394   0.562  25.508  12.449
77001W        W45395  42.032   7.761  12.460
77002W        W45396   0.853  43.192   1.954
77003W        W45397  12.744   6.159   0.426
77004W        W45398   7.069   3.402   2.383
77005W        W45399  42.247  20.083   2.468
77006W        W45400  26.501  10.219   3.220
77007W        W45401  28.146   6.895   1.232
77008W        W45402  12.889  24.080  12.275
77009W        W45403  36.082   9.686   2.887
77010W        W45404  43.495  24.288  14.854
77011W        W45405   5.731  26.457   3.608
77012W        W45406  31.303  34.853  12.029
77013W        W45407  42.839  34.368   0.441
77014W        W45408  15.618  41.319  11.288
77015W        W45409  26.628  16.549  13.827
77016W        W45410  41.977   0.029  10.793
77017W        W45411  36.955   6.448   1.620
77018W        W45412   3.855   0.424   4.355
77019W        W45413   7.197  32.494  13.388
77020W        W45414   4.851  24.131   3.801
77021W        W45415  31.185  18.017   0.393
77022W        W45416  14.760   7.178  11.545
77023W        W45417  26.630   7.953   2.907
77024W        W45418  40.441  12.699  10.804
77025W        W45419  27.008   9.835  13.538
77026W        W45420  37.222  20.870   5.043
77027W        W45421  29.855   7.331   4.179
77028W        W45422   8.624   8.691  14.070
77029W        W45423   3.462   1.716  13.457
77030W        W45424   5.120  32.892   0.829
77031W        W45425  27.429   2.323   3.920
77032W        W45426  42.655  14.473  13.067
77033W        W45427  36.473   5.847  11.559
77034W        W45428  17.147  28.035  10.644
77035W        W45429  29.022  29.458  14.444
77036W        W45430  12.183  34.530  12.894
77037W        W45431   9.204   0.808  14.909
77038W        W45432  26.090  24.785  11.319
77039W        W45433  30.974  33.819  14.812
77040W        W45434  17.215  42.265  14.316
77041W        W45435  32.822  21.969   0.391
77042W        W45436   2.631  22.524  13.145
77043W        W45437  11.627  34.169   1.814
77044W        W45438  18.086  25.907   2.178
77045W        W45439  34.190  12.952  13.893
77046W        W45440  24.193  10.389   3.639
77047W        W45441   5.640  31.466   3.166
77048W        W45442  40.720  32.940  11.937
77049W        W45443  19.469   3.368  14.331
77050W        W45444   2.384  36.229   4.155
77051W        W45445   4.758  20.975   2.217
77052W        W45446  20.714  23.197  12.303
77053W        W45447  27.622   1.462  14.199
77054W        W45448  34.255  20.282  12.201
77055W        W45449   0.042   0.368   2.617
77056W        W45450  29.195  17.790   3.220
77057W        W45451  18.255  16.110  13.600
77058W        W45452  10.649  33.535   1.151
77059W        W45453  39.363  19.170   0.886
77060W        W45454   7.393  15.223   4.250
77061W        W45455   3.767  11.622  13.783
77062W        W45456   5.313  25.459  13.357
77063W        W45457   5.315  31.878  11.965
77064W        W45458  16.254  41.019   1.631
77065W        W45459  36.309   4.351   1.298
77066W        W45460  37.835  20.465   0.217
77067W        W45461  44.353  11.870   0.375
77068W        W45462  17.648  40.740  10.729
77069W        W45463  40.114  19.108  12.123
77070W        W45464   3.979   4.032   0.704
77071W        W45465  17.292  25.608  14.746
77072W        W45466  40.502  21.341  14.759
77073W        W45467   8.986  23.127  10.311
77074W        W45468  21.981  39.552   2.627
77075W        W45469  32.479  37.811  14.021
77076W        W45470  37.412   6.138   3.810
77077W        W45471   1.768  43.442  14.342
77078W        W45472  10.630  25.431  11.958
77079W        W45473  12.745  30.577  13.998
77080W        W45474  44.281  13.143  13.933
77081W        W45475  37.220   7.777  11.156
77082W        W45476  32.986  13.172   4.108
77083W        W45477  16.415  36.603  10.828
77084W        W45478  27.672  21.201  12.860
77085W        W45479  39.005   4.730  13.363
77086W        W45480  27.856  24.921   4.519
77087W        W45481  36.612  21.168  10.775
77088W        W45482   7.514  29.925  12.084
77089W        W45483  15.495  31.071  13.005
77090W        W45484  23.291   7.572  11.514
77091W        W45485  28.089  25.215   1.315
77092W        W45486  44.331  41.322  10.230
77093W        W45487  42.323   4.898   3.625
77094W        W45488  31.148  32.661   2.849
77095W        W45489   5.725  38.750  10.954
77096W        W45490   3.447   2.368   0.299
77097W        W45491  21.225  16.185  12.000
77098W        W45492   6.689   0.024   3.297
77099W        W45493  17.811  15.167  10.652
77100W        W45494  41.435   8.220  11.163
77101W        W45495  42.796  33.680   4.596
77102W        W45496  27.144   0.413  11.235
77103W        W45497  41.742   7.547   3.186
77104W        W45498  36.512   4.707   3.141
77105W        W45499  24.134  19.321  11.487
77106W        W45500   0.862  19.996  14.389
77107W        W45501   5.522   7.838   4.144
77108W        W45502   7.801   7.373  14.735
77109W        W45503  36.974  34.400   2.631
77110W        W45504  14.242   9.448  13.769
77111W        W45505   7.398  37.647   1.577
77112W        W45506   1.289   2.283  13.002
77113W        W45507  16.728  27.398   2.716
77114W        W45508   4.687  22.170  12.574
77115W        W45509  33.785  42.065   3.683
77116W        W45510  44.265  29.774   0.482
77117W        W45511  22.797  42.340   4.865
77118W        W45512  24.671  27.635   4.779
77119W        W45513  33.464   0.901  12.095
77120W        W45514  44.222  10.329   2.356
77121W        W45515  14.898  12.799   2.131
77122W        W45516  40.246   0.794  12.362
77123W        W45517  40.428  23.382  11.351
77124W        W45518   2.068  34.322   0.243
77125W        W45519  44.699   8.589   4.941
77126W        W45520  44.452  35.085  11.732
77127W        W45521   3.122  17.569  11.151
77128W        W45522  26.099  30.812  12.840
77129W        W45523   1.858  44.674  14.395
77130W        W45524  13.577  24.475  14.305
77131W        W45525  42.978  36.105   0.847
77132W        W45526  16.561  14.336   4.019
77133W        W45527   4.164  42.685  12.217
77134W        W45528  43.521   6.208  14.790
77135W        W45529  24.248   2.137  13.946
77136W        W45530  29.038   5.209  13.518
77137W        W45531  36.522   3.173   3.718
77138W        W45532  39.380  28.874   2.498
77139W        W45533   1.552  27.953  14.919
77140W        W45534  23.379   2.148   1.683
77141W        W45535  37.648  41.941   0.257
77142W        W45536  26.414  33.445   0.880
77143W        W45537  24.439  12.147   3.283
77144W        W45538   3.600  29.138   0.827
77145W        W45539   5.200  31.455   2.889
77146W        W45540  22.446  30.402   1.765
77147W        W45541  34.495  26.167   4.184
77148W        W45542   3.314   6.691   1.122
77149W        W45543  34.289  21.906  12.538
77150W        W45544  20.215  40.984   3.187
77151W        W45545  16.690  14.332   2.668
77152W        W45546  19.610  16.600  10.729
77153W        W45547  38.365  20.181  14.273
77154W        W45548  37.802  33.993  11.972
77155W        W45549  22.706  10.662  11.049
77156W        W45550  12.405  32.178  12.146
77157W        W45551  23.713  15.556  10.905
77158W        W45552  20.286  44.819  14.949
77159W        W45553  36.786  24.723  12.975
77160W        W45554   8.585  22.589   0.492
77161W        W45555  44.387  17.881   4.457
77162W        W45556  37.094  44.461   3.843
77163W        W45557   3.148   1.025  11.370
77164W        W45558   7.866  34.239   0.760
77165W        W45559  20.793   6.272  12.118
77166W        W45560  42.834  42.470   3.721
77167W        W45561  37.723  24.221   1.038
77168W        W45562  43.028  21.666   3.070
77169W        W45563  13.658  29.134  13.462
77170W        W45564  25.355  33.170   3.159
77171W        W45565  27.199  39.592  11.617
77172W        W45566  36.981  16.346  13.384
77173W        W45567  39.784  24.576  12.083
77174W        W45568  33.427  24.989  10.555
77175W        W45569   7.202  44.065   1.316
77176W        W45570  33.154  34.125   2.290
77177W        W45571   5.845   5.341   2.750
77178W        W45572  26.206  11.283  12.081
77179W        W45573  12.299  14.836   2.907
77180W        W45574  31.046  26.156  10.718
77181W        W45575  26.165  36.659  13.571
77182W        W45576  34.001  23.721  12.543
77183W        W45577   9.661  35.491  11.985
77184W        W45578  18.850   7.528   1.871
77185W        W45579  31.839   7.215   4.073
77186W        W45580   3.204  30.005  10.742
77187W        W45581  34.553   0.947   0.507
77188W        W45582  34.622  23.034  12.122
77189W        W45583  14.505  18.688   0.023
77190W        W45584  34.931   4.417   3.188
77191W        W45585  18.331  33.681  11.728
77192W        W45586  43.793  30.407  14.244
77193W        W45587  38.296  34.299  14.415
77194W        W45588  19.919   1.767  12.521
77195W        W45589  30.624  31.993  11.976
77196W        W45590   6.118  13.056   1.284
77197W        W45591   2.795  26.185  14.842
77198W        W45592  33.205  41.229   1.992
77199W        W45593  11.546   5.257   4.364
77200W        W45594  26.989  29.719  14.298
77201W        W45595   7.151  22.874  13.761
77202W        W45596  26.898  21.655  12.540
77203W        W45597  16.020   5.787   4.466
77204W        W45598  40.946  40.772  13.043
77205W        W45599  42.320  27.015  14.486
77206W        W45600  42.775  32.511  13.118
77207W        W45601  18.185  41.034  14.992
77208W        W45602  44.245   9.738   0.395
77209W        W45603  20.225  26.565  13.738
77210W        W45604  26.446   6.814   4.942
77211W        W45605  38.641  11.316  13.076
77212W        W45606  22.467  39.579  14.452
77213W        W45607  28.073   0.041   0.466
77214W        W45608  35.659  11.954   2.885
77215W        W45609  13.713   4.350   4.729
77216W        W45610  15.804   5.309   4.942
77217W        W45611  44.630  28.342  14.410
77218W        W45612  10.834  15.470  14.392
77219W        W45613   6.775  24.768   3.513
77220W        W45614   0.712  25.096   1.873
77221W        W45615   3.287  30.164   1.716
77222W        W45616   1.659  37.943  11.486
77223W        W45617  29.063  36.128   3.930
77224W        W45618  35.918  26.631  10.290
77225W        W45619   0.268  11.308   3.878
77226W        W45620  30.960  41.520  12.007
77227W        W45621  30.507  37.626  12.785
77228W        W45622   8.230  22.370   1.286
77229W        W45623   5.610   9.083   2.640
77230W        W45624  30.232  37.292   1.278
77231W        W45625  24.544  36.045  13.284
77232W        W45626  36.787  39.057  12.969
77233W        W45627  27.094   9.975  11.613
77234W        W45628  22.633  27.097  13.762
77235W        W45629  14.408  10.742   3.421
77236W        W45630  11.603   5.710   4.076
77237W        W45631  31.486  44.792  14.810
77238W        W45632  40.744  12.662   4.535
77239W        W45633  41.436  24.354  13.825
77240W        W45634   6.710  23.463   1.790
77241W        W45635  19.698  21.803  12.246
77242W        W45636  12.696  12.277  12.476
77243W        W45637  10.576  32.087   2.383
77244W        W45638   6.252   6.269   4.578
77245W        W45639  16.642  11.081   1.907
77246W        W45640   2.055  21.984  10.692
77247W        W45641   4.597  37.973   1.841
77248W        W45642  12.858  29.598   0.792
77249W        W45643  31.764  35.171  14.461
77250W        W45644  41.994  24.453   3.678
77251W        W45645  22.133  10.777   4.526
77252W        W45646  23.732  12.119   1.633
77253W        W45647  10.323  17.144   4.550
77254W        W45648  39.384  15.101  14.437
77255W        W45649  32.523  21.204  12.614
77256W        W45650  12.259  30.717  13.659
77257W        W45651  10.963  26.938  10.673
77258W        W45652  19.929  36.983   0.396
77259W        W45653  17.305  14.668   1.787
77260W        W45654   2.958  24.911  11.487
77261W        W45655  24.437  22.903  11.985
77262W        W45656  10.181  25.342  11.534
77263W        W45657   5.961  21.995  14.911
77264W        W45658  20.205  17.163  10.199
77265W        W45659  43.994  42.724   1.852
77266W        W45660   7.779  44.718  12.841
77267W        W45661  39.155  14.598   9.959
77268W        W45662  39.989  11.572   4.157
77269W        W45663  37.798  35.478   1.201
77270W        W45664   2.009  14.740   2.164
77271W        W45665  34.022  29.524   3.605
77272W        W45666  44.952  20.917   0.412
77273W        W45667  21.018  15.623   1.637
77274W        W45668  15.133  26.297  11.578
77275W        W45669   3.040  37.080   3.614
77276W        W45670   7.942   3.129  10.665
77277W        W45671  19.347   6.737   3.711
77278W        W45672  15.073   2.359  11.284
77279W        W45673  33.365  39.808   4.212
77280W        W45674  34.140   4.298   2.765
77281W        W45675  31.151  31.974  12.001
77282W        W45676  20.794   7.629   3.224
77283W        W45677  10.454  36.021  12.956
77284W        W45678  35.614  22.992   1.785
77285W        W45679  26.945   0.479  13.371
77286W        W45680   4.791   1.062  10.795
77287W        W45681  38.185  20.230  12.515
77288W        W45682   6.199  13.909   0.259
77289W        W45683  32.855  26.980   2.404
77290W        W45684   1.517  17.884   1.262
77291W        W45685   3.514  34.486  11.604
77292W        W45686   2.563   5.253   3.193
77293W        W45687  39.268  16.617  11.206
77294W        W45688  44.618   4.384  11.059
77295W        W45689  10.750  36.440  12.101
77296W        W45690   9.456  18.993  13.396
77297W        W45691  35.549  31.914   3.685
77298W        W45692  40.584  29.371   3.680
77299W        W45693   4.443  15.277   1.321
77300W        W45694  11.106  41.580  10.614
77301W        W45695   4.421  16.021   9.942
77302W        W45696   1.811   1.709  14.608
77303W        W45697  31.644  35.495  14.848
77304W        W45698  26.384   0.501   0.476
77305W        W45699   8.936  27.237   4.434
77306W        W45700  24.552  43.983   2.703
77307W        W45701  41.853  27.155   2.883
77308W        W45702  43.005  43.066   0.409
77309W        W45703  35.308  41.526  13.664
77310W        W45704  18.596  32.509   0.627
77311W        W45705  33.618  17.741   2.661
77312W        W45706  10.233  16.728  10.951
77313W        W45707  29.212   7.735  11.462
77314W        W45708  13.129  23.281   1.233
77315W        W45709  26.059   0.812  13.304
77316W        W45710  25.471  22.593   3.141
77317W        W45711   2.717   9.845   0.286
77318W        W45712   8.244  36.330   0.709
77319W        W45713   6.424  17.291   0.898
77320W        W45714  41.439  14.364  14.028
77321W        W45715  13.374  29.541   3.590
77322W        W45716  27.164  30.209   4.083
77323W        W45717  17.722   4.280  13.832
77324W        W45718   8.343  37.679   1.332
77325W        W45719  12.590  26.695  12.470
77326W        W45720  17.585  41.286   3.607
77327W        W45721  32.187  32.453  12.426
77328W        W45722  24.670  37.840   1.816
77329W        W45723  37.973  14.604  11.950
77330W        W45724  16.581  19.625  10.505
77331W        W45725  42.963   7.345  12.145
77332W        W45726  34.336  39.260   2.883
77333W        W45727   0.467  18.545  11.205
77334W        W45728  31.089   4.273  10.755
77335W        W45729  32.187  33.411   5.197
77336W        W45730  15.009   9.703   1.832
77337W        W45731  23.475  15.756  14.792
77338W        W45732   7.017  17.199   1.842
77339W        W45733   7.818  14.712  14.413
77340W        W45734   1.674  26.863  11.139
77341W        W45735  20.204  32.426   2.219
77342W        W45736  10.650  38.362  14.950
77343W        W45737  27.718  14.771  11.936
77344W        W45738  21.021  42.698   4.624
77345W        W45739   8.711  11.491   2.370
77346W        W45740  26.096   5.113   2.650
77347W        W45741   9.501  42.589   2.996
77348W        W45742  21.205   3.384   3.732
77349W        W45743  29.072  32.049  12.942
77350W        W45744  21.057  22.054  12.116
77351W        W45745  16.136  16.772   1.809
77352W        W45746  17.613  42.318  12.869
77353W        W45747  15.246   6.092   3.295
77354W        W45748  17.576  32.361   3.794
77355W        W45749  37.367   0.185  12.190
77356W        W45750  15.351  19.787   0.836
77357W        W45751  35.644  18.084   4.777
77358W        W45752  25.979  42.814  14.839
77359W        W45753  44.420  22.733   4.515
77360W        W45754  20.127  15.127  12.167
77361W        W45755  26.385  26.437  12.786
77362W        W45756  26.243  17.231   0.294
77363W        W45757  14.299  14.213   2.177
77364W        W45758  10.091  20.153   0.795
77365W        W45759  14.781  34.968  12.173
77366W        W45760   0.120  16.967  13.854
77367W        W45761   4.400  39.203  10.388
77368W        W45762  18.681  25.998  14.389
77369W        W45763  39.355  25.185  11.054
77370W        W45764  24.654  25.960  12.693
77371W        W45765  38.019   5.796   0.599
77372W        W45766  28.316  19.730  14.925
77373W        W45767  32.406   9.801  12.259
77374W        W45768   9.447   7.386   3.622
77375W        W45769  16.482  41.263  14.779
77376W        W45770  38.079   3.827   3.524
77377W        W45771  12.512  40.548  12.972
77378W        W45772  14.408  23.046   2.248
77379W        W45773  26.119  11.641   2.766
77380W        W45774  27.021  11.159   9.940
77381W        W45775  25.963   1.299   2.655
77382W        W45776  29.924  15.692   3.865
77383W        W45777  22.810  14.703  12.505
77384W        W45778  42.001   2.745  14.288
77385W        W45779   9.398  11.796  13.847
77386W        W45780  12.773  15.891  13.824
77387W        W45781  30.643  15.494   1.933
77388W        W45782  43.991  15.614  11.490
77389W        W45783  41.302  24.580   3.227
77390W        W45784  24.541  41.196  12.192
77391W        W45785   5.263  24.743   0.406
77392W        W45786  26.413   7.007  11.913
77393W        W45787   4.305  35.051  12.496
77394W        W45788  36.544  38.175   0.704
77395W        W45789  44.460   9.310  10.660
77396W        W45790  13.984  18.122   1.788
77397W        W45791  28.419   3.700  13.585
77398W        W45792  34.521  25.136  12.549
77399W        W45793   5.904   3.382  12.400
77400W        W45794   6.276  42.864   3.731
77401W        W45795  14.262  33.390   3.996
77402W        W45796  29.673  13.582   1.178
77403W        W45797  43.012  13.342   5.270
77404W        W45798  35.796  11.657  14.294
77405W        W45799   7.889  34.729   4.672
77406W        W45800  44.469   5.772  12.853
77407W        W45801  41.994   6.970  12.165
77408W        W45802   3.313  11.910  13.886
77409W        W45803  15.617  27.695  12.536
77410W        W45804  42.014  35.544  13.144
77411W        W45805  38.300   8.216  14.125
77412W        W45806   9.868  39.524  10.705
77413W        W45807  26.814  37.469  11.548
77414W        W45808  23.100   3.448   1.888
77415W        W45809  14.646  32.155   4.710
77416W        W45810  12.628  24.598   1.367
77417W        W45811   9.109  25.292  10.475
77418W        W45812  14.854  28.902   2.698
77419W        W45813   2.357  38.537   0.824
77420W        W45814   9.634   0.531   3.294
77421W        W45815   7.256  36.109  14.331
77422W        W45816  26.295  32.507  12.507
77423W        W45817   4.659  12.596  14.259
77424W        W45818  34.381  36.942   1.360
77425W        W45819  17.076   0.362   3.666
77426W        W45820  16.978  10.674  11.492
77427W        W45821   4.429   1.593   0.836
77428W        W45822  14.777  36.882   3.585
77429W        W45823  28.966  22.726  13.224
77430W        W45824  35.812  13.439  11.219
77431W        W45825  13.715  16.683   4.313
77432W        W45826   2.906  40.325  14.359
77433W        W45827   6.627   0.886   3.834
77434W        W45828  37.063   2.421  12.911
77435W        W45829  41.967  32.362   0.655
77436W        W45830   5.711  41.309  14.259
77437W        W45831  15.848  32.414  14.136
77438W        W45832   4.494  14.021   1.320
77439W        W45833  15.675  32.709  12.445
77440W        W45834  13.678  44.383   1.250
77441W        W45835  34.654   2.775  12.892
77442W        W45836  15.103  40.460  10.235
77443W        W45837  42.983   5.438  13.517
77444W        W45838   0.309  25.064  13.190
77445W        W45839  38.594  19.199   4.154
77446W        W45840   1.313  15.121  11.460
77447W        W45841  25.565  24.197  13.926
77448W        W45842  42.250  40.030   4.747
77449W        W45843  14.498  33.397   0.361
77450W        W45844  22.236  18.353  11.528
77451W        W45845   5.226  26.309  13.544
77452W        W45846  16.337   8.235   4.788
77453W        W45847  27.967  37.131  10.492
77454W        W45848   1.501  44.272  13.830
77455W        W45849  30.683  30.131  12.897
77456W        W45850   0.805  15.650  14.508
77457W        W45851   5.229   6.656   2.045
77458W        W45852  20.747  12.375   4.349
77459W        W45853  37.117  16.062  11.707
77460W        W45854  23.122  13.930  12.958
77461W        W45855   0.545  17.717   2.281
77462W        W45856   4.926   0.126  13.497
77463W        W45857  43.343  17.894   0.262
77464W        W45858  10.691  17.065   3.305
77465W        W45859  36.190  35.666   3.170
77466W        W45860  34.612  35.516   4.181
77467W        W45861  34.623  30.031   2.657
77468W        W45862  44.685  26.568   0.968
77469W        W45863   0.374   4.736   2.667
77470W        W45864   9.276  43.350   4.236
77471W        W45865  24.915  31.426   2.958
77472W        W45866  14.728  42.546   4.635
77473W        W45867  30.497  35.871   0.934
77474W        W45868  44.136   1.501   2.642
77475W        W45869   9.111  19.347   2.348
77476W        W45870   5.125  25.993   1.475
77477W        W45871  21.063  37.666  12.615
77478W        W45872  20.989  38.417  11.389
77479W        W45873  35.859  29.922  12.463
77480W        W45874   3.799  32.365   4.334
77481W        W45875   8.924  15.824   0.167
77482W        W45876  30.454  17.465   0.899
77483W        W45877   8.846  37.139  10.430
77484W        W45878  25.940   0.314  13.386
77485W        W45879  22.085   9.256  14.952
77486W        W45880  14.185  32.923   4.675
77487W        W45881  30.986   5.935   3.688
77488W        W45882  26.227  17.279  10.449
77489W        W45883  30.654  42.197   0.312
77490W        W45884  44.840  32.733   4.635
77491W        W45885  40.442   8.424   3.992
77492W        W45886  11.360  14.128  10.532
77493W        W45887   6.945   8.500   1.793
77494W        W45888  36.785  15.211   4.106
77495W        W45889   3.479  14.300  14.742
77496W        W45890   0.246  26.702  12.533
77497W        W45891  38.957   1.207   0.953
77498W        W45892  38.424  29.088   4.668
77499W        W45893  12.538  44.846  10.645
77500W        W45894  39.016  28.252  10.086
77501W        W45895  23.759  38.061   4.365
77502W        W45896  16.609   1.476  10.554
77503W        W45897   4.834   0.085  10.643
77504W        W45898  40.583  11.932   3.649
77505W        W45899  37.129  24.243  13.886
77506W        W45900   3.326  10.439  11.136
77507W        W45901  29.428   1.364   2.821
77508W        W45902  31.742  35.581  13.499
77509W        W45903  37.197  15.554   1.176
77510W        W45904  22.828  40.367  14.808
77511W        W45905  15.400  41.911  14.755
77512W        W45906  40.763  37.914   4.361
77513W        W45907   6.232  44.362   2.555
77514W        W45908  15.288  41.877  12.929
77515W        W45909  32.163  13.956  14.784
77516W        W45910   7.735   6.864  14.728
77517W        W45911  38.653  13.275   4.429
77518W        W45912  20.692  35.074  11.140
77519W        W45913  36.094  23.679  10.763
77520W        W45914   8.807  21.143  10.658
77521W        W45915  19.333  26.437   1.938
77522W        W45916  17.392  22.345  10.360
77523W        W45917  17.221   7.785  12.073
77524W        W45918  23.275  14.565  12.005
77525W        W45919  42.856  22.998   0.979
77526W        W45920  22.042  39.377  14.725
77527W        W45921  44.634  33.475   3.839
77528W        W45922  21.176   4.051  11.983
77529W        W45923  24.862  21.295   1.428
77530W        W45924  18.835  13.216   0.281
77531W        W45925  26.444  19.315  11.245
77532W        W45926   1.895  39.596  10.802
77533W        W45927  23.574  34.838   3.863
77534W        W45928  25.604  16.598   4.338
77535W        W45929  29.870  13.104  12.164
77536W        W45930  34.148  16.336   0.722
77537W        W45931  26.148  37.724   4.257
77538W        W45932  41.392  36.126   1.911
77539W        W45933  13.801  35.575   2.388
77540W        W45934   4.225  39.539  10.740
77541W        W45935  15.573  11.197   2.852
77542W        W45936  26.232  21.141  13.613
77543W        W45937  31.539   6.738   1.117
77544W        W45938  30.519  39.624   1.616
77545W        W45939  19.597  37.662  14.818
77546W        W45940  20.972   8.835  11.498
77547W        W45941   5.455  22.860  13.991
77548W        W45942  10.418  23.160  10.977
77549W        W45943  13.082  13.708   4.127
77550W        W45944  25.209  25.201  14.510
77551W        W45945   0.173  16.973   0.964
77552W        W45946  21.579  12.118  14.410
77553W        W45947  17.385  44.289   1.967
77554W        W45948  30.340   4.387  13.988
77555W        W45949  36.856   2.794   0.876
77556W        W45950  29.110  22.764   0.402
77557W        W45951  27.013  28.527   1.370
77558W        W45952  34.466  30.924   4.253
77559W        W45953  32.255   6.837  13.425
77560W        W45954  39.891  35.316   3.571
77561W        W45955  13.807  38.467  10.343
77562W        W45956  16.758  27.003  14.793
77563W        W45957  30.119  25.086  11.583
77564W        W45958   8.807  30.229   4.280
77565W        W45959  32.988   9.939  13.507
77566W        W45960  20.513  11.880  13.359
77567W        W45961  19.103  30.922   1.372
77568W        W45962  27.566  40.819  12.442
77569W        W45963  16.221  13.956  12.505
77570W        W45964  30.457   0.738   4.802
77571W        W45965   6.940   9.203  14.572
77572W        W45966  23.969  33.803   4.466
77573W        W45967  17.626   3.866   4.257
77574W        W45968  14.219  12.107   1.311
77575W        W45969   8.988   6.509   3.624
77576W        W45970  26.104  41.951  14.260
77577W        W45971   5.655  16.336  12.476
77578W        W45972  31.492  27.131   1.902
77579W        W45973  26.701  40.047  13.052
77580W        W45974  30.613  29.814  11.406
77581W        W45975  37.811  15.825  12.954
77582W        W45976   6.365  20.578   1.385
77583W        W45977  19.295  10.283   3.881
77584W        W45978  35.624  17.617  12.450
77585W        W45979  23.497  17.332  12.578
77586W        W45980  26.040  38.414   0.424
77587W        W45981  16.780  20.203   0.435
77588W        W45982  24.567  23.698   4.775
77589W        W45983   6.891   4.835  13.897
77590W        W45984  42.103  34.941   4.746
77591W        W45985  25.165  19.201  10.664
77592W        W45986  26.699  37.530  10.794
77593W        W45987   0.289  18.285  11.611
77594W        W45988  44.445  15.264   1.803
77595W        W45989  19.854  14.334  11.125
77596W        W45990  26.117  32.404   4.279
77597W        W45991  19.093  10.897   0.847
77598W        W45992  40.168  44.340   3.218
77599W        W45993  25.927  17.069   1.289
77600W        W45994  43.992  38.560   2.747
77601W        W45995   6.375  33.086  12.377
77602W        W45996  21.971   2.846   4.700
77603W        W45997  20.218  21.583  11.549
77604W        W45998  20.579  25.577  10.424
77605W        W45999  33.565  24.240  14.240
77606W        W46000  21.117  43.257   3.821
77607W        W46001   1.547  22.597   0.912
77608W        W46002  37.079  15.158   2.242
77609W        W46003  43.293  36.660   0.113
77610W        W46004  12.666   7.301   5.032
77611W        W46005  44.033  11.711   1.224
77612W        W46006  19.990  23.645  12.090
77613W        W46007  24.238  29.592   1.895
77614W        W46008  17.888   2.884   0.287
77615W        W46009  21.139   5.131   0.868
77616W        W46010  10.190  30.540   2.834
77617W        W46011  41.447   1.021   4.742
77618W        W46012  40.784   6.783  13.043
77619W        W46013  13.852  20.594  11.973
77620W        W46014  39.396  39.088   3.176
77621W        W46015  20.345  17.070  14.002
77622W        W46016  15.785  10.897   1.993
77623W        W46017   7.445  11.010  13.500
77624W        W46018  32.372  20.041  11.144
77625W        W46019  30.889  42.397   4.114
77626W        W46020  25.071   3.727   2.704
77627W        W46021  43.926  28.891   3.731
77628W        W46022   2.405  33.523   0.830
77629W        W46023  16.819   5.733  13.415
77630W        W46024   7.199  14.219  14.313
77631W        W46025  43.788  10.303   2.685
77632W        W46026  34.730  29.025   3.286
77633W        W46027  20.758  18.489   0.122
77634W        W46028  19.603  28.473  12.997
77635W        W46029  27.535   6.687  12.973
77636W        W46030  31.680   8.820  12.088
77637W        W46031  35.957  23.794   2.974
77638W        W46032  17.667  12.809   1.690
77639W        W46033  37.935  28.694   3.095
77640W        W46034  18.760   9.704  12.554
77641W        W46035  18.794  22.873  12.406
77642W        W46036  43.877  44.374   2.918
77643W        W46037  39.230  22.676   2.996
77644W        W46038  25.561  44.275  12.862
77645W        W46039  11.753  37.795   2.723
77646W        W46040  20.357   4.605   0.452
77647W        W46041   7.369  12.953  13.589
77648W        W46042  10.680   0.694   2.642
77649W        W46043  34.449   6.221  10.479
77650W        W46044  22.493  31.063   4.166
77651W        W46045  28.655   1.327  13.107
77652W        W46046  14.994  24.156   2.068
77653W        W46047  42.720   5.787   1.323
77654W        W46048  35.350   7.127  12.235
77655W        W46049  41.043  13.169  11.791
77656W        W46050  10.099  19.960  11.036
77657W        W46051  41.554  22.607   4.219
77658W        W46052  37.225  26.140  11.368
77659W        W46053   5.156   8.214   2.309
77660W        W46054  31.998  19.247  14.299
77661W        W46055  10.176   2.179   4.621
77662W        W46056  38.346  27.541   1.706
77663W        W46057  21.456   2.903   4.602
77664W        W46058   0.201  16.129   1.335
77665W        W46059  25.363  37.222   0.928
77666W        W46060   8.149   0.713  13.430
77667W        W46061  21.012  31.405   0.323
77668W        W46062  24.995  31.811   2.143
77669W        W46063  44.677  35.039  13.786
77670W        W46064  30.782  34.605   1.129
77671W        W46065  35.388  18.737  14.899
77672W        W46066  24.986  40.727   3.305
77673W        W46067  19.306   9.164  13.334
77674W        W46068  42.581   5.474   2.775
77675W        W46069  31.754  31.602   3.521
77676W        W46070  41.782  16.318   3.251
77677W        W46071  30.113  34.888  13.919
77678W        W46072  43.733  36.332   1.756
77679W        W46073  19.587  41.284   1.301
77680W        W46074  20.088  30.380  10.449
77681W        W46075   5.203  43.874  13.944
77682W        W46076  41.255   1.032   2.108
77683W        W46077   0.239  44.195  13.881
77684W        W46078  38.485  23.492  10.251
77685W        W46079  42.289  39.902  12.124
77686W        W46080  25.683  24.608  12.965
77687W        W46081  41.988  44.323   4.111
77688W        W46082  29.162  10.824   4.131
77689W        W46083  19.830  17.231   2.332
77690W        W46084   2.522  38.306  11.075
77691W        W46085  29.485  15.916   3.341
77692W        W46086   5.697  38.809  13.460
77693W        W46087  31.888  39.320   2.266
77694W        W46088  20.159  19.879  10.229
77695W        W46089  12.399  13.224  12.470
77696W        W46090  36.112  22.712   4.084
77697W        W46091  41.160  12.500   0.974
77698W        W46092  25.927  28.058   1.750
77699W        W46093  11.197   4.824   4.408
77700W        W46094   9.936   0.383  12.761
77701W        W46095  42.487  41.275   0.235
77702W        W46096  13.562  16.892  13.962
77703W        W46097  28.969  20.272  13.410
77704W        W46098  12.270  26.121   2.855
77705W        W46099  40.491  33.880   0.182
77706W        W46100   4.880   1.737  13.892
77707W        W46101   8.962   9.496  14.331
77708W        W46102   8.377   3.218  14.426
77709W        W46103  14.253  18.969  13.720
77710W        W46104  25.456  16.112  10.725
77711W        W46105  26.201   6.356   2.217
77712W        W46106  13.174  18.411  11.739
77713W        W46107   8.918  18.096  11.217
77714W        W46108   3.915  42.988  14.895
77715W        W46109  31.307  31.801   4.967
77716W        W46110  22.644  26.260   0.242
77717W        W46111  37.488   1.397  10.766
77718W        W46112   9.347   1.906  12.985
77719W        W46113  10.900  13.200   1.969
77720W        W46114   1.942  38.872  14.003
77721W        W46115  37.841  38.832   0.294
77722W        W46116  12.847  24.586   2.569
77723W        W46117  39.724  41.428   1.867
77724W        W46118  25.319  42.487  10.648
77725W        W46119  21.722   6.587   1.237
77726W        W46120  26.484  23.207  11.798
77727W        W46121  29.584   8.358   0.093
77728W        W46122  10.373   0.268  10.899
77729W        W46123   5.255  16.078  14.810
77730W        W46124  19.788  19.683   0.963
77731W        W46125  16.691  32.413  14.077
77732W        W46126  25.208  38.558  12.439
77733W        W46127  21.698  22.194  13.295
77734W        W46128   7.636  24.945  14.817
77735W        W46129  20.038   3.397   1.646
77736W        W46130  15.333  42.909  12.972
77737W        W46131  16.039   2.321  11.704
77738W        W46132   5.605  15.307  13.582
77739W        W46133   9.601  14.549   0.334
77740W        W46134  19.280   1.429  14.872
77741W        W46135   4.105  44.884   2.159
77742W        W46136   0.761  13.405  13.368
77743W        W46137  40.899  15.593   1.086
77744W        W46138  24.976  16.056   3.789
77745W        W46139  14.096  40.893  13.342
77746W        W46140  25.251   8.319  13.095
77747W        W46141  23.955  24.746  14.935
77748W        W46142   2.878  18.117  12.374
77749W        W46143  28.251  11.826   1.835
77750W        W46144  34.155  40.815  10.786
77751W        W46145  28.114  31.975  13.897
77752W        W46146  39.118   8.193   1.322
77753W        W46147   9.749  26.423  12.857
77754W        W46148   5.268  44.014   4.270
77755W        W46149   9.245   3.794  13.124
77756W        W46150  16.175   0.065  12.080
77757W        W46151  11.325  14.806  14.378
77758W        W46152  15.840   8.759  14.440
77759W        W46153   8.821  23.089  11.148
77760W        W46154  18.651  21.097  10.124
77761W        W46155  17.062   4.381  10.684
77762W        W46156  19.587  22.775  12.138
77763W        W46157  26.526  26.556  13.307
77764W        W46158   7.754  13.313  14.402
77765W        W46159  41.615  33.065   1.396
77766W        W46160  27.913  34.125  11.069
77767W        W46161  36.428  30.673  11.100
77768W        W46162  12.587  22.279  11.588
77769W        W46163  35.945   8.550  11.438
77770W        W46164  32.467  17.748   2.344
77771W        W46165  14.324  34.496   4.694
77772W        W46166  21.007  39.769   0.849
77773W        W46167  26.184  13.246  12.925
77774W        W46168  23.730  11.588   2.259
77775W        W46169  39.967   4.950  13.566
77776W        W46170  10.135  12.675  12.611
77777W        W46171  30.254  30.180   2.029
77778W        W46172  27.946  10.110  11.370
77779W        W46173  25.453  33.652  10.741
77780W        W46174  31.118  24.338  13.595
77781W        W46175  40.016  10.787  13.647
77782W        W46176  44.884  41.680  11.663
77783W        W46177  29.419   4.806   2.971
77784W        W46178  41.951  29.973   4.537
77785W        W46179   2.784  39.727   1.260
77786W        W46180   7.315  16.713   2.745
77787W        W46181  31.679  32.237   4.247
77788W        W46182  43.539  43.383   0.879
77789W        W46183  35.042  36.893   3.749
77790W        W46184  10.306   3.240   0.284
77791W        W46185   0.145  21.320   2.354
77792W        W46186  32.928  24.546  13.053
77793W        W46187  11.779  23.172   4.712
77794W        W46188   1.782  29.901  13.932
77795W        W46189  33.499  23.578  14.932
77796W        W46190  29.069  36.640  13.383
77797W        W46191   9.811  31.681  13.962
77798W        W46192  17.831  11.727  14.310
77799W        W46193   3.405  26.716   4.027
77800W        W46194   9.354  12.781  10.995
77801W        W46195  26.184  30.395  11.916
77802W        W46196  28.099   0.772   1.637
77803W        W46197   8.406  30.398  12.197
77804W        W46198  43.720   9.355  11.977
77805W        W46199  39.609  37.756   1.028
77806W        W46200  28.371  41.511   2.844
77807W        W46201  10.771  10.614  14.051
77808W        W46202   8.380   5.469   4.055
77809W        W46203  29.875   2.362   0.612
77810W        W46204  30.339  36.938   0.631
77811W        W46205  29.848  25.177  14.087
77812W        W46206   8.336  10.113   1.299
77813W        W46207  12.310  23.461  12.505
77814W        W46208  24.631   9.050  14.869
77815W        W46209  43.783  15.755   1.461
77816W        W46210  38.856   2.809  12.340
77817W        W46211  16.210  32.794  11.195
77818W        W46212  29.191  32.543   3.435
77819W        W46213  35.925  28.365   3.753
77820W        W46214  17.843  42.950  13.828
77821W        W46215   3.446  36.522  10.750
77822W        W46216  23.475  31.851  11.105
77823W        W46217  30.090   0.015  13.926
77824W        W46218  32.398  11.204  11.197
77825W        W46219  37.398   1.884   0.898
77826W        W46220  37.000   2.408  14.505
77827W        W46221  20.636  20.462   3.285
77828W        W46222  17.579  27.282  14.295
77829W        W46223  13.425  36.824   2.264
77830W        W46224  23.757  26.522   4.151
77831W        W46225  19.593  19.643   4.451
77832W        W46226   0.658  31.505  10.348
77833W        W46227   3.188   9.206  14.767
77834W        W46228  12.154  40.032   0.779
77835W        W46229  27.650  36.403  12.098
77836W        W46230  38.812  33.752   2.378
77837W        W46231  16.410  24.038   0.005
77838W        W46232   5.563  26.469   1.739
77839W        W46233  20.807  40.892   5.000
77840W        W46234  16.615   1.818  13.887
77841W        W46235   8.753  30.431   1.819
77842W        W46236  27.689   2.952  11.426
77843W        W46237  20.463   0.765  13.431
77844W        W46238  40.367  23.589   4.394
77845W        W46239   6.829  33.746  12.014
77846W        W46240  13.866  38.095   2.261
77847W        W46241  17.670  38.347   4.303
77848W        W46242  44.686  32.563   2.383
77849W        W46243  33.383   0.812  12.598
77850W        W46244   2.123  40.843  11.693
77851W        W46245  40.435  18.850   4.103
77852W        W46246  26.557   6.768  11.496
77853W        W46247   9.251   0.331   2.902
77854W        W46248  32.034  18.252  14.439
77855W        W46249  14.507  18.812   0.848
77856W        W46250   6.935  38.318  12.193
77857W        W46251  14.113  28.657  12.573
77858W        W46252  21.446  12.699  11.633
77859W        W46253  34.878  12.164   1.358
77860W        W46254  29.652   3.485  14.026
77861W        W46255  17.281  36.103  12.138
77862W        W46256  21.081  16.157   0.001
77863W        W46257  24.875   1.923  13.049
77864W        W46258  34.843  12.301  10.623
77865W        W46259  26.426  28.246   0.118
77866W        W46260  11.963  42.343   2.375
77867W        W46261   1.493   8.289   0.865
77868W        W46262  10.459  29.034   3.662
77869W        W46263   6.666  21.244   3.245
77870W        W46264  15.309  11.892   4.574
77871W        W46265  29.403  13.828   2.324
77872W        W46266  27.213  40.439   0.795
77873W        W46267   0.754  29.577  12.969
77874W        W46268   6.951  38.371   3.166
77875W        W46269  10.868   6.298   3.858
77876W        W46270  25.887  22.544  11.515
77877W        W46271  43.338  33.060  12.537
77878W        W46272   5.286  23.789   3.624
77879W        W46273  35.954  28.396  12.838
77880W        W46274  39.083   0.359  13.617
77881W        W46275  37.094  10.609   4.744
77882W        W46276  28.575  28.205   2.819
77883W        W46277  40.916  26.605  12.982
77884W        W46278  37.985  32.400   3.852
77885W        W46279  37.032  30.880   1.792
77886W        W46280  41.460  22.169  13.007
77887W        W46281  19.710   5.745   4.582
77888W        W46282  21.824  32.562  11.895
77889W        W46283  12.580  18.126   4.580
77890W        W46284  29.093  14.028  12.735
77891W        W46285  10.437  20.245   2.696
77892W        W46286  33.045  20.128  10.501
77893W        W46287  17.497   3.307   2.805
77894W        W46288  33.454  19.036   0.755
77895W        W46289   1.776  35.090  14.268
77896W        W46290  20.290  19.802  11.103
77897W        W46291  29.987  36.045   3.843
77898W        W46292  28.559  28.439   1.514
77899W        W46293  24.936  42.566  14.237
77900W        W46294  11.782  16.519   3.625
77901W        W46295  19.946  28.671   4.185
77902W        W46296  14.424  14.564  13.060
77903W        W46297   2.437  44.811  11.547
77904W        W46298   5.655  30.038  12.983
77905W        W46299  35.922  19.018   2.423
77906W        W46300  33.041  34.287  14.651
77907W        W46301   9.398  33.413  13.785
77908W        W46302  14.829  30.430   3.693
77909W        W46303   1.880  38.973  11.156
77910W        W46304  44.957  12.703  11.645
77911W        W46305  11.176  26.925   1.652
77912W        W46306  19.544  17.787  13.373
77913W        W46307  37.312  44.924   0.350
77914W        W46308  22.353  23.918   0.314
77915W        W46309  15.626  20.280   1.923
77916W        W46310   1.486   6.762   4.638
77917W        W46311   9.977   7.804   5.074
77918W        W46312  20.635  13.346  12.936
77919W        W46313   8.814  28.030  14.491
77920W        W46314  16.803  25.664  11.652
77921W        W46315  26.120  27.172   1.906
77922W        W46316  33.936  36.455  10.492
77923W        W46317  24.293  14.539   0.029
77924W        W46318  15.156  29.203  10.416
77925W        W46319  23.833  36.867   3.341
77926W        W46320  12.608   8.667   0.237
77927W        W46321  41.133   3.212   0.414
77928W        W46322  27.202   2.980   4.920
77929W        W46323   3.375  24.553  10.804
77930W        W46324   0.086  44.400  11.432
77931W        W46325   0.258  11.965   1.715
77932W        W46326  35.006   7.330   9.744
77933W        W46327   2.320  42.594   4.279
77934W        W46328  36.417  25.746   4.162
77935W        W46329   7.564  28.159   3.302
77936W        W46330  12.195  15.528  13.585
77937W        W46331  40.797  23.755   0.909
77938W        W46332  26.838   1.496   1.387
77939W        W46333  34.085  40.842   1.580
77940W        W46334  13.788   5.904   3.109
77941W        W46335  31.612   0.080  14.371
77942W        W46336  26.847  43.977   2.200
77943W        W46337  25.949   8.294  10.745
77944W        W46338  18.986   9.674  12.102
77945W        W46339  38.821  37.743  10.239
77946W        W46340  17.240  10.387  12.559
77947W        W46341  27.590  43.265   4.157
77948W        W46342  29.563  10.144   5.033
77949W        W46343   3.596  22.473  14.867
77950W        W46344  25.886   0.417   0.319
77951W        W46345   9.914  40.124   2.091
77952W        W46346  38.512  36.787  14.283
77953W        W46347  31.526   4.892  12.515
77954W        W46348  13.382  22.196  12.643
77955W        W46349   9.265   2.204   3.526
77956W        W46350   8.941  35.634   3.464
77957W        W46351   4.863  36.375  10.713
77958W        W46352  26.551  13.694   0.441
77959W        W46353  28.456   7.808   3.181
77960W        W46354  35.013  16.338   4.184
77961W        W46355  40.997  41.578  12.066
77962W        W46356   2.801   8.210   3.865
77963W        W46357  44.365  29.423  10.694
77964W        W46358  38.393  26.932   0.818
77965W        W46359  32.905  13.998  10.749
77966W        W46360  34.914   4.508   3.869
77967W        W46361  23.951  36.047  11.633
77968W        W46362  20.497  31.471   1.276
77969W        W46363   3.209  11.812   2.159
77970W        W46364  34.020   5.710  10.396
77971W        W46365  26.994  42.403   0.381
77972W        W46366   2.935  29.230  11.142
77973W        W46367  42.012  12.079   2.706
77974W        W46368   3.517   1.268  12.602
77975W        W46369   3.359  40.987  11.572
77976W        W46370  29.704  40.693   3.012
77977W        W46371  25.892  11.188   1.253
77978W        W46372  40.382  28.500   2.699
77979W        W46373  27.940  38.910   3.318
77980W        W46374  21.289  12.175  10.440
77981W        W46375  13.810  28.907  10.602
77982W        W46376  21.224   3.918  11.108
77983W        W46377   0.834   1.074   0.858
77984W        W46378   9.707  23.108   1.831
77985W        W46379  40.423   4.877  12.858
77986W        W46380  27.748   4.236  13.051
77987W        W46381  27.594   0.260   2.366
77988W        W46382  38.919   2.579   1.278
77989W        W46383  39.440  17.185   1.835
77990W        W46384  27.766   1.252   2.473
77991W        W46385  43.455  21.071   1.494
77992W        W46386   5.049  23.650  12.920
77993W        W46387   1.485  35.031  10.776
77994W        W46388  29.444   4.892   1.255
77995W        W46389  18.102  40.375   2.193
77996W        W46390  44.532  33.419  11.826
77997W        W46391  16.043  19.985  13.962
77998W        W46392  19.491   0.300  13.168
77999W        W46393   8.303  40.271  11.967
78000W        W46394  15.199   5.959  11.179
78001W        W46395  35.519  14.144   3.141
78002W        W46396   8.762  30.954   3.587
78003W        W46397   6.423  25.012   2.378
78004W        W46398  15.882  41.775  14.941
78005W        W46399  30.803  41.691   0.433
78006W        W46400  13.305  11.276   3.213
78007W        W46401  23.322  10.030  11.155
78008W        W46402  12.451  21.674  14.088
78009W        W46403  37.557  17.132   1.764
78010W        W46404  42.601  22.264  11.110
78011W        W46405  24.843  36.894   0.208
78012W        W46406  22.978  34.004  14.500
78013W        W46407  44.071  34.575  10.329
78014W        W46408   9.019  42.817  14.217
78015W        W46409  16.680   0.784   1.269
78016W        W46410  38.815  17.121  11.176
78017W        W46411   8.401  38.942   3.642
78018W        W46412  16.779   4.338   2.273
78019W        W46413  43.435   5.286  12.425
78020W        W46414  20.780   7.624  14.509
78021W        W46415  35.507   3.294   1.774
78022W        W46416  42.909  35.432   4.540
78023W        W46417  33.663   0.699   0.653
78024W        W46418  42.000  16.170  14.034
78025W        W46419  30.990  22.210   2.825
78026W        W46420  29.409  27.141   0.307
78027W        W46421  18.919  40.360  11.637
78028W        W46422  24.253   1.470   4.157
78029W        W46423   2.752  13.328   1.256
78030W        W46424  10.307  19.798  14.443
78031W        W46425  22.980  10.294   3.912
78032W        W46426  11.703  37.910   4.774
78033W        W46427  17.655  43.729   2.389
78034W        W46428   7.217  20.934  13.407
78035W        W46429  15.821   1.486   2.687
78036W        W46430   9.826  37.524   0.926
78037W        W46431   3.208   8.317  12.817
78038W        W46432  41.507  29.855   0.803
78039W        W46433  25.655   5.397   2.691
78040W        W46434  24.896   0.563   4.182
78041W        W46435  19.896  16.213  10.520
78042W        W46436  26.071  40.070  11.256
78043W        W46437  14.014  35.111   4.621
78044W        W46438   8.475  13.318   4.130
78045W        W46439  25.535  15.118   3.914
78046W        W46440   8.119  18.132   0.506
78047W        W46441  32.929  19.843   3.700
78048W        W46442  38.055  32.378  11.973
78049W        W46443  23.538  42.541  10.810
78050W        W46444   6.286  44.701   0.867
78051W        W46445  41.535   4.922   2.141
78052W        W46446   9.677  20.721   4.398
78053W        W46447  33.993   8.465  10.549
78054W        W46448   2.326  16.769   2.718
78055W        W46449  40.488   0.661   4.150
78056W        W46450  15.736   4.315   4.937
78057W        W46451  23.169  35.261   4.839
78058W        W46452  21.651  16.922  11.128
78059W        W46453  28.151  20.531  13.861
78060W        W46454   4.443  43.684   3.324
78061W        W46455  24.086  34.110   1.253
78062W        W46456  17.489  25.705   2.739
78063W        W46457  32.006  40.211   4.149
78064W        W46458  13.810   4.344  13.269
78065W        W46459  15.713  32.398  12.013
78066W        W46460  41.791  29.839   2.153
78067W        W46461   8.799  12.931  10.319
78068W        W46462   9.383  23.795   2.747
78069W        W46463  13.417   1.807   0.309
78070W        W46464   9.284  18.365   0.893
78071W        W46465  14.144  41.216   1.989
78072W        W46466  24.014  33.137   2.830
78073W        W46467  32.882  15.042  14.793
78074W        W46468  34.009   5.263   1.481
78075W        W46469   2.190  44.324   2.838
78076W        W46470  22.589  22.582   1.354
78077W        W46471  26.055  19.518   1.336
78078W        W46472   6.054  34.125  12.940
78079W        W46473  22.251  39.080  12.936
78080W        W46474  12.527   4.488   2.820
78081W        W46475  19.662  22.780  12.676
78082W        W46476  40.740  11.829   0.069
78083W        W46477  30.826   5.895  12.037
78084W        W46478  36.098  23.097   1.862
78085W        W46479  44.536  32.185   0.434
78086W        W46480  28.161  31.315  11.688
78087W        W46481   2.213  33.798   2.348
78088W        W46482  33.186  19.581   1.620
78089W        W46483  11.907   0.802   3.783
78090W        W46484   2.237  14.045  14.015
78091W        W46485  10.946  29.782  12.576
78092W        W46486  11.888  17.464  11.671
78093W        W46487  39.835   5.779   0.209
78094W        W46488  39.953  12.461   2.436
78095W        W46489   8.723   8.664   1.914
78096W        W46490  37.006  27.923  13.388
78097W        W46491  17.177  43.609  13.865
78098W        W46492   5.184  18.736  10.944
78099W        W46493  15.611  38.415  13.477
78100W        W46494  37.609  22.418   3.216
78101W        W46495   3.949   1.218   2.668
78102W        W46496  11.873  20.469   4.153
78103W        W46497  11.623  34.051  12.561
78104W        W46498   4.983  11.796  12.018
78105W        W46499  29.032  11.529   3.123
78106W        W46500  37.277  18.842  11.969
78107W        W46501   0.913  26.195   1.223
78108W        W46502   8.876   8.761  13.407
78109W        W46503   7.173   9.173   2.367
78110W        W46504   4.956  38.377  13.522
78111W        W46505  18.342  17.328  14.826
78112W        W46506  34.990  22.710   0.815
78113W        W46507  37.385  37.026   2.625
78114W        W46508  17.785   0.083  12.040
78115W        W46509  16.059  14.304   1.838
78116W        W46510  12.574   6.723   3.762
78117W        W46511  13.549  12.250   3.170
78118W        W46512  27.795  38.826   4.689
78119W        W46513  13.733  27.631   3.420
78120W        W46514   3.685   7.665   4.770
78121W        W46515  42.631  44.810   1.919
78122W        W46516   0.997  32.853  10.746
78123W        W46517  29.499  16.887  11.968
78124W        W46518  17.141  31.895   1.836
78125W        W46519   3.275  42.431   0.131
78126W        W46520  11.460  17.868   2.249
78127W        W46521   0.237  42.870   1.431
78128W        W46522  18.452  30.451   4.871
78129W        W46523  25.637   0.354  12.061
78130W        W46524  10.580  40.105  10.491
78131W        W46525  42.856  19.315   1.753
78132W        W46526   9.943  44.160  11.558
78133W        W46527  20.787   5.394  11.208
78134W        W46528   2.912  28.057  10.513
78135W        W46529   3.730  22.150  13.390
78136W        W46530   9.169  38.025   0.927
78137W        W46531  28.913  27.001   2.712
78138W        W46532  12.040   5.359   3.542
78139W        W46533  31.036  35.392   3.123
78140W        W46534   7.254   6.402  12.867
78141W        W46535  11.315  36.748  11.170
78142W        W46536  13.525  18.246  13.232
78143W        W46537   0.850  39.440  10.366
78144W        W46538  27.672  43.541   2.283
78145W        W46539  15.092  21.639   1.725
78146W        W46540  40.239   7.379  10.766
78147W        W46541  24.528  30.568  14.233
78148W        W46542   5.983   2.201  13.326
78149W        W46543  26.621  29.521   1.274
78150W        W46544  34.023   8.598  11.053
78151W        W46545   2.394  39.025   4.561
78152W        W46546   1.739  12.519   0.833
78153W        W46547   0.833  35.107   2.409
78154W        W46548  28.462  14.677   0.641
78155W        W46549  35.177  22.554   3.544
78156W        W46550  15.185  38.369  14.747
78157W        W46551  38.393  29.659   0.815
78158W        W46552  11.642  40.924   3.850
78159W        W46553  40.583  35.891   3.234
78160W        W46554  16.022  24.969   0.974
78161W        W46555  21.663  11.349   0.729
78162W        W46556  16.846  15.604  11.978
78163W        W46557  16.783  13.361   4.137
78164W        W46558  44.007   8.243   4.568
78165W        W46559  36.007   9.340  12.680
78166W        W46560  22.219  41.464  11.105
78167W        W46561  35.540   7.686  11.138
78168W        W46562  40.405  37.096  12.531
78169W        W46563  39.250  21.629  13.038
78170W        W46564   0.252  11.278  12.415
78171W        W46565  32.399  36.440  13.516
78172W        W46566   7.727  19.477   0.390
78173W        W46567   5.949  19.521  10.990
78174W        W46568  13.749  34.035  11.496
78175W        W46569  41.307  14.270   1.451
78176W        W46570  15.307  29.110  11.056
78177W        W46571  27.221  33.288  14.485
78178W        W46572  35.092  39.001  14.909
78179W        W46573  23.468  20.801   1.678
78180W        W46574  11.694  28.101   1.265
78181W        W46575  33.544  10.328  11.207
78182W        W46576  13.842  29.676   0.859
78183W        W46577  10.634  39.267  12.539
78184W        W46578  24.166  27.470   3.695
78185W        W46579   9.259   7.684   2.604
78186W        W46580  41.395  11.601  11.704
78187W        W46581   0.012   8.937  12.552
78188W        W46582   6.664  16.328  11.226
78189W        W46583   1.252  44.423   0.170
78190W        W46584   9.844  18.793   2.652
78191W        W46585   5.840  42.713   3.203
78192W        W46586   7.588  14.332  12.589
78193W        W46587  25.221  19.173  12.883
78194W        W46588  26.726   1.954  10.916
78195W        W46589  10.671  30.902  11.909
78196W        W46590  22.457  31.936  14.361
78197W        W46591  42.838  13.468   3.044
78198W        W46592  10.085  32.534  11.574
78199W        W46593  10.795  13.678  11.214
78200W        W46594  40.953  32.781   1.629
78201W        W46595  13.494  40.821  14.580
78202W        W46596   2.337  16.134   1.579
78203W        W46597   2.037  18.244   3.745
78204W        W46598  29.092  10.433  14.312
78205W        W46599  25.286   4.229  11.868
78206W        W46600  34.892  37.481   3.057
78207W        W46601  35.848   6.598  12.977
78208W        W46602  44.556  16.153  10.758
78209W        W46603  10.829  27.387   4.445
78210W        W46604  41.309  41.868   4.497
78211W        W46605  37.937  39.310  13.878
78212W        W46606  21.314  29.368  11.655
78213W        W46607  32.373  31.472  14.820
78214W        W46608  40.006  12.933  10.618
78215W        W46609  10.286  14.433   1.958
78216W        W46610  38.944  15.992   1.637
78217W        W46611  24.725  34.986   2.348
78218W        W46612   2.106  19.492  14.805
78219W        W46613  26.145  25.486  13.840
78220W        W46614   2.866   6.669  14.884
78221W        W46615  35.474  28.527   4.600
78222W        W46616  19.590   1.523  11.800
78223W        W46617  41.331   2.796  14.869
78224W        W46618  21.650   4.453   4.690
78225W        W46619   2.322  23.444  12.248
78226W        W46620   2.573  26.678  10.903
78227W        W46621  12.414  43.776   1.159
78228W        W46622  12.865  16.594   1.182
78229W        W46623  26.804  13.497   1.793
78230W        W46624  29.060  38.866  14.948
78231W        W46625  11.501  30.898   0.170
78232W        W46626  10.622  29.579   2.795
78233W        W46627  15.621  12.853  12.945
78234W        W46628  11.661  36.419  10.239
78235W        W46629  44.960  42.461   1.173
78236W        W46630  16.451  16.180  14.194
78237W        W46631   8.267  41.840  11.677
78238W        W46632  41.429  25.918  12.943
78239W        W46633  21.802  16.295   3.023
78240W        W46634  35.877  26.989  13.169
78241W        W46635  19.155  13.909  11.678
78242W        W46636  29.596   7.328  12.104
78243W        W46637  27.132   9.342   2.337
78244W        W46638   2.491  33.155  12.984
78245W        W46639   2.924  34.244   1.183
78246W        W46640  16.182  16.111  10.228
78247W        W46641  21.761  13.525   1.197
78248W        W46642  13.013  12.836   3.273
78249W        W46643   1.754  21.026   1.205
78250W        W46644  42.521  18.623   0.834
78251W        W46645   1.987  37.199  10.266
78252W        W46646  18.062  18.701  14.886
78253W        W46647  16.105  11.117  11.995
78254W        W46648  13.088  17.631  10.726
78255W        W46649  39.591  16.648  14.725
78256W        W46650  38.306  19.069  14.256
78257W        W46651  16.137  24.939   1.494
78258W        W46652  38.830  41.352  12.533
78259W        W46653  32.485  27.397   2.097
78260W        W46654  34.414  43.259  11.228
78261W        W46655  43.139   8.277  11.606
78262W        W46656   5.612   9.341  10.733
78263W        W46657  34.139  24.680   3.807
78264W        W46658  15.273  25.632  13.258
78265W        W46659   7.731  20.838   3.727
78266W        W46660  14.652  20.973   2.211
78267W        W46661  10.782  10.602   4.662
78268W        W46662  33.172  19.754   0.631
78269W        W46663  35.171  13.347  13.678
78270W        W46664  27.714  38.437   3.172
78271W        W46665  42.961  32.114   3.678
78272W        W46666   2.155  18.530  11.341
78273W        W46667  30.462  32.108   2.467
78274W        W46668  11.100  38.370  12.528
78275W        W46669   0.427  44.096  12.930
78276W        W46670  24.521  34.925  11.435
78277W        W46671  10.112  33.420   2.330
78278W        W46672  37.406  37.267  14.661
78279W        W46673  23.606  44.858  12.626
78280W        W46674   5.502  29.610   1.376
78281W        W46675  35.181   1.000  11.174
78282W        W46676   8.344  11.127   4.330
78283W        W46677  14.689   0.918   2.598
78284W        W46678  27.634  16.676   3.164
78285W        W46679   0.577  42.998   2.389
78286W        W46680  30.984   9.754   4.738
78287W        W46681  33.412   3.825   3.611
78288W        W46682  14.548  21.541  12.917
78289W        W46683  24.054   3.236  11.654
78290W        W46684  37.307  25.131   3.718
78291W        W46685   5.176  41.044   1.326
78292W        W46686  21.844  17.273   3.075
78293W        W46687  40.779  37.983  12.111
78294W        W46688  15.826  17.652   1.390
78295W        W46689  15.557  41.303  13.628
78296W        W46690  21.465   3.965  10.653
78297W        W46691  35.574  25.263   2.348
78298W        W46692  33.571   0.417  11.894
78299W        W46693  16.154  29.507   0.760
78300W        W46694  30.011   4.112   1.473
78301W        W46695  34.856   6.718  13.018
78302W        W46696   3.188   5.107  12.375
78303W        W46697   0.445  41.432  11.166
78304W        W46698   7.671  36.946  11.581
78305W        W46699  37.491  42.655  12.151
78306W        W46700  34.621  36.963  10.850
78307W        W46701  30.734  37.600   3.440
78308W        W46702  13.105  42.809  12.092
78309W        W46703   2.026  32.853  14.488
78310W        W46704  38.906  36.578  10.569
78311W        W46705  12.548  44.422   3.321
78312W        W46706  41.753  10.343  12.642
78313W        W46707   7.799   9.643   2.142
78314W        W46708  40.018  15.778   4.507
78315W        W46709  17.025  15.301   0.458
78316W        W46710  16.550  22.167   1.237
78317W        W46711  32.893   7.859  14.120
78318W        W46712   4.369  24.165  11.789
78319W        W46713  32.035  11.507   0.810
78320W        W46714  24.588  39.032   0.927
78321W        W46715  29.942  29.059   1.837
78322W        W46716  13.151   5.686   4.972
78323W        W46717  23.253  39.837   0.224
78324W        W46718  25.287   5.401  14.529
78325W        W46719  35.072  28.923  14.713
78326W        W46720   7.871  17.467   1.793
78327W        W46721  14.818  14.379   3.325
78328W        W46722  43.459  33.215  11.524
78329W        W46723  29.973  27.962  14.360
78330W        W46724  37.420   8.845   3.725
78331W        W46725  41.896  28.419   2.000
78332W        W46726  23.421   6.272  10.406
78333W        W46727  23.032  34.212   0.958
78334W        W46728  10.443  11.283   0.050
78335W        W46729  30.914  42.284   3.278
78336W        W46730  39.526  38.955  10.473
78337W        W46731  29.630  10.338  10.157
78338W        W46732  32.023   2.785  11.503
78339W        W46733  17.892  24.217   0.945
78340W        W46734   5.839  33.192  13.057
78341W        W46735  41.867  32.138   2.392
78342W        W46736  38.068   4.142  12.627
78343W        W46737  23.770  35.582   0.291
78344W        W46738  33.252  15.571   4.242
78345W        W46739  17.057  38.028  13.826
78346W        W46740  26.573  36.484  11.763
78347W        W46741  16.991  10.836  10.132
78348W        W46742  12.772  21.152  14.877
78349W        W46743  18.232  18.453  11.944
78350W        W46744   0.910  14.370  13.574
78351W        W46745  39.846  23.727   1.798
78352W        W46746   8.289   6.762   2.917
78353W        W46747   4.553  19.209   1.317
78354W        W46748  32.989  22.636  10.668
78355W        W46749  35.993  39.121   3.331
78356W        W46750  22.700  44.894   4.273
78357W        W46751  21.035  40.069  13.571
78358W        W46752  20.827  44.429   2.788
78359W        W46753  14.463  41.806  11.944
78360W        W46754   5.789  34.177   1.239
78361W        W46755   6.872  38.524  10.696
78362W        W46756  20.543  36.235   1.450
78363W        W46757  12.057  35.009   4.143
78364W        W46758  23.573  24.195  11.042
78365W        W46759  28.675  38.979   0.867
78366W        W46760  36.051  41.641   3.064
78367W        W46761  39.792  15.563   4.107
78368W        W46762  29.484   7.607   3.178
78369W        W46763  29.592   6.905  11.085
78370W        W46764   1.259   0.665   3.529
78371W        W46765   7.811  18.040   4.142
78372W        W46766  26.918  36.340  11.129
78373W        W46767  35.996  39.122  13.915
78374W        W46768  33.209   0.397  14.488
78375W        W46769  18.605  43.375   1.865
78376W        W46770  35.321  27.534   4.719
78377W        W46771   2.668  43.396   1.641
78378W        W46772  29.473  44.058  14.410
78379W        W46773  42.825   0.319   3.163
78380W        W46774  14.465  33.090  11.593
78381W        W46775  15.818  42.263  14.827
78382W        W46776  26.818  44.322  14.849
78383W        W46777  43.048  15.614   4.574
78384W        W46778  38.086  20.389   1.787
78385W        W46779   6.152   3.882  11.220
78386W        W46780  16.178   5.250   1.385
78387W        W46781  37.436  29.110   1.724
78388W        W46782  26.924  43.824  14.788
78389W        W46783  28.297  27.987  11.736
78390W        W46784   9.772  15.637  13.837
78391W        W46785   2.506   7.329  14.096
78392W        W46786  37.378  41.981  11.541
78393W        W46787   3.658   4.136   1.763
78394W        W46788  14.833  10.294   0.311
78395W        W46789  35.464  29.495  13.971
78396W        W46790  26.840  40.717   1.806
78397W        W46791  30.474  18.956  14.584
78398W        W46792  25.292  30.323  11.962
78399W        W46793   3.199  44.536   0.329
78400W        W46794  27.427  17.825   0.765
78401W        W46795  37.285  30.340   2.300
78402W        W46796  40.041  19.240   1.307
78403W        W46797  20.562  41.542  11.403
78404W        W46798  12.293   3.373  14.098
78405W        W46799  26.571  11.611  12.891
78406W        W46800  40.225  41.370   1.709
78407W        W46801  12.262   6.427   4.097
78408W        W46802   7.796   0.200  11.118
78409W        W46803   3.232  41.709  14.376
78410W        W46804  32.327   7.185   1.109
78411W        W46805  25.639  30.412  14.044
78412W        W46806  15.212  42.094  13.828
78413W        W46807  38.973   1.501   1.404
78414W        W46808  16.001  18.532  12.010
78415W        W46809  17.022  28.897  11.477
78416W        W46810  18.385   7.343  12.486
78417W        W46811  17.312   6.915  10.369
78418W        W46812  16.251  32.614  13.883
78419W        W46813  37.506  25.100  14.350
78420W        W46814  44.356  17.954  14.624
78421W        W46815  40.515  32.989  13.803
78422W        W46816  38.463   8.745  10.858
78423W        W46817  20.449  42.546  11.639
78424W        W46818  30.258  24.923   2.907
78425W        W46819  10.789  12.674  13.324
78426W        W46820  13.178  32.990   3.146
78427W        W46821  34.608  39.981  11.616
78428W        W46822   0.750  29.634   4.146
78429W        W46823  12.266  37.821   2.909
78430W        W46824  19.588  41.371  13.365
78431W        W46825  35.005  41.089   1.951
78432W        W46826  35.695  35.958   4.537
78433W        W46827  38.833  38.843   2.823
78434W        W46828  23.997   1.412   1.264
78435W        W46829   6.870  22.338   3.255
78436W        W46830  21.154  16.738   4.456
78437W        W46831  36.812  38.765  11.097
78438W        W46832  34.912  16.814  11.679
78439W        W46833  14.209  44.962  10.539
78440W        W46834  16.709  36.357   3.917
78441W        W46835  39.091  22.960   0.798
78442W        W46836  21.630  27.231  12.072
78443W        W46837  19.939  38.169   4.052
78444W        W46838  41.453   7.886  13.509
78445W        W46839  35.971  33.861  13.354
78446W        W46840  35.625  40.952   3.209
78447W        W46841  42.202   2.424   2.584
78448W        W46842  15.584  17.652   0.916
78449W        W46843   6.649   3.839   1.399
78450W        W46844  24.009   8.659   4.034
78451W        W46845  34.893  31.589  14.342
78452W        W46846  13.299  41.493   4.364
78453W        W46847   0.878  42.279   1.373
78454W        W46848  11.972   0.859   2.014
78455W        W46849  28.196  18.503   3.278
78456W        W46850   1.210  16.964   4.022
78457W        W46851  29.965  24.595   3.196
78458W        W46852  26.661  35.013   4.552
78459W        W46853  12.634   9.329  14.892
78460W        W46854   2.322  41.331  12.849
78461W        W46855  28.961   7.304   4.815
78462W        W46856  29.829  42.160  12.404
78463W        W46857  18.684  37.231   0.723
78464W        W46858  43.652   4.347  12.911
78465W        W46859  42.813  13.610  12.882
78466W        W46860  34.127  36.336  12.399
78467W        W46861  25.519  13.311   3.049
78468W        W46862  21.298  21.147  14.395
78469W        W46863   4.350   2.501  14.225
78470W        W46864  43.424  13.353   3.840
78471W        W46865  41.448  28.989   3.591
78472W        W46866  28.281  26.849  14.294
78473W        W46867  39.124  11.459  12.942
78474W        W46868  28.998  21.578  10.915
78475W        W46869  42.525  35.525   9.943
78476W        W46870  23.417  43.413   3.267
78477W        W46871   2.137   6.814   3.159
78478W        W46872  30.866  34.328  14.829
78479W        W46873   7.923   1.849  12.530
78480W        W46874  30.981  42.748  13.516
78481W        W46875  20.591  38.477   1.816
78482W        W46876  19.745  43.803   3.558
78483W        W46877   8.513  33.175   2.348
78484W        W46878  25.557  44.919   3.079
78485W        W46879   0.386   7.114   2.360
78486W        W46880  19.343  20.676  13.896
78487W        W46881  14.699   8.738  10.971
78488W        W46882  23.291  23.041   2.825
78489W        W46883  42.037   7.917  10.600
78490W        W46884  17.592  17.787  12.624
78491W        W46885  15.707  15.583   4.629
78492W        W46886  39.438   4.452  10.393
78493W        W46887  20.286  17.957   1.275
78494W        W46888  39.014  30.725   2.187
78495W        W46889  18.307  28.666  11.935
78496W        W46890  13.578  12.688  13.633
78497W        W46891  32.132  33.337  13.457
78498W        W46892  29.217  28.190  11.580
78499W        W46893  26.103  16.702   4.469
78500W        W46894  31.224  15.712   0.683
78501W        W46895  24.237   1.558   0.806
78502W        W46896  30.839   7.412   0.938
78503W        W46897  15.127  20.623   4.840
78504W        W46898  23.297  12.203   2.655
78505W        W46899  34.380  33.098  13.471
78506W        W46900   0.382  21.611  12.664
78507W        W46901  38.161  15.435   3.121
78508W        W46902   1.442  32.469  11.670
78509W        W46903  10.263  40.538   2.246
78510W        W46904  34.329  16.251   1.323
78511W        W46905   9.888  37.487   2.844
78512W        W46906  26.559  10.170  10.507
78513W        W46907  20.800  35.124   0.026
78514W        W46908  38.809  17.162   2.447
78515W        W46909  44.849   0.985  14.872
78516W        W46910  13.544  18.836   0.040
78517W        W46911  10.097   6.447  13.884
78518W        W46912   9.841  19.729  13.551
78519W        W46913  13.263  19.388   2.672
78520W        W46914  15.066  25.711   4.737
78521W        W46915  13.453  14.342  10.350
78522W        W46916  39.875  41.043   1.224
78523W        W46917  31.926  22.101   0.331
78524W        W46918  15.904  27.133   2.800
78525W        W46919  24.993   8.630  14.007
78526W        W46920  38.864  22.054   0.722
78527W        W46921  11.341   2.953   1.637
78528W        W46922  17.593  31.780   4.899
78529W        W46923  17.001   1.013  14.019
78530W        W46924   2.406  23.785  12.655
78531W        W46925   1.334  10.124   2.278
78532W        W46926   6.693  39.336  13.950
78533W        W46927  37.800  42.852   3.388
78534W        W46928   1.741  41.765   4.069
78535W        W46929  29.139  30.230   2.880
78536W        W46930  24.629  17.169  14.556
78537W        W46931  21.636  44.728  13.324
78538W        W46932  39.219   6.131   3.657
78539W        W46933   2.203  17.548   3.342
78540W        W46934  36.868  16.743  12.022
78541W        W46935  20.929  21.294  11.079
78542W        W46936  10.683  10.782   2.811
78543W        W46937  22.966  36.939  10.736
78544W        W46938  16.748  31.890  14.317
78545W        W46939  14.646  19.598  12.915
78546W        W46940  43.908   1.908   1.736
78547W        W46941  13.520  16.320  11.052
78548W        W46942  12.571  23.476  14.476
78549W        W46943  20.425  12.699   2.149
78550W        W46944  40.514  28.036   2.484
78551W        W46945  44.744  34.108   3.199
78552W        W46946   6.622  11.697   1.703
78553W        W46947   0.318   8.777   4.379
78554W        W46948  24.067  19.123   0.753
78555W        W46949  26.999  29.475  12.066
78556W        W46950  30.751  27.775   0.001
78557W        W46951  31.432  31.534  13.907
78558W        W46952  35.800  38.319  12.695
78559W        W46953  43.604  38.902   4.228
78560W        W46954  18.054  25.735   4.630
78561W        W46955  18.611   5.147   3.303
78562W        W46956  20.523   0.576  11.692
78563W        W46957  30.480   4.963   0.487
78564W        W46958  41.292  36.374  12.441
78565W        W46959  44.044  34.452  13.671
78566W        W46960  38.848  41.418   3.346
78567W        W46961   9.645  24.739  11.016
78568W        W46962   7.940  43.610   3.796
78569W        W46963  41.226   8.130   3.250
78570W        W46964  31.509  21.596  12.908
78571W        W46965  11.670  34.499  10.802
78572W        W46966  19.534  34.031   1.345
78573W        W46967  39.215  33.959   2.679
78574W        W46968  30.977  24.556  10.607
78575W        W46969  10.405   5.854   4.519
78576W        W46970  40.983   7.347   1.635
78577W        W46971   0.283  31.376   1.712
78578W        W46972   6.718  27.112  11.516
78579W        W46973  21.515   6.287   0.396
78580W        W46974  44.690  20.254   0.685
78581W        W46975  33.693  21.793  12.397
78582W        W46976  24.542  27.722   0.933
78583W        W46977  44.259  22.656   3.341
78584W        W46978  16.271  24.009  11.289
78585W        W46979  20.224  15.407   3.344
78586W        W46980  11.430  20.638   4.365
78587W        W46981   2.635  43.543  14.108
78588W        W46982  42.551  15.658   3.166
78589W        W46983  25.926  10.203   0.421
78590W        W46984  18.639  11.760   3.836
78591W        W46985  18.452   5.819   2.145
78592W        W46986   1.016   1.119  11.524
78593W        W46987  29.156  35.769  13.793
78594W        W46988  39.532  16.467  12.673
78595W        W46989  33.903  27.382   1.030
78596W        W46990   5.249  19.682   1.240
78597W        W46991  31.562  17.611  12.220
78598W        W46992  13.126  42.974   1.270
78599W        W46993   8.195  26.598  14.499
78600W        W46994  17.763  32.634  12.697
78601W        W46995  20.434  28.710   0.709
78602W        W46996  20.447   3.782  10.655
78603W        W46997  42.439  23.655   0.432
78604W        W46998   4.613  25.119   4.499
78605W        W46999  24.544  14.632  12.889
78606W        W47000  30.435   7.115  13.587
78607W        W47001   3.345  11.425  11.246
78608W        W47002  30.841  26.002   2.556
78609W        W47003  31.343  25.567  11.964
78610W        W47004  18.938   4.752   5.202
78611W        W47005  29.966  12.210   3.265
78612W        W47006  40.928   3.727   2.012
78613W        W47007  16.005  42.077   2.730
78614W        W47008   2.894  19.029   2.790
78615W        W47009   8.180  43.508   0.745
78616W        W47010  34.795  17.642  14.809
78617W        W47011  31.052  35.897  11.435
78618W        W47012  36.686  44.363  13.948
78619W        W47013  21.718  35.819   4.984
78620W        W47014  23.884  17.057  11.650
78621W        W47015   4.420  38.601  14.422
78622W        W47016  41.868  27.098  10.452
78623W        W47017  40.373  34.187   1.147
78624W        W47018   5.231  27.985  13.816
78625W        W47019  32.274  43.909  13.147
78626W        W47020   8.802  30.544  11.900
78627W        W47021  22.736  41.317   0.907
78628W        W47022  39.291   9.653   3.307
78629W        W47023  23.717  43.563   3.812
78630W        W47024  33.767  12.239   0.686
78631W        W47025   0.226  18.228  13.349
78632W        W47026  40.296  10.841   1.951
78633W        W47027   1.938  28.697   1.505
78634W        W47028  36.195  33.961  12.385
78635W        W47029   5.400  40.734  14.830
78636W        W47030  35.143  39.628   3.195
78637W        W47031  40.066  37.819  10.649
78638W        W47032  15.190  22.214   3.882
78639W        W47033  12.160   0.113   4.339
78640W        W47034  20.142  10.668   2.819
78641W        W47035  38.841   1.757  12.518
78642W        W47036  13.402   3.910   0.823
78643W        W47037  38.799  40.401  13.288
78644W        W47038   9.891   0.836  14.836
78645W        W47039  16.011  12.890   4.197
78646W        W47040  27.332  20.852  11.084
78647W        W47041  38.304  19.063   2.745
78648W        W47042  28.896  21.660   3.361
78649W        W47043  33.704  19.725  13.513
78650W        W47044   8.359  11.196   0.968
78651W        W47045  20.337  27.672   1.689
78652W        W47046  44.072   7.729   4.670
78653W        W47047  26.094  17.391  14.832
78654W        W47048  44.095  14.234   4.168
78655W        W47049  38.572  28.474  12.020
78656W        W47050  37.823  17.084  11.956
78657W        W47051  39.395   3.452  13.844
78658W        W47052  20.967   7.963  13.508
78659W        W47053  10.650   7.996   0.199
78660W        W47054  27.477  34.365   4.124
78661W        W47055  21.103  12.283  13.847
78662W        W47056   5.964  26.183  11.161
78663W        W47057  42.904  41.031   4.535
78664W        W47058  32.481  31.031   3.570
78665W        W47059  20.645  15.645  12.895
78666W        W47060  35.184  39.555   1.848
78667W        W47061  29.665  28.644   2.084
78668W        W47062  35.343  28.468  13.698
78669W        W47063  11.334  37.038  10.484
78670W        W47064   9.663   2.700  14.986
78671W        W47065   3.688  39.938  11.594
78672W        W47066  28.978  31.546  12.866
78673W        W47067  23.310  19.778   1.743
78674W        W47068  12.422   4.158   1.208
78675W        W47069   3.850   9.811  12.463
78676W        W47070  37.758  38.495  10.803
78677W        W47071  27.856  22.296  14.349
78678W        W47072  36.348   7.507  10.768
78679W        W47073  38.020  27.784   4.974
78680W        W47074  15.621  35.856   1.741
78681W        W47075   5.596   9.672   1.013
78682W        W47076  14.303  39.571   0.910
78683W        W47077  18.354   8.019  10.218
78684W        W47078  40.549  33.419   2.070
78685W        W47079  40.555  13.142   0.888
78686W        W47080  36.092   9.086   3.953
78687W        W47081  41.588  21.255  13.403
78688W        W47082  25.036  34.676  11.846
78689W        W47083   0.921  33.589  12.999
78690W        W47084   7.954  32.489   4.286
78691W        W47085  36.422  26.051   0.146
78692W        W47086  37.486   0.253  14.865
78693W        W47087   6.916  16.611  13.373
78694W        W47088  16.005  40.133   3.288
78695W        W47089  13.241  33.915   0.928
78696W        W47090  27.501   4.482  13.465
78697W        W47091  16.585  11.233   3.652
78698W        W47092  18.700  41.393  11.488
78699W        W47093  40.514   1.947  11.189
78700W        W47094  29.671  10.134   0.823
78701W        W47095  32.143   2.371   2.606
78702W        W47096   5.627   7.370   1.326
78703W        W47097  39.551   8.342  12.479
78704W        W47098  13.094  15.115   3.244
78705W        W47099  14.606  15.231  13.342
78706W        W47100  21.777   7.696   2.177
78707W        W47101  32.801   4.968  12.919
78708W        W47102  34.482   2.363   0.693
78709W        W47103   3.818   6.240   2.852
78710W        W47104   4.614   9.259  10.946
78711W        W47105  29.000  23.132  14.102
78712W        W47106  16.317  21.465  13.212
78713W        W47107  34.029   7.809  12.612
78714W        W47108  29.045   6.108  13.946
78715W        W47109  35.486  23.132  11.019
78716W        W47110  33.791  26.956   2.887
78717W        W47111  37.042  10.673   1.687
78718W        W47112  35.356  19.052  13.357
78719W        W47113  37.895  21.695  13.635
78720W        W47114  11.265  11.328  10.887
78721W        W47115  26.529  24.251  12.634
78722W        W47116  25.590  43.570   2.934
78723W        W47117  12.108  29.052  14.013
78724W        W47118   7.884  35.253   4.597
78725W        W47119   1.403  15.576   0.364
78726W        W47120   4.002  14.640  13.889
78727W        W47121  35.823  37.037   3.253
78728W        W47122  18.614  22.067   3.686
78729W        W47123  12.626  30.877  10.561
78730W        W47124  39.725  11.705  14.857
78731W        W47125   1.871   2.265   0.349
78732W        W47126   4.161  24.777  13.268
78733W        W47127  17.519  44.986   0.333
78734W        W47128  25.532   2.242   5.050
78735W        W47129  13.290  15.255   1.821
78736W        W47130  41.522   6.845   1.936
78737W        W47131  12.735  27.774  12.518
78738W        W47132  28.468   5.423   3.672
78739W        W47133  39.952  18.089  11.255
78740W        W47134  32.840  18.098   2.208
78741W        W47135  26.167  41.662   1.928
78742W        W47136  26.136  21.145  12.173
78743W        W47137  38.360   2.158   4.548
78744W        W47138   3.946  39.145  12.043
78745W        W47139  23.217   7.056  11.972
78746W        W47140  21.632  41.017   3.457
78747W        W47141  12.367  10.883  11.115
78748W        W47142  16.731  11.783  12.798
78749W        W47143  35.302  12.774  13.509
78750W        W47144  27.595  10.843   4.373
78751W        W47145  24.425  18.639  14.500
78752W        W47146  21.442  10.877   2.831
78753W        W47147  40.395  27.564  12.968
78754W        W47148  30.640  36.334  13.884
78755W        W47149   5.425  22.117  11.068
78756W        W47150  40.597  38.931   2.279
78757W        W47151   3.691  36.791  11.650
78758W        W47152  17.874   7.472  11.551
78759W        W47153  11.251  32.818   0.218
78760W        W47154  37.373  29.750  14.982
78761W        W47155  16.596  21.330  14.579
78762W        W47156  36.977  21.103   0.460
78763W        W47157  19.194   2.066   4.603
78764W        W47158  15.259  34.332   0.150
78765W        W47159  23.058  40.307   0.828
78766W        W47160   2.456  44.525   0.769
78767W        W47161  19.055  20.456   0.812
78768W        W47162  16.370  17.666   1.417
78769W        W47163  10.355   9.128   1.475
78770W        W47164   7.132  40.330  11.167
78771W        W47165  24.477  43.949  11.571
78772W        W47166  24.468  21.977   0.088
78773W        W47167  36.329  16.874  11.128
78774W        W47168  41.828   9.712  11.868
78775W        W47169  33.032  19.073   2.438
78776W        W47170  22.666  14.116   1.887
78777W        W47171  40.441   3.636   4.208
78778W        W47172  42.428  15.999   4.255
78779W        W47173  21.809   0.411   0.151
78780W        W47174  32.651   4.394  13.287
78781W        W47175  44.538  41.694  14.910
78782W        W47176   2.128  42.058  12.367
78783W        W47177  32.929  36.075   1.899
78784W        W47178  19.595  42.842   2.150
78785W        W47179  32.007  10.867  10.693
78786W        W47180  16.089  20.675   4.763
78787W        W47181  42.271   8.252   0.774
78788W        W47182  17.678   5.215   3.623
78789W        W47183  14.537  31.884   3.711
78790W        W47184  29.088  40.443  10.715
78791W        W47185  29.487  24.757  13.602
78792W        W47186  27.076  24.077  14.867
78793W        W47187   2.430  33.948  12.056
78794W        W47188  20.324  32.630  14.077
78795W        W47189   3.385  24.220   2.202
78796W        W47190   8.615  25.094   1.769
78797W        W47191   3.408  28.318   2.291
78798W        W47192  27.921   5.369  14.840
78799W        W47193  25.608  40.662  13.368
78800W        W47194  10.146  24.613  10.842
78801W        W47195   1.308  16.875  12.244
78802W        W47196   3.719  18.231   0.174
78803W        W47197  22.485  44.163  13.525
78804W        W47198   9.099  38.479   1.159
78805W        W47199  38.940  22.759  10.622
78806W        W47200  28.135  11.180  13.031
78807W        W47201  30.440  21.988   1.324
78808W        W47202  41.922  20.501  11.229
78809W        W47203  29.139  41.219  14.926
78810W        W47204   8.143  18.510   2.176
78811W        W47205  21.910  31.433  14.661
78812W        W47206  24.054  36.485   2.701
78813W        W47207   9.534  17.252  11.648
78814W        W47208  26.841   0.252   0.473
78815W        W47209  23.062  29.887  10.934
78816W        W47210  17.616  42.829  14.880
78817W        W47211  14.913   5.409  10.699
78818W        W47212  37.825  20.973  11.415
78819W        W47213  28.566   1.247   0.049
78820W        W47214  32.341  28.594   0.449
78821W        W47215  43.404  37.069  14.299
78822W        W47216  14.310  36.580  13.892
78823W        W47217  37.496  13.684   0.332
78824W        W47218  36.882  33.956  11.941
78825W        W47219  24.962  21.106   0.946
78826W        W47220  38.349  44.487   0.515
78827W        W47221  14.698  41.329  13.902
78828W        W47222   1.777  14.272  10.658
78829W        W47223   0.500  41.241  13.933
78830W        W47224  24.998  35.584   4.180
78831W        W47225  10.940  28.935  11.964
78832W        W47226  14.593   4.340  14.362
78833W        W47227  37.839   5.276  13.750
78834W        W47228   3.282  27.076  11.406
78835W        W47229  18.561  32.553   2.642
78836W        W47230  16.585  30.473  10.731
78837W        W47231  32.925  11.191   0.500
78838W        W47232  12.347  32.912   3.130
78839W        W47233  43.757   6.376   4.144
78840W        W47234  39.474  42.508   3.149
78841W        W47235  19.347  37.684  10.226
78842W        W47236  24.199   6.359   1.910
78843W        W47237  35.234   4.248  11.676
78844W        W47238  41.422   0.371   1.307
78845W        W47239  16.237   7.703   3.003
78846W        W47240  17.282   8.196   0.418
78847W        W47241  44.635  36.876  13.983
78848W        W47242  16.649   1.179  12.183
78849W        W47243  26.514  14.683  13.021
78850W        W47244   3.710  10.083  12.877
78851W        W47245  36.013  13.456  12.058
78852W        W47246  37.465  31.840   2.645
78853W        W47247  13.295   4.159  11.177
78854W        W47248   5.938  14.328  13.844
78855W        W47249  23.168  15.566   2.285
78856W        W47250  18.116  17.743   3.122
78857W        W47251  29.397   0.450  12.114
78858W        W47252  14.841  28.747   0.360
78859W        W47253  35.799  13.781  10.837
78860W        W47254   7.009   5.075   3.369
78861W        W47255  41.425  38.920  10.865
78862W        W47256   0.292  39.878   4.544
78863W        W47257   3.269   5.802   0.830
78864W        W47258  13.330  35.455  12.593
78865W        W47259   7.210   8.901  13.742
78866W        W47260  20.610  30.104   4.890
78867W        W47261  26.177  11.392  11.183
78868W        W47262   1.777  11.817   3.182
78869W        W47263  41.564  12.328   1.790
78870W        W47264  27.175  31.565   4.176
78871W        W47265  33.379  42.749   3.777
78872W        W47266  23.039  23.230  13.444
78873W        W47267  25.082  21.722   4.708
78874W        W47268   9.184   0.723  13.344
78875W        W47269   8.667   0.557  14.828
78876W        W47270  25.248  13.649  11.353
78877W        W47271  43.518  11.261   4.072
78878W        W47272   5.762  15.200   5.056
78879W        W47273  24.460  21.166   1.143
78880W        W47274  14.283  44.799   2.231
78881W        W47275   7.801  22.233   4.691
78882W        W47276  16.828  26.690   4.112
78883W        W47277  40.167   5.673  12.406
78884W        W47278  14.568   0.907  12.117
78885W        W47279  17.464  12.642  11.995
78886W        W47280  42.565  12.838   0.387
78887W        W47281  12.433  28.116   3.441
78888W        W47282   7.708  12.745   5.331
78889W        W47283  21.387  38.348   4.011
78890W        W47284  13.112  32.108   2.747
78891W        W47285  32.775  30.016   3.726
78892W        W47286   6.910  41.066   1.425
78893W        W47287   4.295   3.588   4.210
78894W        W47288   8.200   8.818   1.989
78895W        W47289  40.813  31.005   2.922
78896W        W47290   3.972  18.587   2.383
78897W        W47291  34.817  12.931   3.518
78898W        W47292  35.357  34.394   4.562
78899W        W47293  21.340  26.439   9.621
78900W        W47294   1.372  28.221  11.524
78901W        W47295  36.102  14.685  10.554
78902W        W47296  23.248  37.910   4.310
78903W        W47297   0.001  23.367   1.054
78904W        W47298  38.400  24.597  13.024
78905W        W47299  31.461   6.659   2.129
78906W        W47300  36.778   1.815   1.637
78907W        W47301  19.669  31.211   0.242
78908W        W47302  17.435  19.178  10.396
78909W        W47303   9.695  17.373   1.294
78910W        W47304  26.181  10.120   2.838
78911W        W47305  13.794  24.000  14.384
78912W        W47306  22.230  20.472  12.098
78913W        W47307  11.046  14.123   0.922
78914W        W47308  44.277  41.764  10.607
78915W        W47309  22.148  40.858   3.313
78916W        W47310  22.152  32.493   0.641
78917W        W47311   7.561  32.788   0.939
78918W        W47312  19.431   6.893   3.164
78919W        W47313   2.926  15.077   1.176
78920W        W47314   7.428  25.292  12.520
78921W        W47315  24.801  43.433   2.656
78922W        W47316  31.870  17.630  13.678
78923W        W47317  30.752  28.640   2.516
78924W        W47318  18.869  43.785   3.375
78925W        W47319  14.065  29.935  13.380
78926W        W47320  36.473  34.588  10.597
78927W        W47321  42.881   4.011   4.304
78928W        W47322  25.114  24.976   0.501
78929W        W47323  38.353  32.869  12.194
78930W        W47324   8.868  30.900  10.593
78931W        W47325  35.889   5.604  10.423
78932W        W47326  32.428  15.407   3.652
78933W        W47327  25.034  41.947   4.557
78934W        W47328  19.766   8.619  13.938
78935W        W47329  24.229   6.406  11.422
78936W        W47330  25.123   7.675  11.565
78937W        W47331  18.219   8.436   0.716
78938W        W47332  31.937  30.803   0.797
78939W        W47333  24.162  17.039   3.821
78940W        W47334  39.084   6.583  10.956
78941W        W47335   1.685  15.351  14.445
78942W        W47336  12.238  31.870  12.523
78943W        W47337  25.414  15.076   1.352
78944W        W47338   5.173  26.263   2.341
78945W        W47339  25.733  26.763   4.576
78946W        W47340  36.341  24.324   1.101
78947W        W47341  42.373  25.243   1.842
78948W        W47342  30.658  37.436  14.420
78949W        W47343  17.205  11.792   2.657
78950W        W47344   2.453  43.596   0.920
78951W        W47345   2.738   0.266   3.111
78952W        W47346  16.395   2.362  13.189
78953W        W47347   4.279  36.396   4.808
78954W        W47348   5.663  27.487   2.657
78955W        W47349  11.849  42.402  14.883
78956W        W47350   3.523   8.309  14.904
78957W        W47351  42.868  31.795  12.589
78958W        W47352  31.175  36.317  12.168
78959W        W47353  43.293  39.110   2.269
78960W        W47354  44.002  32.160   3.667
78961W        W47355  32.091  36.930   1.257
78962W        W47356  44.298  22.572  14.246
78963W        W47357  21.447  42.354  12.450
78964W        W47358  21.164  44.530  12.714
78965W        W47359  20.674  34.946   2.459
78966W        W47360  42.039  11.815  14.533
78967W        W47361  40.874   1.906  14.382
78968W        W47362   4.436   7.253   1.702
78969W        W47363  39.246  44.409   9.943
78970W        W47364  17.259   3.269   0.062
78971W        W47365  30.817   1.140  14.569
78972W        W47366  31.847  19.226   0.259
78973W        W47367   3.002   6.883  11.029
78974W        W47368  44.904  41.127   1.318
78975W        W47369  35.610  13.675   0.881
78976W        W47370  24.412  22.624  12.450
78977W        W47371  23.710  12.348  13.476
78978W        W47372  29.158  22.499   2.910
78979W        W47373  44.705  33.981   1.296
78980W        W47374  32.308   7.364   4.186
78981W        W47375  25.279  44.882  12.056
78982W        W47376  42.850  22.776   0.527
78983W        W47377  19.052  10.507  12.990
78984W        W47378  25.592  24.956   1.256
78985W        W47379  11.248   9.999  11.170
78986W        W47380   6.353  43.459   4.569
78987W        W47381  43.233   9.295  14.495
78988W        W47382   0.270  43.348   4.399
78989W        W47383   3.404  30.727   4.046
78990W        W47384  16.172  40.937  11.922
78991W        W47385  29.186   7.106   2.340
78992W        W47386  44.809  26.059   4.628
78993W        W47387  31.484  17.071   3.132
78994W        W47388  21.299   6.248  12.043
78995W        W47389   6.669  18.316  11.982
78996W        W47390  33.277  32.471  13.651
78997W        W47391  20.303  29.447   3.317
78998W        W47392  33.292   7.361   0.026
78999W        W47393  16.165   8.185   0.342
79000W        W47394   0.510   8.325   2.189
79001W        W47395  21.543   4.046   4.378
79002W        W47396  20.608  29.263   3.674
79003W        W47397  28.972  17.099   2.732
79004W        W47398  31.923  33.429  12.986
79005W        W47399  44.060  21.114  11.476
79006W        W47400  24.779  41.053  10.668
79007W        W47401  20.501   6.297  13.491
79008W        W47402  13.709  38.902  14.260
79009W        W47403  40.730  13.624   4.740
79010W        W47404   5.519   1.685   0.894
79011W        W47405   5.480  42.887  12.544
79012W        W47406  16.269  28.277  10.595
79013W        W47407  37.547  10.876  12.523
79014W        W47408   0.672  26.634   2.100
79015W        W47409  29.725  14.145  10.306
79016W        W47410  16.229   2.949   1.919
79017W        W47411  30.032  44.938  11.836
79018W        W47412  34.842   9.277   2.332
79019W        W47413  41.021  25.571  13.084
79020W        W47414  42.473  34.513  11.888
79021W        W47415   5.846   8.241   3.223
79022W        W47416  38.543  38.073   3.561
79023W        W47417  10.703   5.544   2.906
79024W        W47418  13.494  25.447   3.132
79025W        W47419  23.738  30.629  14.239
79026W        W47420  31.496  28.179  12.921
79027W        W47421  16.634   0.031   0.750
79028W        W47422  25.916   1.808   0.470
79029W        W47423   3.785  36.843   1.386
79030W        W47424  11.972  26.927  11.604
79031W        W47425  13.299   4.367  13.162
79032W        W47426  19.171  16.868  11.093
79033W        W47427  25.069  24.037  14.028
79034W        W47428   9.582  10.370   1.909
79035W        W47429  20.384  32.004  11.611
79036W        W47430  15.167  28.222   2.621
79037W        W47431   2.011   7.827  11.650
79038W        W47432  14.619   0.948  14.820
79039W        W47433   1.877  23.743  14.433
79040W        W47434  41.769  31.078   0.428
79041W        W47435  24.648  26.507  14.553
79042W        W47436  40.540  14.155   2.586
79043W        W47437  13.535  17.865   4.163
79044W        W47438  27.605  43.797   4.142
79045W        W47439  15.711  43.429  13.803
79046W        W47440  12.209   7.485   2.747
79047W        W47441  21.214  32.922   1.475
79048W        W47442  25.154  23.567  13.848
79049W        W47443   0.488  39.467   2.770
79050W        W47444  20.258   2.353   3.698
79051W        W47445  44.994   9.670  11.060
79052W        W47446  31.683   9.109   3.199
79053W        W47447  23.252  35.150  12.036
79054W        W47448  21.635  30.459  12.008
79055W        W47449  12.114   5.856   3.662
79056W        W47450  32.980  26.627   3.162
79057W        W47451  12.459  41.459  12.090
79058W        W47452  15.058  41.858   3.670
79059W        W47453  39.863  13.269   3.718
79060W        W47454  38.947  14.020   2.602
79061W        W47455  18.010  26.748   3.765
79062W        W47456  31.464  20.832   0.101
79063W        W47457  12.082  10.390   1.839
79064W        W47458  16.145  10.655  13.034
79065W        W47459   6.869  14.560  14.026
79066W        W47460   6.484  14.239   5.305
79067W        W47461  17.448  37.448  11.191
79068W        W47462   9.707  32.788  13.399
79069W        W47463  23.961  30.381   1.432
79070W        W47464  44.707  43.927   1.245
79071W        W47465   8.608  29.148  11.893
79072W        W47466  13.205  33.766  14.494
79073W        W47467  16.202   2.236   2.412
79074W        W47468  19.718  30.711  13.542
79075W        W47469  28.242  21.392   0.716
79076W        W47470   9.836  35.483   2.613
79077W        W47471  35.689  32.123   4.155
79078W        W47472  33.943   5.862   0.840
79079W        W47473   2.010  25.584  14.928
79080W        W47474  28.493  37.477  12.444
79081W        W47475  17.942  41.204   5.225
79082W        W47476  18.122  10.765  11.661
79083W        W47477  10.220  23.753   0.891
79084W        W47478  20.009  42.901   4.497
79085W        W47479  21.620  29.900   4.228
79086W        W47480  19.176   4.937   1.745
79087W        W47481  33.935  18.154  13.934
79088W        W47482  33.737   1.696   4.456
79089W        W47483   1.624  35.930   3.691
79090W        W47484  29.744   1.467  14.018
79091W        W47485   2.791  36.053   2.756
79092W        W47486  15.660  28.125   2.789
79093W        W47487  38.839   1.723   0.968
79094W        W47488  31.622  19.101   2.410
79095W        W47489  15.136  29.102  12.412
79096W        W47490   8.995  19.123   4.224
79097W        W47491   6.363  23.475  13.998
79098W        W47492   3.948   7.228   1.928
79099W        W47493  17.449  40.889   2.417
79100W        W47494  21.359  18.056   1.312
79101W        W47495   6.459  40.223  14.001
79102W        W47496  12.712  33.519   3.737
79103W        W47497  23.750  37.367  12.574
79104W        W47498   3.557  20.039  11.062
79105W        W47499  20.748  27.646  13.934
79106W        W47500  23.260  39.807   1.859
79107W        W47501  38.020  11.196  14.511
79108W        W47502  43.073  44.828  13.417
79109W        W47503  24.330  16.788  11.581
79110W        W47504  26.653  11.309   4.177
79111W        W47505  35.454   2.830   1.280
79112W        W47506  11.274  15.422  10.667
79113W        W47507  20.297  26.244  11.997
79114W        W47508  33.598  16.623  10.610
79115W        W47509   8.309  38.951   1.618
79116W        W47510   6.335  16.858  12.057
79117W        W47511  22.442  15.159   9.855
79118W        W47512  31.881   5.866   3.704
79119W        W47513  28.526  11.371   1.938
79120W        W47514  28.433  44.839  14.576
79121W        W47515  35.932  37.466   0.934
79122W        W47516  13.615  18.565   3.681
79123W        W47517  17.099  43.848   0.338
79124W        W47518   0.498  27.518   0.335
79125W        W47519  29.595  21.075  10.625
79126W        W47520  22.511  12.263   1.123
79127W        W47521  30.184   5.504  14.386
79128W        W47522  27.988  29.789  14.287
79129W        W47523  43.067  41.429  12.482
79130W        W47524  26.470  25.052   2.940
79131W        W47525   1.806   6.400  14.069
79132W        W47526  33.184  24.290  12.645
79133W        W47527  26.743  15.053   0.821
79134W        W47528  29.988   2.000  12.051
79135W        W47529  32.387  14.857   2.255
79136W        W47530  36.452  25.535   0.379
79137W        W47531  32.505  24.264   1.231
79138W        W47532   9.197  13.368   4.780
79139W        W47533  31.583  33.171   4.060
79140W        W47534   9.198   0.018  11.667
79141W        W47535  11.212  26.927  12.976
79142W        W47536  32.522  11.722  12.932
79143W        W47537  22.759   1.468  12.000
79144W        W47538  27.095  44.013  13.789
79145W        W47539  31.991   3.460  10.202
79146W        W47540  29.250   7.107  14.057
79147W        W47541  33.221  33.931   3.239
79148W        W47542   7.185  38.789   2.301
79149W        W47543  25.922  25.749  11.577
79150W        W47544   4.884  13.291   2.657
79151W        W47545  42.399   3.846  13.289
79152W        W47546  40.273  44.315   3.739
79153W        W47547  33.547   1.507  10.507
79154W        W47548  31.043   6.359  14.322
79155W        W47549   1.499  39.042  14.250
79156W        W47550  44.868  29.555  13.313
79157W        W47551  32.478  31.191   2.511
79158W        W47552  19.569  24.682  10.192
79159W        W47553  28.916  44.951   4.593
79160W        W47554  35.083  11.372   5.110
79161W        W47555   8.749   5.750   4.352
79162W        W47556  42.277  26.907  10.727
79163W        W47557   5.454   2.914  11.987
79164W        W47558  17.532  26.127  12.644
79165W        W47559   4.333  41.167   3.862
79166W        W47560  21.248  41.313  10.762
79167W        W47561   0.896  10.602   1.762
79168W        W47562  35.139  21.608   2.920
79169W        W47563   2.969  20.777   1.727
79170W        W47564  17.224   4.758   1.372
79171W        W47565  35.083  31.530   0.996
79172W        W47566  21.029  15.218  13.943
79173W        W47567  38.288   7.892  11.666
79174W        W47568  25.705  13.635   2.667
79175W        W47569   5.320  27.626   4.697
79176W        W47570  18.024  22.716  12.057
79177W        W47571  13.193  30.860   0.861
79178W        W47572   8.197  29.591   0.939
79179W        W47573  22.011  10.194  14.038
79180W        W47574  38.859  13.879  12.974
79181W        W47575  33.723   8.360  14.014
79182W        W47576   0.912  13.110   1.742
79183W        W47577  44.093  30.388   3.237
79184W        W47578   2.830  10.400   4.078
79185W        W47579  35.007   5.440   1.249
79186W        W47580  11.988  12.978   4.139
79187W        W47581  11.301   0.123  13.633
79188W        W47582  20.954  33.147   0.937
79189W        W47583  42.893  33.142  10.661
79190W        W47584  14.614  24.676  14.149
79191W        W47585  19.330   3.921   2.857
79192W        W47586  43.679  41.005   3.263
79193W        W47587  15.828   7.713  11.122
79194W        W47588   0.518   2.241  10.325
79195W        W47589  25.028  41.883   2.421
79196W        W47590  35.222   7.955  12.842
79197W        W47591  18.300  36.157  10.701
79198W        W47592  44.371  29.845  14.535
79199W        W47593  32.588  27.629   3.561
79200W        W47594   7.843  34.100  10.769
79201W        W47595  30.870  33.271   4.682
79202W        W47596  41.481  10.182  10.700
79203W        W47597  28.190  15.321  11.182
79204W        W47598  16.555  41.153  12.963
79205W        W47599  16.273  31.388   4.138
79206W        W47600  36.288  19.186   3.811
79207W        W47601  25.116  21.326  10.763
79208W        W47602  29.379  43.973   2.165
79209W        W47603  32.623  34.589  14.427
79210W        W47604  19.109  14.194  14.221
79211W        W47605   3.443  34.900  13.850
79212W        W47606  41.192   8.425  14.350
79213W        W47607  37.185   3.313  14.422
79214W        W47608  41.294  33.435  13.937
79215W        W47609  25.463  38.022   1.213
79216W        W47610  31.093  32.038  10.419
79217W        W47611  15.874  35.467   4.773
79218W        W47612   4.823  30.557   3.848
79219W        W47613  33.102  29.224   1.489
79220W        W47614  23.670  42.323  13.930
79221W        W47615   1.256   5.667  14.337
79222W        W47616  43.293   3.836  11.489
79223W        W47617  41.328  19.515   4.605
79224W        W47618   7.511  28.141  11.186
79225W        W47619  14.414  15.048  11.978
79226W        W47620   2.194  29.991   2.494
79227W        W47621  32.836  18.092  12.928
79228W        W47622   4.548  34.370  12.975
79229W        W47623  42.326  22.052   1.193
79230W        W47624  11.809   0.734  13.503
79231W        W47625  35.032  35.594   0.183
79232W        W47626   2.402  38.558  13.791
79233W        W47627   1.393   2.692   4.176
79234W        W47628  20.705  11.685   3.678
79235W        W47629  10.288  32.651  11.077
79236W        W47630  23.244   7.183  12.519
79237W        W47631  37.945  24.437   3.329
79238W        W47632  28.664  10.752  12.563
79239W        W47633   2.680   5.288   1.258
79240W        W47634  40.989   9.369   1.030
79241W        W47635  40.518  18.653   3.614
79242W        W47636  22.264  19.614   0.875
79243W        W47637  38.918  21.918  12.320
79244W        W47638  12.781  15.540   0.737
79245W        W47639  39.295   1.242  13.815
79246W        W47640  19.182  13.456  13.083
79247W        W47641  42.947  41.315  14.970
79248W        W47642  13.350  35.889   4.612
79249W        W47643  14.691  21.985   4.537
79250W        W47644   1.473  35.880  14.466
79251W        W47645   7.733  38.591  11.217
79252W        W47646   3.698  44.802   3.069
79253W        W47647  12.289  22.105  14.348
79254W        W47648  18.104  17.499   1.870
79255W        W47649  37.260  20.126  11.654
79256W        W47650  26.991   3.634  11.149
79257W        W47651   6.782  44.370   1.482
79258W        W47652  38.091  23.132   3.601
79259W        W47653  28.550  28.471   0.871
79260W        W47654   5.861  41.756  14.484
79261W        W47655  35.942  40.755   2.345
79262W        W47656  28.130  32.883  12.459
79263W        W47657   8.631  31.119  11.568
79264W        W47658  10.684   3.923   0.081
79265W        W47659  44.055  42.430  11.972
79266W        W47660  25.556  44.404  14.345
79267W        W47661  25.442  20.358   2.566
79268W        W47662  17.585  30.856   3.206
79269W        W47663   5.236  39.950   2.867
79270W        W47664  35.034   5.843   0.531
79271W        W47665   5.748  13.316  14.715
79272W        W47666  40.031  33.129  13.850
79273W        W47667  37.380  31.313   3.355
79274W        W47668  29.385  27.504  14.525
79275W        W47669  43.023  34.893   1.338
79276W        W47670  29.195  32.524   1.043
79277W        W47671  13.733  20.486   1.301
79278W        W47672  38.999  15.724   3.123
79279W        W47673  31.008   1.858  13.921
79280W        W47674  41.769  21.584   4.976
79281W        W47675  38.877  30.104   3.024
79282W        W47676  41.209  33.361  11.946
79283W        W47677   7.866  18.701  12.151
79284W        W47678  22.197  31.380   3.126
79285W        W47679  18.718  38.469   4.023
79286W        W47680  23.521  23.239  12.063
79287W        W47681  40.963  15.314   3.927
79288W        W47682  20.934  39.548   1.754
79289W        W47683  22.180  27.992  12.391
79290W        W47684  41.464  13.506  14.275
79291W        W47685  40.401  39.862   0.802
79292W        W47686  27.617  20.553   1.732
79293W        W47687  14.998   0.818   3.906
79294W        W47688   1.293  41.731  14.546
79295W        W47689  31.102  25.136   4.477
79296W        W47690   4.506  41.585  14.788
79297W        W47691  13.740  30.649   3.757
79298W        W47692  18.151  18.707   3.042
79299W        W47693  43.571   4.161  13.960
79300W        W47694   3.984   5.809   2.315
79301W        W47695  29.803  35.996   1.893
79302W        W47696   0.713  43.345  14.542
79303W        W47697  28.115  13.084  11.106
79304W        W47698  26.292  13.586   1.831
79305W        W47699  29.591  33.952  11.408
79306W        W47700  27.516   5.746  10.607
79307W        W47701  39.964  20.180  12.089
79308W        W47702  10.180   2.307   0.603
79309W        W47703  20.725  43.222  12.087
79310W        W47704   9.695  35.032  14.710
79311W        W47705  38.577  22.557   0.075
79312W        W47706  32.568  20.043   1.417
79313W        W47707   0.837  32.078   0.233
79314W        W47708   1.865   3.189   1.339
79315W        W47709  43.663   3.502   3.550
79316W        W47710  13.277  23.547   0.198
79317W        W47711  11.229   0.972  12.012
79318W        W47712  33.443  19.533   3.324
79319W        W47713   6.484   4.457   0.731
79320W        W47714   2.327  10.564  13.557
79321W        W47715  27.450  19.591  13.877
79322W        W47716  29.974  31.528  14.843
79323W        W47717  29.932  28.202   2.234
79324W        W47718  38.886  43.494   0.379
79325W        W47719  11.730   5.047   5.231
79326W        W47720  11.853   7.098  11.108
79327W        W47721   6.743  34.623   4.052
79328W        W47722  18.450  24.717   2.652
79329W        W47723  11.433  33.837   0.445
79330W        W47724  42.485   8.141   4.845
79331W        W47725  14.555   2.349   1.464
79332W        W47726  11.172  28.209   1.301
79333W        W47727   7.506  28.397  12.138
79334W        W47728  14.377   6.464  12.934
79335W        W47729  29.508  19.737   3.960
79336W        W47730  23.802  35.983   4.322
79337W        W47731  33.076  34.352   0.170
79338W        W47732  35.487  31.617   4.121
79339W        W47733   5.666  38.177   3.257
79340W        W47734  41.128  33.063   1.226
79341W        W47735  25.266  41.586  14.253
79342W        W47736   8.240  16.785  13.764
79343W        W47737  14.240  35.397   2.587
79344W        W47738  12.147   0.891  14.747
79345W        W47739  26.019   2.872  14.255
79346W        W47740   0.732  37.849   3.268
79347W        W47741   6.371  37.377   4.590
79348W        W47742   8.298  35.552  14.834
79349W        W47743  40.549  44.160   4.162
79350W        W47744   4.250   4.302   3.517
79351W        W47745  43.685  22.442   3.111
79352W        W47746  30.864  14.862   2.233
79353W        W47747  17.720  40.403  11.550
79354W        W47748  43.436  33.621   1.791
79355W        W47749  39.518  43.774   0.485
79356W        W47750  40.978  14.503  11.527
79357W        W47751  40.800   0.978   2.360
79358W        W47752  32.639  43.393   4.550
79359W        W47753   8.292  29.043   4.452
79360W        W47754   4.903   8.335  12.581
79361W        W47755   4.766  33.464  14.333
79362W        W47756  43.178   4.366  14.930
79363W        W47757  32.116  36.005  12.696
79364W        W47758   3.876   3.217   0.009
79365W        W47759  13.058  24.515  14.300
79366W        W47760  36.061  33.077  14.475
79367W        W47761  27.023  29.704   4.974
79368W        W47762  22.777  31.126  14.817
79369W        W47763  40.373  30.944   2.235
79370W        W47764  38.603  36.321  12.612
79371W        W47765   0.578   7.844  11.577
79372W        W47766  32.596  14.038  13.959
79373W        W47767  12.538   7.862   2.071
79374W        W47768  34.863  38.623   3.290
79375W        W47769  15.555   6.355  13.600
79376W        W47770  41.952  23.471  13.032
79377W        W47771  36.476   6.053  10.628
79378W        W47772  42.017   8.921  14.533
79379W        W47773  42.875  41.689   2.434
79380W        W47774  43.123  27.120  11.666
79381W        W47775  26.938   7.835  12.121
79382W        W47776  35.103  12.595  11.447
79383W        W47777  30.255  19.362  13.430
79384W        W47778   4.915  17.746   0.053
79385W        W47779  10.008  23.726  11.106
79386W        W47780  23.914   2.664  12.422
79387W        W47781  16.604  21.227  10.993
79388W        W47782   1.763  38.588   2.347
79389W        W47783  35.602  16.958  13.451
79390W        W47784  27.138  16.527  11.179
79391W        W47785   5.775  38.327  14.356
79392W        W47786  13.359  38.199   2.310
79393W        W47787  44.126  33.117  11.894
79394W        W47788  40.855  22.022   0.129
79395W        W47789  15.616  40.847  11.084
79396W        W47790  42.313  30.352   0.953
79397W        W47791  18.322  35.503  13.948
79398W        W47792  34.069  13.893   4.267
79399W        W47793  30.815  41.709  12.465
79400W        W47794  13.326   6.968   2.173
79401W        W47795  18.997  32.844   1.827
79402W        W47796  40.027   1.637   3.641
79403W        W47797  10.550  15.238   4.683
79404W        W47798   6.426  41.754  12.061
79405W        W47799  23.503  42.396   0.377
79406W        W47800   6.247  43.711   3.175
79407W        W47801  33.336  42.863  13.049
79408W        W47802  27.144  32.130   0.740
79409W        W47803  44.764  11.296   2.187
79410W        W47804  37.097   4.245  14.950
79411W        W47805  22.243  39.329   2.218
79412W        W47806   0.969  22.737   4.564
79413W        W47807  11.614  27.226   1.772
79414W        W47808  40.422  22.030   1.823
79415W        W47809  19.782  36.274  12.517
79416W        W47810   7.908  36.172  13.470
79417W        W47811  43.459  15.597   3.171
79418W        W47812  40.306  17.778  11.515
79419W        W47813  26.680  21.248   2.206
79420W        W47814  33.068  26.509  13.782
79421W        W47815  30.942  17.308  11.736
79422W        W47816   4.183   0.747  11.517
79423W        W47817  14.412  10.120   4.148
79424W        W47818   1.958  24.786   2.168
79425W        W47819  29.634  41.816   3.749
79426W        W47820   8.843  42.039   2.715
79427W        W47821  22.140  12.641  11.134
79428W        W47822  31.417  22.232   4.688
79429W        W47823  26.639  28.849  11.637
79430W        W47824  35.593  36.030  10.816
79431W        W47825   2.502  34.540   1.175
79432W        W47826  44.419  21.296   1.791
79433W        W47827  22.667  25.470   2.656
79434W        W47828  30.061   8.365   3.398
79435W        W47829  26.209  16.367  14.768
79436W        W47830   0.345   2.306   0.338
79437W        W47831  14.676   0.005  12.584
79438W        W47832  17.272  34.584  12.120
79439W        W47833  26.905  22.988   0.863
79440W        W47834  33.874   5.283   4.162
79441W        W47835  26.068  44.505   1.405
79442W        W47836  11.124   3.254   0.835
79443W        W47837   4.265  35.052   3.519
79444W        W47838  40.486  25.108   2.199
79445W        W47839  43.030  22.071  11.992
79446W        W47840  42.601  33.205  11.860
79447W        W47841  39.412  40.762  13.918
79448W        W47842  19.711  15.519   3.332
79449W        W47843   3.758   3.509  10.300
79450W        W47844  10.298  12.858  11.952
79451W        W47845  17.953  16.438   1.783
79452W        W47846  42.871   6.985  13.918
79453W        W47847  36.916  12.403  11.638
79454W        W47848  42.854  34.295  12.147
79455W        W47849  43.142  28.146  14.445
79456W        W47850   9.696  14.122  13.992
79457W        W47851  44.488  23.163   0.867
79458W        W47852  18.617   2.654  13.355
79459W        W47853  14.640   8.856  13.977
79460W        W47854  19.520  13.057  11.582
79461W        W47855  20.406  31.808  12.501
79462W        W47856  18.529  43.454  12.863
79463W        W47857  42.038  20.724  12.568
79464W        W47858  41.798  27.222  11.471
79465W        W47859   8.392   2.886  11.143
79466W        W47860  37.996  36.811   3.202
79467W        W47861  12.107  11.411   1.720
79468W        W47862  22.971  32.184   0.236
79469W        W47863   4.129   2.163   5.088
79470W        W47864  11.251   6.508   0.794
79471W        W47865  22.008  13.330   1.859
79472W        W47866  37.840   7.124  11.481
79473W        W47867   5.006   9.602   1.270
79474W        W47868  19.819   6.206   1.955
79475W        W47869  22.538  10.734  14.514
79476W        W47870   4.589  27.140  12.215
79477W        W47871   7.432  33.120   4.020
79478W        W47872  17.718  31.605  11.611
79479W        W47873  29.186  44.123  11.854
79480W        W47874  10.234  21.940  11.595
79481W        W47875  21.633  41.954  14.952
79482W        W47876  10.239  18.981   4.180
79483W        W47877  20.040  38.900   0.658
79484W        W47878  31.013  43.842   0.827
79485W        W47879  22.984  15.641   4.238
79486W        W47880  22.326  12.595   1.671
79487W        W47881   5.829  24.771   2.351
79488W        W47882  43.186  25.635  14.855
79489W        W47883   0.327  37.317  12.980
79490W        W47884  37.707  19.300  10.504
79491W        W47885   7.941  31.990   2.845
79492W        W47886  19.142  34.649  13.519
79493W        W47887  30.123  28.627  11.637
79494W        W47888  11.126  20.781   1.351
79495W        W47889   7.270  36.122  12.452
79496W        W47890   3.509  35.500   0.311
79497W        W47891   2.347  38.140  14.926
79498W        W47892  15.596  20.642   4.590
79499W        W47893  27.798  17.087   9.872
79500W        W47894  11.846  40.429   4.450
79501W        W47895  44.494   9.640   3.638
79502W        W47896   8.435   8.400   2.726
79503W        W47897  32.094  13.705   2.207
79504W        W47898  38.394   5.577   3.399
79505W        W47899   7.397  25.465  11.205
79506W        W47900   1.405  33.894   3.692
79507W        W47901   9.185  12.377   4.778
79508W        W47902   5.300  42.362  11.870
79509W        W47903  39.503   5.701   3.635
79510W        W47904  15.831  38.842   2.516
79511W        W47905  19.963  20.191  10.580
79512W        W47906  42.042  24.379   2.615
79513W        W47907  44.201  27.145  14.247
79514W        W47908  23.262   3.411   0.008
79515W        W47909   6.447   1.480   1.532
79516W        W47910  44.235  22.732   0.794
79517W        W47911  36.806  20.905  12.560
79518W        W47912   8.312  33.153  14.927
79519W        W47913  41.831  10.873   4.780
79520W        W47914  41.931  14.871   2.301
79521W        W47915  16.385  31.851   0.819
79522W        W47916  37.077   8.833   0.139
79523W        W47917   4.403  29.985   2.802
79524W        W47918  13.191  38.511  14.969
79525W        W47919  34.863  37.553  11.583
79526W        W47920   7.370  24.072   1.829
79527W        W47921  34.542  15.767  13.609
79528W        W47922  37.338  31.450   1.222
79529W        W47923  44.245   7.934  11.891
79530W        W47924  14.702  40.573  11.530
79531W        W47925  15.300   5.207   4.965
79532W        W47926  17.339   2.197  10.645
79533W        W47927   0.379  38.290   4.633
79534W        W47928  37.874  17.718  13.397
79535W        W47929  17.875  29.509  11.994
79536W        W47930  43.519  18.718  14.767
79537W        W47931  37.258  14.672  14.469
79538W        W47932  43.945   7.917   3.789
79539W        W47933  40.646  36.344  13.456
79540W        W47934  35.665  34.789   1.279
79541W        W47935  28.337  43.831  13.508
79542W        W47936   4.392  34.005   0.156
79543W        W47937  12.091  28.589   1.455
79544W        W47938  43.531   0.457  12.063
79545W        W47939   3.302  30.476   2.133
79546W        W47940  18.253  26.039  12.101
79547W        W47941  44.909  14.460  14.472
79548W        W47942  43.489   9.791   2.566
79549W        W47943  13.311  10.705  12.501
79550W        W47944  21.997   5.520  12.070
79551W        W47945  13.586   2.683   0.539
79552W        W47946  14.386  23.602   0.461
79553W        W47947  22.002  24.184   3.658
79554W        W47948  38.125   0.894   3.433
79555W        W47949   9.902  41.219  11.475
79556W        W47950   1.370  43.380  13.994
79557W        W47951  40.722  34.060  11.539
79558W        W47952  22.245   4.991   0.670
79559W        W47953   9.255  18.891  14.954
79560W        W47954  42.837  14.381  13.976
79561W        W47955   5.336  10.900   3.681
79562W        W47956  21.656  44.708  10.983
79563W        W47957  18.198  10.845  10.763
79564W        W47958  23.494  33.424  13.299
79565W        W47959  29.168   7.583  11.949
79566W        W47960  41.865  42.871   1.267
79567W        W47961  20.902   6.816   1.306
79568W        W47962  35.435  36.056   4.077
79569W        W47963  44.400  43.912  11.104
79570W        W47964  32.358  13.758  12.168
79571W        W47965   8.065  32.404   4.833
79572W        W47966   5.314  23.799   4.603
79573W        W47967  14.363   6.526   1.881
79574W        W47968  22.780  13.870   4.295
79575W        W47969   6.357  10.568   2.834
79576W        W47970  35.405  18.065  14.318
79577W        W47971   2.348  21.909   1.129
79578W        W47972  41.300  41.978  13.299
79579W        W47973   8.901  33.912  12.569
79580W        W47974  25.810   1.762   1.334
79581W        W47975  17.356  16.761  12.009
79582W        W47976  30.128  10.373  13.777
79583W        W47977  38.708   3.304   4.795
79584W        W47978  29.613  22.545   3.176
79585W        W47979  35.077  38.106   2.416
79586W        W47980  31.435  26.287  12.891
79587W        W47981  34.470  26.672  12.697
79588W        W47982  32.548  19.620   2.384
79589W        W47983  28.513  13.018  14.867
79590W        W47984  11.084  10.156   1.723
79591W        W47985  16.751  34.944  13.318
79592W        W47986  14.611  31.924   0.689
79593W        W47987  34.996  39.046   1.849
79594W        W47988  44.236  39.016  14.053
79595W        W47989  12.281   3.863   0.317
79596W        W47990  12.707  10.622  13.014
79597W        W47991  21.131   6.668   0.560
79598W        W47992  27.371  11.418   2.686
79599W        W47993  27.186   9.626   1.917
79600W        W47994  21.375  31.724   2.933
79601W        W47995  26.047  12.841  11.593
79602W        W47996  44.402  15.229  13.051
79603W        W47997  44.180  12.722  13.494
79604W        W47998  29.566   3.498   4.557
79605W        W47999   1.045  40.956  12.540
79606W        W48000  10.440  26.482  12.921
79607W        W48001  12.959  11.367  11.161
79608W        W48002   3.352   0.207   2.247
79609W        W48003  17.867  33.023   3.239
79610W        W48004  34.373  32.026  10.779
79611W        W48005  23.082  33.555  11.237
79612W        W48006   0.460  25.005   3.708
79613W        W48007  15.204  30.834  11.244
79614W        W48008  18.552   7.285   1.478
79615W        W48009  41.027   2.304   4.140
79616W        W48010  19.009  18.188   3.746
79617W        W48011   8.309  27.183   0.264
79618W        W48012  35.890  24.233   1.366
79619W        W48013   7.166  13.733   4.055
79620W        W48014  39.124   7.337   3.318
79621W        W48015  28.722  28.417   3.710
79622W        W48016  13.514  16.724   4.787
79623W        W48017  27.126  16.303   4.347
79624W        W48018  30.979  42.786  12.541
79625W        W48019  19.977  16.448  13.198
79626W        W48020  17.857  22.701  12.614
79627W        W48021  21.235  38.055  14.517
79628W        W48022  27.945  32.574   1.051
79629W        W48023  33.579  40.380   5.167
79630W        W48024  27.487   4.581   1.878
79631W        W48025   2.300  20.700   2.909
79632W        W48026   7.486  21.025   3.306
79633W        W48027  29.322  32.397  11.064
79634W        W48028  44.753  26.013  12.029
79635W        W48029  18.594  26.955  14.972
79636W        W48030  10.213   5.185   4.587
79637W        W48031  17.656  27.592   2.522
79638W        W48032   0.343  13.838   3.863
79639W        W48033  30.351  14.036   4.012
79640W        W48034  22.033   5.433  13.903
79641W        W48035  41.553  32.582  13.743
79642W        W48036  23.154  12.934  11.101
79643W        W48037  10.057  20.912  14.862
79644W        W48038   3.341  21.595   0.230
79645W        W48039   6.271  18.050  14.437
79646W        W48040  19.640   9.931   2.534
79647W        W48041  15.466   0.807   3.663
79648W        W48042  36.115  40.588   0.013
79649W        W48043  13.477   7.061  11.704
79650W        W48044  11.371  20.157   4.588
79651W        W48045   1.629  13.361   0.375
79652W        W48046  23.869  43.371  12.004
79653W        W48047  11.678  19.783  12.146
79654W        W48048  37.519  18.597  10.764
79655W        W48049  15.881  24.596   0.516
79656W        W48050  24.671  24.880   0.170
79657W        W48051  22.255   9.704  11.079
79658W        W48052  18.192  31.774  11.789
79659W        W48053  36.952   7.256   2.035
79660W        W48054  38.624  29.239  11.595
79661W        W48055  17.719  26.123   4.538
79662W        W48056  16.210  34.115  14.090
79663W        W48057  33.032  41.853  14.618
79664W        W48058  15.694  41.755   5.327
79665W        W48059  24.500  33.977  13.993
79666W        W48060  26.439  18.248   1.440
79667W        W48061   9.317  41.833   1.447
79668W        W48062  14.693   4.419  12.432
79669W        W48063   3.670   3.838   5.508
79670W        W48064   0.762  28.239  12.157
79671W        W48065  42.243  14.614  13.734
79672W        W48066  27.619  38.287  13.503
79673W        W48067  24.996  32.919  11.655
79674W        W48068   4.990  36.073   4.253
79675W        W48069  35.202  43.465   1.800
79676W        W48070  37.422  12.186  13.946
79677W        W48071   9.211  27.709   0.600
79678W        W48072  40.899  10.090  11.995
79679W        W48073  24.209  42.276   1.194
79680W        W48074  26.331  41.713   4.993
79681W        W48075  17.454  10.166   0.788
79682W        W48076   4.617  10.851  11.532
79683W        W48077   2.416  31.667  12.020
79684W        W48078  14.226   6.008  12.050
79685W        W48079  21.012   3.384   5.068
79686W        W48080   9.122   2.937  13.245
79687W        W48081   4.134  15.694   1.770
79688W        W48082  38.031   9.641   1.790
79689W        W48083  14.804  31.180  14.277
79690W        W48084  36.330  30.467   3.108
79691W        W48085   0.245  12.301  12.925
79692W        W48086   5.178  40.995   3.596
79693W        W48087   6.387   5.596   0.157
79694W        W48088  35.703  16.450  13.559
79695W        W48089  29.836   0.963  11.108
79696W        W48090  22.535  38.365  13.040
79697W        W48091  38.978   9.626  11.514
79698W        W48092  22.472  31.897  12.351
79699W        W48093   8.812   8.967   4.144
79700W        W48094  32.405  30.966   4.514
79701W        W48095  11.167  11.291   0.197
79702W        W48096  43.053  27.547  12.932
79703W        W48097   7.224  22.158  10.722
79704W        W48098  32.556  25.606  11.096
79705W        W48099  33.971  42.564   1.289
79706W        W48100  42.283  19.078   0.855
79707W        W48101  27.116  42.699   5.261
79708W        W48102  33.193  18.734  12.530
79709W        W48103  40.449  34.384  12.810
79710W        W48104  40.575  16.266   0.360
79711W        W48105  38.955  30.182  11.292
79712W        W48106  37.276  16.502   1.295
79713W        W48107  30.843  19.050   0.428
79714W        W48108  27.623  24.091   4.084
79715W        W48109  29.414  34.079  12.974
79716W        W48110   4.462  16.880   3.724
79717W        W48111  38.969   9.791  13.794
79718W        W48112  32.952  44.952   1.880
79719W        W48113   9.206  13.183   2.793
79720W        W48114  37.035  33.404   2.953
79721W        W48115  23.965  22.518  13.382
79722W        W48116  17.001  44.291  11.400
79723W        W48117  18.575  35.578   2.405
79724W        W48118  22.591  22.318   4.645
79725W        W48119  15.622  12.642  11.650
79726W        W48120  22.589  12.386   4.507
79727W        W48121   1.786  36.486  12.511
79728W        W48122  17.317  35.683   3.765
79729W        W48123  25.961   3.108   1.408
79730W        W48124  13.763  25.228  13.971
79731W        W48125   9.185  36.785   4.498
79732W        W48126   0.871  11.836  10.743
79733W        W48127  40.759  40.852  11.659
79734W        W48128  24.483  16.684   2.183
79735W        W48129  38.611  22.992   2.271
79736W        W48130  43.283  32.184  11.548
79737W        W48131  12.596  24.505  12.176
79738W        W48132  25.891  33.476   0.778
79739W        W48133  31.686   9.294  12.986
79740W        W48134  16.594   8.178  12.547
79741W        W48135  43.286  39.539   3.775
79742W        W48136  41.065  26.520   0.426
79743W        W48137  22.301   1.276   3.614
79744W        W48138  33.140  38.996  13.192
79745W        W48139  33.650  10.092  12.632
79746W        W48140   5.890  17.476   3.703
79747W        W48141  26.399  25.635  12.417
79748W        W48142  43.146  18.890   1.458
79749W        W48143  43.876  11.679  11.989
79750W        W48144  39.091  38.547  13.878
79751W        W48145  30.626  22.396   0.362
79752W        W48146  11.985  32.560   3.194
79753W        W48147  40.113  36.961   2.303
79754W        W48148  20.099  16.792   3.641
79755W        W48149  38.037  37.738   4.765
79756W        W48150  32.139  25.016   4.737
79757W        W48151   5.327  18.809   4.501
79758W        W48152  40.302   5.439  10.718
79759W        W48153  30.038  13.505  11.218
79760W        W48154  43.662   6.658  12.341
79761W        W48155  25.169  20.232   4.075
79762W        W48156  12.325  19.465  10.677
79763W        W48157  18.768  17.475  14.512
79764W        W48158   6.177  39.937  11.933
79765W        W48159   9.333  30.415  13.977
79766W        W48160  29.259  14.056   1.735
79767W        W48161   8.757   4.749  14.949
79768W        W48162  10.967  38.462   2.164
79769W        W48163  42.241  18.578   3.638
79770W        W48164  44.913   7.201   1.748
79771W        W48165  31.487  11.853  11.951
79772W        W48166   1.038  18.227  12.057
79773W        W48167  32.418  14.362   3.963
79774W        W48168   8.334   8.429   0.442
79775W        W48169  15.199  22.420  14.209
79776W        W48170  20.948  13.185   4.622
79777W        W48171  23.668   2.643   0.302
79778W        W48172  13.867   5.390   3.267
79779W        W48173  23.308   7.818   1.583
79780W        W48174  34.310  17.142   0.923
79781W        W48175  19.849  11.072  14.529
79782W        W48176  38.043  10.953  12.358
79783W        W48177  26.509   7.967  11.268
79784W        W48178  29.039   1.900  13.609
79785W        W48179   2.391  14.167  11.721
79786W        W48180  37.722  29.906   2.060
79787W        W48181  42.933  14.296  12.064
79788W        W48182  13.339  43.982   2.478
79789W        W48183  39.877  10.782   3.825
79790W        W48184  27.350  24.104   0.949
79791W        W48185  29.613  26.141   4.431
79792W        W48186  21.949  22.145   1.911
79793W        W48187  37.876  16.231   4.973
79794W        W48188  26.193  36.879   3.149
79795W        W48189   8.492  10.255   4.674
79796W        W48190  37.409   1.671  11.207
79797W        W48191  43.456  18.221  14.882
79798W        W48192   2.688  37.350  11.134
79799W        W48193  10.330  12.460  14.507
79800W        W48194  13.969  22.776   5.163
79801W        W48195   3.272  30.010  13.998
79802W        W48196  42.447  21.128  10.693
79803W        W48197  19.528  39.865  12.470
79804W        W48198   6.532   3.332   4.340
79805W        W48199  18.367  21.217  11.466
79806W        W48200  41.425   7.709  11.896
79807W        W48201  36.951  13.344  12.987
79808W        W48202   1.749   8.091   1.728
79809W        W48203  43.661   1.292   2.690
79810W        W48204  19.471   8.698  13.503
79811W        W48205   8.857   5.517   3.824
79812W        W48206  37.900   2.784   0.918
79813W        W48207   3.209  32.629  10.773
79814W        W48208  28.374  43.139  13.918
79815W        W48209  31.046  43.302   4.511
79816W        W48210  28.132  40.862  10.734
79817W        W48211  41.688  26.404   4.091
79818W        W48212   1.390  17.191  13.311
79819W        W48213  18.172  33.852   1.270
79820W        W48214  22.389  25.179  10.193
79821W        W48215  41.469  25.691   3.683
79822W        W48216  23.583  28.482   3.178
79823W        W48217  25.719   3.068   2.440
79824W        W48218  40.634  35.357   3.186
79825W        W48219  18.084  29.377  12.445
79826W        W48220  43.380  15.070  11.172
79827W        W48221  39.537  29.109   0.417
79828W        W48222  21.752  36.905  14.038
79829W        W48223  26.814  12.055  10.045
79830W        W48224  30.728   4.379   4.817
79831W        W48225   4.085   5.781  14.136
79832W        W48226  25.090  42.975   1.397
79833W        W48227  13.634  29.711   2.297
79834W        W48228  19.798  31.099  12.514
79835W        W48229  42.356  38.321  14.537
79836W        W48230  20.178  23.107  10.169
79837W        W48231  24.020   7.650  13.030
79838W        W48232  32.036   0.079  10.374
79839W        W48233  10.809   2.409  12.440
79840W        W48234  11.952   0.207  13.060
79841W        W48235  16.838   7.458   0.318
79842W        W48236  23.976  28.215  11.267
79843W        W48237  11.455   0.831   1.955
79844W        W48238  44.151  33.637   4.741
79845W        W48239  19.537  22.218   4.632
79846W        W48240   8.780  18.742  14.765
79847W        W48241   0.473  39.871   3.099
79848W        W48242  26.744  21.778   2.851
79849W        W48243  10.240  44.295   5.149
79850W        W48244  35.079  26.698  11.547
79851W        W48245  40.569  15.141   2.259
79852W        W48246  17.221  44.546   3.385
79853W        W48247  44.392   6.268  14.501
79854W        W48248  42.686  10.224  12.522
79855W        W48249  39.555  34.596   0.679
79856W        W48250  41.974  39.528  12.034
79857W        W48251  32.453  43.824  14.608
79858W        W48252  10.395  39.973  13.641
79859W        W48253  31.697  14.890  14.400
79860W        W48254   6.935   1.769  10.578
79861W        W48255  27.645  37.937  14.434
79862W        W48256  33.396  23.857  13.925
79863W        W48257  24.217  40.062   2.974
79864W        W48258  39.412  35.475   0.318
79865W        W48259  15.811   9.088   2.459
79866W        W48260  32.029   4.548   4.132
79867W        W48261  22.006   1.153   4.070
79868W        W48262  10.357   7.003  10.454
79869W        W48263  42.248   1.169   2.169
79870W        W48264  26.548  23.222   3.657
79871W        W48265   4.142  24.941  12.726
79872W        W48266  16.034  26.213   1.780
79873W        W48267  20.311  24.226  13.334
79874W        W48268   0.211  44.883  11.583
79875W        W48269   5.469   1.015   3.187
79876W        W48270  41.746  25.564  11.214
79877W        W48271  31.618  30.931  11.752
79878W        W48272  15.309  25.577   2.711
79879W        W48273  38.027  21.998   4.262
79880W        W48274  22.586   5.644  13.339
79881W        W48275   3.441   9.585  12.697
79882W        W48276  41.297  13.357  13.812
79883W        W48277   9.838  32.649   0.362
79884W        W48278  44.897  27.008   1.495
79885W        W48279  25.523  31.477  11.995
79886W        W48280  14.551  31.366  12.946
79887W        W48281  42.850  43.917   3.348
79888W        W48282  26.722  21.480   3.262
79889W        W48283  42.288   2.945   3.357
79890W        W48284  33.215  38.955   1.415
79891W        W48285  11.392   1.777   0.380
79892W        W48286   3.222  19.022   3.256
79893W        W48287  40.401  18.580  12.997
79894W        W48288  26.772  20.785   3.589
79895W        W48289  24.524   0.012  12.535
79896W        W48290  36.275  30.490   3.652
79897W        W48291  21.417  13.243   9.841
79898W        W48292   8.115   6.514  13.912
79899W        W48293   9.753   5.719   3.194
79900W        W48294  27.131  39.035  13.415
79901W        W48295  24.065  11.164  14.641
79902W        W48296  41.415  31.845   2.463
79903W        W48297  14.669  21.312   0.406
79904W        W48298  28.048   6.224  11.113
79905W        W48299  19.023  37.008  13.540
79906W        W48300  17.094  21.234   2.762
79907W        W48301  39.044  31.189  12.542
79908W        W48302  12.403  37.250   4.694
79909W        W48303   7.159   1.509  11.561
79910W        W48304  16.624  24.576  13.921
79911W        W48305  39.186  36.632   3.134
79912W        W48306   2.376  13.805   1.202
79913W        W48307   5.735   7.122   0.362
79914W        W48308   5.820  44.459  11.991
79915W        W48309  13.218   7.690  10.549
79916W        W48310  31.909  43.954  11.164
79917W        W48311  39.864   5.487   0.720
79918W        W48312   0.091  15.186  10.657
79919W        W48313  36.871  19.880   3.116
79920W        W48314  21.120   4.319   2.775
79921W        W48315  21.734  12.295  14.914
79922W        W48316   4.756  29.391  12.120
79923W        W48317  11.316  10.264   0.294
79924W        W48318   0.718  40.824   4.729
79925W        W48319  22.996  11.715   0.928
79926W        W48320  29.378  29.570   0.673
79927W        W48321   7.046  13.913  11.684
79928W        W48322  32.029  16.277  14.494
79929W        W48323  19.596  12.596  13.488
79930W        W48324  17.875  38.089  13.638
79931W        W48325  21.121  11.428  11.279
79932W        W48326   3.197   4.919   1.832
79933W        W48327  18.677  15.337   3.203
79934W        W48328  25.996  20.297   3.075
79935W        W48329   4.857  38.074  12.002
79936W        W48330  41.259  25.170  11.664
79937W        W48331  15.136   4.938  12.926
79938W        W48332  16.188  14.820  10.896
79939W        W48333  18.735  34.065  12.552
79940W        W48334  16.153  36.414  12.239
79941W        W48335  20.664  38.825   4.337
79942W        W48336  17.193  14.374  10.361
79943W        W48337   9.117   1.344   0.181
79944W        W48338  19.093   8.525   2.984
79945W        W48339  41.070  21.236  13.369
79946W        W48340   6.401  18.751  11.976
79947W        W48341   4.732  30.213  10.650
79948W        W48342   8.844  17.338   2.968
79949W        W48343   7.239  18.715   1.658
79950W        W48344   2.406  42.457  14.976
79951W        W48345  34.965   4.175  14.300
79952W        W48346  16.782  10.781  12.921
79953W        W48347  12.555  37.483  10.951
79954W        W48348  33.272  36.857  11.801
79955W        W48349  21.163  24.032  10.664
79956W        W48350   4.701  35.428   0.977
79957W        W48351  17.218  43.810  14.337
79958W        W48352   6.311  32.960   3.741
79959W        W48353  22.021   0.843   3.639
79960W        W48354   9.003  10.707   0.914
79961W        W48355  37.230  10.915   0.392
79962W        W48356  15.905  44.155  11.271
79963W        W48357  31.137   9.275   4.592
79964W        W48358  15.136  25.448  14.204
79965W        W48359  26.452  31.498   3.664
79966W        W48360  35.563  13.055  13.884
79967W        W48361   5.833   5.455  11.946
79968W        W48362   9.687  37.861  12.773
79969W        W48363  44.935  22.540  13.453
79970W        W48364  34.860  13.051  10.310
79971W        W48365  43.315  38.385  13.195
79972W        W48366   9.596  33.514   2.345
79973W        W48367  20.679  33.603  13.467
79974W        W48368   5.493  33.205   1.367
79975W        W48369  31.423  34.115   2.849
79976W        W48370   5.375   6.362   4.116
79977W        W48371   3.057  20.548  13.568
79978W        W48372   5.472  41.250  13.462
79979W        W48373  11.858   9.524  12.082
79980W        W48374  27.061  42.664   1.715
79981W        W48375  24.146  39.489   1.651
79982W        W48376  13.684  27.697   2.929
79983W        W48377  41.833  37.054  13.931
79984W        W48378  41.187  39.214  11.795
79985W        W48379  42.766  22.702   1.411
79986W        W48380  16.796  23.532   1.197
79987W        W48381  28.398  41.522  14.533
79988W        W48382  44.211  32.680   0.425
79989W        W48383   7.876  20.296  13.080
79990W        W48384  33.168  27.241  12.435
79991W        W48385   4.427   4.639  14.938
79992W        W48386  12.307  43.753  14.476
79993W        W48387  40.446  35.642   1.840
79994W        W48388  32.083  32.408   0.962
79995W        W48389  43.973  10.337   3.197
79996W        W48390  35.062  40.021  12.465
79997W        W48391  40.441  21.131   2.429
79998W        W48392  17.034  43.823   4.543
79999W        W48393  27.363  32.111  14.438
80000W        W48394   1.345  18.575   1.740
80001W        W48395  10.987  24.492   3.169
80002W        W48396   6.113  30.440   1.598
80003W        W48397  16.760  11.598  12.336
80004W        W48398  41.163  32.855  11.094
80005W        W48399  36.157   5.581   0.453
80006W        W48400  34.058  29.509  14.943
80007W        W48401   9.661  39.060   2.253
80008W        W48402  16.716   1.016   2.302
80009W        W48403  27.535  35.113   4.681
80010W        W48404  43.704  35.478  14.899
80011W        W48405  31.547  38.344  11.103
80012W        W48406  32.021  31.109   2.704
80013W        W48407  40.266   2.386   1.226
80014W        W48408  20.527   3.634  13.579
80015W        W48409  24.817  24.763   3.741
80016W        W48410  18.711  32.623  12.496
80017W        W48411  17.040   2.350   2.733
80018W        W48412  41.805  39.225   0.445
80019W        W48413  11.236  27.538  11.660
80020W        W48414  35.414  21.031   2.848
80021W        W48415  19.872  31.453   4.082
80022W        W48416  27.201  34.781   1.436
80023W        W48417  27.208  31.431   3.216
80024W        W48418  17.271  23.582   0.965
80025W        W48419  26.820   1.422  13.350
80026W        W48420   7.201  22.532  12.978
80027W        W48421  16.811  33.937   2.404
80028W        W48422   3.827  34.657  11.966
80029W        W48423  17.416  26.999  10.305
80030W        W48424  24.571  28.904   4.100
80031W        W48425  20.113  32.383   3.239
80032W        W48426  39.470  15.342   0.376
80033W        W48427  30.062  20.095   1.909
80034W        W48428   9.296  16.839   0.025
80035W        W48429  25.662  20.797  13.073
80036W        W48430  13.871  32.827  13.345
80037W        W48431  42.845  11.637  10.983
80038W        W48432  30.915  15.789   2.285
80039W        W48433  35.470   1.954   0.765
80040W        W48434  10.247  35.084  10.408
80041W        W48435  23.143   6.352   2.643
80042W        W48436  20.743  40.128   1.184
80043W        W48437  19.820  18.741   1.498
80044W        W48438  29.076  13.180   1.425
80045W        W48439   7.971  38.625   0.224
80046W        W48440  21.946  17.103   0.312
80047W        W48441  36.551  11.201   1.178
80048W        W48442   3.966  37.568  10.780
80049W        W48443  37.589  19.731  13.348
80050W        W48444   7.879  15.846   1.405
80051W        W48445  11.095  36.624   1.215
80052W        W48446   8.100  39.150   4.042
80053W        W48447  44.555  29.541   2.278
80054W        W48448  13.992   5.223   4.107
80055W        W48449   4.200  12.347   4.144
80056W        W48450  20.694  40.773   4.443
80057W        W48451  34.594   0.153   2.711
80058W        W48452  38.974  28.152   0.282
80059W        W48453  33.912  42.579   4.429
80060W        W48454   4.818   0.814   0.792
80061W        W48455  23.920  33.022   0.040
80062W        W48456   6.936  26.711   1.327
80063W        W48457  12.993   5.761   4.102
80064W        W48458   8.416  35.471  10.645
80065W        W48459  44.189  16.071   1.399
80066W        W48460  24.277  29.665   1.016
80067W        W48461  28.431  34.116   4.093
80068W        W48462  29.548  22.816   9.866
80069W        W48463  41.192   2.526   4.571
80070W        W48464  27.348  36.752  12.883
80071W        W48465  27.531  17.129   4.831
80072W        W48466   4.198   8.138   1.683
80073W        W48467  20.413   6.447  11.230
80074W        W48468  35.431   6.400   1.915
80075W        W48469   0.613  32.687  13.568
80076W        W48470  15.364  11.751  14.767
80077W        W48471  38.534   4.490  14.009
80078W        W48472  41.856  22.176   4.277
80079W        W48473  30.126  10.563   4.161
80080W        W48474  29.221   0.830   4.741
80081W        W48475  18.569  43.713  14.402
80082W        W48476  30.356   0.421  12.310
80083W        W48477  43.543  20.357   2.200
80084W        W48478  18.102   5.419   0.423
80085W        W48479   1.322   3.081  11.984
80086W        W48480  37.289  28.515   0.904
80087W        W48481  14.471  43.469   2.743
80088W        W48482  40.479  29.914   4.118
80089W        W48483  36.946   7.639  14.579
80090W        W48484   0.930  43.452   2.405
80091W        W48485  35.932  44.780   3.685
80092W        W48486  27.613   1.831  13.283
80093W        W48487  37.594  31.417   2.917
80094W        W48488  34.460  25.425   4.597
80095W        W48489  40.763  39.071   1.397
80096W        W48490   8.636   6.070   3.208
80097W        W48491   2.069  17.760  14.671
80098W        W48492  19.865   6.513  11.998
80099W        W48493   0.496  33.421   1.232
80100W        W48494  37.120   5.215  14.574
80101W        W48495  37.594  28.387  11.166
80102W        W48496  30.284  32.249   2.934
80103W        W48497  44.999  13.785  10.536
80104W        W48498  40.050  20.520  14.884
80105W        W48499  35.062  10.255  10.451
80106W        W48500  28.423  40.358  14.442
80107W        W48501  44.342   2.134   1.274
80108W        W48502  34.737  22.165   3.289
80109W        W48503   1.786  32.238   1.006
80110W        W48504  15.886  32.010  10.321
80111W        W48505  35.700  13.049  12.139
80112W        W48506   8.254  30.478   0.407
80113W        W48507  16.246  39.935  11.396
80114W        W48508   5.763  14.333   0.030
80115W        W48509  43.332  26.036   1.110
80116W        W48510  33.413  31.620  11.245
80117W        W48511  44.429  40.388  12.044
80118W        W48512  41.636  29.562   3.808
80119W        W48513  32.392  13.038  14.000
80120W        W48514  28.138  31.048  13.033
80121W        W48515   2.311  26.004   3.745
80122W        W48516  16.142  39.018   0.420
80123W        W48517  19.491  43.796  11.055
80124W        W48518  36.493  33.780  13.297
80125W        W48519   1.717   4.376  14.804
80126W        W48520  17.052  12.251  12.883
80127W        W48521  21.492  11.627  10.996
80128W        W48522  41.994   1.230   3.271
80129W        W48523  30.502  11.136  11.561
80130W        W48524  27.163  16.900   3.306
80131W        W48525  19.185  34.642  11.166
80132W        W48526  25.147  10.842   1.247
80133W        W48527  25.001  41.863  13.609
80134W        W48528  11.335  17.112  14.834
80135W        W48529  44.357  17.682   0.960
80136W        W48530  30.912  29.121   4.741
80137W        W48531  37.835  31.844   3.085
80138W        W48532  19.634  28.681  13.911
80139W        W48533  14.116  11.674  13.472
80140W        W48534   6.867   7.882   0.725
80141W        W48535   6.696  10.923  13.100
80142W        W48536  24.607  41.567   2.372
80143W        W48537  15.845  33.381  14.311
80144W        W48538  22.213   2.088  12.510
80145W        W48539  35.172  26.112   0.820
80146W        W48540  43.966  23.104  14.844
80147W        W48541   3.259   9.040  11.077
80148W        W48542  16.757  40.794  12.645
80149W        W48543  34.348   3.853   3.897
80150W        W48544   6.386  30.923  11.129
80151W        W48545   8.961  40.971   0.824
80152W        W48546   2.305  18.613   1.694
80153W        W48547  44.352  42.709  10.643
80154W        W48548   8.167  23.706  12.040
80155W        W48549  41.737   4.388   0.959
80156W        W48550  41.378  35.803   2.336
80157W        W48551  44.610  22.977  12.574
80158W        W48552  36.694  12.105  13.370
80159W        W48553  29.940   0.463   1.791
80160W        W48554   6.657   4.683  12.547
80161W        W48555   9.886  38.944  13.037
80162W        W48556   3.413  33.885  12.046
80163W        W48557  12.681  32.773  12.973
80164W        W48558  17.583   8.806   2.258
80165W        W48559  39.338   2.681  13.459
80166W        W48560  29.964  32.295   4.548
80167W        W48561  42.613   9.178  11.659
80168W        W48562  29.681   7.752  11.840
80169W        W48563  14.758  37.477   3.131
80170W        W48564   6.216  23.374   4.446
80171W        W48565  33.552   7.320   3.553
80172W        W48566  18.378  22.743   4.408
80173W        W48567  29.609  43.507   5.054
80174W        W48568  16.639  14.647   0.905
80175W        W48569  18.239  41.896   0.083
80176W        W48570  19.149  23.513   4.215
80177W        W48571  33.994  16.383   3.177
80178W        W48572  35.978   4.962   4.020
80179W        W48573  20.569  41.790   3.627
80180W        W48574  28.519   5.173  13.474
80181W        W48575   5.456   2.193  11.076
80182W        W48576  22.959  33.677  14.065
80183W        W48577  35.540  13.602   0.001
80184W        W48578  36.073  27.466   4.211
80185W        W48579  20.457  20.092  11.508
80186W        W48580   3.777   4.281   3.761
80187W        W48581   3.223  42.002  10.807
80188W        W48582  22.141  17.521   0.041
80189W        W48583   0.404  24.787  10.678
80190W        W48584   6.134  21.549  10.404
80191W        W48585  36.435  10.283   0.199
80192W        W48586   1.244  40.015   4.975
80193W        W48587  38.048   4.864  10.395
80194W        W48588  15.498  28.495  12.824
80195W        W48589  38.316  39.924   4.160
80196W        W48590  13.090  15.681  13.483
80197W        W48591  22.323   0.473   2.813
80198W        W48592   5.901   9.652  12.931
80199W        W48593   9.680  42.897   2.612
80200W        W48594  19.091  33.843  11.507
80201W        W48595  34.644  38.286   2.152
80202W        W48596   4.028   3.718   1.129
80203W        W48597   7.080  10.194   4.960
80204W        W48598   5.895   7.464   0.826
80205W        W48599  41.453   5.336  13.489
80206W        W48600   8.989  13.791   2.390
80207W        W48601  37.558  27.636   1.256
80208W        W48602  23.732  20.792  10.732
80209W        W48603  30.969  14.171  14.481
80210W        W48604  39.502   4.893   1.806
80211W        W48605   3.521  19.351   1.062
80212W        W48606  27.218  19.623  11.900
80213W        W48607  42.584  38.815   0.274
80214W        W48608   4.798   4.555   4.034
80215W        W48609   8.476  27.591  14.556
80216W        W48610  44.511  35.442   3.223
80217W        W48611  15.523   9.511   3.606
80218W        W48612  38.961  38.769   3.754
80219W        W48613  14.082  15.845  14.416
80220W        W48614  10.197   5.725  14.256
80221W        W48615   8.965  35.363   2.812
80222W        W48616  38.632   1.505   4.077
80223W        W48617   1.761  13.201  14.444
80224W        W48618   9.944  12.068  14.710
80225W        W48619  11.454  40.421  11.515
80226W        W48620  22.189  10.923   2.254
80227W        W48621  25.252   3.741  11.668
80228W        W48622  15.258  35.182  14.510
80229W        W48623   5.403  29.493   2.321
80230W        W48624  30.838  42.224  12.508
80231W        W48625  23.743  22.275   4.201
80232W        W48626  12.217  29.906  14.512
80233W        W48627  12.557   1.874  13.294
80234W        W48628  42.247  15.579   0.882
80235W        W48629   7.956  41.863  13.438
80236W        W48630  10.002  19.554   3.072
80237W        W48631   1.257  28.900  10.889
80238W        W48632  24.294  36.755   3.114
80239W        W48633   8.631   2.378  14.470
80240W        W48634  42.412  40.797  13.469
80241W        W48635  21.792  42.025  11.515
80242W        W48636  14.707  13.563   4.603
80243W        W48637  11.911  30.089  13.728
80244W        W48638  44.413   1.842   1.697
80245W        W48639  42.962   6.665   3.832
80246W        W48640  23.971   7.254   1.543
80247W        W48641   6.887  10.586  14.266
80248W        W48642  25.241   0.525   5.035
80249W        W48643  23.791  19.098   1.275
80250W        W48644  16.398  20.279   2.394
80251W        W48645  11.043  36.059   2.026
80252W        W48646   7.760  29.441  13.393
80253W        W48647  31.032  26.791  13.431
80254W        W48648  13.829  33.639  12.439
80255W        W48649  19.499  10.968   0.484
80256W        W48650  33.550  19.215   4.306
80257W        W48651  24.103  20.133  14.785
80258W        W48652   7.436  44.366   4.639
80259W        W48653  24.219  28.647   0.002
80260W        W48654  14.806  27.954   1.813
80261W        W48655  11.590  14.357  12.125
80262W        W48656  14.370  26.741   1.131
80263W        W48657  29.455  29.478   4.412
80264W        W48658  42.442  39.301  11.432
80265W        W48659   3.308  16.284   1.161
80266W        W48660  14.690  32.869   0.466
80267W        W48661  32.860  27.100   0.017
80268W        W48662   3.466  17.610   0.910
80269W        W48663   6.955  24.984  12.044
80270W        W48664  23.306   8.824  12.875
80271W        W48665  21.892  13.729   2.159
80272W        W48666  22.569  29.637  13.801
80273W        W48667  16.606  36.341   2.567
80274W        W48668  39.317  33.563   4.101
80275W        W48669  19.556  29.398   2.803
80276W        W48670  28.567  16.083  12.617
80277W        W48671   3.231   9.820   0.414
80278W        W48672  13.588  15.537  11.392
80279W        W48673  29.499  30.261  11.595
80280W        W48674  14.558  19.748   4.123
80281W        W48675  35.395  24.224  13.896
80282W        W48676  41.717  28.244  10.262
80283W        W48677  26.416  42.001  11.867
80284W        W48678   3.203   3.306   3.686
80285W        W48679  16.313  30.234   1.284
80286W        W48680  15.700  44.272  10.784
80287W        W48681   6.768  35.382   0.722
80288W        W48682   6.517   8.410   0.524
80289W        W48683   0.229  19.130  13.371
80290W        W48684   2.029  18.121  12.319
80291W        W48685  24.713   4.904   1.031
80292W        W48686  33.465  26.372  14.406
80293W        W48687  26.055   3.040  12.440
80294W        W48688  30.673  41.463   4.522
80295W        W48689   1.986  35.243   3.413
80296W        W48690  30.071  11.397  10.712
80297W        W48691  23.117  40.989   4.352
80298W        W48692  37.391  35.621  13.701
80299W        W48693  18.309  12.064  13.890
80300W        W48694   8.221  29.903   3.680
80301W        W48695  30.987  11.903   3.600
80302W        W48696  27.534   8.936  11.183
80303W        W48697  12.927  25.756  11.667
80304W        W48698  42.442  14.196   3.121
80305W        W48699  19.963   7.419   3.706
80306W        W48700   2.723  42.092  14.026
80307W        W48701   2.119  41.348  14.847
80308W        W48702   1.300   0.180  13.917
80309W        W48703   5.413   0.199   0.852
80310W        W48704  29.761  43.883   0.346
80311W        W48705  43.470   5.921  12.167
80312W        W48706  33.669  39.224   4.815
80313W        W48707  14.646  39.915   4.587
80314W        W48708  17.545   1.882  14.928
80315W        W48709  23.456  40.291  11.179
80316W        W48710  19.679  19.071   3.689
80317W        W48711  28.015   9.445  10.664
80318W        W48712   5.964  43.535  12.083
80319W        W48713   1.295  36.408   4.563
80320W        W48714  33.473  38.497   1.384
80321W        W48715   4.746   1.614  11.596
80322W        W48716  20.244  12.680  13.050
80323W        W48717  16.212  39.270   1.887
80324W        W48718  20.152  22.739  12.885
80325W        W48719  10.602  27.950  11.980
80326W        W48720  40.343  24.432   1.499
80327W        W48721  33.695  42.505   3.406
80328W        W48722  36.174   4.370  11.337
80329W        W48723  19.467  43.759   1.211
80330W        W48724  37.603  28.136   1.943
80331W        W48725  36.991  44.796   0.904
80332W        W48726  39.282   7.115  11.558
80333W        W48727   9.264  35.600  11.613
80334W        W48728  23.087  35.441   0.972
80335W        W48729  44.435  33.480   2.750
80336W        W48730  23.859  43.714  13.170
80337W        W48731   9.255  31.146  10.837
80338W        W48732   2.768  29.118  14.197
80339W        W48733  22.471   8.774  11.483
80340W        W48734  23.559  17.250  10.608
80341W        W48735  20.317  44.572  10.360
80342W        W48736  42.412  25.060   0.173
80343W        W48737  32.070  40.460  11.679
80344W        W48738  20.518  13.662  12.365
80345W        W48739   4.825  20.665  13.627
80346W        W48740  23.716  34.673  14.605
80347W        W48741  22.043   7.916   1.807
80348W        W48742   4.032  25.597   9.981
80349W        W48743  10.232  34.013   3.438
80350W        W48744   3.926  11.208  11.637
80351W        W48745  14.592  38.772  11.688
80352W        W48746  19.590  34.165   2.058
80353W        W48747   5.195  24.937  12.471
80354W        W48748  26.958   2.728  11.205
80355W        W48749  24.107  10.638   4.068
80356W        W48750  32.040   8.746   1.624
80357W        W48751  10.599  19.216  12.976
80358W        W48752   2.052   5.226  13.473
80359W        W48753   4.693   9.340  14.823
80360W        W48754  16.549  24.065   4.581
80361W        W48755  10.776  30.392  14.828
80362W        W48756  37.853   8.507  13.441
80363W        W48757  39.829  26.273  13.525
80364W        W48758  35.903  26.779  12.197
80365W        W48759   2.746  23.515   1.271
80366W        W48760   7.957  20.864  12.066
80367W        W48761  44.758  16.126   0.674
80368W        W48762  29.976  34.946  11.533
80369W        W48763  11.835  34.080   4.308
80370W        W48764  18.211   1.335  14.539
80371W        W48765   7.873   9.672   3.728
80372W        W48766  17.038  34.429  12.568
80373W        W48767  33.600   2.220  11.991
80374W        W48768  40.011  12.391   3.762
80375W        W48769  38.800  30.396   1.842
80376W        W48770  31.610  42.039  13.408
80377W        W48771  10.859   8.625   5.099
80378W        W48772  36.461  43.788   0.457
80379W        W48773  37.575  40.044  11.660
80380W        W48774  30.985   6.442   3.627
80381W        W48775   7.891  11.662   3.160
80382W        W48776   8.042  33.672  13.449
80383W        W48777  32.991  37.985   3.791
80384W        W48778  31.003   7.807   4.251
80385W        W48779   9.235  28.705   4.512
80386W        W48780  16.659   7.448  13.032
80387W        W48781  28.737  10.477   0.823
80388W        W48782  44.829  38.986   5.066
80389W        W48783  19.143  18.445   9.469
80390W        W48784  18.588  24.397   3.007
80391W        W48785  33.383  23.663  11.482
80392W        W48786  24.145  24.010  11.745
80393W        W48787   9.181  31.945   1.132
80394W        W48788   9.314  23.248  11.796
80395W        W48789  27.376  31.534  10.455
80396W        W48790  39.014  33.549   0.960
80397W        W48791  42.941  27.926   2.427
80398W        W48792  23.201  30.843  14.858
80399W        W48793  39.528  31.642   0.892
80400W        W48794  22.678  34.620  12.475
80401W        W48795  17.074  34.147   0.704
80402W        W48796  42.241  43.094   2.483
80403W        W48797  26.883  19.947  11.146
80404W        W48798  41.864  44.373   2.673
80405W        W48799  12.215  29.587   2.786
80406W        W48800   9.105  23.917  10.729
80407W        W48801   8.423  22.107   0.430
80408W        W48802   8.673   6.635   4.037
80409W        W48803   1.906  16.107  12.037
80410W        W48804  38.797  26.057   0.410
80411W        W48805   3.015  19.318  12.717
80412W        W48806  29.981  14.822  11.626
80413W        W48807  16.603  23.519   0.708
80414W        W48808  43.784  15.376   1.110
80415W        W48809  37.938  37.059  13.586
80416W        W48810  26.038  41.381  13.112
80417W        W48811  10.513  35.821   2.741
80418W        W48812  19.983  42.863   3.629
80419W        W48813  32.605  19.747   0.579
80420W        W48814  42.905  21.462   0.860
80421W        W48815  29.138   4.602   3.675
80422W        W48816   0.944  44.203   2.186
80423W        W48817  19.075  16.739   2.282
80424W        W48818  36.096  32.819   2.309
80425W        W48819   8.255   2.720  14.394
80426W        W48820  34.363  13.899  11.792
80427W        W48821  28.233  32.155   3.691
80428W        W48822  10.918  30.484   0.734
80429W        W48823  26.567  39.355   1.648
80430W        W48824  31.089   6.228  12.792
80431W        W48825  11.173   1.859   2.674
80432W        W48826   1.198  24.843   1.706
80433W        W48827  36.605  17.541  12.276
80434W        W48828   5.232  32.852  10.683
80435W        W48829  36.494  29.069  10.455
80436W        W48830   7.816  23.747  14.271
80437W        W48831  15.352  42.836   4.130
80438W        W48832  37.915  17.503   0.398
80439W        W48833  18.672  32.827  11.139
80440W        W48834  29.682  27.087  10.745
80441W        W48835  19.808   8.637   1.710
80442W        W48836  23.754  31.078  11.630
80443W        W48837  34.986  34.441   2.845
80444W        W48838  12.476  37.579  12.219
80445W        W48839  15.830  18.032   9.798
80446W        W48840  16.348  20.353   1.514
80447W        W48841   4.982   1.780  12.026
80448W        W48842   7.643  42.881  14.690
80449W        W48843  38.293  11.796  11.092
80450W        W48844  33.908  13.009  11.531
80451W        W48845  11.140  19.524  12.884
80452W        W48846   6.263  44.844   0.340
80453W        W48847   3.901   1.191  11.630
80454W        W48848  13.827  38.493  14.552
80455W        W48849  10.845  19.982  10.405
80456W        W48850  31.185   6.136  12.308
80457W        W48851  29.539  30.114   3.636
80458W        W48852  15.738  36.127  12.336
80459W        W48853  44.556  42.233   4.114
80460W        W48854  16.033  36.481   2.170
80461W        W48855  34.850  19.340   1.006
80462W        W48856  31.182  20.514  13.496
80463W        W48857  23.638  34.897  10.297
80464W        W48858  43.885   9.456   3.312
80465W        W48859  37.740  43.586   1.650
80466W        W48860  21.092  23.701  12.904
80467W        W48861  42.561  18.977  13.167
80468W        W48862  27.108  12.228   4.821
80469W        W48863  16.210  40.062  12.460
80470W        W48864  11.744  26.978  12.913
80471W        W48865  23.699  15.566   2.728
80472W        W48866  11.369  31.449  11.936
80473W        W48867  30.685  27.703  10.186
80474W        W48868   0.495  40.540   1.959
80475W        W48869  44.962  11.845   4.186
80476W        W48870  14.334  21.353  12.148
80477W        W48871  40.378  23.802   2.225
80478W        W48872  41.319  43.430  13.628
80479W        W48873  13.615  17.153   3.593
80480W        W48874  37.678  23.496   3.287
80481W        W48875  15.039  31.425   1.816
80482W        W48876  42.959   5.494  12.542
80483W        W48877  40.569  39.580  13.411
80484W        W48878  34.474  24.921   4.473
80485W        W48879  23.294  41.271  13.793
80486W        W48880  10.823   6.224   0.751
80487W        W48881   4.784  23.459   0.258
80488W        W48882  10.338   0.768  12.764
80489W        W48883  44.830  26.223  13.489
80490W        W48884  38.734  26.399  12.022
80491W        W48885  19.281  11.242  11.557
80492W        W48886  41.224  22.596  11.894
80493W        W48887  23.686  36.803   4.729
80494W        W48888  16.190  15.542   9.965
80495W        W48889  36.004  14.878   1.962
80496W        W48890  26.507   9.897  13.413
80497W        W48891  32.498  26.944  12.719
80498W        W48892  27.447   1.191  10.295
80499W        W48893  33.601  44.762   0.461
80500W        W48894  38.480  33.518  12.020
80501W        W48895  34.224  10.722   2.950
80502W        W48896  42.884  39.788  13.827
80503W        W48897  18.105  21.624  11.684
80504W        W48898  30.199  21.136  11.192
80505W        W48899   3.285  24.413  12.439
80506W        W48900  36.136   0.707   0.957
80507W        W48901  37.756  19.822  12.494
80508W        W48902  29.891  21.778  11.260
80509W        W48903  28.096   4.547   0.815
80510W        W48904  32.896  31.742  11.218
80511W        W48905   2.473  31.401  14.577
80512W        W48906   2.072  24.605   4.658
80513W        W48907  38.504  22.122  11.566
80514W        W48908  33.018   8.872   3.836
80515W        W48909  20.558  17.575  14.449
80516W        W48910  24.447  23.615  14.551
80517W        W48911  44.930  43.751   4.841
80518W        W48912   2.535  32.036  14.008
80519W        W48913  11.845  38.401  13.101
80520W        W48914  16.712   2.411   2.301
80521W        W48915   0.224  15.300   0.526
80522W        W48916  13.287  31.351  10.582
80523W        W48917  27.035  24.635   4.743
80524W        W48918  15.680  26.925  12.099
80525W        W48919  18.221   0.466   3.367
80526W        W48920  41.254   8.880   4.493
80527W        W48921  12.859  31.166  13.270
80528W        W48922  42.445  13.104   4.063
80529W        W48923  20.270  33.459  14.016
80530W        W48924   5.591  13.998   4.123
80531W        W48925   3.832   1.061  10.606
80532W        W48926  29.576  10.688   3.246
80533W        W48927   5.955  37.939   3.741
80534W        W48928  38.752  12.783   4.480
80535W        W48929  36.260  28.439  13.497
80536W        W48930   7.009  23.787   3.646
80537W        W48931  31.540  10.935   0.360
80538W        W48932  31.684   0.506   2.287
80539W        W48933  13.192   7.452   3.589
80540W        W48934  31.336   5.908   2.747
80541W        W48935   1.458  40.399   3.639
80542W        W48936  18.087  32.400  11.085
80543W        W48937  37.559  14.405  14.866
80544W        W48938   2.764  40.723   1.211
80545W        W48939  28.634  34.346   1.469
80546W        W48940   4.801  30.698   4.508
80547W        W48941  18.666  30.714  11.178
80548W        W48942  35.579  13.700  14.505
80549W        W48943  34.588   3.368  10.579
80550W        W48944  40.915  42.944   3.010
80551W        W48945  43.581  44.681  10.600
80552W        W48946  17.830  27.373   1.621
80553W        W48947   9.235   1.230   2.827
80554W        W48948  20.807  29.861  10.973
80555W        W48949  20.589  39.455  14.559
80556W        W48950  39.182  26.515   1.831
80557W        W48951  28.543   7.355   1.277
80558W        W48952   5.523  36.276  14.284
80559W        W48953  16.150  16.336   1.479
80560W        W48954   1.375  19.623  12.136
80561W        W48955  13.870  26.114   4.292
80562W        W48956  18.969   4.804   0.058
80563W        W48957  40.892  10.310  13.315
80564W        W48958  28.537  42.220   0.513
80565W        W48959  35.943  33.353   4.094
80566W        W48960  22.608   6.407  11.939
80567W        W48961  36.961   5.231  14.072
80568W        W48962  22.479  27.283   0.310
80569W        W48963  33.725  18.262   2.360
80570W        W48964  44.823  43.021  12.019
80571W        W48965  24.963  27.903   0.364
80572W        W48966  29.820  23.216   0.361
80573W        W48967  42.121  12.749  14.377
80574W        W48968  44.271  34.401  14.959
80575W        W48969  41.713  12.585  10.767
80576W        W48970  23.751  12.356  10.495
80577W        W48971   6.154  36.082   1.392
80578W        W48972  27.743  26.482  12.513
80579W        W48973  36.074  27.711   3.207
80580W        W48974  42.673  40.523  11.175
80581W        W48975  13.825  29.444  12.657
80582W        W48976  12.748  14.830  13.547
80583W        W48977  44.079  20.620  11.241
80584W        W48978   6.806  36.132   3.794
80585W        W48979   1.434  13.339   9.977
80586W        W48980   9.836  39.998   0.774
80587W        W48981  17.315  38.449   0.085
80588W        W48982  26.989  26.489   4.343
80589W        W48983  41.979  34.929  10.905
80590W        W48984  41.427  24.034  14.243
80591W        W48985   0.829  20.638  13.847
80592W        W48986   4.821  33.638  12.976
80593W        W48987  14.140  28.175   0.759
80594W        W48988  41.867   4.461   2.697
80595W        W48989  22.378   7.692  11.881
80596W        W48990  27.994  43.697   3.446
80597W        W48991  25.111  21.827   2.157
80598W        W48992  25.452   3.510  12.812
80599W        W48993  40.382  28.037   2.974
80600W        W48994  30.433   3.492   0.237
80601W        W48995  35.410  44.746  12.076
80602W        W48996  10.192  22.893  14.967
80603W        W48997   2.937  44.501  14.886
80604W        W48998  28.842  29.238  11.660
80605W        W48999  15.166   1.662   4.172
80606W        W49000  26.204  43.910  12.917
80607W        W49001  13.657  21.313  13.045
80608W        W49002  33.852   9.141  10.853
80609W        W49003  29.218  23.217  11.676
80610W        W49004  43.748   3.702  12.515
80611W        W49005  39.158  25.072  13.103
80612W        W49006  23.070   0.454   1.002
80613W        W49007  14.831   0.713   0.224
80614W        W49008  10.955   9.949  11.999
80615W        W49009  32.662  23.355  11.760
80616W        W49010  19.745  10.945   4.525
80617W        W49011  38.114   5.337   3.759
80618W        W49012   2.200   9.900   1.202
80619W        W49013  31.648  15.146   3.495
80620W        W49014  44.033  15.955   2.358
80621W        W49015  11.528  42.633  13.969
80622W        W49016   0.230   9.270   4.584
80623W        W49017   2.888  18.513   2.789
80624W        W49018  22.720  37.625   3.013
80625W        W49019   2.760   8.209   2.884
80626W        W49020  32.091  22.473   1.350
80627W        W49021  31.595   1.847   0.346
80628W        W49022   6.984  33.570  14.811
80629W        W49023  13.578  32.052   1.954
80630W        W49024  32.342  38.977   4.639
80631W        W49025  36.063  15.246   3.064
80632W        W49026  19.891  22.920   1.507
80633W        W49027  13.290   3.011  10.719
80634W        W49028  20.866  12.916   4.110
80635W        W49029  18.030  13.122  12.347
80636W        W49030  14.227  30.717   1.423
80637W        W49031  26.041  24.974  13.029
80638W        W49032  35.606  10.673  13.840
80639W        W49033   9.532  33.116   3.636
80640W        W49034  11.354   9.865  10.677
80641W        W49035   2.925  33.153  12.146
80642W        W49036  11.788  31.306   3.057
80643W        W49037  12.252  38.274   1.421
80644W        W49038  40.023  16.357  12.478
80645W        W49039   1.495  24.701   1.305
80646W        W49040  38.883  41.365   2.819
80647W        W49041   1.197  35.659  12.514
80648W        W49042   8.671  20.349   4.024
80649W        W49043  37.894  30.934  13.362
80650W        W49044   2.385   2.272   4.653
80651W        W49045  37.936   0.837   0.849
80652W        W49046   6.598  14.356  14.421
80653W        W49047  23.708  42.449   1.376
80654W        W49048  19.315  32.456  12.993
80655W        W49049  23.104  44.697   3.702
80656W        W49050  37.609  35.362  11.743
80657W        W49051  35.468  35.160   3.973
80658W        W49052  21.405  18.013   4.427
80659W        W49053   3.977   6.740  14.724
80660W        W49054  34.079   8.687  12.460
80661W        W49055  14.028  29.057   0.373
80662W        W49056  39.014  28.053  12.847
80663W        W49057  14.789  24.730  11.848
80664W        W49058  26.105   8.087  13.443
80665W        W49059  26.771  38.957   1.362
80666W        W49060   5.180  21.987   0.845
80667W        W49061   7.435  22.737   3.719
80668W        W49062  33.602  12.083  12.622
80669W        W49063  22.030  36.367  13.571
80670W        W49064  43.973  34.142   3.455
80671W        W49065  14.384  39.567   5.512
80672W        W49066  38.066  35.531   4.795
80673W        W49067   4.271   6.258   0.490
80674W        W49068  29.210  35.069  13.106
80675W        W49069  32.815  43.031  14.955
80676W        W49070  25.406  36.538   4.156
80677W        W49071   6.764  11.228  10.931
80678W        W49072  36.116  12.342   4.160
80679W        W49073  14.926  12.773   1.577
80680W        W49074  19.251  43.569   0.548
80681W        W49075   7.855   7.475   3.156
80682W        W49076  27.205  19.328   0.893
80683W        W49077  33.389  21.500   3.336
80684W        W49078  37.963  44.513   2.194
80685W        W49079  32.407  16.527  12.365
80686W        W49080   8.861  14.286  11.666
80687W        W49081   8.898  40.279   1.366
80688W        W49082  32.337  28.758   1.305
80689W        W49083  17.651  24.030  12.128
80690W        W49084  19.565   0.799  10.614
80691W        W49085  21.717  13.585  14.868
80692W        W49086  24.126   0.701   3.789
80693W        W49087  37.592   6.929  14.938
80694W        W49088  33.423  38.153   3.250
80695W        W49089   5.170  30.859  11.976
80696W        W49090   6.250  15.762  10.740
80697W        W49091   4.163  12.368  11.682
80698W        W49092   5.343   5.820   4.787
80699W        W49093  13.942  17.077  12.562
80700W        W49094  19.740  19.809  12.376
80701W        W49095  37.433  21.278   2.413
80702W        W49096   6.117  27.095  12.033
80703W        W49097  31.503  29.634  13.008
80704W        W49098  13.455  34.391   4.840
80705W        W49099  14.184   8.688   1.862
80706W        W49100  10.108  29.627   0.393
80707W        W49101  22.934   6.280   1.667
80708W        W49102  44.751  17.723  11.970
80709W        W49103   4.437  36.088  10.613
80710W        W49104  44.418  17.162   2.641
80711W        W49105  28.124  16.519   1.707
80712W        W49106  43.859  16.121  13.782
80713W        W49107  25.495  30.196  14.488
80714W        W49108  37.045  27.285   1.988
80715W        W49109  18.836  19.640  11.503
80716W        W49110   4.799  14.828  13.389
80717W        W49111   7.103  28.009   5.063
80718W        W49112   5.442  20.684  12.045
80719W        W49113  39.267  37.068   4.354
80720W        W49114  42.054  33.400   1.652
80721W        W49115   9.916  26.385  11.469
80722W        W49116  33.452  12.583   4.262
80723W        W49117  44.756  37.576   0.414
80724W        W49118   3.426   3.236   1.287
80725W        W49119  34.480  28.136  11.939
80726W        W49120  36.257   4.262   0.469
80727W        W49121  33.873  35.580   3.194
80728W        W49122   1.719  26.440  11.515
80729W        W49123  25.076  13.740   4.689
80730W        W49124  31.031  42.568  13.021
80731W        W49125  14.372  12.886   0.874
80732W        W49126   9.819   7.708  14.926
80733W        W49127  26.477  29.491  13.508
80734W        W49128  19.099  42.291   0.002
80735W        W49129  29.666  44.391  14.814
80736W        W49130  22.483  29.931   4.284
80737W        W49131  23.626  16.252  14.866
80738W        W49132  34.526  34.559   2.626
80739W        W49133  11.180  11.642   1.777
80740W        W49134  16.142  44.397   2.997
80741W        W49135  14.155  42.839   2.330
80742W        W49136   5.174  27.322   2.734
80743W        W49137  39.457  29.472  11.280
80744W        W49138   3.687  30.804   1.322
80745W        W49139  35.912  30.481   2.455
80746W        W49140  26.524   5.457   1.230
80747W        W49141  17.223  19.459  12.167
80748W        W49142   3.397  42.612  13.359
80749W        W49143   1.555   0.841   0.822
80750W        W49144  36.073  10.702  14.103
80751W        W49145  41.956  41.268   2.295
80752W        W49146   5.208  44.521   4.339
80753W        W49147  40.429  39.129   1.793
80754W        W49148  20.442  24.694   1.185
80755W        W49149   5.504  34.529  11.895
80756W        W49150  27.527  28.523   0.114
80757W        W49151  16.302  18.640   0.044
80758W        W49152  40.385  27.611   4.184
80759W        W49153  39.922   0.428  12.510
80760W        W49154  41.042  29.473   1.384
80761W        W49155  11.807  18.495   1.063
80762W        W49156   1.833  19.791   1.812
80763W        W49157  20.013  24.538  14.762
80764W        W49158  14.961  37.078  14.571
80765W        W49159  32.439  43.243  13.116
80766W        W49160  36.789   3.480   4.855
80767W        W49161  18.047  28.881  12.336
80768W        W49162  32.548  24.079   4.433
80769W        W49163  20.987  11.754   0.808
80770W        W49164   3.296  14.382   0.768
80771W        W49165  40.936  27.709   4.135
80772W        W49166  40.057  41.365   2.904
80773W        W49167   5.875  33.276  12.045
80774W        W49168  28.376  15.658   4.640
80775W        W49169  12.927  16.198   4.170
80776W        W49170  11.790   9.996   0.276
80777W        W49171   8.090   2.966  10.184
80778W        W49172  40.864  36.047   0.284
80779W        W49173  21.185   3.962   3.165
80780W        W49174  11.423  22.965  13.030
80781W        W49175  23.307  35.815   4.718
80782W        W49176   1.832   7.660  12.106
80783W        W49177  30.289  40.411  13.108
80784W        W49178  17.066  34.957  14.622
80785W        W49179  25.225  17.996  11.510
80786W        W49180  16.678  21.953   2.221
80787W        W49181  42.634  43.036   0.756
80788W        W49182  29.591  39.993  11.162
80789W        W49183  17.015   8.364  11.163
80790W        W49184  12.885   6.400  13.478
80791W        W49185  25.025  21.207   0.420
80792W        W49186  32.651  34.419   3.593
80793W        W49187  16.163  37.317  12.640
80794W        W49188  20.708  38.295  14.873
80795W        W49189   8.851   0.397  10.257
80796W        W49190  28.986  18.210  11.351
80797W        W49191   7.446  15.860   3.612
80798W        W49192   6.272  26.144   4.574
80799W        W49193  35.149  31.949   1.315
80800W        W49194  42.284  18.010  12.348
80801W        W49195  32.514  25.734  14.005
80802W        W49196  27.642  16.707   4.560
80803W        W49197  25.057  27.139   4.526
80804W        W49198  11.804   6.344   1.725
80805W        W49199   8.879  30.190  14.112
80806W        W49200  18.705  41.413   5.291
80807W        W49201  44.986   2.575   3.824
80808W        W49202  13.594   2.589  13.057
80809W        W49203  36.777  38.567  10.580
80810W        W49204  15.193  20.966  11.244
80811W        W49205  40.087   3.823   4.535
80812W        W49206  35.661  27.284   3.903
80813W        W49207   0.365  23.547   2.791
80814W        W49208  16.975  17.065   2.671
80815W        W49209  12.776  29.862   4.084
80816W        W49210   0.503  34.004  14.202
80817W        W49211  17.555  18.178   4.119
80818W        W49212  36.663  13.378   2.364
80819W        W49213  23.896  15.407   1.439
80820W        W49214   4.742  43.745  13.748
80821W        W49215  35.257  23.401   1.810
80822W        W49216   3.647  44.108  12.684
80823W        W49217  15.723  21.725  13.753
80824W        W49218   3.674  42.933  13.983
80825W        W49219   0.436   2.688  14.352
80826W        W49220   0.138  38.058   9.996
80827W        W49221  16.272  40.514   2.860
80828W        W49222  17.734  33.477   1.010
80829W        W49223  19.730  25.437  11.610
80830W        W49224  41.910  19.023  12.068
80831W        W49225  23.057  31.008  10.948
80832W        W49226  27.570  38.718  11.404
80833W        W49227  34.801   4.473  11.169
80834W        W49228   8.052  41.781   4.144
80835W        W49229  18.376  14.118   1.256
80836W        W49230  42.879  12.840  14.915
80837W        W49231   4.803  31.324  13.539
80838W        W49232  25.948   7.924   4.198
80839W        W49233  40.887  30.046   2.892
80840W        W49234  17.171  18.481  14.942
80841W        W49235  42.492  35.898   2.779
80842W        W49236   0.987  10.554  11.558
80843W        W49237  35.141  20.129  12.935
80844W        W49238   4.151   6.268  11.084
80845W        W49239   8.171  38.299  13.615
80846W        W49240  34.050  22.184  11.026
80847W        W49241  26.164  38.525  13.609
80848W        W49242   2.186  29.422  12.959
80849W        W49243  26.418  38.580  12.011
80850W        W49244   9.117  38.915   2.310
80851W        W49245  42.804  13.882  14.107
80852W        W49246  17.156  23.056   4.634
80853W        W49247  42.819  35.815   3.187
80854W        W49248  18.637  31.677   9.947
80855W        W49249  32.918  10.908  11.572
80856W        W49250   7.224  42.081  12.518
80857W        W49251  23.579  23.291  13.404
80858W        W49252  22.276  36.588   0.907
80859W        W49253  29.160  35.526   1.670
80860W        W49254  29.558  27.098   1.275
80861W        W49255   5.497  25.078   2.679
80862W        W49256  25.464  24.742  12.511
80863W        W49257  26.538  14.289   2.312
80864W        W49258   7.168  32.147   2.421
80865W        W49259   7.424  32.925  10.551
80866W        W49260  27.522   7.327   4.316
80867W        W49261  26.844  22.101   1.133
80868W        W49262  22.251   2.457   3.637
80869W        W49263   0.765  22.110  14.281
80870W        W49264   4.597  10.173   3.798
80871W        W49265  27.781   3.366  12.923
80872W        W49266  19.184  14.721  14.090
80873W        W49267  17.251  17.811  14.273
80874W        W49268  20.561  16.034  12.010
80875W        W49269  27.719  36.307   2.671
80876W        W49270   2.023  12.619  12.957
80877W        W49271  16.424  40.580   3.359
80878W        W49272  42.411  23.127  13.945
80879W        W49273  44.524  25.545  10.549
80880W        W49274  34.118  34.299   2.404
80881W        W49275  25.056  11.585   3.444
80882W        W49276  32.962  21.215  10.908
80883W        W49277   7.446  35.499   2.311
80884W        W49278  21.133  19.130   2.282
80885W        W49279   2.890  13.886  13.221
80886W        W49280  23.562   4.381  14.266
80887W        W49281   4.367  13.833  11.240
80888W        W49282  44.292  44.967  14.103
80889W        W49283  20.041  21.459  10.314
80890W        W49284  42.468  24.801  14.685
80891W        W49285  32.549   8.289   4.562
80892W        W49286  12.033  34.029  12.976
80893W        W49287  33.975   7.371   3.228
80894W        W49288  33.523   9.890  14.886
80895W        W49289  16.847  14.912   1.737
80896W        W49290  30.676  19.607  14.275
80897W        W49291  43.430  22.303   4.559
80898W        W49292  36.966  30.393   1.895
80899W        W49293  19.312  25.119  11.648
80900W        W49294  12.788   9.180   4.173
80901W        W49295  18.516   0.903   3.215
80902W        W49296  26.629   2.275   4.406
80903W        W49297   4.372  32.532   0.247
80904W        W49298  25.620  18.568   0.091
80905W        W49299  41.978   4.981   0.929
80906W        W49300  25.707   6.460   2.833
80907W        W49301  25.290  19.181  14.301
80908W        W49302   0.356  40.362   3.214
80909W        W49303  32.227  18.007  13.748
80910W        W49304  31.222  16.748   4.025
80911W        W49305   5.910   6.753  13.048
80912W        W49306  26.353  21.973   1.249
80913W        W49307  22.999  37.860   0.206
80914W        W49308  10.437  21.132   0.243
80915W        W49309  18.654  14.002   3.358
80916W        W49310  43.830   8.304  14.497
80917W        W49311  35.604  44.697  14.905
80918W        W49312  43.295  43.742   1.214
80919W        W49313  11.161   9.711  11.591
80920W        W49314   0.061  32.891   2.210
80921W        W49315  10.396   0.041   0.245
80922W        W49316  43.984   8.600  11.554
80923W        W49317  42.074   0.926  12.200
80924W        W49318  29.511  32.085  13.499
80925W        W49319   7.465   0.305  13.401
80926W        W49320  44.517  26.611  11.649
80927W        W49321  26.107  16.099   4.527
80928W        W49322  30.565  42.674  14.837
80929W        W49323  20.773  30.368  10.995
80930W        W49324  30.542  26.961  13.407
80931W        W49325  19.492  28.943   1.886
80932W        W49326  32.600   8.225   3.632
80933W        W49327  14.677   2.166  12.061
80934W        W49328  14.271  39.061  12.987
80935W        W49329  31.152  27.561   1.843
80936W        W49330  28.515  29.755  11.156
80937W        W49331  26.907   0.302   4.102
80938W        W49332   0.468  10.183   0.718
80939W        W49333  39.951  18.702  11.859
80940W        W49334  11.501  43.995   2.118
80941W        W49335   4.486  36.029   3.404
80942W        W49336  38.666   2.291  12.524
80943W        W49337  34.549   5.249  10.784
80944W        W49338   3.240   9.310  13.121
80945W        W49339  41.426  15.329   1.281
80946W        W49340  13.107  16.783  14.233
80947W        W49341  41.362  21.602   4.631
80948W        W49342  28.572   6.953  11.041
80949W        W49343  42.415  15.291  13.542
80950W        W49344  32.520   9.696   0.676
80951W        W49345  40.328  13.509  12.210
80952W        W49346  31.990  20.484   0.775
80953W        W49347  16.727  36.413  14.838
80954W        W49348  35.915   0.463  12.515
80955W        W49349  11.710  18.230  10.606
80956W        W49350  38.873  39.564   1.399
80957W        W49351  20.229   5.084   2.584
80958W        W49352  17.394  41.747   4.800
80959W        W49353  27.923   0.366   4.165
80960W        W49354  14.138  13.570  13.506
80961W        W49355  28.448  18.514   1.748
80962W        W49356  44.064   9.844   1.942
80963W        W49357  13.469  38.877  14.727
80964W        W49358  33.154  37.549  14.757
80965W        W49359  41.971  40.200   9.960
80966W        W49360   6.090   8.886   4.254
80967W        W49361   3.176   3.813  11.986
80968W        W49362  22.951  13.200   1.929
80969W        W49363   2.179  23.484   2.777
80970W        W49364  26.717  38.022  11.164
80971W        W49365  17.671  11.844  12.589
80972W        W49366  44.743  21.259  14.601
80973W        W49367  41.089  34.629  13.584
80974W        W49368  35.325  32.289   2.508
80975W        W49369  11.145  28.549   2.941
80976W        W49370  24.261  38.110  11.425
80977W        W49371   0.259  25.783  12.102
80978W        W49372  22.617   0.257  12.469
80979W        W49373  24.305   4.440   1.891
80980W        W49374  34.996  21.750  12.965
80981W        W49375  37.292  22.665  12.522
80982W        W49376  32.416  35.475   0.300
80983W        W49377   7.871  18.860  13.988
80984W        W49378   0.803  28.618  14.035
80985W        W49379   5.375   1.451  12.649
80986W        W49380   4.491  27.492   1.126
80987W        W49381  27.211  28.940   4.364
80988W        W49382  29.164  11.660   0.150
80989W        W49383  42.813  21.543  10.752
80990W        W49384  24.785  36.409  14.983
80991W        W49385  11.921  16.642  11.859
80992W        W49386  28.781  15.239   2.939
80993W        W49387  20.996  20.126  11.514
80994W        W49388  34.475  29.910  13.470
80995W        W49389  39.178  10.199   0.363
80996W        W49390  11.771  35.005   4.592
80997W        W49391  24.732   8.315  13.274
80998W        W49392  36.873  38.828   3.654
80999W        W49393  31.917   5.144  14.135
81000W        W49394  44.803  24.108  12.199
81001W        W49395  40.911  11.389   2.675
81002W        W49396   9.847   4.506   4.225
81003W        W49397  12.903  43.689  11.185
81004W        W49398  19.686  17.256   3.180
81005W        W49399  41.833  22.325  13.580
81006W        W49400  41.415   6.640  11.089
81007W        W49401  25.987  44.519   3.762
81008W        W49402   6.635  26.191  14.531
81009W        W49403  25.165  30.180   1.849
81010W        W49404  32.767  24.856   3.014
81011W        W49405  27.066  12.893  13.819
81012W        W49406  36.822  24.413   2.100
81013W        W49407  28.096  13.108   3.074
81014W        W49408  44.236  10.336  13.351
81015W        W49409  13.973  18.853  12.644
81016W        W49410  13.530  16.279   0.447
81017W        W49411  20.331  24.576   2.791
81018W        W49412   1.105  43.429  11.488
81019W        W49413  27.602   3.967  12.204
81020W        W49414  22.257  24.466  10.768
81021W        W49415   3.685  17.559   4.996
81022W        W49416   2.735  21.127   0.930
81023W        W49417  11.083   9.571  13.277
81024W        W49418  20.972  24.078   2.166
81025W        W49419   8.605  38.412  13.371
81026W        W49420  15.085   2.066  12.649
81027W        W49421  15.810  17.549   2.294
81028W        W49422  37.027   7.246  14.909
81029W        W49423  37.080  29.183   2.800
81030W        W49424  34.503  32.223  13.092
81031W        W49425  41.706  27.988  11.094
81032W        W49426  40.854   4.730  11.676
81033W        W49427   9.130   7.559   0.696
81034W        W49428  21.086  33.053  14.052
81035W        W49429   3.130  36.050   2.299
81036W        W49430  31.376  12.262   0.880
81037W        W49431   9.455  16.059  12.490
81038W        W49432  19.071  35.857   0.970
81039W        W49433  23.529  10.515  14.846
81040W        W49434  42.425  12.517  11.899
81041W        W49435   2.372  11.826  11.192
81042W        W49436   5.107  44.225  12.535
81043W        W49437  32.081  19.695   4.628
81044W        W49438  26.408  11.161  10.781
81045W        W49439  35.116  36.964   2.836
81046W        W49440   3.522  27.040  14.813
81047W        W49441  26.419  44.810   2.606
81048W        W49442  25.539  13.569   1.411
81049W        W49443  40.105  28.027  13.030
81050W        W49444  21.136  15.140  12.071
81051W        W49445  14.748  31.844   2.048
81052W        W49446  40.815  17.036   1.998
81053W        W49447  43.834  13.670   3.807
81054W        W49448  41.997  31.478  12.905
81055W        W49449  16.338  17.527  11.124
81056W        W49450   4.838  37.538   0.786
81057W        W49451   3.449  11.627   5.117
81058W        W49452  35.497  36.537  10.752
81059W        W49453   5.891  40.901  10.687
81060W        W49454  22.442  10.688  13.047
81061W        W49455  15.847  42.389   0.764
81062W        W49456   9.512   5.039  11.053
81063W        W49457  30.532  19.029  13.095
81064W        W49458  17.178  26.718  13.591
81065W        W49459  32.477   6.406   3.160
81066W        W49460  33.551  37.204  14.788
81067W        W49461  30.437  14.793  13.870
81068W        W49462   3.541  16.878   2.004
81069W        W49463  18.067  32.258  10.573
81070W        W49464  39.082  25.235  12.472
81071W        W49465  18.176  35.893   0.717
81072W        W49466  13.703  26.307   2.369
81073W        W49467   8.658  19.593   1.390
81074W        W49468   4.230  15.750  13.537
81075W        W49469  12.751  12.193   2.413
81076W        W49470   0.532  42.191  10.706
81077W        W49471  38.336  17.401  11.094
81078W        W49472  38.810  12.565  13.886
81079W        W49473  15.319  11.367   4.564
81080W        W49474  25.192  12.258   3.788
81081W        W49475  28.030   8.707  14.134
81082W        W49476  40.023  28.650  14.272
81083W        W49477  31.132   4.009   0.099
81084W        W49478  28.437  40.972   3.597
81085W        W49479   0.969  33.904  13.987
81086W        W49480   4.976  26.811   1.379
81087W        W49481  43.731  31.158   0.581
81088W        W49482   4.296   1.371   2.280
81089W        W49483   2.183  11.306  13.980
81090W        W49484   0.292  36.757  11.058
81091W        W49485  31.577  14.681   1.704
81092W        W49486   2.270  27.195  12.318
81093W        W49487  28.319  16.679   2.540
81094W        W49488   2.968   2.884   0.728
81095W        W49489   7.703  32.484   3.396
81096W        W49490  22.004  41.543   4.697
81097W        W49491   0.488  39.886   2.223
81098W        W49492  19.868   5.691   1.882
81099W        W49493   4.387  22.815  11.570
81100W        W49494   9.711  15.321  13.017
81101W        W49495  40.757  44.903   4.567
81102W        W49496   1.012  34.753  11.644
81103W        W49497  28.260  42.369  12.986
81104W        W49498  24.514  17.563   4.829
81105W        W49499  39.284  22.092   0.407
81106W        W49500  30.514   5.229   4.598
81107W        W49501  29.659  21.097  14.855
81108W        W49502  20.665  20.620   4.631
81109W        W49503  13.593  42.937   0.373
81110W        W49504  16.707  41.209   0.717
81111W        W49505  36.125  36.064  13.827
81112W        W49506  35.429  36.078  12.150
81113W        W49507   2.988  32.118  14.406
81114W        W49508  17.922  31.349  13.812
81115W        W49509   2.342   1.696  13.925
81116W        W49510   5.560  16.376   0.092
81117W        W49511  24.064  29.125  12.468
81118W        W49512  34.657   5.195   3.710
81119W        W49513  23.551  19.108   0.805
81120W        W49514   5.673  35.660  11.559
81121W        W49515  42.836  34.591   4.443
81122W        W49516  40.071  17.530   0.571
81123W        W49517  29.442   2.684  11.087
81124W        W49518  38.330  27.865  11.088
81125W        W49519   4.972  19.689  13.427
81126W        W49520  33.169  32.450   2.801
81127W        W49521  22.793   2.331   1.355
81128W        W49522  22.952  29.046  14.915
81129W        W49523   7.143   8.785   4.104
81130W        W49524  44.526  20.226  11.995
81131W        W49525   8.176  23.521  14.567
81132W        W49526  41.152  31.382   2.677
81133W        W49527   4.141  12.923   0.344
81134W        W49528  28.562   4.869  12.169
81135W        W49529  32.846  23.871   2.667
81136W        W49530  36.882   1.609   0.381
81137W        W49531   6.686  25.734  12.875
81138W        W49532   4.450  22.548   1.796
81139W        W49533  28.572  40.846   1.146
81140W        W49534  11.551  19.643  10.967
81141W        W49535  31.534  38.006   4.202
81142W        W49536  20.490  37.071  13.131
81143W        W49537  38.321  22.969   4.122
81144W        W49538  44.066   7.447   0.330
81145W        W49539  20.317  28.212   2.810
81146W        W49540   3.649  16.995   0.499
81147W        W49541  19.532  37.152  13.528
81148W        W49542  15.854   4.169  11.626
81149W        W49543  44.585  12.345  13.576
81150W        W49544  29.568  28.519  10.787
81151W        W49545  12.536  16.704   2.013
81152W        W49546   0.782   9.814  10.412
81153W        W49547  10.309  35.343   2.489
81154W        W49548   7.238  14.763   0.645
81155W        W49549  26.455  24.288   1.828
81156W        W49550   5.354  36.086  10.717
81157W        W49551  41.684  37.964  13.407
81158W        W49552  10.060   6.110  12.977
81159W        W49553  41.015  42.439  13.621
81160W        W49554  44.399  24.057   0.210
81161W        W49555  39.988  12.940   2.294
81162W        W49556  23.609  42.026  10.960
81163W        W49557  42.038  27.949   4.107
81164W        W49558  21.570  36.526   4.394
81165W        W49559   1.682  27.947   3.741
81166W        W49560  44.391  27.594  14.439
81167W        W49561  14.702   3.715   4.551
81168W        W49562   2.700  29.037  12.393
81169W        W49563   0.410  20.071   2.597
81170W        W49564   1.198  44.007   2.614
81171W        W49565  39.313  41.517   4.043
81172W        W49566   5.300  39.832   1.578
81173W        W49567  11.816   8.320   0.750
81174W        W49568   6.684  26.071   0.019
81175W        W49569  21.823  39.058  10.411
81176W        W49570   8.895  11.697  13.884
81177W        W49571  20.286   8.765  14.423
81178W        W49572   5.084   5.835  12.539
81179W        W49573   0.333  29.517  11.632
81180W        W49574  34.564  35.714   2.513
81181W        W49575  38.859   9.389  12.844
81182W        W49576   3.159  22.584   1.325
81183W        W49577  35.705  21.349   3.842
81184W        W49578  44.021  21.849  11.159
81185W        W49579  13.644  40.401  14.354
81186W        W49580  12.701   1.360   1.204
81187W        W49581  20.555  39.314  10.713
81188W        W49582  14.422  37.145  14.861
81189W        W49583  31.152  17.836  11.020
81190W        W49584  26.935   1.059   3.681
81191W        W49585  34.846  30.926  14.850
81192W        W49586   7.364  20.077   3.051
81193W        W49587  43.339  41.283   1.178
81194W        W49588   1.868   8.957   0.055
81195W        W49589   8.177  19.356  13.132
81196W        W49590   8.419   1.881   0.737
81197W        W49591  29.866  23.608  14.039
81198W        W49592  40.092   7.107   1.357
81199W        W49593   0.410  16.094   3.979
81200W        W49594   3.600  23.757   2.357
81201W        W49595  24.157  20.319   2.157
81202W        W49596  22.027   7.227  10.690
81203W        W49597  13.644  24.269   2.010
81204W        W49598  36.150   2.513  13.017
81205W        W49599  40.540  24.646  13.862
81206W        W49600  15.376   7.655   1.082
81207W        W49601   4.370  12.233   2.924
81208W        W49602   3.526  40.013   0.829
81209W        W49603  15.755  22.592   5.007
81210W        W49604  35.555   2.366  14.503
81211W        W49605  17.857  26.679  12.545
81212W        W49606  39.979  37.057   3.286
81213W        W49607   4.322  24.876  11.112
81214W        W49608  36.497  29.518  13.916
81215W        W49609  21.229   0.287  10.255
81216W        W49610  29.195  11.883   1.030
81217W        W49611  31.824  14.748  11.180
81218W        W49612   6.732  30.471  13.363
81219W        W49613  12.263  25.578   4.707
81220W        W49614  30.932  33.566  11.614
81221W        W49615   6.318   2.340   3.249
81222W        W49616   0.357  41.786  12.085
81223W        W49617  19.775  42.266   0.943
81224W        W49618  43.559  21.610  12.562
81225W        W49619  15.052   0.481   1.363
81226W        W49620  28.502  30.396  11.572
81227W        W49621   8.829   2.278  11.514
81228W        W49622  34.520  24.106  14.376
81229W        W49623  43.547  17.335   2.134
81230W        W49624   7.674   6.996   2.642
81231W        W49625  44.226  37.946   9.493
81232W        W49626   0.622  41.362  14.998
81233W        W49627  13.609  37.991  12.769
81234W        W49628  27.744  36.296   1.700
81235W        W49629  27.964  40.181   3.730
81236W        W49630   0.831   8.520  14.806
81237W        W49631  41.254  25.322   0.885
81238W        W49632  35.609  37.932  13.378
81239W        W49633  37.007  40.831  11.917
81240W        W49634  32.888  24.081   3.605
81241W        W49635  30.075  20.105  13.994
81242W        W49636   8.612  10.125   1.718
81243W        W49637  12.246  12.276   3.157
81244W        W49638  15.388  21.740  13.351
81245W        W49639  30.142  14.483   0.614
81246W        W49640   4.232  39.403   4.166
81247W        W49641  33.844  25.244  13.908
81248W        W49642  36.759  23.961   2.394
81249W        W49643  38.510  30.822   4.050
81250W        W49644  10.154   0.454   3.192
81251W        W49645  22.403  19.546  14.525
81252W        W49646  14.038  16.157  11.108
81253W        W49647  14.075  14.159  14.514
81254W        W49648  27.988  19.335   0.040
81255W        W49649  16.392   9.874  12.099
81256W        W49650  28.012  41.721   3.754
81257W        W49651  35.527  29.086  10.683
81258W        W49652  18.849   5.985   0.372
81259W        W49653  27.561  21.092   4.575
81260W        W49654  12.763  36.201  14.259
81261W        W49655  27.952   4.833  11.176
81262W        W49656  19.755  41.451   2.157
81263W        W49657  29.885  14.249   2.839
81264W        W49658  21.954   7.388   0.267
81265W        W49659  26.905  17.139   1.459
81266W        W49660   2.352  31.545   4.095
81267W        W49661  23.109  15.017  11.876
81268W        W49662  29.819   6.361   2.853
81269W        W49663  37.023  32.097   3.748
81270W        W49664   2.928  38.319  11.959
81271W        W49665  21.306   4.470  12.960
81272W        W49666   4.862  14.609  11.336
81273W        W49667  30.219   5.835  13.982
81274W        W49668  11.202  40.705  12.336
81275W        W49669   2.276  43.414  14.471
81276W        W49670  44.053  28.917  13.486
81277W        W49671  27.355  38.783   3.923
81278W        W49672  11.478  16.065  12.545
81279W        W49673  16.385  29.366   1.748
81280W        W49674  18.333  17.850  11.142
81281W        W49675  36.986  21.812   1.667
81282W        W49676  27.023  12.573  10.687
81283W        W49677  39.201  27.382  11.507
81284W        W49678  20.520  38.547  11.603
81285W        W49679  34.764  39.413  14.399
81286W        W49680   3.787  27.010   3.861
81287W        W49681  28.343  30.111  10.318
81288W        W49682  19.666   6.770   2.711
81289W        W49683  28.148   2.025   0.206
81290W        W49684  21.283  17.227  13.571
81291W        W49685  37.792  26.593  10.493
81292W        W49686  41.634  44.964   2.793
81293W        W49687  42.964  26.077  12.041
81294W        W49688   6.293   5.702  12.039
81295W        W49689   1.290  32.978  12.435
81296W        W49690  44.719  40.490   4.179
81297W        W49691  38.846   6.515  14.210
81298W        W49692  26.131  24.288  11.180
81299W        W49693  17.339   9.202  11.621
81300W        W49694  36.370  37.781  14.855
81301W        W49695   8.164  30.537  13.127
81302W        W49696  28.033  22.180  11.718
81303W        W49697  26.026  42.759   2.981
81304W        W49698   2.849  37.446   4.522
81305W        W49699   1.280  22.912   1.249
81306W        W49700  21.146  17.571   4.438
81307W        W49701  40.598  39.703  10.074
81308W        W49702  25.628   4.162  11.499
81309W        W49703  34.958   3.267   2.530
81310W        W49704  33.805  36.878   4.122
81311W        W49705   3.019  27.257  13.305
81312W        W49706  13.738  41.602   4.100
81313W        W49707  26.899  20.197  12.604
81314W        W49708  10.762   5.730   0.883
81315W        W49709  22.906  26.229  14.771
81316W        W49710  18.957   2.806  13.807
81317W        W49711  13.290  25.003   4.884
81318W        W49712  19.784  39.614  14.910
81319W        W49713  24.583  23.559  11.196
81320W        W49714  15.034  17.629   4.410
81321W        W49715  40.617  24.793  12.092
81322W        W49716   5.097   5.342   0.293
81323W        W49717  27.528  24.939   0.933
81324W        W49718  38.146  23.554  11.496
81325W        W49719  29.226   5.732   4.157
81326W        W49720  35.835  10.112   3.746
81327W        W49721  36.128  42.206  12.434
81328W        W49722   2.834  40.049  12.975
81329W        W49723  22.157   9.720  14.212
81330W        W49724   1.184  34.359   3.714
81331W        W49725  22.292   7.185   2.350
81332W        W49726  28.517  32.709  13.831
81333W        W49727  25.676  32.509  13.002
81334W        W49728  31.043  33.973   2.259
81335W        W49729  40.004  18.700   2.039
81336W        W49730  37.971  35.945   3.096
81337W        W49731  15.470   7.681  11.647
81338W        W49732   9.294  16.483  10.533
81339W        W49733   8.896   5.811   2.218
81340W        W49734  18.164  32.886   2.825
81341W        W49735  38.595  24.131  12.846
81342W        W49736  33.887  21.919  11.433
81343W        W49737   5.664  34.292  14.297
81344W        W49738  22.138  22.178  11.577
81345W        W49739   5.363  12.574   4.597
81346W        W49740   6.762  42.810   0.843
81347W        W49741  36.513   4.100   4.060
81348W        W49742  27.483   6.777   2.384
81349W        W49743  36.509  18.074   0.723
81350W        W49744  16.312  38.279  12.365
81351W        W49745  37.507  10.793   0.882
81352W        W49746  43.727  37.124  12.453
81353W        W49747  44.221   3.570   4.267
81354W        W49748   8.295   3.536   2.714
81355W        W49749   3.223  39.161   4.995
81356W        W49750   5.288  16.711   4.056
81357W        W49751   1.818  25.483  11.529
81358W        W49752  28.696  38.856   2.257
81359W        W49753  24.504  41.444  11.757
81360W        W49754   9.683  27.930   4.604
81361W        W49755   5.302   3.774   2.739
81362W        W49756  22.395  11.315   3.189
81363W        W49757  32.029  16.557   1.958
81364W        W49758   5.554  34.571  14.721
81365W        W49759  35.067  40.894   3.384
81366W        W49760  11.838  40.236   2.729
81367W        W49761   5.577   9.680  11.592
81368W        W49762  27.103  36.451   4.692
81369W        W49763  10.133  22.487   2.703
81370W        W49764  20.836   0.724  14.854
81371W        W49765  35.131  38.900   2.765
81372W        W49766   4.516   5.456   3.278
81373W        W49767  34.899  21.173  10.803
81374W        W49768  17.644  35.675   3.306
81375W        W49769  31.603   9.211   3.698
81376W        W49770  27.848  22.054  10.171
81377W        W49771  41.559  39.360   0.972
81378W        W49772  44.481  10.823   0.357
81379W        W49773  17.725  18.726   1.152
81380W        W49774  37.697   4.993  11.543
81381W        W49775   7.006  14.721   2.443
81382W        W49776   3.825  34.188   1.345
81383W        W49777  20.127  17.874  11.287
81384W        W49778  21.674   3.552   4.309
81385W        W49779  19.238  17.268  11.884
81386W        W49780   5.284  37.100  12.836
81387W        W49781  23.932  33.113  11.445
81388W        W49782  22.971   3.914   3.745
81389W        W49783  13.247  35.629  13.912
81390W        W49784  23.487   3.847   2.836
81391W        W49785   5.712  16.785   1.280
81392W        W49786  17.642   1.751   3.848
81393W        W49787  30.536   3.863   2.971
81394W        W49788  24.136  16.376  12.029
81395W        W49789  29.044   5.226   2.344
81396W        W49790  32.837   1.438   1.342
81397W        W49791  41.207  34.994  14.547
81398W        W49792  44.767   8.820  10.963
81399W        W49793  30.377   4.739  12.842
81400W        W49794   4.506  28.527  14.341
81401W        W49795   9.145  31.202  14.387
81402W        W49796  30.170  12.154   1.892
81403W        W49797  23.312  37.416  12.315
81404W        W49798  12.107   8.384   3.142
81405W        W49799  16.697  20.562  14.211
81406W        W49800   0.753  35.497  10.551
81407W        W49801  21.512   6.350   1.906
81408W        W49802   2.569  17.780  14.569
81409W        W49803   0.945   4.877   3.804
81410W        W49804  40.448  19.322  10.724
81411W        W49805  23.761  25.180   1.835
81412W        W49806  13.892  26.491  14.501
81413W        W49807   1.317  18.167  14.708
81414W        W49808   8.755  12.270  12.954
81415W        W49809   7.187  27.950  10.371
81416W        W49810   6.266  33.248   0.352
81417W        W49811   6.342   7.637  13.345
81418W        W49812  28.126  12.327   4.834
81419W        W49813  34.378   7.993   2.330
81420W        W49814   4.841  39.558   0.941
81421W        W49815   8.337  35.944  13.073
81422W        W49816  12.806  42.767  14.030
81423W        W49817  22.198   4.790  10.396
81424W        W49818   6.938  33.552   3.216
81425W        W49819   3.881  25.035   2.707
81426W        W49820  19.056  11.761   2.931
81427W        W49821  39.012   3.337  13.544
81428W        W49822  34.502  34.337   4.629
81429W        W49823   9.104  23.714   2.294
81430W        W49824  23.484   6.774   4.556
81431W        W49825  32.110  40.703  10.813
81432W        W49826   1.402  25.959   3.136
81433W        W49827   2.427  18.826   0.359
81434W        W49828  15.339   7.854  11.165
81435W        W49829  12.220  27.681  12.566
81436W        W49830  23.077   5.246   3.130
81437W        W49831  35.214  33.466   4.568
81438W        W49832  44.676   8.535  12.532
81439W        W49833   5.924   5.336  13.062
81440W        W49834  29.228   8.778   4.148
81441W        W49835  13.388  34.889   3.949
81442W        W49836  40.516  14.809   1.402
81443W        W49837  23.408  42.836  14.775
81444W        W49838  43.981  35.929  11.414
81445W        W49839  44.760  37.933  12.516
81446W        W49840  16.808  24.065   3.101
81447W        W49841  44.554  39.466  12.180
81448W        W49842  44.511   0.242  14.507
81449W        W49843  24.196  25.956  13.401
81450W        W49844  37.568  25.937   3.181
81451W        W49845   4.899  14.205   9.930
81452W        W49846  14.993  32.720  14.283
81453W        W49847  24.607   6.313  11.794
81454W        W49848  44.484  32.350  14.895
81455W        W49849  32.256  33.663  11.105
81456W        W49850  32.410  17.842   3.744
81457W        W49851  31.996   3.314  10.720
81458W        W49852   6.181   6.152   3.217
81459W        W49853  22.466  10.449   2.219
81460W        W49854  10.484  34.619  12.138
81461W        W49855  14.406  28.128  11.178
81462W        W49856   6.700   6.451   4.719
81463W        W49857  31.457   3.629   0.009
81464W        W49858  19.653   5.674  11.734
81465W        W49859  19.544  14.339  13.965
81466W        W49860  44.935  33.340   2.959
81467W        W49861  14.963   6.415  11.198
81468W        W49862   4.148  18.810  14.446
81469W        W49863   3.937  30.852   3.335
81470W        W49864  38.846  34.119  12.109
81471W        W49865  21.143  14.395  13.478
81472W        W49866  28.506  19.781   2.363
81473W        W49867  25.168  31.960  11.184
81474W        W49868  35.087  39.259   1.343
81475W        W49869   0.313  15.589   1.360
81476W        W49870  36.623  38.964   4.080
81477W        W49871  44.164  19.083   3.820
81478W        W49872   0.893  31.994   4.320
81479W        W49873  15.222  24.084  13.858
81480W        W49874  36.290  31.583   4.595
81481W        W49875   2.315  29.604  14.967
81482W        W49876   6.346  35.609   1.503
81483W        W49877  35.147  30.563  10.336
81484W        W49878  20.943  19.296   1.798
81485W        W49879  29.238  20.249   5.215
81486W        W49880  24.201  32.037  14.795
81487W        W49881  41.709  15.828  14.808
81488W        W49882   9.677  17.164  13.359
81489W        W49883   7.844  21.775   3.777
81490W        W49884  22.789  21.950   3.668
81491W        W49885  17.513  36.501   3.540
81492W        W49886  28.922  44.655  14.547
81493W        W49887  30.956  12.737   3.080
81494W        W49888  18.143   7.701   0.657
81495W        W49889   2.869  44.005  14.815
81496W        W49890  34.957  11.201   2.818
81497W        W49891   4.267   7.613  13.452
81498W        W49892  12.850  37.200   1.680
81499W        W49893  14.917  43.877  11.634
81500W        W49894  14.329  23.156   0.224
81501W        W49895  24.159  37.069  12.459
81502W        W49896  36.321  33.978  11.833
81503W        W49897  25.603  21.650   0.398
81504W        W49898  11.037  18.388   2.241
81505W        W49899   5.212  17.194  10.233
81506W        W49900  22.142  18.793  11.270
81507W        W49901   6.394  31.993  11.911
81508W        W49902   6.693  40.590  10.503
81509W        W49903   4.962  19.109   0.835
81510W        W49904  16.304  42.415  11.219
81511W        W49905  34.024   7.400   4.206
81512W        W49906   8.912  19.199  13.452
81513W        W49907  20.024  35.367   2.736
81514W        W49908   0.768  40.299  11.905
81515W        W49909   4.369  44.559  14.935
81516W        W49910  21.037  39.134   2.301
81517W        W49911  21.145  29.139  11.177
81518W        W49912  31.641   1.149  14.461
81519W        W49913  28.844   1.232   0.511
81520W        W49914   9.707  32.359  11.207
81521W        W49915  23.721  13.655  11.236
81522W        W49916  12.040   8.791  11.565
81523W        W49917  44.971  26.790  11.425
81524W        W49918  23.519  27.768   2.356
81525W        W49919  31.620  31.205   2.326
81526W        W49920   4.411  31.975   2.557
81527W        W49921  44.832  28.917   3.184
81528W        W49922  10.688  15.694  13.281
81529W        W49923   6.369  15.713  11.566
81530W        W49924  15.993   5.010  14.847
81531W        W49925  42.242  16.488   4.129
81532W        W49926  44.597  26.967  11.992
81533W        W49927  21.229  34.829   3.994
81534W        W49928  13.779  26.697   3.871
81535W        W49929  13.619   4.979  11.575
81536W        W49930  18.326   3.187   3.255
81537W        W49931  44.393  41.232  11.440
81538W        W49932  27.154  17.024  11.099
81539W        W49933  44.435  40.054  10.189
81540W        W49934   9.880  12.360  14.300
81541W        W49935  34.368  44.922  13.139
81542W        W49936   0.993  36.019  11.103
81543W        W49937   2.246  15.161   1.920
81544W        W49938  14.492   6.950  14.883
81545W        W49939  33.117  42.862  13.539
81546W        W49940  32.492  40.999   2.368
81547W        W49941  24.802   9.043   1.136
81548W        W49942   5.819   8.700  14.981
81549W        W49943  20.797  26.045   5.287
81550W        W49944  36.181  34.480  14.952
81551W        W49945  24.605  36.289  12.554
81552W        W49946   6.760  42.452   1.690
81553W        W49947   8.071  25.124   2.123
81554W        W49948   7.507   4.155  13.709
81555W        W49949  32.094  20.489  13.953
81556W        W49950   5.123  30.335  14.371
81557W        W49951  31.164  12.876   1.165
81558W        W49952  17.472  11.275  11.881
81559W        W49953  22.423  22.461  12.365
81560W        W49954  39.063  42.310   3.414
81561W        W49955   5.301  21.197   3.093
81562W        W49956  34.899  38.404   0.977
81563W        W49957   3.886  22.523   3.722
81564W        W49958  35.447  31.654   0.180
81565W        W49959  18.821  39.021  11.186
81566W        W49960  18.357  16.791   3.548
81567W        W49961  13.124  18.509  14.860
81568W        W49962   7.474  37.086   1.715
81569W        W49963  44.275  34.374   0.858
81570W        W49964  18.387  39.708   1.489
81571W        W49965   9.610   0.744   1.260
81572W        W49966  17.550  44.072   0.402
81573W        W49967   7.336   4.562  13.963
81574W        W49968  33.000   8.468  11.951
81575W        W49969  19.455  41.547  12.029
81576W        W49970   6.182  18.339  13.008
81577W        W49971  19.788   1.462   2.013
81578W        W49972  13.568  44.951   4.547
81579W        W49973  14.158  34.607  14.849
81580W        W49974  18.110   8.292  13.428
81581W        W49975   0.575  19.435   0.707
81582W        W49976  40.708  39.272   4.717
81583W        W49977  33.050   9.381   4.373
81584W        W49978  37.880  27.699   0.768
81585W        W49979  40.023  36.591  12.940
81586W        W49980  29.576  23.666  11.192
81587W        W49981  44.778  21.169   1.416
81588W        W49982  25.856  39.318   4.629
81589W        W49983  20.227  14.003  11.026
81590W        W49984   6.170  29.948   3.166
81591W        W49985  23.074  42.957  14.375
81592W        W49986  12.135  22.625   3.611
81593W        W49987  42.056  24.091   2.172
81594W        W49988  33.552  34.012  14.221
81595W        W49989  16.354  43.663  11.746
81596W        W49990  31.976  19.239  10.791
81597W        W49991  42.712  44.420   4.578
81598W        W49992  26.115  24.803  11.826
81599W        W49993  44.840  11.725   0.501
81600W        W49994  14.069  22.334   4.855
81601W        W49995   6.986  30.975  12.477
81602W        W49996  34.320  38.960  10.677
81603W        W49997  35.863  36.386   4.769
81604W        W49998   6.627  36.144  11.174
81605W        W49999  27.393  30.562  14.733
81606W        W50000  29.852  43.366   0.950
81607W        W50001  43.550   0.386   4.099
81608W        W50002  27.722  23.603  12.344
81609W        W50003  23.186  11.401  14.429
81610W        W50004  22.534  28.623  14.212
81611W        W50005  27.023  16.181   0.157
81612W        W50006  40.452  41.015  13.721
81613W        W50007  10.470  32.526   4.165
81614W        W50008  44.364  33.824   2.216
81615W        W50009  13.357  32.904  14.917
81616W        W50010  31.077  43.496   1.700
81617W        W50011  23.143  37.349   1.256
81618W        W50012  20.587  33.675   4.592
81619W        W50013  12.200  34.463  10.795
81620W        W50014  27.624  39.563  11.209
81621W        W50015  12.587   5.232  10.922
81622W        W50016  15.698  27.038   1.447
81623W        W50017  18.825  34.692  10.814
81624W        W50018  24.875  14.002  11.607
81625W        W50019  14.632  20.463  14.784
81626W        W50020  19.206  13.335   4.895
81627W        W50021  41.919  21.227  10.674
81628W        W50022  36.914  17.207   1.681
81629W        W50023  28.276  19.966  11.737
81630W        W50024  27.548  14.299   3.171
81631W        W50025  19.456  32.100  11.198
81632W        W50026  24.479  23.136  12.431
81633W        W50027   2.342  29.730  11.544
81634W        W50028  22.210   0.274   0.460
81635W        W50029  16.236  33.084  13.630
81636W        W50030   3.450  17.727  10.790
81637W        W50031  18.637  25.069   3.004
81638W        W50032  24.142  40.133   0.286
81639W        W50033  39.768  26.446   3.817
81640W        W50034  18.719  21.021   2.029
81641W        W50035  34.872  44.939   3.713
81642W        W50036   8.841  39.147  10.880
81643W        W50037  41.459  17.060  12.976
81644W        W50038  37.315  39.063   3.605
81645W        W50039  22.550  39.382  14.928
81646W        W50040  24.752  20.612  12.834
81647W        W50041  29.700  18.378  12.044
81648W        W50042  19.142  33.327  10.633
81649W        W50043  39.649   1.275  13.314
81650W        W50044  19.247  44.575   3.235
81651W        W50045  30.394  29.863  13.647
81652W        W50046  18.570  41.959   0.510
81653W        W50047  39.583  39.545   4.594
81654W        W50048  42.329  40.728   1.893
81655W        W50049  32.115   0.260   2.102
81656W        W50050  11.821   1.988   2.373
81657W        W50051  31.682  19.675  10.782
81658W        W50052   1.252  42.230  14.378
81659W        W50053   9.665   9.355   0.995
81660W        W50054  15.978   0.821   3.683
81661W        W50055   1.497  33.812   1.030
81662W        W50056  41.548  10.132   1.458
81663W        W50057  12.170   8.633   2.191
81664W        W50058  33.519  44.940  12.625
81665W        W50059  32.530   1.432   3.074
81666W        W50060  27.137   7.927   0.146
81667W        W50061  26.892  18.331   4.263
81668W        W50062  32.942  35.333  10.604
81669W        W50063  13.642  39.896   3.858
81670W        W50064  31.648  27.737  10.670
81671W        W50065   1.026  34.336  13.337
81672W        W50066  17.982  19.140   4.062
81673W        W50067  40.574  40.220   2.673
81674W        W50068  31.481   7.974   4.173
81675W        W50069  31.768  38.349   3.841
81676W        W50070  28.619  34.359   0.403
81677W        W50071  38.453   1.454  12.338
81678W        W50072  42.015  25.111  11.183
81679W        W50073   2.469   1.560   4.143
81680W        W50074  39.776  12.153   1.040
81681W        W50075  41.910  16.079   5.052
81682W        W50076   0.876   6.263   1.019
81683W        W50077  14.275  42.954  10.752
81684W        W50078  30.961  44.369  12.861
81685W        W50079  42.386  36.397  10.541
81686W        W50080  19.984  43.133  11.017
81687W        W50081   1.726  16.584  12.078
81688W        W50082  19.214  13.697  14.052
81689W        W50083  20.021  14.880   2.164
81690W        W50084   5.754  41.490   2.424
81691W        W50085  17.884  38.308   1.299
81692W        W50086  35.503  11.563   2.204
81693W        W50087  18.344  35.531  12.965
81694W        W50088  20.986   3.977   0.499
81695W        W50089   8.665   1.417   2.512
81696W        W50090   0.489  12.332  14.085
81697W        W50091  41.801  17.111   0.480
81698W        W50092  14.850  19.560   3.128
81699W        W50093   1.137  37.222   9.946
81700W        W50094  29.690  25.789  14.671
81701W        W50095   9.081  22.953   3.272
81702W        W50096  12.284  20.057   2.749
81703W        W50097   7.946  27.118   2.823
81704W        W50098   9.890  13.031   1.488
81705W        W50099  23.804   6.462  12.847
81706W        W50100  38.916  26.246  12.476
81707W        W50101   6.646  10.356  14.739
81708W        W50102   8.867  40.752   2.214
81709W        W50103   8.888  30.962   4.160
81710W        W50104  25.728  18.767   2.022
81711W        W50105  33.565  17.677   3.574
81712W        W50106  25.081   0.683  14.768
81713W        W50107   4.364  12.582  14.958
81714W        W50108   3.459  27.401  12.405
81715W        W50109  44.526  32.915  12.143
81716W        W50110  26.182  13.302   1.312
81717W        W50111   8.112  32.917   4.547
81718W        W50112  12.906  22.640   0.462
81719W        W50113  21.014   2.315  12.891
81720W        W50114  44.309  30.277   4.523
81721W        W50115  27.434  43.284   2.659
81722W        W50116  14.769  20.014  10.749
81723W        W50117  42.329  20.277  12.602
81724W        W50118  21.916  22.757   1.832
81725W        W50119  16.266  36.825  12.908
81726W        W50120  37.977  21.457  14.527
81727W        W50121  19.543  15.366   1.517
81728W        W50122  30.181  34.074  11.614
81729W        W50123  15.911  28.291  11.001
81730W        W50124  36.653   6.209   0.846
81731W        W50125  33.154  12.122  14.331
81732W        W50126   3.289   7.677   0.734
81733W        W50127  37.442  21.638   1.952
81734W        W50128  36.935   1.602  14.036
81735W        W50129   2.712  36.387   2.373
81736W        W50130  18.292  15.363   4.668
81737W        W50131   9.370   7.643  13.441
81738W        W50132  31.868  32.329  13.368
81739W        W50133  42.967   0.407   0.239
81740W        W50134  34.413   8.411  11.879
81741W        W50135  39.993  43.572   0.427
81742W        W50136  42.499  44.592  11.619
81743W        W50137  29.653  39.452   0.472
81744W        W50138   0.915  19.571   4.923
81745W        W50139  11.080  13.825   2.021
81746W        W50140  38.468   1.291  14.136
81747W        W50141  37.326   8.002   1.471
81748W        W50142   4.730  25.090  14.824
81749W        W50143  15.805   7.887   3.266
81750W        W50144  27.180   2.883  10.732
81751W        W50145  17.130  44.584   1.027
81752W        W50146  32.938  35.048   0.962
81753W        W50147   9.964   6.196   3.166
81754W        W50148  27.711  20.338   4.119
81755W        W50149  32.159  10.741  11.158
81756W        W50150   4.919  28.313  13.497
81757W        W50151  39.414  28.955   3.400
81758W        W50152  31.992  38.058  13.961
81759W        W50153  25.061  31.174   4.618
81760W        W50154  16.301   9.809  14.517
81761W        W50155  38.974   5.973   1.285
81762W        W50156  10.682  37.951  14.632
81763W        W50157  39.659  34.605  12.010
81764W        W50158  35.482  39.598   2.280
81765W        W50159  14.032  38.174   1.711
81766W        W50160   8.477  35.960   1.017
81767W        W50161  14.595  42.618  13.975
81768W        W50162  23.536   3.227   0.952
81769W        W50163   4.774  30.142   0.463
81770W        W50164  41.791  20.696   4.827
81771W        W50165  30.611   3.447  10.380
81772W        W50166  34.799  20.162   0.716
81773W        W50167  44.774  36.839   0.711
81774W        W50168  34.701  10.299   0.881
81775W        W50169  19.802  41.970   2.884
81776W        W50170  43.379  31.909  10.045
81777W        W50171   7.253  18.470   4.687
81778W        W50172  17.719  17.482  11.685
81779W        W50173  12.536  37.298  14.319
81780W        W50174  16.224   3.508  10.825
81781W        W50175   3.805  12.404  12.466
81782W        W50176  36.361  21.492  14.454
81783W        W50177  17.883  23.801   0.632
81784W        W50178  24.631  22.151  13.359
81785W        W50179  19.011  40.725  13.351
81786W        W50180   2.925   2.318   3.177
81787W        W50181   9.745   1.211   2.712
81788W        W50182  10.083  38.008   0.283
81789W        W50183   7.820   4.813  11.587
81790W        W50184  36.967  44.450   4.891
81791W        W50185  37.115   7.964  11.610
81792W        W50186  17.817  27.026  11.110
81793W        W50187  11.652   6.471   4.816
81794W        W50188  18.574  21.488   1.367
81795W        W50189  27.397  23.178   4.230
81796W        W50190  26.991   0.941   4.983
81797W        W50191   8.353  17.094  14.692
81798W        W50192  19.557  40.026   0.858
81799W        W50193  36.133  23.129  12.517
81800W        W50194  18.769  11.649  10.721
81801W        W50195  32.014   2.440  10.476
81802W        W50196  28.571  13.833   3.591
81803W        W50197  43.028  34.134   4.580
81804W        W50198  14.250  32.622  13.009
81805W        W50199  27.675  25.632   3.592
81806W        W50200  20.770  39.288   0.888
81807W        W50201  34.355  17.594  13.459
81808W        W50202   7.497   5.193   1.490
81809W        W50203  33.680  31.623  10.822
81810W        W50204   3.317   9.742   3.880
81811W        W50205  41.125   4.594  11.256
81812W        W50206  32.881  31.171   4.646
81813W        W50207   1.372  27.456  14.940
81814W        W50208  37.598   0.455  11.143
81815W        W50209  10.198  27.114  10.508
81816W        W50210  38.934  43.080  11.194
81817W        W50211  28.879  24.621   0.837
81818W        W50212   6.002   8.328  11.490
81819W        W50213  25.797  21.641   3.949
81820W        W50214  21.022  11.569  14.958
81821W        W50215  28.621  23.198  12.452
81822W        W50216  34.977  32.560   3.604
81823W        W50217  14.070   8.798   2.353
81824W        W50218  28.971  18.876   2.103
81825W        W50219   9.328  12.323  13.631
81826W        W50220   4.579   4.914   2.382
81827W        W50221  38.869  41.546  13.804
81828W        W50222  10.929  40.834  14.572
81829W        W50223  14.195  41.882  14.896
81830W        W50224  36.426   0.432  10.742
81831W        W50225  24.401  29.987  12.572
81832W        W50226  37.381  28.661  10.759
81833W        W50227  19.108  33.997   3.161
81834W        W50228  30.969  24.803  13.538
81835W        W50229  21.604  13.650  12.315
81836W        W50230  34.714  10.828   0.896
81837W        W50231   6.992   9.716  13.428
81838W        W50232   5.353  34.522  13.308
81839W        W50233  35.945  37.433  11.731
81840W        W50234  39.439  43.993  14.651
81841W        W50235  37.901  20.232   1.001
81842W        W50236   5.289  16.731   1.560
81843W        W50237  31.377   6.925  10.814
81844W        W50238  31.965   7.321   3.177
81845W        W50239  26.518  33.247   2.841
81846W        W50240  14.537  11.662  13.764
81847W        W50241  27.542   0.317   3.298
81848W        W50242  10.205   2.202  14.341
81849W        W50243  25.452  38.868  13.409
81850W        W50244  32.320  27.392  11.163
81851W        W50245  24.163   8.975  11.013
81852W        W50246   4.072  13.004   4.752
81853W        W50247  35.460  14.171   4.600
81854W        W50248  40.371  10.926   0.379
81855W        W50249  19.129  40.786  12.493
81856W        W50250  34.621   7.587   1.690
81857W        W50251  29.572  28.081   0.776
81858W        W50252  27.493   7.160   3.357
81859W        W50253  33.430  44.312  12.476
81860W        W50254   2.567  16.459  10.669
81861W        W50255   1.022  33.878   0.010
81862W        W50256  11.052   3.784   3.776
81863W        W50257  43.493   4.770  11.321
81864W        W50258  37.988   4.430   1.360
81865W        W50259   2.687  43.904   1.821
81866W        W50260  18.618  16.595  14.426
81867W        W50261  15.132   8.390   3.607
81868W        W50262  32.605  21.681   2.509
81869W        W50263  17.213  16.549  11.566
81870W        W50264   2.386   4.972   1.754
81871W        W50265  32.389   3.979  11.177
81872W        W50266  29.259  28.438   4.528
81873W        W50267  41.027  21.627   0.453
81874W        W50268   4.466  42.378  10.755
81875W        W50269  43.344  17.719  12.047
81876W        W50270   3.335  42.546   3.714
81877W        W50271  39.076  14.564  12.400
81878W        W50272  23.342   6.940   3.663
81879W        W50273  10.868  20.518   3.801
81880W        W50274  35.091  24.545  10.641
81881W        W50275  25.630  12.297  10.387
81882W        W50276  42.966  16.575  11.713
81883W        W50277   3.110  16.493  14.940
81884W        W50278  34.611  36.491   1.204
81885W        W50279  31.370  19.138   0.412
81886W        W50280   0.964  13.120  10.141
81887W        W50281  37.054   5.897   1.677
81888W        W50282   0.970   3.468   4.465
81889W        W50283   7.692  43.081  13.150
81890W        W50284   7.119  19.514   1.273
81891W        W50285  22.633   0.995  11.699
81892W        W50286  38.275  25.151   3.214
81893W        W50287  24.597  12.958   2.011
81894W        W50288  16.912  20.297   2.345
81895W        W50289  29.557   8.392  13.502
81896W        W50290  22.055  19.611  12.419
81897W        W50291  20.753  17.431   4.144
81898W        W50292  33.448  34.492  12.340
81899W        W50293  18.172  16.302  11.324
81900W        W50294  39.001  37.250   2.264
81901W        W50295  19.753  44.545   0.501
81902W        W50296   8.615  14.724   1.617
81903W        W50297  24.259  39.002   0.427
81904W        W50298  37.884  31.976   3.583
81905W        W50299  19.458  11.637  11.249
81906W        W50300   5.898  44.484  13.836
81907W        W50301  22.575  42.810  14.242
81908W        W50302  44.962  37.717  12.986
81909W        W50303  23.637   3.023  10.586
81910W        W50304  30.716  40.528  12.083
81911W        W50305  29.121   0.379  14.778
81912W        W50306  18.984  25.966   2.116
81913W        W50307  12.394  11.645  11.645
81914W        W50308  23.573  36.075  12.000
81915W        W50309  29.535  16.355  14.395
81916W        W50310  22.628  18.819  13.407
81917W        W50311  21.870  20.005  13.468
81918W        W50312  26.412   3.417   3.708
81919W        W50313   0.352  27.611  12.888
81920W        W50314  14.601  25.634   0.575
81921W        W50315  31.686   1.636  13.517
81922W        W50316  26.691   6.398   3.042
81923W        W50317  14.191  24.789  12.562
81924W        W50318  12.211  37.101  11.085
81925W        W50319  44.354  38.983   3.190
81926W        W50320  12.065  28.965  11.173
81927W        W50321  19.543  22.310   0.767
81928W        W50322  16.037   4.823   1.768
81929W        W50323  35.977   7.757   3.661
81930W        W50324  26.032   9.914  12.571
81931W        W50325   2.750   0.834  11.651
81932W        W50326  17.549  22.464   0.976
81933W        W50327  18.005  25.198  11.787
81934W        W50328  35.231  34.383  11.279
81935W        W50329  14.604  16.790   4.241
81936W        W50330  16.338  27.133  12.383
81937W        W50331  21.696  14.363   0.525
81938W        W50332  28.162  10.259   3.656
81939W        W50333  23.158   7.001  13.905
81940W        W50334  38.834  16.115  13.571
81941W        W50335  30.543  28.906   3.558
81942W        W50336  39.059  26.491   0.225
81943W        W50337  16.043  15.642  11.482
81944W        W50338  25.826  30.807   3.225
81945W        W50339  41.723   0.171   1.824
81946W        W50340   6.452  11.325   4.203
81947W        W50341  38.872  12.402   0.798
81948W        W50342  25.204   1.511   1.909
81949W        W50343  35.179   8.128   3.612
81950W        W50344  21.525  19.077  10.523
81951W        W50345  39.474  40.328   1.186
81952W        W50346  10.209  40.083   3.805
81953W        W50347   1.927   4.945  10.701
81954W        W50348   6.255  24.279  14.453
81955W        W50349  19.042  39.987   0.942
81956W        W50350  23.388   7.787   2.619
81957W        W50351  10.117  10.323   9.996
81958W        W50352   5.777  25.983  14.805
81959W        W50353  10.251  33.446   3.596
81960W        W50354   1.036   6.863  10.517
81961W        W50355   9.987  28.763   1.031
81962W        W50356  24.675  22.524   2.708
81963W        W50357  21.054  43.019   1.622
81964W        W50358  30.616  20.705   2.944
81965W        W50359  33.645   7.873   0.834
81966W        W50360  34.741  31.425   2.394
81967W        W50361  31.699  18.197   1.945
81968W        W50362  31.836  10.807  14.423
81969W        W50363   2.521  21.990  11.142
81970W        W50364  29.587  12.336   0.637
81971W        W50365  39.909  16.109  12.049
81972W        W50366   0.468  21.485  13.925
81973W        W50367  39.905  35.803   3.777
81974W        W50368  33.406   8.311  13.123
81975W        W50369  35.142  30.956   4.820
81976W        W50370   1.370   2.229   2.173
81977W        W50371  21.011  17.216  10.639
81978W        W50372  20.032  19.963   2.746
81979W        W50373  22.605  40.934  14.433
81980W        W50374  35.860   6.734   0.031
81981W        W50375  13.505  18.284   0.129
81982W        W50376  12.429   1.763   4.556
81983W        W50377  20.053   1.908  10.578
81984W        W50378   2.333  10.895   4.638
81985W        W50379  26.689  38.301   4.085
81986W        W50380  27.080   2.015   2.243
81987W        W50381  20.139  41.072  14.369
81988W        W50382   4.738  36.003   2.655
81989W        W50383   8.551  42.203  14.767
81990W        W50384   8.960  28.443  14.237
81991W        W50385   7.345   0.775   4.199
81992W        W50386  43.055  30.964  12.903
81993W        W50387  34.016  35.781  14.060
81994W        W50388  35.890  24.751   0.439
81995W        W50389  33.397  10.796  14.273
81996W        W50390  29.124  37.936  10.473
81997W        W50391   4.621   9.429  10.397
81998W        W50392  18.103  33.363   0.354
81999W        W50393  12.545  26.006  12.854
82000W        W50394   1.940   1.361   2.391
82001W        W50395   8.593  28.740   2.771
82002W        W50396  20.296  32.653  14.941
82003W        W50397   7.728  23.559  14.861
82004W        W50398  35.616   5.889  13.857
82005W        W50399  35.406  29.408  11.610
82006W        W50400  39.928  28.272   2.643
82007W        W50401  27.707  34.070   2.799
82008W        W50402   3.316  22.916  14.900
82009W        W50403  30.531  14.081  11.637
82010W        W50404  16.837  42.932  12.899
82011W        W50405  43.866  22.201  14.345
82012W        W50406  39.816  43.078  12.573
82013W        W50407  20.547  43.595   3.336
82014W        W50408  21.772  13.713  13.422
82015W        W50409  32.442   6.440  12.067
82016W        W50410  17.231  31.412   0.898
82017W        W50411  16.196  35.869  14.759
82018W        W50412   9.191  26.116  11.060
82019W        W50413   9.298  26.404   4.181
82020W        W50414  19.612   4.845  12.842
82021W        W50415  29.831  12.852  11.572
82022W        W50416  23.908  20.903   0.286
82023W        W50417  11.090  36.402   0.376
82024W        W50418  28.120   2.796   0.913
82025W        W50419  28.901  29.555  12.470
82026W        W50420  21.762  13.844   3.088
82027W        W50421  38.365  38.557   4.440
82028W        W50422   2.053  17.863   2.118
82029W        W50423   3.802  12.126  13.769
82030W        W50424  19.474  36.609  11.186
82031W        W50425  32.134  40.558   2.800
82032W        W50426   6.911  33.405   0.792
82033W        W50427  23.541  32.440   3.670
82034W        W50428   0.719  23.498  12.990
82035W        W50429  26.001  15.859  11.901
82036W        W50430  28.665  23.546  13.366
82037W        W50431  23.241  40.766   0.598
82038W        W50432  18.795  15.596   5.397
82039W        W50433  14.788  29.547   0.721
82040W        W50434  31.642  18.646   2.193
82041W        W50435   3.968   9.380  14.386
82042W        W50436  20.110  36.380  11.711
82043W        W50437  13.567  23.502  14.337
82044W        W50438  33.247  20.190   0.354
82045W        W50439  20.456  10.116  14.829
82046W        W50440  41.250   2.207  11.575
82047W        W50441  34.942  32.089   3.872
82048W        W50442  42.693   0.046  14.468
82049W        W50443   7.365  11.875   3.089
82050W        W50444  10.670  37.113   3.825
82051W        W50445  10.642  10.108  14.048
82052W        W50446   4.740   9.921  11.530
82053W        W50447  22.294  18.184   4.097
82054W        W50448  41.776  20.273  12.581
82055W        W50449  29.778   8.590  11.571
82056W        W50450  22.137   8.975   1.206
82057W        W50451   0.000  25.271  14.063
82058W        W50452  13.268  20.273  13.514
82059W        W50453  35.107  42.482   2.561
82060W        W50454  15.368  32.478  13.896
82061W        W50455   8.592  14.672   0.953
82062W        W50456  39.755   9.537  11.243
82063W        W50457  28.448  35.081   3.247
82064W        W50458  38.952  13.747   3.316
82065W        W50459  44.170  26.631  12.087
82066W        W50460  42.405   1.680  12.425
82067W        W50461  16.365  20.230   4.825
82068W        W50462  12.137  21.235   2.941
82069W        W50463  41.854  25.198  12.518
82070W        W50464   8.646  21.190  12.083
82071W        W50465  21.754  28.562   0.060
82072W        W50466   1.996  38.404  11.732
82073W        W50467  34.065   7.793  13.515
82074W        W50468  30.901  21.669   4.835
82075W        W50469  27.158  42.351   0.858
82076W        W50470  38.484   2.979  10.580
82077W        W50471  16.836   9.469   3.278
82078W        W50472   9.408   2.703   5.072
82079W        W50473  26.415  32.157  10.255
82080W        W50474  30.671  18.728   0.030
82081W        W50475  14.100   5.581   2.838
82082W        W50476  44.999  31.125   2.061
82083W        W50477   2.953  22.124   2.373
82084W        W50478  31.384  33.730  10.837
82085W        W50479  25.001  29.412  14.485
82086W        W50480  14.556  23.987   5.012
82087W        W50481  28.347  30.472  12.379
82088W        W50482  26.232  41.451   4.562
82089W        W50483  26.098  14.992   1.976
82090W        W50484  10.863  26.238   1.195
82091W        W50485  11.771  15.581  10.641
82092W        W50486   6.429  13.862  12.959
82093W        W50487   1.698  16.268   4.595
82094W        W50488  21.503  19.902  11.534
82095W        W50489   0.727  28.310  11.153
82096W        W50490  31.592  42.090   3.141
82097W        W50491  14.709  36.758   2.611
82098W        W50492   8.779  16.718  14.682
82099W        W50493  21.662  25.206   3.301
82100W        W50494   0.365  18.199  10.720
82101W        W50495  13.334  17.075  12.547
82102W        W50496  32.211  28.058   4.121
82103W        W50497   8.629   2.955  13.066
82104W        W50498   7.654  12.793   4.031
82105W        W50499  12.382  17.147   1.778
82106W        W50500  14.941  31.253   1.341
82107W        W50501  15.161  34.828  10.908
82108W        W50502  17.251  16.605   2.789
82109W        W50503  42.496  23.930  12.610
82110W        W50504  17.618  31.636  11.085
82111W        W50505  23.755   1.519   4.159
82112W        W50506   6.472  26.206  13.565
82113W        W50507  39.287  33.033  11.666
82114W        W50508  17.485   1.563   0.323
82115W        W50509  24.273  16.270  13.423
82116W        W50510  27.836  22.257   0.763
82117W        W50511  39.903  41.560   1.327
82118W        W50512  24.217  31.863  10.039
82119W        W50513  28.035   3.800  13.077
82120W        W50514  34.500  36.018   1.512
82121W        W50515  15.471  26.582   3.639
82122W        W50516  11.634   5.266   2.621
82123W        W50517  28.456  41.742  12.977
82124W        W50518  40.873  38.400   1.629
82125W        W50519  14.722   3.240  14.272
82126W        W50520  27.510  29.614  14.404
82127W        W50521  34.195  36.100   2.393
82128W        W50522   0.617   0.389   0.760
82129W        W50523  18.241  38.705   1.356
82130W        W50524  37.631  19.602  14.240
82131W        W50525   2.841  13.187   3.808
82132W        W50526  35.650  22.654   0.310
82133W        W50527  18.075  27.547   1.174
82134W        W50528  11.751  22.176  11.611
82135W        W50529  42.498  17.826   1.247
82136W        W50530  17.755  22.057  12.840
82137W        W50531  36.678  36.965  14.896
82138W        W50532   4.006  36.820  14.444
82139W        W50533  29.081  29.181  10.856
82140W        W50534  36.155  22.221  12.368
82141W        W50535  22.972  11.839   1.842
82142W        W50536   2.894  18.166  10.887
82143W        W50537  24.731   3.828   3.270
82144W        W50538  40.403  16.774   0.740
82145W        W50539   2.230  21.827  12.525
82146W        W50540  18.598  38.604  14.709
82147W        W50541  27.668   9.631   4.650
82148W        W50542   4.790  38.588  14.810
82149W        W50543  28.606  40.595   3.250
82150W        W50544  28.946  20.538  12.533
82151W        W50545  34.817  21.161   4.166
82152W        W50546  40.096  27.131   3.323
82153W        W50547  14.986  31.558  10.810
82154W        W50548  40.406  14.165   3.516
82155W        W50549  37.853  10.428  11.571
82156W        W50550   6.341  20.300   4.415
82157W        W50551   3.303  13.876  12.057
82158W        W50552  40.881  11.856   1.476
82159W        W50553  37.329  25.474  10.516
82160W        W50554  31.873  32.089   2.705
82161W        W50555   7.272  40.994  14.905
82162W        W50556  29.992  10.810  13.114
82163W        W50557   3.275  12.918   3.703
82164W        W50558   5.299  11.610  10.619
82165W        W50559  15.065  16.556  11.949
82166W        W50560  15.101  16.804  14.406
82167W        W50561   7.261  23.524   0.860
82168W        W50562  40.503  35.735  14.027
82169W        W50563  20.235  29.744  11.813
82170W        W50564  18.238  33.267  14.845
82171W        W50565   4.425  25.566  13.875
82172W        W50566  16.862  32.152   4.592
82173W        W50567  22.588   8.167  13.942
82174W        W50568  19.095  41.948  12.055
82175W        W50569  40.639  20.643  10.719
82176W        W50570  18.196  25.461   4.184
82177W        W50571  36.376   6.892   1.595
82178W        W50572   9.664   3.383  12.491
82179W        W50573  14.894   0.865  14.334
82180W        W50574  10.783  13.320   0.311
82181W        W50575  33.620  25.202   4.186
82182W        W50576  16.317  32.998   4.387
82183W        W50577  35.181   5.171   3.736
82184W        W50578  18.164  23.965  12.898
82185W        W50579  35.085   5.369   2.182
82186W        W50580  42.836  28.706  10.574
82187W        W50581  16.550  15.627  13.391
82188W        W50582  21.042  16.828   4.969
82189W        W50583  18.052   1.799  13.817
82190W        W50584   6.661   8.683   2.626
82191W        W50585   7.639  39.440  12.918
82192W        W50586   6.239   5.404   3.660
82193W        W50587  35.758   1.153  11.176
82194W        W50588  13.066  39.696   2.148
82195W        W50589   0.313   6.958  13.359
82196W        W50590  16.196  36.967   2.340
82197W        W50591  33.392  36.507   4.724
82198W        W50592  38.994   3.820   2.174
82199W        W50593   2.266  21.588  10.950
82200W        W50594  34.599  32.313  11.179
82201W        W50595  24.811  19.732   3.257
82202W        W50596  38.536   7.871   3.757
82203W        W50597  31.109  19.215   0.877
82204W        W50598   7.993  35.109   3.245
82205W        W50599  15.224  28.998   4.589
82206W        W50600  38.798  36.570  14.725
82207W        W50601   7.337  30.408   1.247
82208W        W50602  35.151   1.757   0.401
82209W        W50603  30.161   4.715  11.995
82210W        W50604  41.826  13.635   1.785
82211W        W50605  31.638  43.260   2.562
82212W        W50606  13.755   7.340   0.622
82213W        W50607  32.570  36.892   2.233
82214W        W50608  16.602  39.801   2.454
82215W        W50609  14.069  32.256   1.261
82216W        W50610  19.306  16.599   2.770
82217W        W50611   4.425  42.076  11.228
82218W        W50612  14.790  13.615  11.219
82219W        W50613  39.800  31.568  12.540
82220W        W50614  39.238  30.576  14.511
82221W        W50615  30.329  36.679  12.021
82222W        W50616  12.314  38.231   3.855
82223W        W50617  18.280  11.742  11.788
82224W        W50618  17.250   6.990   1.440
82225W        W50619   5.472  12.854   0.306
82226W        W50620  13.819  26.263  14.970
82227W        W50621  43.948  24.227   1.356
82228W        W50622  41.306  12.738   1.918
82229W        W50623   9.244   3.328   0.997
82230W        W50624   1.681   2.225  11.015
82231W        W50625  40.939  31.079  11.138
82232W        W50626  21.641  18.284   2.769
82233W        W50627  26.690  28.655   0.304
82234W        W50628  13.199  11.647   3.931
82235W        W50629  18.208  34.115   4.768
82236W        W50630  16.628  37.016   0.902
82237W        W50631  26.866  29.881  12.349
82238W        W50632  12.622  27.178  13.505
82239W        W50633  25.695  13.267  14.384
82240W        W50634  44.698   7.959  11.669
82241W        W50635  24.587  43.512  12.550
82242W        W50636   6.956   2.803   4.911
82243W        W50637  13.343   3.798  14.936
82244W        W50638  43.525  36.926   3.147
82245W        W50639   4.828  13.360  14.927
82246W        W50640  32.672  24.982   4.900
82247W        W50641   8.795   4.966   1.360
82248W        W50642  40.137  24.972  12.009
82249W        W50643   5.111   0.766  13.888
82250W        W50644  15.385  32.076   4.807
82251W        W50645  23.961  43.996  14.911
82252W        W50646  44.459  25.452  12.463
82253W        W50647  10.448   7.122  14.490
82254W        W50648   2.130   4.001   4.144
82255W        W50649  31.622  24.768   2.275
82256W        W50650   0.708  29.006  10.868
82257W        W50651   5.781  33.835  11.180
82258W        W50652  34.041  43.001   0.277
82259W        W50653  31.541  29.532  11.615
82260W        W50654  19.630  19.597  13.346
82261W        W50655  25.706  14.103  13.879
82262W        W50656  41.583   4.701  11.028
82263W        W50657  27.417  34.257  12.370
82264W        W50658  28.829  40.940   3.939
82265W        W50659  38.102  27.931  12.356
82266W        W50660  43.824  25.799   4.504
82267W        W50661  26.601  16.652  11.951
82268W        W50662  37.144  25.677  11.643
82269W        W50663  39.026  44.910  14.338
82270W        W50664  35.043  25.611   1.496
82271W        W50665  25.985  19.746  12.477
82272W        W50666  32.849  40.457   0.399
82273W        W50667  35.020   1.634   0.894
82274W        W50668  39.308  41.093   1.833
82275W        W50669  37.367  10.422   1.231
82276W        W50670  31.906  32.858   0.788
82277W        W50671  16.315  30.383  13.849
82278W        W50672  15.297  24.642  12.070
82279W        W50673   5.623  34.573   3.693
82280W        W50674  31.962  43.036   1.932
82281W        W50675  17.657   7.142  11.226
82282W        W50676  20.683  25.647   2.840
82283W        W50677  26.992  23.476   4.538
82284W        W50678  35.837  30.460  11.238
82285W        W50679  34.337  16.357   1.848
82286W        W50680  30.124  27.069  14.401
82287W        W50681   0.030  36.667   3.316
82288W        W50682   5.702  11.820   1.715
82289W        W50683  23.326  12.854   4.217
82290W        W50684   0.933  31.082   1.046
82291W        W50685   1.792  20.613  11.891
82292W        W50686  35.020  25.963   4.927
82293W        W50687  36.135   3.856  12.959
82294W        W50688  31.339  39.106   1.564
82295W        W50689   4.850  44.379  12.948
82296W        W50690  39.987   3.932  13.443
82297W        W50691  13.698  21.040   2.439
82298W        W50692  42.054  36.999   1.911
82299W        W50693  44.866  31.050   1.562
82300W        W50694  32.368   4.197  14.097
82301W        W50695  26.000  44.204   2.785
82302W        W50696  31.722  10.204   4.562
82303W        W50697   5.736  33.412  14.480
82304W        W50698  24.258  32.697   2.625
82305W        W50699   6.286  33.980   1.795
82306W        W50700  27.982   9.936  10.289
82307W        W50701  24.416   5.853   4.569
82308W        W50702   4.230  44.055   1.884
82309W        W50703  28.172  16.711  12.134
82310W        W50704   9.897  33.167   4.020
82311W        W50705  31.425   1.790   2.760
82312W        W50706   1.886  28.260   3.367
82313W        W50707   0.016  28.419   3.187
82314W        W50708   2.326  33.997   3.195
82315W        W50709  12.153  27.811   1.268
82316W        W50710  34.244  32.615  11.505
82317W        W50711  32.195  30.712  14.000
82318W        W50712  44.397  15.005  13.531
82319W        W50713  17.767  28.149   2.811
82320W        W50714  14.705  42.419   0.959
82321W        W50715   5.007  33.457   4.115
82322W        W50716  31.048  18.175  12.820
82323W        W50717  31.998  31.199  11.061
82324W        W50718  36.403   8.378   1.796
82325W        W50719   4.269  36.654  12.512
82326W        W50720  24.907  41.313   0.268
82327W        W50721   6.380  32.222   2.342
82328W        W50722   4.217  43.039  11.385
82329W        W50723   3.244  20.703  12.263
82330W        W50724  24.096  12.375   2.995
82331W        W50725  24.661  25.726  11.016
82332W        W50726  25.519  25.246   0.301
82333W        W50727  43.947  30.563  14.711
82334W        W50728   4.312  26.792   4.291
82335W        W50729  16.299  19.086  11.176
82336W        W50730  13.228  35.379   4.638
82337W        W50731  25.112  27.261  12.308
82338W        W50732  24.983   9.062  11.520
82339W        W50733  19.018   5.830   2.176
82340W        W50734  27.069  34.816  13.091
82341W        W50735  26.829   8.682  12.473
82342W        W50736  15.144  10.160   3.135
82343W        W50737  21.606  40.374   4.658
82344W        W50738   0.983  36.831   0.341
82345W        W50739  23.872   4.714   4.105
82346W        W50740  13.756  39.808  11.199
82347W        W50741  38.532   8.280  11.891
82348W        W50742  10.840  29.704   1.983
82349W        W50743  43.777  24.860   3.592
82350W        W50744  28.488  12.708   1.714
82351W        W50745  26.744  36.041   2.544
82352W        W50746  38.063  37.337  11.250
82353W        W50747  32.977  19.851   4.614
82354W        W50748  35.639   0.749  12.058
82355W        W50749  39.964  22.785  14.999
82356W        W50750   3.338  15.500   3.551
82357W        W50751  16.365  18.451  13.737
82358W        W50752  20.197  44.836   0.459
82359W        W50753  14.856  42.459  11.670
82360W        W50754  31.356   8.670  10.373
82361W        W50755   6.899  44.027   3.666
82362W        W50756  18.096  20.533  12.194
82363W        W50757  17.603  24.150   4.676
82364W        W50758  35.791  31.441   2.357
82365W        W50759  43.865  23.987   4.822
82366W        W50760  20.329  22.040   0.285
82367W        W50761  36.604  22.533   4.156
82368W        W50762  22.240   4.367  11.180
82369W        W50763  10.676  34.825   1.272
82370W        W50764   8.660  28.177  13.902
82371W        W50765  39.368  11.381   2.984
82372W        W50766  27.826  20.788  10.200
82373W        W50767  29.443   0.533   2.670
82374W        W50768  37.206  15.706   3.292
82375W        W50769  42.170   4.461  12.884
82376W        W50770  42.994  18.352   1.818
82377W        W50771  38.987  40.551   3.138
82378W        W50772  13.857  39.464   1.864
82379W        W50773  34.379  14.066  13.546
82380W        W50774  10.226  16.849   1.756
82381W        W50775   7.539  15.837  12.505
82382W        W50776  16.641  29.373   0.888
82383W        W50777  16.193   8.756   3.137
82384W        W50778   1.711  24.990   2.880
82385W        W50779   7.861   4.423   2.748
82386W        W50780  25.989  20.314   2.563
82387W        W50781   3.037  17.705  14.373
82388W        W50782  40.965   1.926   2.426
82389W        W50783   6.300  31.812   3.582
82390W        W50784  34.589  26.169  13.995
82391W        W50785  18.874  41.223  13.974
82392W        W50786   2.712  39.828  13.429
82393W        W50787  19.041   5.437   1.677
82394W        W50788  29.468   0.033   1.896
82395W        W50789  31.143  26.030   4.176
82396W        W50790  43.896  11.056   3.731
82397W        W50791  24.766  23.193  13.833
82398W        W50792  29.142  26.373  14.379
82399W        W50793  32.830  42.242  13.304
82400W        W50794  42.523  43.482  11.172
82401W        W50795  17.417  13.819   2.490
82402W        W50796  15.337   8.653  13.546
82403W        W50797   2.765  42.300  13.502
82404W        W50798  42.721  42.474   2.259
82405W        W50799  44.001  39.998  11.711
82406W        W50800  17.117  39.577  12.692
82407W        W50801  24.453  40.164  11.120
82408W        W50802  12.735  22.085  13.926
82409W        W50803  23.819  40.816   2.741
82410W        W50804  12.848  21.461  11.123
82411W        W50805  22.653   1.814   1.339
82412W        W50806  30.062  15.359   2.235
82413W        W50807  21.192  21.240   3.576
82414W        W50808   7.917  18.908  13.133
82415W        W50809  35.790  26.569  10.780
82416W        W50810  20.564   0.486   2.356
82417W        W50811  34.879  12.569   4.758
82418W        W50812  39.687   3.476   0.588
82419W        W50813  11.581  11.234  12.623
82420W        W50814   2.000  30.476   2.388
82421W        W50815  37.006  29.079   0.962
82422W        W50816  16.843  40.700  11.601
82423W        W50817  36.840  33.184  11.497
82424W        W50818   5.623  29.308  11.061
82425W        W50819  41.996  21.002   0.926
82426W        W50820   6.301  41.991  14.694
82427W        W50821  33.207   4.034  12.051
82428W        W50822  13.837  21.974  11.348
82429W        W50823   6.328  34.460   0.863
82430W        W50824  17.530  28.780   1.228
82431W        W50825  37.058   7.576   1.616
82432W        W50826  41.041  22.510   4.951
82433W        W50827  36.529  21.701   3.084
82434W        W50828  23.290  42.162   1.305
82435W        W50829   1.392  36.799   2.265
82436W        W50830  27.058  15.167  13.516
82437W        W50831  39.403  42.314   0.366
82438W        W50832  30.711  31.764   3.638
82439W        W50833  19.213  33.601   1.269
82440W        W50834  24.270  21.153  13.346
82441W        W50835  37.640  37.588  14.262
82442W        W50836   3.384  15.062   1.843
82443W        W50837   6.664  33.202   2.941
82444W        W50838  37.311  42.788  14.499
82445W        W50839  19.377   8.570   1.363
82446W        W50840  42.071  29.134  12.981
82447W        W50841  15.627  30.886   3.818
82448W        W50842   7.842  24.595   1.298
82449W        W50843  17.703  33.050   2.272
82450W        W50844  33.188  23.823  12.957
82451W        W50845   5.895  10.873   3.689
82452W        W50846   4.833  10.028   0.398
82453W        W50847  28.754  23.502  10.577
82454W        W50848  39.141  27.713   2.253
82455W        W50849   2.459  14.692  10.599
82456W        W50850  35.112  31.103  11.486
82457W        W50851  28.284   4.952   3.754
82458W        W50852  38.778  14.713   3.721
82459W        W50853   4.442  28.658   0.945
82460W        W50854  37.926  20.044  14.011
82461W        W50855   7.714  18.127  10.339
82462W        W50856   7.141  28.941   0.839
82463W        W50857  44.548  10.669  11.840
82464W        W50858  39.490  24.130   2.952
82465W        W50859  33.919  20.140  11.000
82466W        W50860  35.837  20.671  11.243
82467W        W50861  10.369  12.319   0.987
82468W        W50862  24.672   4.407  11.286
82469W        W50863   3.022  20.079  13.367
82470W        W50864  11.025   3.204   2.725
82471W        W50865   9.968   8.245  13.016
82472W        W50866   8.167  20.614  14.313
82473W        W50867  32.115  31.083   1.204
82474W        W50868  18.240  41.422   0.319
82475W        W50869  36.437  39.951   2.325
82476W        W50870  25.247  16.543   1.566
82477W        W50871   1.002  12.118   3.295
82478W        W50872   0.257   1.228  10.874
82479W        W50873  37.520  38.105  11.669
82480W        W50874   0.650  15.062  11.533
82481W        W50875  15.349  29.180   2.752
82482W        W50876   7.777  13.495   1.786
82483W        W50877  11.136  12.581   2.354
82484W        W50878  22.882   6.927  14.775
82485W        W50879  22.688  39.781   4.922
82486W        W50880   0.058  15.769   0.945
82487W        W50881  10.644   4.308  11.681
82488W        W50882  19.240   2.178   0.390
82489W        W50883   5.273  20.728  13.880
82490W        W50884   7.963  27.038  11.106
82491W        W50885   2.605  18.555   4.472
82492W        W50886  32.443  29.631  14.404
82493W        W50887  26.964  33.063   2.588
82494W        W50888  25.118  41.014   1.853
82495W        W50889  30.629   0.728   1.478
82496W        W50890  14.821  36.962  13.281
82497W        W50891  30.976  18.746  13.886
82498W        W50892  39.050   8.124   4.499
82499W        W50893  12.653  37.195  11.910
82500W        W50894  16.158  26.053   0.930
82501W        W50895  26.185  10.436  14.149
82502W        W50896  35.888  16.053   2.765
82503W        W50897  24.441  43.482  14.302
82504W        W50898  29.746  30.678  11.792
82505W        W50899  16.647  13.236  12.039
82506W        W50900   1.298  29.191   4.279
82507W        W50901  16.232  15.580   4.775
82508W        W50902  30.519  18.788  11.545
82509W        W50903  16.141  18.347   2.646
82510W        W50904  28.113  37.080  12.506
82511W        W50905  19.267  21.785   3.108
82512W        W50906   5.299  20.001   0.783
82513W        W50907  11.302  42.276  11.172
82514W        W50908  16.258  32.923   0.065
82515W        W50909   2.380  27.311  14.076
82516W        W50910   2.498   8.404  14.872
82517W        W50911  27.875  39.459  14.405
82518W        W50912  21.182  11.983   0.375
82519W        W50913  34.247  29.220  12.184
82520W        W50914  41.377  19.615   2.089
82521W        W50915  18.297  26.650   0.824
82522W        W50916  22.490  20.166   2.740
82523W        W50917  29.648  23.709  12.586
82524W        W50918  24.649  11.150  14.040
82525W        W50919  42.499  12.903   2.781
82526W        W50920  30.001  30.001  11.579
82527W        W50921  39.497  21.053   3.598
82528W        W50922  42.833  19.371  13.403
82529W        W50923  36.022   7.161  14.218
82530W        W50924  22.296  29.135   4.215
82531W        W50925  39.411  32.902   4.654
82532W        W50926   3.915  13.639  14.112
82533W        W50927   8.233  30.653   4.878
82534W        W50928  30.702   4.655   1.710
82535W        W50929   3.850   1.495   4.196
82536W        W50930  22.684  13.143  10.657
82537W        W50931   7.019  13.610  12.120
82538W        W50932  44.042   6.511   3.126
82539W        W50933  29.589  37.915  13.548
82540W        W50934   3.919  31.380   3.369
82541W        W50935  34.055   9.735   0.860
82542W        W50936  32.326  43.970   3.269
82543W        W50937  35.030  15.861  13.829
82544W        W50938  34.629   3.282  12.767
82545W        W50939  42.175   9.475  13.468
82546W        W50940  30.445  26.939   1.053
82547W        W50941  43.014  29.013  14.505
82548W        W50942   7.370  14.681   4.123
82549W        W50943   2.799  36.739   3.304
82550W        W50944  43.504   3.779   4.527
82551W        W50945  43.859   1.629   5.039
82552W        W50946  44.438   6.188   2.357
82553W        W50947  35.060   9.120  11.631
82554W        W50948  11.166  17.498   2.553
82555W        W50949  23.216  23.114   1.931
82556W        W50950  36.972   8.582   2.153
82557W        W50951   7.293  23.244   3.847
82558W        W50952  21.897  16.716   0.998
82559W        W50953  13.566  30.209  13.973
82560W        W50954  25.648  35.930   0.287
82561W        W50955  19.884   0.800  11.124
82562W        W50956  16.583  25.067   2.237
82563W        W50957  36.980   3.317  11.963
82564W        W50958  39.641   1.770   2.459
82565W        W50959  30.323  16.538   2.886
82566W        W50960  11.750  37.111  11.845
82567W        W50961   7.078   5.427   0.081
82568W        W50962   3.890  18.677  13.453
82569W        W50963  23.571  20.061  10.943
82570W        W50964  33.393  44.943   3.697
82571W        W50965  28.235  44.994  12.446
82572W        W50966  37.415   7.840   4.657
82573W        W50967   3.714  43.722  10.990
82574W        W50968   2.179  19.550  12.401
82575W        W50969  11.597  44.040  14.075
82576W        W50970  44.467   5.491  10.987
82577W        W50971  35.883  43.803   1.975
82578W        W50972  22.544  15.624  14.482
82579W        W50973  15.833  26.634  10.656
82580W        W50974  29.485  31.321   1.178
82581W        W50975  42.042   0.360  11.167
82582W        W50976   5.120  13.368  11.573
82583W        W50977  31.101  23.515   2.271
82584W        W50978  16.019  12.192  14.379
82585W        W50979  12.147  31.321  11.137
82586W        W50980  20.300  14.147  10.532
82587W        W50981  16.181   5.704   1.713
82588W        W50982  39.501  39.270   2.696
82589W        W50983  16.457  21.719   0.446
82590W        W50984  17.800   4.389  12.905
82591W        W50985  42.575  36.053   0.515
82592W        W50986  40.719  22.900   5.116
82593W        W50987  29.416  23.682   0.470
82594W        W50988  15.501  43.315  13.323
82595W        W50989   2.810  42.829  11.665
82596W        W50990  15.312  29.918  10.882
82597W        W50991  35.136  15.517   3.133
82598W        W50992  13.372  23.820  11.429
82599W        W50993   3.556  30.851  12.183
82600W        W50994  22.402  24.031   3.385
82601W        W50995  14.933  17.355  10.387
82602W        W50996   2.898   4.803  14.916
82603W        W50997   4.262  10.086   1.715
82604W        W50998   1.812   4.997   4.373
82605W        W50999  17.567  18.881  11.715
82606W        W51000  14.843  44.733  12.995
82607W        W51001   6.705  29.680   4.797
82608W        W51002  25.850  19.215   1.788
82609W        W51003   8.057  19.307   5.031
82610W        W51004   3.489  27.855   3.974
82611W        W51005  13.675  19.357   4.231
82612W        W51006  15.810  31.382  11.658
82613W        W51007  41.541  34.901   3.350
82614W        W51008   3.896  30.566  12.611
82615W        W51009   1.701   9.941   3.129
82616W        W51010  17.769  26.112   3.609
82617W        W51011  22.600  10.756  11.998
82618W        W51012  32.077  32.319   1.834
82619W        W51013   9.218  27.122   3.081
82620W        W51014   1.920   4.931   1.032
82621W        W51015   2.825  27.487   0.860
82622W        W51016  19.301   1.722  11.423
82623W        W51017  37.748  39.008  10.779
82624W        W51018  25.688  23.191  13.060
82625W        W51019  32.574   0.506   4.593
82626W        W51020  24.754  19.767  14.819
82627W        W51021  44.510  31.507   2.751
82628W        W51022   7.012  20.691  11.876
82629W        W51023  22.497   5.294  12.971
82630W        W51024  42.862  11.293  12.615
82631W        W51025  27.227  11.114  12.038
82632W        W51026  16.050  27.240   4.140
82633W        W51027  37.287  26.421  14.489
82634W        W51028  39.966  12.666   3.225
82635W        W51029   5.904  17.157  11.212
82636W        W51030  31.979   1.553   4.715
82637W        W51031  16.261  29.212   0.330
82638W        W51032  22.015  19.753   1.311
82639W        W51033  43.261  32.015  13.635
82640W        W51034  28.183   9.510   3.914
82641W        W51035  37.059  24.739  12.533
82642W        W51036  11.881  10.158  14.615
82643W        W51037  23.822  21.780   4.566
82644W        W51038  29.292   4.290   3.291
82645W        W51039   3.487  29.226   2.136
82646W        W51040  34.668  17.018  14.364
82647W        W51041  40.360  20.559   3.675
82648W        W51042   9.318  23.032  14.587
82649W        W51043  29.893  25.133  11.124
82650W        W51044   4.882  32.675  11.572
82651W        W51045  19.181  29.665   4.507
82652W        W51046  16.839   3.970   3.146
82653W        W51047  30.379  36.085  10.928
82654W        W51048  27.176  15.245   1.804
82655W        W51049   6.369  18.773   4.524
82656W        W51050  22.981   9.638   4.179
82657W        W51051  44.454  37.506   4.182
82658W        W51052  31.621  39.037  14.878
82659W        W51053  34.831  18.822   0.927
82660W        W51054  23.716  26.615  14.520
82661W        W51055   2.829  11.764  10.401
82662W        W51056  42.610  32.005  10.715
82663W        W51057   4.254  41.871  11.686
82664W        W51058  18.340  29.913  12.848
82665W        W51059  22.173  29.396  10.752
82666W        W51060  28.150  24.565  11.006
82667W        W51061  21.012  26.541  11.662
82668W        W51062  10.482  40.967  10.652
82669W        W51063   6.912   8.255  11.031
82670W        W51064   7.328  13.510  11.069
82671W        W51065  39.772  16.174   0.775
82672W        W51066  21.506  17.812  11.173
82673W        W51067  34.946  23.891   4.382
82674W        W51068  16.323   7.309  11.793
82675W        W51069   7.700   4.953   0.136
82676W        W51070   9.142   3.829   3.838
82677W        W51071  43.921  16.769  14.546
82678W        W51072  31.420   8.151  14.549
82679W        W51073  26.800  15.850  10.902
82680W        W51074  17.142  43.626   3.704
82681W        W51075   6.642  19.010   4.144
82682W        W51076  43.981  18.166  10.411
82683W        W51077   3.710  19.234   3.184
82684W        W51078  12.596  32.458  12.557
82685W        W51079  26.162  12.188  11.813
82686W        W51080  36.738  43.876   2.237
82687W        W51081   1.082  29.927  14.393
82688W        W51082  39.262  24.615   0.360
82689W        W51083  32.202  31.117  12.584
82690W        W51084  12.417  36.632  11.155
82691W        W51085  19.840  38.109  11.065
82692W        W51086  23.176  16.206   3.037
82693W        W51087  36.059  12.267   2.764
82694W        W51088  29.650  10.381   4.571
82695W        W51089  28.166  21.284  11.923
82696W        W51090   9.563  12.285  11.835
82697W        W51091  11.058  26.713  14.220
82698W        W51092  39.933  10.411   0.006
82699W        W51093  23.458  26.452  12.555
82700W        W51094   3.903   5.703   3.638
82701W        W51095  17.079  22.143   4.413
82702W        W51096  40.389  28.571   0.272
82703W        W51097  22.629  15.513   4.579
82704W        W51098  14.781  17.579   1.371
82705W        W51099  19.191   0.036  11.000
82706W        W51100   6.885  10.150  12.482
82707W        W51101   7.258   5.855   1.899
82708W        W51102  39.668  13.755   3.778
82709W        W51103   3.498  35.834  14.882
82710W        W51104   2.933  25.663  12.458
82711W        W51105  19.975   6.335   3.767
82712W        W51106   0.964   2.869   1.661
82713W        W51107   3.201  44.948  11.111
82714W        W51108  35.129  14.686  12.007
82715W        W51109  35.986  17.594   1.704
82716W        W51110  18.327  37.033   2.074
82717W        W51111  38.289  19.356   1.816
82718W        W51112  22.477  38.851   1.280
82719W        W51113  31.898  11.190   4.525
82720W        W51114  36.066  41.518  11.187
82721W        W51115   5.638  37.430   3.816
82722W        W51116  23.117  43.803   3.427
82723W        W51117  27.859  30.204   2.196
82724W        W51118  10.720  38.831   1.474
82725W        W51119  42.704  10.363   4.168
82726W        W51120  39.999  16.475   2.028
82727W        W51121  36.168   2.446  13.550
82728W        W51122   0.738   7.902  14.092
82729W        W51123  27.465  19.619  12.596
82730W        W51124   2.538  19.202  12.584
82731W        W51125  43.585  35.019  11.158
82732W        W51126  18.096  28.810  12.849
82733W        W51127  30.796  14.759   3.607
82734W        W51128  39.553  23.172  12.675
82735W        W51129   4.957  37.609   1.628
82736W        W51130  36.632  12.845   1.484
82737W        W51131  44.382  24.528  11.489
82738W        W51132  11.559  31.385   4.126
82739W        W51133   6.239  36.938   1.798
82740W        W51134  42.783  13.924   2.838
82741W        W51135  11.338  40.243  13.032
82742W        W51136   0.818  21.028  11.329
82743W        W51137   7.432  27.041  10.294
82744W        W51138  27.608   2.879   3.781
82745W        W51139  38.300  28.178   2.382
82746W        W51140   6.449  22.127   0.050
82747W        W51141  10.637   8.898  11.367
82748W        W51142   7.791  22.918   1.198
82749W        W51143  36.259   1.019  11.252
82750W        W51144   1.996  29.570   2.750
82751W        W51145  33.936  27.876  13.749
82752W        W51146  37.621  10.545  12.928
82753W        W51147  10.312  38.437   2.844
82754W        W51148  11.243  22.568  14.978
82755W        W51149  44.796  44.955   0.918
82756W        W51150  41.619  12.988  12.948
82757W        W51151  25.604  31.930   4.298
82758W        W51152   8.928  37.923   0.495
82759W        W51153   8.180  12.407   3.232
82760W        W51154  11.891  14.290  13.572
82761W        W51155   8.275  28.522   3.583
82762W        W51156  16.039  26.241  12.643
82763W        W51157   3.772   8.612   3.797
82764W        W51158  31.400  15.813  10.744
82765W        W51159   2.855   5.395  13.813
82766W        W51160  23.631  42.986   3.083
82767W        W51161  25.263  29.670  14.887
82768W        W51162   1.893  11.135  13.023
82769W        W51163  30.439  23.592   1.764
82770W        W51164  21.227  42.807  12.563
82771W        W51165   7.761  26.035  13.111
82772W        W51166  35.968   2.781   1.359
82773W        W51167  25.705   2.274  13.468
82774W        W51168  40.950  11.924  12.574
82775W        W51169   6.373  26.614   4.336
82776W        W51170   2.790  27.532  11.424
82777W        W51171   2.401  15.368   3.187
82778W        W51172   2.097  40.766  12.661
82779W        W51173  42.770  21.672   4.574
82780W        W51174  21.626  24.507   1.442
82781W        W51175  11.914   9.713  11.537
82782W        W51176  10.174  18.736   3.692
82783W        W51177  41.566  17.151  15.000
82784W        W51178   9.217  13.452  11.617
82785W        W51179  28.607  37.584   3.588
82786W        W51180  34.814  32.026  10.483
82787W        W51181  44.054  20.129   4.142
82788W        W51182   4.881  30.818  12.574
82789W        W51183  34.568  27.792   0.751
82790W        W51184  14.003  10.675  11.420
82791W        W51185  30.540  33.312   1.319
82792W        W51186  25.073  33.977  10.712
82793W        W51187  44.312   3.744   0.300
82794W        W51188  21.985   5.899  14.723
82795W        W51189  13.251   6.825  12.532
82796W        W51190  10.823  41.256  14.811
82797W        W51191  15.880  33.199  14.824
82798W        W51192  44.981  14.855   4.254
82799W        W51193  22.215  34.157  12.560
82800W        W51194  25.679  26.791   1.284
82801W        W51195   7.443  18.866  11.924
82802W        W51196   5.415  32.373   2.037
82803W        W51197  20.646   0.351  13.805
82804W        W51198  10.174   4.685  11.519
82805W        W51199  43.571  37.380  13.373
82806W        W51200   1.227  40.384   4.089
82807W        W51201   4.233  37.319  14.949
82808W        W51202  37.020   8.369   4.171
82809W        W51203  10.720  25.944  10.900
82810W        W51204  29.441  10.842   4.577
82811W        W51205   9.212  30.530   4.117
82812W        W51206  29.624  36.526  13.817
82813W        W51207  43.338   3.821  12.792
82814W        W51208   8.907  29.719   4.168
82815W        W51209  16.644   4.144   0.894
82816W        W51210  17.292  26.114   4.813
82817W        W51211  34.770   4.219  10.719
82818W        W51212  19.605  25.109   4.068
82819W        W51213  12.332  26.109   1.327
82820W        W51214  14.222  33.016  12.052
82821W        W51215   6.447  18.551  14.929
82822W        W51216  26.630  39.950   9.969
82823W        W51217   8.392   2.866   5.007
82824W        W51218  13.200  29.495   1.451
82825W        W51219  39.534  17.263   3.757
82826W        W51220  27.885  31.197  14.355
82827W        W51221  18.862   1.287   1.692
82828W        W51222  36.440  20.802   3.139
82829W        W51223  37.795  23.620   4.435
82830W        W51224  42.858  31.526  11.241
82831W        W51225  38.365  27.713  11.609
82832W        W51226   1.913  36.473   3.039
82833W        W51227  40.627  36.406  14.380
82834W        W51228   7.947  41.832   0.775
82835W        W51229  32.367  33.599   4.114
82836W        W51230  36.848  14.666   0.318
82837W        W51231  26.375   7.397   9.959
82838W        W51232  37.534  34.423  11.345
82839W        W51233  30.391  24.261   3.381
82840W        W51234  10.637  11.348  12.511
82841W        W51235  30.565  44.406   0.552
82842W        W51236  33.679  22.761  11.149
82843W        W51237   8.255  13.122  10.642
82844W        W51238  19.996  35.015  10.914
82845W        W51239  26.958  27.572  12.550
82846W        W51240  31.143  30.570  10.782
82847W        W51241  43.433  26.707  11.573
82848W        W51242  11.173  39.930   4.044
82849W        W51243  25.102   4.002   1.720
82850W        W51244   4.729   4.979   3.217
82851W        W51245  44.974  18.117   2.943
82852W        W51246  16.097  23.288  12.415
82853W        W51247  15.131  25.473  11.135
82854W        W51248   3.391  31.115   2.781
82855W        W51249  18.285  29.116  13.536
82856W        W51250   2.958   8.201  11.979
82857W        W51251   2.861   4.345  11.408
82858W        W51252   5.781   1.993   2.428
82859W        W51253  31.643  31.990   1.779
82860W        W51254  31.069  23.695  13.514
82861W        W51255   8.800  22.158  13.608
82862W        W51256  40.185  14.660  13.616
82863W        W51257  14.562  31.893  12.895
82864W        W51258  23.112  36.034   2.707
82865W        W51259   6.191  35.101  14.194
82866W        W51260  22.615  44.499  14.508
82867W        W51261   6.819   1.475   2.241
82868W        W51262   7.430  31.997   2.857
82869W        W51263   2.475  35.622   2.740
82870W        W51264  40.292  22.665  11.116
82871W        W51265  29.587  11.273   2.376
82872W        W51266  36.536  12.783  11.589
82873W        W51267  34.105  36.862   1.875
82874W        W51268   0.319   9.607  14.526
82875W        W51269  28.326   1.576  11.236
82876W        W51270  28.592   7.362   3.978
82877W        W51271  16.174  31.498  10.978
82878W        W51272  31.016   6.939  12.061
82879W        W51273  32.484   9.986   2.708
82880W        W51274  37.209  27.601   4.566
82881W        W51275  26.607  32.600   3.362
82882W        W51276   2.184   2.356  11.104
82883W        W51277  33.160  12.759  12.986
82884W        W51278  27.850  44.962   2.009
82885W        W51279   4.464  33.912  13.819
82886W        W51280   4.326  11.822   0.656
82887W        W51281  13.728  44.079   3.405
82888W        W51282  38.590  19.355  13.927
82889W        W51283  23.761  37.910  11.606
82890W        W51284  16.706  22.139  14.746
82891W        W51285  37.136  33.879   3.206
82892W        W51286  35.435  28.163   3.848
82893W        W51287  10.861  33.432  14.855
82894W        W51288  30.051   8.838   0.563
82895W        W51289  21.513  43.135   1.890
82896W        W51290   0.218   5.744   1.814
82897W        W51291  10.602  27.854   4.525
82898W        W51292  11.433  11.256   2.509
82899W        W51293   4.131  25.490   0.883
82900W        W51294  33.933  34.902  12.400
82901W        W51295  43.282  31.620   1.975
82902W        W51296  10.637  28.417   4.528
82903W        W51297   8.763  19.198   2.729
82904W        W51298  33.807  31.938   2.381
82905W        W51299  16.313  30.101  11.028
82906W        W51300  21.499  41.622  14.007
82907W        W51301  11.819  19.145  13.401
82908W        W51302  23.556   5.699  14.867
82909W        W51303  21.515  15.892  11.187
82910W        W51304  29.570  36.484   1.825
82911W        W51305  12.811  18.082   2.696
82912W        W51306  20.099  33.496  14.505
82913W        W51307  42.257  30.908  13.423
82914W        W51308  27.995  15.241  14.971
82915W        W51309  19.629   3.717  11.777
82916W        W51310  32.058  39.445   1.780
82917W        W51311   8.346  18.641  12.905
82918W        W51312  25.310  42.562  12.977
82919W        W51313  27.536  23.086  14.279
82920W        W51314  31.353  23.575   4.115
82921W        W51315  14.086   4.297   1.569
82922W        W51316  17.709   8.625   0.935
82923W        W51317  15.722  34.233   2.387
82924W        W51318   3.272  28.382   0.460
82925W        W51319  36.020   5.343   4.368
82926W        W51320   1.310  23.545  13.381
82927W        W51321  15.856  33.854  13.274
82928W        W51322   3.709   8.830   4.842
82929W        W51323   0.911  22.880  11.546
82930W        W51324   9.489  44.818   2.839
82931W        W51325   2.496   3.022   2.800
82932W        W51326   9.539  28.933  12.912
82933W        W51327  15.785  14.089  14.413
82934W        W51328   7.696   6.921  13.364
82935W        W51329  33.860  28.450   0.323
82936W        W51330  37.884   4.337   0.306
82937W        W51331  21.700  32.112  13.006
82938W        W51332  35.450  18.855  10.767
82939W        W51333  27.357  18.310  13.410
82940W        W51334   5.718   3.313   4.282
82941W        W51335  38.645   1.378  11.536
82942W        W51336  35.425  38.349   2.110
82943W        W51337  25.071  15.021   1.863
82944W        W51338  15.017   1.229   2.929
82945W        W51339  37.974  43.901  12.780
82946W        W51340  16.613   4.915   3.001
82947W        W51341   5.243   4.934   3.126
82948W        W51342  11.862  11.340  11.679
82949W        W51343   8.524  44.151   2.243
82950W        W51344  27.598  32.024  12.598
82951W        W51345   4.614  38.470   3.849
82952W        W51346  11.580   8.296   4.371
82953W        W51347  33.155  44.739  10.487
82954W        W51348  12.896  16.173   3.213
82955W        W51349   7.740  41.381  12.241
82956W        W51350  24.550  10.717  11.498
82957W        W51351  23.924  37.010   2.844
82958W        W51352  18.625  43.032   0.460
82959W        W51353  35.238  41.332   3.191
82960W        W51354  29.511  16.615  12.881
82961W        W51355  38.263  33.403   4.182
82962W        W51356  40.087  39.474  11.843
82963W        W51357  22.236  43.500   3.631
82964W        W51358  15.215   7.881   2.676
82965W        W51359   8.453   9.936   2.929
82966W        W51360  10.987   3.593   0.440
82967W        W51361  14.560   0.282  14.192
82968W        W51362  24.743  31.990   4.767
82969W        W51363  11.146  30.668   2.536
82970W        W51364  13.198  27.510  14.709
82971W        W51365  19.947  43.975  10.841
82972W        W51366  37.429   8.788  11.727
82973W        W51367   7.812  15.258   0.265
82974W        W51368  18.665  33.058  10.663
82975W        W51369  11.646  22.812   5.061
82976W        W51370  11.774  23.153   0.957
82977W        W51371   0.648  36.078   5.025
82978W        W51372  39.073   3.719   4.641
82979W        W51373  32.901   6.879  14.993
82980W        W51374  31.334   9.137   2.276
82981W        W51375  33.859  44.864  14.994
82982W        W51376  41.969   9.461   1.971
82983W        W51377  39.429  14.118   5.056
82984W        W51378  44.029  14.588  10.641
82985W        W51379  31.877   2.306   0.256
82986W        W51380  15.875   0.317  14.982
82987W        W51381  39.432  44.765   0.921
82988W        W51382  29.370  17.566  10.198
82989W        W51383  11.764   1.017   3.354
82990W        W51384  32.460  12.226   2.898
82991W        W51385  42.610  33.520  12.288
82992W        W51386  10.412  23.725  13.981
82993W        W51387  21.849  33.515   2.076
82994W        W51388   2.777  30.953  12.494
82995W        W51389   1.170  24.386   2.007
82996W        W51390  44.946  25.179   1.198
82997W        W51391   9.298  34.954  13.896
82998W        W51392  30.784   1.434   3.671
82999W        W51393   8.724  44.415  10.818
83000W        W51394   3.847  10.922   1.780
83001W        W51395  39.464   9.639  13.973
83002W        W51396  28.507  13.204  13.548
83003W        W51397  41.289  41.457   4.176
83004W        W51398   2.157  44.534  12.424
83005W        W51399  43.262  35.701  14.736
83006W        W51400  13.149  28.291   4.610
83007W        W51401  26.067   6.654   0.404
83008W        W51402   3.010  19.189   0.971
83009W        W51403  11.399  12.808  14.129
83010W        W51404  41.753  23.465   3.194
83011W        W51405  17.733  17.006   2.293
83012W        W51406   2.309  14.561   3.305
83013W        W51407   8.117   4.731  14.346
83014W        W51408  27.061  41.573   1.947
83015W        W51409   4.039  18.153   2.733
83016W        W51410   5.417   1.473   2.808
83017W        W51411   6.975  44.436   0.779
83018W        W51412  17.349  31.074   1.736
83019W        W51413  30.101   7.474  12.101
83020W        W51414  24.287  32.363  12.731
83021W        W51415  27.898  30.564   2.575
83022W        W51416  10.707  39.998   3.725
83023W        W51417  42.751   5.225  12.028
83024W        W51418   6.469  14.328  10.693
83025W        W51419   2.719  41.459   0.523
83026W        W51420   9.082  42.080  12.082
83027W        W51421   3.784  27.052   3.327
83028W        W51422  33.080   2.363  14.737
83029W        W51423  24.362  21.094   1.654
83030W        W51424  21.934  35.586  14.791
83031W        W51425  12.825  11.437  12.955
83032W        W51426  32.453   0.476   3.333
83033W        W51427   9.632   3.022   0.807
83034W        W51428  27.706   9.690   1.228
83035W        W51429  12.854   4.295   4.138
83036W        W51430  43.933  15.235  13.845
83037W        W51431  42.248  19.728   1.220
83038W        W51432  39.608  37.915   2.435
83039W        W51433  42.552  13.515   3.578
83040W        W51434  13.751  44.007   2.171
83041W        W51435  25.490   9.874  13.411
83042W        W51436  17.030  12.896   4.036
83043W        W51437  26.081  14.871  12.617
83044W        W51438  22.712   6.723  13.871
83045W        W51439   8.287  33.076   1.843
83046W        W51440  37.450  27.851  14.263
83047W        W51441  21.199  16.860  10.207
83048W        W51442  40.819  10.469  14.750
83049W        W51443  37.304   9.930  14.071
83050W        W51444  34.027   4.350  10.561
83051W        W51445   1.971  15.794   2.374
83052W        W51446  27.301  40.517  11.705
83053W        W51447  42.780  24.014  14.337
83054W        W51448   2.887  42.370   3.155
83055W        W51449  17.596   8.810   3.373
83056W        W51450  31.571  35.041  13.029
83057W        W51451  15.068  29.985  11.685
83058W        W51452  21.539  19.939  14.879
83059W        W51453   8.443  16.160  13.534
83060W        W51454  16.085  26.445  11.606
83061W        W51455   5.097  21.543  13.448
83062W        W51456   7.223  39.178  13.856
83063W        W51457  29.984  31.207  14.450
83064W        W51458   0.732  27.458  14.859
83065W        W51459  40.865  18.993  13.793
83066W        W51460  15.360   9.010  14.923
83067W        W51461  36.022  34.799  12.941
83068W        W51462   7.763  11.056   1.331
83069W        W51463   7.461  23.567   3.461
83070W        W51464   1.589  25.067   4.660
83071W        W51465  22.737  15.660  12.098
83072W        W51466   3.480   0.467  11.993
83073W        W51467  40.475   1.056   0.710
83074W        W51468   1.901   3.553   2.292
83075W        W51469  40.744   5.231   4.553
83076W        W51470  32.333  26.911   2.262
83077W        W51471  41.143  35.401   4.114
83078W        W51472  34.360  32.910   3.600
83079W        W51473  28.660  36.535   0.876
83080W        W51474   4.287  16.480  10.098
83081W        W51475  26.635  32.215  13.940
83082W        W51476  34.074  36.052   4.539
83083W        W51477  20.620  14.898   0.913
83084W        W51478   1.693   7.471   1.421
83085W        W51479  35.399   8.225  11.048
83086W        W51480  43.545   5.333   4.926
83087W        W51481  21.196  44.905   4.854
83088W        W51482  44.412  20.352   2.759
83089W        W51483  20.786  38.624  12.110
83090W        W51484  26.514  32.661   0.378
83091W        W51485  23.789  16.263   0.866
83092W        W51486  27.125  24.120   3.878
83093W        W51487  26.177   3.300  14.514
83094W        W51488  28.535  21.121  10.568
83095W        W51489  43.831  14.547  12.793
83096W        W51490   4.007   1.675   5.206
83097W        W51491  18.090  12.828  14.973
83098W        W51492  25.679  40.248  13.985
83099W        W51493  10.849   4.111   4.110
83100W        W51494   4.177   6.078  10.188
83101W        W51495  30.672  20.477   1.477
83102W        W51496  23.289  32.458   4.149
83103W        W51497   5.240  30.556   4.166
83104W        W51498  37.066   3.944   2.754
83105W        W51499  43.399  14.687   0.693
83106W        W51500   6.396  13.381   4.973
83107W        W51501  43.964  21.006   2.817
83108W        W51502  10.554  35.360  10.767
83109W        W51503  14.197  18.149   3.137
83110W        W51504  12.509   1.419  13.934
83111W        W51505  42.925  23.668   0.228
83112W        W51506  19.617  31.256  12.026
83113W        W51507   4.933   4.227  13.537
83114W        W51508   3.935   3.552  13.423
83115W        W51509   1.547  23.574   2.158
83116W        W51510  41.775  33.381  11.157
83117W        W51511   3.270  27.419  13.896
83118W        W51512  21.760   4.948   2.367
83119W        W51513  30.094  16.921  10.701
83120W        W51514   0.388  30.724   0.269
83121W        W51515  22.008  26.499  11.637
83122W        W51516  34.392   6.144  13.765
83123W        W51517  43.829   7.363   3.079
83124W        W51518  39.139   6.231   0.818
83125W        W51519  31.170  25.596  11.457
83126W        W51520  25.165  19.220  12.364
83127W        W51521  10.796  11.390  13.025
83128W        W51522  26.266  43.871   0.818
83129W        W51523  42.675  28.368   4.788
83130W        W51524   0.301  25.812  10.743
83131W        W51525  13.738  33.114  11.111
83132W        W51526   0.263  36.591  12.367
83133W        W51527  29.649   9.684  12.914
83134W        W51528   9.404  23.748  13.936
83135W        W51529  38.057   6.224   2.238
83136W        W51530   5.712   0.784   4.027
83137W        W51531   2.983   0.252   1.626
83138W        W51532  37.646  35.985  12.428
83139W        W51533  22.420  40.244   4.880
83140W        W51534  38.604  40.459  12.414
83141W        W51535  33.392  39.035   3.121
83142W        W51536  23.521   2.257   4.418
83143W        W51537  38.979  11.715   2.813
83144W        W51538  40.444  41.936   4.061
83145W        W51539   4.919   0.777   1.739
83146W        W51540   4.211  19.343   0.313
83147W        W51541  31.061  29.436  12.375
83148W        W51542   9.271  24.619   5.044
83149W        W51543   4.657  30.316   4.946
83150W        W51544  43.889  41.956   4.229
83151W        W51545   4.327  10.582   3.551
83152W        W51546   9.388   8.761  12.234
83153W        W51547   8.173  29.252   0.003
83154W        W51548  20.148   0.670  10.706
83155W        W51549   7.918  27.394  10.740
83156W        W51550  23.155  44.182   3.084
83157W        W51551   0.034  12.123  14.407
83158W        W51552   0.924  29.669  13.989
83159W        W51553   8.757   9.270  14.748
83160W        W51554  33.619  26.769   2.216
83161W        W51555  21.088  42.255  11.619
83162W        W51556  11.165  30.137  14.437
83163W        W51557  37.102  19.848  11.204
83164W        W51558  13.622  33.766   2.697
83165W        W51559   2.159   5.818   0.775
83166W        W51560  29.732   4.028  14.170
83167W        W51561   6.798  44.772  13.399
83168W        W51562  39.449  17.439  11.678
83169W        W51563  17.055  22.715  12.479
83170W        W51564  17.814  14.831   4.043
83171W        W51565  27.164  35.607   4.045
83172W        W51566  24.428  25.194  13.330
83173W        W51567  34.525  31.442   4.353
83174W        W51568  26.215  10.096  14.544
83175W        W51569  44.138  36.956   0.124
83176W        W51570  21.554  38.349   0.776
83177W        W51571  10.413  24.569   0.378
83178W        W51572   9.698   6.623  11.737
83179W        W51573  44.259  11.861  11.667
83180W        W51574  35.986  34.027   0.682
83181W        W51575   3.680   4.905   2.487
83182W        W51576  27.619  35.879  12.303
83183W        W51577  34.008   8.757   4.253
83184W        W51578  30.552  20.618   0.991
83185W        W51579  26.240  16.599   3.250
83186W        W51580   9.881  14.237  13.513
83187W        W51581  33.975  31.972   1.869
83188W        W51582  23.037   9.715  14.964
83189W        W51583   1.168  24.687   0.471
83190W        W51584  22.054   1.119   0.169
83191W        W51585  15.608  22.643   0.967
83192W        W51586  20.461  26.640   0.850
83193W        W51587   3.951  22.498   4.585
83194W        W51588  28.485  28.499   3.262
83195W        W51589  27.043  36.320   1.537
83196W        W51590  34.000  34.575   3.275
83197W        W51591  17.481  16.241   1.782
83198W        W51592  23.123  27.065   4.527
83199W        W51593  28.966   9.681   3.555
83200W        W51594   6.628  25.553  11.593
83201W        W51595   2.436   1.761   2.783
83202W        W51596  23.788  29.161   4.698
83203W        W51597   5.808  23.223  10.602
83204W        W51598  44.831  15.987   2.189
83205W        W51599  20.797  20.105  13.484
83206W        W51600   3.366  29.593  14.908
83207W        W51601   3.988  23.721   1.388
83208W        W51602   9.704  11.167   3.038
83209W        W51603  43.374  39.982   2.214
83210W        W51604  24.844  41.282   4.136
83211W        W51605  36.318  19.115   1.638
83212W        W51606  44.412  30.689  10.086
83213W        W51607  12.584  31.336   0.892
83214W        W51608  20.746   3.395  11.493
83215W        W51609   5.894  32.408   2.242
83216W        W51610  12.243  11.267   0.855
83217W        W51611  23.271  27.029   0.034
83218W        W51612  42.508  17.738   0.736
83219W        W51613  33.940  30.463   2.885
83220W        W51614  32.547  33.163   3.246
83221W        W51615  11.281  42.492   1.643
83222W        W51616  23.590   5.416   3.285
83223W        W51617   0.755  10.791   1.263
83224W        W51618  40.586  37.045   0.251
83225W        W51619  36.418  20.736  10.528
83226W        W51620   7.333   6.697   1.921
83227W        W51621   3.139  35.630   1.761
83228W        W51622  24.716  12.646  14.833
83229W        W51623   1.054   8.602   0.902
83230W        W51624  27.698  20.583  13.591
83231W        W51625  44.907  43.564   2.034
83232W        W51626  14.659  29.065   3.714
83233W        W51627  24.101   1.310  13.498
83234W        W51628  36.250  24.653  10.854
83235W        W51629  24.283  18.650   4.047
83236W        W51630  24.989  43.219  10.367
83237W        W51631   0.481  25.716   2.815
83238W        W51632   6.970  33.073   1.475
83239W        W51633   3.770  43.866   2.088
83240W        W51634  10.382   4.675  12.404
83241W        W51635  36.682  25.122  10.389
83242W        W51636  26.664  26.082   0.045
83243W        W51637  20.799  26.967   2.415
83244W        W51638  44.354   3.222   0.454
83245W        W51639   4.726   9.885  14.266
83246W        W51640   3.112  22.773   3.358
83247W        W51641  15.824   1.368  11.833
83248W        W51642   4.719   2.970   4.159
83249W        W51643   3.314   4.497  11.197
83250W        W51644   5.294  40.334  14.410
83251W        W51645  39.843   0.363  11.986
83252W        W51646  30.065  36.393   1.684
83253W        W51647  20.825   7.642  12.628
83254W        W51648   6.969   9.725  12.078
83255W        W51649  27.146  31.936   3.184
83256W        W51650  33.817   7.371  11.961
83257W        W51651  23.607  42.360  14.841
83258W        W51652  41.676   4.429  12.721
83259W        W51653  29.898  31.477  12.130
83260W        W51654  12.363  13.685   0.993
83261W        W51655   2.545  44.329  13.969
83262W        W51656   2.271  30.100   3.408
83263W        W51657   1.232  18.798   3.697
83264W        W51658  17.615  19.509   2.745
83265W        W51659  23.881  28.053  10.756
83266W        W51660  18.666  37.266   1.255
83267W        W51661   9.164  44.524   1.205
83268W        W51662  30.947  16.148  13.000
83269W        W51663   6.469  28.612   2.344
83270W        W51664  20.025  24.514   1.442
83271W        W51665  44.363  35.108   1.880
83272W        W51666  40.801  29.143   2.865
83273W        W51667  27.705  40.094   3.291
83274W        W51668   4.720   1.198  13.850
83275W        W51669  20.516  26.943  12.675
83276W        W51670  20.246  10.265   1.885
83277W        W51671  12.140   3.880  13.009
83278W        W51672  33.458  32.903  11.697
83279W        W51673  12.297  14.336   0.505
83280W        W51674  30.583  12.539   4.553
83281W        W51675   7.415  20.708  14.936
83282W        W51676  41.378  10.280   4.768
83283W        W51677   4.478  26.532  12.980
83284W        W51678  18.141  15.695   9.731
83285W        W51679  14.586  28.243   4.791
83286W        W51680  23.722  27.245   3.589
83287W        W51681  36.093  38.088   1.337
83288W        W51682  22.435  42.099  12.496
83289W        W51683   7.589  43.364   3.489
83290W        W51684  22.033   3.319   5.179
83291W        W51685  33.343  20.186   1.891
83292W        W51686  32.286  18.648   4.079
83293W        W51687  21.088   5.028  14.935
83294W        W51688   4.198  22.941   3.684
83295W        W51689   0.898  14.803   4.663
83296W        W51690   4.532   7.904  14.120
83297W        W51691  14.886  37.726  11.415
83298W        W51692   1.588  44.796  13.690
83299W        W51693  30.632  11.610   2.686
83300W        W51694   1.495  36.549  11.564
83301W        W51695  34.981  40.816  14.562
83302W        W51696  32.998   4.348  10.786
83303W        W51697  20.251   9.700   4.690
83304W        W51698  28.623  19.126  13.348
83305W        W51699  34.912  30.466  12.966
83306W        W51700  10.316  12.580  13.505
83307W        W51701   0.897  18.814  11.232
83308W        W51702  15.578  25.727  11.106
83309W        W51703  33.691  11.262  13.312
83310W        W51704  30.491   8.467   3.686
83311W        W51705  10.412  34.435   4.301
83312W        W51706  28.913  18.300   4.883
83313W        W51707  19.497   6.582   0.444
83314W        W51708  29.506  26.178  13.281
83315W        W51709  43.391  20.240   0.835
83316W        W51710  23.492  33.586   4.497
83317W        W51711  14.149  11.578  12.957
83318W        W51712  34.496  23.541   4.024
83319W        W51713  36.385  40.926  11.543
83320W        W51714  27.955  40.013   1.043
83321W        W51715  35.929   5.981   0.742
83322W        W51716  26.143  42.019  12.296
83323W        W51717  33.264  32.173   2.363
83324W        W51718  30.421  13.109  13.545
83325W        W51719  23.644  41.950   0.660
83326W        W51720  34.542   0.755   0.039
83327W        W51721  15.083   1.750   2.886
83328W        W51722  44.017  22.087   0.385
83329W        W51723  12.167   1.273   4.611
83330W        W51724  39.414  24.114   2.418
83331W        W51725   2.702  38.249   2.294
83332W        W51726  29.547  29.927  11.196
83333W        W51727  35.903  19.466   4.677
83334W        W51728  25.995  42.326  11.031
83335W        W51729  40.962  39.263  13.253
83336W        W51730  15.809  34.137  12.409
83337W        W51731  17.134  36.857   4.502
83338W        W51732  21.714  17.704  13.564
83339W        W51733   4.692  42.863  11.598
83340W        W51734  30.675  44.008   1.367
83341W        W51735  37.886   3.474  11.128
83342W        W51736   1.255  13.965   4.634
83343W        W51737  39.897  39.802   3.256
83344W        W51738   9.300  20.315   0.932
83345W        W51739   3.355   9.199  11.576
83346W        W51740  27.623   1.081  11.695
83347W        W51741  17.056   3.845  11.961
83348W        W51742   9.283   9.207   3.457
83349W        W51743  21.284  24.530  10.683
83350W        W51744  17.236  44.296   4.610
83351W        W51745   5.305   0.937  12.567
83352W        W51746  28.661   2.049   1.717
83353W        W51747  17.241   0.846   0.481
83354W        W51748   2.661  30.713  13.063
83355W        W51749  41.832  31.022   2.323
83356W        W51750  15.328  14.613  11.444
83357W        W51751   0.380   3.603   5.059
83358W        W51752  43.555   3.379  11.362
83359W        W51753   1.168  43.933   0.891
83360W        W51754   6.970   5.021   5.409
83361W        W51755  33.669  29.101  14.311
83362W        W51756   6.176  13.238   3.713
83363W        W51757   2.314  41.927  13.741
83364W        W51758  32.705  21.916   4.469
83365W        W51759  16.085  30.518  13.412
83366W        W51760  23.478  18.342   3.232
83367W        W51761   5.486  38.272   1.990
83368W        W51762   8.267  32.909   0.386
83369W        W51763  10.162  25.230  10.294
83370W        W51764   8.628   1.428  14.943
83371W        W51765   5.468  16.079   1.831
83372W        W51766   8.685  10.941   2.292
83373W        W51767  37.826  30.189   4.973
83374W        W51768   9.954   5.046  14.857
83375W        W51769  23.092   6.857   1.195
83376W        W51770   1.889  16.535  12.944
83377W        W51771   5.260  41.553  13.079
83378W        W51772   5.619  11.642  11.022
83379W        W51773  21.575   3.926   3.857
83380W        W51774   4.703  30.607  12.123
83381W        W51775  30.014   5.782  11.032
83382W        W51776  42.286  33.360  11.113
83383W        W51777  13.825  23.524  13.393
83384W        W51778  26.136  26.326   4.435
83385W        W51779  16.606  18.160   1.347
83386W        W51780   8.573  31.952   0.457
83387W        W51781  35.311  11.756  14.424
83388W        W51782  43.813  33.877  14.406
83389W        W51783  15.293  24.469  11.096
83390W        W51784  22.726   0.612   5.123
83391W        W51785  23.171  17.673  14.290
83392W        W51786  13.782  44.695  10.710
83393W        W51787  32.921  43.900  13.815
83394W        W51788  18.116  17.705  12.572
83395W        W51789  31.611  23.149   0.783
83396W        W51790  38.607  37.992  10.909
83397W        W51791  16.677  17.466  11.626
83398W        W51792  32.317  42.456  12.435
83399W        W51793  13.581  41.081   1.348
83400W        W51794  18.993  32.600   0.268
83401W        W51795  18.480  36.929  14.365
83402W        W51796  16.737   9.184  11.592
83403W        W51797  26.584  12.870  13.521
83404W        W51798  41.286   1.993  10.657
83405W        W51799   4.919  42.775   4.133
83406W        W51800  44.854  32.010  13.584
83407W        W51801  35.115  17.720   1.160
83408W        W51802  44.009  20.199  12.053
83409W        W51803  28.418   9.636  10.380
83410W        W51804   1.429  27.768   0.406
83411W        W51805  24.582  21.088   0.123
83412W        W51806  28.926   7.900   0.194
83413W        W51807  20.983  31.314   1.456
83414W        W51808   2.752  18.775   3.226
83415W        W51809  19.089  16.243   3.673
83416W        W51810   7.413  10.916   3.464
83417W        W51811  41.889  38.038  11.793
83418W        W51812  36.506   7.687   4.085
83419W        W51813  43.995  36.147   0.655
83420W        W51814  43.347  34.726   3.380
83421W        W51815  10.712  43.975  10.780
83422W        W51816  27.872   6.723   0.293
83423W        W51817   9.962   3.163   4.800
83424W        W51818  41.474   2.025   2.365
83425W        W51819  30.469  36.263   3.697
83426W        W51820  33.021  37.019   1.977
83427W        W51821   7.139  34.534  12.911
83428W        W51822  31.023  27.671   2.323
83429W        W51823  30.251  33.436  14.868
83430W        W51824  41.063   8.863   0.934
83431W        W51825  26.989   0.723  13.842
83432W        W51826  38.067  39.669   3.313
83433W        W51827  33.930  28.855  10.975
83434W        W51828  21.566  42.404   3.113
83435W        W51829  20.198   6.736  14.889
83436W        W51830   2.603   6.369  14.561
83437W        W51831  17.364  17.908   1.301
83438W        W51832  19.029  27.503   3.348
83439W        W51833   6.193  14.894   9.842
83440W        W51834  20.526  42.710  14.815
83441W        W51835   1.775  30.599  10.728
83442W        W51836  28.141   0.459   1.220
83443W        W51837  38.831   7.763   2.147
83444W        W51838  18.506  40.814  14.652
83445W        W51839  12.113  36.585   2.516
83446W        W51840  21.900  32.167   1.433
83447W        W51841  35.723  12.805   1.230
83448W        W51842  31.396  17.131   3.712
83449W        W51843  42.031  42.029  11.669
83450W        W51844  33.385  41.544  12.527
83451W        W51845  16.605  44.447  13.728
83452W        W51846  27.388  43.401  11.172
83453W        W51847   7.450  25.607   3.319
83454W        W51848  26.727  18.722  13.089
83455W        W51849  34.138  32.309   2.562
83456W        W51850  32.171  33.385  14.519
83457W        W51851  13.130  43.513   1.515
83458W        W51852  41.957  15.072  13.744
83459W        W51853  16.487  22.811  11.875
83460W        W51854  39.993   2.754  13.985
83461W        W51855  37.038  21.169  12.978
83462W        W51856  40.182   2.399   4.676
83463W        W51857  44.256  31.909  14.057
83464W        W51858   4.409  21.244  10.921
83465W        W51859   6.952   6.997   1.725
83466W        W51860  22.025  27.775   0.797
83467W        W51861  26.305  27.070  11.029
83468W        W51862  44.848  38.420  13.446
83469W        W51863  44.389  17.043   4.957
83470W        W51864   0.875  35.499   4.202
83471W        W51865  27.178  11.789  11.469
83472W        W51866  39.883  23.720  13.331
83473W        W51867   5.909  41.892  13.836
83474W        W51868   3.933  23.711   3.204
83475W        W51869  43.821  26.030  12.944
83476W        W51870   4.090  26.159  12.782
83477W        W51871  43.576   3.331  14.008
83478W        W51872  31.664   7.799   0.995
83479W        W51873   0.883  37.246  13.859
83480W        W51874  38.331  32.151  11.576
83481W        W51875  12.858  17.420  14.906
83482W        W51876  12.717   5.698  14.609
83483W        W51877  37.320  21.200   1.317
83484W        W51878  17.019  35.712  14.340
83485W        W51879  18.203  33.896   1.841
83486W        W51880  41.708   0.864   2.797
83487W        W51881   2.432  24.822  11.643
83488W        W51882  32.995  27.059   3.757
83489W        W51883  35.038  17.186   1.611
83490W        W51884  29.061  19.578  11.165
83491W        W51885  11.295   3.764   3.331
83492W        W51886   8.732   8.260   4.838
83493W        W51887  26.534  42.056   3.269
83494W        W51888  43.289   9.117   2.026
83495W        W51889   2.941   7.935  14.464
83496W        W51890  20.143  22.522   0.325
83497W        W51891  14.278  29.209  11.287
83498W        W51892  36.859   6.893  10.429
83499W        W51893  12.775  17.222  13.338
83500W        W51894  16.156  31.154  14.524
83501W        W51895  37.058  36.930  11.326
83502W        W51896  18.050  42.768   2.881
83503W        W51897  44.256  22.678  12.836
83504W        W51898   8.455  24.190  13.874
83505W        W51899  33.353  36.274   0.725
83506W        W51900  43.289  34.374   0.875
83507W        W51901  19.584   5.784   2.845
83508W        W51902  38.250  37.671   0.066
83509W        W51903  44.925  36.564   2.503
83510W        W51904  22.116  44.916   3.705
83511W        W51905  39.888  25.229  11.139
83512W        W51906  26.082  39.027   1.657
83513W        W51907   5.162  23.650   5.107
83514W        W51908  13.427  24.931  13.048
83515W        W51909  20.716  29.421  11.202
83516W        W51910  40.787  25.110  13.854
83517W        W51911   6.280   1.012  13.022
83518W        W51912  26.682  36.187   0.306
83519W        W51913  42.038  28.924   2.182
83520W        W51914  24.029  36.335   0.188
83521W        W51915  25.264   5.162  13.095
83522W        W51916  41.875  37.863   3.437
83523W        W51917  10.590  12.607   0.289
83524W        W51918  37.018  36.220   2.343
83525W        W51919   0.666   2.502   1.390
83526W        W51920  42.011  38.384  13.421
83527W        W51921   6.976  31.578   0.735
83528W        W51922  15.821  13.369  13.728
83529W        W51923  19.596  30.518  10.662
83530W        W51924   3.749  31.968   4.781
83531W        W51925  12.767   4.933   2.789
83532W        W51926  12.551  14.793   1.379
83533W        W51927  11.788  14.569  14.390
83534W        W51928  13.490  39.009   3.470
83535W        W51929  23.203  16.672   1.218
83536W        W51930  42.594   6.232   3.239
83537W        W51931   8.291  38.416   3.611
83538W        W51932   3.275   7.852  11.206
83539W        W51933  32.508  34.121  12.473
83540W        W51934  29.626  44.428  10.089
83541W        W51935  26.720  29.861   2.754
83542W        W51936   9.394   9.657  12.056
83543W        W51937  38.353  12.268  12.601
83544W        W51938  11.097  25.139  11.773
83545W        W51939  27.052   6.404  14.776
83546W        W51940  41.354  34.349   1.224
83547W        W51941   3.221  25.388  12.843
83548W        W51942  21.503  20.024  10.716
83549W        W51943  27.425   0.475  12.516
83550W        W51944   7.769  26.634   0.860
83551W        W51945   4.015  26.766   0.670
83552W        W51946  11.198   2.739   2.558
83553W        W51947  26.924  28.705   4.002
83554W        W51948  32.638  13.827  11.644
83555W        W51949  38.572  13.039  13.859
83556W        W51950  41.004  14.594   5.110
83557W        W51951   4.437   0.494   2.651
83558W        W51952   8.533   5.004  14.570
83559W        W51953  16.055  17.837  14.375
83560W        W51954  31.015  13.831  11.626
83561W        W51955  36.352  39.572   4.579
83562W        W51956  19.081  24.535   0.343
83563W        W51957  31.894  14.643   2.121
83564W        W51958  14.696   8.345  12.882
83565W        W51959  42.939  39.791  11.501
83566W        W51960  28.491  10.930   3.230
83567W        W51961  13.711   4.911   3.140
83568W        W51962  25.686  37.364  10.651
83569W        W51963  19.572  30.333   4.818
83570W        W51964  25.959  39.170   2.698
83571W        W51965  36.806   8.315  10.604
83572W        W51966  19.616  14.000  13.500
83573W        W51967  15.460  20.254   1.036
83574W        W51968  36.468  24.042   1.986
83575W        W51969  21.284  29.049  13.042
83576W        W51970  17.091  15.992   4.617
83577W        W51971  18.887  21.408  11.585
83578W        W51972  35.866  18.318  11.853
83579W        W51973  39.310  44.996  13.930
83580W        W51974  39.921  25.553  14.891
83581W        W51975   1.460  41.424  13.739
83582W        W51976  22.250  35.796   0.491
83583W        W51977   6.843  15.257  12.963
83584W        W51978  25.787  41.605  14.053
83585W        W51979  14.312  14.757   3.726
83586W        W51980   1.032  29.546   2.186
83587W        W51981   3.352  43.882  10.593
83588W        W51982  15.484  13.220  13.364
83589W        W51983   1.800  36.228  11.241
83590W        W51984   2.607  41.120   2.775
83591W        W51985  10.821  29.209   1.794
83592W        W51986  44.499  41.359   0.318
83593W        W51987  37.499  27.051   2.738
83594W        W51988  16.658  37.147  12.001
83595W        W51989  12.308  27.515   2.605
83596W        W51990  26.423  40.635   0.491
83597W        W51991  39.924  35.653  11.182
83598W        W51992  42.398  20.725  12.944
83599W        W51993  36.181  41.282   0.792
83600W        W51994   7.049   9.229   0.451
83601W        W51995  33.837  10.555  14.371
83602W        W51996  12.611   2.719  14.418
83603W        W51997  25.018  29.473  12.612
83604W        W51998  23.657   3.048   4.074
83605W        W51999  32.894  15.254   1.661
83606W        W52000  26.963   8.375   0.425
83607W        W52001  38.223   8.911  10.443
83608W        W52002  10.276  20.640   0.804
83609W        W52003  29.346  19.369  10.564
83610W        W52004  13.364  24.531   1.674
83611W        W52005  31.170  14.405   0.821
83612W        W52006   3.022  20.138  14.710
83613W        W52007  27.724  34.508  12.065
83614W        W52008  32.674  28.127   0.372
83615W        W52009  44.239  13.853   1.954
83616W        W52010  17.846  34.488   2.434
83617W        W52011   8.804  16.597   0.799
83618W        W52012  26.246  39.918  14.319
83619W        W52013  26.755  39.332  11.503
83620W        W52014  27.058  41.046   4.684
83621W        W52015  32.624  28.694   2.635
83622W        W52016  36.906   1.871  10.672
83623W        W52017  37.078  29.336   2.234
83624W        W52018   6.919   8.725   0.365
83625W        W52019  18.357  19.390   3.765
83626W        W52020  32.385  34.710  11.736
83627W        W52021  20.251  18.565  12.000
83628W        W52022  36.112  43.233  12.549
83629W        W52023  24.739  12.163   2.845
83630W        W52024   1.727   1.350  12.056
83631W        W52025  28.257  24.201  13.906
83632W        W52026  12.988   4.902   3.699
83633W        W52027  19.594  25.924   0.503
83634W        W52028  24.177   8.842  13.061
83635W        W52029   9.885  12.081   0.231
83636W        W52030  15.672   7.290  11.389
83637W        W52031  42.046  43.769   4.920
83638W        W52032  43.405  17.821   4.645
83639W        W52033  28.287  14.236   1.701
83640W        W52034  17.088  15.587  13.674
83641W        W52035   6.332  29.562   0.291
83642W        W52036  20.666  18.869   1.594
83643W        W52037  17.970  43.141  10.909
83644W        W52038  20.365  19.620   9.838
83645W        W52039   0.603  25.023  14.847
83646W        W52040  44.832  27.550   1.741
83647W        W52041  38.670  36.851   2.308
83648W        W52042  17.300   5.713   0.402
83649W        W52043  36.799  30.236   1.381
83650W        W52044  20.847   4.768  10.656
83651W        W52045   4.227  20.818  11.118
83652W        W52046  37.904  28.164   4.621
83653W        W52047  37.431  34.380   3.322
83654W        W52048  44.034  15.571   0.063
83655W        W52049   6.252  29.601   4.985
83656W        W52050  16.181   9.448  10.902
83657W        W52051  30.874  26.346  12.032
83658W        W52052  44.696  27.566  11.496
83659W        W52053  17.660   0.206  11.571
83660W        W52054  43.295  43.813   3.080
83661W        W52055  11.669  41.889  11.146
83662W        W52056   6.300  21.165  10.739
83663W        W52057  37.917  15.701  13.432
83664W        W52058   1.357   3.535   2.631
83665W        W52059  32.298  28.194   1.798
83666W        W52060   3.461  41.737  13.011
83667W        W52061  20.244  29.875   4.585
83668W        W52062   2.666   6.609   3.236
83669W        W52063  40.234  29.894  14.036
83670W        W52064  18.789   9.070  12.000
83671W        W52065  13.192   2.817   0.106
83672W        W52066  24.693  24.705   4.606
83673W        W52067  39.420   4.388   3.156
83674W        W52068  10.587   1.031   2.200
83675W        W52069  15.279  35.283   2.283
83676W        W52070   9.071  32.581  12.464
83677W        W52071  35.963  32.150   1.893
83678W        W52072   8.719  27.396   5.653
83679W        W52073   9.877  15.012  12.525
83680W        W52074  26.009  30.148   4.563
83681W        W52075  24.225  24.678   4.358
83682W        W52076   3.749  36.929  13.998
83683W        W52077  41.255   1.989  13.333
83684W        W52078  12.395  27.429   0.948
83685W        W52079  25.144   6.260  14.328
83686W        W52080   3.199  12.538   4.236
83687W        W52081   9.855  42.224   1.799
83688W        W52082  33.029  42.247   1.701
83689W        W52083   0.962  19.196   0.483
83690W        W52084   9.905   0.241  10.636
83691W        W52085  10.462  16.751   9.786
83692W        W52086  10.255  13.579   0.279
83693W        W52087  11.539   2.854  14.394
83694W        W52088  41.477  18.746  14.830
83695W        W52089   3.874  36.528  11.227
83696W        W52090  15.268  42.065   1.716
83697W        W52091  22.054  39.847   3.588
83698W        W52092  17.939   2.472   3.810
83699W        W52093  15.483  34.517  12.613
83700W        W52094  18.943  32.977  12.187
83701W        W52095  29.673   3.090  10.197
83702W        W52096  10.205  39.442   0.093
83703W        W52097  17.956  11.898   0.716
83704W        W52098   5.854  32.159   2.701
83705W        W52099  16.473  22.522   3.992
83706W        W52100  40.078  21.464  10.761
83707W        W52101  23.218  37.005   3.986
83708W        W52102  39.617  29.025  13.942
83709W        W52103  29.002  39.878  13.621
83710W        W52104  41.903  25.971  12.030
83711W        W52105  30.977  31.810   1.219
83712W        W52106  38.133  22.449  11.748
83713W        W52107  31.980   9.206   1.861
83714W        W52108   7.201  31.705   1.227
83715W        W52109  17.702  39.914  11.087
83716W        W52110  10.345  34.902  12.959
83717W        W52111   9.252  24.594   0.954
83718W        W52112   9.182  32.493   4.011
83719W        W52113  21.490   2.950   3.667
83720W        W52114  44.757  41.593   1.191
83721W        W52115  12.614  22.556   3.359
83722W        W52116  20.140  31.948   4.187
83723W        W52117  14.831  28.993   3.205
83724W        W52118  13.245  23.665  14.696
83725W        W52119   6.464  12.356   3.323
83726W        W52120  43.510  21.778  13.347
83727W        W52121   8.617  30.429  13.376
83728W        W52122  10.718   3.557   0.924
83729W        W52123  31.322   4.420  12.510
83730W        W52124   4.435  14.355  13.823
83731W        W52125   4.595  16.156   1.526
83732W        W52126  37.160  13.614   4.197
83733W        W52127  33.016  25.493   4.827
83734W        W52128  28.825  37.329  11.549
83735W        W52129  10.615  27.966   0.745
83736W        W52130   2.782  10.405  13.323
83737W        W52131  17.307  21.062  12.082
83738W        W52132  42.105  22.133  11.061
83739W        W52133  23.588   7.489   1.286
83740W        W52134  15.625  40.852  12.043
83741W        W52135  20.288  26.255   2.696
83742W        W52136  32.113  26.166   2.876
83743W        W52137  44.152   2.019  10.740
83744W        W52138  30.763  16.812  12.398
83745W        W52139  16.909  35.635  11.216
83746W        W52140  25.628  12.266  12.536
83747W        W52141  12.837  19.781  11.584
83748W        W52142  11.321  39.725   2.200
83749W        W52143   5.373  38.628   3.362
83750W        W52144  23.166   5.171  13.342
83751W        W52145   6.467  13.291  13.366
83752W        W52146   2.717   2.364  11.147
83753W        W52147   6.731  27.692  14.739
83754W        W52148  31.631  23.793   1.418
83755W        W52149  43.311   0.986  11.066
83756W        W52150  39.305  20.587   3.780
83757W        W52151   3.684  37.021   0.876
83758W        W52152   2.220  11.173  14.862
83759W        W52153  11.392   2.191   0.069
83760W        W52154  26.712  13.274  13.199
83761W        W52155  20.748  23.303   2.859
83762W        W52156  37.779  38.662   4.435
83763W        W52157   8.213  36.721   1.024
83764W        W52158   0.509  29.438   2.303
83765W        W52159  43.010  44.289  11.560
83766W        W52160  27.845  14.315  11.146
83767W        W52161  32.177  16.348   0.275
83768W        W52162  32.465  12.331  13.502
83769W        W52163   9.697  37.997   2.195
83770W        W52164  36.912  25.738   0.499
83771W        W52165  12.770   3.548  10.858
83772W        W52166  26.667   1.636  10.526
83773W        W52167  31.557   5.208   4.551
83774W        W52168   0.631   6.490   4.571
83775W        W52169  15.624  40.904   2.322
83776W        W52170  17.389  28.198  13.266
83777W        W52171  18.129   0.362  11.425
83778W        W52172  41.855  34.508   4.592
83779W        W52173  41.629  11.864  12.126
83780W        W52174  16.223  39.588  13.938
83781W        W52175  30.220   0.283   4.574
83782W        W52176  42.113  39.475  14.836
83783W        W52177  36.749  14.820   0.805
83784W        W52178   2.294  24.542   3.609
83785W        W52179  41.505  21.529   0.320
83786W        W52180  44.738  40.913  12.828
83787W        W52181  38.758  40.842   4.484
83788W        W52182  31.543  40.122  11.036
83789W        W52183  38.260  11.729  10.452
83790W        W52184  38.834  34.037   0.850
83791W        W52185   7.956  25.490   3.249
83792W        W52186  10.799  43.869   2.202
83793W        W52187   7.108  17.500  13.943
83794W        W52188  22.083  27.884  11.896
83795W        W52189  10.056  13.258  14.725
83796W        W52190  23.703  11.478   3.123
83797W        W52191  22.663  17.237  12.110
83798W        W52192  24.068  42.823   4.068
83799W        W52193  32.000  30.626   1.428
83800W        W52194  23.655  44.521  14.291
83801W        W52195  13.597  18.527   1.091
83802W        W52196  11.716  26.628  13.507
83803W        W52197  42.348  30.169   2.814
83804W        W52198   7.120  28.100  10.862
83805W        W52199  11.101  35.895  11.131
83806W        W52200   4.658  33.372  11.127
83807W        W52201  16.850  28.699  10.304
83808W        W52202  12.171  18.490  10.694
83809W        W52203  43.252   6.644  11.117
83810W        W52204  37.095  34.417  12.142
83811W        W52205  32.325  41.995   4.848
83812W        W52206  24.462   5.617  14.423
83813W        W52207  13.564  39.839   4.633
83814W        W52208  32.307  21.960  13.453
83815W        W52209  10.864  22.109  14.815
83816W        W52210  25.398  16.654   2.196
83817W        W52211  20.828  23.686  12.454
83818W        W52212  27.592   6.167  10.880
83819W        W52213  40.066  13.120  11.488
83820W        W52214  30.688  25.665   2.905
83821W        W52215  17.228  22.603   3.861
83822W        W52216   2.365   9.305   2.773
83823W        W52217   2.424  32.089  12.339
83824W        W52218  21.289  15.313   1.270
83825W        W52219  27.978  40.693   3.692
83826W        W52220  30.129  24.282   1.360
83827W        W52221  41.372   4.659   0.235
83828W        W52222  27.038   6.443   3.662
83829W        W52223  40.617  22.626   4.688
83830W        W52224  14.635   3.032  10.201
83831W        W52225  15.081  33.899  10.764
83832W        W52226   1.015  31.600   0.342
83833W        W52227  16.181  14.361   2.671
83834W        W52228  21.194  20.699   4.822
83835W        W52229  17.227  32.521  12.586
83836W        W52230  41.000  38.220   3.084
83837W        W52231  24.298  26.661   1.758
83838W        W52232  42.254  35.882   2.066
83839W        W52233   4.801  28.002  11.189
83840W        W52234  33.651  21.465  11.211
83841W        W52235   7.076  13.770   5.559
83842W        W52236   9.597  19.100  12.028
83843W        W52237  22.826  24.565   2.812
83844W        W52238  33.642  43.013   3.428
83845W        W52239  25.487   1.386   1.481
83846W        W52240  17.165  37.961  11.199
83847W        W52241  29.145  34.354   3.251
83848W        W52242   7.209   5.210   1.069
83849W        W52243  27.173  35.505  14.502
83850W        W52244  34.477  26.375   0.323
83851W        W52245   2.351   0.828  13.475
83852W        W52246  16.608  36.051  11.392
83853W        W52247  14.565  21.566   4.150
83854W        W52248  37.057  12.031   3.856
83855W        W52249  12.210  19.062  12.094
83856W        W52250  43.086  14.136   4.265
83857W        W52251  31.599  27.185   0.622
83858W        W52252  23.285  21.027   2.681
83859W        W52253  21.043  34.983  14.020
83860W        W52254  43.488  33.361  13.928
83861W        W52255  11.919   1.898  12.080
83862W        W52256  23.084  41.105  12.496
83863W        W52257  18.024  30.642   3.055
83864W        W52258  24.090  26.897   4.442
83865W        W52259  12.692   7.223  10.743
83866W        W52260  27.284  23.684  13.138
83867W        W52261  18.149  21.080   0.459
83868W        W52262   9.699   9.132  13.327
83869W        W52263  43.960  18.588   0.691
83870W        W52264  12.315  31.658  14.380
83871W        W52265  18.238  23.276  10.711
83872W        W52266   4.669   4.442  13.980
83873W        W52267   2.741   6.104   3.090
83874W        W52268  38.460  17.207  11.556
83875W        W52269  30.587   2.631  14.356
83876W        W52270  20.287  37.859  11.950
83877W        W52271  11.816  20.031  14.546
83878W        W52272  18.609   6.872   3.734
83879W        W52273  24.015   9.631   4.176
83880W        W52274  27.497  43.450   1.369
83881W        W52275   6.827  20.592  11.007
83882W        W52276  23.636  33.480   3.154
83883W        W52277  11.413  28.103  13.484
83884W        W52278  12.906  16.729  14.770
83885W        W52279  26.757  27.055  12.189
83886W        W52280  12.103  26.073  12.158
83887W        W52281   8.574  41.487  11.134
83888W        W52282  24.655  40.633   4.606
83889W        W52283  41.685   5.661  12.583
83890W        W52284  19.193  39.538  10.896
83891W        W52285  32.557   4.469   4.085
83892W        W52286   1.048  29.501   1.240
83893W        W52287  10.844   9.849  12.916
83894W        W52288  36.256   5.206   1.707
83895W        W52289  31.009  44.904  13.487
83896W        W52290  12.797  44.816   1.225
83897W        W52291  10.076  30.508   1.454
83898W        W52292  44.639  15.952  12.008
83899W        W52293   8.285  40.948  11.188
83900W        W52294  15.103  37.710   5.425
83901W        W52295  23.684   3.747  11.928
83902W        W52296   6.168  26.104  12.541
83903W        W52297  25.101  16.759  13.446
83904W        W52298  27.407   4.899   0.359
83905W        W52299  25.066  23.295  14.325
83906W        W52300   0.286  11.854   4.690
83907W        W52301  22.712   6.916  12.085
83908W        W52302  36.838   9.381   3.344
83909W        W52303   2.696  11.371  12.640
83910W        W52304  24.489  41.824  12.710
83911W        W52305  37.099  27.056  14.544
83912W        W52306   1.217  30.918   3.681
83913W        W52307  36.819  24.559  12.079
83914W        W52308  10.647  15.488   0.476
83915W        W52309  33.251  28.309   5.076
83916W        W52310  20.601  14.778  12.925
83917W        W52311   9.277   2.280  11.028
83918W        W52312  15.306  30.470   2.033
83919W        W52313  11.639  34.619  11.611
83920W        W52314  11.481  41.609  12.202
83921W        W52315  18.278  23.603   0.924
83922W        W52316  16.558  43.990  10.647
83923W        W52317  23.298  31.508  14.281
83924W        W52318  35.650  10.311   5.035
83925W        W52319  24.977   8.257   4.854
83926W        W52320  25.079  25.538   0.301
83927W        W52321  16.865  34.503   4.866
83928W        W52322  29.441  32.064   4.188
83929W        W52323  32.577  42.182  13.822
83930W        W52324  13.225  36.365   1.324
83931W        W52325  37.968  16.727   2.199
83932W        W52326  32.549   9.874   4.518
83933W        W52327  35.449  12.083  10.571
83934W        W52328  35.655  14.830  11.977
83935W        W52329  33.680  36.867  11.459
83936W        W52330  21.989  19.121   1.749
83937W        W52331  42.096  11.072   2.908
83938W        W52332  29.316  18.620   1.816
83939W        W52333  14.609   2.527   0.680
83940W        W52334  15.422  37.582   3.699
83941W        W52335   0.817  41.806  14.745
83942W        W52336  41.935  21.173   4.475
83943W        W52337  19.564  10.156  14.867
83944W        W52338  43.971  36.521  11.659
83945W        W52339  29.449  12.327   1.612
83946W        W52340  33.896  39.094   3.240
83947W        W52341  27.010  10.520   1.196
83948W        W52342  30.388  31.378   1.388
83949W        W52343   0.657  35.862   1.355
83950W        W52344  34.422  30.678  10.967
83951W        W52345  27.644  18.083  13.919
83952W        W52346  38.228  44.316  12.551
83953W        W52347  14.180  33.616  10.735
83954W        W52348  37.151  38.340   1.441
83955W        W52349  11.664  42.836   0.657
83956W        W52350  34.022  31.098  11.906
83957W        W52351  10.619  21.264   4.550
83958W        W52352  33.135  28.035   0.136
83959W        W52353   1.254  11.838  14.241
83960W        W52354  37.187   0.947   2.365
83961W        W52355  17.943   7.098   2.645
83962W        W52356   9.720  42.302  11.229
83963W        W52357  14.048  24.071   4.945
83964W        W52358  16.560  12.865   0.274
83965W        W52359  12.801  40.924   0.468
83966W        W52360   2.537  19.815  13.363
83967W        W52361  28.857   9.702   0.677
83968W        W52362  17.554  12.611  13.305
83969W        W52363  15.117  38.560   1.383
83970W        W52364  35.390  33.379   1.743
83971W        W52365  30.519  15.786  11.440
83972W        W52366   0.866  29.719   0.785
83973W        W52367   7.764  10.755   3.148
83974W        W52368  30.882   8.121  11.222
83975W        W52369  22.263  11.850  13.416
83976W        W52370  15.642  31.082   0.361
83977W        W52371  30.971  26.798  12.221
83978W        W52372  17.659  30.724  11.484
83979W        W52373   5.344  19.740   3.203
83980W        W52374  17.565  22.611   0.463
83981W        W52375  41.446  21.147   4.377
83982W        W52376  31.575  36.867  12.871
83983W        W52377  24.012  41.172  13.478
83984W        W52378  24.857   1.388  12.896
83985W        W52379  38.989   3.207   0.952
83986W        W52380   8.157   6.648   3.378
83987W        W52381  28.147  35.856  10.436
83988W        W52382  35.987  40.884   4.823
83989W        W52383  26.534  35.074   3.059
83990W        W52384  26.983  38.855  13.953
83991W        W52385  33.912   9.205  11.628
83992W        W52386  13.394  37.387  10.710
83993W        W52387  31.186  32.661  10.772
83994W        W52388   4.505  11.563  12.013
83995W        W52389  11.204  18.264  13.010
83996W        W52390  18.350   0.656   2.589
83997W        W52391  39.198  29.431   0.930
83998W        W52392  23.872  32.476   1.291
83999W        W52393  28.690  13.570   1.297
84000W        W52394  14.573  17.669   0.915
84001W        W52395  24.191  22.456  12.010
84002W        W52396   5.715  27.418   3.351
84003W        W52397  29.739   2.396   1.929
84004W        W52398  28.567  22.479   1.268
84005W        W52399  41.992  18.702   4.932
84006W        W52400  36.361  24.949  11.710
84007W        W52401  43.313  26.218   0.640
84008W        W52402  43.458  38.190   0.372
84009W        W52403   5.393  10.775  12.061
84010W        W52404  32.703  42.777  10.165
84011W        W52405  13.816  22.279   3.401
84012W        W52406   6.670  23.633   1.288
84013W        W52407  21.465  31.782  13.512
84014W        W52408  35.467   7.319  14.034
84015W        W52409  31.987   9.849   3.666
84016W        W52410   1.507  36.923   0.326
84017W        W52411  32.601  21.932  14.782
84018W        W52412  35.606  23.116  12.493
84019W        W52413  23.873   1.921  11.393
84020W        W52414  21.147  18.367  12.003
84021W        W52415  29.895  36.003   2.783
84022W        W52416   0.182   4.923  13.551
84023W        W52417  31.617   2.731  12.485
84024W        W52418  39.903  11.951  10.601
84025W        W52419  33.573  13.937   0.878
84026W        W52420  18.809   4.895  12.428
84027W        W52421   2.474  21.419   1.357
84028W        W52422  20.896  26.135  12.507
84029W        W52423   4.396   8.263  11.914
84030W        W52424   3.765  12.626   0.134
84031W        W52425  44.923  28.018  12.352
84032W        W52426  37.650  19.698   1.158
84033W        W52427  24.520  27.832   3.555
84034W        W52428  39.808  22.992  14.437
84035W        W52429  30.842  34.589  11.626
84036W        W52430   2.845  30.457   1.841
84037W        W52431  20.026  30.039   5.615
84038W        W52432  25.434  15.660  13.886
84039W        W52433  38.820  29.785   4.254
84040W        W52434  32.948  38.026   4.672
84041W        W52435  19.456   8.462  11.700
84042W        W52436  33.556  30.016   4.666
84043W        W52437   3.324  21.709  11.483
84044W        W52438  29.881   1.907   0.834
84045W        W52439  34.480  32.109  14.108
84046W        W52440  36.891  25.735  14.033
84047W        W52441   9.051  25.449  12.152
84048W        W52442   4.247  40.583  12.954
84049W        W52443  18.564  26.672   2.250
84050W        W52444  25.935  26.939  10.619
84051W        W52445   1.338  32.622   3.215
84052W        W52446  19.927  11.834   4.926
84053W        W52447  37.589  10.477   3.885
84054W        W52448   9.332   0.373   2.389
84055W        W52449  30.078  43.357  14.465
84056W        W52450  27.784  11.144   3.572
84057W        W52451  40.318  17.787  14.758
84058W        W52452  37.078  21.333  12.077
84059W        W52453  29.101   2.705   4.095
84060W        W52454   2.105   8.696   1.061
84061W        W52455  15.826   2.378  12.915
84062W        W52456  43.729  14.652  14.868
84063W        W52457  10.035  15.260   4.822
84064W        W52458  26.273  21.764   4.114
84065W        W52459   2.772  14.361  13.442
84066W        W52460  25.641  36.212   4.520
84067W        W52461   6.693   0.604   0.967
84068W        W52462  10.480  44.820   2.686
84069W        W52463  17.849   0.503   2.621
84070W        W52464   7.263  24.759  13.432
84071W        W52465   6.880  13.807   1.842
84072W        W52466  14.943  25.755   3.553
84073W        W52467  18.784   4.272   2.242
84074W        W52468  24.725  29.632   1.303
84075W        W52469  42.446   2.314  11.100
84076W        W52470  23.058  35.174  11.552
84077W        W52471  18.754   0.459   4.179
84078W        W52472  34.451  33.525   0.768
84079W        W52473  41.317  18.235   0.693
84080W        W52474  25.141   6.113  13.837
84081W        W52475  22.050   9.235   0.789
84082W        W52476  35.857  44.762   1.026
84083W        W52477   8.130  19.934  10.554
84084W        W52478  20.306  27.744   2.593
84085W        W52479  39.556  13.841   1.279
84086W        W52480   1.740  26.043  14.823
84087W        W52481  32.919  35.882   2.776
84088W        W52482  38.428  32.145   1.902
84089W        W52483  38.963  13.571  12.016
84090W        W52484  21.842  40.778  14.725
84091W        W52485  37.363  10.363  14.793
84092W        W52486   0.756   1.150   3.914
84093W        W52487  28.437  32.335  13.466
84094W        W52488   3.425  31.941   0.336
84095W        W52489   0.815  36.072   2.284
84096W        W52490   4.657  26.307  11.646
84097W        W52491  31.356  33.336   3.268
84098W        W52492  36.918  44.136  12.341
84099W        W52493  16.803  24.105  11.567
84100W        W52494  19.411  26.509  14.400
84101W        W52495  34.606  25.337   3.272
84102W        W52496  17.908   2.989  11.007
84103W        W52497   8.203   4.433  12.992
84104W        W52498  19.130  14.588   0.716
84105W        W52499  39.483   2.446   1.918
84106W        W52500  33.688  42.295  11.143
84107W        W52501  14.599  23.360   1.868
84108W        W52502  40.494   3.228  11.643
84109W        W52503  28.533  22.432  13.149
84110W        W52504  39.768   6.734  12.006
84111W        W52505  37.818  14.660  10.106
84112W        W52506  10.932  21.869   4.288
84113W        W52507   4.832  30.577  14.022
84114W        W52508  28.349  35.486  11.099
84115W        W52509   9.337   8.090   4.125
84116W        W52510  32.438  27.611   0.582
84117W        W52511  35.077  13.097   4.784
84118W        W52512  24.588  33.485  14.957
84119W        W52513  13.664  31.324  12.048
84120W        W52514   0.376  17.542   4.181
84121W        W52515  44.847  25.957  10.538
84122W        W52516  14.074  25.151  14.366
84123W        W52517  25.266   5.721   2.756
84124W        W52518  41.108  43.213  14.062
84125W        W52519  42.514  16.665  13.461
84126W        W52520   1.987  30.079  11.415
84127W        W52521  18.361  37.909   0.242
84128W        W52522   3.912   2.516  12.914
84129W        W52523  21.221  27.870   1.298
84130W        W52524  39.609  35.706   3.280
84131W        W52525  26.697  39.998   1.300
84132W        W52526  24.115  33.426  14.781
84133W        W52527  39.770  41.016  11.440
84134W        W52528  21.353  24.686   2.713
84135W        W52529   4.347  40.407  11.973
84136W        W52530  18.731  29.990   1.688
84137W        W52531  43.502  26.550   0.250
84138W        W52532   4.230  17.515  12.975
84139W        W52533  34.652  21.323  14.922
84140W        W52534  44.731  39.393   3.244
84141W        W52535  31.384  37.501  13.292
84142W        W52536  19.364  12.668   4.052
84143W        W52537  11.058  19.004  12.891
84144W        W52538  20.981   0.807  13.279
84145W        W52539   1.343  14.141  12.360
84146W        W52540  16.361   4.003   3.318
84147W        W52541   4.996  26.991   9.745
84148W        W52542   2.774  43.080   1.226
84149W        W52543  24.929  21.233   4.528
84150W        W52544  11.967  28.429   2.734
84151W        W52545  21.312  27.025  12.939
84152W        W52546  25.944   2.280   1.785
84153W        W52547  13.851   7.408  11.697
84154W        W52548  33.492  31.160  10.696
84155W        W52549  28.149  38.285   3.902
84156W        W52550  14.270  35.567   4.780
84157W        W52551  11.377  11.020  14.782
84158W        W52552  11.465  37.339   2.332
84159W        W52553   5.915  34.116  13.881
84160W        W52554  37.475  17.494  11.878
84161W        W52555  26.254  13.969   4.054
84162W        W52556  25.832  24.435  11.602
84163W        W52557  23.423  32.170  12.956
84164W        W52558  27.440   7.383   3.823
84165W        W52559  42.905  24.311   4.876
84166W        W52560  19.063   7.171   3.658
84167W        W52561  26.059  31.454   0.530
84168W        W52562  36.541   2.919  10.491
84169W        W52563  36.157   6.801  14.628
84170W        W52564   8.827   5.993   1.321
84171W        W52565   3.328  12.204  12.558
84172W        W52566   1.676  34.456   2.372
84173W        W52567  37.448  22.160   2.791
84174W        W52568  17.147  19.840   0.280
84175W        W52569  18.710  35.900  10.403
84176W        W52570  36.366   5.530  10.639
84177W        W52571  19.945  10.109   3.328
84178W        W52572  13.301   4.402  13.695
84179W        W52573  31.637   3.311  13.200
84180W        W52574  42.132   4.449  14.167
84181W        W52575  27.543  43.895   1.132
84182W        W52576  42.841   1.916   3.508
84183W        W52577  32.963  43.230  13.020
84184W        W52578  33.083  12.193   3.441
84185W        W52579  38.058  24.730  13.935
84186W        W52580  25.627  42.024   3.220
84187W        W52581  14.038  26.964   0.454
84188W        W52582  27.666  21.198  11.951
84189W        W52583  36.760   1.198   3.757
84190W        W52584  31.137   4.717  11.659
84191W        W52585  32.526   2.962   4.843
84192W        W52586  42.970  43.994   0.819
84193W        W52587   3.691   3.297   1.840
84194W        W52588  28.560  17.293  12.669
84195W        W52589   3.304  36.477   0.397
84196W        W52590  29.637  36.129  11.916
84197W        W52591  28.741  19.147  11.523
84198W        W52592   8.392  23.175  14.267
84199W        W52593  26.134  31.972   0.514
84200W        W52594  18.651  28.703  11.194
84201W        W52595   2.613  27.591  12.879
84202W        W52596  16.212  16.662  10.024
84203W        W52597  44.752  34.812   1.381
84204W        W52598   5.507  25.638   0.385
84205W        W52599  27.424  13.817  13.365
84206W        W52600  37.811  39.893  14.743
84207W        W52601  11.129  14.583  12.303
84208W        W52602  10.562  25.954  12.828
84209W        W52603  24.347  11.918   4.553
84210W        W52604   5.800  21.508  12.976
84211W        W52605  13.110  21.019  11.718
84212W        W52606  39.313  16.125  14.913
84213W        W52607  22.629  13.115  14.797
84214W        W52608  42.569  32.473  11.083
84215W        W52609  25.667  24.551   4.091
84216W        W52610  28.504  29.532   3.595
84217W        W52611  35.089   9.174   3.887
84218W        W52612  36.908  34.011  14.392
84219W        W52613  12.317   7.437  11.034
84220W        W52614  28.687  14.545   1.232
84221W        W52615  44.573  35.018  12.692
84222W        W52616  22.209  34.409  14.358
84223W        W52617  23.655   3.296   4.544
84224W        W52618  28.586  19.471   0.840
84225W        W52619  35.536   0.894   0.397
84226W        W52620  39.740   7.711  12.673
84227W        W52621  22.031  11.386   5.347
84228W        W52622  31.001  40.398   3.335
84229W        W52623  22.696  23.989  14.365
84230W        W52624  22.093   8.666   3.796
84231W        W52625  24.823   2.405  13.298
84232W        W52626  37.467  12.239   3.084
84233W        W52627  20.837  12.855  12.996
84234W        W52628  12.533  22.747  10.760
84235W        W52629  33.477  28.127   1.335
84236W        W52630  29.135   1.188   0.941
84237W        W52631  19.334   1.005   0.827
84238W        W52632  39.249  30.020  13.904
84239W        W52633  15.263  16.989  11.658
84240W        W52634  17.525  35.874  14.427
84241W        W52635   6.768  29.526   0.537
84242W        W52636   7.723  44.385   0.074
84243W        W52637   3.892  40.397  13.316
84244W        W52638  27.048  43.529  13.975
84245W        W52639   7.526  42.452  10.691
84246W        W52640  33.042  33.861  14.983
84247W        W52641  34.367  35.614   1.215
84248W        W52642   1.941  13.700  14.470
84249W        W52643  39.952  18.028  13.092
84250W        W52644  21.296  16.287   4.284
84251W        W52645  29.735  37.664  12.935
84252W        W52646  14.342   0.875   4.568
84253W        W52647  33.426  31.537  12.991
84254W        W52648  25.754  44.115  11.118
84255W        W52649  27.781  41.522  11.144
84256W        W52650  38.053   7.046   0.655
84257W        W52651  15.306  15.618   4.223
84258W        W52652  35.441  24.830  14.841
84259W        W52653  16.226  32.477  11.977
84260W        W52654  22.264   6.809   1.931
84261W        W52655   9.797  10.686  11.291
84262W        W52656  40.361  12.368   1.854
84263W        W52657  33.306   7.875  12.860
84264W        W52658  44.167  27.624   3.541
84265W        W52659   1.461  17.807  10.675
84266W        W52660  25.602  43.296  13.988
84267W        W52661  38.536  32.126  14.974
84268W        W52662  19.034  26.139  13.416
84269W        W52663  39.734  28.544   2.255
84270W        W52664  43.910  23.168   2.144
84271W        W52665  21.808   7.639   4.501
84272W        W52666   1.649  30.594   0.027
84273W        W52667  25.816   5.240   3.179
84274W        W52668  14.359  18.490   1.711
84275W        W52669   1.845   0.308  10.891
84276W        W52670   4.050   8.445  14.022
84277W        W52671  33.125   3.581  13.011
84278W        W52672  19.572  29.162  14.952
84279W        W52673  11.759   2.941  12.629
84280W        W52674  31.630  23.118  10.721
84281W        W52675  30.769  32.382  10.715
84282W        W52676   1.744  39.797  12.582
84283W        W52677  23.113   5.820   2.473
84284W        W52678  32.455  28.909   3.282
84285W        W52679  44.039  29.544  11.080
84286W        W52680  18.725  13.919  13.968
84287W        W52681  23.227   7.898  11.905
84288W        W52682  32.067  21.040   1.663
84289W        W52683  15.799  32.984  11.503
84290W        W52684  42.210  44.859   1.635
84291W        W52685  36.036  42.905  12.955
84292W        W52686   3.680  38.902  11.671
84293W        W52687   1.023  30.953   2.378
84294W        W52688  16.231  36.400   0.052
84295W        W52689  20.020  17.094   1.018
84296W        W52690   6.503  23.518   0.346
84297W        W52691  40.274  20.294  10.826
84298W        W52692  26.952   3.944  11.562
84299W        W52693  10.462  27.834   5.022
84300W        W52694  35.628  43.935  10.625
84301W        W52695  34.298   3.256  12.383
84302W        W52696  23.643   9.571   3.608
84303W        W52697   0.410  38.628  10.598
84304W        W52698  31.450  28.720   2.946
84305W        W52699  42.412  38.886  12.071
84306W        W52700  34.199  23.456   2.206
84307W        W52701  28.243  40.610   9.838
84308W        W52702   7.820  43.401  12.569
84309W        W52703   6.457  11.718   1.224
84310W        W52704  17.537  26.077  10.857
84311W        W52705  26.738   1.879   3.594
84312W        W52706  13.663  32.420   1.531
84313W        W52707  13.377  11.958  11.981
84314W        W52708  29.638  16.850   3.405
84315W        W52709  12.613  26.095  13.805
84316W        W52710   6.493   2.847   0.670
84317W        W52711  27.212  21.019  14.785
84318W        W52712  26.072  35.471   1.004
84319W        W52713  38.094  39.009  12.505
84320W        W52714   9.384   1.013   3.284
84321W        W52715  43.766  43.802   2.812
84322W        W52716   4.284  37.364  12.077
84323W        W52717  25.125  29.683   1.976
84324W        W52718  17.098  29.158   1.018
84325W        W52719  17.650  20.389  13.301
84326W        W52720  40.604  22.187   3.463
84327W        W52721  41.750  22.274  10.732
84328W        W52722  20.970  21.046   2.080
84329W        W52723   8.823  31.425   2.238
84330W        W52724  38.242   3.631   1.909
84331W        W52725  12.815  15.658  11.386
84332W        W52726  21.651  16.484  12.024
84333W        W52727  22.101   7.260   0.739
84334W        W52728  33.908  15.192   1.413
84335W        W52729  17.624  36.939   3.799
84336W        W52730  35.852  22.659  12.450
84337W        W52731  18.309  30.807  14.352
84338W        W52732  40.536  39.010  12.542
84339W        W52733  21.251  44.411   1.871
84340W        W52734  28.749  42.263   1.381
84341W        W52735  16.686  36.990   1.787
84342W        W52736  31.665  39.194  11.051
84343W        W52737   2.424  18.252   2.840
84344W        W52738  11.719  37.182  12.360
84345W        W52739  44.554  40.242   3.722
84346W        W52740  12.427  36.471  13.979
84347W        W52741  10.753  12.109   3.738
84348W        W52742   2.245   8.230  14.439
84349W        W52743   4.085  16.114  14.819
84350W        W52744  28.920  35.948   2.891
84351W        W52745  11.345  15.685   3.099
84352W        W52746   3.895   0.250   1.862
84353W        W52747  42.356  25.317   2.734
84354W        W52748  28.211  42.218   3.741
84355W        W52749  13.341  13.610   2.895
84356W        W52750  13.489  34.683   1.839
84357W        W52751  29.589  44.034  10.992
84358W        W52752  30.278  22.541   5.111
84359W        W52753  12.872  29.458   3.691
84360W        W52754  20.175  10.622   1.494
84361W        W52755   3.950  16.692   0.865
84362W        W52756  17.611  18.233  13.519
84363W        W52757  32.904  41.876  12.925
84364W        W52758  18.092  20.099   2.810
84365W        W52759  26.194  36.466   4.600
84366W        W52760  20.075  35.712   3.131
84367W        W52761  20.108  13.698  12.031
84368W        W52762  12.306  10.431  11.869
84369W        W52763  23.177  32.597   0.487
84370W        W52764  24.059  14.914  13.581
84371W        W52765  10.056  17.132   4.105
84372W        W52766  29.834  19.685  13.450
84373W        W52767  19.881  43.356  13.340
84374W        W52768   1.850  37.868  13.310
84375W        W52769  39.808  14.392  12.902
84376W        W52770   7.197   7.922  10.681
84377W        W52771  38.107  19.165  11.836
84378W        W52772  22.957  41.400  12.096
84379W        W52773   3.184  36.320  14.908
84380W        W52774   0.735  36.929  13.236
84381W        W52775  35.220  22.858  11.635
84382W        W52776  13.208  27.511   4.073
84383W        W52777  39.925  33.076   4.731
84384W        W52778  18.069  13.057  10.847
84385W        W52779   7.752   1.474   2.430
84386W        W52780  43.965  25.252  12.520
84387W        W52781  38.406  36.341  14.017
84388W        W52782  28.368  25.508  14.774
84389W        W52783  11.823  40.938  13.613
84390W        W52784  36.402  28.931  14.312
84391W        W52785  25.822  20.162   1.761
84392W        W52786   2.712  16.636  11.960
84393W        W52787  34.539  22.665   4.041
84394W        W52788  32.912  43.819   3.792
84395W        W52789  44.045  22.668  13.479
84396W        W52790   9.849  40.493   0.912
84397W        W52791  31.833  17.194   0.113
84398W        W52792  36.084  21.098   4.682
84399W        W52793  35.557  25.123   4.198
84400W        W52794  38.404  22.806   1.822
84401W        W52795   4.794  27.510   4.441
84402W        W52796   8.637  30.689   2.669
84403W        W52797  33.407   7.786   3.364
84404W        W52798  35.339   7.871   1.370
84405W        W52799  41.936  15.467  13.337
84406W        W52800   8.170   0.865  10.439
84407W        W52801  36.748  36.940   1.327
84408W        W52802  13.521  26.978   0.394
84409W        W52803  11.363  22.703  13.510
84410W        W52804  12.265  40.422  10.660
84411W        W52805  44.598   9.667  12.295
84412W        W52806  27.622   4.749  11.561
84413W        W52807  28.484  13.916  10.751
84414W        W52808  26.127  36.011  10.781
84415W        W52809  37.630   9.153   0.688
84416W        W52810  16.626  26.838  12.067
84417W        W52811  28.138   9.945   4.759
84418W        W52812   2.006   6.360   4.331
84419W        W52813  44.952  43.082  14.909
84420W        W52814  20.522   8.739   3.508
84421W        W52815   4.011   2.323  13.838
84422W        W52816  26.368  22.236  14.452
84423W        W52817   3.499  22.612  13.450
84424W        W52818   7.380  18.105   1.807
84425W        W52819  41.987  39.339  11.159
84426W        W52820   1.018  42.909  12.553
84427W        W52821  35.605  29.373   1.210
84428W        W52822   6.911   6.910   9.892
84429W        W52823  12.810  10.267  11.878
84430W        W52824  19.118  23.986   1.263
84431W        W52825  24.611  43.347   3.517
84432W        W52826  42.156  37.779  13.553
84433W        W52827  25.007   5.264   4.553
84434W        W52828   4.237   1.724  11.098
84435W        W52829   2.161   6.753   4.015
84436W        W52830  42.634  37.644  13.397
84437W        W52831  32.869   2.735   2.953
84438W        W52832  19.283  10.843  14.422
84439W        W52833  44.314  11.905  10.733
84440W        W52834   0.341   0.959   4.170
84441W        W52835  11.663   7.800   4.405
84442W        W52836  34.308  25.602  11.416
84443W        W52837  14.753  35.741   0.818
84444W        W52838  21.856  35.516   3.695
84445W        W52839  18.050  20.188   5.190
84446W        W52840   6.444  25.474  13.762
84447W        W52841  11.330  23.858   0.361
84448W        W52842   5.990   7.687  10.715
84449W        W52843  36.825   0.432  13.501
84450W        W52844  43.464  11.363  13.570
84451W        W52845  33.372  17.759  14.448
84452W        W52846  23.618  33.431  14.951
84453W        W52847  10.822   3.994   3.360
84454W        W52848  19.579  37.478  13.925
84455W        W52849  40.472   0.249   3.817
84456W        W52850  43.820  44.672   1.891
84457W        W52851  22.228  16.111   3.833
84458W        W52852  38.461  42.181  12.120
84459W        W52853  29.487  40.535   1.516
84460W        W52854   0.180  29.000   2.641
84461W        W52855  32.014  34.982  13.347
84462W        W52856   9.117  33.591  10.783
84463W        W52857   1.245  44.488  13.422
84464W        W52858  14.213   4.471  11.122
84465W        W52859  42.905   9.934   1.796
84466W        W52860  31.034  40.020   3.832
84467W        W52861  39.991  19.756  14.331
84468W        W52862   7.954  27.585   3.141
84469W        W52863  38.698  27.208  14.553
84470W        W52864  15.570  44.884   3.375
84471W        W52865   1.231  31.203  10.895
84472W        W52866  24.154  38.586  13.529
84473W        W52867  25.004  34.153   0.387
84474W        W52868  36.909  31.092  11.427
84475W        W52869   8.263   8.589   1.504
84476W        W52870  29.434  30.455   0.822
84477W        W52871   8.172  22.547  12.372
84478W        W52872  39.461  35.523  10.428
84479W        W52873   9.617  20.157   2.216
84480W        W52874  35.003  38.515   1.861
84481W        W52875  14.085  42.940   3.643
84482W        W52876  20.806  31.906   0.399
84483W        W52877  10.794   2.793   3.690
84484W        W52878  41.091  14.250   1.922
84485W        W52879  34.207  44.316   1.604
84486W        W52880  15.679  42.771   1.340
84487W        W52881  23.003  18.746   0.391
84488W        W52882  28.549   5.941  10.996
84489W        W52883   1.911  44.943   3.821
84490W        W52884  38.492  28.267   0.414
84491W        W52885  12.619  25.752   2.870
84492W        W52886  21.759  29.636   1.720
84493W        W52887  40.795  32.197  12.510
84494W        W52888   6.067  19.060  12.210
84495W        W52889   8.320  24.154  11.110
84496W        W52890  33.167  35.484  11.046
84497W        W52891  22.275  35.279  13.401
84498W        W52892  43.217  16.291  14.732
84499W        W52893  15.177  14.677  13.814
84500W        W52894  16.699  35.485   0.127
84501W        W52895  36.667   6.326  11.044
84502W        W52896  37.794   1.408   2.298
84503W        W52897  29.142  28.373  13.822
84504W        W52898   9.649  28.550   1.526
84505W        W52899  19.707  19.258   0.332
84506W        W52900  29.567  21.556  14.076
84507W        W52901   4.747  39.789   2.908
84508W        W52902  17.709  15.403  12.565
84509W        W52903  42.054  44.257  13.067
84510W        W52904   5.806   9.576   2.689
84511W        W52905   8.353   0.455   1.896
84512W        W52906  15.591  39.235   3.295
84513W        W52907   9.524  43.477   4.704
84514W        W52908  24.250  12.018   9.848
84515W        W52909  39.828  17.216  12.616
84516W        W52910  32.438  29.934   4.139
84517W        W52911  30.643  27.303   2.457
84518W        W52912   0.721   8.623  10.994
84519W        W52913  44.185   4.078  11.679
84520W        W52914  36.369   5.760  14.539
84521W        W52915  34.496  15.734  14.140
84522W        W52916  19.999  15.772   3.677
84523W        W52917  21.702  34.928   3.705
84524W        W52918  17.148  37.626  13.523
84525W        W52919  32.531  14.650  14.905
84526W        W52920  21.024   8.099   4.945
84527W        W52921  43.176   6.590  14.806
84528W        W52922   4.475  24.581   1.409
84529W        W52923  27.971  37.999  11.420
84530W        W52924  17.619   1.827   4.884
84531W        W52925  18.133   1.925   4.927
84532W        W52926  27.185  20.836   1.758
84533W        W52927  24.623  40.575   2.389
84534W        W52928  19.534   0.066   2.038
84535W        W52929  39.494  22.992   0.043
84536W        W52930  43.814  36.854  11.090
84537W        W52931  43.523  36.612  14.048
84538W        W52932   7.011  14.333   3.938
84539W        W52933   2.502   2.215  10.704
84540W        W52934  25.605  16.861  13.437
84541W        W52935   5.071   5.011   4.020
84542W        W52936  32.584  30.966  11.513
84543W        W52937  44.728  32.545   0.732
84544W        W52938  18.825  38.126  12.089
84545W        W52939   8.803  44.495   3.706
84546W        W52940  40.561  32.983   0.355
84547W        W52941  35.819  26.284   5.320
84548W        W52942  44.867  17.714   4.249
84549W        W52943  41.990  25.422  10.772
84550W        W52944  10.777  30.593  10.738
84551W        W52945   9.455  12.556  14.520
84552W        W52946   5.662   7.383  10.977
84553W        W52947  39.423  42.789  11.187
84554W        W52948  14.614   5.272   0.302
84555W        W52949  15.806  31.927  14.321
84556W        W52950  31.622  35.482  13.989
84557W        W52951  33.762  33.059   4.971
84558W        W52952  20.869  35.935  13.577
84559W        W52953  17.672  15.266   4.890
84560W        W52954  40.600   4.717   1.213
84561W        W52955  29.432  31.427  12.382
84562W        W52956  25.921  18.054   4.138
84563W        W52957  12.763  41.786  12.484
84564W        W52958  19.809  38.435   0.438
84565W        W52959  36.435   8.858  14.447
84566W        W52960  33.636   4.639  14.100
84567W        W52961  11.672  37.919  13.061
84568W        W52962  22.537  28.552   1.935
84569W        W52963  26.707  43.898   0.549
84570W        W52964  37.906  34.501  10.671
84571W        W52965  18.530  38.551   3.151
84572W        W52966  28.150  42.978   0.989
84573W        W52967  19.679  44.909   3.327
84574W        W52968  17.167  44.799  11.707
84575W        W52969  36.549  18.509   4.600
84576W        W52970  20.743   0.025   0.462
84577W        W52971  21.676  28.076   4.087
84578W        W52972  34.547  10.311  11.835
84579W        W52973  26.781  37.147   4.585
84580W        W52974  35.121  43.988  14.726
84581W        W52975   1.204  24.972   0.912
84582W        W52976  25.120  43.053  13.077
84583W        W52977   6.322  20.347   0.003
84584W        W52978  17.497  28.514   2.568
84585W        W52979   9.141   5.157   0.402
84586W        W52980  35.418   6.268   3.757
84587W        W52981  21.742   0.687  11.212
84588W        W52982   7.374   9.177   3.135
84589W        W52983  16.065   5.812  13.624
84590W        W52984   7.320  14.658   5.448
84591W        W52985  44.706   5.267  11.958
84592W        W52986  39.489  15.965   9.725
84593W        W52987   5.748   3.982  11.503
84594W        W52988  38.599  43.410  14.596
84595W        W52989  24.663  38.051  12.111
84596W        W52990  35.399   0.530  12.453
84597W        W52991  35.218  31.445   1.483
84598W        W52992   9.878   4.350  11.205
84599W        W52993  31.062  14.585   1.780
84600W        W52994  13.731  36.968  13.088
84601W        W52995  22.772  18.145   4.946
84602W        W52996  41.265  14.428  11.958
84603W        W52997   8.877  16.186   4.519
84604W        W52998   2.816  24.678   2.902
84605W        W52999  34.546  41.749   1.455
84606W        W53000   8.655  44.422   1.195
84607W        W53001   6.429   6.264   2.768
84608W        W53002  43.039  22.092   2.771
84609W        W53003  19.738  17.469  11.838
84610W        W53004  40.783  30.156   1.913
84611W        W53005   9.718  44.778  12.344
84612W        W53006  34.309  36.481   1.616
84613W        W53007  10.732  10.698  11.426
84614W        W53008   9.306   7.414   4.914
84615W        W53009  12.807  31.635   4.743
84616W        W53010  30.524   0.396   0.200
84617W        W53011  39.014   0.072   4.104
84618W        W53012  12.232  39.562  12.627
84619W        W53013   1.494  13.922   5.086
84620W        W53014  27.083  31.078  13.503
84621W        W53015  20.128  34.685   4.019
84622W        W53016   0.908  22.688  10.712
84623W        W53017  43.501  20.256   2.705
84624W        W53018  26.550  10.302   4.141
84625W        W53019  13.955  19.810   3.351
84626W        W53020  44.240  11.476   0.743
84627W        W53021  13.087   5.649   1.984
84628W        W53022   2.986  26.661  11.380
84629W        W53023  41.428  32.584  13.243
84630W        W53024   7.776   5.916   1.879
84631W        W53025  17.829  43.263   2.254
84632W        W53026  41.107  32.958  13.709
84633W        W53027  20.205  13.130   4.654
84634W        W53028  42.870  38.787   2.287
84635W        W53029  29.222  38.405   0.246
84636W        W53030  33.102  11.531   2.501
84637W        W53031  19.186  41.553   4.072
84638W        W53032  43.857  44.901   3.262
84639W        W53033  15.917  21.357   5.072
84640W        W53034  18.767   8.746  12.457
84641W        W53035  44.929  36.918  12.559
84642W        W53036  16.093  22.626   1.923
84643W        W53037  27.492   2.226   5.432
84644W        W53038  29.350  12.753  14.356
84645W        W53039  20.164   2.427  14.246
84646W        W53040  40.186  12.279  12.976
84647W        W53041  42.397  19.497  12.672
84648W        W53042   1.817  27.044   0.266
84649W        W53043  36.324  39.943  12.910
84650W        W53044  36.915  22.021   0.660
84651W        W53045   4.986   7.208  13.423
84652W        W53046  38.776  16.546  11.165
84653W        W53047   4.852   9.779  13.783
84654W        W53048  38.305  37.452   1.776
84655W        W53049  31.480  21.884  13.409
84656W        W53050   4.168  44.339  11.389
84657W        W53051  20.035  10.593  12.301
84658W        W53052   1.283  23.545   3.710
84659W        W53053  24.087   9.094  13.942
84660W        W53054  30.721  23.325  14.390
84661W        W53055  17.503  30.633   0.453
84662W        W53056   3.994  44.468   3.302
84663W        W53057   1.524  23.063  13.363
84664W        W53058  19.629  42.269  14.474
84665W        W53059  40.308   7.340  14.946
84666W        W53060   3.793   8.282  11.084
84667W        W53061   3.642  27.726  12.961
84668W        W53062   6.802   8.854   2.146
84669W        W53063  44.324   8.652   1.022
84670W        W53064   1.346  39.378   3.725
84671W        W53065  15.098   0.041  10.901
84672W        W53066   1.717  38.553   4.044
84673W        W53067  17.328  43.541  14.898
84674W        W53068   7.971  35.470  10.328
84675W        W53069   0.265  43.763  12.527
84676W        W53070  12.256  14.717  11.581
84677W        W53071  41.468  23.981   4.246
84678W        W53072  37.388   9.088  10.766
84679W        W53073  22.962   8.762  12.450
84680W        W53074  33.129   6.768  13.580
84681W        W53075  38.863   1.468  12.017
84682W        W53076  35.045  14.458   4.746
84683W        W53077  31.878  16.056  13.157
84684W        W53078  17.097  18.721  14.370
84685W        W53079  25.124  14.670  13.470
84686W        W53080  42.882   2.703   2.209
84687W        W53081   4.237  41.912  10.735
84688W        W53082   8.878  18.991  14.240
84689W        W53083  34.390   0.892  10.748
84690W        W53084  27.453  17.892   3.628
84691W        W53085  17.653  14.102   4.536
84692W        W53086  22.196  17.409  11.389
84693W        W53087   2.486  20.220   2.286
84694W        W53088   3.801  25.062  14.699
84695W        W53089  28.637   1.973   3.552
84696W        W53090  30.377  42.968   1.429
84697W        W53091   9.068  26.991  13.997
84698W        W53092  36.014  31.247   3.311
84699W        W53093  23.856  39.501  12.543
84700W        W53094  43.672  19.698   1.377
84701W        W53095  15.114   5.590  14.616
84702W        W53096  22.623  39.922  12.168
84703W        W53097   1.302  16.371   2.757
84704W        W53098  27.501  43.835  11.478
84705W        W53099  26.744  14.317   4.707
84706W        W53100  37.978   7.752  13.061
84707W        W53101   1.911  44.740  11.515
84708W        W53102  26.751  14.154  14.319
84709W        W53103  15.100  40.009  14.801
84710W        W53104   3.501  40.208   2.953
84711W        W53105  35.919  18.208  13.603
84712W        W53106  17.173   9.114   1.758
84713W        W53107   8.980  12.618   3.700
84714W        W53108   6.524  37.622   1.163
84715W        W53109   5.272  15.072   3.660
84716W        W53110  30.796  10.076   3.382
84717W        W53111  12.589  36.972  13.896
84718W        W53112  41.526  20.124  11.261
84719W        W53113  19.741  14.840  12.365
84720W        W53114  13.186  11.862  11.116
84721W        W53115  28.889  23.644   0.407
84722W        W53116  36.030  29.007  12.324
84723W        W53117   0.894   4.640   3.198
84724W        W53118  14.197  44.723   3.256
84725W        W53119   6.204  13.327  13.851
84726W        W53120  21.938  43.991  14.988
84727W        W53121   1.000  41.805  11.497
84728W        W53122   4.994  15.355   1.325
84729W        W53123  18.564  20.455  11.970
84730W        W53124  10.710  33.593   4.452
84731W        W53125  33.285  39.357  14.191
84732W        W53126   4.077  11.639  14.213
84733W        W53127  26.535  32.477  13.473
84734W        W53128   8.876  31.700  12.560
84735W        W53129  33.393   2.655  12.814
84736W        W53130  31.232  18.212  10.615
84737W        W53131  44.798   9.268  14.016
84738W        W53132  21.169   7.915  14.336
84739W        W53133   1.274   1.376   4.802
84740W        W53134  24.553  21.112   0.632
84741W        W53135  16.107  17.666   0.953
84742W        W53136  43.395  40.099  10.179
84743W        W53137  23.601  34.585   4.338
84744W        W53138  28.105  15.521   1.878
84745W        W53139  12.383  39.504   4.501
84746W        W53140  24.418  13.692  11.681
84747W        W53141  12.262  22.250  13.815
84748W        W53142  25.137  30.183  13.878
84749W        W53143   4.565   3.466   9.983
84750W        W53144  37.013  10.835  12.462
84751W        W53145   2.309  14.815   0.038
84752W        W53146  20.545  32.513   3.638
84753W        W53147   3.797  39.954   3.885
84754W        W53148  31.459  15.981   0.250
84755W        W53149   0.955  34.824  13.496
84756W        W53150  14.063   0.839   3.732
84757W        W53151   8.724  15.279   4.580
84758W        W53152  41.919  18.873   1.934
84759W        W53153  32.293  33.825  12.881
84760W        W53154   5.409   5.872  10.745
84761W        W53155   4.942   6.073   3.800
84762W        W53156  18.632  16.018   3.754
84763W        W53157  40.426  16.049  12.115
84764W        W53158  42.486   1.819   3.879
84765W        W53159  21.607  21.854   0.510
84766W        W53160  12.571   4.452  10.543
84767W        W53161  22.115   4.319  13.544
84768W        W53162  31.010  33.594   1.383
84769W        W53163  32.432  16.339   2.488
84770W        W53164  38.395  31.187  12.860
84771W        W53165  24.516  28.683  14.384
84772W        W53166  33.024  14.576   3.907
84773W        W53167  30.450   0.523   4.090
84774W        W53168   5.930  16.754  14.392
84775W        W53169  35.141  34.872  14.893
84776W        W53170  27.007  31.486   2.277
84777W        W53171  30.557   0.959   4.348
84778W        W53172   7.693  22.687  12.277
84779W        W53173  40.482  36.152  14.964
84780W        W53174   7.781  30.651  11.856
84781W        W53175  19.633  16.216   1.625
84782W        W53176  40.312  22.110  12.506
84783W        W53177  16.220   4.310  11.981
84784W        W53178  40.325   4.910  14.352
84785W        W53179   1.535  19.120  12.047
84786W        W53180   9.905  21.827   0.773
84787W        W53181  17.434  27.736   0.242
84788W        W53182  20.195  12.135   0.830
84789W        W53183  21.695  30.322   0.120
84790W        W53184  22.543  36.318   4.534
84791W        W53185   3.778  20.592  11.066
84792W        W53186  21.009   0.821   1.667
84793W        W53187  25.594  21.771  13.985
84794W        W53188   6.726  20.035  14.827
84795W        W53189  10.831   8.821   1.456
84796W        W53190   3.988  44.479  10.779
84797W        W53191  27.725   0.292  11.172
84798W        W53192   2.400  19.859   4.696
84799W        W53193   4.382  36.405  11.985
84800W        W53194  34.814  18.318   4.422
84801W        W53195  21.973  24.090  13.968
84802W        W53196  23.121  43.497   4.645
84803W        W53197  31.519   6.582   0.116
84804W        W53198   6.827  28.206  10.079
84805W        W53199  35.375  30.232  12.871
84806W        W53200  29.428  19.033  13.926
84807W        W53201  44.238  10.059  12.898
84808W        W53202  41.894   0.325   4.813
84809W        W53203  31.527  22.678   3.274
84810W        W53204   9.277   4.745   9.881
84811W        W53205  44.921   4.850   2.889
84812W        W53206  13.306  23.195  12.576
84813W        W53207  32.045  38.913   2.625
84814W        W53208  38.829  22.588   3.327
84815W        W53209  41.145  25.027  12.963
84816W        W53210  29.535  19.053   0.899
84817W        W53211  19.207  39.346   4.461
84818W        W53212  20.805   3.392   4.154
84819W        W53213  16.396  37.343   9.896
84820W        W53214  39.805  43.316  13.448
84821W        W53215   2.823  13.057   0.379
84822W        W53216  43.448   3.056  11.804
84823W        W53217  41.805   9.818   4.278
84824W        W53218  39.252  13.336   0.340
84825W        W53219   1.253  34.860  13.074
84826W        W53220  11.247  32.936  11.913
84827W        W53221  40.905  25.221  14.989
84828W        W53222  17.260  29.192   4.575
84829W        W53223  40.074  32.537  13.281
84830W        W53224   7.490  43.795  12.491
84831W        W53225   7.887  31.932  13.805
84832W        W53226  16.269  32.505   4.098
84833W        W53227  38.332  20.253   0.254
84834W        W53228  13.954   2.316  13.270
84835W        W53229   3.917   8.713  11.341
84836W        W53230  26.602  23.325  13.438
84837W        W53231  31.640  16.897  11.479
84838W        W53232  21.832  38.811   3.042
84839W        W53233  36.318  20.296   2.871
84840W        W53234  20.518  38.917   3.324
84841W        W53235  25.130  11.835  14.042
84842W        W53236  25.738  23.801  12.598
84843W        W53237  31.802   0.015  12.811
84844W        W53238  32.437  41.481   2.602
84845W        W53239  12.753  15.104  13.078
84846W        W53240  32.779  39.285  12.499
84847W        W53241  16.264  41.353  13.364
84848W        W53242  11.634   8.244   2.336
84849W        W53243  39.559  18.756   4.342
84850W        W53244  31.959  37.002  12.016
84851W        W53245  31.871  37.413  14.808
84852W        W53246  17.920   9.220   4.955
84853W        W53247   1.548  22.000  10.782
84854W        W53248  37.302  24.598   2.260
84855W        W53249  10.764   5.356  11.155
84856W        W53250   5.705  36.455   4.704
84857W        W53251  26.738  31.689   1.866
84858W        W53252  35.371  42.491  10.618
84859W        W53253   6.573  16.184  13.958
84860W        W53254  15.194   3.781   4.363
84861W        W53255  37.512  40.982  13.667
84862W        W53256  36.476  20.682   4.028
84863W        W53257   1.089   7.600   4.375
84864W        W53258  34.305  29.981   1.359
84865W        W53259  22.497   3.015  11.310
84866W        W53260  11.822  20.148   2.379
84867W        W53261   2.872  30.625   3.425
84868W        W53262  17.318   8.291   2.285
84869W        W53263  28.929  20.325   1.671
84870W        W53264  12.687  25.538   4.415
84871W        W53265  31.182  15.931  14.277
84872W        W53266   9.974   8.222   3.175
84873W        W53267  38.063  21.206   3.681
84874W        W53268  12.697  37.699   1.806
84875W        W53269  34.843  25.206  13.080
84876W        W53270  41.274  19.377  11.583
84877W        W53271   6.923  28.187   0.739
84878W        W53272  16.083  19.528   4.104
84879W        W53273  37.809  19.076   1.891
84880W        W53274  28.223  24.541  13.518
84881W        W53275  40.132  24.616  11.143
84882W        W53276  44.041  32.888   4.068
84883W        W53277  42.915  30.052   0.048
84884W        W53278  42.327  43.804  12.603
84885W        W53279  31.955  23.457  10.528
84886W        W53280  14.536  22.216  13.503
84887W        W53281  37.910  11.619   1.713
84888W        W53282  21.540  16.376  14.961
84889W        W53283   2.888   5.925  12.836
84890W        W53284  25.156   7.681  13.270
84891W        W53285  11.380  44.281   0.175
84892W        W53286  36.034  25.789   0.572
84893W        W53287  11.962  21.588  14.223
84894W        W53288  30.902  20.827  13.877
84895W        W53289  42.778   1.186   2.171
84896W        W53290  13.377  36.193  10.293
84897W        W53291  12.397  11.123  12.878
84898W        W53292  39.669  27.212  11.677
84899W        W53293   8.293  12.741  11.073
84900W        W53294  34.982  35.893  14.732
84901W        W53295  21.084  25.584  10.712
84902W        W53296  24.584  29.710  14.465
84903W        W53297  25.021   3.393  13.540
84904W        W53298  29.949  29.360   4.543
84905W        W53299  16.217   3.281  14.346
84906W        W53300  28.409   2.945   1.734
84907W        W53301  38.271  31.440   1.361
84908W        W53302  29.525  23.260   1.890
84909W        W53303  16.544  13.753   0.439
84910W        W53304  31.531  10.371  14.533
84911W        W53305  42.792   2.229   0.358
84912W        W53306  25.001   1.261  13.364
84913W        W53307  14.142  19.442  12.828
84914W        W53308   5.208   2.196  10.278
84915W        W53309  25.677  30.454  13.135
84916W        W53310  26.703  39.341  13.309
84917W        W53311   5.409   8.457   3.380
84918W        W53312  22.273  33.444  10.855
84919W        W53313  12.109   3.821   2.369
84920W        W53314  10.143  11.130   1.347
84921W        W53315  17.047  10.840  13.548
84922W        W53316   1.525  30.181   4.083
84923W        W53317  14.386  10.428   5.019
84924W        W53318   9.265  44.762  12.100
84925W        W53319  15.232  43.745  13.520
84926W        W53320  14.125  41.815   4.369
84927W        W53321  35.749  15.161   2.638
84928W        W53322  33.986  30.393   1.404
84929W        W53323  26.777  18.116  10.667
84930W        W53324  39.650  16.264  13.129
84931W        W53325  22.833  29.557  14.964
84932W        W53326  15.222   8.621   3.149
84933W        W53327   2.865  36.119   3.662
84934W        W53328  38.836   6.426  12.743
84935W        W53329  25.577   0.063   0.541
84936W        W53330  37.590  19.792  10.293
84937W        W53331  21.044  43.255   4.718
84938W        W53332   4.124  23.758   2.257
84939W        W53333   4.674   0.779   1.287
84940W        W53334  28.067   0.074  12.930
84941W        W53335  10.266  18.078  14.337
84942W        W53336  24.767  35.551   1.257
84943W        W53337  17.035  34.424   2.248
84944W        W53338  35.717   7.568  14.392
84945W        W53339  20.424  21.932  10.842
84946W        W53340  38.088  28.309  10.238
84947W        W53341   1.757  44.087   0.304
84948W        W53342   0.794   0.651   3.813
84949W        W53343  22.747  11.243   3.582
84950W        W53344   1.227   2.838  14.589
84951W        W53345  11.150  27.696  13.286
84952W        W53346  22.519  27.235  11.131
84953W        W53347  15.441  13.586  12.977
84954W        W53348   0.810  23.635  11.226
84955W        W53349  24.670  20.289   4.161
84956W        W53350  17.347  35.296   1.685
84957W        W53351  21.697   6.745   4.200
84958W        W53352  27.008  33.126  14.061
84959W        W53353  12.168  41.572   0.045
84960W        W53354  37.298  33.180  14.954
84961W        W53355   9.791  41.329   3.647
84962W        W53356  44.933  28.505   0.411
84963W        W53357  31.509  37.029  14.824
84964W        W53358  13.628   0.407  12.151
84965W        W53359  11.096   0.145  14.649
84966W        W53360  40.363  13.077  11.908
84967W        W53361   9.263  24.713   2.488
84968W        W53362  37.339  20.617   4.583
84969W        W53363  43.147  43.113  13.089
84970W        W53364  11.897   0.355   5.001
84971W        W53365  19.227  34.959  12.497
84972W        W53366  34.194   2.529  10.764
84973W        W53367  28.613  30.915   1.960
84974W        W53368  31.911   5.102  11.442
84975W        W53369   3.312   4.537   4.189
84976W        W53370  30.518  30.892   2.686
84977W        W53371  30.398  15.094   2.867
84978W        W53372   7.167  44.304  13.578
84979W        W53373   9.895  18.556  11.236
84980W        W53374   1.732  21.615   0.248
84981W        W53375  25.749  19.015  12.861
84982W        W53376  14.797  34.310   2.366
84983W        W53377   3.353   3.323   2.262
84984W        W53378  32.869  14.130   4.123
84985W        W53379  40.089  17.898  12.072
84986W        W53380   3.830  13.122  12.008
84987W        W53381  40.895  36.833  11.448
84988W        W53382  27.611  40.264  14.886
84989W        W53383   8.105  13.112   1.905
84990W        W53384  29.446  13.500  14.836
84991W        W53385  42.448  39.303   3.213
84992W        W53386  27.740  39.731  11.661
84993W        W53387  40.289  24.035  13.382
84994W        W53388   8.910  41.406   1.361
84995W        W53389  38.536  11.930  11.581
84996W        W53390   9.869   3.520  14.882
84997W        W53391  37.162  25.486   4.104
84998W        W53392   3.765  39.640   0.537
84999W        W53393  16.907   2.363  11.953
85000W        W53394  36.503  43.883   3.680
85001W        W53395  38.339  37.499  13.811
85002W        W53396  23.612   4.398   4.459
85003W        W53397  15.099  22.553   1.149
85004W        W53398  11.473  29.939   4.580
85005W        W53399  43.992  19.548   0.514
85006W        W53400  16.214  19.661  13.056
85007W        W53401   4.710  29.036   0.621
85008W        W53402   3.244  11.726   3.166
85009W        W53403  14.281  15.895  12.619
85010W        W53404  26.671  42.770   4.515
85011W        W53405   2.292   9.918   4.756
85012W        W53406  19.699  17.040  11.018
85013W        W53407  36.788  30.165  11.476
85014W        W53408  27.234  15.654   1.330
85015W        W53409  30.985   8.553  12.154
85016W        W53410  40.499   6.130   4.520
85017W        W53411   6.843  19.592  12.507
85018W        W53412  42.603   5.760  13.341
85019W        W53413  14.150  19.156   3.520
85020W        W53414  32.860  41.360   2.344
85021W        W53415  32.638   9.247   3.659
85022W        W53416   8.829  23.275   1.719
85023W        W53417  44.018  20.658  14.318
85024W        W53418  15.257  17.897  11.988
85025W        W53419  17.139   2.935   3.694
85026W        W53420  30.205  19.595  14.029
85027W        W53421   4.847   2.728   4.593
85028W        W53422  40.928   0.211   1.421
85029W        W53423   5.445  25.583   1.321
85030W        W53424  30.113  18.847   4.610
85031W        W53425  10.382  36.975   9.941
85032W        W53426  38.746   2.506  11.491
85033W        W53427  16.289  33.942  12.409
85034W        W53428  21.196  15.359   3.478
85035W        W53429   7.922  16.052   0.330
85036W        W53430  26.228   1.894  12.533
85037W        W53431   2.515  28.510   4.689
85038W        W53432  41.750  26.702  12.410
85039W        W53433  26.547  17.610  10.751
85040W        W53434  15.297  20.954   1.459
85041W        W53435  41.286  19.740  13.935
85042W        W53436  38.048  34.171   3.287
85043W        W53437   4.662  21.144  13.525
85044W        W53438  43.241   1.027   1.922
85045W        W53439   4.352  30.434  12.858
85046W        W53440  33.896  16.736  13.813
85047W        W53441   2.699  26.310  13.463
85048W        W53442  29.385  22.617  12.982
85049W        W53443  20.309  33.913  14.257
85050W        W53444  19.671  11.310  13.711
85051W        W53445  29.504  11.192  12.510
85052W        W53446  14.357   0.030   4.185
85053W        W53447  33.012  20.621  14.263
85054W        W53448  23.708  32.683   0.383
85055W        W53449  19.963   5.353   3.728
85056W        W53450  33.934  27.772   1.829
85057W        W53451  42.472  13.659  11.184
85058W        W53452   8.262  37.815   2.217
85059W        W53453  33.980  32.871  13.749
85060W        W53454  28.693  22.599   4.831
85061W        W53455  20.088  13.059  10.706
85062W        W53456  18.719  29.226   3.018
85063W        W53457  38.393  37.801   3.136
85064W        W53458  17.439   8.896   1.333
85065W        W53459   1.473  20.477  14.078
85066W        W53460   1.935  21.967   1.462
85067W        W53461  38.487   8.701   2.087
85068W        W53462  35.288  19.253   0.763
85069W        W53463  13.584  40.567   1.260
85070W        W53464  27.559   9.864   2.850
85071W        W53465  29.420   4.592  14.365
85072W        W53466  18.289  29.464   3.729
85073W        W53467  39.402  44.834  10.610
85074W        W53468  33.902  27.560  11.152
85075W        W53469   4.505   3.333  11.990
85076W        W53470   6.459  26.971  13.302
85077W        W53471  38.957   9.109  11.531
85078W        W53472  13.637  44.134  14.896
85079W        W53473  34.059  16.905   4.571
85080W        W53474  29.509  43.574  13.266
85081W        W53475  37.724  34.599   0.543
85082W        W53476  28.398  25.999  13.974
85083W        W53477  41.544  23.210   2.461
85084W        W53478   3.307  43.237   1.019
85085W        W53479  17.191  32.070   1.346
85086W        W53480   3.929   6.333   3.773
85087W        W53481  37.450  11.679  11.542
85088W        W53482  28.147  35.435  14.773
85089W        W53483  41.858   5.332  10.716
85090W        W53484  27.406  34.955   1.896
85091W        W53485  11.677  12.708   2.277
85092W        W53486  44.258  32.835  14.899
85093W        W53487   2.317  38.039  10.612
85094W        W53488  41.495  27.929  10.627
85095W        W53489   5.430  32.640  11.572
85096W        W53490   8.147  18.330  10.560
85097W        W53491  15.364  33.243  11.675
85098W        W53492  40.551   9.431   1.953
85099W        W53493  40.254   7.424  12.440
85100W        W53494  23.298  31.429  12.984
85101W        W53495  33.300   9.089  13.540
85102W        W53496  44.841  28.612   2.743
85103W        W53497  34.169   2.256  12.014
85104W        W53498   8.400  37.188  14.364
85105W        W53499   6.274  16.878   4.601
85106W        W53500   0.571  10.188   0.206
85107W        W53501  41.338  42.867   1.800
85108W        W53502   3.540  25.480  13.334
85109W        W53503  16.758  21.021  10.538
85110W        W53504  27.244  41.026   0.345
85111W        W53505  43.408  33.622   2.673
85112W        W53506  19.117  15.096   0.846
85113W        W53507  33.852  23.026   0.460
85114W        W53508  25.100  13.084  13.415
85115W        W53509  29.423  32.998  14.025
85116W        W53510  33.940  26.450   2.819
85117W        W53511   8.420   3.438  13.935
85118W        W53512  33.246   9.662  10.635
85119W        W53513  31.673   1.707  14.448
85120W        W53514  11.163   7.256  12.508
85121W        W53515  38.933  41.866   4.626
85122W        W53516  31.390  31.215  13.497
85123W        W53517  20.660  16.608  14.456
85124W        W53518  34.933  11.850  10.366
85125W        W53519  21.561  37.637  10.472
85126W        W53520  26.025  32.566   2.616
85127W        W53521  19.450  30.531   1.606
85128W        W53522  29.877  27.962  13.431
85129W        W53523   9.204   0.713   1.983
85130W        W53524   6.828  18.540   3.788
85131W        W53525  28.214  30.966  12.531
85132W        W53526   0.965  26.142   0.241
85133W        W53527  30.766  41.931   4.676
85134W        W53528  43.063  42.454   3.266
85135W        W53529   6.287  17.149   3.627
85136W        W53530  41.942  11.145   0.979
85137W        W53531  12.147  10.075   4.473
85138W        W53532  30.000   7.489   3.130
85139W        W53533  19.910  19.213   1.688
85140W        W53534  26.015  40.043   1.684
85141W        W53535   4.953  21.948  14.794
85142W        W53536   7.954  39.347   0.747
85143W        W53537  10.037   1.919  13.537
85144W        W53538  16.345  35.489   2.936
85145W        W53539  30.808  26.778   4.602
85146W        W53540  28.932  36.927  14.810
85147W        W53541   6.515  17.007  12.503
85148W        W53542  13.845  14.433  10.701
85149W        W53543  33.889  21.041  13.452
85150W        W53544   4.674  19.067  14.949
85151W        W53545  24.713  16.793  12.491
85152W        W53546   7.855   5.495   3.279
85153W        W53547  33.126  44.248  12.994
85154W        W53548   8.688  41.539   2.770
85155W        W53549  33.438  29.092   3.754
85156W        W53550  42.976  33.538  13.245
85157W        W53551  17.720   0.134   0.805
85158W        W53552  28.472   7.238  14.365
85159W        W53553  12.078   0.224   3.244
85160W        W53554  22.805  13.672  13.348
85161W        W53555  33.515  26.222   4.032
85162W        W53556  24.104  11.482  13.629
85163W        W53557  29.464   3.385   0.974
85164W        W53558  44.944  25.517  14.779
85165W        W53559  14.154  14.565  14.843
85166W        W53560  17.347  41.565   1.735
85167W        W53561  29.136   6.651   4.081
85168W        W53562  24.635   0.984  11.680
85169W        W53563  43.190   5.767   1.082
85170W        W53564  39.786  26.046   1.337
85171W        W53565  33.625  12.668   2.903
85172W        W53566  15.121  29.785   3.155
85173W        W53567   9.425  40.356  11.654
85174W        W53568  32.485  38.795   0.957
85175W        W53569   0.857   3.323  10.750
85176W        W53570  13.195  11.096  10.749
85177W        W53571  30.339  38.327  14.277
85178W        W53572  40.303  26.369   2.144
85179W        W53573  44.754  12.718   4.562
85180W        W53574  39.174  11.378  14.304
85181W        W53575  17.159   9.314  12.451
85182W        W53576  40.518   0.337   2.384
85183W        W53577   2.480  25.214   4.874
85184W        W53578  40.462  32.269   4.895
85185W        W53579  43.241  40.928  11.924
85186W        W53580  27.404  32.927  14.958
85187W        W53581  43.005  14.648   0.332
85188W        W53582   1.515   2.499  14.354
85189W        W53583  16.191  32.957   0.588
85190W        W53584  41.928   5.866  12.055
85191W        W53585  38.195  39.039   4.400
85192W        W53586   4.992  41.944   2.077
85193W        W53587  10.225  31.337  10.567
85194W        W53588  22.911  34.347   0.366
85195W        W53589   1.448  11.929  11.587
85196W        W53590   1.847   1.044  12.507
85197W        W53591  21.713  27.745  10.959
85198W        W53592  29.897  17.135  14.990
85199W        W53593   0.545  11.121  13.418
85200W        W53594  14.210  17.337   4.688
85201W        W53595   5.411  38.376   4.188
85202W        W53596  32.895  17.237  11.592
85203W        W53597  43.757   5.821   4.805
85204W        W53598  20.266  41.353   1.892
85205W        W53599   9.208   5.217  10.594
85206W        W53600  41.444  16.263  10.657
85207W        W53601  31.618  21.108  13.033
85208W        W53602  16.913  11.335   1.525
85209W        W53603  32.015  42.526   0.403
85210W        W53604  17.609   8.982   0.502
85211W        W53605   4.862  16.992  12.601
85212W        W53606  41.750  30.744   1.516
85213W        W53607  12.622  36.794   3.693
85214W        W53608  18.241  24.067   3.202
85215W        W53609   1.289  37.556  13.933
85216W        W53610  17.360  29.655  14.289
85217W        W53611  28.907  22.303  11.535
85218W        W53612  40.287  10.709  13.151
85219W        W53613  22.071  21.955   1.441
85220W        W53614  26.653  29.791   1.923
85221W        W53615  24.083  14.412  12.993
85222W        W53616   8.636   9.661  13.981
85223W        W53617   1.712  44.666   2.319
85224W        W53618  42.982  22.511   3.914
85225W        W53619  25.080  36.831  13.047
85226W        W53620  40.860  32.668  14.524
85227W        W53621  39.576  39.761   2.586
85228W        W53622  12.012   8.352   4.630
85229W        W53623  13.693  33.673   4.140
85230W        W53624  36.443  32.829   0.959
85231W        W53625  20.912  18.614  12.472
85232W        W53626  24.523  32.060   4.295
85233W        W53627  22.867   2.867  11.651
85234W        W53628  33.492   0.016  10.770
85235W        W53629  28.983  41.255   0.428
85236W        W53630   6.881  39.383   2.799
85237W        W53631   9.130  11.905   1.700
85238W        W53632  11.330  23.212  14.355
85239W        W53633  24.068  10.273   0.928
85240W        W53634  36.136  29.950  12.029
85241W        W53635  29.910  42.873   1.274
85242W        W53636   3.155  12.092  11.672
85243W        W53637  39.229  10.181  10.504
85244W        W53638   5.932  19.840  12.501
85245W        W53639  10.409  15.104  14.388
85246W        W53640  20.993  14.677  13.903
85247W        W53641  44.036  24.464   4.780
85248W        W53642  36.424  12.240  10.893
85249W        W53643  33.853  21.474  11.684
85250W        W53644  33.390  12.297   5.247
85251W        W53645   9.371  19.159  14.310
85252W        W53646   2.640  14.162   3.975
85253W        W53647  35.178  35.380   3.500
85254W        W53648   2.237  33.015  14.988
85255W        W53649  24.914   9.705   2.657
85256W        W53650  39.746   0.827  12.200
85257W        W53651   4.323  12.201  10.332
85258W        W53652  28.201  28.127  12.251
85259W        W53653  40.879  35.480  13.754
85260W        W53654  27.189  22.225   4.296
85261W        W53655  36.063   2.898  12.063
85262W        W53656  24.947  32.647   1.866
85263W        W53657  22.199   0.769  13.787
85264W        W53658   1.499   1.491   3.315
85265W        W53659  28.108  32.546  10.429
85266W        W53660   9.879  27.036   4.743
85267W        W53661   5.318  32.980   4.944
85268W        W53662  41.930  27.090  14.904
85269W        W53663  42.855   6.295  11.765
85270W        W53664  28.804  24.197   2.609
85271W        W53665  37.503   0.402   1.769
85272W        W53666  15.905  34.358   3.816
85273W        W53667  25.507  17.559  11.561
85274W        W53668   2.385  32.090   4.376
85275W        W53669  22.534  34.403  12.039
85276W        W53670  25.522  40.227   0.283
85277W        W53671  29.391  21.640   3.569
85278W        W53672  41.892   3.756   3.251
85279W        W53673   4.652  43.471  14.527
85280W        W53674  27.802  12.766   0.202
85281W        W53675  17.218  13.392  13.173
85282W        W53676  38.485  18.441  14.802
85283W        W53677  27.111   9.765   9.779
85284W        W53678  34.954  32.545   0.243
85285W        W53679  18.441  41.819   2.643
85286W        W53680  22.965   6.072  11.191
85287W        W53681  14.227  37.601   0.850
85288W        W53682  26.077  32.181  13.364
85289W        W53683  19.990  14.013   3.123
85290W        W53684   6.403  28.710  12.925
85291W        W53685  31.922  24.135   3.219
85292W        W53686   6.181  30.454   0.678
85293W        W53687  15.391  22.567   3.075
85294W        W53688  18.976  28.676  12.063
85295W        W53689   5.239   8.821   0.195
85296W        W53690  18.136  32.384   2.875
85297W        W53691  34.302   9.355  13.318
85298W        W53692  14.632   2.447  13.868
85299W        W53693  43.125  15.660   4.059
85300W        W53694  16.609   1.598   0.295
85301W        W53695   6.448  38.874  11.154
85302W        W53696  30.401  30.559  14.889
85303W        W53697  33.993  25.939   2.147
85304W        W53698   3.322   7.269   9.607
85305W        W53699  14.809  15.869  10.754
85306W        W53700  22.745   3.759   4.841
85307W        W53701  21.782   8.725  11.856
85308W        W53702  37.636   6.991   4.221
85309W        W53703  12.239   4.115  11.530
85310W        W53704  29.387  17.849  13.518
85311W        W53705  40.121   8.831   0.766
85312W        W53706  10.023  27.681   0.408
85313W        W53707  21.113  16.602  14.714
85314W        W53708   1.685  19.733   2.293
85315W        W53709  16.079  15.194   2.659
85316W        W53710  37.723  28.949  12.073
85317W        W53711  14.233   7.022   1.880
85318W        W53712   0.965  20.238  13.436
85319W        W53713   4.833  11.691  13.951
85320W        W53714  20.848   6.259  13.865
85321W        W53715  13.582  36.806  14.489
85322W        W53716  19.344  26.080   5.444
85323W        W53717   5.082  35.947   2.280
85324W        W53718  43.789  41.028   0.140
85325W        W53719  10.340  10.853  13.882
85326W        W53720  26.361  30.703   3.268
85327W        W53721  29.131  20.475  11.628
85328W        W53722  26.285   0.435  10.323
85329W        W53723   0.429   1.482   0.728
85330W        W53724  20.547  32.512  10.712
85331W        W53725   5.827  25.512   3.485
85332W        W53726  38.541   4.102   2.011
85333W        W53727  33.857  26.094   1.320
85334W        W53728  40.044  17.760  14.220
85335W        W53729  37.910  28.707   2.580
85336W        W53730  19.707  19.233   4.739
85337W        W53731  33.559   2.271   1.814
85338W        W53732  18.795  41.193  14.503
85339W        W53733  22.535   5.867  14.726
85340W        W53734  43.965  34.170   2.926
85341W        W53735  24.563   0.002  11.549
85342W        W53736  22.997   2.956  14.970
85343W        W53737   7.347  36.421   2.171
85344W        W53738  40.338  14.793   0.475
85345W        W53739  37.298  16.195   1.712
85346W        W53740   9.057  41.502  10.224
85347W        W53741  12.275  20.782   4.268
85348W        W53742  29.541  12.069  12.871
85349W        W53743  37.006   9.488  13.964
85350W        W53744  34.758  23.522   5.067
85351W        W53745   7.895  16.814   1.633
85352W        W53746  22.497   0.470  11.630
85353W        W53747  13.608   5.778   2.153
85354W        W53748  29.662  41.953   1.202
85355W        W53749  19.811   8.239  10.965
85356W        W53750  36.138  21.227  13.091
85357W        W53751   2.215  30.355   2.878
85358W        W53752  11.155  40.761  13.897
85359W        W53753  16.794  30.931   2.715
85360W        W53754   1.643  35.393   2.325
85361W        W53755  12.804  23.446  13.479
85362W        W53756  30.563  43.991  10.729
85363W        W53757  40.065  17.550  12.922
85364W        W53758  28.558  19.375  11.115
85365W        W53759   7.268  38.449   1.911
85366W        W53760   2.306   2.014   0.468
85367W        W53761  16.594   2.468   4.174
85368W        W53762  21.034  20.235   4.554
85369W        W53763  16.229  31.639  14.345
85370W        W53764   0.883   7.040   0.318
85371W        W53765  28.513   0.387   4.976
85372W        W53766  23.764  32.974   0.920
85373W        W53767  33.373  39.991  11.547
85374W        W53768  42.559  23.971  14.989
85375W        W53769  38.832  40.024   4.208
85376W        W53770  29.485  17.144   2.712
85377W        W53771  34.931  25.167   3.660
85378W        W53772  27.027   7.428   3.484
85379W        W53773  31.100  42.604   5.058
85380W        W53774   9.612  20.052   0.605
85381W        W53775  15.892  13.099   0.750
85382W        W53776  24.747  23.258   3.855
85383W        W53777  32.030  42.739  10.580
85384W        W53778  26.193  37.020  14.446
85385W        W53779  37.959  29.393  12.057
85386W        W53780   3.219  31.640  12.429
85387W        W53781  36.323  27.486   4.823
85388W        W53782  27.018   7.227   4.090
85389W        W53783   2.454  30.075  12.002
85390W        W53784  25.573  18.081  14.901
85391W        W53785  11.090  21.989  13.003
85392W        W53786  43.401  36.636   1.483
85393W        W53787  26.405  11.147  12.521
85394W        W53788  18.134  19.300   0.173
85395W        W53789  17.527  16.536   2.215
85396W        W53790  33.567   9.088   0.331
85397W        W53791  14.552  26.130  13.865
85398W        W53792  12.641  43.747   4.874
85399W        W53793  28.945  41.825  12.770
85400W        W53794   0.997  42.870  14.912
85401W        W53795  40.847  23.944  11.656
85402W        W53796  40.553   7.763  14.783
85403W        W53797  21.723   8.359  13.642
85404W        W53798  33.911  25.647  13.552
85405W        W53799   6.901  31.744  14.507
85406W        W53800   8.840  29.459   2.371
85407W        W53801   4.240   2.427   2.069
85408W        W53802  12.788  34.352  12.119
85409W        W53803  33.015  14.364  12.927
85410W        W53804  18.597   9.190  14.328
85411W        W53805   4.758  24.153   1.172
85412W        W53806  36.866  42.776  10.627
85413W        W53807  29.229  38.351  10.751
85414W        W53808  19.145   5.293  13.551
85415W        W53809   0.425  40.819   0.230
85416W        W53810  35.124   3.269   3.555
85417W        W53811   1.852  19.212   4.576
85418W        W53812  41.419  42.952  11.901
85419W        W53813   3.334  23.780  14.541
85420W        W53814  24.672  30.655  12.285
85421W        W53815  30.455  14.842   4.992
85422W        W53816  21.083  42.355   3.272
85423W        W53817  23.763  20.934  12.001
85424W        W53818   1.732   0.880   4.183
85425W        W53819  29.577  27.520  13.124
85426W        W53820   1.080  25.692   0.026
85427W        W53821  20.152  29.042   1.047
85428W        W53822  41.928  15.198   2.708
85429W        W53823   6.740  14.114   1.448
85430W        W53824  23.639  12.614  13.931
85431W        W53825  14.129  34.310  13.590
85432W        W53826  28.972  24.251   3.106
85433W        W53827  11.534  32.185   0.012
85434W        W53828  40.357  34.989  12.127
85435W        W53829  17.169  43.957   1.166
85436W        W53830  41.800  26.747   1.317
85437W        W53831  34.996  36.552  11.488
85438W        W53832  39.017  42.390  10.556
85439W        W53833  28.639  12.062   3.620
85440W        W53834  11.003  34.530   0.410
85441W        W53835  44.742  25.747   3.793
85442W        W53836  38.437  36.958  13.780
85443W        W53837   0.374   0.369  14.863
85444W        W53838   5.789   6.434   3.767
85445W        W53839  19.317  32.479  13.949
85446W        W53840  36.576  32.024  13.123
85447W        W53841  10.611  34.148  12.279
85448W        W53842   4.217  37.982   3.814
85449W        W53843  18.448  31.156  13.989
85450W        W53844  42.713   1.507  13.950
85451W        W53845  44.475  25.463   2.682
85452W        W53846  31.064  15.315   2.207
85453W        W53847  15.124  33.547   2.689
85454W        W53848  22.498   5.037   2.702
85455W        W53849  44.789  25.508  12.047
85456W        W53850  14.323  28.101   2.736
85457W        W53851  33.186  34.361   3.640
85458W        W53852   6.694  29.994   2.395
85459W        W53853   6.309  34.383  10.643
85460W        W53854  11.078  17.218  10.649
85461W        W53855  23.431  27.297  12.034
85462W        W53856   5.871  40.867  13.495
85463W        W53857  26.648  25.462  12.012
85464W        W53858   7.580  25.770  12.427
85465W        W53859  41.979  33.582  14.452
85466W        W53860  32.950   3.620   0.246
85467W        W53861  11.052  34.315  10.899
85468W        W53862  37.080  23.743  11.519
85469W        W53863  24.292  11.477   0.001
85470W        W53864  38.359   0.218  11.593
85471W        W53865  41.807  18.703  12.988
85472W        W53866  40.302  39.428   9.731
85473W        W53867  19.408  16.603   1.899
85474W        W53868  44.974  43.891  14.382
85475W        W53869  35.458   2.471   3.368
85476W        W53870  27.875  32.069  14.363
85477W        W53871  31.381  19.346  11.627
85478W        W53872  28.565  11.628  12.941
85479W        W53873   7.388  32.983  13.352
85480W        W53874  30.354  42.526   1.177
85481W        W53875   5.954   5.369  14.023
85482W        W53876  43.698  34.141   1.186
85483W        W53877  18.615  28.477   1.843
85484W        W53878  31.324  17.369  11.364
85485W        W53879  14.023   9.736  13.397
85486W        W53880  35.867  37.847  12.942
85487W        W53881  28.576   9.085  12.424
85488W        W53882  16.293   6.698  13.847
85489W        W53883  29.648  14.542  14.224
85490W        W53884   4.655  41.561  13.983
85491W        W53885  27.118   9.793   0.516
85492W        W53886  15.539   2.486   4.158
85493W        W53887  10.497  22.612   0.826
85494W        W53888  43.744  35.914   1.460
85495W        W53889  18.482  33.109  13.056
85496W        W53890  23.580  13.184  12.077
85497W        W53891  36.401  40.365  12.597
85498W        W53892  43.093  12.907  11.447
85499W        W53893  16.968  20.235  13.906
85500W        W53894   8.205  22.120   3.993
85501W        W53895  33.667  38.584   3.070
85502W        W53896  41.347  23.478  14.175
85503W        W53897  37.263   1.372  13.292
85504W        W53898  11.895  13.068  13.336
85505W        W53899  26.279  23.734  14.367
85506W        W53900  37.283  37.683  11.496
85507W        W53901  33.012  14.747   2.354
85508W        W53902  19.262  34.527  13.017
85509W        W53903  38.601  39.246  13.967
85510W        W53904  16.039   6.942  12.850
85511W        W53905   9.841  13.285  11.400
85512W        W53906   5.557  19.974  14.441
85513W        W53907  19.620  42.822  14.615
85514W        W53908  44.352   5.100  13.527
85515W        W53909  10.445  18.677   1.365
85516W        W53910  19.040  38.669   0.676
85517W        W53911  11.918  15.871   0.733
85518W        W53912   1.051  42.886   4.567
85519W        W53913  16.926  36.399   3.452
85520W        W53914   2.525  28.111   0.777
85521W        W53915  15.409  37.568   4.573
85522W        W53916   5.901  15.761   2.276
85523W        W53917  27.036  17.663  10.523
85524W        W53918   8.834  32.010   5.046
85525W        W53919  27.548  21.911  10.983
85526W        W53920  12.089  38.949  11.549
85527W        W53921  12.787   0.158   3.989
85528W        W53922  27.043  32.429  11.976
85529W        W53923  16.487   4.765  12.041
85530W        W53924  38.278  20.810   4.898
85531W        W53925  28.175   8.898   0.232
85532W        W53926  15.788  30.414   2.202
85533W        W53927  40.503  12.572  14.358
85534W        W53928  12.621  12.247  11.585
85535W        W53929  17.577  23.498  14.804
85536W        W53930  23.266  21.945   1.314
85537W        W53931  36.576  40.982   3.216
85538W        W53932  31.683  35.419   0.751
85539W        W53933   2.099  36.098   1.183
85540W        W53934  22.286   0.636   0.094
85541W        W53935   4.323  38.302   4.245
85542W        W53936  33.373   8.318  14.938
85543W        W53937  27.110  17.523  12.957
85544W        W53938  14.409  34.324   0.271
85545W        W53939  26.902  24.019   1.809
85546W        W53940  33.571  19.203  10.835
85547W        W53941  39.075  17.566  11.080
85548W        W53942   1.987  24.586  13.999
85549W        W53943   7.160   0.719   2.633
85550W        W53944  40.965  22.102   0.634
85551W        W53945  31.387  28.582   0.914
85552W        W53946  19.501  32.581   0.401
85553W        W53947  10.842  44.457  13.528
85554W        W53948  43.605  39.541  10.881
85555W        W53949  29.880  33.282  12.879
85556W        W53950   6.094  30.986   3.768
85557W        W53951   0.410  31.617  11.686
85558W        W53952  44.501  44.197  10.669
85559W        W53953  13.424  29.365  13.071
85560W        W53954   9.709  13.136   2.929
85561W        W53955  27.177  15.972   2.450
85562W        W53956  21.278  24.683  13.333
85563W        W53957  33.722  19.927  13.998
85564W        W53958   5.232  40.180   1.985
85565W        W53959   4.231  35.881   4.750
85566W        W53960  11.782  37.524  13.391
85567W        W53961   8.078  28.049   3.334
85568W        W53962  23.217  43.756  12.160
85569W        W53963  39.510  16.560   2.326
85570W        W53964  27.419  32.519   0.965
85571W        W53965  34.802  18.116  11.639
85572W        W53966  21.699  32.672   3.118
85573W        W53967  39.028  17.821  12.527
85574W        W53968  27.604   8.598  13.368
85575W        W53969  27.178   3.765   4.068
85576W        W53970  14.380   6.953  13.930
85577W        W53971   3.418  12.437  12.995
85578W        W53972  35.372   9.194  14.258
85579W        W53973  39.020  28.280  11.307
85580W        W53974  20.281  41.317   0.967
85581W        W53975   5.290  21.069  10.774
85582W        W53976  38.163   2.744   0.387
85583W        W53977  30.640  42.513  12.149
85584W        W53978   7.587   7.158  10.608
85585W        W53979  19.492  29.578   4.052
85586W        W53980  41.292  26.870   1.364
85587W        W53981  31.915  23.745   1.852
85588W        W53982  22.607  13.696  12.850
85589W        W53983  29.329  29.646   3.750
85590W        W53984  22.321   5.349  11.693
85591W        W53985   3.251  10.453  14.830
85592W        W53986  15.617   5.688  12.076
85593W        W53987  25.104  40.431   1.045
85594W        W53988  25.974  23.131   1.300
85595W        W53989  35.955  27.917   4.549
85596W        W53990  14.862  31.294  13.350
85597W        W53991  24.442  31.043  12.545
85598W        W53992  28.365  27.505  14.479
85599W        W53993   7.820   1.028   4.253
85600W        W53994   7.498  31.859   4.918
85601W        W53995  30.309  18.603  12.856
85602W        W53996  32.487  10.432   0.326
85603W        W53997  38.022  43.221   4.150
85604W        W53998   5.641  30.120   0.152
85605W        W53999   5.209  16.785  11.916
85606W        W54000  25.146  11.577  13.038
85607W        W54001  15.191  41.166  14.094
85608W        W54002  16.000   5.691   5.238
85609W        W54003  15.788  25.574  14.749
85610W        W54004  27.767   9.174   3.907
85611W        W54005  10.100  28.146  14.811
85612W        W54006  42.484  27.855  10.781
85613W        W54007  32.412   5.646   3.645
85614W        W54008  23.856   6.869   3.599
85615W        W54009   8.199  18.018   2.850
85616W        W54010  43.354  28.897   2.644
85617W        W54011  36.106  20.736  13.868
85618W        W54012  30.008  22.188   4.492
85619W        W54013  17.845   0.895  11.193
85620W        W54014  43.915  43.873  10.931
85621W        W54015  20.903   1.216  11.612
85622W        W54016   2.020  32.244  11.444
85623W        W54017  13.299   7.220  13.319
85624W        W54018  38.394  21.232   1.690
85625W        W54019  27.466  34.182   4.600
85626W        W54020  33.316  20.135  14.613
85627W        W54021  15.163   3.633  12.423
85628W        W54022  20.016  32.072  14.366
85629W        W54023  33.087  31.090  12.944
85630W        W54024   5.389  40.810  10.582
85631W        W54025  39.454   9.649  14.950
85632W        W54026  20.640   1.215   3.676
85633W        W54027  27.856  37.146   3.229
85634W        W54028   1.562  23.010  14.784
85635W        W54029  41.015  37.931   0.728
85636W        W54030  37.881  36.551  12.417
85637W        W54031  35.136  21.799  14.329
85638W        W54032  15.361   0.824  12.582
85639W        W54033  37.559  24.042   4.900
85640W        W54034  16.084  18.695  14.237
85641W        W54035  25.899  18.639   0.508
85642W        W54036  10.993  37.027   4.545
85643W        W54037  31.163   5.256  12.440
85644W        W54038  37.411  32.849   4.263
85645W        W54039  37.530  21.347  12.879
85646W        W54040  19.715  40.309   0.415
85647W        W54041  38.624  20.087  14.698
85648W        W54042  32.535  29.806  13.066
85649W        W54043  43.350  15.267   4.839
85650W        W54044  13.652   9.770   3.365
85651W        W54045   5.149  28.373  11.829
85652W        W54046  44.910  19.581   3.659
85653W        W54047  24.268   8.279  11.543
85654W        W54048  11.558  10.529   9.878
85655W        W54049   3.252  30.691   0.668
85656W        W54050  12.426   1.932  13.795
85657W        W54051  11.179  29.950   2.360
85658W        W54052  30.014  33.931  14.852
85659W        W54053  29.754  28.951   0.396
85660W        W54054  29.443  35.596  12.909
85661W        W54055   1.495  12.235  10.854
85662W        W54056   6.432  35.939   0.893
85663W        W54057  31.541  31.028   4.262
85664W        W54058  37.128  43.848  13.035
85665W        W54059   5.249  22.696  12.098
85666W        W54060  41.676  37.991  11.327
85667W        W54061  14.735   3.291   0.215
85668W        W54062  27.954   5.783   4.327
85669W        W54063  20.036  36.148   2.278
85670W        W54064   0.125   9.148  11.218
85671W        W54065  33.202  33.398   2.813
85672W        W54066  13.286  20.990   0.810
85673W        W54067   0.845  36.467   3.687
85674W        W54068   5.937  28.428  10.494
85675W        W54069   4.900  25.558   4.562
85676W        W54070   8.685   1.457   3.521
85677W        W54071  28.421  31.383   2.135
85678W        W54072  10.546  41.766  11.039
85679W        W54073  34.339  13.250   4.490
85680W        W54074   4.239   0.358   4.741
85681W        W54075  35.943  38.711   2.324
85682W        W54076  28.999   7.134  11.753
85683W        W54077  11.650  15.325  12.046
85684W        W54078  44.244  31.572   4.265
85685W        W54079  12.093  43.799   0.737
85686W        W54080  43.010  21.154  12.015
85687W        W54081  34.784  41.533  13.860
85688W        W54082   7.701  41.856  11.059
85689W        W54083  13.734   1.897  12.175
85690W        W54084  38.842  38.505   3.287
85691W        W54085  21.171  36.207   4.568
85692W        W54086   1.839  39.315  12.825
85693W        W54087  23.706  24.199  14.476
85694W        W54088  28.929  32.591  12.117
85695W        W54089  17.314  26.813  11.051
85696W        W54090  26.864  38.826   3.254
85697W        W54091  38.502  25.662   4.785
85698W        W54092  35.961  41.787  10.746
85699W        W54093  12.713  41.095  14.066
85700W        W54094  27.594   3.113   1.748
85701W        W54095  20.351  43.271   4.539
85702W        W54096  21.828   8.882  10.191
85703W        W54097   5.098   3.058   4.978
85704W        W54098  21.107  40.109  14.973
85705W        W54099  42.781  31.145   3.366
85706W        W54100  28.609  14.357   2.830
85707W        W54101  28.941  17.182   4.608
85708W        W54102  42.877  23.428   0.687
85709W        W54103   4.085  39.744  14.685
85710W        W54104  18.494  35.011   1.271
85711W        W54105   0.231  10.242  12.897
85712W        W54106   0.179   0.226  12.600
85713W        W54107  38.160  41.900   2.771
85714W        W54108  14.347  10.934  14.300
85715W        W54109  38.626  23.186   0.914
85716W        W54110  40.083  25.592   1.562
85717W        W54111  10.403  36.838  12.499
85718W        W54112   1.045  26.777   3.263
85719W        W54113  43.996  27.830  12.833
85720W        W54114  11.178  24.254  11.505
85721W        W54115  19.814  33.779   3.867
85722W        W54116  43.264  22.090   4.116
85723W        W54117  21.324  30.338   1.143
85724W        W54118   8.247  30.701   1.696
85725W        W54119  33.545   7.254   4.066
85726W        W54120  13.560  18.171   1.481
85727W        W54121   0.799   9.411   1.361
85728W        W54122  32.531  18.354   3.735
85729W        W54123  44.256   3.191   4.654
85730W        W54124  20.681  33.601   0.839
85731W        W54125  24.816  42.688   5.068
85732W        W54126  41.963  42.847  11.190
85733W        W54127  35.542  33.875  13.655
85734W        W54128  41.411  29.941  13.469
85735W        W54129  25.615  26.122  14.238
85736W        W54130   5.656  32.639   4.748
85737W        W54131  34.429   2.401  14.265
85738W        W54132  11.237   4.730   2.372
85739W        W54133   7.162  27.452   0.824
85740W        W54134  34.186  41.325  11.265
85741W        W54135   8.256  13.174  14.497
85742W        W54136   5.981   0.471   0.598
85743W        W54137  33.973  39.164  11.641
85744W        W54138  29.882  27.490  14.571
85745W        W54139  24.559  41.071   2.440
85746W        W54140   4.511  21.078  12.429
85747W        W54141  33.993   2.033   4.860
85748W        W54142   3.748  14.629   0.911
85749W        W54143  35.481  39.148   1.667
85750W        W54144   1.932  33.542   1.074
85751W        W54145  33.585  35.958  13.789
85752W        W54146  11.700  19.983   3.267
85753W        W54147   9.917   7.955  10.339
85754W        W54148  40.979  43.566   4.211
85755W        W54149  42.348  10.912   4.607
85756W        W54150   8.712   4.422  10.504
85757W        W54151  26.847  19.039   1.597
85758W        W54152  24.273  35.120   0.957
85759W        W54153  12.301  35.426   1.860
85760W        W54154  24.763  39.932  14.505
85761W        W54155  36.969  40.093  10.933
85762W        W54156  27.413   4.159  12.651
85763W        W54157  26.243   5.241   1.778
85764W        W54158   8.593   7.555  10.797
85765W        W54159  37.313  32.350   0.946
85766W        W54160  35.614   1.432  12.423
85767W        W54161  25.814   2.404  11.657
85768W        W54162  37.180  44.443   2.901
85769W        W54163  30.331  15.342  11.191
85770W        W54164  44.957  37.625   3.687
85771W        W54165  28.271   4.731   4.206
85772W        W54166  13.531   9.152  12.136
85773W        W54167  15.553   3.529  10.146
85774W        W54168   2.895   7.790   0.405
85775W        W54169  16.792  26.573   0.960
85776W        W54170  18.599   8.354   0.349
85777W        W54171  34.082  10.590   3.829
85778W        W54172   1.722  22.455   1.388
85779W        W54173  30.197   2.704  10.584
85780W        W54174   5.250   8.408   0.538
85781W        W54175  40.451  19.637   4.156
85782W        W54176  13.336  44.121  12.343
85783W        W54177  21.212  34.094   1.053
85784W        W54178  35.371  23.747  11.700
85785W        W54179   2.687   6.860  11.878
85786W        W54180  23.753  23.056   1.914
85787W        W54181  33.440   9.895  13.937
85788W        W54182  42.508   2.853   4.743
85789W        W54183  25.883  26.065   4.809
85790W        W54184  18.627  15.099   4.021
85791W        W54185  13.761  14.671   2.033
85792W        W54186   8.457  33.351  13.337
85793W        W54187  19.122  39.257   3.053
85794W        W54188  43.825  30.762  12.592
85795W        W54189  15.627  39.242  13.232
85796W        W54190   2.656  15.331   2.734
85797W        W54191  14.204   1.153   4.115
85798W        W54192  35.385  28.955  13.976
85799W        W54193  14.090  33.816  13.481
85800W        W54194  44.912  16.856  13.347
85801W        W54195  15.346  11.692   0.859
85802W        W54196  35.842  26.407   2.051
85803W        W54197  13.181  30.081   4.908
85804W        W54198  38.478  21.036  13.341
85805W        W54199   2.581  31.405  11.604
85806W        W54200   3.131   2.867   2.108
85807W        W54201  40.936  25.723   2.769
85808W        W54202  28.391  12.640   0.686
85809W        W54203  20.649   6.829   4.890
85810W        W54204  20.674  22.046   3.407
85811W        W54205   2.526   9.715  14.767
85812W        W54206  29.947  14.846  12.454
85813W        W54207  30.695  44.823  14.494
85814W        W54208  19.449  24.559  11.862
85815W        W54209  23.383  15.517   4.555
85816W        W54210  36.627   2.475  13.228
85817W        W54211  26.780  34.337  11.021
85818W        W54212   6.828  32.241  12.041
85819W        W54213  43.787  28.924   1.074
85820W        W54214  24.282  21.258   2.607
85821W        W54215  15.336  40.118  13.868
85822W        W54216  15.493  25.941   2.317
85823W        W54217  12.145  14.380  11.190
85824W        W54218  13.799  25.015   4.961
85825W        W54219  11.932  40.340   0.352
85826W        W54220  27.858  23.132  12.154
85827W        W54221   0.231  38.084  12.611
85828W        W54222   6.562  37.678   9.952
85829W        W54223  30.952  38.606   5.056
85830W        W54224  13.062  30.464   3.782
85831W        W54225   2.363  16.973   0.917
85832W        W54226  34.640  37.847   4.262
85833W        W54227  30.653   0.839   0.483
85834W        W54228  25.053  22.026  11.190
85835W        W54229  32.860  17.726   0.936
85836W        W54230  24.559  39.400  10.989
85837W        W54231  44.953  18.791  13.850
85838W        W54232   3.559  41.091   4.299
85839W        W54233  39.209   5.779  11.567
85840W        W54234  44.733   1.511   1.919
85841W        W54235  23.786  34.651   3.142
85842W        W54236  18.787   8.218   3.816
85843W        W54237  44.292   5.557  13.936
85844W        W54238  14.316   5.168   1.469
85845W        W54239   8.904  18.200   1.846
85846W        W54240  38.576  30.623   3.540
85847W        W54241  34.432   3.135   3.247
85848W        W54242  24.203  42.473  11.048
85849W        W54243  18.313  41.427   4.955
85850W        W54244  35.036  10.845  13.227
85851W        W54245  11.856  27.689   1.895
85852W        W54246  28.009  23.184  14.089
85853W        W54247  33.478   8.885   2.717
85854W        W54248  26.167  19.919   0.259
85855W        W54249  18.106  20.322   1.934
85856W        W54250  29.713  29.994  12.514
85857W        W54251  30.793   9.526  13.822
85858W        W54252   6.126   9.358  13.640
85859W        W54253  41.413  39.953  10.657
85860W        W54254   2.789  19.313   3.213
85861W        W54255  11.728  32.457   0.460
85862W        W54256  25.500  44.425  12.007
85863W        W54257  21.793  23.662   0.996
85864W        W54258   6.166  22.995  14.075
85865W        W54259  20.367  18.672  10.690
85866W        W54260  15.231  38.803  14.386
85867W        W54261  18.331   0.258  14.251
85868W        W54262  39.355  30.490  11.689
85869W        W54263  35.319  12.988   2.022
85870W        W54264  26.456  12.435  11.470
85871W        W54265   8.914  24.292   1.900
85872W        W54266   3.182   1.805  14.540
85873W        W54267   3.377  21.980   2.116
85874W        W54268  35.982   6.173  12.091
85875W        W54269   0.466  12.290  11.024
85876W        W54270  15.839   2.843  11.364
85877W        W54271  14.171   9.184  13.304
85878W        W54272   0.516  30.037  10.610
85879W        W54273  24.860  16.767  10.794
85880W        W54274  18.241  38.941   3.374
85881W        W54275  13.302  44.888   2.420
85882W        W54276   4.224   3.752  10.331
85883W        W54277   5.560  32.831   2.280
85884W        W54278  44.563  40.732   1.295
85885W        W54279  34.853  40.057   3.827
85886W        W54280  10.299  13.483  14.307
85887W        W54281  40.989  21.079  10.580
85888W        W54282   6.193  19.329  13.110
85889W        W54283  10.983   7.695   0.491
85890W        W54284   5.968  38.457  10.567
85891W        W54285  35.123  36.384   1.268
85892W        W54286  21.643   8.909  12.342
85893W        W54287   4.447  14.776  11.091
85894W        W54288   0.359  29.668  14.767
85895W        W54289   5.893   6.248   2.805
85896W        W54290   8.361  18.160   0.972
85897W        W54291  18.140  15.255   5.142
85898W        W54292  18.108   9.840  10.512
85899W        W54293  26.743   7.891   0.476
85900W        W54294  12.006  26.702  12.549
85901W        W54295  25.035  25.408  13.303
85902W        W54296  40.011  41.439   4.799
85903W        W54297  39.494  27.692   0.491
85904W        W54298   9.093  36.278   4.586
85905W        W54299   1.235  26.133  14.789
85906W        W54300   4.423  11.078   3.382
85907W        W54301  13.386   6.250   1.390
85908W        W54302  34.885  14.471  11.592
85909W        W54303  21.533  32.975  12.868
85910W        W54304   9.214   4.756   2.323
85911W        W54305   1.240   9.623  11.815
85912W        W54306  21.545  22.914   2.189
85913W        W54307  10.045  42.579  10.968
85914W        W54308   2.693   7.603  12.577
85915W        W54309   8.844   4.155  13.876
85916W        W54310  16.786  10.450  13.759
85917W        W54311  33.082  33.047   3.199
85918W        W54312  10.246   2.824  13.803
85919W        W54313  11.192  25.721   0.068
85920W        W54314  16.980  30.556   1.423
85921W        W54315  12.614  34.689   1.540
85922W        W54316  42.684  23.500  14.177
85923W        W54317  17.736   1.514   2.564
85924W        W54318  40.538  23.995  12.090
85925W        W54319  19.760  12.824  13.915
85926W        W54320  13.617  25.796  13.163
85927W        W54321  11.134  31.038   1.712
85928W        W54322  10.874  32.024  12.946
85929W        W54323   0.884  11.720  14.581
85930W        W54324  21.288  26.983   1.187
85931W        W54325  21.652  44.715   4.083
85932W        W54326   3.634   2.286  10.705
85933W        W54327  13.317   4.619   3.332
85934W        W54328  43.334  15.228  11.663
85935W        W54329  44.555   0.509   3.433
85936W        W54330  34.999  25.475  12.127
85937W        W54331   6.855  31.343   2.353
85938W        W54332  25.084   8.723   3.605
85939W        W54333  17.869  23.530  14.335
85940W        W54334   3.627   8.883  12.092
85941W        W54335   4.533  20.855   1.730
85942W        W54336  39.298  18.544  13.544
85943W        W54337  13.121  34.467   2.787
85944W        W54338  24.112   1.827   2.811
85945W        W54339  26.575   5.666  14.818
85946W        W54340   0.657   2.325   2.847
85947W        W54341   7.889  23.222  11.199
85948W        W54342  33.672   1.937   0.472
85949W        W54343  38.231   4.337   3.302
85950W        W54344   7.747   0.717  13.096
85951W        W54345   2.613   1.306  14.364
85952W        W54346  13.297   5.130   3.353
85953W        W54347   5.704   3.812   4.000
85954W        W54348  14.138  19.424  10.732
85955W        W54349  10.276  43.495   1.727
85956W        W54350  13.224  43.402  11.666
85957W        W54351  26.284  18.728  11.147
85958W        W54352  29.926   7.295   1.423
85959W        W54353  41.884  22.276   1.337
85960W        W54354  26.449  26.975   3.813
85961W        W54355  15.860  30.031   2.595
85962W        W54356  40.181   3.377   0.434
85963W        W54357  11.810  31.191   4.563
85964W        W54358  30.888  22.105  14.240
85965W        W54359  17.834  14.330   2.632
85966W        W54360  14.797  24.429   4.239
85967W        W54361  38.501   9.625  13.592
85968W        W54362  36.512  29.998  13.004
85969W        W54363  31.891   0.017  13.346
85970W        W54364  17.787  15.523   1.281
85971W        W54365   5.488   7.218  11.416
85972W        W54366  15.815  33.319   4.004
85973W        W54367  39.866   3.683   1.160
85974W        W54368  24.804   4.414   0.869
85975W        W54369   9.850  11.982   3.668
85976W        W54370  33.171   7.313   4.605
85977W        W54371  32.369  40.397   0.184
85978W        W54372   1.774  14.898  13.114
85979W        W54373  37.417   5.898  11.101
85980W        W54374  16.167  31.876  11.348
85981W        W54375   5.300   6.644  11.870
85982W        W54376  37.445   9.733  11.868
85983W        W54377  24.966  31.000   0.284
85984W        W54378  37.016  18.121  10.261
85985W        W54379  34.535  15.342  11.816
85986W        W54380  31.655   9.876   0.383
85987W        W54381  37.823  40.317   1.345
85988W        W54382   6.010   4.494  13.594
85989W        W54383   9.148  41.394  12.016
85990W        W54384  25.194  44.954   0.194
85991W        W54385  21.904  36.403   2.338
85992W        W54386  14.173  39.990  11.963
85993W        W54387  34.047  43.836   1.794
85994W        W54388  37.362  32.328   9.999
85995W        W54389  26.210  38.141  13.284
85996W        W54390   2.177  38.228  13.461
85997W        W54391  10.958  34.772   3.151
85998W        W54392  10.709   2.129  14.361
85999W        W54393  12.879  15.128   0.417
86000W        W54394  16.215  10.307   4.497
86001W        W54395  22.132   4.319   3.892
86002W        W54396   6.372  10.638  14.396
86003W        W54397   8.282   1.447  11.124
86004W        W54398  32.379  24.401  14.447
86005W        W54399   8.798  26.508  11.732
86006W        W54400   9.626   5.895   1.833
86007W        W54401  23.055   4.222  13.145
86008W        W54402  13.780  15.833  13.971
86009W        W54403   4.144   4.284  13.887
86010W        W54404  35.550  15.585   1.333
86011W        W54405  32.016  39.027   0.962
86012W        W54406  11.607   2.464   1.675
86013W        W54407  14.458  43.128   4.179
86014W        W54408  22.354  29.566   4.622
86015W        W54409  42.665  27.981  14.295
86016W        W54410  14.570  10.141  12.361
86017W        W54411  35.138  30.587   3.619
86018W        W54412   0.503  35.342   0.546
86019W        W54413  39.841  36.326   3.762
86020W        W54414   7.892  20.753  14.748
86021W        W54415  10.736  21.205  14.832
86022W        W54416   2.738   0.806  14.516
86023W        W54417  17.632  38.350   2.881
86024W        W54418  16.231   6.168  13.944
86025W        W54419  31.952  25.713   3.085
86026W        W54420   6.654   3.480  13.868
86027W        W54421  12.663  25.338  11.542
86028W        W54422  16.877  37.458   0.939
86029W        W54423   9.297  31.466   1.304
86030W        W54424  34.988   3.278   1.980
86031W        W54425  34.399   5.945   2.484
86032W        W54426  23.017   2.439  14.895
86033W        W54427  42.488  31.529  10.414
86034W        W54428  18.049  23.923   2.297
86035W        W54429  27.361  19.569   3.162
86036W        W54430  21.992  41.505  14.121
86037W        W54431   3.911   8.827  12.524
86038W        W54432   9.340  21.321   5.050
86039W        W54433  12.318   3.701   4.653
86040W        W54434   2.862  22.595  11.312
86041W        W54435  17.759  33.524  14.984
86042W        W54436  30.271  34.693   1.121
86043W        W54437   4.534  23.322  11.501
86044W        W54438  13.707  37.435   2.683
86045W        W54439   4.240  43.761  13.956
86046W        W54440  14.618   4.428  13.828
86047W        W54441  38.275  28.942   0.079
86048W        W54442  33.859   2.352  12.418
86049W        W54443  43.923  32.681   3.094
86050W        W54444   4.928  11.214  12.633
86051W        W54445   4.512  21.734   1.842
86052W        W54446  31.625  42.602   1.378
86053W        W54447   6.869  15.593   2.288
86054W        W54448  28.170  17.171  12.360
86055W        W54449   8.782  44.943   1.281
86056W        W54450  10.121   7.920   3.658
86057W        W54451  21.290  29.939  13.934
86058W        W54452  17.770   4.032   3.226
86059W        W54453  35.382  12.814  12.523
86060W        W54454  27.120   9.098  12.653
86061W        W54455  40.202  12.748  12.749
86062W        W54456  32.829  15.568  12.109
86063W        W54457  42.576  39.265  14.937
86064W        W54458  10.514  39.216   1.762
86065W        W54459  13.619  25.224  11.664
86066W        W54460  13.719  14.650  12.354
86067W        W54461  38.461  11.796   2.949
86068W        W54462   8.948  13.959   0.553
86069W        W54463  31.987   0.015  14.752
86070W        W54464  27.458  26.427   0.951
86071W        W54465  18.991  19.380  13.448
86072W        W54466  18.241  29.222   3.253
86073W        W54467  34.491  11.843  13.033
86074W        W54468  38.100   3.832  10.786
86075W        W54469  43.774  18.259   2.267
86076W        W54470  23.192  22.117   2.245
86077W        W54471   2.194  31.353  11.270
86078W        W54472  39.543  20.737   0.802
86079W        W54473  35.169  43.981  10.372
86080W        W54474  17.655  27.275   0.275
86081W        W54475  29.985   3.207   2.749
86082W        W54476   7.465   6.686  14.319
86083W        W54477  18.003   6.426  13.532
86084W        W54478   8.499  38.632   0.376
86085W        W54479  18.818  10.315   1.777
86086W        W54480   8.448  14.825  12.436
86087W        W54481  42.991  31.596   3.062
86088W        W54482  24.138  35.911   1.844
86089W        W54483  32.378  38.241  11.992
86090W        W54484  41.081  31.272   0.569
86091W        W54485  32.114  17.791  11.434
86092W        W54486   2.014  19.020  11.258
86093W        W54487  21.098   2.374  14.310
86094W        W54488  11.888  17.231  13.357
86095W        W54489  36.534  10.403  14.206
86096W        W54490  19.822  38.698  13.471
86097W        W54491  32.013  34.195   1.636
86098W        W54492  16.080  11.162  12.900
86099W        W54493  15.178  17.384  12.119
86100W        W54494  37.623  11.170  10.643
86101W        W54495   9.750  40.603  13.469
86102W        W54496   4.985  36.959   3.674
86103W        W54497  38.486  26.100   5.043
86104W        W54498  23.980  20.799  14.518
86105W        W54499   9.836  13.653  12.958
86106W        W54500  41.005  13.193  14.835
86107W        W54501  12.712   5.211  12.389
86108W        W54502   3.270  14.171  13.455
86109W        W54503  44.764  42.513  11.288
86110W        W54504  27.739  24.619  11.294
86111W        W54505  12.401  32.269   3.826
86112W        W54506  32.078   1.318  11.204
86113W        W54507  40.501   3.861   2.912
86114W        W54508  11.147  28.939  11.074
86115W        W54509   4.803  26.757   3.729
86116W        W54510  15.217  12.392   1.362
86117W        W54511  40.599   6.438   1.885
86118W        W54512  34.871   4.881   2.931
86119W        W54513  34.478  11.656  13.952
86120W        W54514  33.982   4.346   1.165
86121W        W54515  22.484  33.092  13.957
86122W        W54516  31.353  18.579  12.843
86123W        W54517  25.610  42.821   1.669
86124W        W54518  11.295  36.119   1.289
86125W        W54519   0.262  37.792   4.710
86126W        W54520  22.892  22.035  14.246
86127W        W54521   9.642   6.491   3.418
86128W        W54522   6.846  43.354   1.406
86129W        W54523  28.931  11.586   4.587
86130W        W54524  29.384  43.329  12.850
86131W        W54525  18.764  29.159  12.153
86132W        W54526  30.922  29.383   1.851
86133W        W54527   8.178  34.619   4.219
86134W        W54528  14.220   5.429  14.980
86135W        W54529  31.582  17.099  12.333
86136W        W54530  23.567   7.129   1.857
86137W        W54531  33.958  44.002   0.482
86138W        W54532  40.492   7.137  11.159
86139W        W54533  16.053   7.340  13.297
86140W        W54534   2.885   0.123   1.130
86141W        W54535  11.144   7.614   0.014
86142W        W54536  19.795  29.704  12.091
86143W        W54537  23.672  37.334   3.183
86144W        W54538  20.250  13.348  14.577
86145W        W54539  28.916  17.299  14.825
86146W        W54540  32.470  35.101   4.814
86147W        W54541  13.241  30.516  11.569
86148W        W54542  31.911  15.785   4.137
86149W        W54543  15.224  36.345   4.174
86150W        W54544  38.741  43.826   4.947
86151W        W54545  11.783  43.083  13.893
86152W        W54546  34.017  39.492  12.061
86153W        W54547  38.754  44.429   1.740
86154W        W54548  31.909  21.549   4.219
86155W        W54549  11.764  29.821   1.690
86156W        W54550  38.497  21.193   4.658
86157W        W54551  16.351  42.379  12.520
86158W        W54552  44.429  35.657  10.167
86159W        W54553  35.357   5.635   3.836
86160W        W54554  34.376  24.984  13.037
86161W        W54555  32.459  41.875   1.851
86162W        W54556  30.979  43.175  14.320
86163W        W54557  14.773  12.422   4.032
86164W        W54558   7.267  19.566  13.123
86165W        W54559  28.019  43.890   0.794
86166W        W54560  20.968   3.852  12.445
86167W        W54561  12.676  30.239   1.890
86168W        W54562  24.962  26.732  11.199
86169W        W54563   4.599  26.532  11.149
86170W        W54564   1.685   2.945   3.260
86171W        W54565  31.829   7.832   0.480
86172W        W54566   3.274  18.220   0.436
86173W        W54567  30.047  24.746   1.127
86174W        W54568  27.492  16.897  10.279
86175W        W54569  28.447  23.054  13.311
86176W        W54570  32.947  23.634   0.684
86177W        W54571  38.022  22.236   3.789
86178W        W54572  22.069  37.355  13.829
86179W        W54573  25.700  33.479   2.879
86180W        W54574  16.359  23.135  13.865
86181W        W54575  37.987   3.455  14.258
86182W        W54576  12.668  31.165  12.797
86183W        W54577  22.722  10.739   0.447
86184W        W54578  36.017  39.968  13.549
86185W        W54579  35.630  22.205  12.491
86186W        W54580  10.303  31.440   0.045
86187W        W54581  33.939  16.386  12.076
86188W        W54582  30.744  22.484  12.568
86189W        W54583  13.360  16.846   1.060
86190W        W54584  35.348  13.624   1.345
86191W        W54585  42.521   9.319  10.643
86192W        W54586  22.206   7.703   0.994
86193W        W54587  20.191  16.847  10.597
86194W        W54588  30.131  42.502  12.131
86195W        W54589  11.215  39.241   2.235
86196W        W54590   7.268  12.113  14.268
86197W        W54591  19.735  33.510   1.306
86198W        W54592  17.644  40.761   3.662
86199W        W54593  33.891  44.921   0.943
86200W        W54594  40.747  11.084  11.086
86201W        W54595  15.266  20.084   0.423
86202W        W54596  35.873  22.511   2.500
86203W        W54597  39.910  35.682   4.334
86204W        W54598  34.965  20.297   0.249
86205W        W54599  21.278  30.409   3.528
86206W        W54600  43.772  32.782   1.766
86207W        W54601  34.087  40.195   0.229
86208W        W54602   6.178  42.854  13.015
86209W        W54603  42.992  26.494  14.504
86210W        W54604  17.703  30.104   3.737
86211W        W54605   3.898  26.321  11.006
86212W        W54606  11.606  34.102   4.787
86213W        W54607  33.931   4.391  13.763
86214W        W54608  35.603  39.118   0.795
86215W        W54609  43.247  42.507   2.322
86216W        W54610  31.931  39.388  14.014
86217W        W54611   9.753   7.085   4.557
86218W        W54612  17.574  23.020   3.986
86219W        W54613  25.743  12.758  11.101
86220W        W54614  19.362  39.041  12.120
86221W        W54615   8.694   3.079  11.994
86222W        W54616   6.930   7.413  14.942
86223W        W54617  39.340  43.876   4.235
86224W        W54618  41.494  28.894   0.813
86225W        W54619   0.423  33.088   3.609
86226W        W54620  21.237  28.814  12.556
86227W        W54621  41.650  10.209  10.105
86228W        W54622  36.273   7.379   2.327
86229W        W54623  26.506  10.315   1.160
86230W        W54624  26.108  21.858  14.077
86231W        W54625  33.169  27.681  13.345
86232W        W54626  22.119  26.227   9.842
86233W        W54627  17.545  14.872  10.996
86234W        W54628  37.853  25.636   0.705
86235W        W54629   5.277  12.387  10.696
86236W        W54630  26.824   9.748  12.040
86237W        W54631  40.038  30.745   4.828
86238W        W54632  44.831  28.341   1.190
86239W        W54633  38.227  15.945   3.316
86240W        W54634   3.742  22.086   1.743
86241W        W54635  15.381  29.048  11.953
86242W        W54636  33.491  21.291  12.500
86243W        W54637  36.566  17.287   1.265
86244W        W54638  44.411  44.373  11.914
86245W        W54639  27.948   2.872   1.388
86246W        W54640   6.362  28.180  13.018
86247W        W54641  37.560  41.594  11.922
86248W        W54642  21.218  30.150  12.134
86249W        W54643  43.237  30.634  13.436
86250W        W54644  38.377  35.110   4.845
86251W        W54645  13.556   1.368   0.568
86252W        W54646  36.863  32.665  11.546
86253W        W54647  21.172   6.413  11.577
86254W        W54648  10.296  41.074  14.418
86255W        W54649  39.052   8.874   3.353
86256W        W54650  35.772  26.963  11.101
86257W        W54651  30.509  42.775   1.938
86258W        W54652  25.410  12.326  11.347
86259W        W54653  26.047  37.536   0.463
86260W        W54654  40.024  39.801  11.458
86261W        W54655  41.976   3.642  13.070
86262W        W54656  28.709  30.852  12.434
86263W        W54657  33.650   2.493   3.400
86264W        W54658  14.582  12.663  11.576
86265W        W54659   5.289   5.960  13.142
86266W        W54660  33.989  10.469   3.341
86267W        W54661  29.385  42.738   2.750
86268W        W54662  41.606  38.813   0.864
86269W        W54663  12.639  25.963   3.554
86270W        W54664  18.038  30.971  14.756
86271W        W54665   1.841  32.461   3.287
86272W        W54666  15.193  35.601  11.588
86273W        W54667  29.668  42.834   3.652
86274W        W54668   8.775  28.692  13.832
86275W        W54669  17.602  15.882  12.460
86276W        W54670  35.436  35.775  11.703
86277W        W54671   9.267  42.510   0.978
86278W        W54672  18.732  17.480  11.778
86279W        W54673  39.656  43.751   1.855
86280W        W54674  19.687  34.491  10.437
86281W        W54675  11.177  14.790   2.560
86282W        W54676  10.867  33.483  10.266
86283W        W54677   0.703  38.761  14.549
86284W        W54678  42.438  29.835  14.292
86285W        W54679  10.579  17.602   4.512
86286W        W54680  28.278  24.874   2.557
86287W        W54681  41.869  31.805   1.640
86288W        W54682   4.155  30.569   2.076
86289W        W54683  41.874   8.097   1.773
86290W        W54684  43.723  14.512   1.318
86291W        W54685  16.924  23.939   0.751
86292W        W54686  15.657  44.188  12.229
86293W        W54687  32.497   2.400  12.137
86294W        W54688  26.001  44.734   1.863
86295W        W54689   9.493   8.735   3.694
86296W        W54690  15.243  13.634   0.996
86297W        W54691   2.740  16.273   4.743
86298W        W54692   7.211  42.701  13.872
86299W        W54693  20.975  41.519   3.820
86300W        W54694   0.202  32.547  11.692
86301W        W54695  17.985  38.067  14.255
86302W        W54696  19.704  29.060   4.912
86303W        W54697  33.511   4.373  10.666
86304W        W54698  36.289  19.649   2.314
86305W        W54699   1.345  34.495  10.860
86306W        W54700  20.505  15.098   2.232
86307W        W54701  19.043  12.224  12.430
86308W        W54702   9.627  10.917   4.125
86309W        W54703  29.133  33.073   2.759
86310W        W54704  16.390  13.301   3.271
86311W        W54705   4.427   4.591  12.594
86312W        W54706  23.408  18.185   2.241
86313W        W54707  42.909  22.073  10.733
86314W        W54708  33.532  24.527   4.721
86315W        W54709  39.987   9.218   4.087
86316W        W54710  28.013  41.249   1.865
86317W        W54711  28.475  35.163   4.296
86318W        W54712   9.765  14.778  11.156
86319W        W54713   2.341  24.028  14.436
86320W        W54714  19.618  39.323  12.574
86321W        W54715  16.547  42.851  12.484
86322W        W54716   0.524  26.648   3.204
86323W        W54717  34.172  39.992  11.327
86324W        W54718   3.875  13.726   4.222
86325W        W54719   2.130   7.656  13.394
86326W        W54720  37.351  41.069  11.605
86327W        W54721  35.378  35.948   4.951
86328W        W54722  32.345  38.042  14.475
86329W        W54723  32.346  11.463   4.630
86330W        W54724  20.471  44.921  12.979
86331W        W54725   6.808  35.646   1.717
86332W        W54726  21.680   7.739  13.013
86333W        W54727  26.014  14.050  13.390
86334W        W54728  40.764   1.859   4.075
86335W        W54729  38.289  17.251   2.292
86336W        W54730  22.661  11.139  12.321
86337W        W54731  41.297  37.912  13.778
86338W        W54732  22.941  44.234  12.156
86339W        W54733  20.835  30.159  11.469
86340W        W54734  20.333   3.292  13.948
86341W        W54735  36.368  39.092  14.395
86342W        W54736  27.127  10.902  10.387
86343W        W54737  41.816  33.063   4.665
86344W        W54738  41.303  13.961  13.055
86345W        W54739   0.747  18.034  11.638
86346W        W54740  39.151  35.497   3.349
86347W        W54741  42.265   1.956  13.327
86348W        W54742  17.723   9.539  11.769
86349W        W54743  44.410  14.123  13.787
86350W        W54744  20.665   9.062  13.041
86351W        W54745   3.858  41.108   2.239
86352W        W54746   4.766  19.654  14.462
86353W        W54747   0.521  36.197   1.812
86354W        W54748  15.527  21.334   1.697
86355W        W54749  34.872  26.870  11.111
86356W        W54750  36.884  17.291   2.678
86357W        W54751  42.594  37.003   1.956
86358W        W54752  33.356  22.609  14.927
86359W        W54753  40.053  26.727  14.289
86360W        W54754  23.398  19.148  10.534
86361W        W54755   1.582  22.740  11.250
86362W        W54756  27.098   7.186   3.036
86363W        W54757  12.531  20.965   0.349
86364W        W54758  44.778  17.286   3.393
86365W        W54759  26.949   0.749  12.110
86366W        W54760  34.682  15.859  10.245
86367W        W54761  32.452  44.954   3.255
86368W        W54762  41.288  23.239  11.139
86369W        W54763  42.162   5.202  11.702
86370W        W54764   7.420  37.301  13.354
86371W        W54765   5.651  16.948   1.873
86372W        W54766  12.295  29.333   4.789
86373W        W54767   8.047   7.946  14.354
86374W        W54768  32.848  41.356  14.048
86375W        W54769  37.438  17.792   1.836
86376W        W54770  41.923   1.121  14.461
86377W        W54771  22.535   4.547   5.085
86378W        W54772   7.412  27.368  10.732
86379W        W54773   4.442  16.741   2.803
86380W        W54774  23.960  20.485   0.911
86381W        W54775   9.829   2.442   4.934
86382W        W54776   4.731  11.920  14.871
86383W        W54777   7.225  43.361  12.395
86384W        W54778   3.163  23.486  13.033
86385W        W54779  21.611  18.973  12.779
86386W        W54780   8.866   2.271   3.858
86387W        W54781  21.563  40.906   4.484
86388W        W54782  37.122  40.265  11.993
86389W        W54783  40.458  41.503  12.958
86390W        W54784   5.139  19.287   4.375
86391W        W54785  11.329  12.914  14.634
86392W        W54786  29.693   2.395  13.396
86393W        W54787  35.360  25.488   2.840
86394W        W54788  24.277   9.858  14.694
86395W        W54789  29.906  39.999   3.715
86396W        W54790  35.019  23.762   3.365
86397W        W54791  43.741  18.272   1.070
86398W        W54792  26.416   1.519  10.985
86399W        W54793   9.761  40.953  13.866
86400W        W54794  26.966  22.568  12.506
86401W        W54795  10.899  41.425   1.464
86402W        W54796  30.522   5.419  11.676
86403W        W54797  38.050   8.297   1.301
86404W        W54798  33.947  19.350   3.278
86405W        W54799   0.013  19.194   1.460
86406W        W54800  20.788  17.010  12.883
86407W        W54801  10.188  30.059   3.363
86408W        W54802  35.523  39.349  13.906
86409W        W54803  11.772  25.983   1.483
86410W        W54804  15.111  26.033  13.948
86411W        W54805  34.664  41.511   2.520
86412W        W54806  20.270   3.229   2.800
86413W        W54807  31.807  22.942  14.819
86414W        W54808   6.444  37.864  14.834
86415W        W54809   4.755  38.485   2.399
86416W        W54810   0.220  27.475  14.893
86417W        W54811  41.057  16.116   0.480
86418W        W54812  34.644  11.899   2.690
86419W        W54813  15.664  44.452  14.109
86420W        W54814  10.349  11.646  13.319
86421W        W54815  30.846  41.908  14.128
86422W        W54816  37.220  22.872   4.914
86423W        W54817  38.521  34.987   2.237
86424W        W54818  37.939  43.724   4.133
86425W        W54819   0.726   7.364  11.610
86426W        W54820  43.902  23.924  12.006
86427W        W54821   2.196  37.895   0.372
86428W        W54822  37.013  30.247  14.529
86429W        W54823  42.394  39.301  14.424
86430W        W54824  13.802   9.305   4.090
86431W        W54825  16.637  16.260   2.328
86432W        W54826  23.109   5.866   1.422
86433W        W54827  14.709   6.131  13.152
86434W        W54828  22.079  33.367   3.864
86435W        W54829  29.499  24.265  13.412
86436W        W54830   7.746  23.391   4.097
86437W        W54831  24.257  15.784   1.189
86438W        W54832   8.645  17.660  10.724
86439W        W54833   8.744  20.573  11.046
86440W        W54834  37.524  13.242   2.160
86441W        W54835  11.260  36.453   2.689
86442W        W54836  35.214  43.525   3.279
86443W        W54837  13.289  33.606  10.822
86444W        W54838   1.853  26.101   3.935
86445W        W54839   6.281  10.049  14.464
86446W        W54840  42.980  33.773   2.007
86447W        W54841   4.629  32.967   0.941
86448W        W54842  20.269   8.214  12.982
86449W        W54843  28.999  36.488  14.507
86450W        W54844   8.662  42.993   4.779
86451W        W54845  24.600  20.262  14.875
86452W        W54846  35.005  18.150   5.206
86453W        W54847  19.344   4.286  11.001
86454W        W54848  25.114   2.216   3.611
86455W        W54849  27.476   6.648  11.920
86456W        W54850  36.531  38.995  12.505
86457W        W54851  40.287  14.271   4.963
86458W        W54852   5.894  19.309   4.919
86459W        W54853  26.529  33.638   3.188
86460W        W54854  11.794  38.997  12.026
86461W        W54855  11.916  29.974   0.443
86462W        W54856   6.198  18.502  11.563
86463W        W54857  12.053  25.604  13.839
86464W        W54858   1.562  42.904  11.253
86465W        W54859  27.688   7.433  12.053
86466W        W54860  22.045  19.109  10.629
86467W        W54861  33.552   4.533   1.947
86468W        W54862   5.344  17.776  14.271
86469W        W54863  16.242  19.932  10.800
86470W        W54864   7.149  13.094   9.600
86471W        W54865  21.918  25.531  11.785
86472W        W54866   5.040  24.101  11.075
86473W        W54867  41.927  20.051  14.913
86474W        W54868  19.627  40.515  14.869
86475W        W54869   3.036  15.855   4.472
86476W        W54870  44.269  39.525   0.799
86477W        W54871  24.242  43.378  13.804
86478W        W54872  36.120  27.010  14.898
86479W        W54873  25.822  23.483  14.415
86480W        W54874  23.916  16.156  12.451
86481W        W54875  16.091  18.165   3.613
86482W        W54876  22.967   5.514  12.152
86483W        W54877  11.525  42.799  14.777
86484W        W54878   0.749  18.155   0.343
86485W        W54879  29.116  12.699   2.373
86486W        W54880  26.620  16.525   0.882
86487W        W54881  29.744  41.885   0.207
86488W        W54882  39.793  35.846   2.309
86489W        W54883  17.313   3.551   1.056
86490W        W54884  30.102  10.827  10.692
86491W        W54885  13.918  12.578   0.837
86492W        W54886  22.530   3.251  14.499
86493W        W54887  30.399   7.446   4.226
86494W        W54888  44.619  32.791  13.592
86495W        W54889  29.462  15.838  12.001
86496W        W54890   2.783  20.582   2.612
86497W        W54891  27.576   6.155  11.973
86498W        W54892   9.705   3.754  10.499
86499W        W54893  13.538   0.871  12.885
86500W        W54894  20.891  37.093   0.346
86501W        W54895  22.776  10.274  14.495
86502W        W54896  21.734  14.049  14.666
86503W        W54897  12.144  24.768  14.489
86504W        W54898  11.215  44.300  11.310
86505W        W54899  20.626  29.647   1.346
86506W        W54900  41.959  10.806   2.170
86507W        W54901  35.419   0.179   1.238
86508W        W54902  28.067   9.142  11.103
86509W        W54903  16.019   8.717   2.191
86510W        W54904  12.159   2.366  11.179
86511W        W54905  25.364  33.971  11.158
86512W        W54906  20.433  17.394   4.562
86513W        W54907   9.748   7.443   2.343
86514W        W54908  43.476  37.571  11.135
86515W        W54909  40.859   5.040  12.580
86516W        W54910  14.259  11.765  12.070
86517W        W54911   9.829  12.239   0.746
86518W        W54912  32.001  22.566   0.114
86519W        W54913  44.158  17.198   4.178
86520W        W54914  17.541  23.071  12.005
86521W        W54915   4.193  15.186  10.908
86522W        W54916   3.045  12.354  10.241
86523W        W54917  14.196  25.230   4.663
86524W        W54918  22.267  22.731  11.940
86525W        W54919  22.439  40.581  11.216
86526W        W54920  26.390   7.252  13.784
86527W        W54921  39.958   5.129   4.166
86528W        W54922  38.860  35.034   2.629
86529W        W54923  25.781   5.332   4.227
86530W        W54924   5.191  41.432   0.965
86531W        W54925  12.304   7.927  13.989
86532W        W54926  31.839   8.625   3.080
86533W        W54927  23.081   6.279  11.675
86534W        W54928  32.002   0.481  12.482
86535W        W54929  37.313  29.515  13.241
86536W        W54930  35.081  32.030   5.357
86537W        W54931  44.769  37.004  11.691
86538W        W54932  15.406  42.790  11.603
86539W        W54933  32.357   7.406  14.865
86540W        W54934  36.968   3.217  10.568
86541W        W54935  12.699  26.163  14.315
86542W        W54936  18.599  12.358   0.576
86543W        W54937   4.777  41.464   0.245
86544W        W54938  27.513  25.133  12.886
86545W        W54939  33.399  29.517  10.689
86546W        W54940  17.360   9.182   0.893
86547W        W54941  35.579  44.657   2.857
86548W        W54942   0.402  35.825  12.864
86549W        W54943   2.163  33.034  13.992
86550W        W54944  34.610  26.721  13.978
86551W        W54945   8.884  42.278   0.178
86552W        W54946  27.539  14.467  11.545
86553W        W54947  24.026  30.273   5.195
86554W        W54948  11.083  42.002   4.548
86555W        W54949  39.027   9.295  14.187
86556W        W54950  31.287   3.915  11.987
86557W        W54951  14.839   0.856  12.576
86558W        W54952  37.353  29.470   0.798
86559W        W54953   0.932   2.104   4.547
86560W        W54954   8.985  18.703  13.324
86561W        W54955   9.254  14.588  14.449
86562W        W54956   7.328   8.872   1.955
86563W        W54957  17.679  37.908  12.655
86564W        W54958  16.753  40.695   0.694
86565W        W54959  11.209  34.270   1.374
86566W        W54960  18.292  21.738   4.544
86567W        W54961   5.381  23.362  13.832
86568W        W54962  28.924  44.499  13.095
86569W        W54963  38.601  33.666   0.202
86570W        W54964  39.779  35.570  14.253
86571W        W54965  15.605  28.407  10.558
86572W        W54966  20.825  35.079   3.803
86573W        W54967  22.547  31.851  12.841
86574W        W54968  13.275   2.798   4.101
86575W        W54969  18.218  10.924   2.863
86576W        W54970  32.967  16.988  11.135
86577W        W54971  19.872  43.717  12.950
86578W        W54972  32.294  24.039  11.121
86579W        W54973  15.173  26.632  11.995
86580W        W54974  11.107  24.476   4.493
86581W        W54975  19.842  27.798   2.823
86582W        W54976  16.670  20.036  14.286
86583W        W54977  36.461  15.636   1.896
86584W        W54978  25.601  17.788  12.027
86585W        W54979  14.200  25.817  12.401
86586W        W54980  36.095  40.457   0.515
86587W        W54981   3.323  28.572   2.757
86588W        W54982  21.022  28.672  12.006
86589W        W54983  26.721   0.820   4.535
86590W        W54984  42.078   7.629  13.771
86591W        W54985  30.777   9.756  14.300
86592W        W54986  22.104  26.502  11.136
86593W        W54987   0.324  43.435  12.098
86594W        W54988  33.902  12.341  10.450
86595W        W54989   3.072  44.386  13.365
86596W        W54990   8.446  39.942   2.015
86597W        W54991   9.799  29.884  11.255
86598W        W54992   2.435  12.100   1.854
86599W        W54993  37.964  37.280   4.518
86600W        W54994  27.393  20.569  14.650
86601W        W54995  30.670  27.038   4.173
86602W        W54996  15.846   5.245   3.143
86603W        W54997   1.016   5.953  10.476
86604W        W54998   8.220  43.552  14.775
86605W        W54999   1.313  38.350   2.188
86606W        W55000  41.919  13.633  14.007
86607W        W55001  15.532  12.448  14.350
86608W        W55002  18.068   3.954  11.073
86609W        W55003  32.582  38.940  11.247
86610W        W55004  21.387  40.599  11.167
86611W        W55005  40.807  23.386  14.965
86612W        W55006  22.122  25.431   9.790
86613W        W55007  20.249  18.119   2.352
86614W        W55008  17.816  24.130  11.625
86615W        W55009  28.090  37.419   1.599
86616W        W55010  28.661  18.780  14.899
86617W        W55011   2.288  17.404  14.328
86618W        W55012  41.436   1.521   2.268
86619W        W55013  44.054  24.653   1.632
86620W        W55014  41.012  12.036  13.796
86621W        W55015  12.762   2.485   1.903
86622W        W55016  37.844  35.091  14.935
86623W        W55017  25.690  16.818  11.044
86624W        W55018  24.738  16.287  13.645
86625W        W55019  40.821   5.745  13.899
86626W        W55020  20.860   4.877  11.184
86627W        W55021  31.877  15.679  12.797
86628W        W55022  10.359  44.467  11.342
86629W        W55023  16.082  13.226  11.205
86630W        W55024  11.964  18.647  12.953
86631W        W55025  28.959  29.163   2.789
86632W        W55026  33.376  13.781   1.332
86633W        W55027  15.225  32.582  12.166
86634W        W55028  18.083  11.672  11.315
86635W        W55029  26.906   5.245  13.105
86636W        W55030  27.095  18.760   4.068
86637W        W55031  22.956  33.134   3.704
86638W        W55032  44.976   1.852   2.243
86639W        W55033  20.526  26.664  11.834
86640W        W55034   9.179  44.469  14.845
86641W        W55035  40.912   3.833   3.364
86642W        W55036  41.484  41.835  12.377
86643W        W55037  44.806  34.096   2.291
86644W        W55038  15.170  28.634   3.343
86645W        W55039  15.307   0.228  13.061
86646W        W55040  24.763   5.853  12.022
86647W        W55041  21.798  23.048  11.925
86648W        W55042  29.930   9.780   4.841
86649W        W55043  44.813  41.394   3.934
86650W        W55044  21.556  27.809   0.453
86651W        W55045  37.398   1.789  14.930
86652W        W55046  43.317   1.855  10.687
86653W        W55047   5.633  21.169  12.011
86654W        W55048  19.101   1.221  14.437
86655W        W55049  40.897   4.865  13.079
86656W        W55050  39.178  10.498   0.783
86657W        W55051  19.243  23.644  12.610
86658W        W55052  25.713   6.753  12.432
86659W        W55053  13.634  42.795   1.352
86660W        W55054  34.482   7.517   2.540
86661W        W55055  20.778   0.041   4.534
86662W        W55056  44.744  33.630  10.470
86663W        W55057  32.578  39.866  14.379
86664W        W55058  22.095  19.244  11.600
86665W        W55059  30.178  38.408  11.778
86666W        W55060   9.237  25.189  12.872
86667W        W55061  11.922  43.717   2.156
86668W        W55062  11.260  33.908  11.509
86669W        W55063  20.686  25.681   3.845
86670W        W55064  31.616   1.466  10.452
86671W        W55065  40.348   4.858   4.511
86672W        W55066   0.828  39.842  12.170
86673W        W55067  42.388  22.750  11.103
86674W        W55068  25.482   0.540  13.375
86675W        W55069  43.522  34.125   1.727
86676W        W55070  15.853  16.315   0.794
86677W        W55071  30.246   4.897  10.742
86678W        W55072  44.313   0.990   0.556
86679W        W55073   9.646  41.891   2.729
86680W        W55074  17.087  14.922   0.842
86681W        W55075  18.052  35.575   2.377
86682W        W55076   5.269   6.196  14.612
86683W        W55077  12.390  28.530   0.111
86684W        W55078  41.042  24.917   1.129
86685W        W55079  35.964  42.415   4.657
86686W        W55080  23.239  20.129   2.264
86687W        W55081  31.071  11.136  10.722
86688W        W55082   4.204   3.943   3.858
86689W        W55083  22.083  38.578   2.646
86690W        W55084  31.482  12.739  10.688
86691W        W55085   8.279   9.294  14.954
86692W        W55086  42.405  26.314  14.708
86693W        W55087  20.854  37.018  11.745
86694W        W55088  32.444  24.188  13.981
86695W        W55089  10.504   2.856   4.125
86696W        W55090  14.616  38.582   2.319
86697W        W55091  42.722  43.332   2.425
86698W        W55092  18.427  12.326   4.275
86699W        W55093  44.836  40.089   0.232
86700W        W55094  14.145  31.060  10.648
86701W        W55095  37.321  21.305  11.379
86702W        W55096   6.486   1.712   0.294
86703W        W55097   9.666  26.783   4.286
86704W        W55098   5.935  38.009  13.968
86705W        W55099  44.037   1.755  14.000
86706W        W55100  42.539  37.345  10.715
86707W        W55101  43.810  37.017  11.580
86708W        W55102  40.909  15.507  14.308
86709W        W55103  22.730  24.148   4.784
86710W        W55104  32.681   3.404  12.792
86711W        W55105  12.128  10.906   3.803
86712W        W55106  29.631  15.211   3.800
86713W        W55107  11.893  25.197   4.646
86714W        W55108  19.632  30.612   4.190
86715W        W55109  13.159  43.534  12.517
86716W        W55110  39.897  31.936  13.752
86717W        W55111   8.950  15.387   4.119
86718W        W55112  19.058  30.735   1.897
86719W        W55113  27.559  20.691  11.638
86720W        W55114  21.805  28.306   2.892
86721W        W55115  24.039  44.223  11.432
86722W        W55116  23.614   2.814   3.620
86723W        W55117  28.255  19.596  12.114
86724W        W55118  25.028   4.248  13.069
86725W        W55119  29.172  15.822   4.545
86726W        W55120  14.152   7.348   2.304
86727W        W55121   6.909  17.571   4.104
86728W        W55122  42.417  31.977  11.195
86729W        W55123  23.967  26.620  12.583
86730W        W55124  31.593  38.469  12.195
86731W        W55125  42.541  24.521  10.727
86732W        W55126  43.580  40.096  14.681
86733W        W55127  15.077  29.391  13.760
86734W        W55128  23.197  15.040  14.383
86735W        W55129  39.800  27.671   0.920
86736W        W55130  40.318  12.891   1.880
86737W        W55131   4.316  25.644   5.188
86738W        W55132  24.458   9.188  14.394
86739W        W55133  41.691   8.474  12.095
86740W        W55134  17.050  40.367  13.839
86741W        W55135  37.937  13.577  14.803
86742W        W55136  31.891  11.766  11.640
86743W        W55137  23.469  30.209  12.115
86744W        W55138  39.466  13.656  11.881
86745W        W55139  11.858  43.535  12.876
86746W        W55140  33.581  43.902   1.392
86747W        W55141  42.642  19.343  11.451
86748W        W55142  26.594  41.894   0.759
86749W        W55143  25.871  13.283   1.759
86750W        W55144  34.051  11.670   1.946
86751W        W55145  39.921   6.704  14.260
86752W        W55146  35.488  29.545  14.897
86753W        W55147  10.945  28.128   2.721
86754W        W55148  15.491  35.517  11.109
86755W        W55149  44.875  28.557  13.096
86756W        W55150   5.951  31.278  11.581
86757W        W55151  41.099  41.035  14.299
86758W        W55152  35.513  18.532  13.429
86759W        W55153  32.744  29.327  13.085
86760W        W55154  30.147  33.381   0.803
86761W        W55155  41.976  19.999   0.904
86762W        W55156   6.861  15.642   1.362
86763W        W55157   8.311  38.794  13.566
86764W        W55158  16.153  44.246  13.324
86765W        W55159  18.516  17.531  12.245
86766W        W55160  43.193  20.728   0.272
86767W        W55161  13.549  19.545  13.274
86768W        W55162  23.307   6.165  14.795
86769W        W55163   4.017  10.844   0.878
86770W        W55164  29.621  18.123  12.470
86771W        W55165  34.396  35.045  14.033
86772W        W55166  42.306  16.615  13.982
86773W        W55167  43.204  31.064  14.244
86774W        W55168  25.439   9.190  11.703
86775W        W55169  18.481  24.229  14.213
86776W        W55170  20.965  21.231  14.013
86777W        W55171   1.832   6.330   3.338
86778W        W55172  11.999  36.597  13.353
86779W        W55173  35.816  35.403   0.566
86780W        W55174  14.020  31.448   2.687
86781W        W55175   9.587   6.289   2.821
86782W        W55176  34.192  22.716   0.248
86783W        W55177  20.145   1.915   3.409
86784W        W55178   6.213  44.266   4.778
86785W        W55179  21.429   1.989  10.581
86786W        W55180   4.985  31.618  13.149
86787W        W55181   0.803   5.867  14.504
86788W        W55182  35.275   6.284  10.697
86789W        W55183  31.185  14.691   0.360
86790W        W55184  20.740  37.076   3.412
86791W        W55185  43.422  12.834   3.865
86792W        W55186  43.459  43.003  11.070
86793W        W55187  44.253   6.516   4.267
86794W        W55188  41.941   1.697  11.379
86795W        W55189  22.958   2.439  10.723
86796W        W55190  26.095  12.155  12.304
86797W        W55191  42.496   0.566  13.556
86798W        W55192  44.030  39.489   0.300
86799W        W55193  23.668  21.279   0.800
86800W        W55194  29.739   1.813  14.428
86801W        W55195  35.974  27.476   2.204
86802W        W55196  11.300   9.950   0.720
86803W        W55197  23.027   0.258  10.486
86804W        W55198  28.914  19.994  12.504
86805W        W55199  24.575  26.999   4.628
86806W        W55200  32.486  32.539   0.041
86807W        W55201  33.834  35.919   0.886
86808W        W55202  10.861  19.202  10.670
86809W        W55203  15.130   0.464   2.400
86810W        W55204  22.114  22.756   2.565
86811W        W55205  12.909  21.190  13.396
86812W        W55206  25.676   0.956   2.347
86813W        W55207  37.100  12.496  12.106
86814W        W55208   4.803  23.593  12.481
86815W        W55209  32.209   5.337   1.451
86816W        W55210  11.952  11.202   1.272
86817W        W55211  18.812  20.656  10.910
86818W        W55212  16.585  30.091  12.031
86819W        W55213  41.428   6.760   2.475
86820W        W55214  18.543  15.482   0.095
86821W        W55215  11.150  23.307   1.302
86822W        W55216   5.286  24.872   2.224
86823W        W55217  44.014  31.441   1.850
86824W        W55218  42.483  30.917   4.667
86825W        W55219  26.237  16.950  12.239
86826W        W55220   9.507  30.813  11.152
86827W        W55221   4.521   8.419  14.995
86828W        W55222   5.268  33.929  12.594
86829W        W55223  22.949  31.941  10.236
86830W        W55224  43.480   6.243  10.618
86831W        W55225   3.631  19.272   1.773
86832W        W55226   7.202  12.703   1.870
86833W        W55227   3.402  30.169   4.489
86834W        W55228  16.679  32.809   2.403
86835W        W55229  39.609   3.969   3.409
86836W        W55230  38.891  15.480   4.139
86837W        W55231  22.641  16.483  14.346
86838W        W55232  15.537  37.194  11.525
86839W        W55233  17.189  40.660  12.390
86840W        W55234  44.646   2.947  12.550
86841W        W55235  12.816   5.662   4.586
86842W        W55236  42.758   3.700   0.452
86843W        W55237  40.511  31.942   0.845
86844W        W55238   5.763  19.102  13.295
86845W        W55239  22.187  13.199  10.463
86846W        W55240  24.181   1.233  11.740
86847W        W55241  17.685   9.479   4.590
86848W        W55242  36.313  38.551   1.193
86849W        W55243  16.798   9.626  14.552
86850W        W55244  19.693  16.651   4.608
86851W        W55245   2.870   9.879  12.382
86852W        W55246  24.654   3.695   0.053
86853W        W55247  44.144  20.980   2.220
86854W        W55248   9.512  44.976   1.753
86855W        W55249  40.043  19.347  13.284
86856W        W55250  12.857  40.240   4.118
86857W        W55251  10.207  20.365  13.060
86858W        W55252  11.797  25.093  14.735
86859W        W55253  41.385  38.413   3.367
86860W        W55254   7.674  20.293   4.660
86861W        W55255  42.334  39.693  11.108
86862W        W55256   9.596  11.986   4.186
86863W        W55257  24.590  41.549  10.760
86864W        W55258  19.527  18.663  12.142
86865W        W55259  18.258  34.640  12.897
86866W        W55260  15.764  27.583  10.207
86867W        W55261  28.994  13.348  11.123
86868W        W55262   4.239  14.835   1.609
86869W        W55263  32.647  13.293  14.484
86870W        W55264  40.839  31.742  14.803
86871W        W55265   2.356  35.595   3.322
86872W        W55266  23.797   8.585   5.426
86873W        W55267   6.149   7.429   1.290
86874W        W55268  35.944  43.366  11.667
86875W        W55269  34.482  32.484   4.375
86876W        W55270  39.825   7.814   3.324
86877W        W55271  34.928  29.673  13.378
86878W        W55272  18.397  21.027   3.172
86879W        W55273  15.053  39.027  11.539
86880W        W55274  24.099  31.714  11.004
86881W        W55275  17.192  24.545  11.143
86882W        W55276   9.695  27.578  10.653
86883W        W55277   6.754  44.927  10.978
86884W        W55278  37.834  21.764  11.194
86885W        W55279  33.060   4.784  13.329
86886W        W55280  11.774  31.207  12.990
86887W        W55281   8.728  31.770   1.340
86888W        W55282   6.366   2.649  14.490
86889W        W55283  31.152   8.017  11.648
86890W        W55284  17.300  25.750   0.243
86891W        W55285   5.128  24.264   0.197
86892W        W55286   7.320   2.933  14.457
86893W        W55287  28.961  29.978  12.797
86894W        W55288  43.097  20.453  10.627
86895W        W55289  10.776  21.018  10.822
86896W        W55290  25.034  11.181   3.102
86897W        W55291   3.776  19.741  12.484
86898W        W55292  40.269  13.177  11.023
86899W        W55293  28.393  39.031  13.552
86900W        W55294  18.321  24.041  11.584
86901W        W55295  39.293   0.254   3.161
86902W        W55296   5.421  18.977   0.620
86903W        W55297  26.627  33.378   2.357
86904W        W55298  20.251  31.657  11.266
86905W        W55299   7.434  27.013  11.125
86906W        W55300  40.722  24.077   3.718
86907W        W55301  35.062   3.218  10.762
86908W        W55302  28.740  12.674  13.139
86909W        W55303  12.621  24.997  13.409
86910W        W55304  22.840  26.692  14.978
86911W        W55305  44.973  22.558  12.535
86912W        W55306   4.605   3.163   3.698
86913W        W55307  38.632  34.114  14.833
86914W        W55308   9.307  43.541  12.889
86915W        W55309  12.108  26.196  12.648
86916W        W55310  19.582  20.159   0.951
86917W        W55311  24.120  11.451   2.778
86918W        W55312  11.374  21.324   4.166
86919W        W55313   3.278  13.447   3.632
86920W        W55314   4.246  11.331   0.851
86921W        W55315  39.429  11.066   3.977
86922W        W55316  25.664   8.088   3.332
86923W        W55317  18.012  34.579  13.892
86924W        W55318  10.691  39.831  10.903
86925W        W55319  36.426  21.244   2.197
86926W        W55320   1.843  24.765   3.777
86927W        W55321  33.635  15.686   4.573
86928W        W55322  35.354  24.212  12.960
86929W        W55323  28.475  25.199  12.965
86930W        W55324  35.330  35.080  13.874
86931W        W55325  24.632  23.465   0.021
86932W        W55326  40.514   1.407   4.648
86933W        W55327  32.349  22.459  13.422
86934W        W55328   7.939   5.344  11.349
86935W        W55329   7.620  28.005   4.991
86936W        W55330  13.839  27.107   1.287
86937W        W55331   9.831  34.122   3.081
86938W        W55332  23.126  44.361   4.722
86939W        W55333  33.333  35.552   2.770
86940W        W55334   5.037  39.891   2.410
86941W        W55335   6.829  40.726   0.004
86942W        W55336  21.433  24.524  14.511
86943W        W55337  42.532   4.165   0.371
86944W        W55338  36.618   2.756  11.360
86945W        W55339  24.922  16.579   3.760
86946W        W55340  10.183  24.548  13.501
86947W        W55341  15.077   6.279   1.174
86948W        W55342  36.442  12.715  11.079
86949W        W55343  22.536   6.425   5.127
86950W        W55344  35.051  38.259   4.230
86951W        W55345  14.463  35.378   3.418
86952W        W55346  31.639  37.779   3.741
86953W        W55347  20.571  39.926  14.319
86954W        W55348   8.313   7.403   4.423
86955W        W55349   7.877  12.800  14.408
86956W        W55350  39.334  35.697  12.592
86957W        W55351   7.264  36.438  14.820
86958W        W55352  15.046  17.622   1.825
86959W        W55353  25.334   5.058   4.204
86960W        W55354   1.709  29.230  14.302
86961W        W55355  31.738  18.200  13.582
86962W        W55356  11.344  24.025   0.882
86963W        W55357  37.916  27.664  11.390
86964W        W55358  42.350   6.342  12.519
86965W        W55359  42.514  24.482  12.474
86966W        W55360   2.722  16.753  14.011
86967W        W55361  43.462  11.187  11.285
86968W        W55362   0.236   6.851   4.541
86969W        W55363   7.903  42.382  12.474
86970W        W55364  40.385   3.630  12.511
86971W        W55365   1.222  20.467   0.917
86972W        W55366  43.304  38.853  12.945
86973W        W55367  35.915  30.271   0.388
86974W        W55368  18.473  32.009   1.962
86975W        W55369  30.268   7.237  12.615
86976W        W55370   3.675  19.319   4.667
86977W        W55371  12.446  28.672   2.796
86978W        W55372   4.982  10.638  14.812
86979W        W55373  24.549  32.644  13.274
86980W        W55374  20.739   8.064  12.903
86981W        W55375  30.643  41.358  14.734
86982W        W55376  14.758  11.077  12.478
86983W        W55377  14.586  26.200  11.100
86984W        W55378   2.544   8.603  13.377
86985W        W55379  21.139   8.904  12.873
86986W        W55380  31.918   2.943   3.255
86987W        W55381  15.243  23.130   3.722
86988W        W55382  22.092  23.179  10.541
86989W        W55383  40.814   7.100  11.594
86990W        W55384   6.779  24.525  13.377
86991W        W55385   7.912  19.241  14.483
86992W        W55386  29.846   6.886   1.757
86993W        W55387  10.800  16.814   4.571
86994W        W55388   1.923  34.819   3.118
86995W        W55389  19.558  20.706   2.368
86996W        W55390  11.624  26.457   2.934
86997W        W55391  11.795  35.757   2.797
86998W        W55392  10.252   4.208   2.253
86999W        W55393   7.398  23.237  13.483
87000W        W55394  12.280   5.578   1.393
87001W        W55395  18.297  20.596  13.929
87002W        W55396  30.884  36.315  13.386
87003W        W55397  42.882   6.834  11.923
87004W        W55398  17.700  35.019   0.823
87005W        W55399  15.325  12.615   0.871
87006W        W55400  19.513  37.865   4.110
87007W        W55401  35.992   6.989  11.520
87008W        W55402  19.697   2.968  12.158
87009W        W55403  30.051  39.533  13.209
87010W        W55404  17.263  16.357  10.621
87011W        W55405  37.321  16.588  12.972
87012W        W55406  18.573  25.901   3.671
87013W        W55407   7.078  42.336   1.307
87014W        W55408   3.012  20.021  11.025
87015W        W55409  23.430  34.397  14.925
87016W        W55410  14.240  34.899  13.641
87017W        W55411  38.454  23.593  11.083
87018W        W55412   1.805  43.530  12.109
87019W        W55413  36.068  34.419  10.878
87020W        W55414   2.416  33.906  11.072
87021W        W55415   5.449  27.094   1.271
87022W        W55416  43.119   6.226   3.288
87023W        W55417  25.697  25.146   0.771
87024W        W55418  44.360   2.923   3.406
87025W        W55419  12.616   9.200  13.070
87026W        W55420   8.990   4.924   2.789
87027W        W55421   2.394   9.347   3.749
87028W        W55422  32.320  25.612   1.750
87029W        W55423   5.965  23.068  11.284
87030W        W55424  20.493  30.643  13.859
87031W        W55425  42.711  19.620  13.900
87032W        W55426  30.199  29.049   0.905
87033W        W55427  19.563   1.233   2.917
87034W        W55428  26.085   9.737  11.281
87035W        W55429  21.709  36.419  10.675
87036W        W55430   9.684  19.096  12.945
87037W        W55431  31.576   0.072  11.508
87038W        W55432  11.868  33.901  14.355
87039W        W55433   5.167  35.897  10.112
87040W        W55434  37.874  33.979   2.257
87041W        W55435   0.302  14.224  14.710
87042W        W55436  22.616  38.130   3.213
87043W        W55437  14.107  23.038  12.093
87044W        W55438  33.029  41.278  11.702
87045W        W55439  23.435  42.069  12.636
87046W        W55440  30.100  44.455   0.853
87047W        W55441   6.200  30.898  13.869
87048W        W55442   4.301  13.723  12.581
87049W        W55443   3.765  23.452   2.771
87050W        W55444   9.693  23.659   0.253
87051W        W55445  22.624   4.683   1.855
87052W        W55446  17.639  27.489  13.449
87053W        W55447  11.556   1.335   3.705
87054W        W55448   0.586  25.570  14.852
87055W        W55449  35.474  22.112  14.084
87056W        W55450  42.343  39.428   0.424
87057W        W55451  19.171  26.142  11.550
87058W        W55452  22.969  14.623  11.563
87059W        W55453  41.084   6.266   3.203
87060W        W55454  15.299  14.149  13.679
87061W        W55455  18.994  28.627   5.256
87062W        W55456  28.671  25.234   4.565
87063W        W55457  11.996   5.706   3.154
87064W        W55458  44.377  27.020  12.847
87065W        W55459  18.037  14.051   4.180
87066W        W55460  26.483  20.499   3.282
87067W        W55461  37.124   7.327   0.398
87068W        W55462   1.823  15.208   4.635
87069W        W55463  36.464  12.715  14.538
87070W        W55464   4.538  12.608   0.462
87071W        W55465  14.209  41.542   1.082
87072W        W55466   0.758   9.622   3.401
87073W        W55467  22.248  30.376  12.619
87074W        W55468  39.308  37.638  11.834
87075W        W55469  13.766  33.637  11.082
87076W        W55470   4.595   2.399   0.165
87077W        W55471   1.326   3.554  14.681
87078W        W55472  17.797  22.934  11.586
87079W        W55473  17.476   9.355  13.480
87080W        W55474  27.821  17.383  13.549
87081W        W55475  19.255  28.281  12.246
87082W        W55476  42.341   0.519   5.010
87083W        W55477  14.324  15.089   0.341
87084W        W55478  11.454  32.540   1.730
87085W        W55479  13.081   1.992   0.684
87086W        W55480  24.557  14.987   2.266
87087W        W55481  29.904   2.500  13.849
87088W        W55482  26.522  34.030   1.282
87089W        W55483  31.332  36.485   0.319
87090W        W55484  20.457  31.036  10.694
87091W        W55485  26.578  22.227   2.143
87092W        W55486  20.786  32.322   1.390
87093W        W55487  27.533  40.958  11.947
87094W        W55488   7.734  34.661   0.465
87095W        W55489  18.145  15.116   2.037
87096W        W55490  38.960   0.832  11.079
87097W        W55491  35.005  35.351  14.729
87098W        W55492  36.518  31.833   3.549
87099W        W55493  34.072   0.376   0.708
87100W        W55494  31.665  14.275  11.040
87101W        W55495   8.359  24.176   0.821
87102W        W55496  36.246  11.220   3.662
87103W        W55497  29.890  39.927  13.475
87104W        W55498  38.080   9.109   4.155
87105W        W55499  32.434  37.342   0.453
87106W        W55500  34.476   2.723  14.938
87107W        W55501  13.826   1.895   3.145
87108W        W55502   6.775   3.368   1.836
87109W        W55503  14.845  11.619   4.453
87110W        W55504  31.906  23.492   0.536
87111W        W55505   5.875  21.765  12.535
87112W        W55506  35.537  22.188   0.086
87113W        W55507  11.278  32.144  11.345
87114W        W55508  44.916  42.006   3.791
87115W        W55509  15.153  27.152   3.255
87116W        W55510  24.330  40.756   2.803
87117W        W55511  26.734  44.778   0.677
87118W        W55512  44.266  36.110  11.026
87119W        W55513  20.632  39.625   1.305
87120W        W55514  35.351  37.301  14.732
87121W        W55515  39.776  33.288  14.931
87122W        W55516  17.148  38.926  13.847
87123W        W55517  33.337  44.795   0.018
87124W        W55518   6.763  10.763   1.157
87125W        W55519  40.331  30.542   0.844
87126W        W55520  13.455  12.129   0.749
87127W        W55521   6.802  42.893   5.021
87128W        W55522  13.709  33.867  10.610
87129W        W55523  31.758  29.156  14.735
87130W        W55524  10.635  22.400  10.626
87131W        W55525   5.448  17.133   2.816
87132W        W55526  31.037  16.663  13.780
87133W        W55527  19.668   9.672   0.809
87134W        W55528  35.165  24.197  11.631
87135W        W55529  31.479  36.395   0.818
87136W        W55530  10.470   8.801   3.322
87137W        W55531  23.739   8.320   2.964
87138W        W55532  42.912  24.174   4.374
87139W        W55533  33.771  39.536  13.102
87140W        W55534  30.625  30.201  13.962
87141W        W55535  40.509   4.638  12.416
87142W        W55536  27.239  31.667  12.527
87143W        W55537  23.331  21.835   3.628
87144W        W55538  19.734   2.397  11.244
87145W        W55539  23.731  41.967   0.170
87146W        W55540  26.380  15.297   1.299
87147W        W55541   3.034  33.754  13.020
87148W        W55542  34.479  31.614  10.440
87149W        W55543  35.053  11.848  13.968
87150W        W55544  10.802   9.826  13.645
87151W        W55545  36.528  29.808  13.469
87152W        W55546   2.467   7.009  14.927
87153W        W55547  12.343   3.881  14.796
87154W        W55548  12.112  38.936  14.336
87155W        W55549  24.927  18.553  14.403
87156W        W55550  30.114  37.783  12.523
87157W        W55551   2.095  18.625  12.465
87158W        W55552  44.431  43.324  11.914
87159W        W55553  23.921  10.221   2.319
87160W        W55554  26.528  21.317   2.733
87161W        W55555  24.156  39.170  10.208
87162W        W55556   2.789   4.127   1.150
87163W        W55557   9.012  42.312   5.005
87164W        W55558   6.222   0.417  11.577
87165W        W55559  18.316  13.178   1.362
87166W        W55560   6.738  33.373  12.920
87167W        W55561   4.429  43.860   4.712
87168W        W55562   5.924  43.820  13.375
87169W        W55563  18.104  12.737   4.704
87170W        W55564  17.078  33.192  14.003
87171W        W55565  37.858   6.126   1.789
87172W        W55566   1.431   9.602  13.993
87173W        W55567  19.756  40.170  12.869
87174W        W55568  15.819  14.748   2.650
87175W        W55569  36.791  22.494  14.429
87176W        W55570  23.912  31.126   1.824
87177W        W55571  24.151  15.824  14.157
87178W        W55572  43.400  39.017   0.979
87179W        W55573  33.942  42.487   0.404
87180W        W55574  28.702  35.513   0.989
87181W        W55575  36.033  10.557  12.582
87182W        W55576  12.690   1.978   1.910
87183W        W55577  28.698  11.587   2.732
87184W        W55578  19.790  32.702  11.785
87185W        W55579   0.988  38.035   0.016
87186W        W55580  34.921  41.404  12.442
87187W        W55581  31.180   9.707  10.618
87188W        W55582  29.972   8.764   0.061
87189W        W55583  12.932   6.832   0.804
87190W        W55584   1.392  42.012   1.720
87191W        W55585   4.824  10.792   3.616
87192W        W55586  35.778  11.939   4.132
87193W        W55587  39.043  17.055  13.413
87194W        W55588  44.580   9.935  13.273
87195W        W55589   7.750  19.656  10.781
87196W        W55590  30.626  13.635   1.683
87197W        W55591  19.263  32.147   4.500
87198W        W55592   7.620  20.698   0.743
87199W        W55593  31.984  42.374   2.299
87200W        W55594  13.223  29.898  13.727
87201W        W55595  30.856  32.907   2.502
87202W        W55596   5.477   1.741  13.908
87203W        W55597   8.645  40.447   1.805
87204W        W55598  38.837   3.719   4.185
87205W        W55599   6.232  17.172   2.265
87206W        W55600  41.032  21.698  13.590
87207W        W55601  11.861  21.755  11.902
87208W        W55602  11.508   0.378  13.248
87209W        W55603  17.179   0.322  11.517
87210W        W55604   7.828  38.044   2.393
87211W        W55605  36.058  31.078   4.517
87212W        W55606   0.399   1.675   3.002
87213W        W55607   5.065  15.723   1.698
87214W        W55608  14.572  40.556  10.694
87215W        W55609   8.776   7.670   2.403
87216W        W55610  15.283  28.972  13.990
87217W        W55611   1.772   5.334  13.060
87218W        W55612  43.084   1.509   1.797
87219W        W55613  23.514  43.909   4.779
87220W        W55614  28.872  29.942  14.375
87221W        W55615  33.445  21.033   0.317
87222W        W55616  10.412  24.196  13.794
87223W        W55617   0.510   0.100   2.439
87224W        W55618  34.904   4.464   0.230
87225W        W55619  24.639  16.346   0.187
87226W        W55620   9.185   1.320   3.730
87227W        W55621  14.176  11.526   2.355
87228W        W55622  13.154  17.567   0.318
87229W        W55623  17.984  11.343  11.979
87230W        W55624  13.437  37.646   3.129
87231W        W55625  17.171  44.312  14.396
87232W        W55626  14.760  13.779   5.065
87233W        W55627   2.076  25.218  11.178
87234W        W55628  18.820  23.970  11.537
87235W        W55629  16.162  23.026  11.084
87236W        W55630  29.458  23.686  11.692
87237W        W55631  29.298  29.993  14.040
87238W        W55632  14.055  34.639  10.581
87239W        W55633  12.263  27.886  13.083
87240W        W55634  26.074  41.506  14.518
87241W        W55635  10.911  20.145  14.012
87242W        W55636  13.030  23.459   4.505
87243W        W55637  40.851  44.909   3.118
87244W        W55638   8.833  24.032   4.089
87245W        W55639  28.311   5.322  12.122
87246W        W55640  19.012  34.084   1.258
87247W        W55641  43.381   2.894  13.329
87248W        W55642  17.118  31.791   2.507
87249W        W55643   3.298  17.222   1.210
87250W        W55644  11.829  28.677   0.969
87251W        W55645  25.828  41.314  12.634
87252W        W55646   9.123   0.756  11.906
87253W        W55647  22.559  31.107  12.068
87254W        W55648  30.054  37.605  12.058
87255W        W55649  10.331  32.312   0.230
87256W        W55650  29.192  35.821  11.094
87257W        W55651  38.610  27.496   3.376
87258W        W55652  19.748  18.622   2.827
87259W        W55653  39.995  36.779  10.477
87260W        W55654  41.413  12.058   0.768
87261W        W55655  11.890  25.040  12.102
87262W        W55656  31.769   4.578   0.889
87263W        W55657  38.578  13.712  11.642
87264W        W55658  42.825  28.641   1.716
87265W        W55659  32.118  43.351  12.304
87266W        W55660   2.297  36.389  13.317
87267W        W55661  14.717  21.338  13.905
87268W        W55662  38.786  28.960   4.000
87269W        W55663  35.830  39.229   2.172
87270W        W55664   2.346  25.154  14.907
87271W        W55665  32.384   6.240  13.078
87272W        W55666  37.349   6.720  13.076
87273W        W55667  26.354  28.717  11.227
87274W        W55668   6.101  11.586  11.184
87275W        W55669  20.098  31.585  14.197
87276W        W55670  16.296   9.738   5.201
87277W        W55671  33.859  35.046   3.251
87278W        W55672  40.065  34.321  12.481
87279W        W55673  16.630  12.547   2.299
87280W        W55674  37.532  17.729  14.442
87281W        W55675   2.859  31.438   3.914
87282W        W55676  25.717  41.348  11.582
87283W        W55677  39.908   5.452   2.264
87284W        W55678  41.908  41.515   0.659
87285W        W55679  26.680  44.425  11.214
87286W        W55680  15.385  37.945  14.514
87287W        W55681  27.937  16.276  14.787
87288W        W55682  40.533  21.631  13.505
87289W        W55683  10.579  17.099  10.722
87290W        W55684   8.389  37.429  13.514
87291W        W55685   5.797  22.303  14.522
87292W        W55686  13.186  34.859   4.797
87293W        W55687  38.547  25.492   1.843
87294W        W55688  16.632  17.789   4.039
87295W        W55689   2.437  17.141  13.346
87296W        W55690  15.618   2.460   2.591
87297W        W55691  29.945  21.634   3.722
87298W        W55692   3.239  20.323  11.914
87299W        W55693  16.615   0.631  13.390
87300W        W55694  42.432  27.485  14.206
87301W        W55695  37.646   7.230   0.363
87302W        W55696  25.192  25.145   0.976
87303W        W55697   3.275   8.621   1.739
87304W        W55698  38.457   9.975  12.160
87305W        W55699   5.211  16.417  11.561
87306W        W55700  33.945  31.287  10.487
87307W        W55701  16.629  12.861   3.232
87308W        W55702   5.780  44.227   1.146
87309W        W55703  15.772  25.040  11.728
87310W        W55704  15.338   7.481  12.102
87311W        W55705   1.283  31.653  11.106
87312W        W55706  29.179  35.526  12.466
87313W        W55707   5.448  24.977  12.952
87314W        W55708  26.996  41.406   4.159
87315W        W55709  21.549  36.902   1.609
87316W        W55710  26.679  17.345  11.178
87317W        W55711   7.140  43.066   4.112
87318W        W55712  15.531   7.187   2.938
87319W        W55713  38.786  35.917   2.569
87320W        W55714   7.887  37.502  11.579
87321W        W55715   3.259  17.802  11.622
87322W        W55716  34.307   3.215  14.072
87323W        W55717  13.661  22.054   2.411
87324W        W55718  20.353  37.229  10.165
87325W        W55719  21.703   9.223   3.129
87326W        W55720  33.352  11.663  14.375
87327W        W55721  16.084  44.358  14.448
87328W        W55722  43.739  26.013  10.678
87329W        W55723   4.689  24.376   4.229
87330W        W55724  28.481  12.681  14.411
87331W        W55725  26.505  36.622  11.263
87332W        W55726  16.171   2.060  14.065
87333W        W55727  43.504  28.265   3.807
87334W        W55728   1.179  40.988   1.660
87335W        W55729   7.743  13.265   2.262
87336W        W55730  11.588  17.243  10.749
87337W        W55731  10.739  15.966  11.352
87338W        W55732  23.598  30.660   3.394
87339W        W55733  43.383  23.130   1.887
87340W        W55734   8.441  44.816  14.485
87341W        W55735  15.853  30.689  13.834
87342W        W55736  11.398  13.579   2.344
87343W        W55737  40.352  19.215   1.803
87344W        W55738   6.185  40.106   4.850
87345W        W55739  40.083  41.335  13.289
87346W        W55740  17.036  34.905  12.903
87347W        W55741  42.063  18.125   4.539
87348W        W55742  26.963  11.066  14.025
87349W        W55743  43.780  10.125  14.926
87350W        W55744  24.402  43.002  13.474
87351W        W55745   1.239  37.983  12.525
87352W        W55746  24.616  37.269  11.701
87353W        W55747  24.214   4.448  11.523
87354W        W55748  24.060  42.300   1.733
87355W        W55749   7.263  16.579  12.995
87356W        W55750   0.494  35.353  14.098
87357W        W55751  30.126  21.939   0.891
87358W        W55752  19.027  23.498  13.880
87359W        W55753  39.246  21.139  12.743
87360W        W55754  25.528  40.073  10.691
87361W        W55755  21.465  34.509   0.481
87362W        W55756  30.703  13.325  13.147
87363W        W55757   0.063  18.215   4.901
87364W        W55758  18.534   9.694   1.766
87365W        W55759   1.193  13.751   0.149
87366W        W55760  28.980  18.617  12.546
87367W        W55761  41.744  24.478   2.159
87368W        W55762   6.259  43.957   4.368
87369W        W55763  25.118  19.245   1.472
87370W        W55764  23.076   7.804  10.698
87371W        W55765  30.887  37.749   1.761
87372W        W55766   3.089  11.203   4.394
87373W        W55767  34.413   1.788  12.077
87374W        W55768  43.494  43.945  14.424
87375W        W55769  37.781  34.498   2.283
87376W        W55770  43.908  21.059   4.342
87377W        W55771  11.659  11.877   0.547
87378W        W55772  20.737  24.829   4.812
87379W        W55773   1.000  24.101   3.737
87380W        W55774  31.714   5.778  14.716
87381W        W55775  25.987  10.169   3.330
87382W        W55776  17.009  24.935   1.008
87383W        W55777  26.711  22.996  11.342
87384W        W55778  19.633   0.556   0.389
87385W        W55779  31.327  14.016   0.481
87386W        W55780  12.400  29.267   3.768
87387W        W55781   1.966   5.412   4.875
87388W        W55782   2.280  12.579   0.806
87389W        W55783   8.191   3.887   4.044
87390W        W55784  26.070  39.344   2.235
87391W        W55785  38.416  23.175  12.201
87392W        W55786   9.690  35.503  11.088
87393W        W55787   2.699  34.170  12.949
87394W        W55788   3.885  32.444   4.917
87395W        W55789   5.917  42.791  13.467
87396W        W55790  43.497  37.592   1.199
87397W        W55791  19.587   3.759  12.669
87398W        W55792  11.203  35.021   2.758
87399W        W55793  21.515  41.492   2.802
87400W        W55794  39.474   8.696  14.056
87401W        W55795  20.232   7.622   0.185
87402W        W55796  42.881  14.930   0.776
87403W        W55797  43.963  25.475  13.871
87404W        W55798  10.899   8.834  14.833
87405W        W55799  30.375  18.753   1.766
87406W        W55800  32.508  37.181   1.417
87407W        W55801  16.582  39.144  11.503
87408W        W55802  15.449   8.471  10.340
87409W        W55803   1.092  20.696   4.313
87410W        W55804  13.957  30.709   0.857
87411W        W55805   2.128  15.801   3.120
87412W        W55806   3.245   8.099   1.627
87413W        W55807   3.202  40.480  10.845
87414W        W55808  16.267  42.426   4.065
87415W        W55809  42.727  31.605  14.823
87416W        W55810   3.451  24.209   4.293
87417W        W55811  34.132  16.326  12.612
87418W        W55812   8.835  27.752  10.858
87419W        W55813  31.023  17.086   1.899
87420W        W55814  24.215  13.206   2.423
87421W        W55815  19.423  31.292   1.105
87422W        W55816  23.002   4.868   2.769
87423W        W55817  12.637   9.901   2.589
87424W        W55818  25.689  37.592   4.043
87425W        W55819  12.332  40.457   1.797
87426W        W55820  17.242  24.201  13.864
87427W        W55821  37.859  42.929   4.580
87428W        W55822  23.992   1.956   4.348
87429W        W55823  11.465   5.457   0.827
87430W        W55824  13.470   2.915   2.513
87431W        W55825  42.144  29.062   1.397
87432W        W55826  13.757  31.479  11.582
87433W        W55827  19.259  35.659  11.916
87434W        W55828  15.210   4.481  10.252
87435W        W55829  15.213  13.931  12.657
87436W        W55830  35.033  29.950   1.904
87437W        W55831  34.414   7.076  12.533
87438W        W55832   1.031  37.552  13.440
87439W        W55833  24.472  13.922  10.316
87440W        W55834  27.711  38.446  14.470
87441W        W55835  22.290  35.618  12.415
87442W        W55836  20.236  36.840  10.956
87443W        W55837  36.085  37.088  12.620
87444W        W55838  22.601  28.102  14.050
87445W        W55839  32.892  27.139  10.329
87446W        W55840  24.194  31.710  13.840
87447W        W55841  29.900  32.459  13.891
87448W        W55842  28.872   5.487  10.715
87449W        W55843  37.410   5.832   2.797
87450W        W55844  44.720  33.111  14.903
87451W        W55845  22.277   3.335   3.665
87452W        W55846  30.453  38.621   3.193
87453W        W55847  23.546  41.529   1.402
87454W        W55848  19.185  11.629   1.278
87455W        W55849  23.773   2.013  14.632
87456W        W55850  25.448  31.503  14.856
87457W        W55851  27.101   7.324  10.855
87458W        W55852  23.371  39.430   2.187
87459W        W55853  24.659  37.898   0.892
87460W        W55854   0.784  14.219  14.464
87461W        W55855  25.521  15.607  12.969
87462W        W55856  10.767  12.772  11.374
87463W        W55857  32.138  33.945   2.342
87464W        W55858  19.773  29.950  11.609
87465W        W55859   2.865  25.238  14.926
87466W        W55860  37.887  23.643  11.078
87467W        W55861  37.665  30.818  11.986
87468W        W55862  20.335  24.927  12.015
87469W        W55863  14.773  23.126  14.972
87470W        W55864  41.360   3.412   2.201
87471W        W55865  24.044  11.292   1.406
87472W        W55866  26.924   1.423   4.837
87473W        W55867  10.387  24.802  13.084
87474W        W55868  16.568   6.907  13.009
87475W        W55869  20.074  38.828  12.859
87476W        W55870  28.236  26.104  10.517
87477W        W55871  44.845  44.020   3.367
87478W        W55872  15.269   3.715   3.868
87479W        W55873  14.773  11.408  10.038
87480W        W55874   0.401  37.128  12.358
87481W        W55875  44.312  28.713   2.599
87482W        W55876  14.100  43.633  11.566
87483W        W55877   5.368   3.780  11.778
87484W        W55878  17.168  20.775  14.414
87485W        W55879   9.932  41.006   0.889
87486W        W55880  14.120  26.085  14.237
87487W        W55881  15.622  33.908   2.808
87488W        W55882  43.389   0.971   1.006
87489W        W55883  18.766   2.730   4.621
87490W        W55884   1.230   6.216  12.891
87491W        W55885  18.591  11.147   0.749
87492W        W55886  22.555  28.976  12.743
87493W        W55887   0.159  19.527   1.844
87494W        W55888  39.416  29.998  11.471
87495W        W55889   1.357  18.837   3.177
87496W        W55890  22.733  19.508   4.317
87497W        W55891  27.062  32.096  12.773
87498W        W55892  42.979  10.683   2.376
87499W        W55893  39.524   4.776   2.774
87500W        W55894  18.048  24.462  12.958
87501W        W55895  20.742  25.572   1.760
87502W        W55896  20.438  31.946   3.355
87503W        W55897   2.018  36.148   3.438
87504W        W55898  40.889  24.920  12.535
87505W        W55899   2.662  17.699  10.978
87506W        W55900  18.638  13.842   0.801
87507W        W55901  39.820   8.820  13.368
87508W        W55902  27.036  32.064   1.252
87509W        W55903  32.363  24.064   2.884
87510W        W55904  32.253  16.497  11.223
87511W        W55905  24.989  14.395   0.617
87512W        W55906  42.262  18.589  10.482
87513W        W55907  40.026  11.085   1.573
87514W        W55908  29.942  14.590  13.321
87515W        W55909  28.997  18.040   0.334
87516W        W55910  42.904   5.375  11.102
87517W        W55911  12.072  15.208   3.184
87518W        W55912  12.530   4.918  11.650
87519W        W55913   8.620   5.707  14.840
87520W        W55914   8.328  39.062  13.120
87521W        W55915  13.738  27.431   4.941
87522W        W55916  21.531  36.489  14.285
87523W        W55917  11.148  33.965   1.824
87524W        W55918  22.296  35.384  11.889
87525W        W55919  39.310  15.757   4.041
87526W        W55920  35.852  16.524  12.909
87527W        W55921  20.261  15.054  10.239
87528W        W55922  42.923   5.939  10.447
87529W        W55923  24.556   4.313   3.309
87530W        W55924  18.922  40.475  14.454
87531W        W55925  20.306   5.011   1.235
87532W        W55926   3.508  25.919   0.384
87533W        W55927  25.165  28.146  11.853
87534W        W55928  35.151   6.304   0.809
87535W        W55929  17.034  44.805  10.826
87536W        W55930  16.276  31.358  11.457
87537W        W55931   5.340  42.350   0.698
87538W        W55932  35.452  40.064  12.788
87539W        W55933   1.978   1.547  11.594
87540W        W55934  11.131  21.657   2.442
87541W        W55935   0.152   8.444  12.679
87542W        W55936   4.286  36.463   3.660
87543W        W55937   5.396  15.894   0.283
87544W        W55938   8.929  18.692   2.886
87545W        W55939  14.617  21.835   1.800
87546W        W55940  12.808  35.755   0.057
87547W        W55941  13.055  34.389   1.804
87548W        W55942  33.139  19.346   4.606
87549W        W55943   0.681   6.154   4.967
87550W        W55944   0.510  36.348   9.760
87551W        W55945   5.422  26.942  14.830
87552W        W55946  23.492  12.709   0.017
87553W        W55947  30.841   4.357  13.856
87554W        W55948   5.262  21.674   0.440
87555W        W55949  19.588   0.745  14.502
87556W        W55950  20.087  16.815   2.150
87557W        W55951  42.294   8.974  13.719
87558W        W55952  27.587  14.214   4.887
87559W        W55953  36.539  27.183  11.531
87560W        W55954  36.319  20.218   4.838
87561W        W55955   2.049  32.275   5.164
87562W        W55956  15.058  32.023   2.938
87563W        W55957  12.258  16.240  11.477
87564W        W55958  25.143  38.400   4.154
87565W        W55959  18.236  36.890  14.816
87566W        W55960  40.023   5.808  10.942
87567W        W55961  39.469  36.981  11.112
87568W        W55962  21.004  11.787  11.890
87569W        W55963  33.547  42.765  11.234
87570W        W55964  14.172   5.434   3.677
87571W        W55965   7.643  27.997   1.694
87572W        W55966  40.077   0.401   4.812
87573W        W55967  42.258  21.197  12.446
87574W        W55968  36.989   4.458   4.764
87575W        W55969   0.333  11.600  13.374
87576W        W55970  18.986  17.164  11.457
87577W        W55971   1.300  25.484   3.608
87578W        W55972  14.849  21.389  10.758
87579W        W55973  31.891  24.836   2.684
87580W        W55974  31.149  19.644  10.696
87581W        W55975  16.621  41.976  12.659
87582W        W55976  44.199   6.751  14.302
87583W        W55977  28.030   2.003  14.010
87584W        W55978   1.154  37.790  11.642
87585W        W55979  28.455  41.157  12.388
87586W        W55980  10.854  22.773   3.079
87587W        W55981  44.867  36.632  10.756
87588W        W55982  37.613  21.575   2.832
87589W        W55983  12.710  15.668  10.380
87590W        W55984  17.264   5.395   0.828
87591W        W55985  19.847  17.201  12.829
87592W        W55986  35.426  31.481  14.323
87593W        W55987  33.231  27.495  10.131
87594W        W55988  35.136  43.454  13.846
87595W        W55989  18.433  43.195  13.520
87596W        W55990  23.256  44.873  13.816
87597W        W55991   6.314  14.926   1.834
87598W        W55992  28.533  13.807   4.619
87599W        W55993  14.336   7.498  12.304
87600W        W55994   2.211  36.588   2.376
87601W        W55995  12.619  32.021   1.647
87602W        W55996  20.922  26.975   4.072
87603W        W55997  14.624  41.904  14.562
87604W        W55998  29.930   3.828  13.330
87605W        W55999  36.332  15.557  11.962
87606W        W56000  27.639  34.190   0.203
87607W        W56001  29.225  29.748  11.583
87608W        W56002  37.922  10.307   4.520
87609W        W56003  26.943  18.469   1.376
87610W        W56004   0.507  40.834   0.756
87611W        W56005  41.318  41.467  14.062
87612W        W56006   0.338  29.036   3.166
87613W        W56007  19.650   7.899  10.592
87614W        W56008  11.728  18.746  10.748
87615W        W56009  17.147  20.831  12.536
87616W        W56010  39.190   5.833   4.076
87617W        W56011  12.375  42.445  13.355
87618W        W56012  15.677  21.466  10.706
87619W        W56013  42.976  13.394  11.589
87620W        W56014  30.776  38.813  14.358
87621W        W56015  18.059  39.957  11.497
87622W        W56016  43.038  13.606   0.418
87623W        W56017  31.900  26.346   0.824
87624W        W56018  37.095  22.914   0.194
87625W        W56019   2.367  34.523   3.205
87626W        W56020  36.802  42.883   4.577
87627W        W56021  39.086  25.658   1.891
87628W        W56022  36.288  30.014  10.650
87629W        W56023  34.558  16.216   0.410
87630W        W56024   3.705  25.227  12.713
87631W        W56025  25.725   1.721   2.406
87632W        W56026  24.200  23.161  14.964
87633W        W56027  34.993  33.072   2.271
87634W        W56028  31.158  31.190  11.361
87635W        W56029  12.317  22.641  13.457
87636W        W56030  32.158  11.576  12.040
87637W        W56031  38.485  33.095   1.883
87638W        W56032  31.139  14.735   3.180
87639W        W56033  37.285  20.697  13.411
87640W        W56034  20.630   4.012   3.143
87641W        W56035  43.740  13.780  14.833
87642W        W56036  10.325  33.635   3.121
87643W        W56037  14.711   1.249   1.659
87644W        W56038  40.526  34.634  10.426
87645W        W56039  38.164  12.242   2.370
87646W        W56040   8.083  26.225   0.749
87647W        W56041  29.938  40.027   4.634
87648W        W56042  10.142  16.692   4.347
87649W        W56043  11.833  29.019   1.373
87650W        W56044  44.362  41.732  11.557
87651W        W56045  40.789  13.221  12.250
87652W        W56046  44.371  12.883  10.389
87653W        W56047  13.246  11.421  13.785
87654W        W56048   3.721  19.073   4.184
87655W        W56049  16.924  39.870  10.678
87656W        W56050   2.304  42.979  13.917
87657W        W56051   3.489  22.263  12.965
87658W        W56052  43.752  31.891  13.819
87659W        W56053  21.535   9.365  13.662
87660W        W56054  42.613  37.451  12.478
87661W        W56055  42.854  25.172   2.492
87662W        W56056   9.557  41.564  13.433
87663W        W56057  40.948  42.809  11.704
87664W        W56058   2.366  26.097  13.809
87665W        W56059  12.715   2.458   2.479
87666W        W56060   0.958  33.973  11.648
87667W        W56061  34.788  22.963   0.405
87668W        W56062  31.975  10.610   0.328
87669W        W56063   7.384  14.660  14.719
87670W        W56064  34.599   9.261  13.742
87671W        W56065  10.090   4.138  13.090
87672W        W56066  18.136  31.716  12.358
87673W        W56067  13.621   4.857  12.429
87674W        W56068  35.457   3.795  14.247
87675W        W56069  14.073  38.728  10.694
87676W        W56070  34.592   0.151   4.090
87677W        W56071  32.723  19.081   1.204
87678W        W56072  40.780  39.014   0.370
87679W        W56073  17.825  41.900  10.650
87680W        W56074   7.437  23.956   2.749
87681W        W56075   3.324   1.878  10.632
87682W        W56076   3.065  31.798   0.701
87683W        W56077   2.908   7.496  13.033
87684W        W56078  13.565  41.600   1.323
87685W        W56079  18.369  30.413  13.037
87686W        W56080  36.917  43.062   0.313
87687W        W56081   5.395   1.151  13.087
87688W        W56082  42.787   3.772  14.054
87689W        W56083   0.862  34.512  12.891
87690W        W56084   7.486   1.913   3.313
87691W        W56085   9.240  28.014  11.071
87692W        W56086  41.751  28.929  10.845
87693W        W56087  20.792  22.184  13.443
87694W        W56088   2.255   6.320   0.316
87695W        W56089  21.965  39.774   1.331
87696W        W56090  30.852  13.683   4.297
87697W        W56091   2.283   8.829  12.977
87698W        W56092  11.605  19.670   2.359
87699W        W56093  36.026  18.608  13.250
87700W        W56094   4.385  18.848   0.355
87701W        W56095  37.871   3.749  12.914
87702W        W56096   7.742  43.952  12.934
87703W        W56097  43.985  13.646   0.799
87704W        W56098  25.414   8.199   2.497
87705W        W56099  42.320  21.723   0.790
87706W        W56100  37.084  41.479   0.298
87707W        W56101   9.257  35.890   2.265
87708W        W56102  27.656  26.446  13.972
87709W        W56103  17.123  23.478  12.006
87710W        W56104  18.694  10.831   1.819
87711W        W56105  33.498   4.832  11.123
87712W        W56106  38.078  32.334  13.725
87713W        W56107  42.000   4.709   2.237
87714W        W56108  27.084  26.790   2.304
87715W        W56109  37.003  40.691   3.389
87716W        W56110  10.735  23.507   4.177
87717W        W56111  36.320  14.621   2.289
87718W        W56112  21.499  26.884  12.457
87719W        W56113  20.946  32.916   2.881
87720W        W56114  42.477   8.916   1.037
87721W        W56115  25.958  20.749  12.639
87722W        W56116  27.545  24.598   4.791
87723W        W56117   8.591  19.671   2.916
87724W        W56118  15.577  12.906   2.655
87725W        W56119  22.272  10.169  14.494
87726W        W56120  29.104  41.074  14.430
87727W        W56121   5.753  22.586  12.164
87728W        W56122  28.627   3.350  14.598
87729W        W56123  24.646  42.426  14.919
87730W        W56124  36.966  16.005  11.230
87731W        W56125   0.789  34.476   0.833
87732W        W56126  36.062  14.637   3.871
87733W        W56127  14.753  32.974  13.879
87734W        W56128  35.372  24.335   0.701
87735W        W56129  42.357   9.416   1.163
87736W        W56130  13.244  28.110  12.784
87737W        W56131  11.372  37.855   4.042
87738W        W56132  39.445  44.432  13.205
87739W        W56133  38.878  38.013  12.845
87740W        W56134  35.080   2.479   2.981
87741W        W56135  19.568  25.618  12.062
87742W        W56136  29.562   5.815   0.017
87743W        W56137  26.167  29.615   4.585
87744W        W56138  14.598  23.032  10.684
87745W        W56139  27.450  35.096  13.312
87746W        W56140  12.122  10.419  11.048
87747W        W56141  43.353  19.829  12.586
87748W        W56142  28.015  13.738  13.071
87749W        W56143  40.195  43.411  12.477
87750W        W56144  29.081  30.168  11.896
87751W        W56145  19.157  21.082   0.404
87752W        W56146  37.411  20.757   1.087
87753W        W56147  24.958  23.912  11.086
87754W        W56148  20.821  21.267   0.031
87755W        W56149   3.869  44.740   1.727
87756W        W56150  40.312   8.672   0.282
87757W        W56151  22.646  36.909  12.894
87758W        W56152  29.475   0.531  13.513
87759W        W56153  19.667  42.407  13.954
87760W        W56154  39.077  12.880  13.473
87761W        W56155  15.339   9.133  10.838
87762W        W56156   3.990  34.909   0.922
87763W        W56157  36.083  11.050  12.728
87764W        W56158   7.304  39.514  14.547
87765W        W56159  37.139  25.955   2.266
87766W        W56160  25.131  20.700   2.798
87767W        W56161   9.168  33.870  13.814
87768W        W56162  21.489   5.683   3.542
87769W        W56163  31.691  40.362  12.543
87770W        W56164  11.269   0.362  11.441
87771W        W56165  10.335  32.458  12.044
87772W        W56166  34.535  33.458  11.852
87773W        W56167   0.051   0.462   0.858
87774W        W56168  28.259   7.837   0.793
87775W        W56169  36.807  39.294   4.482
87776W        W56170   1.867  39.560   1.277
87777W        W56171  11.798  38.096   3.147
87778W        W56172  23.661  21.315   4.287
87779W        W56173  23.494  22.953   2.354
87780W        W56174  18.065  16.687   4.042
87781W        W56175  32.386   0.484   1.376
87782W        W56176  44.881  40.249   3.340
87783W        W56177   6.549  44.289   1.021
87784W        W56178  12.676  19.669   0.927
87785W        W56179  13.748  31.036   2.550
87786W        W56180  43.515  39.535   1.334
87787W        W56181  21.799  13.124   0.062
87788W        W56182  13.737  14.545  13.376
87789W        W56183   0.405  41.575  12.581
87790W        W56184  29.645   1.768   1.283
87791W        W56185  40.787  14.618  12.006
87792W        W56186  22.617  20.787  10.689
87793W        W56187  13.305  39.100  11.136
87794W        W56188  28.500  17.703   2.236
87795W        W56189  42.484  25.958   4.875
87796W        W56190  14.614  29.432   1.943
87797W        W56191  21.139  23.659   1.904
87798W        W56192   6.199  27.107  13.864
87799W        W56193  44.540  35.792   3.632
87800W        W56194  31.924  33.313   1.494
87801W        W56195  12.658  27.878   1.042
87802W        W56196   8.217   4.238  14.307
87803W        W56197   4.413   7.472   4.101
87804W        W56198  17.605  11.364  12.371
87805W        W56199  10.622  12.167  13.196
87806W        W56200  38.907  17.570  13.319
87807W        W56201  10.306  16.816   0.850
87808W        W56202  24.285  12.442  12.063
87809W        W56203  21.081  31.730   3.392
87810W        W56204  25.966  28.558  14.814
87811W        W56205  28.193  40.099   1.485
87812W        W56206  15.188  31.495   4.184
87813W        W56207  32.749   4.198  14.447
87814W        W56208  11.309  21.686   1.952
87815W        W56209  37.422  19.046   3.261
87816W        W56210  27.166  33.013   1.666
87817W        W56211   8.765  44.841   3.235
87818W        W56212  14.404  24.225  14.338
87819W        W56213  14.935   2.886  13.942
87820W        W56214  19.052  11.133   2.140
87821W        W56215  20.746   7.824   4.607
87822W        W56216  14.430  39.057   3.569
87823W        W56217  34.936  38.419   2.818
87824W        W56218  30.705  16.258   2.267
87825W        W56219  40.503  32.490   0.891
87826W        W56220  40.268   6.337  14.481
87827W        W56221  33.756  11.297  11.464
87828W        W56222   4.275  28.874  13.994
87829W        W56223  24.905  13.519  11.715
87830W        W56224   7.722  33.831   2.922
87831W        W56225  10.589  42.757   0.026
87832W        W56226   5.359  14.615  14.887
87833W        W56227   0.825  40.526   1.513
87834W        W56228  29.398  16.376  14.944
87835W        W56229  35.403  12.703  14.273
87836W        W56230  23.802  41.472   3.330
87837W        W56231   3.645   7.984   4.346
87838W        W56232  11.364  25.655  13.583
87839W        W56233  30.652  43.426   0.290
87840W        W56234   8.968  29.179   3.691
87841W        W56235  17.274   4.036   3.889
87842W        W56236  31.311  11.722   0.166
87843W        W56237  28.410  30.480  10.671
87844W        W56238  35.416  42.584   4.765
87845W        W56239  14.788  43.882   2.810
87846W        W56240  35.137   4.108   1.979
87847W        W56241   9.688  34.357  13.856
87848W        W56242   2.401  26.938  13.064
87849W        W56243  15.293  25.076  13.882
87850W        W56244  16.695   3.545  14.321
87851W        W56245  21.463  10.866   0.773
87852W        W56246  27.914  40.530   4.170
87853W        W56247  28.157   0.840  10.521
87854W        W56248  39.863  24.486  11.584
87855W        W56249   3.753  19.785  14.488
87856W        W56250  38.762  39.366  14.451
87857W        W56251  21.299  39.310   0.861
87858W        W56252  33.901  18.114   3.729
87859W        W56253  11.755  16.049  11.532
87860W        W56254   3.393   3.562   3.276
87861W        W56255  35.498  31.822   1.696
87862W        W56256  43.257  27.884  14.887
87863W        W56257  15.618  13.551  10.750
87864W        W56258   3.921  31.097  11.951
87865W        W56259  30.069   1.331  10.340
87866W        W56260  30.015  35.186   2.311
87867W        W56261   0.836  29.054   1.397
87868W        W56262  14.203   5.725  13.499
87869W        W56263  21.849  33.087  13.279
87870W        W56264  43.040   4.228  14.013
87871W        W56265  13.724  18.682  13.482
87872W        W56266  17.362  11.831  14.512
87873W        W56267   3.294  25.171  14.609
87874W        W56268  12.127  25.246  14.251
87875W        W56269  31.932  40.349  14.907
87876W        W56270  16.392   9.819   2.849
87877W        W56271   1.943  17.026  10.694
87878W        W56272  12.269   7.917   4.088
87879W        W56273  34.667  21.536  11.206
87880W        W56274  29.958  20.712  12.101
87881W        W56275  10.237  22.959   2.444
87882W        W56276  13.211   1.890  12.880
87883W        W56277  39.818  33.449  12.051
87884W        W56278  11.303  18.302  14.366
87885W        W56279  15.088  44.539  11.019
87886W        W56280  26.007   2.884  11.571
87887W        W56281  39.373  42.715   2.708
87888W        W56282  23.763  37.628  12.100
87889W        W56283   0.358   1.939  10.717
87890W        W56284  39.091  42.967  12.929
87891W        W56285   1.756  29.307   5.027
87892W        W56286  30.130   3.003  12.334
87893W        W56287  37.413  13.544  13.179
87894W        W56288  43.828  29.266  11.467
87895W        W56289  44.332   2.495  11.536
87896W        W56290  12.338  17.593  11.889
87897W        W56291   6.166   2.906  10.119
87898W        W56292  27.045  36.468   3.300
87899W        W56293   4.623  35.930   1.173
87900W        W56294   7.187  32.159  10.647
87901W        W56295  15.617  16.337   1.260
87902W        W56296   4.525   9.239   4.066
87903W        W56297  33.405  39.484  11.441
87904W        W56298   0.900   2.677   4.309
87905W        W56299  35.352  24.501  13.423
87906W        W56300  28.622  31.103   4.240
87907W        W56301  42.830  13.369   0.845
87908W        W56302  22.308  44.855  14.007
87909W        W56303  23.034  22.886  11.389
87910W        W56304  23.118  30.569   3.585
87911W        W56305  23.264  23.468   0.042
87912W        W56306   7.370  33.427  10.658
87913W        W56307  23.229   7.158   4.856
87914W        W56308   6.742  38.452   2.675
87915W        W56309  36.830  11.733   4.217
87916W        W56310   3.378  31.670   2.730
87917W        W56311  40.939  22.688  10.567
87918W        W56312  27.957  25.188   4.091
87919W        W56313  29.067  27.580  13.125
87920W        W56314  28.010  24.758   3.327
87921W        W56315  38.355  40.431   1.358
87922W        W56316   0.264  19.770  14.005
87923W        W56317   9.125  19.728  11.586
87924W        W56318  16.804  24.877  11.163
87925W        W56319  19.533   4.356   0.190
87926W        W56320  43.220  24.717  14.829
87927W        W56321  27.260  14.148  14.292
87928W        W56322  14.804  11.382   3.999
87929W        W56323   6.171   8.330  12.170
87930W        W56324  29.866   2.806   0.231
87931W        W56325  35.322  20.525  11.305
87932W        W56326  18.752  26.720   3.142
87933W        W56327  20.777   9.820   0.919
87934W        W56328  37.403  38.012   2.848
87935W        W56329  37.429  15.777  11.108
87936W        W56330  37.368  43.492   2.805
87937W        W56331  23.517  38.859   3.600
87938W        W56332  32.035  17.344   2.174
87939W        W56333  13.839  34.130   3.322
87940W        W56334   0.727   5.326   4.583
87941W        W56335  19.537   5.265   2.767
87942W        W56336  29.489  12.013  13.782
87943W        W56337   8.334  33.881   2.461
87944W        W56338  36.979  44.497   2.408
87945W        W56339  30.554   5.113  14.591
87946W        W56340  26.754  14.052   1.873
87947W        W56341  24.556  33.569   2.188
87948W        W56342  42.405  37.283   4.063
87949W        W56343  10.746  29.888  13.568
87950W        W56344  28.580  38.362  10.735
87951W        W56345  42.636   0.749   0.487
87952W        W56346   3.040  32.005  13.904
87953W        W56347   8.827  35.057  14.822
87954W        W56348  34.145   7.764  14.943
87955W        W56349  36.549  18.245   1.681
87956W        W56350   8.114   5.482   0.866
87957W        W56351   7.804  33.053  14.989
87958W        W56352  16.701  15.519   3.418
87959W        W56353  27.150  38.481   0.362
87960W        W56354  24.243  24.530   2.904
87961W        W56355  33.116   6.675   2.220
87962W        W56356  13.264  20.978  13.079
87963W        W56357  12.296   3.802   1.877
87964W        W56358  26.468  15.236   4.169
87965W        W56359  20.391  24.641   9.571
87966W        W56360  27.442  36.349  11.078
87967W        W56361  30.067  39.678   2.120
87968W        W56362   9.184  40.063   2.640
87969W        W56363  44.381  16.478  12.588
87970W        W56364   3.349   4.780  10.763
87971W        W56365  15.692   4.262  10.129
87972W        W56366  13.459  28.100   1.293
87973W        W56367  34.557   6.206  12.920
87974W        W56368  11.985  40.340  11.087
87975W        W56369   0.864   3.868  13.865
87976W        W56370  41.047   4.018  14.074
87977W        W56371  28.676  20.200  12.891
87978W        W56372  30.315   5.782  13.461
87979W        W56373  24.692  33.496  13.945
87980W        W56374   9.028  39.762  12.176
87981W        W56375   5.460  22.747   2.152
87982W        W56376  26.414  39.069   3.158
87983W        W56377  31.183  37.613   1.328
87984W        W56378  12.771   3.404   3.652
87985W        W56379  44.255  41.344  13.477
87986W        W56380  37.300  38.944  12.033
87987W        W56381  37.257  20.046  12.452
87988W        W56382  43.029  32.019  13.032
87989W        W56383  26.177   4.906  10.713
87990W        W56384   4.179  13.706   1.794
87991W        W56385  24.161   2.947   1.147
87992W        W56386   2.326  32.108  10.672
87993W        W56387  30.187  30.506   0.367
87994W        W56388  33.489  22.156   1.224
87995W        W56389  39.836  20.580  13.050
87996W        W56390  19.333  10.841   1.748
87997W        W56391  19.906  16.880  11.513
87998W        W56392   7.791  27.080   4.952
87999W        W56393  13.638  39.126  12.423
88000W        W56394  13.121  32.417   5.018
88001W        W56395  23.595   9.753  14.293
88002W        W56396  17.563  14.573   1.285
88003W        W56397  42.994  29.113   4.178
88004W        W56398  37.088  34.910   2.545
88005W        W56399  25.453  42.885  11.661
88006W        W56400  10.020  13.805   1.223
88007W        W56401  38.465  24.956  14.954
88008W        W56402  17.508   8.730  12.944
88009W        W56403  36.327  22.097  11.698
88010W        W56404   6.815   5.595   5.005
88011W        W56405  10.627   3.550  12.095
88012W        W56406  13.070  22.655   2.919
88013W        W56407  38.925  24.908   1.237
88014W        W56408  32.467  24.109   3.927
88015W        W56409   8.385  43.082  10.260
88016W        W56410   9.356  31.686   0.262
88017W        W56411   5.552  23.544  12.979
88018W        W56412  18.769  18.245  13.074
88019W        W56413  44.483  34.681  13.451
88020W        W56414  31.943   3.174  12.267
88021W        W56415  10.319  26.928   3.143
88022W        W56416  24.645   7.193  14.411
88023W        W56417  22.755  36.881   3.774
88024W        W56418  32.628  32.601  11.230
88025W        W56419   9.292  23.457   1.853
88026W        W56420  32.248  24.768  12.359
88027W        W56421   4.158  26.789  11.035
88028W        W56422  43.804   2.234   0.342
88029W        W56423  26.941  36.202   1.057
88030W        W56424  23.708  16.008  14.373
88031W        W56425  40.253  19.377  12.555
88032W        W56426  21.564  22.329   0.711
88033W        W56427  44.419  12.047   2.344
88034W        W56428  42.048  42.252   4.176
88035W        W56429  36.633  11.336   2.315
88036W        W56430  23.415  21.039  11.583
88037W        W56431   8.338  17.341  11.023
88038W        W56432  30.742  33.486  13.693
88039W        W56433   2.414  36.280  10.594
88040W        W56434  26.450  22.962   4.108
88041W        W56435  28.395  28.981  14.331
88042W        W56436  13.526  24.605   3.745
88043W        W56437  24.611  32.700  11.956
88044W        W56438  27.486   3.361   4.296
88045W        W56439  31.496  14.196   9.838
88046W        W56440  40.520  39.556  12.476
88047W        W56441  18.765  39.505  12.627
88048W        W56442  13.808   8.775   0.376
88049W        W56443  27.569   5.545   2.067
88050W        W56444  20.168  40.982   2.670
88051W        W56445  10.537  12.646   3.029
88052W        W56446   1.082  18.251   4.616
88053W        W56447  25.684   5.837   4.603
88054W        W56448  37.536   4.499  11.620
88055W        W56449  28.743  18.166  12.710
88056W        W56450   1.701   4.903   1.904
88057W        W56451  32.149  28.664  10.674
88058W        W56452  16.571  13.770  13.436
88059W        W56453   2.992  38.906  14.515
88060W        W56454  17.668  23.944   0.168
88061W        W56455  39.945  41.284  12.772
88062W        W56456  12.183  16.627   4.836
88063W        W56457   8.166  21.117   0.030
88064W        W56458  21.565  42.976  11.733
88065W        W56459  15.096  18.280  12.363
88066W        W56460   2.340  27.646   0.825
88067W        W56461  10.013  38.292  13.399
88068W        W56462  27.285  25.039  11.501
88069W        W56463  19.985  42.090   1.417
88070W        W56464  11.628  35.841  11.132
88071W        W56465  33.841  11.858  12.220
88072W        W56466  22.612  42.782   0.853
88073W        W56467  28.129  37.058  13.356
88074W        W56468  22.144  44.399   2.406
88075W        W56469  11.154  44.807  11.248
88076W        W56470  40.093  11.592  11.538
88077W        W56471  34.538  33.070   2.577
88078W        W56472  28.696  32.600   4.180
88079W        W56473   4.852  13.098   4.082
88080W        W56474  19.273  13.751   3.602
88081W        W56475  20.508  37.444   1.749
88082W        W56476   2.292  10.596   2.340
88083W        W56477   4.174  11.472   3.643
88084W        W56478  22.919  34.503  14.844
88085W        W56479  32.982  29.390  14.128
88086W        W56480  39.830  34.924   1.159
88087W        W56481  21.982  40.856  13.316
88088W        W56482  38.021  36.039   0.484
88089W        W56483  21.890   0.898   4.622
88090W        W56484  15.070   7.207  10.716
88091W        W56485  29.176  40.231  14.800
88092W        W56486  28.173  30.917   2.860
88093W        W56487  12.741  25.099   3.613
88094W        W56488  16.621  14.192   3.156
88095W        W56489  26.652  38.469   1.203
88096W        W56490  13.141  33.984  12.144
88097W        W56491   6.024  36.362  12.666
88098W        W56492  37.843   8.671  12.024
88099W        W56493   6.923  23.846   2.761
88100W        W56494   3.374   1.721   4.251
88101W        W56495   1.428  32.988  10.997
88102W        W56496   8.685   7.124   4.203
88103W        W56497  37.912  33.121  12.516
88104W        W56498  42.349  19.449  13.192
88105W        W56499  25.679  31.952   4.813
88106W        W56500  41.809  35.553   3.704
88107W        W56501  22.468   3.794   3.899
88108W        W56502  14.747   9.635  14.456
88109W        W56503   2.832   8.801   0.315
88110W        W56504  29.515  17.636   0.019
88111W        W56505  38.278  32.491   3.327
88112W        W56506  26.626  19.033   0.811
88113W        W56507  27.027  33.534   3.265
88114W        W56508  25.242  18.125  10.707
88115W        W56509  44.298  12.872   3.788
88116W        W56510  17.176   9.494   2.334
88117W        W56511  32.249  33.023   9.888
88118W        W56512  15.104   2.782   4.349
88119W        W56513  31.169  14.610  12.849
88120W        W56514  17.567  40.344  13.903
88121W        W56515  41.586  36.160  11.181
88122W        W56516  23.686   8.237   0.790
88123W        W56517  38.859  26.049  13.434
88124W        W56518  18.583  19.672   4.172
88125W        W56519  39.882  29.970  11.707
88126W        W56520  31.079  31.089  10.850
88127W        W56521  25.384  25.507  12.487
88128W        W56522  39.466  11.188  10.702
88129W        W56523  22.171   1.025  13.333
88130W        W56524  44.808  11.546   3.777
88131W        W56525   7.253  29.863   3.263
88132W        W56526   2.630  21.241   1.849
88133W        W56527   5.673  17.193  14.517
88134W        W56528  39.956   4.361   3.330
88135W        W56529   4.210  16.156   4.663
88136W        W56530  24.118   4.932  10.629
88137W        W56531  14.743  32.789  12.040
88138W        W56532  43.707  36.034   4.887
88139W        W56533  26.109   6.198  11.079
88140W        W56534  39.828  37.285   0.898
88141W        W56535  31.908  16.220   0.966
88142W        W56536  25.212   3.797  12.167
88143W        W56537  34.571  23.548   4.551
88144W        W56538  12.723  14.325  13.750
88145W        W56539  14.765  39.235  11.121
88146W        W56540   4.222  34.748  11.043
88147W        W56541  12.133  10.773   0.772
88148W        W56542  14.368   5.266   3.184
88149W        W56543  33.481  19.419  13.886
88150W        W56544  13.739  12.847  10.767
88151W        W56545  29.285  17.630  12.977
88152W        W56546   9.602  32.301  13.308
88153W        W56547  23.871  35.383  13.011
88154W        W56548  32.361   0.790   4.979
88155W        W56549  35.870  36.456  11.558
88156W        W56550  35.488   3.840  11.468
88157W        W56551  22.167  32.099  11.521
88158W        W56552  10.232  15.443  13.102
88159W        W56553   1.267  41.013  13.491
88160W        W56554  43.075   8.322   0.553
88161W        W56555  20.476  17.225  11.610
88162W        W56556  12.668  22.115   1.224
88163W        W56557  18.061   2.439   2.681
88164W        W56558  15.838  20.061   2.340
88165W        W56559  42.840  30.693  10.582
88166W        W56560  16.318  38.717   1.690
88167W        W56561  39.503  30.983   0.340
88168W        W56562  19.191  39.485  12.360
88169W        W56563   7.221  36.872  13.583
88170W        W56564   6.785  30.697  14.387
88171W        W56565  17.393   4.772   4.479
88172W        W56566  28.140  22.196   1.184
88173W        W56567  20.238  36.096  14.426
88174W        W56568  34.046  35.341  13.743
88175W        W56569  37.783   9.210  12.056
88176W        W56570  19.024  39.033   1.103
88177W        W56571  29.038   8.955   0.385
88178W        W56572  13.384  17.503   3.218
88179W        W56573  21.252  18.829   2.727
88180W        W56574  26.504  16.078   2.774
88181W        W56575  28.495  23.744  11.567
88182W        W56576  18.585  33.478   2.702
88183W        W56577  31.096  19.493  13.486
88184W        W56578  10.639   0.869  10.407
88185W        W56579  19.076  29.122  10.582
88186W        W56580   4.130   9.877   4.720
88187W        W56581  23.421  36.921   2.995
88188W        W56582   2.401  21.539  12.920
88189W        W56583   4.406   3.739   0.783
88190W        W56584  35.627   3.806   1.783
88191W        W56585   4.226  44.982  13.830
88192W        W56586   3.309  20.065   3.345
88193W        W56587  23.251  36.483  10.849
88194W        W56588  16.990   4.344   3.600
88195W        W56589  40.096  24.164   0.274
88196W        W56590   8.763   0.606   3.717
88197W        W56591  41.750  28.127  14.917
88198W        W56592  42.246  15.723   3.606
88199W        W56593  31.402  13.023   2.742
88200W        W56594   5.832   0.393  13.913
88201W        W56595   9.724  28.641  10.845
88202W        W56596  43.352  28.547  10.491
88203W        W56597  41.065  43.775   2.853
88204W        W56598  22.721  35.830   3.464
88205W        W56599  25.800  18.080  14.365
88206W        W56600  35.391  11.140   1.915
88207W        W56601  36.088  39.640   3.183
88208W        W56602   1.401  40.010  13.470
88209W        W56603   6.881   9.784  10.693
88210W        W56604  11.852  31.801   1.722
88211W        W56605  35.517  43.870   3.884
88212W        W56606  23.606  19.021   4.595
88213W        W56607  16.734  11.771   2.842
88214W        W56608  14.871   7.975   4.372
88215W        W56609  43.822   5.441   3.795
88216W        W56610  36.929   2.869  12.671
88217W        W56611  36.008   6.537  12.479
88218W        W56612  36.964  27.119   0.888
88219W        W56613  27.013  41.576  10.271
88220W        W56614  11.705   9.356   0.234
88221W        W56615  36.264  35.030  14.982
88222W        W56616  14.927  26.006  13.450
88223W        W56617  36.058  30.676  14.463
88224W        W56618   4.713   2.302  12.025
88225W        W56619  28.549  16.940  13.613
88226W        W56620  24.152  13.807   3.533
88227W        W56621   5.864  22.555  14.085
88228W        W56622  43.286  33.281   3.990
88229W        W56623  28.693  28.024   4.114
88230W        W56624  28.775  12.238  13.514
88231W        W56625  15.794  44.160   0.486
88232W        W56626  35.659  20.131  12.008
88233W        W56627   5.600   9.208   0.783
88234W        W56628  44.275  21.813   1.706
88235W        W56629  28.705  24.736   3.686
88236W        W56630  40.491   1.953   0.242
88237W        W56631  16.960  31.860   0.705
88238W        W56632  41.051  10.345   0.215
88239W        W56633   5.333  23.226   2.273
88240W        W56634   5.797  23.207  13.302
88241W        W56635   5.711  10.687  13.542
88242W        W56636  22.499  29.009   0.215
88243W        W56637  34.842  10.577   3.682
88244W        W56638  36.562  27.595  11.194
88245W        W56639  14.971   1.680  14.449
88246W        W56640  30.874  33.948   3.698
88247W        W56641  31.491  38.806   3.749
88248W        W56642  44.294  31.872   1.820
88249W        W56643   8.779  37.781  13.044
88250W        W56644  34.331  34.755  10.700
88251W        W56645  30.378  26.187  12.880
88252W        W56646   8.326  25.636  14.424
88253W        W56647   6.880  40.118   3.287
88254W        W56648   2.325  40.360   0.525
88255W        W56649   7.253  22.393  13.491
88256W        W56650  30.475   1.504  10.620
88257W        W56651  35.603  14.816  13.341
88258W        W56652  37.449  10.911   1.925
88259W        W56653   3.282   8.636  14.543
88260W        W56654  44.312  16.544   1.277
88261W        W56655  40.386  27.735   4.711
88262W        W56656   9.766  40.434   4.269
88263W        W56657  25.876  18.242  12.062
88264W        W56658  18.529  34.530  12.471
88265W        W56659   3.918  42.841   1.683
88266W        W56660  25.728  27.527  11.404
88267W        W56661  29.147  21.039  14.885
88268W        W56662  28.899  29.349   3.886
88269W        W56663  20.134  16.937  12.445
88270W        W56664  18.225   0.884  12.069
88271W        W56665  29.500  41.727   2.820
88272W        W56666  15.783  37.342   0.848
88273W        W56667  35.951  27.568   2.709
88274W        W56668  15.972  38.977   1.435
88275W        W56669  38.921   5.480  12.691
88276W        W56670  15.530  32.493   4.484
88277W        W56671  31.907  41.533  14.280
88278W        W56672  25.051  32.527  14.123
88279W        W56673  15.643  20.068  10.300
88280W        W56674  27.574  39.561   4.195
88281W        W56675   2.830   3.648   3.772
88282W        W56676  26.757  29.969   3.625
88283W        W56677   9.876  22.557   2.230
88284W        W56678   0.949  13.592  14.719
88285W        W56679  14.161  35.482  12.152
88286W        W56680   6.625  17.066   0.419
88287W        W56681  14.797  34.284  14.931
88288W        W56682   3.249  25.930  12.778
88289W        W56683  20.874  32.925  10.599
88290W        W56684  16.546  15.211  14.558
88291W        W56685   2.254  33.520  14.263
88292W        W56686  10.726  35.092  14.405
88293W        W56687  37.376   6.915  11.475
88294W        W56688  36.753   8.858   4.188
88295W        W56689  14.272  40.634  12.511
88296W        W56690  35.089  38.131  10.811
88297W        W56691  16.889   5.232   2.716
88298W        W56692   5.972   7.318  14.946
88299W        W56693   8.387  33.148  10.955
88300W        W56694   7.364  30.946  11.219
88301W        W56695  12.568  16.032  11.127
88302W        W56696  27.539  32.890  12.065
88303W        W56697  10.925  11.290  13.843
88304W        W56698   4.367  20.985  10.477
88305W        W56699  29.003  28.580   3.255
88306W        W56700   2.786   0.460  11.245
88307W        W56701  33.600  27.984   0.381
88308W        W56702  37.497  14.787  11.675
88309W        W56703  12.267   7.734  10.204
88310W        W56704  16.287  38.280   2.158
88311W        W56705   8.254  23.080  11.579
88312W        W56706  23.191  28.185   1.358
88313W        W56707  18.317  28.154   4.570
88314W        W56708  44.045  10.218  10.698
88315W        W56709   0.706  44.120   1.685
88316W        W56710   3.334  22.000   3.179
88317W        W56711  10.169   9.288  14.754
88318W        W56712  13.473   6.167  14.801
88319W        W56713  20.111  31.144  14.479
88320W        W56714  17.277  26.176   1.174
88321W        W56715  19.310  21.001  14.414
88322W        W56716   3.625  14.916   4.347
88323W        W56717  10.430   6.745  13.595
88324W        W56718  33.395  28.556   2.118
88325W        W56719  32.049  27.886  13.747
88326W        W56720  35.016  40.518  11.151
88327W        W56721  39.779   2.205  10.755
88328W        W56722   6.431   4.553  14.861
88329W        W56723  34.999  29.017   0.654
88330W        W56724  27.758  24.477   1.647
88331W        W56725   4.271  27.177   1.901
88332W        W56726   4.124  25.053   4.572
88333W        W56727  39.321  40.203   4.047
88334W        W56728  42.222  42.806   2.917
88335W        W56729  40.676  28.053  14.535
88336W        W56730  20.040  25.813  12.100
88337W        W56731  41.486   1.285  14.887
88338W        W56732   1.150  21.297   0.982
88339W        W56733  33.378  25.493  11.733
88340W        W56734  43.520   2.870   1.838
88341W        W56735  27.236  38.787   2.900
88342W        W56736  14.071  20.250   2.391
88343W        W56737  39.487  39.479   0.359
88344W        W56738   7.765  22.586   9.827
88345W        W56739  33.932  28.178   3.092
88346W        W56740   6.949   3.059   4.475
88347W        W56741   1.957   3.532   4.345
88348W        W56742  10.593  43.786  12.039
88349W        W56743  14.822  32.255  11.982
88350W        W56744  23.752   0.793   4.516
88351W        W56745  23.643  32.594  10.628
88352W        W56746  44.942   3.324  12.774
88353W        W56747   5.034  26.763   4.788
88354W        W56748  22.026  28.422  12.116
88355W        W56749  14.562  13.038   1.828
88356W        W56750  37.905  37.868   2.828
88357W        W56751  19.521  24.685   5.076
88358W        W56752   6.428  33.446   4.963
88359W        W56753  26.075   6.978  11.545
88360W        W56754  36.993   7.193   2.532
88361W        W56755  17.372  32.359  13.059
88362W        W56756   7.791  12.408  14.720
88363W        W56757  23.140  24.458   4.540
88364W        W56758  44.924   3.819  13.936
88365W        W56759  41.757  38.902  11.247
88366W        W56760  41.848  17.095  12.620
88367W        W56761  40.269   2.240   2.882
88368W        W56762  23.389   5.948   4.702
88369W        W56763  42.540  37.855   1.802
88370W        W56764  34.388  19.985   3.291
88371W        W56765  38.024  26.398  13.262
88372W        W56766   2.480   2.997   3.931
88373W        W56767  30.491  25.632   2.373
88374W        W56768  43.563   3.550  11.840
88375W        W56769  30.857  35.936  10.979
88376W        W56770  18.595  31.246   2.276
88377W        W56771  17.790   8.614  12.148
88378W        W56772  34.158  22.378   4.186
88379W        W56773  26.482   0.563   2.851
88380W        W56774   9.984  40.952  10.782
88381W        W56775  31.638  34.998   0.414
88382W        W56776  26.649  19.494  14.517
88383W        W56777  13.667  32.443   0.171
88384W        W56778  14.263  30.071   2.213
88385W        W56779  10.859  38.174   0.423
88386W        W56780  12.967  36.365   0.710
88387W        W56781  12.864  20.080  13.217
88388W        W56782  10.186  27.587  10.787
88389W        W56783  13.198  20.017  11.882
88390W        W56784  41.591  12.640  13.602
88391W        W56785  40.373   2.492   3.782
88392W        W56786  13.669  10.681   2.253
88393W        W56787  43.866  39.268  14.865
88394W        W56788   4.011  38.838  10.305
88395W        W56789  34.569  42.008  13.005
88396W        W56790  32.654  31.915   3.237
88397W        W56791  18.561  24.643  14.495
88398W        W56792  18.627  34.620  11.637
88399W        W56793  42.584   3.452   1.023
88400W        W56794  38.903  24.597  13.031
88401W        W56795  22.624  23.791   0.727
88402W        W56796  12.237  13.369   0.274
88403W        W56797  18.242   3.349   0.939
88404W        W56798   4.467  14.196   9.633
88405W        W56799  33.363  40.557   3.153
88406W        W56800  22.757  39.891   1.716
88407W        W56801  30.877   1.981   2.025
88408W        W56802   2.530  37.092   0.171
88409W        W56803  33.827   0.769   4.595
88410W        W56804   3.513  37.606   4.821
88411W        W56805  31.781  16.139   3.782
88412W        W56806  35.971   8.557   2.035
88413W        W56807   7.538  41.819   4.117
88414W        W56808  11.137  28.020  11.963
88415W        W56809  21.552  18.072   0.331
88416W        W56810   5.474  33.057  13.846
88417W        W56811   8.442  44.058  11.123
88418W        W56812  15.352  37.933   0.069
88419W        W56813  19.827  18.178   3.308
88420W        W56814   6.811  11.667   2.182
88421W        W56815  26.287  17.777   1.625
88422W        W56816  19.958  13.206  11.912
88423W        W56817  30.108  28.545   1.830
88424W        W56818  41.285  11.347  13.894
88425W        W56819  23.696  36.832  12.489
88426W        W56820   2.563  26.828  13.875
88427W        W56821  28.642  37.781   1.399
88428W        W56822  32.450  35.586  11.858
88429W        W56823  22.888   9.282  11.067
88430W        W56824  44.828   9.374   2.875
88431W        W56825  40.559  14.346  12.420
88432W        W56826   3.734   5.247   4.522
88433W        W56827  27.390  21.608  11.750
88434W        W56828  21.576  29.183   3.685
88435W        W56829  27.942  44.542   2.922
88436W        W56830  30.137  26.154  10.939
88437W        W56831  12.287  44.274  14.455
88438W        W56832   9.298   6.209   1.515
88439W        W56833  21.092  10.802   3.168
88440W        W56834  14.822  10.930   0.815
88441W        W56835  29.917  31.433  12.648
88442W        W56836   3.821  36.383   1.622
88443W        W56837  31.634  40.519  10.727
88444W        W56838  25.550  27.738   4.516
88445W        W56839  43.487  38.445  14.900
88446W        W56840  11.358   7.008  13.984
88447W        W56841  10.734  40.974   1.198
88448W        W56842  42.057  18.335   2.842
88449W        W56843  32.116   2.311   5.318
88450W        W56844   9.652  36.896  13.774
88451W        W56845  15.246  16.939  10.326
88452W        W56846  15.390  24.777  10.673
88453W        W56847   7.391  21.077  14.209
88454W        W56848  35.153  23.284   3.180
88455W        W56849  23.729  21.470  14.587
88456W        W56850  18.641   0.676   4.673
88457W        W56851  14.190   1.375   1.595
88458W        W56852  24.944   5.784   4.507
88459W        W56853  27.975  15.793  13.967
88460W        W56854  24.438   7.687   0.410
88461W        W56855   0.208   9.201  14.853
88462W        W56856  22.261  38.418  14.931
88463W        W56857   5.661   2.485   4.582
88464W        W56858  33.386  41.574   3.067
88465W        W56859  10.724  18.687  10.624
88466W        W56860  12.228  38.582  12.037
88467W        W56861  18.361  44.256   2.817
88468W        W56862  19.712   1.225   3.427
88469W        W56863  38.875  31.143   3.607
88470W        W56864   2.832  33.592  14.991
88471W        W56865  20.776   5.320   2.364
88472W        W56866  35.450   7.342   1.490
88473W        W56867  20.554  22.756  14.389
88474W        W56868  28.191  33.301  13.336
88475W        W56869  13.101  10.665   1.648
88476W        W56870  36.105  44.281   3.711
88477W        W56871   0.833  28.021  10.752
88478W        W56872  30.070  41.846  11.151
88479W        W56873  40.034  10.017   3.501
88480W        W56874  34.614  21.208   4.616
88481W        W56875  22.758   5.483   2.767
88482W        W56876  31.138  10.254  14.232
88483W        W56877  15.232   3.357   4.670
88484W        W56878  41.353  23.269  12.405
88485W        W56879   2.233  29.131  14.166
88486W        W56880  13.139  34.176   0.475
88487W        W56881  37.806  15.507  14.802
88488W        W56882  22.698  10.962   2.113
88489W        W56883  28.443  39.874   0.990
88490W        W56884  21.756   7.223   2.368
88491W        W56885  40.952  35.564   1.734
88492W        W56886  40.787  31.402   1.321
88493W        W56887  24.017  33.612   1.281
88494W        W56888  12.244  10.130  11.475
88495W        W56889  17.276  34.478  14.361
88496W        W56890  21.767  29.800  14.925
88497W        W56891  34.040  22.651   2.740
88498W        W56892  32.691  31.037  14.832
88499W        W56893  42.076  30.597   0.228
88500W        W56894   2.905  18.011   2.715
88501W        W56895  19.435  32.013   4.974
88502W        W56896   4.760   1.951   0.407
88503W        W56897   9.395   3.857   3.248
88504W        W56898   1.185  10.902   0.989
88505W        W56899  16.861  12.715  14.338
88506W        W56900  20.890  14.578   0.577
88507W        W56901  19.272   9.388   1.775
88508W        W56902  15.758  31.538  13.112
88509W        W56903   1.348  10.039  11.136
88510W        W56904  31.556   0.927   0.963
88511W        W56905  35.762  31.760   4.956
88512W        W56906  30.127   0.938   1.666
88513W        W56907  38.003   7.663  12.071
88514W        W56908  17.132   3.841   1.455
88515W        W56909  39.955  32.513   0.960
88516W        W56910  37.963  25.573   3.319
88517W        W56911   1.726   9.805  13.533
88518W        W56912  15.581  27.008  14.886
88519W        W56913   3.328  42.176   3.373
88520W        W56914   4.748  25.512   2.364
88521W        W56915  26.813  16.584  10.754
88522W        W56916   4.003  17.787  10.250
88523W        W56917  44.582  30.517  11.039
88524W        W56918  11.630   5.037   9.947
88525W        W56919  32.013  20.772  14.376
88526W        W56920  16.669  26.982  11.592
88527W        W56921  18.734  40.827   1.853
88528W        W56922  21.965   3.699   0.289
88529W        W56923   3.002  23.072   1.252
88530W        W56924   9.371  34.570   1.430
88531W        W56925   1.995   9.609  11.272
88532W        W56926   3.427  13.555  11.605
88533W        W56927  42.093   4.651  10.379
88534W        W56928  37.283  39.392  12.386
88535W        W56929  39.079   8.707  11.202
88536W        W56930  22.325   0.232  12.887
88537W        W56931  33.557   9.643   2.222
88538W        W56932  12.182  27.461  13.408
88539W        W56933  11.809  15.658   3.317
88540W        W56934  42.535   8.699  13.332
88541W        W56935  30.956  29.159  11.963
88542W        W56936  34.966   8.295  12.074
88543W        W56937  23.127  38.967   4.263
88544W        W56938  30.170  20.536   0.619
88545W        W56939  11.521  34.343  12.055
88546W        W56940  15.820  37.104  10.616
88547W        W56941  37.801  25.170   3.581
88548W        W56942  16.721  38.096  14.685
88549W        W56943  22.762  13.103   0.786
88550W        W56944  34.306  14.394  13.146
88551W        W56945  15.086  23.640  14.129
88552W        W56946  36.581   3.791  11.054
88553W        W56947  31.544   1.963  11.662
88554W        W56948   4.374  13.405  12.967
88555W        W56949  34.181  16.667   2.802
88556W        W56950  31.613  16.278  10.698
88557W        W56951  23.011  17.156  12.700
88558W        W56952  33.040  29.722   4.591
88559W        W56953  35.819  39.264  10.695
88560W        W56954  17.188  27.008   4.962
88561W        W56955   7.892  11.173   3.412
88562W        W56956  43.754  36.498  14.866
88563W        W56957   4.945  15.523  11.622
88564W        W56958  22.534  11.702   0.433
88565W        W56959   4.024  21.664   0.840
88566W        W56960   2.618  30.936  10.741
88567W        W56961  37.361   4.970   2.273
88568W        W56962   8.173  21.333  11.976
88569W        W56963  43.977  29.709  13.182
88570W        W56964  17.009  39.337  13.133
88571W        W56965  10.184  35.341  11.158
88572W        W56966  15.629  17.284  10.399
88573W        W56967   4.956  25.464   3.227
88574W        W56968   6.895  41.035  11.615
88575W        W56969  20.226  32.910   1.939
88576W        W56970  11.192  26.059  11.151
88577W        W56971  39.977  22.961  12.876
88578W        W56972  13.004  24.485  11.842
88579W        W56973  15.647  12.197  14.784
88580W        W56974  28.547  10.817   4.640
88581W        W56975  35.359  11.384  14.069
88582W        W56976   3.712   2.468   1.927
88583W        W56977  40.318  39.930   4.089
88584W        W56978   2.888  41.555   1.452
88585W        W56979  40.775  21.512  13.058
88586W        W56980  18.322  17.162  11.957
88587W        W56981  17.037   2.894   1.425
88588W        W56982  41.086  23.481   1.252
88589W        W56983  39.565  15.575   4.591
88590W        W56984   1.397  39.307  12.468
88591W        W56985   3.301  22.639   0.381
88592W        W56986  29.013  30.138   1.321
88593W        W56987  35.608  41.254  11.152
88594W        W56988  36.888  30.663   2.350
88595W        W56989  23.169  39.782   0.739
88596W        W56990   7.975  37.315   3.689
88597W        W56991  31.980  28.550   1.602
88598W        W56992  19.820  24.080  13.217
88599W        W56993  16.841  40.971  13.973
88600W        W56994  31.936   8.210  14.827
88601W        W56995  36.695   4.746  11.396
88602W        W56996  14.886  31.011   4.224
88603W        W56997  24.658   4.359   4.681
88604W        W56998  33.235   5.689  12.375
88605W        W56999  10.434  21.645  11.984
88606W        W57000   8.461  35.558   1.826
88607W        W57001   5.815  28.755  14.801
88608W        W57002   5.806   6.264  11.643
88609W        W57003  34.586  13.825   3.665
88610W        W57004  15.107  43.765   3.749
88611W        W57005   4.783   4.817  13.327
88612W        W57006  38.398  41.375   1.552
88613W        W57007  26.578   8.237   1.311
88614W        W57008   1.030   9.661   3.857
88615W        W57009   4.217  32.527  10.811
88616W        W57010  44.755  23.321  12.980
88617W        W57011  21.314  18.576  10.644
88618W        W57012   4.423  36.816  13.560
88619W        W57013   9.141  16.280   1.933
88620W        W57014  13.091   4.164   3.194
88621W        W57015   2.498  40.433  12.583
88622W        W57016   6.117  30.410  11.946
88623W        W57017  22.042  18.596  13.365
88624W        W57018   0.440  28.954   3.679
88625W        W57019  25.040  21.770   1.245
88626W        W57020  27.653  32.374  11.904
88627W        W57021  14.633  40.605   0.387
88628W        W57022  31.109  31.045   2.324
88629W        W57023  11.232  31.162  14.804
88630W        W57024   4.076  38.032   1.839
88631W        W57025   1.289  16.267  14.047
88632W        W57026  10.707  18.683  14.251
88633W        W57027  40.629  41.135   0.710
88634W        W57028  43.317  28.750   1.773
88635W        W57029  41.032  13.889   2.294
88636W        W57030  35.782  20.704   2.699
88637W        W57031  14.759   1.318   3.958
88638W        W57032   7.230   7.900  11.194
88639W        W57033   4.244   6.737  13.729
88640W        W57034  10.805  33.113   0.921
88641W        W57035  25.754  18.965   4.224
88642W        W57036  28.172  17.102  13.321
88643W        W57037  34.452  14.845  10.460
88644W        W57038   5.001  28.984  12.284
88645W        W57039  32.140   0.517   2.584
88646W        W57040  37.920  20.086   2.556
88647W        W57041   0.474  37.422   0.095
88648W        W57042  13.207  15.554  13.974
88649W        W57043  30.985  30.079  10.725
88650W        W57044  15.149  16.627  10.757
88651W        W57045  33.851  36.003   4.080
88652W        W57046   7.858  40.018   1.299
88653W        W57047  24.220  30.718  10.708
88654W        W57048  40.560  16.378   1.238
88655W        W57049   3.841   0.224   3.853
88656W        W57050  19.581  32.893   4.460
88657W        W57051  28.490  24.511  10.603
88658W        W57052  21.985   3.914  10.661
88659W        W57053  31.075  21.235   4.607
88660W        W57054   7.797  23.197   3.595
88661W        W57055  18.254  15.988   0.368
88662W        W57056  32.809  25.654   1.881
88663W        W57057  33.421   4.853   0.302
88664W        W57058   5.644  25.302  11.605
88665W        W57059  30.152   0.728   0.429
88666W        W57060  24.755  14.688   0.201
88667W        W57061  38.442  11.260   0.816
88668W        W57062  42.486  19.029   3.663
88669W        W57063  34.656  31.406   1.371
88670W        W57064  17.867  37.151   3.400
88671W        W57065  26.686   8.235  12.834
88672W        W57066  25.382  33.432   1.011
88673W        W57067  40.617  19.783  13.481
88674W        W57068   3.055   6.266   2.308
88675W        W57069  14.393   8.620  11.384
88676W        W57070   5.529  24.727   1.344
88677W        W57071   4.007  15.456  11.687
88678W        W57072  42.499  37.996   2.301
88679W        W57073  15.047  28.680  11.218
88680W        W57074  18.281  31.597   0.846
88681W        W57075  33.916  22.587   0.709
88682W        W57076  14.373   4.492   3.635
88683W        W57077  26.888   9.576   3.790
88684W        W57078  26.633  27.231   0.014
88685W        W57079  27.093  35.737  12.963
88686W        W57080   4.783  21.021  14.025
88687W        W57081  30.860  22.257   3.657
88688W        W57082   5.174   5.177  13.470
88689W        W57083  32.045   2.736  12.904
88690W        W57084  14.119  32.549  10.754
88691W        W57085  15.521  22.827  14.933
88692W        W57086  33.168  13.960  12.484
88693W        W57087  39.853  16.931   2.245
88694W        W57088   6.524  13.031  11.431
88695W        W57089   7.972  14.076  14.998
88696W        W57090  39.530  19.799  13.590
88697W        W57091  34.037  43.620   1.309
88698W        W57092  14.703   3.774  13.270
88699W        W57093   2.879  20.099   3.638
88700W        W57094   8.162  17.099   4.721
88701W        W57095  10.942   1.396  12.012
88702W        W57096   7.827  32.022   4.506
88703W        W57097  25.963  21.407  11.204
88704W        W57098   6.895  38.391  11.699
88705W        W57099  35.036  37.329   0.822
88706W        W57100  27.756  12.762  11.657
88707W        W57101  23.097  33.663   2.285
88708W        W57102  13.831  41.081   4.127
88709W        W57103  16.690  31.321  13.556
88710W        W57104  31.031  34.947   2.848
88711W        W57105  22.965  41.389   4.637
88712W        W57106   9.752  26.183  10.076
88713W        W57107  28.951  37.406   0.434
88714W        W57108  27.459  32.148   0.317
88715W        W57109  25.080   8.657  10.631
88716W        W57110  22.243  33.954  10.730
88717W        W57111  14.345  13.899   2.837
88718W        W57112  35.781  36.491  13.379
88719W        W57113  15.737   4.497   3.968
88720W        W57114  32.813  24.369   2.819
88721W        W57115   7.966  44.428  14.031
88722W        W57116  35.808   5.787   3.660
88723W        W57117   6.490  18.749  14.465
88724W        W57118  26.992  27.621  13.489
88725W        W57119  29.616   0.995   1.784
88726W        W57120  31.693  44.077  10.715
88727W        W57121   2.922  24.837   2.254
88728W        W57122  19.787  18.786  13.602
88729W        W57123   5.617   2.486   2.406
88730W        W57124  34.035  43.077   1.286
88731W        W57125  36.773  24.036   1.253
88732W        W57126  30.539   0.238  13.728
88733W        W57127  14.745  40.254  12.932
88734W        W57128   4.764  35.643  11.718
88735W        W57129   2.864  27.745   2.834
88736W        W57130   2.735  24.194  14.901
88737W        W57131  24.587  43.736   0.797
88738W        W57132  27.489  40.556  13.047
88739W        W57133  14.678   2.045   2.771
88740W        W57134   1.863  41.801   1.795
88741W        W57135  23.190   9.830  10.674
88742W        W57136   1.458   5.340   0.269
88743W        W57137  44.867  29.594   1.864
88744W        W57138   3.516   6.409   4.622
88745W        W57139  33.375  13.097   2.924
88746W        W57140   8.240   5.391   2.650
88747W        W57141  19.654  11.775  13.993
88748W        W57142  32.473  29.416   3.256
88749W        W57143  24.040   0.172   3.809
88750W        W57144  41.855  23.129   0.000
88751W        W57145  13.500  25.581   1.867
88752W        W57146  44.696  38.983  12.489
88753W        W57147   8.645  33.304  14.454
88754W        W57148   8.300  22.490   1.832
88755W        W57149   6.315  35.937  14.118
88756W        W57150  30.294   9.875  11.775
88757W        W57151  39.588   4.288  13.963
88758W        W57152  25.738  43.968  11.964
88759W        W57153  31.217   9.868  14.560
88760W        W57154   8.597  10.405   4.079
88761W        W57155  32.350  27.465  13.631
88762W        W57156  19.420  14.990   3.620
88763W        W57157   2.894   7.394   4.601
88764W        W57158  33.812  35.589   1.298
88765W        W57159  24.282   1.117  13.967
88766W        W57160  40.086  25.987  10.711
88767W        W57161  26.723  21.543   0.851
88768W        W57162  14.381  11.424  11.695
88769W        W57163  39.459   2.654   0.151
88770W        W57164  28.733  19.097  12.386
88771W        W57165   4.193   4.202  12.822
88772W        W57166  23.904   5.961   4.584
88773W        W57167   1.210   3.162   1.144
88774W        W57168  19.857  40.507   4.226
88775W        W57169  36.835  33.329   0.159
88776W        W57170   3.171  34.382  12.960
88777W        W57171   5.347  37.047  13.890
88778W        W57172  35.799  16.906  12.007
88779W        W57173  37.391  17.186   2.613
88780W        W57174   5.785   3.071  11.096
88781W        W57175   9.811   2.436  12.577
88782W        W57176  42.472   4.759  11.674
88783W        W57177  12.780   7.704  14.100
88784W        W57178  15.042  13.747   1.937
88785W        W57179  13.646  24.133  10.663
88786W        W57180   4.341  29.145   3.624
88787W        W57181  34.865  30.316   3.290
88788W        W57182  14.267   6.042  11.177
88789W        W57183  15.127  25.888  14.461
88790W        W57184  27.570  32.297   3.208
88791W        W57185  11.384  23.025   2.853
88792W        W57186  28.388  26.253   3.555
88793W        W57187  14.789  33.166  13.409
88794W        W57188  33.443  17.898  11.670
88795W        W57189  31.465  43.327  14.521
88796W        W57190   3.761  23.030  14.672
88797W        W57191  13.264  39.850  13.872
88798W        W57192  19.594   4.817  13.835
88799W        W57193   7.121  19.264  14.083
88800W        W57194  13.194  17.067   4.531
88801W        W57195  36.908   8.829  10.602
88802W        W57196   9.789  36.798  10.656
88803W        W57197  25.638  40.744  14.302
88804W        W57198  18.080  34.007  14.355
88805W        W57199  33.434   9.359  14.888
88806W        W57200  21.048  24.232  13.060
88807W        W57201  17.722  37.105  10.907
88808W        W57202  35.041  21.540   4.410
88809W        W57203   0.486  18.721  12.535
88810W        W57204   1.364  25.696  12.889
88811W        W57205  38.726  43.230   1.277
88812W        W57206   7.334  23.655  10.120
88813W        W57207  27.652  33.031  14.429
88814W        W57208  31.344  12.625  14.295
88815W        W57209  20.294   0.470   1.605
88816W        W57210  14.828  23.324   0.474
88817W        W57211  43.894  18.571   2.684
88818W        W57212  37.294  44.388  14.367
88819W        W57213   1.067  22.455  10.252
88820W        W57214   5.775  21.135   0.672
88821W        W57215  13.080   3.841   3.671
88822W        W57216  42.780   3.285   3.606
88823W        W57217  20.689  37.549   3.631
88824W        W57218   5.328  14.650  11.089
88825W        W57219  33.663  30.510   1.897
88826W        W57220  35.851  44.808  12.854
88827W        W57221  19.606  12.049  14.508
88828W        W57222   4.816  36.427   3.449
88829W        W57223  19.423  12.453  10.692
88830W        W57224  42.056  42.555  12.559
88831W        W57225  15.630  20.809   2.799
88832W        W57226  29.933  22.716  12.045
88833W        W57227  23.256  11.767   1.373
88834W        W57228  43.880  18.320  11.402
88835W        W57229  35.909  11.269  11.848
88836W        W57230  14.535  33.910  13.037
88837W        W57231   0.017  39.534  10.802
88838W        W57232  38.879  19.494  10.773
88839W        W57233  12.862  25.487  14.408
88840W        W57234  10.108   1.361   4.570
88841W        W57235   4.354   7.671  12.033
88842W        W57236   6.245  11.363   4.686
88843W        W57237  44.562  37.473  13.258
88844W        W57238   9.574  42.305   1.361
88845W        W57239  17.613  12.229  14.298
88846W        W57240   3.176  28.942  12.540
88847W        W57241  18.298   8.771  14.336
88848W        W57242  39.211  44.454  14.480
88849W        W57243  27.205   1.891  12.419
88850W        W57244  34.205  27.182  12.262
88851W        W57245  21.229  16.747  12.865
88852W        W57246  24.993  24.123   1.115
88853W        W57247  29.807  27.054  12.936
88854W        W57248  13.134  13.457  12.144
88855W        W57249  12.777  27.550   2.374
88856W        W57250  38.804  13.473   1.804
88857W        W57251  25.881  34.257   3.268
88858W        W57252  29.571   5.403  14.096
88859W        W57253  21.603  37.077   1.054
88860W        W57254  13.534  44.920  11.693
88861W        W57255  28.988  27.946   3.700
88862W        W57256  12.652  10.147   4.325
88863W        W57257  18.119  41.153  13.425
88864W        W57258   3.745  21.775   2.432
88865W        W57259  12.218  32.486  13.006
88866W        W57260  26.411  38.413   3.669
88867W        W57261  33.743  14.292  10.533
88868W        W57262   6.507  10.447  12.990
88869W        W57263   7.814   2.181  13.112
88870W        W57264  13.685  25.905   3.847
88871W        W57265  41.742  20.976  11.107
88872W        W57266  36.104  27.088   2.534
88873W        W57267  35.490  33.903   4.582
88874W        W57268  35.034  19.234   5.045
88875W        W57269  37.833  14.470  14.441
88876W        W57270  42.529  31.166  13.946
88877W        W57271  28.641  37.974  14.462
88878W        W57272  36.130   8.048   4.069
88879W        W57273   6.383  41.774   0.149
88880W        W57274  27.025  23.424  14.768
88881W        W57275  27.893  42.871   4.034
88882W        W57276  19.033  41.307  12.159
88883W        W57277  17.364  10.628  11.080
88884W        W57278  31.982   2.375  14.749
88885W        W57279   4.774  39.350  12.596
88886W        W57280  29.657  25.167  13.304
88887W        W57281  16.067  15.119   4.596
88888W        W57282  11.228  36.470   4.645
88889W        W57283   5.652  35.461  14.258
88890W        W57284  13.233   9.923  11.968
88891W        W57285  10.238  31.366   4.684
88892W        W57286  26.666   3.386  13.537
88893W        W57287   9.683   2.285  14.298
88894W        W57288  16.490  28.870  10.645
88895W        W57289  33.658  27.940  11.449
88896W        W57290  28.743   1.457   3.619
88897W        W57291  37.560  20.947  13.886
88898W        W57292  40.220  43.206   0.711
88899W        W57293  43.956   9.760  10.945
88900W        W57294  37.775   8.109  14.935
88901W        W57295   4.132  36.785   0.932
88902W        W57296  18.053   4.760  13.782
88903W        W57297   9.109  41.343   0.056
88904W        W57298  21.570  28.013   0.937
88905W        W57299  14.821  39.057  13.592
88906W        W57300  43.701  42.825   0.996
88907W        W57301  17.758  34.994  12.240
88908W        W57302  21.230   2.311  12.415
88909W        W57303   2.876  40.566   3.678
88910W        W57304  24.033  22.591  13.906
88911W        W57305   4.748  43.303  11.863
88912W        W57306   5.033  44.985   1.182
88913W        W57307  34.464  43.404   1.116
88914W        W57308  13.275  41.409   4.877
88915W        W57309  36.634   3.889  14.752
88916W        W57310  43.873  32.932  11.499
88917W        W57311  33.832  24.683   3.346
88918W        W57312  38.050   6.463  13.900
88919W        W57313  37.386  43.083  11.866
88920W        W57314  38.944  36.840   3.534
88921W        W57315  17.888  12.392  13.720
88922W        W57316   0.053  41.303  10.852
88923W        W57317  34.084  42.807   3.270
88924W        W57318  16.732  16.222   0.664
88925W        W57319  23.279  15.768   1.354
88926W        W57320  25.055   6.149   1.816
88927W        W57321  25.339  35.494   0.333
88928W        W57322   1.453   4.715  12.653
88929W        W57323  34.046  32.092  14.383
88930W        W57324  25.291   2.306  13.103
88931W        W57325  21.255  17.765  12.853
88932W        W57326  12.187  31.682  13.418
88933W        W57327  21.851  22.917  13.981
88934W        W57328  31.354   4.660  13.007
88935W        W57329  29.557  38.063   2.404
88936W        W57330  12.650  25.569   3.894
88937W        W57331  32.078  25.359  13.319
88938W        W57332  22.325  10.311  13.655
88939W        W57333  24.506  13.360   1.639
88940W        W57334  13.904  38.062   5.051
88941W        W57335  19.202  22.220   2.835
88942W        W57336  26.514   0.336   3.320
88943W        W57337  26.380  11.281   1.203
88944W        W57338  41.810   6.675   3.462
88945W        W57339   5.768  32.933   3.156
88946W        W57340   2.754  34.086  14.847
88947W        W57341  20.289  22.996   0.527
88948W        W57342  17.774  21.541   2.803
88949W        W57343  26.596   7.538  10.979
88950W        W57344   0.516  37.220   1.300
88951W        W57345  21.305  20.124  11.980
88952W        W57346  23.169  34.480   2.750
88953W        W57347   8.778  19.816  14.528
88954W        W57348  30.672  31.952  13.826
88955W        W57349   7.620  42.306   1.401
88956W        W57350  35.937   6.647   1.708
88957W        W57351  23.562   2.355   2.172
88958W        W57352   5.144  37.575  13.955
88959W        W57353   8.166  39.186   2.469
88960W        W57354   7.864  22.507   4.261
88961W        W57355   0.327  11.324  12.923
88962W        W57356  17.399  11.302   1.316
88963W        W57357  28.711  42.945   0.321
88964W        W57358   4.933  34.446   4.532
88965W        W57359  12.743  31.495   3.649
88966W        W57360   3.696  21.712  11.132
88967W        W57361  29.735   8.795  13.787
88968W        W57362  34.947  34.891   0.936
88969W        W57363  38.848  25.203   0.204
88970W        W57364  22.562  29.992   1.404
88971W        W57365   4.137   9.324   2.623
88972W        W57366  28.513  15.863  12.105
88973W        W57367  21.832  27.139  14.360
88974W        W57368  32.208  34.558  11.150
88975W        W57369  17.246   1.826  13.508
88976W        W57370  19.482  24.237  12.266
88977W        W57371   4.880  43.440   2.186
88978W        W57372  13.250  22.489   0.811
88979W        W57373   6.662  21.933  14.322
88980W        W57374   5.985   7.185  10.621
88981W        W57375   1.989  21.465  12.231
88982W        W57376   0.823  21.522   4.839
88983W        W57377  34.582   4.984   2.303
88984W        W57378  38.041  16.323  10.683
88985W        W57379  16.525  24.771   2.661
88986W        W57380  10.664  16.108   1.497
88987W        W57381  27.998  40.842  14.806
88988W        W57382  40.065  44.879  11.736
88989W        W57383  25.133  17.336   1.078
88990W        W57384  22.902  17.731  14.720
88991W        W57385  21.999  19.455   3.627
88992W        W57386   0.338   0.284  13.873
88993W        W57387  33.925  12.804  10.700
88994W        W57388  24.061  24.517   2.186
88995W        W57389   9.557  25.562  12.066
88996W        W57390   8.160  17.153   0.209
88997W        W57391  19.260  37.503  12.493
88998W        W57392  22.744  36.943  14.390
88999W        W57393  32.024  40.091   0.929
89000W        W57394  33.257   2.178   3.661
89001W        W57395   4.714  35.146   3.237
89002W        W57396  10.686  40.514   3.620
89003W        W57397  20.279   1.491  14.249
89004W        W57398  29.778   8.333   1.417
89005W        W57399  19.644   2.766   3.205
89006W        W57400  20.665  31.957   4.299
89007W        W57401   2.526  18.798  12.255
89008W        W57402  42.421  39.295   1.882
89009W        W57403   9.270  42.521  11.025
89010W        W57404  26.715  35.896   4.191
89011W        W57405  35.044  25.981  12.046
89012W        W57406  34.764  40.523   4.981
89013W        W57407  15.860  20.191   4.627
89014W        W57408  27.664   3.830  11.570
89015W        W57409  42.498  14.240  12.374
89016W        W57410   1.898   5.234  11.143
89017W        W57411  24.724   2.011   2.160
89018W        W57412   5.833  12.528   2.334
89019W        W57413   7.893  10.978   4.144
89020W        W57414  33.843  44.559   1.306
89021W        W57415  34.914  25.208   0.721
89022W        W57416  37.272  28.550   1.416
89023W        W57417  16.541  22.553  14.991
89024W        W57418  34.785  31.919   9.938
89025W        W57419   0.043   8.684  14.711
89026W        W57420  37.780  30.424   2.285
89027W        W57421  41.256  36.482  10.227
89028W        W57422   0.262  34.626   2.588
89029W        W57423   4.761  15.732  12.073
89030W        W57424  14.854  12.520  11.125
89031W        W57425  31.929  29.885   0.250
89032W        W57426  18.722  32.335   4.575
89033W        W57427  43.389  28.392  14.010
89034W        W57428  32.470  17.785   0.115
89035W        W57429   8.754  13.397  10.544
89036W        W57430  38.893  13.289  11.505
89037W        W57431  39.353   3.213   0.217
89038W        W57432   4.249  42.332  13.539
89039W        W57433  29.560  10.370   1.987
89040W        W57434  11.910  30.510   0.914
89041W        W57435  17.511   8.587  10.492
89042W        W57436  29.837  11.161   1.932
89043W        W57437   4.518  26.967   2.300
89044W        W57438  30.457  26.620   3.183
89045W        W57439   9.700   7.631   4.669
89046W        W57440  20.755   4.598  13.781
89047W        W57441  31.417  17.210   1.571
89048W        W57442  43.607  43.887  13.374
89049W        W57443  37.528  33.545  14.650
89050W        W57444  41.885  22.116  12.698
89051W        W57445  29.043  38.374   0.749
89052W        W57446  34.982   0.199   4.442
89053W        W57447   3.221   3.351   0.820
89054W        W57448   8.294  19.628  14.479
89055W        W57449  14.205  36.071   1.795
89056W        W57450  34.070  44.807   4.643
89057W        W57451  39.670   0.843  14.889
89058W        W57452  34.317  25.949  13.289
89059W        W57453  27.497  20.757   0.142
89060W        W57454  32.461  43.034  10.562
89061W        W57455  23.073  26.457  12.045
89062W        W57456  43.037  26.633   2.769
89063W        W57457  15.222  44.147   4.104
89064W        W57458   9.091  29.191  12.944
89065W        W57459  10.060   6.418   2.194
89066W        W57460   5.306   8.576  12.284
89067W        W57461  32.197   7.316   2.143
89068W        W57462  31.369   5.153  11.495
89069W        W57463  33.217  31.116  14.826
89070W        W57464  12.231  31.605   3.330
89071W        W57465  32.081   4.630  14.206
89072W        W57466  11.121  36.105  14.961
89073W        W57467  39.999  36.105   4.628
89074W        W57468  32.482   5.268  10.808
89075W        W57469  19.251  27.123  12.517
89076W        W57470  38.838  37.554  11.578
89077W        W57471  12.692  32.497   1.474
89078W        W57472   4.884   7.423   4.330
89079W        W57473  42.289  31.494  11.950
89080W        W57474  26.682  38.032  14.299
89081W        W57475  43.289  16.849  12.001
89082W        W57476  44.615   7.781   2.375
89083W        W57477  33.763  44.022  13.622
89084W        W57478  21.641   8.183   3.720
89085W        W57479  11.078  13.297  14.887
89086W        W57480  37.020   2.916  14.967
89087W        W57481   7.929  33.719   0.862
89088W        W57482  31.984  35.389  13.030
89089W        W57483  39.514  44.251  10.710
89090W        W57484  13.615   7.780  12.852
89091W        W57485   8.726  43.988   3.838
89092W        W57486  34.932  31.066   3.626
89093W        W57487  23.108  29.218   1.407
89094W        W57488  39.893   4.217   1.309
89095W        W57489   4.776  15.997   2.811
89096W        W57490  20.240  23.153   2.718
89097W        W57491  20.720  14.502   1.395
89098W        W57492  39.782  17.123   3.262
89099W        W57493  38.328  19.430   5.091
89100W        W57494  29.490  27.576  10.760
89101W        W57495   9.591  27.303   0.900
89102W        W57496  36.027  25.672   0.064
89103W        W57497  23.604  18.507  12.062
89104W        W57498   2.664   9.951  14.312
89105W        W57499   9.706   3.248  10.635
89106W        W57500   6.793  36.027  12.103
89107W        W57501  43.293  36.348  12.147
89108W        W57502  30.506  11.212  13.552
89109W        W57503  34.423  10.694   4.815
89110W        W57504  30.359  38.729  11.419
89111W        W57505  21.658   4.395  13.342
89112W        W57506  38.571  31.596   3.665
89113W        W57507  17.537  31.758   2.182
89114W        W57508  43.513  16.923   2.462
89115W        W57509  12.450   0.247  12.957
89116W        W57510  19.821   8.971   2.628
89117W        W57511  34.277  35.147  12.761
89118W        W57512   2.870   8.294  10.562
89119W        W57513   9.233  25.705  13.013
89120W        W57514  20.524  39.111   1.357
89121W        W57515   0.003  10.870  12.123
89122W        W57516   8.277  30.914  11.242
89123W        W57517  36.678  27.514   0.377
89124W        W57518  20.054   2.837   4.106
89125W        W57519  26.948  35.816   4.947
89126W        W57520   7.533  23.998  13.851
89127W        W57521  11.696  23.818   3.209
89128W        W57522  23.941  27.691  12.916
89129W        W57523  39.141   0.201   1.000
89130W        W57524  27.936  35.963   1.339
89131W        W57525  29.705   3.391  13.496
89132W        W57526  17.956  10.329   5.002
89133W        W57527  23.127  34.859  12.483
89134W        W57528  28.921  31.272  14.159
89135W        W57529  34.023   0.806   1.356
89136W        W57530  25.641   3.259   4.789
89137W        W57531  18.778   6.802   1.474
89138W        W57532  44.943  35.525   1.807
89139W        W57533   9.289  27.190   0.475
89140W        W57534  44.485  39.257   1.246
89141W        W57535   8.733  39.008   1.903
89142W        W57536  14.826  20.186   2.699
89143W        W57537  28.460  44.537   4.344
89144W        W57538  44.509  20.307  12.949
89145W        W57539  29.282  15.505   0.236
89146W        W57540  12.694  26.643   0.238
89147W        W57541  18.318  34.490   3.259
89148W        W57542  14.136   2.328  13.782
89149W        W57543  10.692  13.337  11.648
89150W        W57544  15.906  14.746   2.112
89151W        W57545  32.050  20.207   4.600
89152W        W57546  17.502   3.908   2.363
89153W        W57547   2.856  43.282   2.102
89154W        W57548   2.390   3.837   1.375
89155W        W57549  23.925   9.021   4.777
89156W        W57550  42.284  15.839  10.275
89157W        W57551   3.051  22.476  14.948
89158W        W57552   5.911   8.683   4.724
89159W        W57553  39.936  34.343  11.172
89160W        W57554  23.288   8.156  13.559
89161W        W57555  25.996  44.708   2.889
89162W        W57556  21.286  20.277   4.074
89163W        W57557  11.630  23.498  14.691
89164W        W57558   1.336  37.945  13.372
89165W        W57559   6.928  28.576   3.397
89166W        W57560  18.620   6.000  12.617
89167W        W57561  19.056  10.121  12.396
89168W        W57562  26.389  40.857  13.830
89169W        W57563  44.462  27.170   1.712
89170W        W57564  26.520  33.159  11.765
89171W        W57565  11.347  20.210   0.823
89172W        W57566  10.729   9.156  14.444
89173W        W57567   6.905  25.592   3.317
89174W        W57568  40.579   5.163  14.720
89175W        W57569  26.584  21.265   1.271
89176W        W57570  34.469   3.290   2.741
89177W        W57571  19.440  40.972  12.122
89178W        W57572  32.295  19.587   2.831
89179W        W57573  24.567  30.644   0.218
89180W        W57574  33.680  40.116   9.650
89181W        W57575  20.572   3.309  11.982
89182W        W57576  15.741  20.783   1.680
89183W        W57577  32.103  38.505   4.609
89184W        W57578  43.596  41.748   0.289
89185W        W57579  25.643  32.982  13.537
89186W        W57580  21.520   2.046   2.776
89187W        W57581  21.651  14.859   4.190
89188W        W57582  25.737  21.327   1.533
89189W        W57583  39.867  29.137  11.171
89190W        W57584  37.072  14.233  11.160
89191W        W57585  23.862   6.320  10.656
89192W        W57586  44.476  15.158   2.369
89193W        W57587  32.965   1.185   2.261
89194W        W57588  11.108  36.990   0.822
89195W        W57589   6.373  40.998  13.426
89196W        W57590  30.128  22.515   0.873
89197W        W57591  26.126   9.447  13.865
89198W        W57592  25.091  14.145  13.478
89199W        W57593  21.611  22.507   4.130
89200W        W57594  21.282   6.671  11.098
89201W        W57595  44.628  16.252  14.850
89202W        W57596   1.645  17.750  11.167
89203W        W57597   8.573  31.693  14.947
89204W        W57598  23.468  28.147  10.445
89205W        W57599  12.405  17.771   2.833
89206W        W57600   1.804  19.052  14.905
89207W        W57601  27.217   2.941   4.411
89208W        W57602  24.599   3.341  14.225
89209W        W57603  10.325  10.155   1.450
89210W        W57604  22.798  35.630   2.848
89211W        W57605  20.259  39.696   0.085
89212W        W57606  28.844  13.643  12.544
89213W        W57607  39.301  24.541   1.305
89214W        W57608  31.108   5.207  11.936
89215W        W57609  19.642  44.598   2.196
89216W        W57610  23.175  38.149   2.462
89217W        W57611  15.128  26.486  13.446
89218W        W57612  42.255  10.958   1.778
89219W        W57613  29.319   8.792  14.103
89220W        W57614   5.810  24.158  13.618
89221W        W57615  27.352  17.924   4.151
89222W        W57616  21.160  28.166  12.124
89223W        W57617  36.888  28.035   3.635
89224W        W57618   0.772  33.571  14.357
89225W        W57619  16.753   6.304  13.849
89226W        W57620   6.022  13.021  12.546
89227W        W57621  40.898  27.624  11.662
89228W        W57622  18.626  22.579   3.516
89229W        W57623  23.012  37.103   1.690
89230W        W57624  10.502  31.228  14.596
89231W        W57625  40.415  39.439   2.212
89232W        W57626  35.438  36.820   1.327
89233W        W57627   6.662  42.555  12.998
89234W        W57628   4.248  20.493  10.728
89235W        W57629  36.498  32.560   0.421
89236W        W57630  27.975  17.167   4.037
89237W        W57631   5.423  25.461  11.146
89238W        W57632  21.587  35.127  12.919
89239W        W57633  23.535   0.287   0.859
89240W        W57634  31.254  10.051   3.145
89241W        W57635  18.051  24.897  10.716
89242W        W57636  38.569   1.841   2.293
89243W        W57637  27.464  38.008  10.737
89244W        W57638   9.638  19.745   2.700
89245W        W57639  26.937  21.412  14.492
89246W        W57640   1.966  39.067  14.493
89247W        W57641  21.263  20.749   2.749
89248W        W57642   2.474   4.392  12.545
89249W        W57643  12.608  40.243   0.992
89250W        W57644  19.338   3.848   1.051
89251W        W57645   1.400  29.835   2.914
89252W        W57646  13.063  38.074   2.731
89253W        W57647  29.656   5.265   0.921
89254W        W57648   3.947  20.974   3.816
89255W        W57649  33.444  16.295   1.898
89256W        W57650  39.216  37.214  12.629
89257W        W57651  30.364  13.635   0.250
89258W        W57652  36.794  39.115   2.240
89259W        W57653  18.728  19.835   1.448
89260W        W57654  12.102  24.277  13.588
89261W        W57655  26.274  38.883   1.167
89262W        W57656  30.543  30.081   3.586
89263W        W57657  37.032  38.643   2.316
89264W        W57658  33.375  21.023   4.131
89265W        W57659   7.182   9.662   3.262
89266W        W57660   3.737  42.248  13.509
89267W        W57661   2.880   6.335   4.595
89268W        W57662   0.437  38.802   0.299
89269W        W57663  26.599  14.099  13.824
89270W        W57664   2.351  40.971   4.498
89271W        W57665  14.654  42.608   3.282
89272W        W57666   7.274   6.548   5.519
89273W        W57667  20.933  18.595  14.402
89274W        W57668  27.939   6.618   2.742
89275W        W57669  23.790  13.284  10.509
89276W        W57670  33.841  35.024  13.407
89277W        W57671  35.641   6.342  11.750
89278W        W57672  33.407   7.213  11.661
89279W        W57673   6.735  37.196  12.987
89280W        W57674  29.030  37.231   1.739
89281W        W57675  36.634   6.501  14.840
89282W        W57676  27.706   5.329   0.321
89283W        W57677  44.779  15.372  13.385
89284W        W57678  31.426  16.778   1.885
89285W        W57679   7.670  16.210  12.113
89286W        W57680  11.572  28.776   2.745
89287W        W57681  22.216  40.550   2.888
89288W        W57682  24.038   3.941  10.653
89289W        W57683  16.720  38.493   1.909
89290W        W57684  39.324  38.779   2.728
89291W        W57685  24.302   9.199  13.457
89292W        W57686  19.705  19.767   2.381
89293W        W57687  21.593  42.125  12.891
89294W        W57688   9.885  40.305  12.984
89295W        W57689  20.920  12.555   1.206
89296W        W57690  33.887  20.956  12.573
89297W        W57691  17.637   1.262   2.109
89298W        W57692   7.202   9.867   0.203
89299W        W57693  20.759  24.022  13.508
89300W        W57694  33.524   7.651   4.866
89301W        W57695  25.481  24.099   2.430
89302W        W57696   2.818  32.085   2.212
89303W        W57697  31.626  10.827  12.069
89304W        W57698  31.801  38.757   4.204
89305W        W57699  27.678  32.291  11.098
89306W        W57700  11.499  44.006   4.519
89307W        W57701  39.805  14.771  11.177
89308W        W57702  25.708  29.950  14.889
89309W        W57703   3.748  38.850   1.343
89310W        W57704  35.007  15.366   3.801
89311W        W57705  30.159  11.809   2.796
89312W        W57706  29.607   2.933   0.701
89313W        W57707   7.179  20.266  14.911
89314W        W57708  26.509  44.335   0.818
89315W        W57709  34.652   6.809  11.060
89316W        W57710  12.567  12.722  11.283
89317W        W57711   9.306  24.793  10.627
89318W        W57712   9.419  39.331  13.008
89319W        W57713  11.982  38.575   4.238
89320W        W57714   0.902  31.881   3.796
89321W        W57715  44.288   8.369   2.234
89322W        W57716  13.539   1.283  11.575
89323W        W57717  22.619  41.972   3.340
89324W        W57718  20.181  41.185  11.556
89325W        W57719  15.593  21.918  12.903
89326W        W57720  26.554  38.086   2.248
89327W        W57721   9.787  43.907   4.565
89328W        W57722   7.676  27.455  11.199
89329W        W57723  42.878  29.407   4.824
89330W        W57724   9.830  31.587   2.302
89331W        W57725  15.791  43.061  12.856
89332W        W57726   9.774  31.058  10.720
89333W        W57727  31.656  18.252   0.403
89334W        W57728  11.571  26.730  12.161
89335W        W57729  25.056  13.906  13.025
89336W        W57730  13.375  44.591  14.675
89337W        W57731  29.614  39.628  12.915
89338W        W57732   3.475  31.463   0.540
89339W        W57733  32.588   1.829  12.575
89340W        W57734  44.747   1.926  12.058
89341W        W57735   1.829  20.721   4.528
89342W        W57736  28.553  21.315   2.308
89343W        W57737  15.286  13.425  12.500
89344W        W57738  35.712  40.086  11.086
89345W        W57739  44.385  18.853   3.375
89346W        W57740  15.303   9.645  14.317
89347W        W57741  24.408  27.018  10.949
89348W        W57742  12.258   1.476  10.542
89349W        W57743  39.924  41.752   3.211
89350W        W57744  13.042  31.143  14.985
89351W        W57745  27.215  15.641  13.681
89352W        W57746  43.006   0.634  13.714
89353W        W57747  40.544   4.957  12.012
89354W        W57748   9.284   9.344   4.905
89355W        W57749  37.151  27.731   0.298
89356W        W57750   4.271   3.633   5.224
89357W        W57751   4.380  25.630   3.755
89358W        W57752  19.187  17.776   0.834
89359W        W57753  25.676  23.305   0.470
89360W        W57754  36.429  22.988  10.695
89361W        W57755  33.932  14.562  13.941
89362W        W57756  32.699  34.130  12.960
89363W        W57757  43.871  16.057   1.875
89364W        W57758  32.702  34.040   3.221
89365W        W57759   7.912  17.870  13.133
89366W        W57760  15.664  13.798   3.134
89367W        W57761  11.431   3.794  10.739
89368W        W57762  31.405  19.072   1.941
89369W        W57763  27.408  34.478   2.575
89370W        W57764  30.356  44.556  14.216
89371W        W57765  26.118  38.571  14.934
89372W        W57766  38.848   9.108  10.988
89373W        W57767  15.257  39.606  13.902
89374W        W57768  39.671  15.604  10.052
89375W        W57769  27.696  22.718   4.918
89376W        W57770  28.073  25.663   2.392
89377W        W57771  12.340   9.859  14.042
89378W        W57772  24.434  31.728   0.138
89379W        W57773  16.369  12.648   4.505
89380W        W57774   0.481  35.045  13.497
89381W        W57775  27.493  15.331   4.263
89382W        W57776  40.419  12.731  10.299
89383W        W57777  43.807  21.239   0.110
89384W        W57778   5.502  41.134   1.708
89385W        W57779   4.760  15.512  14.362
89386W        W57780  30.583  37.509  14.940
89387W        W57781  34.392  22.717   1.213
89388W        W57782  35.035  23.918   1.382
89389W        W57783  24.291  15.417  10.817
89390W        W57784  24.138   2.868  10.608
89391W        W57785   9.398  15.024   1.301
89392W        W57786  25.493   1.219   2.855
89393W        W57787  12.916  38.874   0.733
89394W        W57788  12.515  41.432   2.255
89395W        W57789  21.669  33.519   3.594
89396W        W57790   4.193   5.431   1.948
89397W        W57791  42.763  24.445  11.181
89398W        W57792  40.358  21.556   2.123
89399W        W57793   2.470  38.858   4.070
89400W        W57794  12.928  32.118   1.174
89401W        W57795  37.736  44.691  11.094
89402W        W57796  40.491  39.210  10.172
89403W        W57797  36.116  37.067   4.748
89404W        W57798   7.301  23.563  13.092
89405W        W57799  20.709   8.584  12.822
89406W        W57800  19.127  28.874   4.228
89407W        W57801  27.480  31.675  11.599
89408W        W57802  29.542  42.468   4.227
89409W        W57803  23.693  32.599  11.989
89410W        W57804  27.023  30.041   1.652
89411W        W57805  19.761  28.244  12.137
89412W        W57806  16.636  26.139   0.749
89413W        W57807  42.081  15.451   3.157
89414W        W57808  25.996  14.074   3.123
89415W        W57809  12.122  32.832   0.733
89416W        W57810  38.069  41.637  13.049
89417W        W57811  14.770  41.661   0.387
89418W        W57812  18.289  29.337  12.913
89419W        W57813  35.114  30.599   2.300
89420W        W57814   3.328  21.255  13.060
89421W        W57815  27.754   7.861   3.808
89422W        W57816  28.942  27.169  11.587
89423W        W57817  16.947  28.811  13.208
89424W        W57818  28.917  43.552   3.702
89425W        W57819  37.812  27.191   0.733
89426W        W57820   1.495   1.419  12.565
89427W        W57821  39.737  28.698   4.587
89428W        W57822   6.171  24.905   0.173
89429W        W57823   0.404   7.768  14.520
89430W        W57824   4.769  15.343   5.012
89431W        W57825   4.142  18.594  11.114
89432W        W57826  41.967  34.997  13.386
89433W        W57827  34.527  20.310   2.688
89434W        W57828  36.044  12.790   2.627
89435W        W57829   9.633  37.399  13.001
89436W        W57830  34.756  30.391   0.691
89437W        W57831  44.466  44.040  14.420
89438W        W57832  23.736  14.095  14.461
89439W        W57833  22.646   0.378   3.220
89440W        W57834  28.331  32.280   2.730
89441W        W57835   2.390   7.856   0.369
89442W        W57836  36.018   7.110   1.931
89443W        W57837   0.818  34.901  12.134
89444W        W57838  30.728  14.750   1.210
89445W        W57839  12.088  13.445  12.062
89446W        W57840   8.187  14.061   2.702
89447W        W57841   3.945   5.370  12.063
89448W        W57842  27.125   9.101   3.589
89449W        W57843  24.976  27.539  13.006
89450W        W57844  30.197  32.684  13.493
89451W        W57845  27.996  26.345   2.615
89452W        W57846   0.417   5.401  12.825
89453W        W57847  16.304  23.510  11.133
89454W        W57848  11.515  39.409  14.867
89455W        W57849  16.602  27.484   4.568
89456W        W57850  41.082  30.580   2.051
89457W        W57851  15.105  25.925   1.959
89458W        W57852  35.046  14.736   0.561
89459W        W57853   0.733  10.228  12.913
89460W        W57854  44.033   3.998  10.989
89461W        W57855   5.025   7.254   0.907
89462W        W57856   6.960  11.054   4.183
89463W        W57857  12.527  33.789  12.847
89464W        W57858  30.877  32.975  11.186
89465W        W57859  19.831  20.587  13.722
89466W        W57860  31.029  15.046  10.918
89467W        W57861   0.883  36.380  13.964
89468W        W57862  10.479  33.936   0.854
89469W        W57863  34.399  43.299  13.412
89470W        W57864  18.483  10.187  10.284
89471W        W57865  11.620  12.365  14.005
89472W        W57866   8.422  36.084   2.700
89473W        W57867   3.230  13.394   0.318
89474W        W57868  11.397  39.263   2.944
89475W        W57869  24.051  20.908  10.318
89476W        W57870  44.398  34.949  12.226
89477W        W57871  42.963  12.339  14.827
89478W        W57872   5.781  27.332   4.814
89479W        W57873  31.398  18.264   0.948
89480W        W57874  31.965  16.788  12.520
89481W        W57875  21.478  14.386   4.213
89482W        W57876  27.191  17.638   0.284
89483W        W57877   1.811  30.166  10.386
89484W        W57878   9.704   8.039   0.282
89485W        W57879  39.970  15.144   1.428
89486W        W57880  13.522   3.237   4.133
89487W        W57881   7.149  26.313   5.735
89488W        W57882  23.507  41.754  10.545
89489W        W57883  27.711  28.101  12.342
89490W        W57884  43.983  37.186   4.052
89491W        W57885   6.150   2.679  13.461
89492W        W57886   4.741  42.503  13.509
89493W        W57887  39.949  43.320   3.248
89494W        W57888   5.264  44.704  14.973
89495W        W57889  15.427  16.862  11.143
89496W        W57890  44.071   1.111  10.752
89497W        W57891  18.869   1.250   0.719
89498W        W57892  19.596  11.421   2.865
89499W        W57893   4.730  35.107  12.215
89500W        W57894   5.153  25.057  14.515
89501W        W57895  26.740   9.367  12.434
89502W        W57896  27.927  23.655  14.876
89503W        W57897  31.488  43.843  14.529
89504W        W57898  43.239  34.603  14.044
89505W        W57899  36.346  44.568   0.984
89506W        W57900  28.977  38.579  13.964
89507W        W57901   4.091  36.050   1.901
89508W        W57902  15.338  20.917  12.943
89509W        W57903  23.092   1.305  10.641
89510W        W57904   6.821   6.646  11.435
89511W        W57905   9.094  14.962   1.735
89512W        W57906  44.567  28.327  13.498
89513W        W57907  11.638  43.536   0.366
89514W        W57908  38.583  24.903  13.883
89515W        W57909  29.884  22.506  12.830
89516W        W57910  21.015   2.649  13.847
89517W        W57911   6.167   6.233   4.065
89518W        W57912   2.046  33.001   1.870
89519W        W57913  24.601  42.762   4.606
89520W        W57914  31.872  15.143   4.571
89521W        W57915  36.956  36.864  13.129
89522W        W57916   2.734  39.416  14.396
89523W        W57917  13.358  41.953   4.101
89524W        W57918  10.605   7.783   2.973
89525W        W57919  10.253   9.824   3.648
89526W        W57920  42.885  15.250  11.039
89527W        W57921  16.363  18.096   9.761
89528W        W57922  10.685   1.445  12.716
89529W        W57923   1.143  33.799  11.187
89530W        W57924  20.301  33.436  13.149
89531W        W57925  25.105   7.362   4.331
89532W        W57926  20.507   7.259  12.335
89533W        W57927  33.820  21.209  12.121
89534W        W57928   9.909  14.862   3.148
89535W        W57929   3.677  37.970  12.470
89536W        W57930  32.909   6.733   1.757
89537W        W57931  14.297  43.648   0.222
89538W        W57932   1.722   0.473  12.467
89539W        W57933  30.606  42.941   0.520
89540W        W57934  14.198  28.170  12.765
89541W        W57935  30.051  24.462  12.606
89542W        W57936  11.815  36.937  10.311
89543W        W57937  22.699  21.665  14.523
89544W        W57938  15.171  35.183  11.292
89545W        W57939  35.271  39.354  14.358
89546W        W57940   0.397  30.527  10.469
89547W        W57941   2.849   9.856   4.138
89548W        W57942  14.357   4.708  10.705
89549W        W57943  28.395  34.157  11.254
89550W        W57944  36.662   5.584  11.959
89551W        W57945   5.602   8.796   4.189
89552W        W57946   4.393  32.025  12.476
89553W        W57947  11.345  30.127   4.116
89554W        W57948  29.385  35.631   4.410
89555W        W57949   8.997   4.490   3.080
89556W        W57950  38.503   7.054  12.216
89557W        W57951  41.518  42.347  13.603
89558W        W57952  17.964  21.941   1.334
89559W        W57953  22.656  31.858   1.810
89560W        W57954   4.648   9.595   3.289
89561W        W57955  12.307  11.423   4.535
89562W        W57956  31.601   4.217  12.892
89563W        W57957  44.997  42.396   2.610
89564W        W57958  39.851   9.089   3.601
89565W        W57959  44.279   3.772   1.253
89566W        W57960  20.573  34.591   3.708
89567W        W57961  23.414   4.796   0.022
89568W        W57962  16.686  24.261   3.768
89569W        W57963  16.425  32.537   3.600
89570W        W57964  37.085  11.719  12.511
89571W        W57965  21.559  14.636  13.294
89572W        W57966  35.561  29.633  12.075
89573W        W57967   0.622  11.032   1.690
89574W        W57968  18.576  34.733   1.797
89575W        W57969  15.790  10.722  11.969
89576W        W57970   2.979   0.306  12.020
89577W        W57971  18.290  35.544   1.912
89578W        W57972  20.390  16.074   4.097
89579W        W57973  13.090  20.027   3.297
89580W        W57974  35.847   3.839  14.601
89581W        W57975  15.167  27.403  13.417
89582W        W57976  36.264  36.925  12.129
89583W        W57977  38.344  11.690   2.418
89584W        W57978  32.089  26.341  11.635
89585W        W57979  21.651  10.688  13.974
89586W        W57980  22.676  22.460  14.437
89587W        W57981  42.829  39.525  14.263
89588W        W57982   4.133   9.070  12.116
89589W        W57983  10.708  25.020   0.371
89590W        W57984  27.799  24.694   2.411
89591W        W57985  28.410  41.891   3.331
89592W        W57986  42.948  31.467   0.722
89593W        W57987   7.044  33.390  13.344
89594W        W57988  43.591  24.578  10.863
89595W        W57989  34.840  25.453  13.551
89596W        W57990   6.201  12.018   1.604
89597W        W57991  34.798  27.924  13.522
89598W        W57992  11.801  34.914   0.438
89599W        W57993  38.566  38.896  10.863
89600W        W57994  30.543  39.217  11.493
89601W        W57995  43.411  15.118  12.149
89602W        W57996  12.476  33.099   3.930
89603W        W57997  15.868  15.492   3.316
89604W        W57998  11.151  14.295   1.806
89605W        W57999   0.855  12.622  11.016
89606W        W58000  41.007  33.504   4.479
89607W        W58001  33.694  42.050  11.618
89608W        W58002  44.960   3.538  10.908
89609W        W58003   1.951  17.910   4.644
89610W        W58004  34.055  30.665  12.407
89611W        W58005  42.056  37.290   1.276
89612W        W58006   7.323   7.576   4.437
89613W        W58007  40.209  21.256  12.356
89614W        W58008  19.803  16.767  14.546
89615W        W58009  35.074  42.983   0.228
89616W        W58010  39.317  19.585  12.583
89617W        W58011   6.935  29.752   2.832
89618W        W58012  12.325  42.318   0.195
89619W        W58013   6.670  32.721  12.124
89620W        W58014  32.974   9.935   0.992
89621W        W58015  15.160  41.336   0.379
89622W        W58016   1.410  13.011   3.305
89623W        W58017  12.419  28.296   2.437
89624W        W58018  12.094   7.161   1.169
89625W        W58019   2.232   8.343   0.322
89626W        W58020   7.330  15.268   0.438
89627W        W58021  20.016  37.127   4.033
89628W        W58022  22.231  33.140   3.075
89629W        W58023  29.364  38.288   4.175
89630W        W58024  38.405   0.287  13.925
89631W        W58025  24.753  29.640  14.950
89632W        W58026  17.473  15.081  10.263
89633W        W58027  17.380  15.933  10.119
89634W        W58028   3.490  23.058  10.732
89635W        W58029   7.598  34.325  12.453
89636W        W58030   1.940  14.822  11.567
89637W        W58031  40.822   6.748   3.346
89638W        W58032   1.774  16.839   3.735
89639W        W58033  21.740   4.368  13.937
89640W        W58034   1.336   1.024   3.150
89641W        W58035  15.033  21.143   1.870
89642W        W58036  23.196  29.391   4.070
89643W        W58037  44.765   3.303   1.266
89644W        W58038  33.935  10.897  12.512
89645W        W58039  21.003  39.584  12.652
89646W        W58040   5.928  25.138   1.966
89647W        W58041  12.627   8.136  12.330
89648W        W58042  17.081  25.650   4.656
89649W        W58043  32.114  42.959   3.345
89650W        W58044  36.984  42.266   3.206
89651W        W58045  24.831  42.319  13.767
89652W        W58046  31.051   1.752   0.264
89653W        W58047  42.672  29.237   3.089
89654W        W58048  39.065  20.677  13.981
89655W        W58049  22.843  44.463   1.262
89656W        W58050   2.652   5.980  10.956
89657W        W58051  32.817  12.641   2.212
89658W        W58052  40.998  26.435   1.398
89659W        W58053  34.249  38.486  10.915
89660W        W58054   4.030  34.841   2.603
89661W        W58055  31.921  30.318   1.009
89662W        W58056  44.762  28.707  14.971
89663W        W58057   0.716   0.392  12.578
89664W        W58058  20.696  24.594   3.732
89665W        W58059  24.653  13.880  13.398
89666W        W58060   0.308  10.859  14.444
89667W        W58061   7.445  13.675   2.160
89668W        W58062  44.404  23.511  13.336
89669W        W58063  15.576   9.715   0.990
89670W        W58064  36.607  29.026   4.506
89671W        W58065  23.398  36.578  13.377
89672W        W58066  14.807  38.000   3.150
89673W        W58067  38.524  33.454  11.463
89674W        W58068  16.313  25.018  13.836
89675W        W58069  21.157  33.511  13.282
89676W        W58070  23.306  29.906   4.674
89677W        W58071   1.773   4.853   2.815
89678W        W58072  15.795  43.533   4.531
89679W        W58073  44.207  24.697   5.196
89680W        W58074  42.215  43.959   0.327
89681W        W58075   7.165   6.260  14.228
89682W        W58076   8.127  19.968  14.073
89683W        W58077  14.105  28.172   4.568
89684W        W58078  26.912  13.239   4.122
89685W        W58079  22.552  10.285   3.612
89686W        W58080  29.654  42.814  13.780
89687W        W58081  32.048   4.101  12.654
89688W        W58082  39.035   2.412   3.190
89689W        W58083   6.117  19.665   1.415
89690W        W58084  17.748   5.074   1.880
89691W        W58085  12.408  41.567   3.925
89692W        W58086  19.663  35.181   0.402
89693W        W58087  17.137  23.265  14.588
89694W        W58088  21.569  11.059  10.130
89695W        W58089  28.891  40.457  12.781
89696W        W58090  40.532   3.184   2.194
89697W        W58091   5.820  29.065  12.139
89698W        W58092   9.894   8.040  14.294
89699W        W58093  41.743  11.286   2.331
89700W        W58094  13.729   4.859  14.300
89701W        W58095  23.105  20.606   4.150
89702W        W58096   3.674  20.977   4.574
89703W        W58097  29.847  40.438  11.201
89704W        W58098  29.703  33.128  11.988
89705W        W58099  43.330  15.141   0.960
89706W        W58100   1.913  27.578  12.391
89707W        W58101   8.415  30.024  13.894
89708W        W58102  16.372  23.505  14.299
89709W        W58103   4.502   2.374  11.010
89710W        W58104   7.370  13.793   4.621
89711W        W58105   3.621  25.460  13.873
89712W        W58106  32.449   1.666   4.503
89713W        W58107  37.463   3.007   3.217
89714W        W58108   9.125  40.590  11.253
89715W        W58109  21.623  15.539  11.581
89716W        W58110  37.447  11.787  10.673
89717W        W58111  33.829   4.168   0.683
89718W        W58112  39.543  16.814   0.207
89719W        W58113  27.142  38.034  13.497
89720W        W58114  11.946  17.559   1.419
89721W        W58115  15.369  28.322  11.403
89722W        W58116  37.935  34.886  12.963
89723W        W58117  26.593   8.814   0.449
89724W        W58118  35.428   0.933  14.169
89725W        W58119   3.890  29.508   3.575
89726W        W58120  10.455  44.075  11.651
89727W        W58121  35.892  42.884   2.057
89728W        W58122   7.473  42.902   3.709
89729W        W58123  16.663  10.354  11.844
89730W        W58124  16.565  29.100   2.175
89731W        W58125   4.860  23.218   1.593
89732W        W58126  43.563  21.513  13.790
89733W        W58127   2.179  28.681  14.987
89734W        W58128   2.817  35.300  14.028
89735W        W58129  33.518  32.400   4.547
89736W        W58130  36.481  25.000  13.879
89737W        W58131  38.005  20.108   3.080
89738W        W58132  38.306  28.649   1.782
89739W        W58133  37.474  31.497  13.279
89740W        W58134   3.257  31.217   1.871
89741W        W58135   4.937  23.105  12.444
89742W        W58136  36.306  37.456   2.839
89743W        W58137  28.145  13.125   1.617
89744W        W58138  43.319  22.134   0.195
89745W        W58139  20.481   3.917  12.652
89746W        W58140  20.777  25.017   2.292
89747W        W58141  14.760  25.551  14.578
89748W        W58142  33.063  40.231  12.589
89749W        W58143  22.640  14.570  13.400
89750W        W58144  12.557   6.829  13.012
89751W        W58145   8.628   1.346   0.473
89752W        W58146  34.811  26.686  14.577
89753W        W58147  20.485  30.531   0.003
89754W        W58148   8.968  31.970   0.106
89755W        W58149  27.045  43.477   3.557
89756W        W58150  34.335  36.278   3.238
89757W        W58151  35.830   9.224   2.936
89758W        W58152   5.416  41.068   2.657
89759W        W58153  43.816  34.399   4.107
89760W        W58154  42.812  33.154   3.721
89761W        W58155  27.701   0.955  10.789
89762W        W58156  20.482  34.342   4.137
89763W        W58157  27.960  31.235  12.150
89764W        W58158  40.024  32.521   0.047
89765W        W58159   2.629  27.864  14.363
89766W        W58160  23.398   2.934  11.021
89767W        W58161  26.749  22.728  12.994
89768W        W58162  18.762  36.926   3.964
89769W        W58163  37.356  44.034  10.689
89770W        W58164  37.742  22.180   1.348
89771W        W58165   8.335  39.966  14.783
89772W        W58166   9.521  32.006   2.204
89773W        W58167   6.858  33.657  11.515
89774W        W58168  22.086  22.259   4.131
89775W        W58169  18.165  12.829  14.475
89776W        W58170  28.298  17.564  11.572
89777W        W58171  32.574  23.179   0.700
89778W        W58172  39.821   3.355   0.053
89779W        W58173  19.104   6.205  12.584
89780W        W58174   9.111  14.795   3.669
89781W        W58175  13.549   8.785   2.293
89782W        W58176  27.222  18.166  10.380
89783W        W58177  38.445  25.057   0.478
89784W        W58178  17.890  31.955   0.782
89785W        W58179  15.716  44.462  13.087
89786W        W58180  34.084   9.425   1.847
89787W        W58181  25.176   7.179   0.836
89788W        W58182  42.009  16.819   1.959
89789W        W58183  42.134   8.223   3.693
89790W        W58184  17.804  15.287  11.158
89791W        W58185  16.269  24.759  12.519
89792W        W58186  28.216  22.832  13.788
89793W        W58187  10.027   5.604   9.982
89794W        W58188  27.051  27.195   0.780
89795W        W58189   8.331   6.479   2.172
89796W        W58190   6.122  36.367   9.906
89797W        W58191  31.819  21.875  12.076
89798W        W58192  36.954  15.630  14.992
89799W        W58193  20.620  38.387  14.012
89800W        W58194  19.751  10.159   2.018
89801W        W58195   3.944  12.101   2.601
89802W        W58196  14.727  44.044   4.299
89803W        W58197  26.022  23.520  14.897
89804W        W58198  44.166  26.532   0.946
89805W        W58199  16.218  21.670   3.830
89806W        W58200  16.182  19.122   0.924
89807W        W58201   2.832  24.477  11.713
89808W        W58202  24.339  42.876   0.022
89809W        W58203  39.754  29.077  14.458
89810W        W58204  22.527  32.474  11.570
89811W        W58205  41.297   3.259  14.566
89812W        W58206  19.198  39.829  12.880
89813W        W58207  23.422   5.817  11.197
89814W        W58208  26.193  21.734   0.787
89815W        W58209  11.182   9.227   1.458
89816W        W58210  30.208  15.270  13.894
89817W        W58211  43.735  14.861  14.156
89818W        W58212  15.426  16.738   5.109
89819W        W58213  39.949  33.931   0.954
89820W        W58214  30.906   8.209  14.392
89821W        W58215   6.306  11.855   2.106
89822W        W58216  20.934  28.045   4.559
89823W        W58217   9.879   1.817  14.416
89824W        W58218  44.368   6.472  12.328
89825W        W58219  32.915  26.805   4.222
89826W        W58220  39.944  23.214   4.125
89827W        W58221  22.570  30.797   2.094
89828W        W58222  18.982   0.231   4.573
89829W        W58223  42.541   4.183   3.950
89830W        W58224  13.423  34.933  12.800
89831W        W58225  30.147  31.499   2.827
89832W        W58226   5.743   1.463   3.204
89833W        W58227  30.078  22.703  11.195
89834W        W58228  44.308  43.260  14.762
89835W        W58229  43.995  39.810  13.519
89836W        W58230  21.156  41.058   3.684
89837W        W58231   9.863  28.522  12.982
89838W        W58232  25.144   0.933   3.160
89839W        W58233  30.997  10.585  13.848
89840W        W58234   4.502  15.514   2.764
89841W        W58235  40.153   6.401   0.886
89842W        W58236  42.399  44.013   4.076
89843W        W58237   5.426  22.416   0.668
89844W        W58238  27.966  42.350   1.286
89845W        W58239  11.917  34.011  10.746
89846W        W58240  21.692  38.620   0.273
89847W        W58241   0.785  27.544  13.910
89848W        W58242  35.373  42.987   1.934
89849W        W58243  28.082  11.885  14.535
89850W        W58244  31.451  11.153   1.957
89851W        W58245  43.895  23.109  12.501
89852W        W58246   1.913  16.464   1.565
89853W        W58247  35.917  36.131  12.396
89854W        W58248  27.087   2.476   4.269
89855W        W58249  42.525  36.404   1.392
89856W        W58250  29.147  38.502  12.050
89857W        W58251  33.148   8.990   1.444
89858W        W58252  13.218   3.670  11.071
89859W        W58253  15.978  16.635   4.285
89860W        W58254  15.096  25.995  11.142
89861W        W58255  38.682  25.717  13.066
89862W        W58256  15.936  37.534   3.691
89863W        W58257  39.853  14.237  13.400
89864W        W58258   5.133  42.094  12.677
89865W        W58259  28.014  23.070  11.047
89866W        W58260  43.925  43.059  13.627
89867W        W58261  17.034  35.649   0.755
89868W        W58262  16.682  32.286  11.068
89869W        W58263  20.696  25.169   3.708
89870W        W58264  32.411  37.376   4.141
89871W        W58265   7.868  41.270  14.260
89872W        W58266  33.997  28.047   1.391
89873W        W58267  32.591  23.941  14.448
89874W        W58268  14.885  14.682   2.305
89875W        W58269  40.514  39.396   3.762
89876W        W58270  41.357  14.103   4.494
89877W        W58271  13.524  20.148  12.647
89878W        W58272  18.372  33.186   3.245
89879W        W58273  22.066  27.076   4.832
89880W        W58274  29.728  43.971   2.587
89881W        W58275  37.424   1.386   3.254
89882W        W58276  25.120  22.660  14.869
89883W        W58277  30.451  26.390   4.581
89884W        W58278  23.281  16.263  14.472
89885W        W58279  44.713  20.310  14.906
89886W        W58280   9.851   3.350  11.628
89887W        W58281  40.212  27.115  13.115
89888W        W58282  19.423  20.326  13.537
89889W        W58283  36.023  36.780  10.745
89890W        W58284   4.805  42.722  13.025
89891W        W58285   1.133  33.481   3.810
89892W        W58286  24.024  14.287   3.217
89893W        W58287  18.578  22.565   4.901
89894W        W58288  10.246  11.172  11.950
89895W        W58289  25.305  20.042   1.784
89896W        W58290  38.870  17.744   1.934
89897W        W58291  27.184  39.273   3.210
89898W        W58292  16.203  39.886  14.375
89899W        W58293   6.753  12.874  11.868
89900W        W58294  29.686  32.938   2.802
89901W        W58295   8.469  14.113   0.987
89902W        W58296  17.242  26.949  14.534
89903W        W58297  11.221  32.331   0.398
89904W        W58298  29.380   8.652   2.666
89905W        W58299  34.654  21.598   2.132
89906W        W58300  39.919  35.239   0.183
89907W        W58301  16.888  41.783   1.626
89908W        W58302  42.432  37.879   0.478
89909W        W58303   4.929   0.564  10.797
89910W        W58304   9.263   3.729  10.762
89911W        W58305   1.219  16.877  10.961
89912W        W58306  13.783   9.424  13.021
89913W        W58307  31.068  24.242  14.483
89914W        W58308   0.208  27.084   0.257
89915W        W58309  19.005  21.725  14.850
89916W        W58310  14.025  18.383  12.406
89917W        W58311  30.181  31.933  13.960
89918W        W58312  27.153  28.033   4.816
89919W        W58313  36.930  10.211   1.460
89920W        W58314  29.263  25.811  14.399
89921W        W58315  19.605  30.455   0.775
89922W        W58316  38.579  15.568   3.407
89923W        W58317  36.651  30.317  10.843
89924W        W58318   7.268  19.242   1.722
89925W        W58319  44.989   3.099  11.268
89926W        W58320  18.822   2.307   3.309
89927W        W58321  41.905  11.359  14.325
89928W        W58322  29.815  13.694   3.287
89929W        W58323  31.043  21.743   3.788
89930W        W58324  21.205  17.556   3.876
89931W        W58325  21.690  25.427  12.309
89932W        W58326  42.418  14.191  11.386
89933W        W58327  18.238   1.503   1.320
89934W        W58328  39.911  42.619  10.525
89935W        W58329   7.398  12.591  14.412
89936W        W58330  31.988  14.003   3.318
89937W        W58331  10.655  22.086   2.346
89938W        W58332  40.355  37.356  10.142
89939W        W58333  39.366   5.241  11.024
89940W        W58334   4.739  31.559  13.992
89941W        W58335  24.778  38.812   4.139
89942W        W58336   8.387   4.799   1.634
89943W        W58337   2.993   5.561   2.962
89944W        W58338  13.380  12.208   4.052
89945W        W58339  32.739  18.610   2.349
89946W        W58340  15.868  23.770  11.095
89947W        W58341  34.071  15.093   3.601
89948W        W58342  18.008  36.787  13.824
89949W        W58343  17.728  15.500   5.351
89950W        W58344  24.055  13.254   2.902
89951W        W58345  21.802   9.986   0.948
89952W        W58346  36.370  43.757  12.600
89953W        W58347  10.800  28.426  11.983
89954W        W58348  19.275  13.019   0.449
89955W        W58349  43.417  22.532  13.882
89956W        W58350  43.518  17.545  12.534
89957W        W58351  43.506   5.671  13.142
89958W        W58352  13.082   7.454  10.087
89959W        W58353  44.711  16.466  11.941
89960W        W58354   5.449   4.783  11.592
89961W        W58355   0.689  25.678   0.365
89962W        W58356  17.596  37.674   4.896
89963W        W58357   3.934  13.099   2.413
89964W        W58358  31.872  24.769   4.348
89965W        W58359   8.971  16.020  13.547
89966W        W58360  18.230  16.625  13.628
89967W        W58361  39.326  41.316  12.090
89968W        W58362  40.816  29.107   1.011
89969W        W58363   8.311  44.668   2.347
89970W        W58364  41.511   3.694  14.752
89971W        W58365  19.797  25.156  11.197
89972W        W58366  17.282   4.684  11.585
89973W        W58367  31.996  24.926  14.767
89974W        W58368  17.737   3.330  12.286
89975W        W58369  36.503  25.134  10.869
89976W        W58370  26.447  36.335   4.155
89977W        W58371  23.202  36.407  12.216
89978W        W58372   6.459  26.206  12.957
89979W        W58373   5.048  26.421   1.796
89980W        W58374  39.612  26.630   4.696
89981W        W58375   7.014  16.780   1.534
89982W        W58376  34.627  39.047   1.459
89983W        W58377  27.443  25.599  12.116
89984W        W58378  36.847  28.273  12.890
89985W        W58379   7.140   1.850   4.662
89986W        W58380  38.885   5.249  10.790
89987W        W58381  36.416   0.220  12.537
89988W        W58382  26.461  24.597   0.939
89989W        W58383  34.571  17.597  12.448
89990W        W58384  14.254  10.696  12.914
89991W        W58385  29.142  31.195   4.159
89992W        W58386  41.087  41.774  11.580
89993W        W58387  34.693  23.351   2.500
89994W        W58388  28.459  19.648  13.402
89995W        W58389  23.600   5.076  14.003
89996W        W58390  19.229  37.554   3.808
89997W        W58391   6.919  43.707  14.769
89998W        W58392  43.108  12.136   3.365
89999W        W58393  31.115  14.097  12.950
90000W        W58394  14.926  24.071   4.634
90001W        W58395  16.209  34.112   1.221
90002W        W58396  19.266   0.853   3.075
90003W        W58397  24.639  12.300   0.266
90004W        W58398  13.261  39.350  10.631
90005W        W58399  28.078  39.866   0.546
90006W        W58400  23.073  28.176   3.707
90007W        W58401  17.448  31.813  14.986
90008W        W58402  40.122  10.308   4.840
90009W        W58403  28.867   3.612  12.010
90010W        W58404  27.081  24.226  13.829
90011W        W58405  24.776  13.971   0.792
90012W        W58406  33.028   7.467  10.964
90013W        W58407  14.378  10.509  14.598
90014W        W58408   9.813  28.128   3.117
90015W        W58409  13.736  26.002  12.218
90016W        W58410  32.638  26.940   4.669
90017W        W58411  37.603  37.105  12.084
90018W        W58412  16.776  34.380   3.606
90019W        W58413  34.274  11.107   0.970
90020W        W58414   6.779  17.812  14.314
90021W        W58415  38.545  22.029   4.052
90022W        W58416  35.928  23.574   0.248
90023W        W58417  33.923   3.447  13.287
90024W        W58418  34.396  10.663   2.174
90025W        W58419  39.655  35.486   1.453
90026W        W58420   9.664   4.334  13.362
90027W        W58421   5.864  32.668  12.956
90028W        W58422  23.077  40.074  12.428
90029W        W58423  40.791  33.700  12.553
90030W        W58424  18.753  19.697   4.987
90031W        W58425  37.518  20.965  14.787
90032W        W58426   1.863  33.567  14.789
90033W        W58427  35.386   9.361   3.514
90034W        W58428  11.826   2.013   1.855
90035W        W58429  37.497  32.538  12.904
90036W        W58430  26.755  23.950   3.202
90037W        W58431  32.916   1.420   0.468
90038W        W58432  27.608  26.933   2.307
90039W        W58433  32.477   6.887  12.453
90040W        W58434  23.727  37.934   4.839
90041W        W58435  16.715  21.546  10.610
90042W        W58436  27.082   7.184  11.345
90043W        W58437   2.422  11.074  14.395
90044W        W58438  19.866  37.146   4.916
90045W        W58439   8.432  14.615  11.560
90046W        W58440  37.476   0.578   4.338
90047W        W58441  18.085   9.367   2.813
90048W        W58442  32.483  16.115   1.742
90049W        W58443  41.487  43.447   1.467
90050W        W58444  17.568  19.240   3.224
90051W        W58445   3.415   3.370  12.113
90052W        W58446  18.827  40.886   3.718
90053W        W58447  17.693   6.715  10.637
90054W        W58448  11.215  17.817   1.814
90055W        W58449  19.739  23.543  10.531
90056W        W58450   7.457   9.418   3.599
90057W        W58451  40.225   3.686   5.015
90058W        W58452   8.870  39.743   2.290
90059W        W58453  21.160   5.396  12.678
90060W        W58454  16.252  33.616  14.853
90061W        W58455   8.952  42.943   3.316
90062W        W58456  33.042  36.899   2.948
90063W        W58457  13.825  17.794  13.945
90064W        W58458  26.664  38.382  13.475
90065W        W58459  31.617  24.074   4.155
90066W        W58460  11.823  17.741   0.028
90067W        W58461  30.262  17.752   2.727
90068W        W58462  43.438  12.884   4.763
90069W        W58463  28.602  22.935   1.532
90070W        W58464  37.597   5.257   3.622
90071W        W58465  25.166  20.459  13.803
90072W        W58466  11.943  18.861  11.221
90073W        W58467  23.082  21.887   3.173
90074W        W58468  32.027  22.432   5.099
90075W        W58469  28.538   7.621   0.406
90076W        W58470  26.212  13.400   5.110
90077W        W58471  35.517  31.724  13.064
90078W        W58472  26.585   7.826   1.997
90079W        W58473   0.381  40.448  11.166
90080W        W58474  35.089  39.769  11.516
90081W        W58475  38.971  29.586  12.013
90082W        W58476  33.949   7.588   2.741
90083W        W58477  18.284  38.059   3.088
90084W        W58478  37.840  41.308  12.472
90085W        W58479  34.010  22.061   4.569
90086W        W58480   1.316  16.532  12.696
90087W        W58481  34.535  30.518   0.218
90088W        W58482  10.554  37.052   2.269
90089W        W58483  37.454  39.546  14.596
90090W        W58484  13.738  41.269  13.361
90091W        W58485   5.260  32.497   0.175
90092W        W58486  28.104  15.975  10.379
90093W        W58487   3.793  39.008   3.801
90094W        W58488  17.023  22.984  12.061
90095W        W58489   2.785  38.030   4.527
90096W        W58490  23.597  28.424   4.135
90097W        W58491  39.847  26.737  14.762
90098W        W58492  27.463  12.317  13.430
90099W        W58493   3.340  31.508   3.666
90100W        W58494  11.758  33.420  13.393
90101W        W58495  19.281  23.295   0.901
90102W        W58496  32.233  17.159   0.882
90103W        W58497  11.434  22.015  11.112
90104W        W58498   0.831  35.378   1.698
90105W        W58499  31.476  20.748   2.769
90106W        W58500  36.013  12.074  11.590
90107W        W58501  32.340  16.078   0.701
90108W        W58502  10.919  19.424   2.328
90109W        W58503  30.161   5.704  14.867
90110W        W58504  22.693  38.274  11.237
90111W        W58505  15.963   2.967   0.467
90112W        W58506  40.918  17.950  13.966
90113W        W58507  39.879  43.876   2.320
90114W        W58508  41.187  28.169  14.537
90115W        W58509   1.991   7.859   1.256
90116W        W58510   0.185   9.190   4.073
90117W        W58511   0.011  42.547  14.845
90118W        W58512  33.092  40.688  10.788
90119W        W58513  33.710  22.278   1.714
90120W        W58514  24.641  38.388  13.414
90121W        W58515  33.704   4.127  11.470
90122W        W58516  36.182  27.182  11.898
90123W        W58517   6.324  38.858   1.779
90124W        W58518  24.540  32.095  13.821
90125W        W58519  23.432  39.932  14.048
90126W        W58520   9.364   5.666  10.792
90127W        W58521   0.327  44.482   2.391
90128W        W58522  37.834  18.182  11.521
90129W        W58523   7.966  39.747  12.632
90130W        W58524   2.409  15.847   2.667
90131W        W58525  39.636  29.990   4.702
90132W        W58526  25.720   2.899   1.926
90133W        W58527  20.730  44.885  13.573
90134W        W58528  20.694   1.817   4.226
90135W        W58529  39.622  39.985  13.474
90136W        W58530   4.533  35.812   4.316
90137W        W58531  41.812  37.139  12.319
90138W        W58532   4.841  28.351   3.453
90139W        W58533  22.513  39.061   3.688
90140W        W58534  33.273   6.394  14.359
90141W        W58535  43.340  31.736  10.954
90142W        W58536  11.206  44.800   4.388
90143W        W58537   2.965  42.868  12.575
90144W        W58538  39.676  24.674  13.457
90145W        W58539   2.492   0.606   0.856
90146W        W58540  28.122   1.364   0.893
90147W        W58541  42.837  13.898  10.693
90148W        W58542   5.486  20.185  14.927
90149W        W58543  34.856  32.856   0.952
90150W        W58544   1.703  20.629  11.217
90151W        W58545  33.863  17.485  11.246
90152W        W58546  19.065  37.688  12.016
90153W        W58547  11.233  24.462   2.695
90154W        W58548  34.631  31.899  12.688
90155W        W58549  10.736  37.025   1.215
90156W        W58550   2.286  43.271   1.323
90157W        W58551   8.255  41.501  13.992
90158W        W58552  19.347  44.310   4.727
90159W        W58553  43.756  17.646   0.089
90160W        W58554  26.985  41.809   3.206
90161W        W58555  26.528  43.572   1.416
90162W        W58556  40.227  20.464   4.648
90163W        W58557  27.435  33.855   4.188
90164W        W58558  21.799  19.248  14.348
90165W        W58559  20.198  14.477   4.898
90166W        W58560   4.436  17.550  12.019
90167W        W58561  36.978  12.556  13.352
90168W        W58562  22.323  15.598  13.369
90169W        W58563  34.074  20.336   0.392
90170W        W58564  13.116  11.648   0.400
90171W        W58565  36.005  25.179   3.136
90172W        W58566   3.609  25.247   3.097
90173W        W58567   8.102  25.988   1.216
90174W        W58568  22.140  30.494   3.733
90175W        W58569   2.222  40.304   4.118
90176W        W58570   1.249  23.145   4.360
90177W        W58571  43.801  38.112   5.786
90178W        W58572  20.465  25.144   5.123
90179W        W58573   2.711  23.114  11.286
90180W        W58574  27.989   1.879  12.070
90181W        W58575  15.022  14.323   0.698
90182W        W58576  27.700  14.906   2.667
90183W        W58577  31.116  38.568  10.357
90184W        W58578  30.071  28.402   2.916
90185W        W58579  21.949  19.279  14.985
90186W        W58580  39.967  10.281   3.051
90187W        W58581  17.666  17.349  13.650
90188W        W58582  34.032  16.727   1.024
90189W        W58583  41.185  31.050  12.029
90190W        W58584  42.905   9.817  13.783
90191W        W58585   5.871  30.874   0.545
90192W        W58586  18.762  36.642  14.981
90193W        W58587  27.592   8.256   2.244
90194W        W58588  17.844  13.277  13.769
90195W        W58589  11.365  36.532   0.791
90196W        W58590   9.277  30.588   1.844
90197W        W58591  38.655   8.869  11.996
90198W        W58592  26.978  19.205   2.832
90199W        W58593  24.825  15.932  12.519
90200W        W58594   5.917  31.164   0.970
90201W        W58595   4.149  18.673   0.863
90202W        W58596  19.810  41.869   0.618
90203W        W58597  28.667  17.941  13.513
90204W        W58598  40.548  44.790   3.553
90205W        W58599  31.684  25.131  13.566
90206W        W58600  33.588  37.982  11.008
90207W        W58601  19.999  43.102  10.495
90208W        W58602  33.379   5.172   3.256
90209W        W58603   2.261   3.964  13.973
90210W        W58604  36.037  10.221  10.492
90211W        W58605  22.145   3.443   1.744
90212W        W58606  30.499  36.130  14.491
90213W        W58607  19.658  27.707   1.469
90214W        W58608   5.774  28.884   4.219
90215W        W58609  10.160  35.161  14.008
90216W        W58610  18.013  42.454  13.963
90217W        W58611  43.534  29.076  13.506
90218W        W58612  34.546  24.483   0.746
90219W        W58613  44.859  35.385   4.559
90220W        W58614  15.260  38.580  13.810
90221W        W58615  27.441   7.875  14.748
90222W        W58616  27.177  36.910   4.224
90223W        W58617  19.172  29.422  12.818
90224W        W58618  22.074  19.093  12.594
90225W        W58619  30.071  17.924   4.504
90226W        W58620  30.600  25.026   1.644
90227W        W58621  38.424  40.411   4.364
90228W        W58622  33.830  38.136   0.764
90229W        W58623  44.599   1.042  12.561
90230W        W58624  32.337  35.094   4.333
90231W        W58625  21.717  33.501  13.582
90232W        W58626  28.642   2.939  11.438
90233W        W58627  11.467  11.555  13.002
90234W        W58628  16.315  44.292  11.009
90235W        W58629  14.547  27.114   2.387
90236W        W58630  36.586  40.274  11.202
90237W        W58631  40.490   1.501   3.821
90238W        W58632  30.841  27.554  11.197
90239W        W58633  36.944   4.164  11.960
90240W        W58634  26.127   4.221  14.413
90241W        W58635  27.189  43.825  11.887
90242W        W58636  30.957  39.000  13.865
90243W        W58637  16.507   4.353  13.252
90244W        W58638  30.023   1.268   4.301
90245W        W58639  29.508  22.355  10.677
90246W        W58640  12.629  24.372  13.552
90247W        W58641  14.712  39.233   0.837
90248W        W58642  41.599  14.131   1.940
90249W        W58643  20.690   4.758   1.725
90250W        W58644  20.093  13.634   4.698
90251W        W58645  37.937   8.645   4.314
90252W        W58646  22.447  32.037  10.202
90253W        W58647  41.302  29.972  12.129
90254W        W58648   6.130  34.458  14.881
90255W        W58649  14.694  25.672  14.071
90256W        W58650  18.692  29.484   4.610
90257W        W58651  21.602  25.661  10.890
90258W        W58652   3.456  36.340  11.515
90259W        W58653  36.392   2.912  13.468
90260W        W58654  38.316  20.291   1.325
90261W        W58655  31.141  37.061   1.216
90262W        W58656  19.518  44.410  11.557
90263W        W58657  14.015  18.240  13.389
90264W        W58658  25.704  17.296   3.666
90265W        W58659   5.957  28.673   2.860
90266W        W58660  16.757   0.880   4.992
90267W        W58661   9.745  32.931  12.061
90268W        W58662  18.207   0.902  13.538
90269W        W58663  27.149  40.569  12.629
90270W        W58664  18.962  31.990  11.082
90271W        W58665  29.972  23.988   2.795
90272W        W58666  21.113   6.410  14.690
90273W        W58667   0.942  44.194   0.519
90274W        W58668  13.241  39.070   2.088
90275W        W58669   7.807  13.103   0.538
90276W        W58670  37.846  19.152  14.455
90277W        W58671   9.815   4.113  11.951
90278W        W58672  15.024  33.488   1.181
90279W        W58673  23.409  12.897  12.610
90280W        W58674  14.291   9.157   4.049
90281W        W58675  43.835   6.128   1.856
90282W        W58676  39.947  10.339  12.004
90283W        W58677  16.269  13.812   1.903
90284W        W58678  44.219   8.268  13.449
90285W        W58679  36.837  39.807   4.616
90286W        W58680  12.429  43.417  14.859
90287W        W58681  28.609   6.267   0.848
90288W        W58682  27.671  13.394   0.924
90289W        W58683  34.352   2.748  11.996
90290W        W58684   7.206  15.172   2.300
90291W        W58685  12.534   0.362   3.033
90292W        W58686   8.879  32.256   1.435
90293W        W58687   4.459  25.519  14.898
90294W        W58688  11.351  37.082   3.087
90295W        W58689  44.286  14.131   3.301
90296W        W58690  36.875  39.618   2.342
90297W        W58691   6.780  20.813   0.471
90298W        W58692  14.290  24.359   2.881
90299W        W58693  24.093   7.766   1.538
90300W        W58694  24.023  38.729   4.584
90301W        W58695  27.496  30.596  10.651
90302W        W58696   9.429  10.280   4.720
90303W        W58697  17.546  28.939  11.468
90304W        W58698  15.217  35.818   2.348
90305W        W58699  42.791  40.607  14.250
90306W        W58700  44.438  39.905  12.906
90307W        W58701  38.949  41.906   3.107
90308W        W58702  12.736  24.706  10.762
90309W        W58703  19.410  35.789   5.021
90310W        W58704  36.223  17.270  13.055
90311W        W58705  43.179  20.021   2.346
90312W        W58706  30.005  30.126   3.871
90313W        W58707  44.704  24.932  11.588
90314W        W58708   4.728  25.423   4.089
90315W        W58709  27.953  38.726   5.219
90316W        W58710   5.404  22.484   1.733
90317W        W58711  39.953  33.823  12.395
90318W        W58712  14.869  12.888  14.221
90319W        W58713  35.606  12.876   2.906
90320W        W58714   1.782  25.651   3.694
90321W        W58715  15.672  32.589   1.917
90322W        W58716   6.907   9.417  11.675
90323W        W58717  34.247  21.885   4.111
90324W        W58718  27.682   7.267   2.421
90325W        W58719  15.852  33.073   4.633
90326W        W58720  43.443  42.624  10.724
90327W        W58721  14.842  42.142   1.402
90328W        W58722   7.733  29.157   4.283
90329W        W58723  23.209  16.169  11.091
90330W        W58724  25.868  18.127  13.454
90331W        W58725  31.877   1.244   3.689
90332W        W58726   0.540  28.208   1.706
90333W        W58727  40.767  19.141  14.282
90334W        W58728  33.493  33.120  13.849
90335W        W58729  43.048  29.240   1.715
90336W        W58730   2.663  16.680  13.494
90337W        W58731  29.386  31.369   3.698
90338W        W58732   7.427   1.692   0.717
90339W        W58733  15.281   2.376  13.031
90340W        W58734   1.307  41.430  10.716
90341W        W58735  40.838  40.240  13.049
90342W        W58736   7.775  30.110   1.170
90343W        W58737  23.456  41.711  14.801
90344W        W58738  20.233  38.864   2.707
90345W        W58739  39.801  36.133   2.765
90346W        W58740  22.008  14.695   3.251
90347W        W58741   9.270  21.688   2.379
90348W        W58742  44.436   4.943  11.110
90349W        W58743  23.264  35.708   0.299
90350W        W58744  36.286   7.814   1.154
90351W        W58745  32.492  36.561  11.498
90352W        W58746   8.784  28.178   1.082
90353W        W58747   1.382  30.207  14.088
90354W        W58748  32.918   0.745  11.337
90355W        W58749  32.125  28.170   4.602
90356W        W58750   8.645   6.774  13.516
90357W        W58751  29.449   7.260  12.984
90358W        W58752  41.371  20.551   4.539
90359W        W58753  30.514  34.866   3.030
90360W        W58754  15.006  43.666  11.149
90361W        W58755  20.597   0.060  11.644
90362W        W58756   6.616  40.307   1.734
90363W        W58757  31.005  10.907  13.443
90364W        W58758  17.603   3.120  13.317
90365W        W58759  37.549  34.846  14.565
90366W        W58760  44.492  19.061   1.304
90367W        W58761   8.805  26.107  10.730
90368W        W58762  37.501   3.007  11.619
90369W        W58763  33.841   4.283   2.329
90370W        W58764  32.883   9.360   0.819
90371W        W58765  14.109  12.661  13.638
90372W        W58766  39.410  41.974   4.276
90373W        W58767  27.659  36.003  11.809
90374W        W58768   3.323  11.112  13.483
90375W        W58769  36.447  44.873   3.679
90376W        W58770  24.998   4.949  14.747
90377W        W58771  23.072   0.994   2.204
90378W        W58772  14.793  43.567   4.581
90379W        W58773  35.650  19.538   2.802
90380W        W58774   4.334  42.559  13.079
90381W        W58775   2.457  40.307   1.444
90382W        W58776  23.020   0.670  13.447
90383W        W58777  38.491  16.418  12.003
90384W        W58778  30.251  16.334  13.988
90385W        W58779  29.752   8.410  13.025
90386W        W58780  26.029  37.373  14.821
90387W        W58781  10.236  39.005   3.574
90388W        W58782  21.567  40.440  14.002
90389W        W58783  24.645  21.462   1.889
90390W        W58784   9.548   8.977   2.031
90391W        W58785  35.553   2.908  14.081
90392W        W58786  32.228  10.240   4.671
90393W        W58787  44.950   1.359   2.374
90394W        W58788  22.118  29.130   0.571
90395W        W58789  10.486  14.741  12.994
90396W        W58790   6.712  34.603   2.675
90397W        W58791  38.480  20.926  10.267
90398W        W58792  21.289  25.796   4.192
90399W        W58793  22.167  39.361  10.676
90400W        W58794   4.233  17.688   2.923
90401W        W58795  33.908  34.549  13.616
90402W        W58796  25.190   8.508   1.223
90403W        W58797   8.380  12.676  14.415
90404W        W58798  18.696  11.637  11.495
90405W        W58799  25.983   1.667  12.121
90406W        W58800  42.750  10.621   3.348
90407W        W58801   0.885  38.659   3.401
90408W        W58802  18.193  28.889   1.305
90409W        W58803  31.914   6.475  14.101
90410W        W58804  30.315   4.944  11.564
90411W        W58805  16.835  28.909  13.722
90412W        W58806   2.839  15.339  11.751
90413W        W58807   2.894  44.873   0.654
90414W        W58808   7.331  26.907  13.791
90415W        W58809   9.634  11.914  14.326
90416W        W58810  37.414   4.286   3.611
90417W        W58811  14.875  44.633   1.043
90418W        W58812  14.111  41.001  12.165
90419W        W58813  34.051  43.387   2.592
90420W        W58814  30.367  37.400   3.725
90421W        W58815  14.351  41.719   3.220
90422W        W58816  25.375   0.439   0.189
90423W        W58817  40.621  15.939  13.105
90424W        W58818  30.524  24.406   2.873
90425W        W58819  14.380  44.781  14.294
90426W        W58820  36.459   6.898   0.662
90427W        W58821  11.186  44.676  14.469
90428W        W58822   6.360  24.297  12.340
90429W        W58823  11.753  12.581  11.897
90430W        W58824   8.662  44.424  14.850
90431W        W58825   6.260   0.968   4.197
90432W        W58826   8.659  17.204  14.260
90433W        W58827   7.288   9.736   4.584
90434W        W58828  21.204   8.256  12.020
90435W        W58829  34.970  39.064  11.688
90436W        W58830  22.546  36.364  12.940
90437W        W58831   0.955   6.714  13.937
90438W        W58832  30.980   1.713  10.817
90439W        W58833   8.304  12.621  13.610
90440W        W58834  31.560  17.564   2.869
90441W        W58835  14.034  22.090  13.373
90442W        W58836  30.903  14.263   1.368
90443W        W58837  26.759  12.705  11.134
90444W        W58838  40.895   5.746   1.348
90445W        W58839  23.591  37.698  13.528
90446W        W58840  15.654  40.911   4.601
90447W        W58841  33.034  31.911   1.597
90448W        W58842  25.167   6.647  12.491
90449W        W58843  39.993  17.881  10.751
90450W        W58844   0.298  25.134  12.692
90451W        W58845  26.035  37.281   2.826
90452W        W58846  20.818  28.631  13.962
90453W        W58847  40.171   0.965  14.687
90454W        W58848  41.792  10.196  12.094
90455W        W58849  26.081   8.744  13.110
90456W        W58850  37.787  38.880  13.404
90457W        W58851  26.485  16.765   0.137
90458W        W58852   8.998  23.835   3.202
90459W        W58853  24.581  16.634  12.028
90460W        W58854  19.579  41.543   0.273
90461W        W58855  37.614  25.016  10.637
90462W        W58856   6.930  29.731  11.000
90463W        W58857   4.371  13.289   4.070
90464W        W58858   1.577  17.499  13.774
90465W        W58859   9.013   1.518   4.468
90466W        W58860  43.909  36.385   4.543
90467W        W58861  36.669  31.154  12.433
90468W        W58862  23.339  28.752  13.019
90469W        W58863  30.058  39.378  13.701
90470W        W58864  23.667  33.943  14.937
90471W        W58865   7.172  24.022   2.312
90472W        W58866  27.263   8.356  12.026
90473W        W58867  44.147   6.664  11.139
90474W        W58868  18.477  25.668  13.947
90475W        W58869  24.525  34.415  10.602
90476W        W58870  27.809  34.067   1.896
90477W        W58871   6.513   0.436  11.141
90478W        W58872   0.956   5.777  14.998
90479W        W58873  17.664  26.976   1.302
90480W        W58874  36.891  12.953   2.765
90481W        W58875  25.196  44.951  12.952
90482W        W58876  28.466  19.096  11.950
90483W        W58877  29.146  12.708  14.973
90484W        W58878  38.089  36.143  13.358
90485W        W58879  35.423  21.106   2.103
90486W        W58880  28.437  28.632  13.369
90487W        W58881  28.215   6.159  14.334
90488W        W58882  38.134  39.323  12.066
90489W        W58883  31.521  23.237   2.205
90490W        W58884   7.649  18.086   2.836
90491W        W58885  12.515   2.734   0.291
90492W        W58886  41.351   6.730   4.802
90493W        W58887   9.855  34.777  10.637
90494W        W58888  30.930  28.646   3.803
90495W        W58889  31.590   2.693  11.185
90496W        W58890  40.538   7.109  12.105
90497W        W58891  26.089  17.648  14.372
90498W        W58892  13.765  19.686  14.274
90499W        W58893  15.128  15.626  12.872
90500W        W58894  31.095  43.312   1.217
90501W        W58895  18.313  12.379  14.746
90502W        W58896  17.355  25.083  13.958
90503W        W58897  41.900  36.074   3.567
90504W        W58898  23.875  25.931   0.705
90505W        W58899  19.715  36.152  11.970
90506W        W58900  25.767  19.470   3.376
90507W        W58901  33.487  36.767   0.755
90508W        W58902  42.106  14.088   1.844
90509W        W58903  12.313  14.749   3.412
90510W        W58904  38.233  19.125  13.081
90511W        W58905   6.046   5.109   4.280
90512W        W58906  25.213  37.281   0.395
90513W        W58907   4.439  14.275  10.178
90514W        W58908   1.563  23.536   4.202
90515W        W58909  33.235   4.344  14.311
90516W        W58910  23.714  43.824  12.680
90517W        W58911  32.446  18.656  14.845
90518W        W58912   6.077   3.925  14.921
90519W        W58913  43.965  29.025  11.921
90520W        W58914  21.157  31.271   2.242
90521W        W58915  38.489  37.560   3.656
90522W        W58916  10.307  32.398   1.238
90523W        W58917  14.072  40.494  12.035
90524W        W58918  27.943  42.847   1.492
90525W        W58919  28.991   1.245  11.185
90526W        W58920  17.234  39.337  11.323
90527W        W58921  18.794  28.758  13.408
90528W        W58922  30.109  24.766  13.862
90529W        W58923  31.848  10.654   1.290
90530W        W58924  29.870  16.230  14.782
90531W        W58925   6.928  44.723  14.767
90532W        W58926  17.110  27.487   4.715
90533W        W58927  38.659  23.683  11.557
90534W        W58928  33.137  28.985   0.500
90535W        W58929  35.906  26.378  12.563
90536W        W58930  36.589  19.187  12.514
90537W        W58931   3.793  44.234   1.703
90538W        W58932   8.397  34.410   4.631
90539W        W58933  14.777  43.516  14.458
90540W        W58934  27.452  19.169  11.964
90541W        W58935   1.260  13.207  12.478
90542W        W58936  16.098  35.323  10.314
90543W        W58937  25.801  34.984   0.891
90544W        W58938   8.224  18.218  11.925
90545W        W58939  19.046   6.366  10.487
90546W        W58940  15.931  42.657  11.616
90547W        W58941  10.548  20.770   4.614
90548W        W58942  37.458  20.838  12.939
90549W        W58943   9.144  33.065   2.823
90550W        W58944  39.000  32.430  13.267
90551W        W58945  43.526  25.097   1.247
90552W        W58946  10.881  30.111   0.336
90553W        W58947   6.833  40.777   4.035
90554W        W58948  17.259   1.322  13.321
90555W        W58949  13.257   5.347  11.484
90556W        W58950  13.170  31.947   2.258
90557W        W58951   3.672  29.252  12.543
90558W        W58952  22.509  33.396   4.616
90559W        W58953  21.171  41.611   0.841
90560W        W58954   9.662   8.355  12.412
90561W        W58955  39.093  40.276  11.641
90562W        W58956   4.776  11.036   2.168
90563W        W58957  10.101   5.394  13.850
90564W        W58958  44.411  42.675  13.157
90565W        W58959  15.544  11.684   2.402
90566W        W58960  21.603  19.858   2.949
90567W        W58961  12.701  40.023   1.437
90568W        W58962  14.237  34.991  12.286
90569W        W58963  28.696  19.994  12.033
90570W        W58964  26.744  25.254  12.475
90571W        W58965  33.527   8.198  14.464
90572W        W58966  17.106   9.833   4.181
90573W        W58967  28.604  19.588  12.494
90574W        W58968  42.851  35.698  12.620
90575W        W58969  39.112  23.441   1.439
90576W        W58970  28.995  21.331  13.454
90577W        W58971  36.392  14.406   0.312
90578W        W58972  11.114   3.758   4.535
90579W        W58973  38.471  25.453  14.904
90580W        W58974   5.001   8.098  13.935
90581W        W58975  22.255  24.807  13.308
90582W        W58976  24.528  42.443  11.653
90583W        W58977  44.228  40.581   0.837
90584W        W58978   8.230   1.237   2.281
90585W        W58979  15.005   0.058   4.592
90586W        W58980   4.982  19.792  11.885
90587W        W58981  37.930  30.514  14.799
90588W        W58982   3.733  10.243  13.671
90589W        W58983  15.329  16.357  13.500
90590W        W58984  34.266  25.396  14.402
90591W        W58985  44.239  36.886   3.709
90592W        W58986  44.490  39.884  11.875
90593W        W58987  11.287  44.755   1.319
90594W        W58988   4.308  40.693   3.682
90595W        W58989   9.780  31.174  14.072
90596W        W58990  22.001  21.148  12.701
90597W        W58991  27.329  35.328  11.132
90598W        W58992  24.668  26.902   3.088
90599W        W58993   3.913  20.998  14.805
90600W        W58994  24.228  33.063   1.895
90601W        W58995  26.802  44.494   3.978
90602W        W58996  37.215  40.998   1.487
90603W        W58997  39.160  30.132   4.443
90604W        W58998  41.482  14.275  10.434
90605W        W58999  12.391  32.972   2.611
90606W        W59000  26.504  30.568  12.650
90607W        W59001  30.533  11.257   3.096
90608W        W59002  28.159  16.686   3.108
90609W        W59003   5.287  15.252   1.762
90610W        W59004  41.788  32.275   3.482
90611W        W59005  27.244  20.499   1.362
90612W        W59006   0.130  31.708  13.894
90613W        W59007  37.378  24.101  14.310
90614W        W59008  44.784  17.358  10.862
90615W        W59009  22.836   9.793  11.078
90616W        W59010  18.070   4.874   4.685
90617W        W59011  18.826  15.090  11.486
90618W        W59012  37.997  33.087   3.393
90619W        W59013  20.059  41.834  14.112
90620W        W59014  36.923  15.631   2.154
90621W        W59015  25.632  24.505  11.112
90622W        W59016   5.214   2.179  13.804
90623W        W59017   6.722   1.231   4.204
90624W        W59018  16.605  17.130  12.507
90625W        W59019  33.750  26.583  12.867
90626W        W59020  35.801  22.646   4.484
90627W        W59021  36.598  34.388  11.972
90628W        W59022  22.951  39.069  10.396
90629W        W59023  39.498  41.783  11.216
90630W        W59024  15.639  25.313  14.200
90631W        W59025  25.035  31.258   3.516
90632W        W59026   5.224  28.554   0.018
90633W        W59027  11.920   8.091   0.292
90634W        W59028   9.634  24.472  14.356
90635W        W59029  14.946  15.848   1.402
90636W        W59030   4.464  17.598  14.813
90637W        W59031  36.933  22.771   4.475
90638W        W59032   0.460  35.663  14.513
90639W        W59033   4.661  29.520   4.603
90640W        W59034  11.116  29.427  11.242
90641W        W59035   2.952   7.543   3.264
90642W        W59036  35.875  23.874  14.747
90643W        W59037   9.654   7.461   1.379
90644W        W59038  44.922  17.316  12.576
90645W        W59039   3.950  16.827   3.695
90646W        W59040   6.912  27.274   1.304
90647W        W59041   1.767  26.038   0.690
90648W        W59042  33.828   0.362  10.955
90649W        W59043   9.660   9.775   3.150
90650W        W59044  24.895  40.367  12.920
90651W        W59045  12.750  16.699   4.101
90652W        W59046  29.157  31.137  14.948
90653W        W59047  31.466  13.262   1.342
90654W        W59048  19.104  15.175   1.730
90655W        W59049  31.128  28.521  11.636
90656W        W59050  43.537   5.219   1.210
90657W        W59051  12.240  25.620  10.666
90658W        W59052  33.495  38.217   1.818
90659W        W59053  23.756  19.285  14.461
90660W        W59054  32.114  43.760  10.356
90661W        W59055  27.202   5.284   2.329
90662W        W59056   4.131  25.738  11.567
90663W        W59057  31.138  19.461  12.493
90664W        W59058  33.826  40.843  13.071
90665W        W59059  36.510  41.850   2.889
90666W        W59060  41.679  10.387   2.368
90667W        W59061  36.934  33.789   2.154
90668W        W59062  24.111  25.462  13.629
90669W        W59063  24.729  37.158  14.299
90670W        W59064   2.768  32.697  13.052
90671W        W59065  22.248   8.650  14.981
90672W        W59066   2.880   9.315  11.305
90673W        W59067  22.219  21.703   1.936
90674W        W59068   5.439   0.665  12.959
90675W        W59069  39.093  39.111  12.461
90676W        W59070  39.037  39.712   0.397
90677W        W59071  21.765  12.211   0.935
90678W        W59072  33.359  23.533   0.967
90679W        W59073  24.918  43.335  12.163
90680W        W59074   0.041   9.680  14.957
90681W        W59075  10.250  13.980   3.232
90682W        W59076  31.014  41.051  12.871
90683W        W59077  31.250  11.139  13.025
90684W        W59078   4.251  10.097  14.297
90685W        W59079   3.099  43.825   0.768
90686W        W59080  10.678   2.574  11.975
90687W        W59081  14.361  10.712  12.390
90688W        W59082  23.027  17.843   1.643
90689W        W59083   8.941  14.673  12.403
90690W        W59084  29.661  14.812  12.028
90691W        W59085  29.019  15.580  12.108
90692W        W59086  12.318  40.833  14.321
90693W        W59087  31.101  23.441  11.331
90694W        W59088  33.437  37.737   3.829
90695W        W59089  16.442  11.784   0.908
90696W        W59090  14.050  37.362   0.285
90697W        W59091  15.283   1.467   2.534
90698W        W59092  33.623  40.847   0.800
90699W        W59093  30.020   1.765  11.600
90700W        W59094  17.383   6.511  12.543
90701W        W59095  29.627  24.291   0.993
90702W        W59096   8.244  19.775  11.038
90703W        W59097   9.874  12.738   0.901
90704W        W59098  13.318   5.809  12.891
90705W        W59099  28.799  44.507  10.589
90706W        W59100  37.562  15.166   0.364
90707W        W59101  21.547  43.397   4.576
90708W        W59102   8.365  42.700  13.403
90709W        W59103  34.076  39.076  12.408
90710W        W59104  22.215  14.256  10.704
90711W        W59105  14.535  27.973   4.331
90712W        W59106  23.137  39.096   4.815
90713W        W59107  16.730   3.782  11.565
90714W        W59108  32.272  24.118  14.892
90715W        W59109  11.426  40.044  13.501
90716W        W59110  41.819   7.589  10.248
90717W        W59111  36.504   6.273   2.928
90718W        W59112  33.043  44.910  13.712
90719W        W59113  44.513  25.606  13.432
90720W        W59114   7.892  37.880   4.257
90721W        W59115  42.144  13.304   2.756
90722W        W59116  21.517  14.553  10.680
90723W        W59117  31.231  42.736  13.988
90724W        W59118  27.916   7.718  14.815
90725W        W59119  40.400   5.968   2.785
90726W        W59120  26.361  16.567  12.838
90727W        W59121   5.737  15.074  14.047
90728W        W59122  20.140  28.115   3.283
90729W        W59123  40.881  18.288  11.013
90730W        W59124  34.714  43.508   3.447
90731W        W59125   6.637  41.845  14.308
90732W        W59126  19.594  14.140   4.325
90733W        W59127  23.676  18.955   3.264
90734W        W59128  35.288  14.284  11.332
90735W        W59129   9.751  33.117   4.513
90736W        W59130  33.429   7.298  12.309
90737W        W59131   5.203   2.863  13.401
90738W        W59132  28.027  16.630  13.518
90739W        W59133  33.877   5.334  14.527
90740W        W59134  26.986  41.486   0.269
90741W        W59135  33.485  28.202   3.363
90742W        W59136  36.993  14.605   1.188
90743W        W59137   4.902  23.688   1.367
90744W        W59138  14.020   3.946   3.805
90745W        W59139  20.326   6.462   5.063
90746W        W59140  21.187  20.556  10.582
90747W        W59141   9.971  40.275   0.333
90748W        W59142   1.844  35.827  14.954
90749W        W59143  35.085  18.085  12.068
90750W        W59144  18.740   9.607   0.791
90751W        W59145  24.189  43.142   2.324
90752W        W59146   7.292  44.931   2.161
90753W        W59147  38.569  29.493  14.412
90754W        W59148  16.545   5.817  12.977
90755W        W59149  23.846  14.254  13.975
90756W        W59150  41.589  23.725  13.389
90757W        W59151  16.209  28.946  12.938
90758W        W59152   7.288  28.382  14.987
90759W        W59153   0.799  23.379  13.937
90760W        W59154  43.777  44.772  11.419
90761W        W59155  31.047  11.055   2.264
90762W        W59156  42.260   3.171  14.495
90763W        W59157   0.154  35.741   1.336
90764W        W59158  30.504  37.897  10.495
90765W        W59159   6.642  19.315   3.280
90766W        W59160   8.931  33.710   1.686
90767W        W59161  42.291  40.762   3.284
90768W        W59162  10.884  24.518   0.551
90769W        W59163  44.249  26.489   2.015
90770W        W59164  24.851  24.814  14.665
90771W        W59165  32.586  33.306  13.755
90772W        W59166   4.919  43.303  14.941
90773W        W59167  34.881  32.249  13.498
90774W        W59168  27.170   8.551  11.570
90775W        W59169  10.456  23.119  13.417
90776W        W59170  34.799  25.522   1.972
90777W        W59171  44.040  16.883  11.079
90778W        W59172  11.375  27.702   2.835
90779W        W59173  17.288  38.915  14.816
90780W        W59174  44.445  29.073   3.991
90781W        W59175  33.077  22.606   2.391
90782W        W59176  40.646  33.923   3.259
90783W        W59177  29.491   4.017   4.457
90784W        W59178   7.156  20.694   4.167
90785W        W59179  14.277  32.424   3.047
90786W        W59180   7.282  11.854   3.992
90787W        W59181  14.104  25.879  14.780
90788W        W59182  43.512   1.967   0.755
90789W        W59183  25.303  21.026   1.597
90790W        W59184   2.529  21.164  10.822
90791W        W59185   9.044  18.791   0.753
90792W        W59186  38.250  31.177   1.810
90793W        W59187  18.494  32.922   1.905
90794W        W59188  43.327  26.200  13.146
90795W        W59189   5.917  43.242  11.204
90796W        W59190   3.671  25.505   2.636
90797W        W59191  37.604  15.815   1.382
90798W        W59192  36.264  16.825  12.820
90799W        W59193  32.015  27.338   1.702
90800W        W59194   6.349  26.757  12.847
90801W        W59195  31.951  40.216   2.346
90802W        W59196  39.196  36.742   0.348
90803W        W59197   1.593   0.189  11.409
90804W        W59198   7.738  10.805   4.607
90805W        W59199   3.992  32.137   3.734
90806W        W59200  14.871  19.678   1.721
90807W        W59201  25.088   0.793   0.868
90808W        W59202  32.473  42.958  12.293
90809W        W59203  34.914  11.587   3.749
90810W        W59204   2.371  27.625   3.076
90811W        W59205  13.378  30.618   2.366
90812W        W59206  39.820  35.014   1.662
90813W        W59207  41.773  15.706  14.299
90814W        W59208   0.450   2.229  13.417
90815W        W59209  17.737  16.248   4.977
90816W        W59210   7.373  15.161  11.058
90817W        W59211   6.379  21.314  12.404
90818W        W59212   5.779  21.866   3.980
90819W        W59213   9.446  41.384   2.264
90820W        W59214  34.098   9.382  10.450
90821W        W59215  37.279  29.986  14.171
90822W        W59216  33.190  10.827   2.777
90823W        W59217   2.640   1.268  13.388
90824W        W59218  28.575  39.254  11.143
90825W        W59219   3.019  29.735  12.832
90826W        W59220  27.405   1.784   1.876
90827W        W59221  28.117  39.535  11.094
90828W        W59222   9.541  12.980  14.864
90829W        W59223   6.253  34.638   0.375
90830W        W59224   8.823   7.828   3.366
90831W        W59225   5.261   0.716  12.094
90832W        W59226  24.857   6.723   3.567
90833W        W59227  41.945  36.950   0.458
90834W        W59228  10.840  37.367  13.830
90835W        W59229  43.764   7.810  13.541
90836W        W59230  16.333   2.344   4.615
90837W        W59231   7.735  30.491   4.919
90838W        W59232  30.001   1.031   3.848
90839W        W59233  16.026   8.898  11.957
90840W        W59234  42.842  13.352  14.989
90841W        W59235  31.583  41.560   3.157
90842W        W59236  14.829  32.963   1.955
90843W        W59237  39.305  13.646  12.857
90844W        W59238  12.591  44.710   3.751
90845W        W59239   8.271   8.595   0.968
90846W        W59240  15.835  20.980  10.658
90847W        W59241  35.836  29.883  14.033
90848W        W59242  29.380  35.258  14.468
90849W        W59243  36.055  16.834   2.734
90850W        W59244  44.903  15.080   2.064
90851W        W59245  35.700  40.130   0.664
90852W        W59246  28.437  18.236  13.151
90853W        W59247  16.161   9.269  12.357
90854W        W59248  38.452  17.413   1.808
90855W        W59249  32.015   4.654   3.249
90856W        W59250  38.194  31.421  10.561
90857W        W59251   3.634   3.364  14.052
90858W        W59252  27.178   7.356   5.041
90859W        W59253  35.050  12.783  12.941
90860W        W59254   2.794   9.212  11.800
90861W        W59255  26.736  24.219  11.117
90862W        W59256  15.640   4.961   0.392
90863W        W59257  13.709  14.878  10.967
90864W        W59258  14.537  15.612  14.513
90865W        W59259  35.660  17.420  11.973
90866W        W59260  35.354  16.624  12.042
90867W        W59261  19.700  38.897  11.451
90868W        W59262  10.099   3.568   3.572
90869W        W59263   2.985   7.366  13.572
90870W        W59264  41.435  36.567  14.817
90871W        W59265   5.130  18.192   0.016
90872W        W59266  25.004  36.782   2.362
90873W        W59267  43.755  24.907   2.598
90874W        W59268  35.800  24.512  12.017
90875W        W59269  20.216  31.357  12.723
90876W        W59270  35.807  43.982  14.218
90877W        W59271  15.222  44.351  10.562
90878W        W59272  38.297  22.731   0.928
90879W        W59273  10.296  10.837   4.645
90880W        W59274  18.669  15.834  12.623
90881W        W59275  18.050  44.879   1.993
90882W        W59276   5.177   2.549   2.154
90883W        W59277  40.771  13.704  12.436
90884W        W59278  14.810  44.988  13.849
90885W        W59279  16.913  37.405   9.877
90886W        W59280  30.108  18.065  12.558
90887W        W59281  15.163  33.113   0.409
90888W        W59282  11.603  32.547  12.432
90889W        W59283  42.989  17.602   3.204
90890W        W59284  43.942  24.429   0.873
90891W        W59285  10.269   8.272  13.455
90892W        W59286  14.768  40.582  13.341
90893W        W59287  36.657  31.440  10.693
90894W        W59288  14.775  26.526  12.680
90895W        W59289  27.089  32.482  10.631
90896W        W59290  41.694  17.113   2.304
90897W        W59291  27.023  32.903   1.179
90898W        W59292  22.192  42.894  12.969
90899W        W59293  30.865  28.462  13.397
90900W        W59294  22.090  42.928   0.800
90901W        W59295  16.594  23.931  14.525
90902W        W59296  42.747  44.350  11.999
90903W        W59297  31.092  22.594   4.855
90904W        W59298  27.759  11.670  13.786
90905W        W59299  32.983  24.553  13.575
90906W        W59300  21.178  22.157   3.155
90907W        W59301   9.375  43.008  12.692
90908W        W59302   5.797   0.772   1.515
90909W        W59303  41.062  42.012  14.471
90910W        W59304   2.732   5.878  12.345
90911W        W59305   1.514  22.725  13.951
90912W        W59306  14.670  11.378   2.535
90913W        W59307  42.000  22.602   3.953
90914W        W59308   7.628  11.607  11.292
90915W        W59309  35.826  25.371   1.883
90916W        W59310  19.518  13.287   4.122
90917W        W59311  35.749  11.103   3.790
90918W        W59312  35.843  29.613   0.815
90919W        W59313  19.581  11.934   2.883
90920W        W59314  36.744  24.690  10.691
90921W        W59315  19.823  37.473   2.792
90922W        W59316  36.849  26.146  13.303
90923W        W59317   6.341  44.991  11.288
90924W        W59318  24.481  13.535   2.133
90925W        W59319  39.385   8.820   0.566
90926W        W59320  37.424  39.370  14.108
90927W        W59321   2.471  43.994   0.144
90928W        W59322  35.849  23.314  12.923
90929W        W59323   0.817  22.723   1.389
90930W        W59324  11.584  22.037  13.098
90931W        W59325  10.339   8.664  12.145
90932W        W59326  25.423  19.167   2.116
90933W        W59327  34.641  30.207  12.102
90934W        W59328  19.637  13.565   1.306
90935W        W59329   2.990  41.908   0.475
90936W        W59330  23.902  25.717  14.019
90937W        W59331  28.759  43.892   0.458
90938W        W59332  44.260  23.186  12.914
90939W        W59333   9.665  21.566   2.683
90940W        W59334  35.111   7.157  13.076
90941W        W59335  36.186  44.529   4.157
90942W        W59336  22.000  26.407   1.093
90943W        W59337  26.492  20.116   1.151
90944W        W59338  34.127  24.959  12.023
90945W        W59339  31.934  25.224   3.290
90946W        W59340   7.163  28.713  11.885
90947W        W59341   2.342  20.333  11.878
90948W        W59342  22.761   5.728   3.206
90949W        W59343   7.782   2.363  11.724
90950W        W59344   0.285  22.583   3.269
90951W        W59345  29.458   4.888   2.457
90952W        W59346  31.838  12.465   4.974
90953W        W59347  44.550  19.091  13.948
90954W        W59348  40.533  39.135  14.404
90955W        W59349  29.167  34.915   2.385
90956W        W59350  25.086  38.477   0.258
90957W        W59351  41.647  41.870   4.082
90958W        W59352  29.303   5.948  13.430
90959W        W59353   0.515  29.361   2.803
90960W        W59354  28.619  44.515  14.946
90961W        W59355  18.664  33.864  11.165
90962W        W59356  25.954  36.796  13.102
90963W        W59357  18.259   5.889  11.228
90964W        W59358  39.833  14.597   0.707
90965W        W59359   7.943  38.430  11.665
90966W        W59360  36.088   4.449   3.915
90967W        W59361   3.467   5.338   1.721
90968W        W59362  15.817  33.195  11.035
90969W        W59363  40.094   7.123  14.521
90970W        W59364   0.318  21.923  10.688
90971W        W59365  14.214  29.924  12.384
90972W        W59366  16.137  20.609   3.385
90973W        W59367  44.104  42.343  13.964
90974W        W59368   7.231  20.106  10.556
90975W        W59369  36.077   4.157   4.353
90976W        W59370   3.471   5.473  11.189
90977W        W59371   2.904   2.058  10.391
90978W        W59372  19.142   0.729   0.394
90979W        W59373  22.693  43.745   3.723
90980W        W59374  17.873  19.796   5.491
90981W        W59375  26.310  20.629   2.813
90982W        W59376  38.043  35.556   4.276
90983W        W59377  29.437  36.937  14.729
90984W        W59378   3.249  35.889   3.925
90985W        W59379   7.207  11.218   0.012
90986W        W59380   3.056   4.917   3.783
90987W        W59381  17.619   8.487   2.678
90988W        W59382  25.186  20.824   2.273
90989W        W59383  13.800   3.514   0.084
90990W        W59384  39.341   9.562  12.991
90991W        W59385   2.159  36.102   0.269
90992W        W59386  38.058   8.468  10.707
90993W        W59387  32.159  41.045  14.492
90994W        W59388  29.422  29.403  11.181
90995W        W59389   7.453  37.387  14.341
90996W        W59390  19.892  42.422   0.434
90997W        W59391   4.206  28.972  11.711
90998W        W59392  33.478  32.461  12.172
90999W        W59393  34.459  29.940  14.445
91000W        W59394   0.941  43.831  14.572
91001W        W59395   1.003   9.987  14.976
91002W        W59396  38.929   3.410   0.447
91003W        W59397  36.307  17.781  12.971
91004W        W59398  16.882  35.899   2.535
91005W        W59399  36.301   3.068   4.170
91006W        W59400  43.006  35.677  10.354
91007W        W59401  37.926   6.697   4.923
91008W        W59402  31.904  29.982  10.485
91009W        W59403  33.393   3.526  12.171
91010W        W59404   8.331  15.360  11.367
91011W        W59405  17.333  33.233  14.467
91012W        W59406  22.509  10.336   3.115
91013W        W59407  15.324  32.504  10.486
91014W        W59408   1.753   3.498  10.758
91015W        W59409  32.896  20.197  14.881
91016W        W59410  26.219  39.253  13.144
91017W        W59411  44.145  36.428   2.879
91018W        W59412  39.475   6.153   0.388
91019W        W59413   8.374   4.254  12.567
91020W        W59414   1.261  28.188   3.940
91021W        W59415  39.205  41.067   4.654
91022W        W59416  42.054  44.588  12.669
91023W        W59417  16.233   1.258  14.810
91024W        W59418  21.276  40.384   2.345
91025W        W59419   5.207   7.636  12.275
91026W        W59420  29.994   2.142   2.549
91027W        W59421  41.729  22.117   3.292
91028W        W59422  34.973  43.490   0.358
91029W        W59423   2.219  40.517  13.599
91030W        W59424  32.076   8.198  12.535
91031W        W59425  36.960  37.458  14.878
91032W        W59426   8.710  24.072   3.587
91033W        W59427  35.166  35.781  11.057
91034W        W59428   5.498  20.082   2.613
91035W        W59429  35.417  39.076   3.992
91036W        W59430   0.416   9.369   0.727
91037W        W59431  20.348  30.897  12.511
91038W        W59432  10.236   3.383   0.835
91039W        W59433  29.976  40.005  12.951
91040W        W59434  13.848  36.541   2.243
91041W        W59435  13.131   2.759  13.211
91042W        W59436   5.359  34.086   1.589
91043W        W59437  27.226  38.274  14.414
91044W        W59438  21.044  24.561   2.299
91045W        W59439  14.740  16.850  10.536
91046W        W59440  34.554  18.604   0.559
91047W        W59441  10.115  24.643  14.409
91048W        W59442  35.945   5.945  11.613
91049W        W59443  27.944  40.518  14.370
91050W        W59444  32.226  27.965   0.114
91051W        W59445  27.676  22.472  13.143
91052W        W59446  37.471  37.473   4.481
91053W        W59447   6.210  17.396   4.630
91054W        W59448   4.127  44.293   0.404
91055W        W59449  14.110  13.839   1.865
91056W        W59450  13.809   5.184  14.704
91057W        W59451  32.336  28.853  13.911
91058W        W59452  38.852  30.663  11.533
91059W        W59453  27.668  17.048  13.147
91060W        W59454  23.155   8.245   4.302
91061W        W59455  15.658  37.193   3.409
91062W        W59456  20.601  17.658   3.160
91063W        W59457   7.483  12.714   2.778
91064W        W59458  16.467   2.764  12.495
91065W        W59459  18.437   3.241  11.455
91066W        W59460  33.630  11.375   3.634
91067W        W59461  35.900   6.375   0.386
91068W        W59462   7.674  18.659  13.516
91069W        W59463  13.634  34.832   0.605
91070W        W59464  21.661  35.060   4.202
91071W        W59465  11.711  10.155  14.133
91072W        W59466  27.685   2.406  12.613
91073W        W59467   9.007   0.785   2.974
91074W        W59468  28.236  34.180   2.819
91075W        W59469  30.497   1.222  12.100
91076W        W59470  21.625   0.888  13.956
91077W        W59471  39.991  19.608  10.664
91078W        W59472  28.822   7.781   4.604
91079W        W59473   7.189  13.141  12.050
91080W        W59474  11.419  36.579  14.933
91081W        W59475  12.580  36.682  12.046
91082W        W59476  38.941  42.972   0.304
91083W        W59477  40.701  34.631   1.239
91084W        W59478  37.344  10.733  10.745
91085W        W59479  18.267   9.880   2.745
91086W        W59480   6.197   6.773  12.498
91087W        W59481   6.637  13.224   0.209
91088W        W59482   3.472  22.749  11.891
91089W        W59483  23.152   8.983  14.038
91090W        W59484  38.527  30.543  11.071
91091W        W59485  37.806  40.381   3.652
91092W        W59486  28.540   0.505   1.969
91093W        W59487  28.444  38.271   1.424
91094W        W59488  32.650  38.949   2.319
91095W        W59489  26.415  31.091  12.524
91096W        W59490  29.006  14.216  11.230
91097W        W59491   3.343  43.950  11.954
91098W        W59492  36.601   0.437   4.703
91099W        W59493  16.522  20.024  12.118
91100W        W59494  36.998  35.308  12.908
91101W        W59495   4.795  32.464   0.894
91102W        W59496  36.040  18.580   0.969
91103W        W59497   0.357  15.197   2.325
91104W        W59498  28.060  31.410  13.894
91105W        W59499   6.017  39.272  14.810
91106W        W59500  16.490   4.715   2.013
91107W        W59501  22.629   3.269  11.875
91108W        W59502   1.416  18.619   0.423
91109W        W59503  36.602   8.674  10.213
91110W        W59504  10.382   0.090   3.833
91111W        W59505  37.614  34.042  14.849
91112W        W59506  16.499  16.116   2.863
91113W        W59507   0.943  37.964   0.885
91114W        W59508   4.351  29.383   2.727
91115W        W59509   7.680  26.721  14.401
91116W        W59510  26.462   1.022   0.586
91117W        W59511  44.391  26.530  13.635
91118W        W59512  13.483  42.445   0.523
91119W        W59513  42.446  33.876  10.683
91120W        W59514   2.721   1.897   2.282
91121W        W59515  39.020  18.091   3.686
91122W        W59516  17.459  28.919   0.722
91123W        W59517  27.911  26.269  11.088
91124W        W59518  28.486  15.226   3.362
91125W        W59519   6.884  36.133   2.806
91126W        W59520  17.518  33.968   0.185
91127W        W59521  21.693  18.878   4.248
91128W        W59522  21.779  20.209   1.299
91129W        W59523  10.614   5.643  14.527
91130W        W59524  15.884  16.581  12.437
91131W        W59525  21.715  12.400  13.013
91132W        W59526  13.244   6.223   4.114
91133W        W59527  15.867  37.858  12.855
91134W        W59528  28.457  23.680   3.664
91135W        W59529  33.858   2.498   0.088
91136W        W59530   6.887  43.076  10.843
91137W        W59531  33.923  16.417   4.614
91138W        W59532   4.972  17.642  10.105
91139W        W59533   4.456  13.067  10.983
91140W        W59534   3.713  28.606  13.289
91141W        W59535  26.510  30.188   3.193
91142W        W59536  42.294  22.690  14.186
91143W        W59537  42.241  13.164  11.194
91144W        W59538  44.340  21.101   4.045
91145W        W59539  20.212  10.654   4.646
91146W        W59540  28.712   5.463  13.849
91147W        W59541  41.748  15.495   0.457
91148W        W59542  31.989   3.033   1.968
91149W        W59543  21.127  35.043   1.078
91150W        W59544  26.556  15.124  13.323
91151W        W59545  19.804  18.204  13.051
91152W        W59546  13.691  40.024   2.387
91153W        W59547  32.286  10.935   2.605
91154W        W59548   5.952   9.792   1.404
91155W        W59549  10.656   1.354   3.184
91156W        W59550  40.421  17.273   0.868
91157W        W59551  27.542  43.496  14.328
91158W        W59552  14.683  22.982  12.090
91159W        W59553   9.251  34.808  11.240
91160W        W59554  44.748  17.289  14.087
91161W        W59555   1.576  32.030  12.986
91162W        W59556   6.310   9.769  13.979
91163W        W59557  32.419  18.578  14.315
91164W        W59558  20.248  37.494  10.599
91165W        W59559  39.323  24.271   1.933
91166W        W59560  42.470  27.703  14.682
91167W        W59561   9.826  16.404   1.249
91168W        W59562   6.204  44.775  14.823
91169W        W59563  24.662  37.575  10.676
91170W        W59564   1.974   2.969  14.047
91171W        W59565   2.685  25.674   0.890
91172W        W59566   2.691   6.480  10.970
91173W        W59567  17.809  40.242   3.025
91174W        W59568  39.481  29.879  14.893
91175W        W59569  19.024  44.886  10.517
91176W        W59570   6.412   3.739  14.535
91177W        W59571   3.240  11.682  10.700
91178W        W59572  18.602  36.789   1.023
91179W        W59573  19.012   1.841   3.178
91180W        W59574  33.067   9.119  13.994
91181W        W59575   4.339   5.377  13.892
91182W        W59576  27.939  24.091  13.513
91183W        W59577   7.191   7.880  13.981
91184W        W59578   0.209  34.380   2.132
91185W        W59579  22.724  43.912  12.530
91186W        W59580  38.903  15.746  12.860
91187W        W59581  36.540  37.046   2.572
91188W        W59582  19.613  23.285   1.856
91189W        W59583  42.913  39.585  10.255
91190W        W59584  23.011   0.725   4.159
91191W        W59585   2.500  25.427   4.247
91192W        W59586  31.673   5.348  11.825
91193W        W59587  30.577  40.276  10.808
91194W        W59588   3.931  37.764   5.116
91195W        W59589  28.501  10.646   3.669
91196W        W59590   7.830  22.606  14.243
91197W        W59591  38.681  13.892  13.478
91198W        W59592  16.936  25.471  11.163
91199W        W59593  12.603   4.742  12.588
91200W        W59594   6.145  12.611   4.091
91201W        W59595  37.659  32.956  11.229
91202W        W59596  17.235   5.257  11.991
91203W        W59597  12.433  23.865   1.891
91204W        W59598  24.526  24.132  13.974
91205W        W59599  11.543   4.387   2.658
91206W        W59600  31.603  32.243  14.236
91207W        W59601  32.288  41.708  13.921
91208W        W59602  26.277  22.448   2.496
91209W        W59603   4.854  20.938   0.033
91210W        W59604  16.250  39.641  12.782
91211W        W59605  28.461  22.632  11.663
91212W        W59606  44.065  30.780   0.699
91213W        W59607  21.625  43.403  11.436
91214W        W59608  14.527  43.771  11.356
91215W        W59609  13.681   4.360  14.226
91216W        W59610  10.838  37.008   2.913
91217W        W59611  37.123  38.916  14.097
91218W        W59612  13.744   6.826  14.373
91219W        W59613   3.632   2.009   5.095
91220W        W59614   4.112  37.832   0.043
91221W        W59615  27.430   7.363  14.022
91222W        W59616   1.157  43.551   3.754
91223W        W59617  43.944   9.308  13.459
91224W        W59618   9.639  17.789  14.073
91225W        W59619  37.832  40.342  13.504
91226W        W59620  28.145  20.454   3.324
91227W        W59621  26.628   0.769   2.373
91228W        W59622  38.997  19.613   3.787
91229W        W59623  39.842  39.917  11.928
91230W        W59624   4.733   0.164  11.750
91231W        W59625  19.545  39.390   3.570
91232W        W59626  29.064  15.553   4.118
91233W        W59627  30.057  22.700   4.594
91234W        W59628  21.302   0.244   0.545
91235W        W59629  28.479  39.577   2.601
91236W        W59630   1.053   2.754  12.957
91237W        W59631   6.668  39.834   1.955
91238W        W59632   9.607  14.088   2.681
91239W        W59633  21.979  23.521  11.781
91240W        W59634   7.401  22.140   0.338
91241W        W59635  41.066  38.410   2.602
91242W        W59636  30.084  14.253  12.951
91243W        W59637  21.354  24.132  12.114
91244W        W59638  21.718  40.441  13.513
91245W        W59639  38.941   9.606  13.306
91246W        W59640   3.021  31.910   3.645
91247W        W59641  38.020  31.402  13.513
91248W        W59642  10.770  10.320  11.077
91249W        W59643  37.162  21.855  12.024
91250W        W59644   0.767  32.366   3.038
91251W        W59645   9.217  33.898   4.299
91252W        W59646  16.314  25.485  11.590
91253W        W59647  44.970  23.595   1.507
91254W        W59648  30.247   2.699  11.528
91255W        W59649  23.562  20.559  11.721
91256W        W59650  31.092  17.555   4.573
91257W        W59651   8.306   9.420   0.493
91258W        W59652  37.573   4.433  14.874
91259W        W59653  26.897  17.204   0.887
91260W        W59654  31.634   4.472  14.393
91261W        W59655  10.035   3.877   0.254
91262W        W59656  27.481  17.296   3.287
91263W        W59657  23.035  27.409   0.798
91264W        W59658  44.985   9.798   2.122
91265W        W59659   5.240   7.974   1.849
91266W        W59660  10.111  30.297  11.266
91267W        W59661  41.758  25.463  12.072
91268W        W59662  13.588  37.964  13.870
91269W        W59663  18.646   8.265   1.354
91270W        W59664  30.932  22.547   1.014
91271W        W59665  22.090   1.485   3.161
91272W        W59666   8.410  13.657  12.889
91273W        W59667  40.359  40.600  11.421
91274W        W59668   8.136  41.738  12.160
91275W        W59669   5.815  40.745   1.766
91276W        W59670  12.680  40.786  12.036
91277W        W59671   0.464  32.659   3.867
91278W        W59672  23.574   7.125  11.129
91279W        W59673  21.528  27.750  13.517
91280W        W59674  23.641  41.975   1.661
91281W        W59675  27.078  43.004  10.806
91282W        W59676  11.184  38.976   4.362
91283W        W59677  35.605  38.340  11.606
91284W        W59678  26.499  18.750   1.345
91285W        W59679   9.436  14.084  14.438
91286W        W59680   0.545   7.201  12.344
91287W        W59681  25.252  25.957   1.099
91288W        W59682  25.705  25.892   4.025
91289W        W59683   5.453  23.699  14.225
91290W        W59684  39.825  41.402   0.490
91291W        W59685  31.084  11.283   0.417
91292W        W59686  43.581   2.700   0.198
91293W        W59687   2.743   8.281   0.335
91294W        W59688  20.344   6.182  13.990
91295W        W59689  29.221   5.359  14.506
91296W        W59690  11.212  21.233  10.619
91297W        W59691  27.731  41.305  14.817
91298W        W59692  29.114  26.053   4.312
91299W        W59693  43.985   6.468   2.213
91300W        W59694   9.866  34.180  11.603
91301W        W59695   3.141  13.687   1.950
91302W        W59696  25.722   7.853   2.807
91303W        W59697  43.822  34.554   2.578
91304W        W59698  28.795   9.857   2.303
91305W        W59699  42.788   7.609  10.621
91306W        W59700  16.704  38.012   1.694
91307W        W59701  36.150   3.586   3.533
91308W        W59702   0.846  31.354   3.628
91309W        W59703  10.931  22.093   1.826
91310W        W59704  22.814  11.493   0.012
91311W        W59705   4.746  28.844   3.288
91312W        W59706  29.355  27.928  14.827
91313W        W59707   7.675  39.537   0.377
91314W        W59708  12.965  28.806   2.892
91315W        W59709  31.111  19.521   3.132
91316W        W59710  27.103   9.473  11.699
91317W        W59711  41.314  21.826  14.868
91318W        W59712  37.510  39.505  13.063
91319W        W59713  44.851  29.034   1.801
91320W        W59714   1.703  12.335   4.148
91321W        W59715  44.176  18.675  11.055
91322W        W59716   2.487  10.794   0.940
91323W        W59717  17.302  28.572  10.638
91324W        W59718  31.820  38.846  11.452
91325W        W59719   0.533  37.599  13.380
91326W        W59720   5.170   1.701  10.855
91327W        W59721  41.771   2.944  13.827
91328W        W59722  37.140  18.967  13.966
91329W        W59723  30.032  36.526   1.166
91330W        W59724  14.071  14.303   2.638
91331W        W59725  41.984  10.224  10.741
91332W        W59726   5.125   0.281  13.032
91333W        W59727  27.590  35.308  12.361
91334W        W59728   0.202   2.374  11.438
91335W        W59729  43.602  32.986   2.236
91336W        W59730  44.417  23.633  10.999
91337W        W59731  44.336  18.851   4.255
91338W        W59732  17.037  12.183   2.358
91339W        W59733   6.814  19.734   2.227
91340W        W59734  32.445  36.398  12.542
91341W        W59735  26.781  18.171  11.600
91342W        W59736  39.914  43.900   0.869
91343W        W59737   8.984  16.677   3.477
91344W        W59738  19.678  10.951  11.548
91345W        W59739  15.409  22.001  11.539
91346W        W59740   2.952  12.411  13.614
91347W        W59741  19.199  16.770  12.122
91348W        W59742   5.754  23.376   2.911
91349W        W59743  27.114   0.178   0.032
91350W        W59744  21.440  39.460   2.612
91351W        W59745  37.393  14.724   3.279
91352W        W59746  25.729  37.063   2.257
91353W        W59747   7.734  33.766  13.057
91354W        W59748  10.087  26.079   1.033
91355W        W59749  14.644   1.822  14.062
91356W        W59750  23.612  39.381   3.529
91357W        W59751  27.109  11.059   4.124
91358W        W59752  33.982  39.513  10.231
91359W        W59753  28.153   9.818   1.006
91360W        W59754   6.445  32.970   1.454
91361W        W59755   9.418  25.399   1.405
91362W        W59756  18.407  39.619  14.459
91363W        W59757  33.527  16.818  11.090
91364W        W59758  23.583  24.148  10.473
91365W        W59759   3.973   1.900  12.246
91366W        W59760   4.148  19.950  13.949
91367W        W59761  33.943  12.630   0.981
91368W        W59762  14.354  36.735  13.419
91369W        W59763   5.865  12.968   4.976
91370W        W59764  13.889  44.449  13.823
91371W        W59765  16.333  13.431   2.438
91372W        W59766  30.046  34.025  11.125
91373W        W59767   9.389  15.589  13.475
91374W        W59768  19.947   5.987  12.029
91375W        W59769  13.236   3.188  11.199
91376W        W59770  26.931  12.234  13.351
91377W        W59771   0.525   9.547   3.887
91378W        W59772   5.851  32.354   1.719
91379W        W59773  30.440  21.496   4.115
91380W        W59774  40.735  22.907  12.989
91381W        W59775  16.575  22.984   3.149
91382W        W59776   3.331  17.960  14.933
91383W        W59777  17.127  11.044  14.006
91384W        W59778  33.597  19.275   1.750
91385W        W59779  22.644   3.050  14.035
91386W        W59780  23.933  17.577  11.738
91387W        W59781  29.076  34.662   1.370
91388W        W59782   6.939   7.143  10.700
91389W        W59783  38.479  10.328  10.903
91390W        W59784  17.719  42.798   0.913
91391W        W59785  32.165   4.237   4.859
91392W        W59786   5.321  40.463   4.348
91393W        W59787  24.610   8.680   3.800
91394W        W59788  16.553  14.095  12.062
91395W        W59789  36.541  38.599  12.860
91396W        W59790  11.682  42.527  10.063
91397W        W59791  19.519  25.871   4.596
91398W        W59792   6.098  44.953  13.940
91399W        W59793  18.438   8.617   1.663
91400W        W59794  29.711  29.261   3.847
91401W        W59795  38.414  10.382  12.506
91402W        W59796  19.824  25.757  12.545
91403W        W59797  35.817  10.840   4.228
91404W        W59798  10.646  25.158   3.733
91405W        W59799  20.359   7.139   5.187
91406W        W59800   8.154  23.330   2.322
91407W        W59801  10.095  18.179   2.377
91408W        W59802  39.896  30.843  12.029
91409W        W59803  43.353   6.958   4.320
91410W        W59804  11.277  42.751  11.418
91411W        W59805  13.596   5.971  10.748
91412W        W59806  15.669  19.209  11.432
91413W        W59807  20.066   8.891  12.057
91414W        W59808   4.391  38.625  12.997
91415W        W59809  19.302  10.438  11.001
91416W        W59810   2.039   8.133  13.881
91417W        W59811  42.979   7.857  14.427
91418W        W59812  31.686  20.792   3.718
91419W        W59813  39.001   6.035  14.113
91420W        W59814  41.388   1.167  11.614
91421W        W59815  40.532  33.466  12.991
91422W        W59816  25.532  43.705  13.666
91423W        W59817  23.686   9.403   0.965
91424W        W59818  34.988  16.611  14.345
91425W        W59819   4.827  27.541  11.991
91426W        W59820  22.468   7.836  13.564
91427W        W59821  41.505  32.915   0.910
91428W        W59822  37.491   9.743   3.224
91429W        W59823  12.869  10.229  14.341
91430W        W59824   2.161  38.107   1.768
91431W        W59825  34.632   2.890  12.408
91432W        W59826  29.786  28.411   4.528
91433W        W59827   1.941  35.578   0.402
91434W        W59828  34.003  22.720  12.876
91435W        W59829  27.965  10.832   1.902
91436W        W59830  19.229  40.133   0.423
91437W        W59831   7.692  26.897  10.704
91438W        W59832   7.285  41.314   0.329
91439W        W59833  18.143  33.548  12.191
91440W        W59834  17.579   9.513   2.034
91441W        W59835  24.592  44.020  12.487
91442W        W59836  27.057   5.876  14.863
91443W        W59837  42.380  38.978   2.293
91444W        W59838  24.944  32.449  14.626
91445W        W59839  25.150  24.458  13.761
91446W        W59840  21.132  11.271   0.894
91447W        W59841  30.099  25.707  14.952
91448W        W59842  40.037   0.330  11.115
91449W        W59843   1.906  39.758   4.701
91450W        W59844  17.662  24.530  12.097
91451W        W59845  31.958  28.947   0.397
91452W        W59846  25.218  32.130   4.601
91453W        W59847  12.711  27.753   4.207
91454W        W59848  41.923  28.976   2.669
91455W        W59849  17.648  33.558   0.507
91456W        W59850   3.822  22.805   0.999
91457W        W59851  22.749   8.120   4.634
91458W        W59852  42.395  44.292  12.414
91459W        W59853   2.685  16.254  13.788
91460W        W59854  21.511   3.142   2.014
91461W        W59855  11.662  20.745   2.361
91462W        W59856  33.934  26.963  13.218
91463W        W59857  37.151  14.735   2.576
91464W        W59858  22.011  38.924   3.513
91465W        W59859  37.492   4.224   0.666
91466W        W59860   4.913  43.379  14.093
91467W        W59861  17.211  19.783  13.133
91468W        W59862   2.882  33.451  10.790
91469W        W59863  12.042  17.317   2.670
91470W        W59864  26.220  23.132   3.261
91471W        W59865  37.311  20.719   1.576
91472W        W59866   9.313   9.391   2.940
91473W        W59867  40.081  41.844   1.859
91474W        W59868  21.205  38.810  11.780
91475W        W59869  12.317  11.810  13.560
91476W        W59870  42.887  37.695   2.792
91477W        W59871  33.547  15.895  14.676
91478W        W59872  36.831  30.413  13.072
91479W        W59873  30.939  12.373  13.379
91480W        W59874  31.142   2.228   2.820
91481W        W59875  21.480  13.651  14.390
91482W        W59876   5.335  22.198   4.579
91483W        W59877   4.787  17.182   9.953
91484W        W59878   0.030  42.890  13.996
91485W        W59879  41.339   8.436   4.749
91486W        W59880  12.812  34.955  13.310
91487W        W59881  15.522  17.569   5.079
91488W        W59882  44.827  17.037   2.331
91489W        W59883  30.730  11.156   4.731
91490W        W59884  13.149  27.795   4.495
91491W        W59885   1.480  41.574  12.891
91492W        W59886  40.334  19.823   0.648
91493W        W59887   7.238  21.554  14.091
91494W        W59888  36.979  20.140   0.656
91495W        W59889  44.934  43.452   1.524
91496W        W59890  26.669  22.284   2.831
91497W        W59891  26.426  21.477  12.442
91498W        W59892  36.296  40.301   2.755
91499W        W59893  34.603  38.478  13.312
91500W        W59894  24.263  29.093   0.954
91501W        W59895   7.662   9.168  13.601
91502W        W59896  11.312  37.565  13.128
91503W        W59897  31.367  16.235  13.306
91504W        W59898   2.762   9.742   4.676
91505W        W59899  26.926  44.868  11.086
91506W        W59900   8.143  27.171  12.021
91507W        W59901  11.342   8.729   1.457
91508W        W59902   9.922  31.670   3.249
91509W        W59903  31.010  41.235  13.354
91510W        W59904  32.522  31.765   4.165
91511W        W59905  20.532  24.456  13.766
91512W        W59906   5.636  37.337  11.192
91513W        W59907  26.412  16.833  14.632
91514W        W59908  26.026  12.674   1.259
91515W        W59909  38.066  36.826   4.751
91516W        W59910  31.524   5.473  14.318
91517W        W59911   3.020  41.394   3.245
91518W        W59912  14.658  38.353  13.093
91519W        W59913  42.203  10.948  14.204
91520W        W59914  22.992  11.802   2.745
91521W        W59915   0.305  41.738  14.821
91522W        W59916  27.217  26.599   2.770
91523W        W59917  42.833  20.758  13.785
91524W        W59918  17.819  36.013  13.336
91525W        W59919  11.313  27.638   4.383
91526W        W59920  39.552  12.358   0.253
91527W        W59921   0.784  27.440   3.797
91528W        W59922  43.843  25.524  12.086
91529W        W59923  20.079  18.263  11.620
91530W        W59924  27.629  30.842  11.097
91531W        W59925  40.117   5.610   4.073
91532W        W59926  16.994  26.118   9.963
91533W        W59927  42.501  10.237  10.760
91534W        W59928  12.644  12.784  12.617
91535W        W59929   4.945  42.863  11.125
91536W        W59930  16.791  37.750  12.856
91537W        W59931  17.130  20.848  14.947
91538W        W59932  30.609  22.861   3.297
91539W        W59933  35.859  19.889   2.458
91540W        W59934  26.422  37.412  12.635
91541W        W59935  22.930  17.723  12.037
91542W        W59936   1.556  31.578   0.344
91543W        W59937  37.920  44.299  11.521
91544W        W59938  21.538   5.232  14.039
91545W        W59939  17.079  22.472  12.017
91546W        W59940  37.398  10.390   0.329
91547W        W59941  22.457  40.550   1.211
91548W        W59942  34.491  43.819  13.449
91549W        W59943  30.478  31.645   0.950
91550W        W59944  20.945   0.761  13.795
91551W        W59945  12.860  34.824   1.991
91552W        W59946   9.528  19.712  10.413
91553W        W59947  16.651  21.081  14.103
91554W        W59948  17.111  31.990  11.130
91555W        W59949  42.257  31.841  14.963
91556W        W59950  10.378  15.635  11.572
91557W        W59951  37.863  40.844   4.479
91558W        W59952   6.443  39.089  13.168
91559W        W59953  17.373  17.024  14.022
91560W        W59954   7.912  39.979  12.159
91561W        W59955   2.238   1.798   3.721
91562W        W59956  14.390  24.740   1.855
91563W        W59957  15.730   8.641  12.576
91564W        W59958   5.346   7.134  12.400
91565W        W59959   8.817  16.331   3.045
91566W        W59960   1.353  16.241   3.256
91567W        W59961  39.744  29.948   0.386
91568W        W59962  20.714   3.904  11.069
91569W        W59963   8.164  42.001  13.905
91570W        W59964  32.878  31.545   1.265
91571W        W59965   2.830   5.217   0.241
91572W        W59966  18.580  20.101   1.876
91573W        W59967  30.522   0.670  13.985
91574W        W59968  32.052   1.205   3.174
91575W        W59969  37.446  11.439  11.047
91576W        W59970  19.484  27.505  11.329
91577W        W59971  27.436   3.391   3.793
91578W        W59972   6.220  36.860  12.744
91579W        W59973   0.698  36.630  14.388
91580W        W59974  25.683  16.181   2.325
91581W        W59975  16.749   6.804  14.086
91582W        W59976  32.090  19.575   0.609
91583W        W59977  33.854  38.701   0.697
91584W        W59978  27.677  42.828  11.638
91585W        W59979  31.826  21.471   4.823
91586W        W59980   1.511  24.080  11.580
91587W        W59981  19.568  17.224   1.406
91588W        W59982  41.024  22.674  14.388
91589W        W59983   1.275  21.262   2.263
91590W        W59984  27.143  26.715  11.544
91591W        W59985  35.695  29.730  11.247
91592W        W59986  33.553  20.574  14.403
91593W        W59987   3.749  16.244   4.880
91594W        W59988  23.531   6.252  11.980
91595W        W59989  15.263  33.702  14.316
91596W        W59990   9.977  13.104  12.283
91597W        W59991  34.469  41.978   2.689
91598W        W59992   9.201  12.625   1.510
91599W        W59993  31.656   5.144   0.794
91600W        W59994  41.604  24.471  12.059
91601W        W59995   8.964  41.263   3.153
91602W        W59996   3.667  21.938   4.534
91603W        W59997  31.056  43.618   3.626
91604W        W59998  36.941   8.180  14.467
91605W        W59999  20.242  21.496  13.617
91606W        W60000   1.986  20.445   4.113
91607W        W60001  33.824  11.692  14.559
91608W        W60002  27.737  13.023   1.925
91609W        W60003   2.449  14.211  12.604
91610W        W60004   5.647  37.872   4.136
91611W        W60005  13.810  17.133  11.664
91612W        W60006   5.150   3.241   3.606
91613W        W60007  36.825  44.011  13.419
91614W        W60008   3.519  43.159  13.480
91615W        W60009   0.816  30.968   1.548
91616W        W60010  22.727  38.550  12.528
91617W        W60011  29.441  12.734  12.593
91618W        W60012   4.848   2.037  12.460
91619W        W60013  15.292  11.940   3.683
91620W        W60014  33.945  32.100   0.865
91621W        W60015   8.306  13.626  10.682
91622W        W60016  21.579  35.559   2.294
91623W        W60017  44.247  20.588  13.489
91624W        W60018   8.233  36.837   2.291
91625W        W60019  14.266   9.780   4.629
91626W        W60020  44.935  39.602   0.380
91627W        W60021  25.728   6.205  14.587
91628W        W60022  13.217   9.843   0.394
91629W        W60023  10.411   0.321  14.428
91630W        W60024  29.381  17.681  12.456
91631W        W60025   7.655  39.004   0.430
91632W        W60026  21.613  16.318  13.553
91633W        W60027  10.559  38.663   3.836
91634W        W60028  17.140  12.415  10.718
91635W        W60029  40.498  20.663   1.649
91636W        W60030  26.248  34.974  11.859
91637W        W60031   9.901  19.308   2.608
91638W        W60032   9.932   9.891   1.717
91639W        W60033  40.427  42.844  13.358
91640W        W60034  16.729  16.254   1.264
91641W        W60035  17.670  12.216   0.983
91642W        W60036  20.787  34.445   4.984
91643W        W60037  22.274   7.652  14.965
91644W        W60038  28.412  43.009  14.851
91645W        W60039  25.800  28.135  14.442
91646W        W60040  31.875  35.685   1.928
91647W        W60041  26.011   3.099  11.099
91648W        W60042   3.248  22.253   1.709
91649W        W60043  29.344  29.917  14.556
91650W        W60044  27.111  42.001  11.598
91651W        W60045  14.604   8.433   1.697
91652W        W60046  35.239  15.332  12.360
91653W        W60047  11.471  26.606  12.652
91654W        W60048   1.509  33.755  12.512
91655W        W60049  13.861  14.868   0.503
91656W        W60050  31.150   9.043  12.016
91657W        W60051  30.106  16.071   3.093
91658W        W60052  16.835   9.872   0.407
91659W        W60053   0.439  31.953   0.893
91660W        W60054  27.189   3.314   1.454
91661W        W60055   1.416   1.807   2.904
91662W        W60056  11.704  20.527  14.474
91663W        W60057  41.503  32.209   4.357
91664W        W60058   0.954  16.122  14.400
91665W        W60059  27.611  20.324   2.387
91666W        W60060  36.024  43.885  10.973
91667W        W60061  16.283   5.061  11.643
91668W        W60062  24.592  33.458   3.652
91669W        W60063  31.582  40.657   1.684
91670W        W60064   5.659   2.275  10.634
91671W        W60065  16.052  40.872   1.195
91672W        W60066  18.693   7.171  14.820
91673W        W60067  20.447   1.268  13.135
91674W        W60068  41.625  39.591   3.631
91675W        W60069   2.620  42.857  12.973
91676W        W60070  34.682  24.971   2.071
91677W        W60071   1.185   3.721   3.103
91678W        W60072   5.891   2.661  12.056
91679W        W60073  40.830   0.136  10.590
91680W        W60074  26.554  10.256  12.349
91681W        W60075  29.607  17.120  12.848
91682W        W60076  24.841  30.446  13.253
91683W        W60077  10.729  26.634  11.522
91684W        W60078  11.875  20.272  12.113
91685W        W60079  10.676  21.667  14.070
91686W        W60080  27.693   6.313  13.390
91687W        W60081  33.608  28.416  12.172
91688W        W60082   3.414  17.524   3.066
91689W        W60083  12.726   8.881  14.348
91690W        W60084  27.457  37.218  14.963
91691W        W60085  40.813  28.993  10.457
91692W        W60086   8.992  22.410   2.729
91693W        W60087   5.926   3.896  14.050
91694W        W60088  41.521  21.142   4.910
91695W        W60089  42.359  17.256   4.787
91696W        W60090  20.012  32.566  14.509
91697W        W60091  14.634  19.514  10.570
91698W        W60092  14.141  18.516  10.830
91699W        W60093   7.316  31.893  11.499
91700W        W60094  19.573  12.943  10.723
91701W        W60095  17.128  16.740  13.659
91702W        W60096   2.863   5.048   2.836
91703W        W60097  32.403   0.142   3.735
91704W        W60098  36.191  43.434  13.011
91705W        W60099  10.821  20.329   2.339
91706W        W60100  31.969   0.257   1.117
91707W        W60101  10.670  14.698  12.001
91708W        W60102  10.142  28.595  12.532
91709W        W60103  26.130  20.720   4.171
91710W        W60104  36.312  40.835  12.855
91711W        W60105   2.873   6.763   2.394
91712W        W60106   7.015   0.162   0.905
91713W        W60107   5.651  31.861  14.446
91714W        W60108  14.099  17.221   2.700
91715W        W60109  14.754  18.163   1.878
91716W        W60110   6.869  25.281  14.041
91717W        W60111  21.961  10.159  11.073
91718W        W60112  35.332  18.282   4.293
91719W        W60113   7.358  39.351   3.374
91720W        W60114  30.460  21.666   4.592
91721W        W60115  42.049   0.725   3.161
91722W        W60116   5.445  18.821   0.107
91723W        W60117  32.001  39.985  14.501
91724W        W60118  37.397  36.074  12.902
91725W        W60119   9.612  43.419   0.931
91726W        W60120  37.651  32.677   2.147
91727W        W60121  20.272   7.402  13.470
91728W        W60122  41.795   0.370   0.457
91729W        W60123  39.565   1.702   0.491
91730W        W60124  38.673   1.052   2.670
91731W        W60125  11.890  40.762   1.731
91732W        W60126   0.809  11.889   3.993
91733W        W60127  12.627   0.680  12.060
91734W        W60128  31.057  30.938   4.429
91735W        W60129  32.998  26.919  12.814
91736W        W60130  39.527   4.758  13.402
91737W        W60131   9.323   8.881   2.710
91738W        W60132  29.597  33.394   3.595
91739W        W60133   5.813   2.458   5.418
91740W        W60134  25.484  22.553  14.459
91741W        W60135  28.399  22.359   3.008
91742W        W60136  20.004  22.234   4.913
91743W        W60137  15.740  18.228  14.493
91744W        W60138  41.484  41.813   0.778
91745W        W60139  43.901   5.758  11.870
91746W        W60140  10.762  21.493  10.542
91747W        W60141   2.381  20.772   4.762
91748W        W60142  21.098  20.163  13.013
91749W        W60143  41.246  28.492  12.461
91750W        W60144   2.931  11.630   0.265
91751W        W60145  34.372  41.551  13.285
91752W        W60146  17.002  33.807   1.880
91753W        W60147  17.190  44.477  12.142
91754W        W60148   2.311  17.693   1.684
91755W        W60149  32.642  38.564  10.588
91756W        W60150  39.944  31.154   0.088
91757W        W60151  39.435   2.219   2.359
91758W        W60152  11.429   1.568   5.134
91759W        W60153  16.175  21.734  12.385
91760W        W60154  19.614   4.888   0.873
91761W        W60155   9.565  44.221   1.350
91762W        W60156  32.292  22.136  14.340
91763W        W60157   1.146   3.518   0.154
91764W        W60158   7.488   2.191   2.868
91765W        W60159   7.081  16.014   1.021
91766W        W60160  11.451  26.990  13.940
91767W        W60161  31.464  37.885   0.842
91768W        W60162  27.629  21.454  10.762
91769W        W60163  25.141  14.240   1.087
91770W        W60164   6.184  14.805   2.795
91771W        W60165   1.912  14.652  14.530
91772W        W60166  35.864  20.261  14.335
91773W        W60167  28.624  39.887  13.264
91774W        W60168  41.476  14.160  14.935
91775W        W60169  27.935  19.869   1.456
91776W        W60170  13.649   9.405   1.892
91777W        W60171   7.428  20.700  10.607
91778W        W60172  37.850   0.329  11.556
91779W        W60173  27.036   5.942  10.704
91780W        W60174  19.183  29.102  11.864
91781W        W60175  24.607  16.030   0.584
91782W        W60176  43.118  22.597  11.752
91783W        W60177  42.562  31.158  12.859
91784W        W60178  19.581   2.159   3.642
91785W        W60179   1.322  10.574  11.161
91786W        W60180  33.121   2.776   0.230
91787W        W60181   8.813  12.285  13.819
91788W        W60182   7.010  26.119  14.155
91789W        W60183  15.730  12.119  11.625
91790W        W60184  18.267  32.207  14.555
91791W        W60185  24.693  17.804   3.355
91792W        W60186  29.544  34.259  14.390
91793W        W60187  35.748  25.418  13.726
91794W        W60188   5.219  24.991  11.561
91795W        W60189  28.200  11.990  12.948
91796W        W60190  18.285  30.798  12.150
91797W        W60191  24.601  26.584   3.787
91798W        W60192  28.840   1.671   0.229
91799W        W60193  13.011  15.320  12.072
91800W        W60194  42.975  20.109  13.129
91801W        W60195   4.192   0.859   2.332
91802W        W60196  23.122  20.936   0.812
91803W        W60197  34.529  40.248  12.084
91804W        W60198  37.716  44.373   1.697
91805W        W60199  39.382  41.764  14.050
91806W        W60200  37.394  30.898  11.084
91807W        W60201  40.038  18.094   3.204
91808W        W60202  10.775  44.917   4.134
91809W        W60203  34.139  19.565   0.847
91810W        W60204  28.882  20.081   4.465
91811W        W60205  31.420   0.654   1.851
91812W        W60206  31.324  36.812  14.379
91813W        W60207  25.779  44.868  12.153
91814W        W60208  41.413  36.484  11.570
91815W        W60209  17.175   1.086   3.217
91816W        W60210  14.951   5.397   2.603
91817W        W60211  12.812  32.599   3.645
91818W        W60212  18.078  39.252   1.390
91819W        W60213  10.334  37.032  11.994
91820W        W60214  21.553   4.043   2.311
91821W        W60215  14.020   8.653  13.137
91822W        W60216   4.660  27.873   4.758
91823W        W60217  28.060   4.728  12.088
91824W        W60218  34.820  43.009  13.881
91825W        W60219  34.563  39.625  14.895
91826W        W60220  20.957   7.323   1.204
91827W        W60221  29.171   5.036  12.196
91828W        W60222   8.449  21.232   0.525
91829W        W60223  12.257  21.014   3.788
91830W        W60224  20.307  33.101  12.390
91831W        W60225  31.863  12.999   3.292
91832W        W60226  31.155  38.236  12.334
91833W        W60227  44.370   3.785  12.926
91834W        W60228  32.657  21.328   4.681
91835W        W60229  33.299   1.336  12.446
91836W        W60230  39.226  18.142  10.747
91837W        W60231  27.229   6.935  12.671
91838W        W60232  16.749  44.253   1.211
91839W        W60233  32.863  37.932  14.442
91840W        W60234  16.853   9.201   4.082
91841W        W60235  39.643  24.738  11.145
91842W        W60236  37.396  44.566  10.725
91843W        W60237  23.608  10.756  13.566
91844W        W60238  18.333   2.424  14.981
91845W        W60239  19.956  16.641   0.200
91846W        W60240  37.489   7.748   3.716
91847W        W60241  22.466  20.514  14.603
91848W        W60242  33.610  17.363   0.429
91849W        W60243  13.291   5.251   1.694
91850W        W60244   2.909  35.913   0.740
91851W        W60245  20.629  22.676   1.381
91852W        W60246  41.394  43.590   3.263
91853W        W60247   4.231   6.779   3.724
91854W        W60248   0.090  33.846   0.742
91855W        W60249  30.804  28.924   1.612
91856W        W60250   3.742  28.846   2.915
91857W        W60251  33.860   2.645  11.132
91858W        W60252  44.806  34.484   1.803
91859W        W60253  42.280   8.896   2.785
91860W        W60254  44.243  38.944  11.108
91861W        W60255  11.348   1.790   4.058
91862W        W60256   8.889   9.672   2.829
91863W        W60257   5.985  41.560  11.853
91864W        W60258  32.506  37.025  12.460
91865W        W60259  37.286   6.809  11.958
91866W        W60260  31.213  16.907  12.625
91867W        W60261   9.258  44.012  13.961
91868W        W60262   4.688  38.058  11.542
91869W        W60263  10.307  30.169  14.810
91870W        W60264  33.580  32.588  10.314
91871W        W60265  37.350   8.356   4.570
91872W        W60266  17.792  33.939   2.158
91873W        W60267  17.283  10.690  13.096
91874W        W60268  15.612  18.412   5.277
91875W        W60269  14.141  16.618  12.323
91876W        W60270   1.280  18.764   4.623
91877W        W60271   5.398  17.367  11.359
91878W        W60272   3.438  37.012  13.135
91879W        W60273  40.040  31.102  12.467
91880W        W60274  33.868  18.018   5.117
91881W        W60275  44.052  15.951  12.808
91882W        W60276   2.858  20.089   4.568
91883W        W60277  34.436  35.529  10.685
91884W        W60278  22.262   1.372  11.900
91885W        W60279   5.999  30.681  14.296
91886W        W60280  12.924  41.549  14.249
91887W        W60281  20.263   9.255  13.565
91888W        W60282  26.502  43.792   4.564
91889W        W60283  42.032  34.835   1.816
91890W        W60284  32.815  32.495  14.222
91891W        W60285  10.268  25.968  14.107
91892W        W60286  39.629  38.036   0.567
91893W        W60287  42.421  27.320   3.745
91894W        W60288  41.072  11.372  11.361
91895W        W60289  21.973  29.383  14.685
91896W        W60290  39.933  13.945  10.772
91897W        W60291  21.989  18.920   2.222
91898W        W60292  32.096  19.004   0.638
91899W        W60293  40.516  34.030   3.772
91900W        W60294   2.894  39.729  10.525
91901W        W60295  14.285  17.572  13.908
91902W        W60296   5.209  29.877   0.320
91903W        W60297  42.407  30.142  13.867
91904W        W60298  40.496   3.374   1.200
91905W        W60299  38.098  44.023   1.755
91906W        W60300  23.818  42.583  12.640
91907W        W60301   1.494   7.194   4.323
91908W        W60302  23.978  39.535  11.714
91909W        W60303   5.400  42.991   4.201
91910W        W60304   6.941  30.441   0.268
91911W        W60305  29.168  10.077   3.832
91912W        W60306  11.675  30.036   2.151
91913W        W60307  27.606  22.803   0.064
91914W        W60308  31.439  25.555   1.365
91915W        W60309  30.484  38.498   4.166
91916W        W60310  28.280   4.438  12.460
91917W        W60311  34.557  14.165   3.294
91918W        W60312  11.107  42.335  11.658
91919W        W60313  13.120  22.886   4.177
91920W        W60314  16.670  24.043   1.294
91921W        W60315  41.450  36.977  11.668
91922W        W60316  44.020  42.972   2.384
91923W        W60317   4.123  39.006  10.768
91924W        W60318  10.074  43.019   1.663
91925W        W60319  40.671   9.736   0.386
91926W        W60320  29.654  39.759  11.657
91927W        W60321  23.266   6.474  13.898
91928W        W60322   6.639  33.613  12.471
91929W        W60323   2.524  35.182   0.427
91930W        W60324  22.282  32.564   4.242
91931W        W60325  36.847  40.191   3.482
91932W        W60326  13.233   8.039  11.545
91933W        W60327  41.048   0.502  12.049
91934W        W60328  37.908  17.544   1.847
91935W        W60329   9.542  27.173   5.767
91936W        W60330  30.868  15.408   0.888
91937W        W60331  27.149  38.285   2.739
91938W        W60332  16.972  21.970  11.944
91939W        W60333  36.920  17.704   2.192
91940W        W60334  29.159  36.384   0.871
91941W        W60335  32.620  35.933  13.539
91942W        W60336  42.942  31.989   2.275
91943W        W60337  11.791   9.356   3.158
91944W        W60338  44.204  29.649   1.357
91945W        W60339  30.955  33.847  12.040
91946W        W60340  15.521  41.444   0.025
91947W        W60341   5.195  15.836   3.211
91948W        W60342  26.492  10.831   0.490
91949W        W60343   0.279   8.876   0.488
91950W        W60344  15.145  41.417  11.523
91951W        W60345  13.482  37.154   0.932
91952W        W60346  10.381  43.229  13.853
91953W        W60347  12.682  41.378   1.765
91954W        W60348  33.022  41.449   4.901
91955W        W60349  26.466  42.902  11.987
91956W        W60350  17.253  15.743   2.412
91957W        W60351  21.175  27.369  13.830
91958W        W60352  15.271   0.185   4.161
91959W        W60353  17.306  34.615  10.826
91960W        W60354   2.023  38.451  12.610
91961W        W60355  30.683  26.442   5.046
91962W        W60356   6.800  42.054   0.432
91963W        W60357  23.705  32.678  13.812
91964W        W60358  33.929  12.387  12.355
91965W        W60359  38.880  31.500   2.655
91966W        W60360  12.059  14.864   0.329
91967W        W60361   1.695  14.035  11.966
91968W        W60362  38.046   2.614  13.841
91969W        W60363   0.928   9.471   0.856
91970W        W60364  21.231  21.594   0.283
91971W        W60365  30.979  12.532   3.588
91972W        W60366  10.611   4.462  13.821
91973W        W60367  26.992  21.761   4.530
91974W        W60368  39.848  23.789  14.769
91975W        W60369  29.056  33.072  14.875
91976W        W60370  35.811  14.616  14.294
91977W        W60371   6.392  22.282   4.735
91978W        W60372  24.228   9.421   5.517
91979W        W60373  33.961  19.473  11.618
91980W        W60374  35.338   9.345   2.996
91981W        W60375   0.726  31.184  14.215
91982W        W60376  33.679   4.265  13.332
91983W        W60377  40.307  17.967   4.912
91984W        W60378  23.661  28.573  10.721
91985W        W60379  36.542  30.008   3.287
91986W        W60380  19.086  22.329   4.896
91987W        W60381  25.363  16.600  11.671
91988W        W60382  36.008   7.649  13.937
91989W        W60383  31.129  36.518   1.229
91990W        W60384   1.749   5.726  11.187
91991W        W60385   5.937  37.874  14.805
91992W        W60386   8.977  10.445   4.886
91993W        W60387   8.214   9.690  12.536
91994W        W60388  16.663  43.252   3.168
91995W        W60389   2.791   9.046   2.928
91996W        W60390  10.679  34.398  10.529
91997W        W60391  31.109   6.257   4.084
91998W        W60392   5.847   5.968   4.596
91999W        W60393  32.527  20.140   2.335
92000W        W60394  41.553   8.347   2.904
92001W        W60395   1.684  11.873   1.812
92002W        W60396   5.934   9.310   1.176
92003W        W60397  20.467  24.115   2.132
92004W        W60398  35.774  38.046  12.019
92005W        W60399   8.824  38.808   1.440
92006W        W60400  20.561  16.163   4.587
92007W        W60401  15.517  39.747  11.250
92008W        W60402  11.229  44.726  10.737
92009W        W60403  17.715  13.092  11.921
92010W        W60404  22.637  17.878   1.285
92011W        W60405   6.865   0.389  12.206
92012W        W60406  33.924  25.523   0.440
92013W        W60407  29.829  38.512   4.173
92014W        W60408  22.279   8.611  10.193
92015W        W60409  32.355  14.255  11.565
92016W        W60410   4.870  34.615   0.489
92017W        W60411   0.214  30.833   3.611
92018W        W60412  25.295   2.798  12.905
92019W        W60413   2.219  11.592   4.119
92020W        W60414  34.350   9.812  12.084
92021W        W60415  40.321  30.583  11.830
92022W        W60416  13.237  43.882   3.540
92023W        W60417  43.896   1.134   1.317
92024W        W60418  31.228   3.654   3.865
92025W        W60419  37.452  19.141   0.722
92026W        W60420  12.256  10.103   2.294
92027W        W60421   8.617  18.793  11.537
92028W        W60422  30.682   5.291   0.942
92029W        W60423  14.757  25.475  12.388
92030W        W60424  37.342   4.220  14.462
92031W        W60425   5.745  44.971  10.698
92032W        W60426  39.099  19.448   4.987
92033W        W60427  24.182  43.106   4.614
92034W        W60428  37.001  21.650  11.597
92035W        W60429  24.407  14.212  11.623
92036W        W60430   6.251  23.067  13.046
92037W        W60431  44.032  28.401  13.424
92038W        W60432  32.708  16.569   3.329
92039W        W60433  41.078   5.970  14.904
92040W        W60434  43.359  37.175   0.218
92041W        W60435  17.120   0.370  13.541
92042W        W60436  22.066  43.694  11.470
92043W        W60437   1.520   1.801  11.278
92044W        W60438   8.761   0.006  12.343
92045W        W60439  13.179  35.273  14.286
92046W        W60440  32.059  37.427   4.570
92047W        W60441   2.469  43.032  12.504
92048W        W60442  11.996  25.821   2.152
92049W        W60443  34.232  30.122   2.294
92050W        W60444  34.487  21.861  14.953
92051W        W60445  11.101  30.469   3.044
92052W        W60446  12.110  36.490   4.982
92053W        W60447  22.705  37.992   0.722
92054W        W60448   4.078  28.253  14.548
92055W        W60449   7.180  14.309  12.063
92056W        W60450  35.447  32.123   0.919
92057W        W60451  21.876  32.596  13.117
92058W        W60452  33.345  38.423  13.776
92059W        W60453  22.218  18.634  10.673
92060W        W60454  40.322  22.012  14.341
92061W        W60455  36.060  17.614   1.173
92062W        W60456  30.836   3.799  13.016
92063W        W60457   9.640  41.339  12.330
92064W        W60458  30.915  41.740  13.344
92065W        W60459  20.783  21.739  12.430
92066W        W60460  26.453  17.055   1.114
92067W        W60461  26.535  10.833  14.991
92068W        W60462   7.261  41.282  12.950
92069W        W60463  30.169   0.203   3.322
92070W        W60464   2.481  24.122  10.781
92071W        W60465  41.527  41.528  11.346
92072W        W60466  38.233   4.773  14.361
92073W        W60467  42.992  20.581   4.989
92074W        W60468  38.479  33.414   3.196
92075W        W60469  20.259  18.474   1.381
92076W        W60470  29.006  43.246  10.543
92077W        W60471  27.978   7.115  14.440
92078W        W60472  20.512  19.326  12.390
92079W        W60473   6.744  21.543  12.132
92080W        W60474  29.963  26.694   4.076
92081W        W60475  39.483  28.221   3.821
92082W        W60476  12.667  22.289  10.577
92083W        W60477  39.293  13.654  14.930
92084W        W60478  16.332  19.533  14.820
92085W        W60479   8.296  42.840   0.260
92086W        W60480  44.823   7.722  10.532
92087W        W60481  23.162  22.416  12.879
92088W        W60482   0.388  14.890   1.902
92089W        W60483   0.676  24.464   4.353
92090W        W60484  31.600  35.007   3.827
92091W        W60485  34.877  43.434  11.371
92092W        W60486   6.463   1.350  11.076
92093W        W60487  35.513   4.189  12.663
92094W        W60488  39.906  23.144  13.904
92095W        W60489  21.304  29.523   3.351
92096W        W60490   5.697  32.361  11.198
92097W        W60491   1.488   7.889   3.150
92098W        W60492  30.424  18.030  13.520
92099W        W60493  37.120  37.731  12.476
92100W        W60494  33.652  15.198   4.914
92101W        W60495  18.291   7.414   1.939
92102W        W60496  35.098   8.121   1.757
92103W        W60497  14.510  39.721   5.035
92104W        W60498  18.145  20.626  11.171
92105W        W60499  24.910  42.839   0.938
92106W        W60500   3.393  15.262   1.369
92107W        W60501  32.901   2.684  13.845
92108W        W60502  17.545  12.656   1.213
92109W        W60503  12.107  23.930   0.356
92110W        W60504  42.331   6.663  10.641
92111W        W60505  26.610  31.173  13.837
92112W        W60506  27.119  12.116  14.971
92113W        W60507  43.244  34.898  10.277
92114W        W60508  20.533  11.641  12.899
92115W        W60509  36.049  15.390   2.141
92116W        W60510  24.110  37.787   1.274
92117W        W60511  33.095  33.613   2.339
92118W        W60512   5.989  39.065  11.269
92119W        W60513  20.162  36.871   2.714
92120W        W60514   4.048  14.655   4.171
92121W        W60515  42.129  18.702   1.205
92122W        W60516  16.402   6.632  12.592
92123W        W60517  10.548  14.820  10.657
92124W        W60518  15.417  23.982  11.019
92125W        W60519  42.275   0.946  10.846
92126W        W60520   1.938  21.793   3.228
92127W        W60521  28.892  44.459   1.279
92128W        W60522  21.233  38.897  11.266
92129W        W60523  32.852   8.661   3.384
92130W        W60524   3.229   7.952   4.030
92131W        W60525  32.539  35.456   2.133
92132W        W60526   0.050   2.358   0.804
92133W        W60527  19.652   2.439  12.121
92134W        W60528  19.112  28.950  11.084
92135W        W60529  42.571  42.272   1.208
92136W        W60530  35.349  24.198  11.163
92137W        W60531  15.425   1.513  13.344
92138W        W60532  15.804  11.611   4.620
92139W        W60533  22.492  12.327  13.499
92140W        W60534  25.100  39.300   2.221
92141W        W60535  41.796  29.478  12.619
92142W        W60536   7.812  14.673   4.436
92143W        W60537  35.880  28.956   2.798
92144W        W60538   2.225   2.991  12.025
92145W        W60539  26.099  14.985  13.117
92146W        W60540   3.230  24.543   3.177
92147W        W60541  10.557  19.759  11.195
92148W        W60542  36.358  21.654   1.305
92149W        W60543  44.778   7.438  11.720
92150W        W60544  17.757  28.688   2.161
92151W        W60545  29.095  17.249  12.668
92152W        W60546  29.036   8.279   3.737
92153W        W60547  31.304  15.049  14.972
92154W        W60548  22.519  10.260   1.336
92155W        W60549  39.431  44.361   4.419
92156W        W60550  36.720  42.232  14.710
92157W        W60551  23.581  39.557  14.405
92158W        W60552  22.196  33.650   2.869
92159W        W60553  37.041  16.190   0.739
92160W        W60554   7.231  27.492   4.364
92161W        W60555  39.317  13.671   0.836
92162W        W60556  30.868  19.691   4.621
92163W        W60557  36.216  16.105  12.326
92164W        W60558  20.232  26.672  13.204
92165W        W60559   2.641  36.899   2.412
92166W        W60560  23.512   3.480   0.452
92167W        W60561   3.000   1.851   1.818
92168W        W60562  23.111  39.760  12.865
92169W        W60563  44.784  14.581   0.202
92170W        W60564  21.991  35.922   1.428
92171W        W60565  35.063   0.763   3.247
92172W        W60566  30.102  37.313  12.913
92173W        W60567  31.410  20.196   0.932
92174W        W60568   6.097  27.186  13.020
92175W        W60569   7.141  38.954   1.048
92176W        W60570  26.829  10.150   3.609
92177W        W60571   1.894  18.665  14.535
92178W        W60572  37.562  39.629   0.902
92179W        W60573  43.034  34.154   3.672
92180W        W60574  11.204  26.143  12.639
92181W        W60575  32.011  41.212  10.733
92182W        W60576  32.980   2.889  14.747
92183W        W60577  44.696  21.513  10.361
92184W        W60578  36.679   8.677  11.052
92185W        W60579  16.046  26.002  11.313
92186W        W60580  14.320  36.074  14.753
92187W        W60581  31.222   1.393   4.465
92188W        W60582   6.706  37.389  14.808
92189W        W60583   7.625  10.440   0.669
92190W        W60584   0.295  27.659   0.796
92191W        W60585  28.660   8.263   2.273
92192W        W60586  11.913  36.449  14.826
92193W        W60587  23.259  33.850   3.280
92194W        W60588  16.272  43.148   0.954
92195W        W60589  41.433  29.636  11.501
92196W        W60590  15.155  38.300  11.144
92197W        W60591   7.196  18.661   3.042
92198W        W60592  18.123  37.530   4.929
92199W        W60593  41.260  31.033  13.347
92200W        W60594  38.489   0.696   3.123
92201W        W60595  14.753   4.939  12.425
92202W        W60596  43.822  28.487  11.561
92203W        W60597  41.978  29.148   3.702
92204W        W60598  23.417   8.652   0.973
92205W        W60599   0.781  30.634   0.609
92206W        W60600  31.030   7.403  13.913
92207W        W60601  19.574  36.653   4.669
92208W        W60602  29.242  13.874  13.193
92209W        W60603  21.465  44.896   0.885
92210W        W60604  28.683   0.524   4.508
92211W        W60605  43.756  18.117   3.097
92212W        W60606  24.550   6.693   1.352
92213W        W60607  12.862  18.942   2.389
92214W        W60608   9.318  43.082   1.789
92215W        W60609   6.471  41.477  14.628
92216W        W60610  38.457  12.944   4.066
92217W        W60611  40.438   1.675  10.752
92218W        W60612  10.190   9.439   2.632
92219W        W60613  15.590  44.428  14.619
92220W        W60614  37.585  44.791   1.363
92221W        W60615   0.563   5.916   0.411
92222W        W60616  13.034  44.277   3.147
92223W        W60617  40.944  42.731  14.061
92224W        W60618  14.793   2.677  12.022
92225W        W60619  12.957  18.790  13.182
92226W        W60620  22.651  13.743   1.235
92227W        W60621  37.111  30.095   2.782
92228W        W60622  26.674   1.566   0.731
92229W        W60623  14.255   9.873   1.334
92230W        W60624  38.923  33.684   3.207
92231W        W60625  34.668  41.214  12.030
92232W        W60626   9.378  28.020  11.591
92233W        W60627  29.621  32.544   4.267
92234W        W60628  28.971  31.289   4.662
92235W        W60629   7.859  26.129   1.653
92236W        W60630  13.612  15.532  14.351
92237W        W60631  17.562   1.815  13.905
92238W        W60632  22.489  39.227   4.201
92239W        W60633   0.487  21.745  14.550
92240W        W60634  25.681   7.984   4.659
92241W        W60635  40.271  30.125   1.748
92242W        W60636  42.146  43.313   4.685
92243W        W60637  29.840  12.670  14.497
92244W        W60638   5.000  16.450   4.454
92245W        W60639  36.687  41.492  14.463
92246W        W60640   1.908  29.232   3.597
92247W        W60641   8.979  30.116  13.606
92248W        W60642   6.229  38.080  14.401
92249W        W60643  22.684  27.039  13.234
92250W        W60644  14.169  40.569   4.985
92251W        W60645  27.958  10.411  10.550
92252W        W60646  28.500  15.670   3.068
92253W        W60647  17.747  18.270   1.854
92254W        W60648   6.439  10.188   3.183
92255W        W60649   0.434  28.510  11.662
92256W        W60650  32.255  27.754   2.507
92257W        W60651  24.049  19.540   0.373
92258W        W60652  39.211   6.409   3.021
92259W        W60653   0.550  42.227   0.554
92260W        W60654  39.637   9.310  10.773
92261W        W60655  18.610  39.382   1.813
92262W        W60656  25.491   4.329  12.832
92263W        W60657   7.198   4.974   0.313
92264W        W60658  10.130  24.614   0.819
92265W        W60659   2.046  44.797  14.938
92266W        W60660   0.025  31.720  12.020
92267W        W60661   3.672   1.707   3.378
92268W        W60662  41.622  39.048  14.925
92269W        W60663   6.946  14.528   9.809
92270W        W60664  13.554  35.036   4.413
92271W        W60665   6.770  26.607  11.630
92272W        W60666   3.858   1.956   3.791
92273W        W60667  10.401   7.283  11.277
92274W        W60668   7.703  32.320   0.780
92275W        W60669   1.036  23.607   4.161
92276W        W60670  29.152  36.286  13.771
92277W        W60671   2.945  12.268  13.098
92278W        W60672  15.272   8.262   2.190
92279W        W60673   5.057  16.403   0.212
92280W        W60674  37.214  39.264   4.791
92281W        W60675  13.542  37.314   0.184
92282W        W60676  16.739   6.497   0.607
92283W        W60677  38.071  12.230  12.163
92284W        W60678  28.661  33.093  13.392
92285W        W60679  36.489  35.504  14.793
92286W        W60680  18.303  19.144   2.805
92287W        W60681  31.314  27.884   4.200
92288W        W60682  10.720  15.157   2.947
92289W        W60683  15.272  11.171   0.758
92290W        W60684   2.385  40.164   0.021
92291W        W60685  18.510   9.468  12.148
92292W        W60686   5.912  27.025  12.551
92293W        W60687  36.424  44.359  13.417
92294W        W60688  30.830   2.754  11.783
92295W        W60689   1.878  44.417   4.569
92296W        W60690  26.497  23.384  12.394
92297W        W60691  32.096  32.100  14.048
92298W        W60692  19.459  20.253   5.029
92299W        W60693  14.733  26.092  10.623
92300W        W60694  16.086  23.229   0.482
92301W        W60695  36.883  42.333   0.714
92302W        W60696  40.242  37.020   4.642
92303W        W60697  43.444  37.676   0.349
92304W        W60698  18.076  30.589   1.662
92305W        W60699  41.375  26.200   2.183
92306W        W60700  22.484  18.580   4.468
92307W        W60701   9.790  30.972   1.436
92308W        W60702   0.186  27.673  11.453
92309W        W60703  37.448  33.195   2.725
92310W        W60704   6.112  30.570   4.280
92311W        W60705  11.728  41.325   0.807
92312W        W60706  20.683  27.376  13.487
92313W        W60707   5.408  15.894  11.655
92314W        W60708   7.728  27.176  14.027
92315W        W60709  43.844   0.924  14.858
92316W        W60710   8.248  30.473  11.690
92317W        W60711  10.454  11.238   2.913
92318W        W60712  28.438  22.310   0.483
92319W        W60713   0.800  21.102   3.592
92320W        W60714   2.916  42.994  10.722
92321W        W60715  16.490   4.935  14.980
92322W        W60716  26.068  30.884  11.984
92323W        W60717  36.377  14.924   0.470
92324W        W60718  30.978  21.581   0.250
92325W        W60719   4.176  14.888   1.071
92326W        W60720  34.317  18.673   4.481
92327W        W60721  19.736  14.063   1.322
92328W        W60722   4.367  26.015  13.608
92329W        W60723  41.172   1.870   1.958
92330W        W60724  41.082  40.477  13.469
92331W        W60725  34.941  36.115  13.420
92332W        W60726  13.663  29.635   4.716
92333W        W60727  36.067   6.932   2.830
92334W        W60728  39.548  25.702   2.274
92335W        W60729  28.672  18.688   4.638
92336W        W60730  32.099  22.127  14.836
92337W        W60731  18.723  38.128  14.902
92338W        W60732  41.437   1.514  13.496
92339W        W60733  27.321  21.553  12.784
92340W        W60734  44.831  24.794  13.970
92341W        W60735  21.023  17.742  13.329
92342W        W60736  13.161  25.691   4.566
92343W        W60737   2.041  38.475  11.225
92344W        W60738   4.701  43.772  12.148
92345W        W60739  38.444  23.226  10.697
92346W        W60740  39.119  39.943  12.579
92347W        W60741  13.394  26.374  12.089
92348W        W60742   8.883  32.895  14.209
92349W        W60743  32.815  17.035  14.066
92350W        W60744   4.631  18.010   9.925
92351W        W60745  29.341  34.828   3.263
92352W        W60746  27.131  43.543   2.309
92353W        W60747  36.426  17.181  13.968
92354W        W60748  17.672   0.504   1.328
92355W        W60749  17.110   0.072  14.010
92356W        W60750  10.190   9.935   2.675
92357W        W60751  12.568  35.658  12.188
92358W        W60752  33.041  10.214  11.063
92359W        W60753  11.132  20.158   4.106
92360W        W60754  42.432  41.965  12.886
92361W        W60755   3.339   4.881   3.337
92362W        W60756  18.806  15.847  11.743
92363W        W60757  26.497  41.513   0.402
92364W        W60758   4.756  16.800   3.263
92365W        W60759   6.863  36.473   1.155
92366W        W60760  21.310  18.845   5.100
92367W        W60761  12.367  43.742   4.211
92368W        W60762  29.570  18.745   3.211
92369W        W60763  40.994  39.474  12.237
92370W        W60764  26.003   6.388   3.780
92371W        W60765  25.076  22.878  10.795
92372W        W60766  32.158  40.494   4.574
92373W        W60767  38.611  41.083   2.289
92374W        W60768  15.231  24.435  13.435
92375W        W60769   1.777  42.008   0.430
92376W        W60770  40.751  33.444  11.126
92377W        W60771  40.897  38.573  11.272
92378W        W60772  30.731  15.590   2.752
92379W        W60773  31.690  14.228   0.814
92380W        W60774  44.276  34.355   3.841
92381W        W60775   5.437  37.955  12.538
92382W        W60776  19.066  39.078  14.725
92383W        W60777   1.354  28.906  12.583
92384W        W60778  16.645   8.336   1.280
92385W        W60779  11.665  14.543   0.226
92386W        W60780  42.076   4.189   2.298
92387W        W60781   7.859  37.102   0.956
92388W        W60782  33.187  15.315  12.919
92389W        W60783  39.173  35.524  13.069
92390W        W60784   7.938  10.675  14.864
92391W        W60785  38.052  36.012   3.588
92392W        W60786   1.853  18.839   3.363
92393W        W60787  44.752   7.941   4.121
92394W        W60788  18.762   9.288   1.237
92395W        W60789  37.916  26.581   3.685
92396W        W60790  40.752  10.029  11.283
92397W        W60791  34.863  33.465   1.739
92398W        W60792   4.154  24.012  12.235
92399W        W60793  43.238   3.793  13.795
92400W        W60794  28.124  13.154  12.636
92401W        W60795  28.796  35.053   4.708
92402W        W60796  26.132  40.545  14.885
92403W        W60797  40.638  10.350  14.026
92404W        W60798  21.182  37.376   3.591
92405W        W60799  40.437  38.627   1.876
92406W        W60800  23.694  43.746   0.882
92407W        W60801  27.691  35.507  14.503
92408W        W60802  20.177  39.840   1.720
92409W        W60803  30.426   4.739   4.492
92410W        W60804  32.297   3.913  13.493
92411W        W60805  28.006  11.371  11.641
92412W        W60806  36.144  22.653   0.487
92413W        W60807  37.938   7.922   2.670
92414W        W60808   3.993   1.813  13.504
92415W        W60809  35.165   4.881   5.025
92416W        W60810  40.424  34.439   2.135
92417W        W60811   3.867  29.558   4.118
92418W        W60812  41.406  10.231  13.357
92419W        W60813  31.218   6.800  13.354
92420W        W60814  40.896  25.524  11.700
92421W        W60815  43.514  17.988   2.643
92422W        W60816  30.627  35.586   2.384
92423W        W60817  40.477  30.975   3.342
92424W        W60818  38.954  16.655   3.283
92425W        W60819   7.829  14.253   3.555
92426W        W60820  10.402   5.719   0.478
92427W        W60821  11.911  29.486  12.501
92428W        W60822  12.151  40.325   1.218
92429W        W60823   6.832  44.817   4.322
92430W        W60824   9.122  21.939   3.228
92431W        W60825  13.427   5.627  13.412
92432W        W60826  27.372  41.761   4.155
92433W        W60827  30.406  16.726   0.444
92434W        W60828  32.007  15.550  13.303
92435W        W60829  23.692  41.419  11.625
92436W        W60830  20.212  14.073  13.835
92437W        W60831   6.304  25.380  14.266
92438W        W60832   9.755  12.734  13.032
92439W        W60833  32.387   6.718   1.686
92440W        W60834  39.911  35.937   1.370
92441W        W60835  42.346  36.800  13.569
92442W        W60836  20.147  40.622   1.255
92443W        W60837  12.859  25.534   0.974
92444W        W60838  11.620  41.049  11.597
92445W        W60839   1.822  42.519   1.302
92446W        W60840   3.343  33.959   1.228
92447W        W60841   1.403  24.755   4.223
92448W        W60842  41.058  32.452  13.592
92449W        W60843  18.299  43.348  10.574
92450W        W60844   0.091  26.498   4.368
92451W        W60845  25.910  30.648   2.368
92452W        W60846  44.578   5.897   1.211
92453W        W60847  11.210  34.760  10.698
92454W        W60848  33.301  14.112   3.789
92455W        W60849   2.260   9.206   2.269
92456W        W60850  36.818   5.868   3.560
92457W        W60851  37.564  16.300  14.119
92458W        W60852   0.732  29.974   4.570
92459W        W60853  32.094  31.821   0.439
92460W        W60854  19.344   6.639  14.359
92461W        W60855  17.254  31.874  14.499
92462W        W60856  15.389  19.793   1.688
92463W        W60857  20.329  32.337  13.077
92464W        W60858  26.074  24.963  13.912
92465W        W60859  40.606  13.779   3.770
92466W        W60860  37.704  16.950   4.824
92467W        W60861  35.681  41.287   0.628
92468W        W60862  34.281   0.985   3.690
92469W        W60863  13.126  37.626   3.569
92470W        W60864   1.302  29.107   2.087
92471W        W60865  18.164  20.252   4.693
92472W        W60866   2.751   0.894   2.210
92473W        W60867  34.988  42.319   0.973
92474W        W60868  41.864  24.685  12.436
92475W        W60869  37.861  16.051  11.248
92476W        W60870  23.199  31.842  12.046
92477W        W60871  40.319  14.008  12.056
92478W        W60872  30.184  31.160  10.972
92479W        W60873  18.226  42.737  13.564
92480W        W60874  40.499   0.772  11.524
92481W        W60875  25.919  14.669   0.857
92482W        W60876  36.601   3.881   0.296
92483W        W60877  25.017  35.903  13.586
92484W        W60878  10.485  30.724   2.280
92485W        W60879   0.045  39.323   9.886
92486W        W60880  34.396  13.163  12.499
92487W        W60881  43.285  21.035   4.235
92488W        W60882   9.790  28.666   3.169
92489W        W60883  22.733  37.836   3.998
92490W        W60884  10.163  20.949   1.187
92491W        W60885  39.501  12.224   2.373
92492W        W60886  29.200   2.214  11.076
92493W        W60887  21.934  32.014  13.500
92494W        W60888  36.490  30.658  13.867
92495W        W60889   2.006  43.802  14.960
92496W        W60890   9.287  12.192   2.856
92497W        W60891  44.107  23.417  11.913
92498W        W60892  10.845  16.265   3.329
92499W        W60893  22.643   6.418  10.937
92500W        W60894   2.592  44.033   0.656
92501W        W60895  41.879  17.851  12.818
92502W        W60896  15.541  12.160   1.004
92503W        W60897  39.527  32.052  12.855
92504W        W60898  27.699  18.528   4.718
92505W        W60899   5.368  37.145   0.191
92506W        W60900  13.323  10.285  10.287
92507W        W60901  40.186  35.746  13.113
92508W        W60902   6.713  15.392   3.767
92509W        W60903   8.279  24.054  13.390
92510W        W60904  20.409  21.807   2.247
92511W        W60905  24.593  21.101  14.067
92512W        W60906  25.992  28.914   3.253
92513W        W60907   5.536  25.841  14.358
92514W        W60908   5.629   4.201   2.701
92515W        W60909  43.485  44.713   3.569
92516W        W60910  12.597  16.526  13.099
92517W        W60911   6.687  26.205   5.016
92518W        W60912  14.486  22.704   2.851
92519W        W60913  26.900  41.941   4.123
92520W        W60914   3.166  24.434   2.623
92521W        W60915  20.973  44.063  12.015
92522W        W60916   0.879  28.720  12.439
92523W        W60917  44.061  29.146  12.441
92524W        W60918  38.625  35.598  13.081
92525W        W60919   2.446  36.460   1.024
92526W        W60920  23.186  20.503   2.635
92527W        W60921  42.685  15.042  10.613
92528W        W60922   0.737  44.581  13.517
92529W        W60923  34.960  26.504  13.633
92530W        W60924   8.778  44.328   3.211
92531W        W60925   6.787  32.651   1.732
92532W        W60926  42.963  26.981   0.782
92533W        W60927  41.434  15.057   0.819
92534W        W60928  36.107  18.231   4.644
92535W        W60929  21.173  29.225  14.481
92536W        W60930  21.441  31.426   4.260
92537W        W60931  16.141  23.497   0.944
92538W        W60932  36.437  23.069  12.934
92539W        W60933  30.719  22.233  13.025
92540W        W60934  22.480  32.980   2.648
92541W        W60935  43.700  36.407   3.199
92542W        W60936  38.899  15.897   2.155
92543W        W60937  24.087   8.770   0.445
92544W        W60938   0.762  10.718   3.341
92545W        W60939  23.589   1.490  13.463
92546W        W60940  13.834  34.552   2.177
92547W        W60941  28.557  33.977  11.717
92548W        W60942  32.894  24.871   5.331
92549W        W60943   7.007  24.707  11.542
92550W        W60944  34.309  43.321  10.725
92551W        W60945  22.787  31.153   3.748
92552W        W60946  27.416   4.754  11.107
92553W        W60947   3.333  20.551   3.161
92554W        W60948   8.402  40.058  11.054
92555W        W60949  44.366  30.524  11.511
92556W        W60950  25.986   6.107  12.428
92557W        W60951  21.116  42.954   0.630
92558W        W60952  13.643  31.631  13.982
92559W        W60953   3.184  40.935  13.614
92560W        W60954  11.071  36.866   4.062
92561W        W60955  15.719  10.258  12.868
92562W        W60956  19.739  22.952   2.795
92563W        W60957  13.014   8.338   3.675
92564W        W60958  13.575  37.326  14.435
92565W        W60959  24.854  29.588  10.721
92566W        W60960  32.250  16.926   3.823
92567W        W60961  12.396  13.222  14.796
92568W        W60962  36.257  36.324   2.012
92569W        W60963   7.769  29.471   0.296
92570W        W60964  13.627  10.263   3.102
92571W        W60965  44.409  33.395   5.128
92572W        W60966   0.502  37.946  10.357
92573W        W60967  17.639  28.757   2.993
92574W        W60968  26.424  22.539   5.064
92575W        W60969  12.640  41.015  11.567
92576W        W60970   3.851  21.792   0.362
92577W        W60971  14.724  21.568   1.339
92578W        W60972  11.475   9.901   4.449
92579W        W60973  44.156  28.854  11.452
92580W        W60974  18.518  38.531  12.041
92581W        W60975  29.167  12.039   0.539
92582W        W60976   9.417  39.798  13.779
92583W        W60977  26.416  37.058  13.958
92584W        W60978  20.649  31.600   1.750
92585W        W60979  20.255   0.347  12.048
92586W        W60980   4.861   3.925   1.704
92587W        W60981  14.670  37.260   2.651
92588W        W60982  30.465  33.194   2.340
92589W        W60983  44.017  19.087  13.979
92590W        W60984  40.962  16.041   1.369
92591W        W60985   7.365  15.227   3.264
92592W        W60986  15.404  33.062   4.283
92593W        W60987  24.923  31.127   0.843
92594W        W60988  37.869   6.679  12.966
92595W        W60989  37.304  19.359  11.206
92596W        W60990   3.677  43.227   1.392
92597W        W60991  33.590  44.273   2.344
92598W        W60992  13.069  24.006   4.647
92599W        W60993  23.734   7.131   2.388
92600W        W60994  36.150  40.399  13.087
92601W        W60995  29.540  31.880  11.156
92602W        W60996  42.829   5.873  10.958
92603W        W60997  12.738  33.947  11.836
92604W        W60998  33.086  17.311  10.742
92605W        W60999  32.848  15.575   3.919
92606W        W61000  18.513  42.564   1.359
92607W        W61001  13.201  37.586   2.682
92608W        W61002  42.039  23.970  12.986
92609W        W61003   6.895   3.626   0.517
92610W        W61004   8.569  35.987  14.992
92611W        W61005  39.081  25.860   2.448
92612W        W61006  40.975  36.378   2.073
92613W        W61007  18.638  21.833   4.150
92614W        W61008  29.672  31.174   0.710
92615W        W61009  44.360  20.916   1.286
92616W        W61010  42.907  44.829   4.326
92617W        W61011  43.304  42.526   4.496
92618W        W61012  27.017  26.576   4.887
92619W        W61013  39.524  33.607   0.913
92620W        W61014  18.769   0.350  10.317
92621W        W61015   2.712   8.665   4.151
92622W        W61016  43.399  35.650   4.528
92623W        W61017   7.739  28.669  12.513
92624W        W61018  35.368  23.958  14.928
92625W        W61019  43.266  21.618   3.763
92626W        W61020  30.471   0.879  12.523
92627W        W61021  37.297  13.776   1.323
92628W        W61022  39.228  26.997  12.848
92629W        W61023  43.658  26.008   2.015
92630W        W61024  44.188  11.791   4.525
92631W        W61025  27.656   5.673  12.125
92632W        W61026  14.956  28.608   3.808
92633W        W61027   0.568  39.098  10.626
92634W        W61028  32.758   0.264  11.240
92635W        W61029  37.449   5.976   3.305
92636W        W61030  37.303   6.170  14.272
92637W        W61031  28.359  20.539   0.036
92638W        W61032   8.199  12.248  11.267
92639W        W61033   2.942  10.376   3.093
92640W        W61034   2.512  29.439   4.624
92641W        W61035   0.385  38.104   1.712
92642W        W61036  31.845   9.062  12.557
92643W        W61037  36.529  35.496   2.786
92644W        W61038  34.534  34.629   0.826
92645W        W61039  34.566  32.919   4.076
92646W        W61040  16.146  39.793   4.971
92647W        W61041   6.593  14.570  14.934
92648W        W61042   8.751   9.142   1.714
92649W        W61043   2.145  13.660   2.252
92650W        W61044  12.651   1.825   0.905
92651W        W61045   2.069  32.667   0.941
92652W        W61046  23.044  33.868   0.534
92653W        W61047  42.988  38.426   0.442
92654W        W61048  37.996  15.347  13.049
92655W        W61049  10.293  19.889  12.834
92656W        W61050  29.379  28.101  12.485
92657W        W61051  31.516  37.689  14.517
92658W        W61052  30.948  22.580  14.999
92659W        W61053  41.951  19.307  14.427
92660W        W61054  13.706  24.146   4.000
92661W        W61055  11.701   4.014   2.999
92662W        W61056  26.684   2.813   4.246
92663W        W61057  29.162  33.072   3.660
92664W        W61058   0.832  36.069  11.627
92665W        W61059  18.837   1.419   1.195
92666W        W61060  10.194  37.078   4.063
92667W        W61061   9.786  31.012   3.683
92668W        W61062  11.858  33.684  14.825
92669W        W61063  42.974   9.228   0.463
92670W        W61064   5.800  38.949   4.590
92671W        W61065  34.814  44.262  14.299
92672W        W61066  35.473  26.267   2.418
92673W        W61067  10.660  34.705   0.758
92674W        W61068  35.391  17.199   4.314
92675W        W61069  39.912  24.569   4.498
92676W        W61070  39.974  37.464   4.575
92677W        W61071   7.060  11.378   0.468
92678W        W61072  41.266   9.704   1.335
92679W        W61073  21.611   3.365   0.485
92680W        W61074   0.824  24.053   1.760
92681W        W61075  24.092   3.047  14.851
92682W        W61076  28.555  38.331   4.225
92683W        W61077  15.372  19.779  13.661
92684W        W61078  26.717  32.935  13.679
92685W        W61079  10.191  14.885   4.533
92686W        W61080  10.572  40.435   2.684
92687W        W61081  38.565  25.248   4.504
92688W        W61082  41.623  44.061  10.726
92689W        W61083  13.777  37.178  12.604
92690W        W61084  42.531  21.651  11.189
92691W        W61085  34.040  16.225  14.887
92692W        W61086  43.426  31.016   2.365
92693W        W61087  41.325   7.276   4.725
92694W        W61088  37.445  18.990   4.471
92695W        W61089  27.940  13.234  13.853
92696W        W61090  22.784   6.973  10.074
92697W        W61091   2.600  26.126   1.880
92698W        W61092   5.730  19.779   1.052
92699W        W61093  27.867   5.807  13.390
92700W        W61094  30.049  19.647   1.661
92701W        W61095  24.644   6.275  13.120
92702W        W61096  10.056  17.085  10.630
92703W        W61097   4.985  24.629   1.357
92704W        W61098   2.628  34.112   2.211
92705W        W61099  22.571  26.075   3.335
92706W        W61100   2.474  19.006   4.209
92707W        W61101   2.845  38.309   0.860
92708W        W61102  23.979  24.131   1.334
92709W        W61103  30.688  14.690   2.677
92710W        W61104  11.603  13.323  14.842
92711W        W61105  30.958  24.297   1.843
92712W        W61106   1.713  12.919  10.136
92713W        W61107   8.436  40.473   0.450
92714W        W61108  15.161   2.747   2.709
92715W        W61109  42.525  22.232   2.792
92716W        W61110  23.093  30.207   0.361
92717W        W61111   6.731   3.162  11.148
92718W        W61112  16.680   1.712   3.849
92719W        W61113  15.746  36.894  11.951
92720W        W61114  39.489  13.252   4.531
92721W        W61115  23.399  11.342  11.158
92722W        W61116   3.801  38.325   1.341
92723W        W61117   7.097  17.976   0.494
92724W        W61118  36.088   1.238  10.787
92725W        W61119  39.053   6.265  11.711
92726W        W61120  41.106  16.635   0.372
92727W        W61121  10.638  35.424  12.140
92728W        W61122  29.941   0.907  10.607
92729W        W61123   4.421   3.807   1.902
92730W        W61124  17.233   9.754  14.316
92731W        W61125   6.391  20.254   0.968
92732W        W61126   3.107   2.369  10.757
92733W        W61127   0.496  36.890   2.131
92734W        W61128  11.460  32.073   0.859
92735W        W61129  30.129  12.948  10.726
92736W        W61130  10.166   6.758  11.952
92737W        W61131  10.719  26.361  10.009
92738W        W61132  23.551  35.476  14.050
92739W        W61133  12.993   7.656  13.209
92740W        W61134  14.304   2.284   1.007
92741W        W61135  21.618  15.814   3.293
92742W        W61136   2.051  23.016  13.273
92743W        W61137  34.435  42.435  11.582
92744W        W61138   6.242  44.781  13.472
92745W        W61139  31.110  25.953   3.012
92746W        W61140   4.502   7.104  12.224
92747W        W61141  33.245   1.395  14.336
92748W        W61142  29.976  39.494   0.943
92749W        W61143   6.636  35.723  13.123
92750W        W61144  36.996   0.809   0.867
92751W        W61145  38.066  41.506   4.567
92752W        W61146  10.098   3.553  14.335
92753W        W61147  31.922  40.262   0.437
92754W        W61148  17.944   7.968  14.750
92755W        W61149  33.871  24.212  13.621
92756W        W61150  43.716  20.138  11.629
92757W        W61151   7.833   3.345   2.804
92758W        W61152  20.499  37.749   4.127
92759W        W61153  18.344  20.578  10.683
92760W        W61154  24.967  27.170   1.538
92761W        W61155  44.168  17.847  11.162
92762W        W61156  25.089  18.346   4.143
92763W        W61157  14.701   8.723   3.300
92764W        W61158  27.787  25.090  11.523
92765W        W61159  44.801  16.514   2.219
92766W        W61160  23.171  10.714   1.931
92767W        W61161  12.472  18.584   2.365
92768W        W61162  23.576  34.005  12.442
92769W        W61163  19.219  19.855  13.502
92770W        W61164   8.291  15.557   4.625
92771W        W61165  40.759  41.740   3.721
92772W        W61166  27.434  25.521  11.608
92773W        W61167  28.192  36.585   1.670
92774W        W61168  39.555  37.001   2.852
92775W        W61169   5.217  41.947  12.176
92776W        W61170  15.805  11.572  12.440
92777W        W61171   9.715  36.091   2.380
92778W        W61172  44.950  37.074   2.978
92779W        W61173   1.837  14.339  13.232
92780W        W61174  30.437  13.338  10.903
92781W        W61175  10.884  19.728   0.293
92782W        W61176  24.066   1.038  14.942
92783W        W61177  22.025  43.275  12.692
92784W        W61178  42.518  18.867   0.374
92785W        W61179  12.017  21.898  12.376
92786W        W61180  38.919  20.780   9.833
92787W        W61181  41.525  25.941  13.828
92788W        W61182  44.987   1.564  10.607
92789W        W61183   4.478  36.547  14.455
92790W        W61184  13.208  41.563   0.823
92791W        W61185  43.825  33.674   1.461
92792W        W61186  15.459  36.899  10.185
92793W        W61187   0.694  22.460  14.930
92794W        W61188  15.053   8.625   1.888
92795W        W61189  35.022  34.516  14.378
92796W        W61190  36.824   5.216  14.994
92797W        W61191   8.591  17.687   2.668
92798W        W61192  34.534  41.079  14.683
92799W        W61193  32.019  29.380   0.141
92800W        W61194   4.319  11.764  10.689
92801W        W61195  41.838  17.844   1.859
92802W        W61196  21.603  35.880   0.107
92803W        W61197  43.245   9.762  10.567
92804W        W61198   1.935  10.114   2.678
92805W        W61199   9.758  40.508   2.408
92806W        W61200  38.900  37.717   0.436
92807W        W61201  20.248  39.296   0.905
92808W        W61202  35.127  16.542   2.296
92809W        W61203   9.484  27.875   1.503
92810W        W61204  12.342  22.405  12.440
92811W        W61205  38.107  23.135  13.845
92812W        W61206  29.963  12.952   2.350
92813W        W61207  41.951   7.207  14.038
92814W        W61208  14.613   8.398   4.547
92815W        W61209  23.601  38.563  12.857
92816W        W61210  15.806  31.637   2.447
92817W        W61211  44.101   8.863   3.296
92818W        W61212  15.069   8.571  14.028
92819W        W61213  19.863   5.204  14.120
92820W        W61214  18.411  44.384   0.755
92821W        W61215  17.747  29.897  13.605
92822W        W61216  27.261  41.663   5.512
92823W        W61217  20.739  14.711  11.005
92824W        W61218  29.486  29.562   3.231
92825W        W61219  41.729  37.478   3.088
92826W        W61220  21.319  36.153  13.462
92827W        W61221  20.809  17.258  13.831
92828W        W61222  20.109  33.985  14.716
92829W        W61223   3.190  15.800  13.540
92830W        W61224  20.611  16.682  12.505
92831W        W61225  30.707  11.585  12.432
92832W        W61226   9.214  32.842  11.949
92833W        W61227   9.839  23.718   3.653
92834W        W61228  43.270  12.374  13.110
92835W        W61229  23.357   9.728   2.716
92836W        W61230   9.360  33.037  12.393
92837W        W61231  36.126  32.915   1.389
92838W        W61232  23.163  40.455  10.787
92839W        W61233  22.990  14.875   2.886
92840W        W61234  22.173  13.881  14.894
92841W        W61235  25.241  38.224  11.069
92842W        W61236  25.932  33.428  13.377
92843W        W61237  29.055  33.995  13.454
92844W        W61238  11.480  18.604   1.458
92845W        W61239  30.389  18.187   1.299
92846W        W61240  43.878  16.446   2.205
92847W        W61241   2.915  12.516   3.243
92848W        W61242  33.796   0.391   1.142
92849W        W61243  11.534   3.481   0.625
92850W        W61244  22.274   1.783  12.940
92851W        W61245  33.992  31.816  10.461
92852W        W61246  18.083  25.376   2.191
92853W        W61247  25.043  24.246   3.850
92854W        W61248  14.354  16.558   0.004
92855W        W61249  13.677  32.988   4.786
92856W        W61250  29.740   0.415  13.046
92857W        W61251  12.087  26.081  13.643
92858W        W61252  31.529  27.509   1.498
92859W        W61253  35.998  38.379  11.270
92860W        W61254   6.909  24.217  11.670
92861W        W61255  16.183  27.118   0.391
92862W        W61256   7.141  32.579  14.481
92863W        W61257  10.367  36.066  14.086
92864W        W61258  27.920  18.580   0.567
92865W        W61259  43.385  25.263  12.062
92866W        W61260  39.040  31.065  10.741
92867W        W61261  14.335  18.027   2.131
92868W        W61262  22.126  20.224  10.738
92869W        W61263  25.428   2.695  13.406
92870W        W61264  23.915  37.997   0.365
92871W        W61265  16.747   6.242  12.536
92872W        W61266  17.696  38.090   0.852
92873W        W61267  14.136  13.849  11.478
92874W        W61268  29.196   9.633   4.114
92875W        W61269   1.395  28.443   2.719
92876W        W61270   8.418  30.191  14.992
92877W        W61271  24.575  19.752  12.571
92878W        W61272  30.235  17.557   4.158
92879W        W61273   5.341   3.443  14.010
92880W        W61274   0.350  38.921   3.415
92881W        W61275  33.458   7.370   3.053
92882W        W61276  30.108  40.718  13.501
92883W        W61277  13.330  26.985  10.663
92884W        W61278   9.266  41.351  10.683
92885W        W61279  21.586  44.458   3.271
92886W        W61280  44.914  14.418   3.973
92887W        W61281  10.200  29.030  10.799
92888W        W61282  39.988  24.831  12.485
92889W        W61283  34.060  35.463   0.819
92890W        W61284  24.999  44.819  12.490
92891W        W61285  42.609  12.175   4.560
92892W        W61286   8.290  33.428  13.822
92893W        W61287  27.515  42.672  14.778
92894W        W61288   2.927   6.687  12.307
92895W        W61289   9.545  39.959   4.118
92896W        W61290  34.021   4.893  14.976
92897W        W61291  32.394   5.182   2.644
92898W        W61292  19.752  27.516  14.791
92899W        W61293  41.765  17.349   4.123
92900W        W61294   3.037  27.149  14.689
92901W        W61295  19.118  35.178  12.021
92902W        W61296  26.000  21.542   2.611
92903W        W61297   9.369  12.814  13.387
92904W        W61298  27.470   9.219   4.333
92905W        W61299  39.076   5.867   2.721
92906W        W61300   4.154   3.156   5.010
92907W        W61301  16.297  11.707   1.840
92908W        W61302  13.678  11.411  13.468
92909W        W61303   4.294   1.826  13.072
92910W        W61304  16.706  39.726   1.226
92911W        W61305  42.339  38.518   2.910
92912W        W61306  22.865  31.246   0.653
92913W        W61307  10.851  17.423  14.061
92914W        W61308  20.904  34.929  12.867
92915W        W61309  26.441  33.892  12.350
92916W        W61310   1.171  18.684   0.886
92917W        W61311  28.441  19.074   3.725
92918W        W61312  28.648  28.519  14.405
92919W        W61313  23.658  21.180   3.014
92920W        W61314  28.908  25.410  11.130
92921W        W61315  21.030  33.820  10.621
92922W        W61316  26.754  34.165  11.998
92923W        W61317  15.726  25.908   3.162
92924W        W61318  37.046  39.050  10.720
92925W        W61319  25.518  19.999  12.552
92926W        W61320  40.939  13.664  14.030
92927W        W61321  14.816   7.891   3.858
92928W        W61322  44.440   8.440   3.225
92929W        W61323  31.307  42.403  12.441
92930W        W61324  36.054   3.870   2.035
92931W        W61325  30.673  27.048  12.916
92932W        W61326  39.047  40.669   4.950
92933W        W61327  16.579  12.830  13.491
92934W        W61328  35.059  43.452   4.467
92935W        W61329  38.823  36.051  10.528
92936W        W61330  39.285  12.384  11.314
92937W        W61331  15.019  38.299   9.787
92938W        W61332   6.751  26.552   5.434
92939W        W61333  37.665   3.249  14.605
92940W        W61334   0.195   7.941  13.070
92941W        W61335  37.823  34.892  12.002
92942W        W61336  14.578  35.257   1.740
92943W        W61337  31.226  33.398  11.203
92944W        W61338   7.648   3.702  12.270
92945W        W61339  28.340   3.729   4.758
92946W        W61340   2.805   7.774   4.248
92947W        W61341  43.140   6.405  10.249
92948W        W61342  34.517  21.294  10.449
92949W        W61343  28.158  38.454  12.614
92950W        W61344  25.035  24.132  12.121
92951W        W61345  15.686  37.280   4.231
92952W        W61346  35.534   3.400  10.569
92953W        W61347   7.599  40.942   2.254
92954W        W61348  12.204  17.803  12.732
92955W        W61349   1.782   4.734   3.922
92956W        W61350  33.971  32.035   3.909
92957W        W61351  13.524  30.126   1.326
92958W        W61352  44.838  22.121  14.303
92959W        W61353  33.680  33.479   3.720
92960W        W61354  33.027   5.307  12.082
92961W        W61355   4.335   3.015   1.423
92962W        W61356  32.742  16.814   4.338
92963W        W61357  29.669  11.091  10.578
92964W        W61358  15.539   6.705  11.680
92965W        W61359  29.455   0.283   4.056
92966W        W61360  12.208  37.922   4.262
92967W        W61361  14.880   9.222  14.781
92968W        W61362  18.067   0.430  13.791
92969W        W61363  10.685   8.345  14.784
92970W        W61364  36.126   0.517   2.735
92971W        W61365  39.928  43.393  13.976
92972W        W61366  21.538  35.438   4.649
92973W        W61367   3.329  11.625  13.431
92974W        W61368  40.207  25.894  13.509
92975W        W61369  38.813  44.504   0.280
92976W        W61370  23.431  12.325  11.474
92977W        W61371  35.069  36.815  13.868
92978W        W61372  20.298  42.431  12.132
92979W        W61373  27.923  31.926   0.331
92980W        W61374  27.592   7.811  12.887
92981W        W61375  43.481   5.654  13.639
92982W        W61376   5.473  42.955  11.155
92983W        W61377  31.620  35.961   0.508
92984W        W61378  39.380  41.205   2.728
92985W        W61379  44.530  24.697  13.559
92986W        W61380  40.510  15.441   0.735
92987W        W61381   7.149  33.960   3.005
92988W        W61382   9.670  35.950  13.383
92989W        W61383  17.832   9.906   0.559
92990W        W61384  33.142  34.088   4.137
92991W        W61385  12.579  14.366   1.723
92992W        W61386   0.526  20.673   3.635
92993W        W61387   0.856  30.874   0.091
92994W        W61388   7.430  39.568  10.704
92995W        W61389  26.596  40.062  12.017
92996W        W61390  17.980  39.976  12.407
92997W        W61391  31.570  14.623  12.486
92998W        W61392  33.429  12.291  11.150
92999W        W61393  20.226  17.112  14.503
93000W        W61394  33.672  28.663   2.560
93001W        W61395  18.927  37.688   4.998
93002W        W61396   7.481   2.271   1.760
93003W        W61397  20.628   7.323   0.386
93004W        W61398  30.414  28.251   4.562
93005W        W61399   9.538  27.571   0.226
93006W        W61400  17.505  35.083  12.988
93007W        W61401   6.318  31.510   3.046
93008W        W61402  33.161  38.040  13.503
93009W        W61403  19.341   7.449  13.588
93010W        W61404  11.319  20.005   0.302
93011W        W61405  43.307   6.333  11.514
93012W        W61406  35.169  12.588   3.863
93013W        W61407  15.288   9.459  10.027
93014W        W61408  10.714  39.882   0.728
93015W        W61409  31.634  28.606  11.587
93016W        W61410  25.727   5.928  12.879
93017W        W61411  27.129  23.002   0.029
93018W        W61412  10.809  40.949  13.556
93019W        W61413  39.389   8.111   3.393
93020W        W61414  11.904   3.601  14.941
93021W        W61415  44.003  20.695  12.458
93022W        W61416   2.308  22.802  12.879
93023W        W61417  18.460  13.846   5.120
93024W        W61418  10.613  16.603   3.039
93025W        W61419   6.186   5.867  14.725
93026W        W61420  34.488  40.849   2.757
93027W        W61421   4.845  35.614  12.257
93028W        W61422  21.212  43.055  12.102
93029W        W61423  44.778  38.969  10.194
93030W        W61424  20.669  18.241  11.639
93031W        W61425   0.187  29.001  11.584
93032W        W61426  44.969  17.225   2.865
93033W        W61427  25.555  16.661  14.726
93034W        W61428   7.167   3.968   2.542
93035W        W61429  27.537  21.120   3.691
93036W        W61430  16.031  39.371  13.524
93037W        W61431  16.037   4.149  12.438
93038W        W61432  34.405  39.328  11.035
93039W        W61433  31.826  14.185  12.459
93040W        W61434  17.136  34.115  11.981
93041W        W61435   4.751  22.052  13.976
93042W        W61436  35.951  15.582  11.632
93043W        W61437  23.380  26.174  13.297
93044W        W61438   5.596  27.662  14.084
93045W        W61439  15.248   6.842  14.449
93046W        W61440  32.180  39.554  13.388
93047W        W61441  26.101   0.083  11.252
93048W        W61442  30.722  25.988   2.049
93049W        W61443  26.469   4.658  14.899
93050W        W61444  23.260  22.790   3.518
93051W        W61445  26.056   8.214  11.231
93052W        W61446  13.874   6.743   2.885
93053W        W61447  44.908  30.169   1.240
93054W        W61448  11.238  13.973   1.419
93055W        W61449  18.524   0.233  13.779
93056W        W61450   7.584  30.013  13.534
93057W        W61451   9.340  14.475  11.652
93058W        W61452  19.145  25.999   4.968
93059W        W61453  19.391  29.566  11.799
93060W        W61454  43.357  14.748  12.736
93061W        W61455   1.286  30.442  11.944
93062W        W61456   7.242   1.695  13.788
93063W        W61457  33.946  34.368  14.117
93064W        W61458  17.007  40.810   3.277
93065W        W61459   8.273  15.750  10.492
93066W        W61460  28.085  11.658   4.090
93067W        W61461  12.555  44.052   0.745
93068W        W61462  35.304  24.504  12.012
93069W        W61463  26.985  10.017   4.074
93070W        W61464   0.526  24.549  11.545
93071W        W61465  19.508  13.791   2.652
93072W        W61466  42.067  23.026   3.115
93073W        W61467  36.529  18.136  10.071
93074W        W61468   9.191  27.018  10.549
93075W        W61469  23.607   0.356  12.448
93076W        W61470  15.367  31.460   2.672
93077W        W61471  34.234   4.449   4.507
93078W        W61472  37.511   7.307   2.471
93079W        W61473  10.151  14.784   5.038
93080W        W61474   6.075  36.263  13.792
93081W        W61475  40.304  40.929  14.919
93082W        W61476  16.160  17.558   4.033
93083W        W61477  44.273  42.530   2.259
93084W        W61478  16.046  29.156  13.410
93085W        W61479  17.108   0.428  12.952
93086W        W61480  28.534  41.986  11.142
93087W        W61481  10.308  42.120   2.379
93088W        W61482  36.815  38.887   0.406
93089W        W61483  15.540  16.547   3.063
93090W        W61484  12.286  39.308   1.279
93091W        W61485  42.446  17.649   1.740
93092W        W61486  33.344  24.525  14.601
93093W        W61487  30.570  32.341  13.412
93094W        W61488  33.002  40.755  11.687
93095W        W61489  41.605  27.747  14.604
93096W        W61490  15.208  14.500   1.145
93097W        W61491  18.835  13.013   3.132
93098W        W61492  26.473   5.390   3.637
93099W        W61493  17.631  20.788   2.282
93100W        W61494   3.835  18.652   0.461
93101W        W61495  35.818  12.226   4.563
93102W        W61496  24.802  41.789   1.948
93103W        W61497   2.306  23.587   4.816
93104W        W61498  25.526  32.109  10.159
93105W        W61499  35.388  12.716   3.381
93106W        W61500  33.526  33.563  10.480
93107W        W61501   0.355  44.296  10.994
93108W        W61502  31.193   4.674   2.178
93109W        W61503  34.153  32.912   0.318
93110W        W61504  25.031  43.775  12.431
93111W        W61505  16.860  38.007   1.183
93112W        W61506   1.905  24.285   2.253
93113W        W61507  28.044   1.123   0.401
93114W        W61508  28.973  33.489  13.537
93115W        W61509   5.157  21.022  13.413
93116W        W61510  36.360  41.844  14.685
93117W        W61511  34.149  41.568   2.358
93118W        W61512  15.024  39.628   5.059
93119W        W61513  39.765  44.294   3.575
93120W        W61514  17.716  32.160   2.645
93121W        W61515  40.615  18.897  12.098
93122W        W61516  12.187  42.520   1.112
93123W        W61517  16.553  41.967  11.309
93124W        W61518  37.499  22.507  13.413
93125W        W61519  18.071  31.253   2.340
93126W        W61520  32.383   3.840  14.487
93127W        W61521  20.563  32.308  13.528
93128W        W61522  30.035  15.372   1.733
93129W        W61523   8.571  23.547   2.098
93130W        W61524  36.512  24.965   4.612
93131W        W61525  30.533  25.971  11.885
93132W        W61526  44.914  13.959   4.799
93133W        W61527  17.274  18.866   2.887
93134W        W61528   0.700  22.089   2.589
93135W        W61529   7.906  41.142  11.508
93136W        W61530  38.487   3.499   0.722
93137W        W61531   3.903  39.336   1.485
93138W        W61532  38.642  12.088   2.514
93139W        W61533  27.655  25.050  13.901
93140W        W61534  10.255  38.794  13.426
93141W        W61535   2.962  41.624  11.043
93142W        W61536  32.571   7.732  11.986
93143W        W61537  30.946  23.782   1.749
93144W        W61538  23.641  23.984  13.216
93145W        W61539  15.291  33.070   1.353
93146W        W61540  20.461   0.253  10.784
93147W        W61541   5.685  29.265  14.842
93148W        W61542  30.254  41.757  12.431
93149W        W61543  30.674   5.601  14.721
93150W        W61544  12.373  23.235   2.957
93151W        W61545  14.149  32.641   1.637
93152W        W61546  39.049  15.133   0.571
93153W        W61547  17.320   0.815  12.537
93154W        W61548   3.374  14.841   2.349
93155W        W61549  20.122  37.793   1.880
93156W        W61550  36.082  37.933  10.511
93157W        W61551  10.232  28.495  10.837
93158W        W61552  32.161  22.061   3.351
93159W        W61553  14.512  41.822   2.702
93160W        W61554  11.187  31.121   3.842
93161W        W61555  14.044  30.059  11.422
93162W        W61556  20.083  40.765  14.815
93163W        W61557  10.316   7.093   1.777
93164W        W61558  10.035  40.904   1.793
93165W        W61559  12.131  40.652   2.230
93166W        W61560  43.828  21.003  14.642
93167W        W61561   0.107  16.633   1.790
93168W        W61562   3.300  16.321  12.397
93169W        W61563  27.494  10.195   0.302
93170W        W61564  19.925  16.521  12.698
93171W        W61565  28.825  19.725  14.864
93172W        W61566  21.773  41.944   2.894
93173W        W61567  35.470  14.070   1.638
93174W        W61568  20.250  27.734  12.616
93175W        W61569  15.043  23.754  14.658
93176W        W61570  28.954  17.502   3.577
93177W        W61571  25.981  20.267  12.476
93178W        W61572  25.411   7.476   4.766
93179W        W61573  44.188  15.519   2.741
93180W        W61574  37.009  32.199  12.860
93181W        W61575   4.957  14.918  14.764
93182W        W61576  40.351   5.697   2.336
93183W        W61577  23.546  23.055   0.197
93184W        W61578  44.065  20.705   4.686
93185W        W61579  41.240  32.726  12.761
93186W        W61580   3.774  39.819  10.659
93187W        W61581   8.865   3.169  10.207
93188W        W61582  22.136  14.571   4.085
93189W        W61583  36.535  33.638  12.168
93190W        W61584  13.319   8.230  12.019
93191W        W61585  39.250   2.884   1.792
93192W        W61586  22.552  29.912   2.463
93193W        W61587  17.024  10.937   1.205
93194W        W61588   1.949  40.140  11.935
93195W        W61589  14.701  32.664  13.411
93196W        W61590  18.795  24.310   1.480
93197W        W61591   7.693  11.961   1.801
93198W        W61592  22.449  26.520  10.615
93199W        W61593  15.645  39.034  10.893
93200W        W61594  23.943  12.657  11.656
93201W        W61595  21.508  29.452  10.261
93202W        W61596   7.578  25.304   3.715
93203W        W61597  41.061  19.535  14.865
93204W        W61598  31.005  43.243   2.384
93205W        W61599  39.290  11.611   1.872
93206W        W61600  33.540  42.881  12.585
93207W        W61601  13.389  42.508  13.394
93208W        W61602  36.633  35.137   2.430
93209W        W61603  20.828  32.078  10.746
93210W        W61604   8.170  38.152   1.263
93211W        W61605  34.624  42.358   2.325
93212W        W61606  28.439  25.490   3.251
93213W        W61607  11.216  35.667  13.532
93214W        W61608   6.312   1.701   9.815
93215W        W61609  23.120   5.930  10.713
93216W        W61610  24.334  35.936  10.876
93217W        W61611  42.447   3.502  10.995
93218W        W61612  32.315   1.913  12.138
93219W        W61613  25.139  35.159  11.626
93220W        W61614  13.215  23.565  13.802
93221W        W61615  24.596   3.490   0.994
93222W        W61616   4.385  13.868  14.045
93223W        W61617  15.627  18.244   2.764
93224W        W61618  40.097   7.472  13.350
93225W        W61619  13.760  15.405   3.622
93226W        W61620  35.569  24.446   1.740
93227W        W61621  28.987  31.998  11.100
93228W        W61622   1.803   0.949  13.553
93229W        W61623  30.787  26.304  11.530
93230W        W61624   6.916  11.565   4.221
93231W        W61625  36.647  13.914  13.888
93232W        W61626  41.536  40.933   4.249
93233W        W61627  38.294  43.131   1.019
93234W        W61628   8.560  33.857   4.547
93235W        W61629  20.057  28.087   1.828
93236W        W61630   0.565  33.518  12.332
93237W        W61631  25.479  23.916  13.492
93238W        W61632   7.688  36.517  13.053
93239W        W61633   9.352   3.423   1.915
93240W        W61634  37.305  11.692  13.880
93241W        W61635   7.300  22.926   4.899
93242W        W61636  18.936  18.868   1.632
93243W        W61637   0.059  19.630  13.403
93244W        W61638  20.750   9.600  12.110
93245W        W61639  38.899  31.509  11.277
93246W        W61640  32.541  39.596   3.993
93247W        W61641  30.077  37.987  14.572
93248W        W61642  12.980  26.642  11.544
93249W        W61643  40.271  13.261   0.466
93250W        W61644  13.221  16.674   1.529
93251W        W61645  34.476   4.700   1.867
93252W        W61646  16.067   3.597   3.361
93253W        W61647  12.319  33.975   4.176
93254W        W61648  31.023  28.129   3.795
93255W        W61649   5.938   7.796  12.451
93256W        W61650   2.849  20.357   3.146
93257W        W61651  13.360   4.011  14.039
93258W        W61652  36.595  37.671   1.398
93259W        W61653   3.625  10.973  12.555
93260W        W61654  15.391  11.430  13.372
93261W        W61655   5.350  12.163   0.960
93262W        W61656  33.651  20.159   0.008
93263W        W61657   6.639  23.021  13.823
93264W        W61658  27.188   4.255  13.111
93265W        W61659  33.427  30.660   2.394
93266W        W61660  37.968   0.325   1.990
93267W        W61661  27.467   3.777   1.455
93268W        W61662  35.175   3.978  13.437
93269W        W61663   4.357  12.577   9.989
93270W        W61664  18.507  44.445  13.012
93271W        W61665  10.123   5.071   1.107
93272W        W61666  33.652  22.301   4.237
93273W        W61667   3.485  37.980   0.737
93274W        W61668  39.895   3.221  12.082
93275W        W61669  34.364  16.239  13.493
93276W        W61670  33.500  23.216   1.392
93277W        W61671  24.677  28.458   4.356
93278W        W61672  28.228  14.180  12.849
93279W        W61673  11.175  44.395   4.697
93280W        W61674  23.052   2.455   1.926
93281W        W61675  34.909  15.047  10.557
93282W        W61676  41.001  12.372  12.344
93283W        W61677  42.343  33.631   2.636
93284W        W61678  30.369  16.291  13.045
93285W        W61679  34.878   4.249  13.787
93286W        W61680   4.874  31.320  12.644
93287W        W61681  42.873  26.564  14.998
93288W        W61682   0.866  43.434  12.449
93289W        W61683  30.615  15.853  11.946
93290W        W61684  20.986  33.344   0.440
93291W        W61685  41.371  12.056   1.308
93292W        W61686  35.695   5.447  13.349
93293W        W61687  40.573   2.448  12.027
93294W        W61688  22.635  17.687   4.717
93295W        W61689  44.602  19.720   0.787
93296W        W61690  26.007  10.715   0.340
93297W        W61691   6.938  13.052   4.156
93298W        W61692   2.039   9.152  14.248
93299W        W61693  18.349  12.604  13.868
93300W        W61694  27.434  37.088   2.667
93301W        W61695  25.196  20.795  10.747
93302W        W61696   4.947   2.676  13.842
93303W        W61697  30.385  35.061   4.304
93304W        W61698   1.373  12.382   2.495
93305W        W61699  35.945  17.293   5.353
93306W        W61700  21.083  20.812  14.974
93307W        W61701  37.033  23.795   4.230
93308W        W61702  22.033  31.721  12.855
93309W        W61703   0.033   3.283  12.295
93310W        W61704  44.837  35.789  13.425
93311W        W61705   5.996  22.464   3.221
93312W        W61706   3.213  31.356   2.362
93313W        W61707  14.156  17.486  11.508
93314W        W61708  36.475  10.875  12.424
93315W        W61709  36.287   5.773  12.532
93316W        W61710  13.184  33.528   0.009
93317W        W61711  16.728  17.218   2.231
93318W        W61712  12.376  15.292   0.471
93319W        W61713  22.720  37.399   2.008
93320W        W61714   3.495  13.309   2.150
93321W        W61715   3.044   3.441  10.348
93322W        W61716  30.515  32.408   0.236
93323W        W61717  41.285  39.181   0.369
93324W        W61718  34.238  44.526   3.428
93325W        W61719   0.849   5.995  10.968
93326W        W61720  19.256   3.513  11.493
93327W        W61721  29.378  40.873  10.682
93328W        W61722  37.733  28.473   1.176
93329W        W61723  14.202  41.347  13.616
93330W        W61724  17.129  21.872  12.407
93331W        W61725  41.367  17.707   0.772
93332W        W61726  11.415  24.744  11.603
93333W        W61727  16.391  36.089  11.912
93334W        W61728   9.913  24.655   3.856
93335W        W61729  32.924   1.466  13.894
93336W        W61730  19.557  22.610  11.659
93337W        W61731   7.177  32.481   2.863
93338W        W61732  25.216  43.085   1.872
93339W        W61733  38.268  10.191   0.540
93340W        W61734   5.162  20.982   1.749
93341W        W61735  20.885  25.269   0.911
93342W        W61736  33.853  28.518   1.204
93343W        W61737  33.855  32.829  14.890
93344W        W61738  21.231  35.155  14.501
93345W        W61739   7.755   9.068  12.095
93346W        W61740  14.127  29.470  13.624
93347W        W61741  44.933  35.422   0.081
93348W        W61742   5.119  34.479   3.723
93349W        W61743  19.035  34.479  12.506
93350W        W61744  38.105  17.768   4.953
93351W        W61745  41.022  17.688   4.445
93352W        W61746  32.462  30.908   0.765
93353W        W61747  25.797  34.002  10.898
93354W        W61748   4.735  38.620   0.720
93355W        W61749  26.184  33.682  11.057
93356W        W61750  31.108  37.004   2.135
93357W        W61751   8.883  30.109   3.788
93358W        W61752  16.347  34.858   4.209
93359W        W61753  22.634  22.455  13.500
93360W        W61754  44.465  32.427  12.909
93361W        W61755  24.681  30.081  14.108
93362W        W61756   9.680  24.850   4.822
93363W        W61757  34.845  29.513   0.730
93364W        W61758  37.545  17.239  14.251
93365W        W61759   9.150  20.361   2.349
93366W        W61760  44.243  22.267  10.982
93367W        W61761  37.551  37.343  11.207
93368W        W61762   2.539  36.428  12.040
93369W        W61763  30.105  23.712  14.963
93370W        W61764  35.850   0.448   0.283
93371W        W61765  17.328  39.533  14.849
93372W        W61766  24.140  24.044  13.093
93373W        W61767  27.758  42.210   2.264
93374W        W61768  41.166  14.958  12.917
93375W        W61769  25.152  29.029   4.538
93376W        W61770   5.325  16.559   2.055
93377W        W61771  37.003  30.449  14.018
93378W        W61772   0.818  36.378   1.359
93379W        W61773  28.496  27.445   2.188
93380W        W61774  14.207  39.812  14.295
93381W        W61775  34.925   5.796   1.934
93382W        W61776  13.302  28.577   1.450
93383W        W61777  32.139   8.688  12.385
93384W        W61778  29.653  39.298   3.736
93385W        W61779  10.842  26.014   2.702
93386W        W61780  11.987  33.112   3.812
93387W        W61781  35.596  30.877  13.534
93388W        W61782  12.943  33.192  11.637
93389W        W61783  34.540  28.859  14.369
93390W        W61784   4.181  18.975  12.390
93391W        W61785   9.217  30.592  13.195
93392W        W61786  31.235  10.226   4.797
93393W        W61787  15.524  29.035  14.437
93394W        W61788  17.532  22.233   2.137
93395W        W61789   2.977  37.772   4.118
93396W        W61790  25.344  31.626   3.150
93397W        W61791  34.488  29.123  13.894
93398W        W61792  38.736  20.437   0.525
93399W        W61793   4.855  35.466  10.229
93400W        W61794  35.164   9.807  13.423
93401W        W61795  41.304   3.372  13.492
93402W        W61796  35.237  25.930  11.240
93403W        W61797  23.008  28.424  14.328
93404W        W61798  25.020  30.371   4.976
93405W        W61799  16.828   2.228   4.601
93406W        W61800  41.484  40.210   1.755
93407W        W61801  15.681  40.110  13.226
93408W        W61802   3.239  25.557   3.312
93409W        W61803  26.734   0.135  10.660
93410W        W61804   4.023  18.895  10.715
93411W        W61805   9.172  28.642   1.841
93412W        W61806  14.485  30.752   5.060
93413W        W61807  41.343   6.717  13.306
93414W        W61808  12.571  30.584  11.012
93415W        W61809  43.802  12.604  10.783
93416W        W61810  23.921  44.104   2.109
93417W        W61811  18.592  22.170  11.672
93418W        W61812   2.871  11.267  11.187
93419W        W61813  11.747  32.662  12.901
93420W        W61814   9.079   7.218  13.395
93421W        W61815  42.861  32.654   4.583
93422W        W61816  42.321  26.955  13.975
93423W        W61817   9.358  43.164  14.386
93424W        W61818   6.194  16.969  11.587
93425W        W61819  44.475   2.460   3.672
93426W        W61820  41.954  16.478  12.381
93427W        W61821  31.621  10.203   1.734
93428W        W61822  22.683  24.749  12.464
93429W        W61823  23.941  40.451  12.070
93430W        W61824  17.093  18.095   2.582
93431W        W61825  24.209   8.881   9.658
93432W        W61826   4.739  38.592   2.900
93433W        W61827   8.291  30.597   3.057
93434W        W61828  11.540  21.121   4.618
93435W        W61829  39.506  20.842   1.667
93436W        W61830  20.796  18.313   4.524
93437W        W61831   9.736   8.892   1.539
93438W        W61832  12.837   2.838  12.784
93439W        W61833   8.926  30.379  10.603
93440W        W61834  12.987  25.437   3.020
93441W        W61835  19.121  33.263  13.619
93442W        W61836  14.612  32.153  13.363
93443W        W61837  22.251  24.900   0.301
93444W        W61838   8.701  20.108   4.517
93445W        W61839  38.619  20.045  12.231
93446W        W61840  38.562  12.236  12.071
93447W        W61841  10.354  43.229  14.817
93448W        W61842   4.929   5.277  12.042
93449W        W61843   5.185  20.849  12.904
93450W        W61844  15.605  32.084  12.968
93451W        W61845  28.073  39.863  12.490
93452W        W61846  20.529  41.367   0.523
93453W        W61847  17.991  14.219   3.190
93454W        W61848  14.662  29.563  13.975
93455W        W61849  16.829   3.247  13.906
93456W        W61850  18.709  13.689  10.886
93457W        W61851   1.692  28.458   3.801
93458W        W61852  36.437   6.310   4.416
93459W        W61853  23.606   8.739  14.804
93460W        W61854  22.977  23.594   1.905
93461W        W61855  40.196  30.581   2.630
93462W        W61856   0.489  31.132   3.255
93463W        W61857  28.637   5.096   4.175
93464W        W61858  18.725  29.190   3.523
93465W        W61859   2.573  22.142   3.680
93466W        W61860  34.127  25.938  12.050
93467W        W61861  38.389  17.442  14.683
93468W        W61862  30.600  33.120   0.843
93469W        W61863  24.108  33.692   3.109
93470W        W61864  43.944  11.141  11.121
93471W        W61865  25.525  40.988  14.823
93472W        W61866  34.088  11.786  12.659
93473W        W61867  40.110  29.695   2.571
93474W        W61868  11.107  14.180   4.246
93475W        W61869   3.694  35.471  12.970
93476W        W61870  20.389  42.790   2.819
93477W        W61871  34.020  15.020   2.369
93478W        W61872  42.587  40.853   0.532
93479W        W61873   9.442   1.403  12.927
93480W        W61874   6.105  21.187  13.350
93481W        W61875  10.235   6.576   1.742
93482W        W61876  18.324  35.882  13.358
93483W        W61877   5.849  25.588  13.514
93484W        W61878  19.520  10.405   4.673
93485W        W61879   1.056   9.174  11.646
93486W        W61880  34.093  44.905   0.463
93487W        W61881  44.508  32.751  14.082
93488W        W61882  25.664  23.082  14.992
93489W        W61883  11.465  21.724  14.248
93490W        W61884  31.946  28.261   1.164
93491W        W61885   6.857  19.001  13.143
93492W        W61886  23.629  14.818   4.092
93493W        W61887  32.073  25.525  13.821
93494W        W61888  15.188   1.309  14.769
93495W        W61889  14.789  34.670   4.485
93496W        W61890  40.918   0.043  11.085
93497W        W61891  40.984  21.987   2.629
93498W        W61892  11.206  28.005   0.805
93499W        W61893  32.205  12.705  12.965
93500W        W61894  17.230  10.723   3.222
93501W        W61895  32.081  41.396   1.297
93502W        W61896  39.275  33.096  14.933
93503W        W61897  19.193  17.422  11.061
93504W        W61898  43.812  41.057  13.491
93505W        W61899  12.383  23.612  13.042
93506W        W61900  17.974  14.129  11.715
93507W        W61901  12.618  20.187   3.150
93508W        W61902  33.981  18.744   2.432
93509W        W61903   0.141   5.017  13.032
93510W        W61904  38.278   2.628  11.220
93511W        W61905  42.048  17.534  14.393
93512W        W61906  31.929   8.240   2.258
93513W        W61907  14.238  41.025   3.793
93514W        W61908  41.235  34.412  13.104
93515W        W61909  13.722  43.836  10.983
93516W        W61910  17.686   5.659   2.742
93517W        W61911  15.004  43.224   4.257
93518W        W61912   3.770  20.287   3.141
93519W        W61913   8.313   5.483  13.897
93520W        W61914  19.200  10.628  13.481
93521W        W61915   9.894  17.329   2.823
93522W        W61916  28.055  15.192  13.088
93523W        W61917   5.474  13.902  11.580
93524W        W61918  27.158  33.090   3.039
93525W        W61919  39.283  22.795  12.448
93526W        W61920  27.359   1.229   4.107
93527W        W61921   3.237  11.190   1.059
93528W        W61922  21.904  18.900   3.662
93529W        W61923  22.646  14.134  13.115
93530W        W61924   3.474  33.018   3.769
93531W        W61925  36.927  18.277   0.977
93532W        W61926  14.085   8.846   3.223
93533W        W61927  33.913  43.844   2.327
93534W        W61928   5.258  10.712  10.594
93535W        W61929  38.225  28.615   5.059
93536W        W61930  34.107  30.019   0.878
93537W        W61931  19.024  18.958   5.104
93538W        W61932   2.011  27.247   3.186
93539W        W61933  33.361  34.375  10.061
93540W        W61934   4.767  31.699   2.789
93541W        W61935  15.552  21.268   3.706
93542W        W61936   1.330   0.174  14.768
93543W        W61937  44.155  27.442  14.917
93544W        W61938  28.459  14.999  14.843
93545W        W61939  11.610  41.309  14.470
93546W        W61940  15.621  15.198   4.288
93547W        W61941   2.898  14.239   0.221
93548W        W61942   3.224  11.571  11.749
93549W        W61943  12.292  30.405   1.568
93550W        W61944  14.783  14.339   1.412
93551W        W61945  21.638  33.390   0.861
93552W        W61946  24.362  17.603  11.373
93553W        W61947  38.822  29.058   0.790
93554W        W61948  17.973  19.496   9.712
93555W        W61949   7.414   0.254  13.991
93556W        W61950  24.716  32.226  11.085
93557W        W61951  32.763   3.310  11.649
93558W        W61952  30.024   1.936   3.623
93559W        W61953   3.194  10.141   2.265
93560W        W61954  31.588  29.269   1.220
93561W        W61955   5.370  32.546   3.075
93562W        W61956   5.312   7.669  11.262
93563W        W61957   4.909   9.280   4.421
93564W        W61958  11.926   8.785   0.939
93565W        W61959   3.186  22.067  13.360
93566W        W61960   7.358  29.077  12.717
93567W        W61961  24.520  16.692   1.670
93568W        W61962   7.770  36.471   2.873
93569W        W61963  42.847  36.539   1.800
93570W        W61964  32.801  16.846  12.480
93571W        W61965  12.486  15.301  12.166
93572W        W61966  40.727  43.116  10.850
93573W        W61967  40.343   8.823  10.705
93574W        W61968  35.417  15.106   3.606
93575W        W61969  12.233  16.689   3.829
93576W        W61970  28.098  44.388  11.574
93577W        W61971  21.723  33.510  14.545
93578W        W61972  25.411  26.509  12.590
93579W        W61973  12.241  43.776   1.646
93580W        W61974   1.568  35.390   2.851
93581W        W61975   1.148  23.061   1.822
93582W        W61976  38.338   5.920   4.529
93583W        W61977  20.763   6.502   0.913
93584W        W61978  36.620  25.803   2.318
93585W        W61979   8.791  28.608  11.150
93586W        W61980  11.960   3.328   0.941
93587W        W61981  39.723  44.981   0.536
93588W        W61982  34.074  38.628  14.266
93589W        W61983  39.359  26.509   4.206
93590W        W61984  15.222  34.959  13.384
93591W        W61985  18.580  41.180  11.941
93592W        W61986  34.582  29.012  14.873
93593W        W61987  39.800  28.230  14.048
93594W        W61988  11.690   8.768   2.371
93595W        W61989  15.781   9.688  14.569
93596W        W61990   1.203   9.359   4.224
93597W        W61991  36.103   6.471   2.627
93598W        W61992  23.181  43.949   4.409
93599W        W61993  14.280  38.532  14.798
93600W        W61994  36.319  44.723  12.611
93601W        W61995  13.616   1.399   0.032
93602W        W61996  10.255  34.534   1.387
93603W        W61997   5.570  20.686   3.275
93604W        W61998  15.491  18.207  11.568
93605W        W61999  20.146  37.043  12.382
93606W        W62000  36.120  10.121   1.967
93607W        W62001  12.291  11.093  11.623
93608W        W62002   2.186  43.855   3.130
93609W        W62003  24.797   5.689   1.523
93610W        W62004   5.860  18.415   3.909
93611W        W62005   5.140   6.837  11.441
93612W        W62006   0.550  38.770   4.639
93613W        W62007  27.061   9.085   2.779
93614W        W62008  33.186  40.857   1.175
93615W        W62009  17.112  37.545   0.127
93616W        W62010  28.753   9.875  14.993
93617W        W62011  27.082  26.623  13.423
93618W        W62012  29.870   1.927  12.990
93619W        W62013   4.882   1.754   3.636
93620W        W62014   1.273  24.933  12.613
93621W        W62015  37.695  37.939  13.322
93622W        W62016  24.969  31.006  12.547
93623W        W62017  39.934  20.014   4.758
93624W        W62018   6.203  15.145  13.793
93625W        W62019  38.071  17.054   1.820
93626W        W62020   2.421  30.377   0.354
93627W        W62021  37.789   8.387  13.955
93628W        W62022  19.084   6.360   1.483
93629W        W62023   5.487   6.229   1.893
93630W        W62024  37.026  18.690   4.484
93631W        W62025  16.280  42.215  14.468
93632W        W62026  27.966  35.444   1.297
93633W        W62027  36.851  33.670   1.226
93634W        W62028  30.046   8.144  14.759
93635W        W62029   0.284  44.037   1.355
93636W        W62030  38.045  41.540   1.213
93637W        W62031  42.873  39.091   5.374
93638W        W62032  19.537  38.317  10.653
93639W        W62033  15.731  31.714   4.932
93640W        W62034  22.671  29.340  12.369
93641W        W62035  13.320  37.033   2.750
93642W        W62036  24.734  32.708   2.408
93643W        W62037  21.607  10.169  12.968
93644W        W62038   4.693   0.803   0.293
93645W        W62039  43.328   3.625  10.524
93646W        W62040  25.290  24.761   5.266
93647W        W62041  17.757  21.021   0.014
93648W        W62042  40.579  41.722   1.847
93649W        W62043  42.373  31.428   2.373
93650W        W62044   6.337  40.770   1.850
93651W        W62045   8.075  16.316  13.940
93652W        W62046  28.465  17.749  13.950
93653W        W62047  43.925  24.699  12.525
93654W        W62048   6.241  23.992   1.343
93655W        W62049  40.870  28.420  14.205
93656W        W62050  34.166  24.649   2.905
93657W        W62051  23.476  15.285  11.655
93658W        W62052  16.060  31.887  14.769
93659W        W62053  24.005  28.622   0.964
93660W        W62054  36.947  14.611  13.944
93661W        W62055  24.089  28.389  13.464
93662W        W62056  22.810  18.679   1.911
93663W        W62057  42.998   9.292   2.895
93664W        W62058  14.726  17.489  14.140
93665W        W62059  22.570  23.079   4.128
93666W        W62060   7.769  25.435  12.029
93667W        W62061   7.291   2.745   1.830
93668W        W62062  37.289  38.451  10.605
93669W        W62063   4.313  15.677  10.726
93670W        W62064   9.960  28.970   3.559
93671W        W62065  21.176   9.116  12.390
93672W        W62066  26.124  12.623   4.134
93673W        W62067  36.083  39.865   3.648
93674W        W62068  29.575   1.923   9.759
93675W        W62069  38.139   8.266   4.010
93676W        W62070   5.416  37.623  10.790
93677W        W62071  29.370  15.839  11.139
93678W        W62072  31.973  35.245   2.848
93679W        W62073  43.815   3.829  11.436
93680W        W62074  19.022  28.378   2.548
93681W        W62075  11.859   8.681  11.087
93682W        W62076  19.719  17.249  14.736
93683W        W62077   4.402  36.527  13.092
93684W        W62078  18.205  11.615   1.595
93685W        W62079  32.460   9.683   3.135
93686W        W62080  14.226  37.105   0.696
93687W        W62081  39.861  28.218   0.054
93688W        W62082   3.322  29.244   1.651
93689W        W62083  24.965  10.743   2.784
93690W        W62084  26.175   8.905   0.872
93691W        W62085  36.783  43.257  11.164
93692W        W62086  10.453  31.024  11.471
93693W        W62087  42.145  14.536  12.960
93694W        W62088  37.385  14.812  12.660
93695W        W62089  24.437   8.425  10.637
93696W        W62090  11.841  35.109  14.510
93697W        W62091  44.788  19.823  11.092
93698W        W62092  28.204  24.745  11.509
93699W        W62093  14.741  33.885  14.584
93700W        W62094   5.725   9.745  14.536
93701W        W62095  32.465  20.661  11.235
93702W        W62096   8.456  27.442  10.654
93703W        W62097  18.231  10.590   0.486
93704W        W62098  34.983  28.143  11.725
93705W        W62099   7.793  37.577   5.114
93706W        W62100  41.126   3.394   0.904
93707W        W62101  13.635  33.896  13.299
93708W        W62102  32.090   9.711   0.100
93709W        W62103  19.556   1.866  13.776
93710W        W62104   5.331  21.299   1.342
93711W        W62105  34.521  29.666  12.107
93712W        W62106  43.172  29.079   3.087
93713W        W62107  15.566  13.160   0.302
93714W        W62108  17.306  21.715   2.690
93715W        W62109  12.553   3.887   3.704
93716W        W62110  23.678  31.632  12.167
93717W        W62111  19.276   3.838  14.440
93718W        W62112   6.376   7.659   1.718
93719W        W62113  21.804  26.921   5.683
93720W        W62114  37.611  19.838  11.199
93721W        W62115  44.302  10.391  11.125
93722W        W62116   3.351   5.115  10.350
93723W        W62117   4.196  15.622  11.214
93724W        W62118  32.065  21.178   2.162
93725W        W62119   0.410  35.308  12.783
93726W        W62120  43.269   7.457   4.303
93727W        W62121  26.889   3.872   3.639
93728W        W62122  30.127   1.242  13.373
93729W        W62123   4.286  30.392  12.340
93730W        W62124   2.192  38.532   4.363
93731W        W62125  15.232   6.602   4.500
93732W        W62126   6.300  37.362   0.523
93733W        W62127  25.252  24.594  12.059
93734W        W62128  12.684  20.624  14.896
93735W        W62129  29.947  41.046   0.045
93736W        W62130  21.214  22.341   5.115
93737W        W62131  33.088   1.454  10.752
93738W        W62132  41.971  20.559  14.774
93739W        W62133  20.929  38.692  12.648
93740W        W62134   5.422  28.573  12.864
93741W        W62135  26.380  31.164   4.130
93742W        W62136  36.884  44.562   3.307
93743W        W62137  15.825  19.508   0.874
93744W        W62138   4.702  43.712   0.874
93745W        W62139  15.855  18.432  13.868
93746W        W62140  21.728  29.648  11.536
93747W        W62141  27.892   3.266   0.807
93748W        W62142  27.549  16.320  13.594
93749W        W62143  21.673  17.310  13.935
93750W        W62144   9.184  34.089   0.419
93751W        W62145  42.918  34.585   1.775
93752W        W62146  40.204  24.638   4.075
93753W        W62147   0.144  42.031   3.300
93754W        W62148   8.044   1.860   4.416
93755W        W62149  19.834  32.480  14.016
93756W        W62150  14.254  12.227   4.792
93757W        W62151  37.208   9.793  13.575
93758W        W62152  12.438   5.139  14.368
93759W        W62153  15.056  17.175   1.223
93760W        W62154   8.157  24.192   1.419
93761W        W62155  32.503   7.779   4.400
93762W        W62156  23.757  44.749   4.547
93763W        W62157   4.273  33.970   2.277
93764W        W62158  36.421  42.172  11.975
93765W        W62159   4.689  30.134   2.349
93766W        W62160  26.331  27.381   4.123
93767W        W62161  40.339  39.444   3.248
93768W        W62162  16.741  42.467  14.350
93769W        W62163  19.166   7.355   0.739
93770W        W62164  43.543  43.233  14.860
93771W        W62165  17.495  20.872  13.355
93772W        W62166  44.871  23.257   2.500
93773W        W62167   9.360  10.587   1.271
93774W        W62168  14.264  22.758  12.525
93775W        W62169  23.634  31.871   1.656
93776W        W62170  18.745  25.131   2.487
93777W        W62171  38.942   9.889  12.856
93778W        W62172  17.234  15.285  14.957
93779W        W62173  34.103  15.853  12.824
93780W        W62174  33.171   9.783  14.395
93781W        W62175  17.238  33.645  14.186
93782W        W62176  15.077  13.067   0.169
93783W        W62177  19.927  35.126  14.661
93784W        W62178  19.991  11.895   4.387
93785W        W62179   8.070  10.305   0.906
93786W        W62180  16.631   1.981  10.627
93787W        W62181  24.098  34.870  13.985
93788W        W62182  42.799  21.043   3.346
93789W        W62183  22.093  13.709  12.489
93790W        W62184  13.005  15.059  10.722
93791W        W62185   1.298  21.518  11.674
93792W        W62186   6.455   6.125   1.578
93793W        W62187   0.615  40.016  11.437
93794W        W62188  24.151  41.748   3.013
93795W        W62189   4.712  25.923  10.486
93796W        W62190  33.468  11.655  13.534
93797W        W62191   2.724  12.857   2.410
93798W        W62192  36.023  20.169   1.487
93799W        W62193  32.621   0.944   1.303
93800W        W62194  18.304   3.308   2.385
93801W        W62195  32.468   1.054  11.403
93802W        W62196  41.829  13.723   2.778
93803W        W62197  23.522  40.212   4.574
93804W        W62198  43.674  10.180   5.218
93805W        W62199  20.097  31.135   0.509
93806W        W62200  20.440  38.411   4.572
93807W        W62201  33.157  33.507  11.164
93808W        W62202  37.517  30.003  13.139
93809W        W62203  41.843  14.518   1.357
93810W        W62204  38.256  34.010  12.858
93811W        W62205  15.526  12.296   1.945
93812W        W62206  18.612  29.064  10.787
93813W        W62207  27.968  12.157  10.697
93814W        W62208  20.711  41.510   2.481
93815W        W62209   6.285  29.413  14.033
93816W        W62210  30.973  10.848  11.555
93817W        W62211  31.672  10.984  12.553
93818W        W62212  27.723  34.990  10.808
93819W        W62213  44.715   6.352   0.510
93820W        W62214  20.576  26.245   1.337
93821W        W62215   1.730  32.351   0.506
93822W        W62216  25.581  40.509   0.749
93823W        W62217  26.625  39.861  12.492
93824W        W62218  22.440   4.343   2.306
93825W        W62219  28.066  43.870  11.596
93826W        W62220  34.645  34.373  13.432
93827W        W62221  33.112  43.598   2.781
93828W        W62222  22.531  29.507   5.099
93829W        W62223   0.736  18.551  10.757
93830W        W62224  36.098  22.708   1.491
93831W        W62225   3.487  26.479   4.462
93832W        W62226  20.785   2.664  10.659
93833W        W62227   2.449  24.301  12.582
93834W        W62228  25.480  25.404  11.560
93835W        W62229  24.158  41.336   2.211
93836W        W62230  22.704  30.557  12.401
93837W        W62231  20.052  39.100  13.720
93838W        W62232  12.937  14.668  12.797
93839W        W62233   2.934  44.609  11.466
93840W        W62234  26.652  42.374   0.955
93841W        W62235  30.788  33.238  14.128
93842W        W62236  33.118  22.718   3.935
93843W        W62237   4.022  35.828  12.662
93844W        W62238   3.964  11.180   4.637
93845W        W62239  29.037  30.405   3.593
93846W        W62240  12.685   7.134  11.752
93847W        W62241  28.134  30.686  14.562
93848W        W62242   0.086  24.563   2.728
93849W        W62243  27.611  27.891   2.129
93850W        W62244  16.825  25.547  12.509
93851W        W62245  16.202  11.338   0.806
93852W        W62246  21.773  27.516  11.633
93853W        W62247   9.178  22.529  14.849
93854W        W62248  41.147  36.294  13.316
93855W        W62249  21.738  26.101   2.726
93856W        W62250  23.492  16.265   1.344
93857W        W62251  36.409  35.299  11.168
93858W        W62252  21.289   4.871  11.457
93859W        W62253  42.610  29.570   2.699
93860W        W62254  39.904  37.763  11.521
93861W        W62255  24.974   4.703  12.327
93862W        W62256  26.445  38.967  10.732
93863W        W62257  18.446  23.085   3.684
93864W        W62258  42.216  38.832   3.298
93865W        W62259  17.518  36.947   4.857
93866W        W62260  44.566  21.653  14.289
93867W        W62261   3.633   4.720   4.574
93868W        W62262  30.452   3.728  14.382
93869W        W62263  43.689  42.315  11.614
93870W        W62264  16.961  19.207   4.071
93871W        W62265  31.474   3.154   0.193
93872W        W62266   9.582  22.188  14.851
93873W        W62267  37.244  17.188  13.115
93874W        W62268  24.664   7.941   0.825
93875W        W62269  15.951  33.158   3.524
93876W        W62270  18.175  19.682   2.098
93877W        W62271  33.960   0.218   2.233
93878W        W62272   8.155   4.196   2.361
93879W        W62273  19.174  42.332   4.632
93880W        W62274  44.684  33.611   0.378
93881W        W62275   3.793  22.796   2.242
93882W        W62276  24.766  40.489   5.085
93883W        W62277  12.577  42.999   2.467
93884W        W62278   0.892   9.115  11.159
93885W        W62279  23.060  31.511  11.048
93886W        W62280  36.152   4.866   1.267
93887W        W62281  17.600   6.326   1.267
93888W        W62282  25.073  31.197  13.029
93889W        W62283  12.665  43.389   2.091
93890W        W62284  41.528  40.244   2.857
93891W        W62285   2.876  30.148  13.109
93892W        W62286  43.909   2.284  12.027
93893W        W62287  29.605  33.591   4.943
93894W        W62288  10.876  13.126  12.569
93895W        W62289  42.143   3.507  11.746
93896W        W62290  24.891  25.627   4.122
93897W        W62291  43.249  11.726   4.090
93898W        W62292   0.452  10.519   4.220
93899W        W62293  38.957   0.739  10.535
93900W        W62294   5.007  44.812   3.851
93901W        W62295  10.330  22.597   4.509
93902W        W62296  39.050  39.113   2.418
93903W        W62297  31.030  10.214  10.652
93904W        W62298  26.609  41.023   1.434
93905W        W62299  26.715   0.995   1.420
93906W        W62300  14.833  14.258   0.205
93907W        W62301  22.499  14.377  14.579
93908W        W62302   2.984  11.112   0.269
93909W        W62303  21.569  43.521   1.493
93910W        W62304  38.039  17.022  12.434
93911W        W62305   4.623  19.349   3.253
93912W        W62306   7.779  38.811  14.309
93913W        W62307  38.524  13.660   0.419
93914W        W62308  24.832  19.602  10.591
93915W        W62309  21.306  36.892   0.138
93916W        W62310  12.386  21.135   1.042
93917W        W62311  20.770  31.541   0.821
93918W        W62312  15.347  12.407   4.726
93919W        W62313  25.617   1.281   4.284
93920W        W62314  36.932  40.714   4.339
93921W        W62315  21.546  11.385  13.838
93922W        W62316  29.584  42.335   3.695
93923W        W62317  33.891   5.956   1.739
93924W        W62318  41.607  41.024  11.475
93925W        W62319  15.657  20.241   3.640
93926W        W62320   4.906  27.401  10.041
93927W        W62321   2.061  41.358   4.229
93928W        W62322  28.959  18.569   4.234
93929W        W62323  26.235  20.653  12.194
93930W        W62324  14.139   3.985   0.606
93931W        W62325  23.281   0.677   4.639
93932W        W62326  34.565   2.175   1.253
93933W        W62327  38.786  33.005  11.423
93934W        W62328  14.210  13.118   0.356
93935W        W62329  11.115  12.650  12.508
93936W        W62330   3.402  40.778   3.655
93937W        W62331  37.072  27.364   2.847
93938W        W62332  32.587   2.311  14.002
93939W        W62333   0.451  19.116   4.603
93940W        W62334  20.394  11.277   0.175
93941W        W62335  42.752  36.871  10.739
93942W        W62336  15.869  39.410  11.420
93943W        W62337  41.285  22.567  13.944
93944W        W62338   5.304  11.278   3.335
93945W        W62339  35.018  28.810   4.465
93946W        W62340   7.405  10.362  11.608
93947W        W62341  35.187  42.838  13.541
93948W        W62342  41.143  18.624  13.524
93949W        W62343  31.339  39.030  10.538
93950W        W62344  40.118   9.271  13.323
93951W        W62345  34.423  13.700   1.746
93952W        W62346  43.778  13.290   2.479
93953W        W62347   7.907   4.463  13.901
93954W        W62348  41.873  26.499   4.555
93955W        W62349  26.091   5.654   1.432
93956W        W62350   4.878  35.576  14.952
93957W        W62351  19.885  26.653  14.561
93958W        W62352  25.204  31.617   4.381
93959W        W62353  43.964  15.298   3.609
93960W        W62354  23.117  24.545  13.149
93961W        W62355  17.299  33.592   5.126
93962W        W62356  18.850   9.171   2.217
93963W        W62357  42.506  42.866  14.266
93964W        W62358  12.399  33.990  11.003
93965W        W62359  30.095   0.755   4.393
93966W        W62360  34.578  39.097  12.600
93967W        W62361  35.442   8.086  12.083
93968W        W62362  33.458  36.710  14.870
93969W        W62363   9.063   1.182  12.653
93970W        W62364  22.683  12.658  11.990
93971W        W62365  43.919  23.746   2.864
93972W        W62366  21.180   8.332  14.942
93973W        W62367  14.374   7.673  14.277
93974W        W62368   9.375  24.110   4.970
93975W        W62369   6.423   1.703  12.477
93976W        W62370  33.767  36.960  11.979
93977W        W62371   6.300  11.672  12.158
93978W        W62372  35.168  25.445  11.122
93979W        W62373  21.766  17.777   2.978
93980W        W62374   4.737  23.475   0.899
93981W        W62375  38.138  34.311   2.779
93982W        W62376  26.167  42.787  11.124
93983W        W62377  17.190  29.237   0.416
93984W        W62378  36.722   6.784   4.545
93985W        W62379  28.207  18.209  12.663
93986W        W62380  15.223  23.026  12.478
93987W        W62381  23.228  11.794   2.284
93988W        W62382  30.587  20.028  13.989
93989W        W62383  38.135  19.537  14.168
93990W        W62384   4.592  37.560   3.771
93991W        W62385  31.468  25.536   2.950
93992W        W62386  10.935  40.484  12.785
93993W        W62387  43.002  35.986  13.021
93994W        W62388  11.659  40.846   2.174
93995W        W62389  14.705   1.290  10.631
93996W        W62390   2.651  29.184  13.692
93997W        W62391  39.961  18.487  13.883
93998W        W62392  31.929  16.162   2.423
93999W        W62393  42.757   1.111   1.666
94000W        W62394  37.078  35.524  14.759
94001W        W62395  24.680  39.496  14.223
94002W        W62396  24.881   8.708   5.739
94003W        W62397  19.930  12.576  10.647
94004W        W62398  38.976  27.355   2.672
94005W        W62399  40.546  11.956   5.013
94006W        W62400  27.440   0.744   2.208
94007W        W62401  24.986   4.719  14.278
94008W        W62402  33.181  16.807  11.599
94009W        W62403  17.832  29.462  10.785
94010W        W62404  14.146  15.638  13.024
94011W        W62405  34.393  26.634   0.829
94012W        W62406  20.035  35.651  13.531
94013W        W62407  11.412   5.730   4.555
94014W        W62408   9.671  18.822  10.866
94015W        W62409  28.045  15.332  12.595
94016W        W62410  13.288   1.775   3.133
94017W        W62411  16.346  24.099  11.781
94018W        W62412  16.096  30.621   4.488
94019W        W62413  30.281  24.693   0.304
94020W        W62414   9.300  39.647   1.801
94021W        W62415  27.584   7.143   4.799
94022W        W62416  26.696  28.096   0.542
94023W        W62417  13.579  21.122  11.586
94024W        W62418  24.526  32.079   1.896
94025W        W62419   0.422  16.313   0.406
94026W        W62420  20.533  21.280   2.318
94027W        W62421  13.053   8.654   0.978
94028W        W62422  28.398  10.180   2.768
94029W        W62423  20.073  32.461   4.592
94030W        W62424   3.208  18.109  13.357
94031W        W62425  17.009   4.817  12.919
94032W        W62426   8.799  21.435   4.967
94033W        W62427  11.360  43.141   4.903
94034W        W62428   7.386  12.028  11.037
94035W        W62429   3.481  37.260  11.562
94036W        W62430  25.622  27.971  10.324
94037W        W62431   4.088  25.203  14.027
94038W        W62432  22.017  37.735  11.636
94039W        W62433  31.830  32.961   4.489
94040W        W62434  23.153  21.490  14.936
94041W        W62435  25.221  32.344  12.359
94042W        W62436  22.268  44.875   4.624
94043W        W62437  40.759  34.577  13.170
94044W        W62438   9.325   5.092  11.544
94045W        W62439   9.717  16.750   1.898
94046W        W62440   3.765  21.186   0.967
94047W        W62441  34.842   8.350   3.966
94048W        W62442  39.794  15.260  14.979
94049W        W62443  32.123  15.357   0.290
94050W        W62444  16.003  20.770   4.264
94051W        W62445   8.759  39.119  14.553
94052W        W62446  17.606   7.185   1.784
94053W        W62447   9.616   5.163  11.996
94054W        W62448  33.104  39.389  13.700
94055W        W62449  32.748  14.818   1.901
94056W        W62450  34.545  19.788  14.861
94057W        W62451  20.585  24.500  11.869
94058W        W62452   3.331  36.296   3.573
94059W        W62453  44.162   5.499   0.256
94060W        W62454  38.569  35.573   0.489
94061W        W62455  31.566   6.920  12.475
94062W        W62456  42.624  38.119   2.787
94063W        W62457  27.289  15.518  10.079
94064W        W62458  13.321  16.372  11.527
94065W        W62459   4.373  31.907   2.039
94066W        W62460  38.807  25.171   3.192
94067W        W62461   1.889  24.570  14.902
94068W        W62462   3.257   5.684  10.029
94069W        W62463   6.387  15.360   1.386
94070W        W62464   6.867   2.315  11.287
94071W        W62465   2.914  31.486   3.382
94072W        W62466  40.789   8.183   0.965
94073W        W62467  42.130  28.989   4.181
94074W        W62468  30.645   9.625   2.355
94075W        W62469  26.943  11.711   0.419
94076W        W62470  29.579  24.211  12.576
94077W        W62471  37.501  41.096   1.948
94078W        W62472  31.644  15.744  14.431
94079W        W62473  34.135  44.512  12.940
94080W        W62474  17.575  43.321   1.052
94081W        W62475  27.428  17.025   2.826
94082W        W62476   9.815   4.831   3.044
94083W        W62477   5.179   3.812  13.328
94084W        W62478  38.989  30.477  13.928
94085W        W62479   6.077  18.974  11.101
94086W        W62480  43.632   2.036  13.830
94087W        W62481  20.505  21.508  12.823
94088W        W62482  37.407   5.354  10.897
94089W        W62483  14.749  34.489   1.376
94090W        W62484  23.894  31.436   1.415
94091W        W62485  21.376  41.944   2.525
94092W        W62486  38.452  31.759   2.775
94093W        W62487  22.183  34.654  12.601
94094W        W62488   2.682   7.252  12.198
94095W        W62489  15.382  23.954  12.584
94096W        W62490  15.803  31.779   1.942
94097W        W62491   4.961  27.224  14.843
94098W        W62492  32.213   5.884  14.814
94099W        W62493   0.972   5.960  11.554
94100W        W62494   8.226  40.190   2.664
94101W        W62495   5.103   3.932  12.362
94102W        W62496  36.221  33.411   4.546
94103W        W62497  16.801   5.472   1.957
94104W        W62498  13.629  34.037  14.307
94105W        W62499  34.679   1.501   2.818
94106W        W62500  41.010  14.143  12.567
94107W        W62501  44.209   9.426   2.285
94108W        W62502  14.867  24.573   1.747
94109W        W62503  28.883   9.538  11.613
94110W        W62504  44.740  37.940   9.664
94111W        W62505  39.173  11.879  10.529
94112W        W62506  44.486   9.623  12.794
94113W        W62507  17.751  42.378   2.733
94114W        W62508  40.646   6.449   4.125
94115W        W62509   5.634   2.217  14.376
94116W        W62510  43.794  30.172   4.758
94117W        W62511  14.590  34.978  12.680
94118W        W62512  24.505  14.651   4.592
94119W        W62513  42.958  12.705  12.831
94120W        W62514  42.548  20.354   3.413
94121W        W62515  36.819  33.819  13.916
94122W        W62516  21.769  35.167  11.078
94123W        W62517  43.873  21.513  10.718
94124W        W62518  16.528   3.434  10.385
94125W        W62519  23.803  17.846  13.906
94126W        W62520  35.011  35.353   0.652
94127W        W62521  32.846  29.821   0.334
94128W        W62522   2.869  41.755  12.525
94129W        W62523   0.155  44.403  14.354
94130W        W62524  14.738   5.763  12.802
94131W        W62525  33.172  36.243   1.460
94132W        W62526  24.122  12.808   3.851
94133W        W62527  10.481  40.119  12.107
94134W        W62528  10.076  33.855   3.889
94135W        W62529   2.464  39.801  11.111
94136W        W62530  20.322  37.411   2.714
94137W        W62531   0.303  21.049   3.965
94138W        W62532  33.188  41.959   0.509
94139W        W62533   6.444  38.727   9.882
94140W        W62534  32.141   2.661   3.612
94141W        W62535   7.988  32.990   4.044
94142W        W62536  13.058  41.980  14.489
94143W        W62537  26.418  30.652  14.751
94144W        W62538  13.333   4.777   1.922
94145W        W62539  34.878   5.232  13.031
94146W        W62540  33.427  11.270   0.658
94147W        W62541  15.842  23.567   4.778
94148W        W62542   4.307  33.638  13.395
94149W        W62543   0.481  18.682  13.404
94150W        W62544  17.035  44.390   2.475
94151W        W62545  25.306  19.545  13.269
94152W        W62546  14.175  29.870  10.617
94153W        W62547  18.165  40.693   1.357
94154W        W62548  19.502   6.301  13.546
94155W        W62549  34.345  16.082  11.222
94156W        W62550  28.557  36.573  12.118
94157W        W62551  37.568   6.990  12.702
94158W        W62552  40.344  43.659  13.861
94159W        W62553  32.586  19.733  10.273
94160W        W62554  27.462  41.597   1.180
94161W        W62555  25.642  14.916  11.955
94162W        W62556  34.407  25.301   0.416
94163W        W62557  25.585  35.992   3.218
94164W        W62558  10.573  43.989  14.899
94165W        W62559  30.523  43.740  14.891
94166W        W62560  28.043   7.366  10.782
94167W        W62561   3.371  28.685   0.881
94168W        W62562  43.529  44.622   2.361
94169W        W62563  24.434  37.278   4.630
94170W        W62564  13.596  37.199   4.864
94171W        W62565   2.768  40.148  10.802
94172W        W62566  19.696  44.236   2.629
94173W        W62567  21.703  15.388   4.162
94174W        W62568  40.757  15.954  14.526
94175W        W62569  36.952  21.067   2.235
94176W        W62570  36.269  18.788   2.884
94177W        W62571  39.528  26.009   2.694
94178W        W62572  22.551  44.380  12.455
94179W        W62573  15.042  35.103   0.019
94180W        W62574  10.869  19.492   3.664
94181W        W62575   6.420   3.149   2.909
94182W        W62576   0.623   2.744   0.379
94183W        W62577  32.868  43.315   0.787
94184W        W62578  11.937  23.415  12.881
94185W        W62579   6.341  41.452  13.652
94186W        W62580  26.004  10.227   2.374
94187W        W62581  34.106  32.432   3.594
94188W        W62582  10.995   0.619   0.236
94189W        W62583  24.153  24.568  13.031
94190W        W62584  26.105  25.455   1.669
94191W        W62585  19.657   8.224  13.605
94192W        W62586  28.699  21.561  13.102
94193W        W62587  33.566  27.450  11.541
94194W        W62588  33.908  25.009  12.865
94195W        W62589   0.090  25.057   4.528
94196W        W62590  16.058   6.726   1.746
94197W        W62591  21.129  38.013   0.044
94198W        W62592  14.298   8.670  14.388
94199W        W62593   1.786  22.506  10.443
94200W        W62594  36.492  34.900   1.673
94201W        W62595  43.827   0.261  10.685
94202W        W62596  21.580   0.172  14.748
94203W        W62597   9.646  16.155  11.454
94204W        W62598  36.962  20.133  14.343
94205W        W62599  33.932  36.521   2.215
94206W        W62600  10.899  10.291  14.461
94207W        W62601  19.019  12.735   4.711
94208W        W62602   7.597  31.635  12.825
94209W        W62603  42.874  44.419   3.180
94210W        W62604  43.760  13.417  13.993
94211W        W62605  28.619   0.422   1.465
94212W        W62606   3.387  37.357  14.087
94213W        W62607   8.211  35.857   3.660
94214W        W62608  44.512   0.730   2.324
94215W        W62609  14.317  39.189  13.478
94216W        W62610  39.084  14.401  14.005
94217W        W62611  16.612  23.199   0.274
94218W        W62612   8.114  17.177  14.186
94219W        W62613   9.254  44.394  10.875
94220W        W62614  39.601  32.409   1.887
94221W        W62615  16.122  10.005  14.053
94222W        W62616  39.921  20.251  14.452
94223W        W62617  23.549  39.609  13.060
94224W        W62618   9.310   3.470  10.303
94225W        W62619  40.011   7.226  11.978
94226W        W62620  26.110   1.915  14.133
94227W        W62621   7.311  17.669   1.391
94228W        W62622  20.228  13.661  14.138
94229W        W62623  42.415  23.197   3.462
94230W        W62624   1.124   5.632   1.853
94231W        W62625   3.544   3.438   2.732
94232W        W62626   8.180  20.286   1.658
94233W        W62627  14.881  32.319   0.246
94234W        W62628  43.509  34.723  11.585
94235W        W62629  38.292  21.612  14.956
94236W        W62630   8.215  12.655  14.906
94237W        W62631  34.154  10.135   4.100
94238W        W62632   0.720  17.263  10.303
94239W        W62633  38.485  30.014  11.136
94240W        W62634  26.642   8.184   2.411
94241W        W62635  28.692  24.648   2.324
94242W        W62636   3.781   3.387  11.501
94243W        W62637   4.533  10.895   0.984
94244W        W62638  36.769  31.340  13.049
94245W        W62639  28.183  21.286  12.767
94246W        W62640  25.451  12.625   2.501
94247W        W62641   0.850   8.322   3.236
94248W        W62642   6.815   4.605  11.641
94249W        W62643  15.869  23.730  13.427
94250W        W62644  14.854   8.816   3.775
94251W        W62645  37.748  41.983   5.017
94252W        W62646  38.693  34.022  10.354
94253W        W62647  37.738  41.373   3.208
94254W        W62648   3.668  24.562   0.972
94255W        W62649  10.076  11.506  11.600
94256W        W62650  44.032   4.673   5.077
94257W        W62651  32.194   6.817  11.138
94258W        W62652  33.983   1.506   3.583
94259W        W62653  23.875   2.725  11.025
94260W        W62654   6.688  41.385  14.037
94261W        W62655  23.057   2.895   2.680
94262W        W62656  22.617  23.075  10.717
94263W        W62657  29.568  32.172   3.321
94264W        W62658  43.383  35.891  10.089
94265W        W62659  11.817  32.714   1.412
94266W        W62660  22.988  30.351  11.991
94267W        W62661  18.201  32.994  11.015
94268W        W62662  18.555  22.871   1.701
94269W        W62663  13.845  43.427   0.944
94270W        W62664  28.066  28.317  12.717
94271W        W62665  24.967  37.121  14.749
94272W        W62666  19.550  37.484   1.865
94273W        W62667  18.613  11.359   1.977
94274W        W62668  18.130  28.668   1.753
94275W        W62669  44.024  14.219   2.633
94276W        W62670  26.602   5.828   0.837
94277W        W62671  23.617  32.918   1.443
94278W        W62672  28.737   5.761  11.431
94279W        W62673   1.863  17.712   4.169
94280W        W62674  38.083   8.273  13.017
94281W        W62675  13.850   4.501   1.164
94282W        W62676  15.665  38.956  11.928
94283W        W62677  11.873  14.084   0.370
94284W        W62678  31.266   1.950  12.119
94285W        W62679   8.188  26.511   1.816
94286W        W62680  27.118   3.245   2.817
94287W        W62681   8.385   3.622  13.418
94288W        W62682   2.859  38.906  13.143
94289W        W62683  42.186  16.057   0.687
94290W        W62684   3.494  22.960   2.607
94291W        W62685  33.001  39.588   0.963
94292W        W62686  17.567  15.065  12.110
94293W        W62687  14.325  11.060   2.184
94294W        W62688  36.494  14.611   4.170
94295W        W62689  42.610  31.133  12.173
94296W        W62690   2.581   5.035   5.194
94297W        W62691  10.405  17.799  12.492
94298W        W62692  35.988  14.356   1.818
94299W        W62693  15.760  25.412   3.068
94300W        W62694   2.825  11.717  11.452
94301W        W62695  35.294  28.516  14.929
94302W        W62696  30.911  11.882  14.874
94303W        W62697  20.427  13.714   3.082
94304W        W62698   6.458   9.242   4.690
94305W        W62699  31.419  14.401  14.411
94306W        W62700  35.918   7.475  11.413
94307W        W62701  17.893  40.174   0.070
94308W        W62702  33.827  17.361  12.146
94309W        W62703  28.029  29.538  13.408
94310W        W62704  15.308  15.085   0.222
94311W        W62705  27.387  39.462   3.695
94312W        W62706  35.631   8.397   0.214
94313W        W62707  16.012   9.648  11.469
94314W        W62708  34.291   2.409   4.562
94315W        W62709  34.593  30.772   2.079
94316W        W62710  33.580   4.964   1.651
94317W        W62711  36.895  36.405   3.778
94318W        W62712  44.131  31.476  14.932
94319W        W62713  17.964  20.856   1.906
94320W        W62714  13.240   9.767   1.427
94321W        W62715   4.385   9.461   4.505
94322W        W62716  35.912   1.906  14.876
94323W        W62717  14.297   4.739  12.615
94324W        W62718   6.214   7.240  10.152
94325W        W62719  33.504   5.116   0.779
94326W        W62720   1.738   4.380  12.079
94327W        W62721  43.679  37.173   2.703
94328W        W62722   7.770  30.580   0.984
94329W        W62723  12.317  37.628  13.509
94330W        W62724  43.300  30.154  14.278
94331W        W62725  22.795   6.646   1.993
94332W        W62726   3.757  22.641  10.924
94333W        W62727  41.798   4.329  14.544
94334W        W62728  16.117  17.047  12.666
94335W        W62729  15.998  33.933   4.119
94336W        W62730  34.634  29.765   2.219
94337W        W62731  33.952   7.296  11.276
94338W        W62732  36.796   0.583   1.444
94339W        W62733  18.854  34.684   4.185
94340W        W62734  38.095  43.312  14.649
94341W        W62735  40.786  36.362  12.411
94342W        W62736   1.309   4.417  13.052
94343W        W62737  14.821  24.540  11.304
94344W        W62738   0.979  11.252   4.506
94345W        W62739   6.189   7.856   2.619
94346W        W62740  25.528  10.714  11.461
94347W        W62741  17.754   0.998   2.540
94348W        W62742  33.158  33.438   4.564
94349W        W62743  13.227   9.681  10.709
94350W        W62744  27.539  26.432   2.376
94351W        W62745  25.978  29.689  12.001
94352W        W62746  18.771   1.561  11.485
94353W        W62747  15.346  38.464   2.775
94354W        W62748  25.909  11.719   0.344
94355W        W62749   8.006  16.242   4.130
94356W        W62750  40.418  27.850   1.205
94357W        W62751  19.072   0.513  11.177
94358W        W62752  31.571   4.525   3.806
94359W        W62753  35.007  26.490   2.012
94360W        W62754   0.885  39.607   3.263
94361W        W62755   6.390  41.049  14.959
94362W        W62756   3.689   2.488   3.851
94363W        W62757  27.094   7.874   4.918
94364W        W62758  35.491  22.144  11.183
94365W        W62759   7.219   4.927  14.324
94366W        W62760   1.715   7.947   5.035
94367W        W62761  11.447  11.219   1.129
94368W        W62762  17.615  25.486   2.302
94369W        W62763  26.300   9.523   1.690
94370W        W62764  31.578  38.563  10.612
94371W        W62765  42.594  28.686   4.227
94372W        W62766  30.521  40.864  12.920
94373W        W62767  26.897  29.871   0.563
94374W        W62768  40.935  22.585   3.509
94375W        W62769  31.050  22.081  10.721
94376W        W62770  34.573  22.604   2.623
94377W        W62771  44.549  17.722  13.863
94378W        W62772  35.475  17.999  13.351
94379W        W62773  38.393  31.232   2.723
94380W        W62774   9.779  25.151   3.115
94381W        W62775  29.106  26.129   1.250
94382W        W62776  20.671   1.354   0.979
94383W        W62777   7.290   6.589  13.348
94384W        W62778  13.731   4.681  13.791
94385W        W62779  34.873  26.454  12.479
94386W        W62780  43.773  34.560  12.206
94387W        W62781  22.482  29.730   0.900
94388W        W62782  11.156  20.619   3.382
94389W        W62783  36.317  29.964   3.739
94390W        W62784  41.066   5.930  14.373
94391W        W62785  39.879  44.748   1.738
94392W        W62786   7.643  40.058   0.375
94393W        W62787  33.095   5.432  14.915
94394W        W62788  35.049  20.804   3.874
94395W        W62789  26.716  44.458  10.705
94396W        W62790   7.985  26.658  13.986
94397W        W62791  26.122  21.513   1.239
94398W        W62792  13.206  22.223   1.247
94399W        W62793   9.308  30.004   1.224
94400W        W62794  33.889  19.970  11.481
94401W        W62795  19.490  29.623   0.613
94402W        W62796   1.779  24.765  14.435
94403W        W62797  17.936  32.886  13.839
94404W        W62798   3.799  41.528   0.240
94405W        W62799  39.488  30.889  10.936
94406W        W62800  23.070  29.025   4.641
94407W        W62801  12.675  15.567   2.839
94408W        W62802  19.171  24.439   2.246
94409W        W62803  28.927  39.258   3.202
94410W        W62804  31.177  44.372   1.392
94411W        W62805  24.280   2.418   1.279
94412W        W62806  28.456  18.755  13.033
94413W        W62807  23.569   5.900   0.367
94414W        W62808  40.437  15.557  11.056
94415W        W62809  26.433  16.132  10.694
94416W        W62810  25.027   4.278  13.575
94417W        W62811  21.500   5.274   2.672
94418W        W62812  33.021  23.679   4.518
94419W        W62813  18.724  14.207   2.471
94420W        W62814  32.440   1.881   2.718
94421W        W62815   6.982  27.829   2.956
94422W        W62816  28.213  40.926  11.639
94423W        W62817  16.385  36.918  11.427
94424W        W62818   3.507  38.064  11.122
94425W        W62819   3.726  40.804  13.600
94426W        W62820  11.515   7.040   4.920
94427W        W62821  17.161  11.893  12.508
94428W        W62822  29.657  27.889  11.613
94429W        W62823  22.166  42.422   4.503
94430W        W62824  36.219  36.184   3.284
94431W        W62825  36.937  12.434   2.865
94432W        W62826  28.726  32.304   3.761
94433W        W62827   4.248   1.993   0.467
94434W        W62828   5.545  34.978  12.586
94435W        W62829  18.250   4.800  10.663
94436W        W62830  23.924  37.533  14.270
94437W        W62831  28.904  10.295   2.756
94438W        W62832   6.419  10.303   0.794
94439W        W62833  14.039  14.117   0.064
94440W        W62834  13.678  33.303  14.957
94441W        W62835   5.473  33.663  14.972
94442W        W62836  35.839  44.987  13.579
94443W        W62837  19.729  37.864   3.643
94444W        W62838  18.489  29.699   0.947
94445W        W62839  39.279  17.136  12.043
94446W        W62840  22.217   0.807  11.919
94447W        W62841   8.438   8.422  12.898
94448W        W62842  42.467  12.175  13.330
94449W        W62843  15.106   5.100   0.330
94450W        W62844  19.798  35.945   3.685
94451W        W62845  26.103  34.308   2.328
94452W        W62846  27.621  11.671  14.378
94453W        W62847  10.928  20.842  14.528
94454W        W62848  13.459  34.485   1.368
94455W        W62849  44.927  15.637  12.941
94456W        W62850  24.689  26.544   2.649
94457W        W62851  19.092  39.424  11.378
94458W        W62852  14.716   9.721   4.363
94459W        W62853  40.805   3.223  12.580
94460W        W62854  16.547  19.482  13.406
94461W        W62855  39.937  13.162  13.911
94462W        W62856  22.387  42.058   3.822
94463W        W62857  16.114   9.829   1.893
94464W        W62858   0.281  10.692   1.484
94465W        W62859  28.423   1.738  11.846
94466W        W62860  36.330  42.437  11.531
94467W        W62861   4.855  23.212   4.693
94468W        W62862  16.343   3.698   3.823
94469W        W62863  43.069  11.031  13.633
94470W        W62864  14.943  32.138  10.576
94471W        W62865  27.966   5.834   1.255
94472W        W62866  42.493  41.377  14.397
94473W        W62867  44.831  19.895   0.346
94474W        W62868  28.514  40.580  12.431
94475W        W62869  34.179  33.064  11.008
94476W        W62870  11.388  32.455   4.198
94477W        W62871  23.217   3.997  12.011
94478W        W62872  18.647  31.651  12.199
94479W        W62873  27.092   8.436   1.327
94480W        W62874  33.075  16.024  14.898
94481W        W62875  21.921   1.972   0.800
94482W        W62876  26.942  23.059   4.846
94483W        W62877  40.902  17.512   2.228
94484W        W62878  34.942   4.762  10.279
94485W        W62879  32.093  28.580   4.255
94486W        W62880   2.920  39.222   1.171
94487W        W62881  39.698  40.585   4.245
94488W        W62882  37.842  22.670  12.589
94489W        W62883  26.181  43.436   4.802
94490W        W62884   3.767  29.844  13.992
94491W        W62885  31.993  32.841  13.328
94492W        W62886  25.678  25.262  13.757
94493W        W62887  43.275  32.123   1.930
94494W        W62888  34.398  16.087   3.392
94495W        W62889  36.523   8.283   4.291
94496W        W62890  35.988   4.331  12.801
94497W        W62891   3.388  38.838  13.031
94498W        W62892  23.878   6.598  11.728
94499W        W62893  44.285  34.129   0.387
94500W        W62894  44.451   6.957   1.761
94501W        W62895  11.401   0.779  12.447
94502W        W62896   7.815  34.476  12.906
94503W        W62897  42.207  12.427  10.656
94504W        W62898   1.924   5.612   0.361
94505W        W62899   1.674  29.015   4.609
94506W        W62900  37.399  15.586   2.346
94507W        W62901  14.273  24.750   3.218
94508W        W62902   0.781  21.988  13.358
94509W        W62903  17.522  24.987  11.885
94510W        W62904  20.104  43.460   0.796
94511W        W62905   5.182  20.059   3.553
94512W        W62906   6.738  35.392   0.181
94513W        W62907  17.897  44.351   2.040
94514W        W62908  36.924  20.662   1.907
94515W        W62909  17.216   5.379  10.047
94516W        W62910  15.351  29.577  12.840
94517W        W62911  22.315  37.843  13.906
94518W        W62912   4.878  35.874   1.805
94519W        W62913  32.166  38.491  14.261
94520W        W62914  31.974  38.349  11.369
94521W        W62915  15.320  14.113  11.533
94522W        W62916  17.537  17.731  12.117
94523W        W62917  29.267  42.835  10.294
94524W        W62918  32.664  37.618  13.345
94525W        W62919  18.610  21.502  10.940
94526W        W62920   4.013  37.564  12.470
94527W        W62921  19.745   8.867  14.405
94528W        W62922  34.803   5.346  12.144
94529W        W62923  34.677  41.699  11.037
94530W        W62924  12.994  27.949  11.513
94531W        W62925  18.622   8.628  11.805
94532W        W62926  22.224  36.319  10.750
94533W        W62927   3.005  44.927  12.387
94534W        W62928  33.375  10.128   2.155
94535W        W62929   3.020  41.640  10.485
94536W        W62930  10.346  38.353   1.693
94537W        W62931  21.613  12.119   4.372
94538W        W62932  11.231  19.734  11.889
94539W        W62933  30.761   1.140   2.288
94540W        W62934  20.511   1.958  12.013
94541W        W62935  22.448  29.229  11.191
94542W        W62936  11.867  18.106  13.483
94543W        W62937   2.829  25.006   4.227
94544W        W62938  34.502  43.830  12.522
94545W        W62939  32.934  11.576   5.033
94546W        W62940  38.576   7.900   4.653
94547W        W62941   3.479  40.060   4.280
94548W        W62942  30.105  43.700   4.421
94549W        W62943  28.677  33.357  11.897
94550W        W62944  32.892  35.497   4.955
94551W        W62945   0.818  12.482  12.215
94552W        W62946  27.208  44.698  13.734
94553W        W62947  10.301  32.227   1.733
94554W        W62948  44.899  12.697  12.736
94555W        W62949   3.666  30.476  13.081
94556W        W62950  38.233   6.844   2.163
94557W        W62951  37.623  10.218  12.091
94558W        W62952  29.905   1.487   0.489
94559W        W62953  31.107  25.767  13.429
94560W        W62954  26.460  11.826  11.152
94561W        W62955  32.553  22.230  13.885
94562W        W62956  24.557  40.041   3.775
94563W        W62957  27.238   1.849   1.365
94564W        W62958  41.771  14.021   1.456
94565W        W62959  12.267   1.968   2.630
94566W        W62960  32.646  19.680  12.037
94567W        W62961  16.279  17.114  14.847
94568W        W62962   4.753  16.026  14.350
94569W        W62963   8.439  37.920  13.398
94570W        W62964  34.005  23.215  12.672
94571W        W62965  42.410  18.857   2.192
94572W        W62966  18.444  14.695  12.615
94573W        W62967  41.513  20.922  10.544
94574W        W62968  39.430  31.011  11.914
94575W        W62969  36.383  41.842   0.203
94576W        W62970  43.778  39.300  11.951
94577W        W62971  35.664  39.113  11.175
94578W        W62972  13.632   9.369  10.734
94579W        W62973  29.895  28.640  11.170
94580W        W62974  36.385  13.855   0.271
94581W        W62975  21.226  36.525   2.986
94582W        W62976   9.943  29.521   1.749
94583W        W62977  14.627  28.988   1.682
94584W        W62978  36.846   5.098  12.050
94585W        W62979   7.645  13.701   4.212
94586W        W62980  21.806   0.348   3.711
94587W        W62981  28.868   0.703   2.328
94588W        W62982  41.979   3.943  14.065
94589W        W62983  41.264   0.970  12.885
94590W        W62984  34.440  31.140  11.181
94591W        W62985  13.186  37.593   1.863
94592W        W62986  34.435  33.071  10.541
94593W        W62987  14.384  36.347  14.329
94594W        W62988  14.412  40.306   1.775
94595W        W62989   6.706  34.899  11.105
94596W        W62990  41.040  39.993   1.472
94597W        W62991   4.905  43.661   4.523
94598W        W62992  31.190   1.920  13.442
94599W        W62993  29.544  25.693   4.638
94600W        W62994  11.908  28.766  14.416
94601W        W62995  11.695  25.582   2.821
94602W        W62996   4.966   9.295  14.367
94603W        W62997  40.334  44.818   3.077
94604W        W62998  27.566   6.659   3.385
94605W        W62999  16.035  27.416   2.356
94606W        W63000  43.819  31.334  14.563
94607W        W63001  35.139   6.329  13.274
94608W        W63002  40.406  15.517   3.211
94609W        W63003   7.282   1.395  10.578
94610W        W63004  43.785  30.384   0.995
94611W        W63005  30.526  13.510  12.547
94612W        W63006  27.626   3.514  13.435
94613W        W63007   0.885   0.751  14.405
94614W        W63008  19.491  11.991   4.548
94615W        W63009  38.778  42.551  13.010
94616W        W63010  25.693   3.571   1.364
94617W        W63011  35.171  34.888   4.611
94618W        W63012  11.611   2.433   3.251
94619W        W63013  43.243  17.188  12.807
94620W        W63014  14.773   4.198  10.229
94621W        W63015   3.978   0.772   3.276
94622W        W63016  12.805  43.852   3.895
94623W        W63017  24.819  28.178  11.492
94624W        W63018  30.120  15.275   3.665
94625W        W63019  38.061  40.878  10.717
94626W        W63020  15.996   6.859  12.343
94627W        W63021  10.899   5.248  11.649
94628W        W63022  27.133  10.430  12.789
94629W        W63023  19.651  10.727  12.604
94630W        W63024  42.846  38.573   2.766
94631W        W63025  32.849  18.922   2.903
94632W        W63026  21.747   0.232   4.232
94633W        W63027   2.033  17.755   1.220
94634W        W63028   9.679   2.288   4.448
94635W        W63029  43.840   3.040  11.104
94636W        W63030  16.940  43.935  10.280
94637W        W63031  42.341   3.892  12.791
94638W        W63032  13.751  27.976  12.502
94639W        W63033  10.044   9.101  12.039
94640W        W63034   3.733  40.560   2.241
94641W        W63035  42.001   0.771  13.443
94642W        W63036  28.241  40.004   4.883
94643W        W63037  32.877  14.224   3.536
94644W        W63038  39.167  31.091  14.573
94645W        W63039  38.246  14.105  12.516
94646W        W63040  28.645  44.868   5.022
94647W        W63041  29.615   0.313  14.978
94648W        W63042  25.662  41.907   1.688
94649W        W63043  19.002  18.252   2.569
94650W        W63044  23.106  38.579   2.757
94651W        W63045  14.615  37.400   1.720
94652W        W63046   4.363  29.899  11.665
94653W        W63047  43.027  28.646   2.214
94654W        W63048  33.941  26.727  12.388
94655W        W63049  24.178  17.126  14.858
94656W        W63050  42.480  18.612   2.662
94657W        W63051  36.010  29.120   0.944
94658W        W63052  19.189   9.244  14.970
94659W        W63053  39.434  11.934  13.415
94660W        W63054  35.551   5.452   1.851
94661W        W63055   6.140  36.456   1.919
94662W        W63056   9.764  35.847   1.694
94663W        W63057  23.995  22.692  14.857
94664W        W63058  17.486   8.076  10.330
94665W        W63059  15.097  28.782  10.723
94666W        W63060  10.640   5.996   1.288
94667W        W63061   3.316   0.353   4.545
94668W        W63062  36.947  40.189   4.277
94669W        W63063  33.184  28.910   4.722
94670W        W63064  32.078  14.661   0.824
94671W        W63065   1.470  11.191   0.250
94672W        W63066   8.767  35.933   1.425
94673W        W63067   4.475  13.044   5.080
94674W        W63068  33.667   2.907   0.415
94675W        W63069  42.275  40.950   1.000
94676W        W63070  30.200  42.985   3.718
94677W        W63071  42.022  43.355  11.135
94678W        W63072  28.495  27.626  13.030
94679W        W63073  22.639  20.354  14.118
94680W        W63074  33.463  26.741  13.354
94681W        W63075  11.226  33.546   3.680
94682W        W63076  11.147   8.984  12.027
94683W        W63077  28.683  25.261   3.685
94684W        W63078   3.561  39.031  10.581
94685W        W63079  34.535  10.859  11.723
94686W        W63080   0.385  27.989   2.171
94687W        W63081  19.587  38.855   0.927
94688W        W63082  29.591  35.099  12.142
94689W        W63083  44.655   5.352   0.355
94690W        W63084   7.184  12.044  13.383
94691W        W63085  37.473  14.792  11.150
94692W        W63086  32.091  27.734  12.488
94693W        W63087   8.166  12.192   4.233
94694W        W63088  11.826  20.567  10.650
94695W        W63089  24.100  26.095   3.402
94696W        W63090  35.528   3.347  12.376
94697W        W63091  15.872  27.901   1.481
94698W        W63092  24.254  23.626   1.400
94699W        W63093  25.255  42.067   1.970
94700W        W63094   7.747   9.058  11.578
94701W        W63095  26.147  31.983  13.871
94702W        W63096  37.505  21.504  14.764
94703W        W63097  23.810   9.387  10.776
94704W        W63098  31.626  27.931  14.717
94705W        W63099  43.911  36.571   0.365
94706W        W63100  30.619   7.146   3.825
94707W        W63101  34.078  36.864   2.763
94708W        W63102  16.266  11.580   2.737
94709W        W63103  30.008  36.012  11.580
94710W        W63104  12.711  20.209   3.692
94711W        W63105   9.805   3.354  11.129
94712W        W63106  43.489  41.778   3.946
94713W        W63107  17.298  38.638   4.101
94714W        W63108  28.090  16.134   0.285
94715W        W63109  31.602  37.975  11.462
94716W        W63110  40.350  37.325  11.042
94717W        W63111  39.904  10.614  14.135
94718W        W63112   9.253  34.905   3.662
94719W        W63113  29.612  25.222  12.440
94720W        W63114   6.199  17.360  12.067
94721W        W63115  43.895  11.131  13.402
94722W        W63116  16.707  38.075   3.382
94723W        W63117  16.209   6.522   0.726
94724W        W63118  31.353   6.890   2.575
94725W        W63119  39.553  26.317  11.558
94726W        W63120   0.802  25.485  11.265
94727W        W63121   3.887  35.683   1.552
94728W        W63122  14.498   8.766  12.018
94729W        W63123  16.472  43.164  13.607
94730W        W63124  26.820  11.608  14.095
94731W        W63125  17.524   7.459   2.663
94732W        W63126  21.577   2.316   1.898
94733W        W63127   2.294  41.359   0.822
94734W        W63128  34.946  16.421   0.892
94735W        W63129   9.355  43.670  13.512
94736W        W63130  13.104  18.128  12.521
94737W        W63131  14.818  27.149  11.285
94738W        W63132  24.965  35.819  13.095
94739W        W63133  26.604  22.074  11.258
94740W        W63134  34.345   6.143   3.676
94741W        W63135  26.632   2.886   1.975
94742W        W63136  22.158  15.268  10.759
94743W        W63137  19.340  41.013   0.918
94744W        W63138  41.305  10.216  12.434
94745W        W63139  37.024  44.816  11.222
94746W        W63140  10.341   4.837   0.684
94747W        W63141  18.796  30.936  14.385
94748W        W63142  36.757  10.674   0.336
94749W        W63143   5.349  42.739   4.652
94750W        W63144  33.525  26.738   0.500
94751W        W63145   3.047   0.399  14.732
94752W        W63146  33.769   4.103  10.046
94753W        W63147  24.040  34.368   0.812
94754W        W63148  43.088  38.484   4.625
94755W        W63149  29.745  44.074   4.224
94756W        W63150  18.554  23.618  12.949
94757W        W63151  42.216  22.700   2.128
94758W        W63152  34.086  38.352   3.822
94759W        W63153  17.324   0.942  11.119
94760W        W63154  39.510  40.065   3.552
94761W        W63155   4.157  26.398  14.852
94762W        W63156  32.807  19.432   2.793
94763W        W63157   6.140  35.844  11.639
94764W        W63158  41.910   9.891   3.109
94765W        W63159  29.390  14.818  12.485
94766W        W63160  35.611  34.870   0.525
94767W        W63161   6.813   5.284   2.856
94768W        W63162   5.018   1.010  11.733
94769W        W63163   4.908  41.993   1.567
94770W        W63164  10.540  13.278  14.866
94771W        W63165  43.898  26.341   4.622
94772W        W63166  12.574  41.091   3.657
94773W        W63167  37.880  18.734  13.647
94774W        W63168  32.479   3.818   4.934
94775W        W63169  38.781  10.184   2.760
94776W        W63170  44.923  21.557  12.931
94777W        W63171  23.868   1.456   2.262
94778W        W63172  44.910  27.791  13.696
94779W        W63173  28.713  36.088   0.299
94780W        W63174  30.152   0.971  13.811
94781W        W63175  29.819  41.371  11.054
94782W        W63176  36.616   9.887  14.862
94783W        W63177  28.541   0.275  11.664
94784W        W63178   5.145  11.658  12.496
94785W        W63179   1.021   4.838  12.939
94786W        W63180  37.346  18.741  12.845
94787W        W63181  24.507  21.774   3.244
94788W        W63182  20.481  26.513   2.278
94789W        W63183  38.082   3.186   0.653
94790W        W63184  19.271  22.722   2.670
94791W        W63185  44.014  21.832   2.467
94792W        W63186  24.107   8.614   4.549
94793W        W63187  31.780  11.598  10.489
94794W        W63188  43.612   5.255  11.429
94795W        W63189  35.825   7.238   3.738
94796W        W63190   1.760  35.090  12.023
94797W        W63191  11.038  11.784   3.212
94798W        W63192  31.005   7.473  12.120
94799W        W63193   5.731  43.971  10.783
94800W        W63194  41.609   7.736  14.749
94801W        W63195  23.983  30.710   4.160
94802W        W63196  25.019   0.014   5.004
94803W        W63197   9.051  36.874   2.156
94804W        W63198  22.871  18.335   1.159
94805W        W63199   5.282  14.777  11.586
94806W        W63200  37.837  15.982  14.991
94807W        W63201  32.533   6.190  11.099
94808W        W63202  19.949  32.427   1.763
94809W        W63203  15.323  43.295   2.823
94810W        W63204  10.547  18.309  12.466
94811W        W63205  27.591  22.691   2.706
94812W        W63206  25.608   5.183  11.477
94813W        W63207   9.557  26.093   2.751
94814W        W63208  37.869  23.209   4.130
94815W        W63209   4.284  28.960   4.108
94816W        W63210   3.788  24.550   0.481
94817W        W63211  27.414  20.179   3.708
94818W        W63212  10.832  32.553  12.949
94819W        W63213   0.026  10.189  11.575
94820W        W63214  13.165  15.154  13.540
94821W        W63215  33.744   1.240  14.223
94822W        W63216   7.842  39.565   2.295
94823W        W63217   6.273   6.729   3.768
94824W        W63218  18.759  36.004  10.930
94825W        W63219  23.490  17.790   1.916
94826W        W63220  13.376   2.513  10.592
94827W        W63221   6.659  36.073   2.291
94828W        W63222  13.555  32.165   3.323
94829W        W63223  28.407   3.383  10.610
94830W        W63224  15.123   1.304   0.302
94831W        W63225  34.713  15.759   2.163
94832W        W63226  23.523  14.975   4.602
94833W        W63227  35.539  25.067  10.398
94834W        W63228   9.659  17.180   2.189
94835W        W63229   5.975  38.351  13.437
94836W        W63230  17.581   0.942   1.637
94837W        W63231  44.021  15.568   1.920
94838W        W63232  43.762   4.446   0.831
94839W        W63233  35.881  28.087  13.740
94840W        W63234  21.678   2.421   0.547
94841W        W63235  29.094   0.358  13.891
94842W        W63236  22.877  44.349  12.850
94843W        W63237  18.779  30.638  12.060
94844W        W63238  22.173  16.293  12.924
94845W        W63239   2.310  40.840   2.439
94846W        W63240  38.913  30.636   4.377
94847W        W63241  18.511  44.885   0.870
94848W        W63242  24.625  37.549  12.130
94849W        W63243  23.551   1.564  14.440
94850W        W63244  10.971  29.443   2.424
94851W        W63245  27.569  37.013   3.880
94852W        W63246   3.007  39.845  12.116
94853W        W63247  40.722   5.373   2.141
94854W        W63248  17.835   3.609  13.267
94855W        W63249  30.693  11.896  11.146
94856W        W63250  22.121   4.923   3.197
94857W        W63251  28.150  13.800   1.952
94858W        W63252   1.608   2.758   1.230
94859W        W63253  14.438  14.694  13.994
94860W        W63254  23.020  40.501   1.890
94861W        W63255   4.441  33.894  11.991
94862W        W63256  15.096  35.826   4.230
94863W        W63257   8.900  27.053  11.410
94864W        W63258  16.147  32.355   0.845
94865W        W63259  31.997  12.954   5.048
94866W        W63260   6.188  36.953   0.205
94867W        W63261   0.702  31.498   0.840
94868W        W63262   4.856  23.066   2.105
94869W        W63263  17.418  27.461  13.008
94870W        W63264   1.384   6.432  12.453
94871W        W63265  12.446  33.327  11.150
94872W        W63266  28.153  17.654   1.282
94873W        W63267   1.559  31.478  14.782
94874W        W63268  44.890  40.501  11.344
94875W        W63269  11.187   4.717   1.324
94876W        W63270  41.811  42.167  13.989
94877W        W63271  28.363  22.475   0.005
94878W        W63272  27.900   9.083  14.802
94879W        W63273   7.323  24.040  11.947
94880W        W63274   9.461  26.209  14.591
94881W        W63275  22.645  26.628   2.027
94882W        W63276  42.098  16.487  11.181
94883W        W63277  28.622  24.933   4.145
94884W        W63278  34.798  19.350   4.061
94885W        W63279  35.036  12.926  13.988
94886W        W63280  10.753  41.534   3.640
94887W        W63281  12.314  11.639   1.246
94888W        W63282   3.982  38.586   4.007
94889W        W63283   9.673  40.820   3.645
94890W        W63284  36.340   4.760  11.031
94891W        W63285   6.332  35.551   0.485
94892W        W63286   6.110   0.895   0.301
94893W        W63287  20.597  19.819  12.373
94894W        W63288  23.605  23.050  14.304
94895W        W63289  41.077   8.475   0.568
94896W        W63290  18.553  44.491  14.885
94897W        W63291  44.350   5.412   4.076
94898W        W63292   4.664  38.565  13.930
94899W        W63293  22.284  43.638  14.422
94900W        W63294   3.751  37.736   3.580
94901W        W63295  14.230   9.205   0.666
94902W        W63296  36.283  39.049  11.214
94903W        W63297  44.021  44.041  11.959
94904W        W63298   3.784  11.266  14.576
94905W        W63299  25.699  11.220   0.471
94906W        W63300   8.099  25.160  14.474
94907W        W63301  23.612  20.148  11.436
94908W        W63302  26.561   4.372   0.344
94909W        W63303  15.245  41.897  10.656
94910W        W63304   6.054  14.669   4.130
94911W        W63305  24.925  16.853   3.289
94912W        W63306  17.588  22.066  14.814
94913W        W63307  27.123  33.320   3.733
94914W        W63308  37.762  32.609   3.421
94915W        W63309  22.077  14.918   4.477
94916W        W63310  18.101  12.531   0.382
94917W        W63311  16.531  23.551  12.918
94918W        W63312  17.650  30.831  13.118
94919W        W63313   2.699  11.591   2.687
94920W        W63314  27.960   3.894   3.600
94921W        W63315  27.577  27.226   1.894
94922W        W63316  36.060  40.484  11.130
94923W        W63317   7.765  15.651   4.555
94924W        W63318  22.567  21.556   4.353
94925W        W63319  10.210  32.159  11.191
94926W        W63320  38.486  20.569   2.884
94927W        W63321  16.399  17.404  12.958
94928W        W63322  36.437  10.329   1.608
94929W        W63323  15.383  13.598   1.515
94930W        W63324  15.153  37.158  12.511
94931W        W63325  40.644  27.223  14.653
94932W        W63326  30.226   2.229   4.035
94933W        W63327  18.206  14.037   0.259
94934W        W63328  13.108  18.651  14.357
94935W        W63329  31.984  11.390  12.487
94936W        W63330  12.869  27.274  12.540
94937W        W63331  41.907  39.576   4.060
94938W        W63332   4.901   1.387   4.249
94939W        W63333  21.757   2.303  12.389
94940W        W63334   8.188  14.842  13.682
94941W        W63335  41.579   2.813   3.008
94942W        W63336  32.770  11.842   2.110
94943W        W63337  30.527  44.791   0.912
94944W        W63338  24.927  29.946  11.922
94945W        W63339   1.991  43.348   3.148
94946W        W63340  10.645  22.700  11.049
94947W        W63341  26.099  35.055   0.447
94948W        W63342  30.534  11.664   1.718
94949W        W63343  43.916  38.380   0.193
94950W        W63344   5.265   0.923   1.349
94951W        W63345   4.399  29.648   0.798
94952W        W63346   5.273  35.955  12.864
94953W        W63347  21.284   4.341  11.530
94954W        W63348  14.743  14.630  12.092
94955W        W63349  20.883  44.918   4.018
94956W        W63350  42.007  19.556  11.979
94957W        W63351  20.687  25.299  11.950
94958W        W63352  39.544  33.450   1.840
94959W        W63353  16.555  38.314   0.416
94960W        W63354  26.098   1.730  14.949
94961W        W63355  43.726  34.853  12.923
94962W        W63356   6.916  27.063  10.250
94963W        W63357  36.013   0.455  14.786
94964W        W63358  41.989  27.443   2.484
94965W        W63359  41.586  37.457   3.588
94966W        W63360  10.275  34.787  13.580
94967W        W63361  16.229   1.836   2.746
94968W        W63362  44.965  38.522  12.496
94969W        W63363  19.827   4.319  13.947
94970W        W63364  29.296  23.567   2.313
94971W        W63365   3.589  39.966  13.486
94972W        W63366  21.300  44.942  12.394
94973W        W63367  43.431  12.061   0.891
94974W        W63368  33.942  44.425   9.548
94975W        W63369  12.797  22.055   4.080
94976W        W63370  30.224  29.408  13.529
94977W        W63371  17.385  40.077  10.721
94978W        W63372  39.976  30.401   3.548
94979W        W63373  36.076  40.015   4.549
94980W        W63374  19.061   9.360   4.165
94981W        W63375  36.034   2.560  14.911
94982W        W63376  22.224  31.960   4.740
94983W        W63377  40.960  32.182   2.428
94984W        W63378  23.495  43.863   1.870
94985W        W63379  37.393  25.949   4.103
94986W        W63380   5.210   0.795   3.814
94987W        W63381   0.471  24.150  13.488
94988W        W63382  33.956  35.483  11.521
94989W        W63383  24.650   3.005   3.835
94990W        W63384  26.027  28.957  10.885
94991W        W63385  25.314  40.605  12.396
94992W        W63386  29.593   4.729   0.259
94993W        W63387   3.476  18.531  12.017
94994W        W63388   3.847  10.623   0.430
94995W        W63389  27.922  27.053   4.502
94996W        W63390  28.718  36.419  14.062
94997W        W63391  31.971  31.521  10.654
94998W        W63392  20.744  35.116   0.693
94999W        W63393  33.482  22.195   2.641
95000W        W63394   2.004  44.479   3.606
95001W        W63395  15.806  29.045  11.055
95002W        W63396  29.573  19.119   2.823
95003W        W63397  27.199  22.098   2.883
95004W        W63398  41.814   3.309  13.473
95005W        W63399  26.540  11.700   1.949
95006W        W63400  26.995  12.371  14.328
95007W        W63401  23.325  14.696  14.782
95008W        W63402   6.905  43.742  14.251
95009W        W63403  32.683  20.292  12.899
95010W        W63404  17.296  29.002  13.946
95011W        W63405  31.461   3.832   3.406
95012W        W63406  40.062  19.832  13.475
95013W        W63407   0.274  22.425  10.785
95014W        W63408  20.931  13.596   3.275
95015W        W63409  42.066  35.393   1.798
95016W        W63410  42.126  43.944  13.510
95017W        W63411  40.913  14.096   4.828
95018W        W63412  31.365  40.001   5.090
95019W        W63413  10.021  36.052  13.721
95020W        W63414  41.162  38.592   4.974
95021W        W63415   3.917  38.051   3.188
95022W        W63416  10.189  21.805   3.784
95023W        W63417  22.582  12.988  12.368
95024W        W63418  32.040   5.731  12.993
95025W        W63419  17.283  18.479  12.424
95026W        W63420   0.906  20.733   2.745
95027W        W63421   5.170  15.966   4.527
95028W        W63422  14.758  43.189   0.964
95029W        W63423  27.949  31.523  12.977
95030W        W63424  21.925  17.561  12.526
95031W        W63425  33.277  20.595   2.227
95032W        W63426  26.705  15.232   4.618
95033W        W63427  36.983   9.338   4.317
95034W        W63428  34.898  37.402   4.026
95035W        W63429   6.779  33.995   0.037
95036W        W63430   8.340  35.484  13.873
95037W        W63431   8.091   3.246   2.303
95038W        W63432  39.012  14.043   4.470
95039W        W63433   7.350  28.821   2.181
95040W        W63434   5.665  25.119   3.180
95041W        W63435  23.708  22.291  12.035
95042W        W63436  37.031  15.250   0.809
95043W        W63437  39.499  11.881   2.824
95044W        W63438  36.170  33.573  14.526
95045W        W63439  15.585  16.624  14.282
95046W        W63440  23.452  18.182   0.301
95047W        W63441  43.407  19.091   4.049
95048W        W63442  16.820  43.691  14.949
95049W        W63443  20.764   6.830  12.562
95050W        W63444  12.562  19.198  13.832
95051W        W63445  40.000  11.731   1.699
95052W        W63446   8.085  12.358   4.723
95053W        W63447  40.000  26.024  11.547
95054W        W63448  20.812   0.310  13.019
95055W        W63449  18.027  33.476  11.087
95056W        W63450  32.047  15.048  10.605
95057W        W63451  26.662  10.713  10.605
95058W        W63452   9.549   6.898   3.101
95059W        W63453  40.394   0.182   4.315
95060W        W63454  32.859   1.486   4.794
95061W        W63455  30.380  31.514  11.948
95062W        W63456  24.223  18.855  11.692
95063W        W63457  13.627  22.586  11.514
95064W        W63458  27.583   6.829   4.300
95065W        W63459  24.454  44.133  11.101
95066W        W63460  34.865   6.702   2.454
95067W        W63461  13.123  31.582   2.806
95068W        W63462  21.284  11.843  12.448
95069W        W63463  28.758   4.344  14.319
95070W        W63464  14.331  14.877   2.818
95071W        W63465  41.332  40.484  12.914
95072W        W63466   0.318  35.988  13.354
95073W        W63467  29.044  12.406   4.526
95074W        W63468  37.009   4.240  10.578
95075W        W63469   7.195  39.103  10.708
95076W        W63470  25.633  29.725   1.233
95077W        W63471  19.202  35.505  13.228
95078W        W63472  36.391  13.798   1.179
95079W        W63473  13.088  41.827  12.878
95080W        W63474   6.837  39.243  13.467
95081W        W63475  24.198  43.816  11.983
95082W        W63476  14.363  36.605   3.746
95083W        W63477  17.495  36.983  12.483
95084W        W63478  13.798  40.245  13.473
95085W        W63479  15.493   1.650   1.694
95086W        W63480  39.764   6.296  11.131
95087W        W63481  37.382  29.612   2.816
95088W        W63482   1.200  12.719   4.714
95089W        W63483   2.915   5.717   0.103
95090W        W63484   9.829  16.176  14.888
95091W        W63485   4.490  12.098  12.028
95092W        W63486  28.229   1.349   2.268
95093W        W63487   3.471  35.666  13.394
95094W        W63488  18.898  43.400  13.609
95095W        W63489  37.839  13.917   3.165
95096W        W63490  40.118  21.597   0.612
95097W        W63491  22.260   4.095  10.219
95098W        W63492  14.846  18.116  10.549
95099W        W63493  40.742  21.750  11.665
95100W        W63494  41.428  41.578  12.926
95101W        W63495   3.487  32.082  14.365
95102W        W63496  23.608  32.469  11.500
95103W        W63497  18.467  40.660  11.937
95104W        W63498  37.232  12.101  13.464
95105W        W63499   1.052  37.888   3.717
95106W        W63500  12.368  34.055  10.496
95107W        W63501  11.565  16.947   2.078
95108W        W63502  29.199   2.851  12.574
95109W        W63503  32.306  38.991   3.303
95110W        W63504  13.458  19.037  12.010
95111W        W63505  21.450   3.233  12.004
95112W        W63506   0.507   9.819   2.003
95113W        W63507  27.007  42.409  10.129
95114W        W63508  17.818  30.161  11.012
95115W        W63509  21.680  20.513  10.722
95116W        W63510  16.783  28.337  12.374
95117W        W63511  17.712   3.750   3.719
95118W        W63512  26.399  41.797  13.375
95119W        W63513  30.503  32.143   3.973
95120W        W63514  39.539   9.778   0.959
95121W        W63515  14.282  12.046  10.678
95122W        W63516   1.757   1.351   0.984
95123W        W63517   9.815  35.324   1.728
95124W        W63518  39.519  43.507   3.452
95125W        W63519  42.633  18.832   1.340
95126W        W63520   2.472  40.436  11.661
95127W        W63521  40.267  12.072   0.919
95128W        W63522  28.611   8.196  14.585
95129W        W63523   5.776  30.651  10.788
95130W        W63524   0.980  25.351   4.017
95131W        W63525  32.312  35.956   4.102
95132W        W63526   2.871  44.243   2.171
95133W        W63527  24.634  22.223  10.910
95134W        W63528   7.194  29.110   4.222
95135W        W63529   0.955  28.664  13.015
95136W        W63530  24.133  32.961   0.518
95137W        W63531  30.955   8.371   0.766
95138W        W63532  35.069   6.334  12.773
95139W        W63533   9.282  19.073   2.770
95140W        W63534  42.262  23.285  14.446
95141W        W63535  27.280  36.586   2.792
95142W        W63536  17.556  27.908   4.217
95143W        W63537  40.429   0.755   3.352
95144W        W63538  15.071   0.737  13.014
95145W        W63539  13.303  18.159  14.483
95146W        W63540  25.060  44.761   3.922
95147W        W63541  43.514  23.339  13.501
95148W        W63542  25.489  33.026  11.839
95149W        W63543  20.505  31.639   2.663
95150W        W63544  37.936   8.920   2.835
95151W        W63545  44.095   7.734  11.065
95152W        W63546  30.885   3.115   2.923
95153W        W63547  18.396   3.284   4.192
95154W        W63548  27.473   3.633  12.566
95155W        W63549  11.689  13.601   3.284
95156W        W63550  17.058  44.568  13.980
95157W        W63551  18.305   0.229  10.563
95158W        W63552  33.565  25.717   4.106
95159W        W63553  16.041  34.907  14.838
95160W        W63554  34.084  14.961  12.559
95161W        W63555   7.314  39.833  13.049
95162W        W63556  37.637  22.277  11.665
95163W        W63557  14.140  21.554  14.234
95164W        W63558  20.117  18.824   3.638
95165W        W63559  42.542  19.813  10.993
95166W        W63560  22.803  31.503   4.200
95167W        W63561  42.000   7.578   1.872
95168W        W63562  39.804  14.329   1.265
95169W        W63563   6.688  24.628  12.874
95170W        W63564  27.751  41.311  12.469
95171W        W63565   6.889  18.742   2.436
95172W        W63566   4.062  40.914   2.710
95173W        W63567  12.430  29.635  12.547
95174W        W63568  13.603  24.971   1.381
95175W        W63569  13.778   5.751  12.090
95176W        W63570  34.015  26.493  10.533
95177W        W63571  11.845  28.869   4.123
95178W        W63572  15.920  27.914   2.363
95179W        W63573  35.879  30.907  10.550
95180W        W63574  13.158  15.851   2.842
95181W        W63575  26.594  41.113  10.638
95182W        W63576  37.766  41.795   0.867
95183W        W63577  25.015  16.273  10.949
95184W        W63578  10.945  39.362   3.156
95185W        W63579  32.059  10.253   2.657
95186W        W63580  40.520  34.067  12.331
95187W        W63581  18.147   1.933   0.776
95188W        W63582   9.660  12.160   3.229
95189W        W63583  44.413   7.705   3.787
95190W        W63584  14.248  39.301  14.448
95191W        W63585   9.821  26.788   0.907
95192W        W63586  22.524  41.084   3.637
95193W        W63587  43.872  22.945  11.916
95194W        W63588   7.868  10.256   2.313
95195W        W63589   9.922  17.266   1.737
95196W        W63590  37.471  26.056   4.595
95197W        W63591  24.217  44.782   9.762
95198W        W63592  38.838  11.836  14.393
95199W        W63593  33.499  13.831   2.223
95200W        W63594  19.527  19.039  14.903
95201W        W63595   8.492   8.727   4.895
95202W        W63596  39.406  32.326  13.979
95203W        W63597  31.554  36.087   2.748
95204W        W63598  24.635   7.500  12.264
95205W        W63599  30.117  44.192   4.558
95206W        W63600   5.233  17.687   3.608
95207W        W63601  35.793   7.395  12.437
95208W        W63602  13.491  19.303  11.569
95209W        W63603  23.455   7.413   0.438
95210W        W63604  32.453  35.999  14.053
95211W        W63605   9.380  36.947  14.295
95212W        W63606  21.713   7.418   1.470
95213W        W63607  38.067  17.941  12.963
95214W        W63608  41.271  35.349   1.384
95215W        W63609  42.824  19.917  14.443
95216W        W63610   8.225  31.390  12.069
95217W        W63611   2.943  19.594  13.597
95218W        W63612  28.177  29.147   9.887
95219W        W63613  17.589  44.859   3.611
95220W        W63614  13.306  23.821   4.214
95221W        W63615  15.787  14.742   4.142
95222W        W63616  24.224  19.998  12.139
95223W        W63617  19.666  40.935  14.544
95224W        W63618  39.049  41.501  11.523
95225W        W63619  39.070  16.772   1.664
95226W        W63620  35.673   9.232   4.689
95227W        W63621  24.212   8.759  10.164
95228W        W63622   5.816  27.861   2.308
95229W        W63623   9.191  43.756   3.763
95230W        W63624  19.002  30.090  14.566
95231W        W63625  37.587  16.693  11.587
95232W        W63626  15.185  23.070  13.466
95233W        W63627  13.665  41.389   1.823
95234W        W63628   9.873  21.554  11.506
95235W        W63629  44.305  31.664  12.506
95236W        W63630   0.193  29.401   0.191
95237W        W63631  12.616  44.425  12.459
95238W        W63632  33.967  14.041  13.876
95239W        W63633  30.686   6.562   2.706
95240W        W63634  35.373  19.196   2.077
95241W        W63635  14.451  24.838  13.143
95242W        W63636   3.228  24.264  14.718
95243W        W63637  39.456  22.992   3.369
95244W        W63638   7.955   2.818   3.855
95245W        W63639  14.206  23.916   2.659
95246W        W63640  18.568  18.414  13.512
95247W        W63641  42.738  44.040   0.346
95248W        W63642  20.290  30.449  12.793
95249W        W63643  14.350  29.058   0.774
95250W        W63644  33.929  16.890  12.024
95251W        W63645  27.865   2.142   4.145
95252W        W63646  27.804  16.569   0.172
95253W        W63647  35.315  26.862   4.132
95254W        W63648  27.882  16.592  14.366
95255W        W63649  31.980  23.471  11.862
95256W        W63650  36.521   5.934   2.119
95257W        W63651  31.184   9.242  12.918
95258W        W63652  17.416  16.716   0.359
95259W        W63653  37.473  13.656   3.422
95260W        W63654  29.116  22.509   3.427
95261W        W63655  22.625  15.181  11.722
95262W        W63656  17.569   0.879   3.471
95263W        W63657  15.083  24.178  12.954
95264W        W63658  39.620  41.010   2.267
95265W        W63659  28.790  26.671  11.527
95266W        W63660   9.251  32.267   3.195
95267W        W63661   1.026  38.856  14.122
95268W        W63662  44.703  27.413  10.713
95269W        W63663  40.442  15.858  11.508
95270W        W63664  44.295  43.416   4.124
95271W        W63665  18.509  27.677  12.030
95272W        W63666  19.606  13.055   1.282
95273W        W63667   1.211  24.305   1.497
95274W        W63668  14.834   8.826   4.677
95275W        W63669  29.308  41.446  12.600
95276W        W63670  15.249  26.560   4.095
95277W        W63671  40.418  23.148   3.353
95278W        W63672  42.308  27.356  13.180
95279W        W63673  18.225  42.489  11.136
95280W        W63674  15.217  14.750   4.954
95281W        W63675  40.149  27.003  11.554
95282W        W63676  32.719  33.620  10.871
95283W        W63677  42.727  26.624   4.334
95284W        W63678  36.007   3.383   1.934
95285W        W63679  29.846  43.724  11.687
95286W        W63680  17.439  37.390   9.964
95287W        W63681  40.285  15.600   2.225
95288W        W63682  22.515  39.729  10.228
95289W        W63683  11.194  10.934   2.834
95290W        W63684   5.922  43.828  12.513
95291W        W63685  29.144   3.794   4.140
95292W        W63686   9.460  22.149   3.540
95293W        W63687  41.572  31.141  13.752
95294W        W63688  20.393   5.556   0.317
95295W        W63689   5.413  25.835   3.670
95296W        W63690  11.744  41.272  14.975
95297W        W63691  34.869  13.900  11.935
95298W        W63692  16.051  22.691  14.818
95299W        W63693   9.163   9.757   2.396
95300W        W63694  32.638  14.740   4.203
95301W        W63695  18.070   8.729   2.458
95302W        W63696  17.704  10.724  10.697
95303W        W63697  44.385  17.028   1.196
95304W        W63698   6.500  42.007  13.001
95305W        W63699  14.015   2.095   2.305
95306W        W63700  38.063  34.450  12.066
95307W        W63701  17.948  44.509  14.304
95308W        W63702   2.195  24.758   0.792
95309W        W63703  31.088  29.337   1.371
95310W        W63704  18.883  44.493   1.677
95311W        W63705  25.052  14.756   1.129
95312W        W63706  24.929  30.991   2.683
95313W        W63707  27.749  21.792  14.233
95314W        W63708   5.869   0.739  13.230
95315W        W63709  34.860   0.717   4.482
95316W        W63710   1.295  43.314   0.418
95317W        W63711  34.231  24.586  10.766
95318W        W63712  13.114  19.204  12.374
95319W        W63713  13.745   1.821   1.378
95320W        W63714  19.616  32.359   3.705
95321W        W63715   5.188  18.258   5.072
95322W        W63716   7.524  17.096   1.862
95323W        W63717  32.366  12.851  11.661
95324W        W63718  27.686  37.874   0.917
95325W        W63719  32.849  20.982  11.345
95326W        W63720   3.940  19.767   0.406
95327W        W63721  20.603  20.569  11.254
95328W        W63722  41.349  38.768  13.906
95329W        W63723  40.010  30.643  14.980
95330W        W63724  35.146  11.332  13.067
95331W        W63725  25.875  10.382  11.617
95332W        W63726  15.096   4.367   0.833
95333W        W63727  12.353   0.919  11.178
95334W        W63728  18.711  25.617  10.746
95335W        W63729  37.077  40.440   1.796
95336W        W63730  13.460   9.626  11.605
95337W        W63731  22.471  10.334  11.656
95338W        W63732   5.747  30.204   1.888
95339W        W63733  23.213   7.829  12.447
95340W        W63734  42.111   1.203  11.441
95341W        W63735  29.299  32.678   1.531
95342W        W63736  26.941  24.129   4.881
95343W        W63737  25.606  26.131  13.233
95344W        W63738  19.552  35.466  10.814
95345W        W63739  30.452  27.575  12.167
95346W        W63740  42.980  34.965   4.738
95347W        W63741  37.774   4.937  12.492
95348W        W63742  39.173   6.790  12.850
95349W        W63743  39.475  27.466  10.752
95350W        W63744  22.310  44.481   1.409
95351W        W63745  17.292   1.428  14.853
95352W        W63746  26.855  17.977   1.316
95353W        W63747  33.443   9.619   4.122
95354W        W63748  41.041  13.014   0.924
95355W        W63749  15.844  12.904  14.580
95356W        W63750   7.005  43.373  13.891
95357W        W63751  33.787   6.424  14.359
95358W        W63752  15.711  23.570   3.075
95359W        W63753   3.767   4.605   2.037
95360W        W63754  35.303   2.264   5.180
95361W        W63755  16.364  44.824  12.511
95362W        W63756  20.548  13.762   4.464
95363W        W63757  33.516  44.259   0.417
95364W        W63758   3.267   4.667   2.287
95365W        W63759  29.723  40.859   1.836
95366W        W63760   4.257  24.782  10.617
95367W        W63761  30.151  34.849  12.967
95368W        W63762  10.692  43.830  12.561
95369W        W63763  29.058   2.209   2.561
95370W        W63764  43.933  30.031   4.271
95371W        W63765   2.003  21.871  13.024
95372W        W63766  19.269  31.408   3.795
95373W        W63767   2.873  30.957  14.555
95374W        W63768  10.085  13.321  13.792
95375W        W63769  38.273  17.838   0.644
95376W        W63770  15.640  15.106   0.848
95377W        W63771   0.482  14.220  12.376
95378W        W63772  23.632  15.131  12.119
95379W        W63773  28.963  34.981  14.277
95380W        W63774  42.775  34.815   9.926
95381W        W63775  43.985  12.180   2.115
95382W        W63776  43.578   9.222  12.791
95383W        W63777  24.108  30.751  12.943
95384W        W63778  12.634  40.267  12.018
95385W        W63779  27.884   6.504   1.944
95386W        W63780   2.916  34.029   2.655
95387W        W63781   3.434   0.743   0.890
95388W        W63782   3.763  20.314   4.998
95389W        W63783  35.586  38.999   2.576
95390W        W63784  16.420  12.249   0.339
95391W        W63785  15.352  21.442   2.174
95392W        W63786  43.540  21.332   4.599
95393W        W63787  44.786  20.979   3.235
95394W        W63788  36.696  37.876  13.497
95395W        W63789  32.846  17.792  14.400
95396W        W63790   8.984  22.513  11.902
95397W        W63791  37.161  26.502   1.361
95398W        W63792  18.082  31.120   3.233
95399W        W63793  40.145   3.700  10.788
95400W        W63794  28.410  33.593   4.050
95401W        W63795   8.769  27.015   1.695
95402W        W63796  41.420  19.056   3.802
95403W        W63797  18.256  35.313  10.999
95404W        W63798  11.802   9.001   5.023
95405W        W63799  38.647  20.142  12.734
95406W        W63800  38.834  20.039   0.171
95407W        W63801  36.891  41.313   2.986
95408W        W63802  18.641  18.642   4.914
95409W        W63803   3.130  17.266   2.200
95410W        W63804   1.428  23.765  12.014
95411W        W63805  19.171   7.379  11.720
95412W        W63806  16.041  15.856  14.288
95413W        W63807  39.096  31.554   1.743
95414W        W63808  23.963  20.362  12.576
95415W        W63809  25.107   3.299   0.982
95416W        W63810  42.756  33.410   2.375
95417W        W63811   5.857  23.186  11.789
95418W        W63812   5.973  40.030  13.951
95419W        W63813  42.691   8.499  10.746
95420W        W63814  42.543  12.625   4.315
95421W        W63815  23.025  16.220  13.060
95422W        W63816   6.779  17.534   0.608
95423W        W63817   1.916  11.055   2.880
95424W        W63818  30.760   2.017  12.117
95425W        W63819   4.775  28.539  12.168
95426W        W63820   4.798  23.161  13.375
95427W        W63821  24.754  22.427  12.769
95428W        W63822  15.106  36.909   2.283
95429W        W63823  29.609  32.895   3.874
95430W        W63824  43.979  14.747   4.356
95431W        W63825  19.924  12.711  11.615
95432W        W63826  19.218  19.146  12.972
95433W        W63827  24.692  29.867   1.766
95434W        W63828   2.318  32.535  14.031
95435W        W63829  14.133  27.249   0.880
95436W        W63830   0.582  30.150   0.671
95437W        W63831  29.124  39.750  14.602
95438W        W63832   1.404  21.911   1.326
95439W        W63833  18.854  22.528  13.337
95440W        W63834  28.119  15.833  12.560
95441W        W63835  16.706  42.839   2.283
95442W        W63836   5.564  12.377  11.533
95443W        W63837  29.787  11.282   3.848
95444W        W63838  25.442  31.250  14.310
95445W        W63839   3.906  30.144  14.454
95446W        W63840  37.940   5.698   0.084
95447W        W63841  26.553  31.545   1.386
95448W        W63842  34.112  43.865   3.205
95449W        W63843  36.789  36.057  10.776
95450W        W63844  44.715  37.170  12.161
95451W        W63845   6.041  20.574   4.107
95452W        W63846  17.173  12.313   3.376
95453W        W63847  31.804  16.905   3.524
95454W        W63848  35.319  23.072   0.491
95455W        W63849   1.440  39.417   0.311
95456W        W63850  14.822  18.613   3.352
95457W        W63851  16.680  30.173   0.019
95458W        W63852  35.638  31.388   3.636
95459W        W63853  11.620   7.221   3.766
95460W        W63854  37.758  14.155   0.332
95461W        W63855  21.279  35.809   3.687
95462W        W63856  43.942  22.270  14.871
95463W        W63857  31.311  37.543  11.436
95464W        W63858  35.076  43.286   3.714
95465W        W63859  25.516  14.760   1.770
95466W        W63860  22.070  14.396  14.838
95467W        W63861  40.933  23.875   2.861
95468W        W63862  12.364  25.437   2.174
95469W        W63863  37.850  11.743  12.976
95470W        W63864  42.321  20.054   3.761
95471W        W63865  42.588  43.335   0.286
95472W        W63866   3.253  10.613  13.519
95473W        W63867  13.319  16.311   0.928
95474W        W63868  11.216  11.762  11.637
95475W        W63869  35.878  16.381  11.970
95476W        W63870   8.106  11.766  11.488
95477W        W63871  28.279   0.694   0.234
95478W        W63872   7.370   7.636  14.823
95479W        W63873  44.765   5.861  11.186
95480W        W63874  32.629  32.524   4.603
95481W        W63875   7.007  16.583   1.059
95482W        W63876   2.297  23.308  12.855
95483W        W63877   0.868  28.205  13.281
95484W        W63878  41.545  24.173  11.239
95485W        W63879  36.073  33.029  12.137
95486W        W63880  40.848  14.134  14.319
95487W        W63881   5.452  15.606  14.839
95488W        W63882  19.507  16.275  13.877
95489W        W63883   8.078   0.776  11.861
95490W        W63884  29.831  32.695  11.739
95491W        W63885  42.307  17.164   1.703
95492W        W63886  30.700  42.870  13.931
95493W        W63887  27.038  40.277  12.172
95494W        W63888  13.233  42.776  10.309
95495W        W63889  11.351   6.449   4.000
95496W        W63890  18.329  43.392  12.360
95497W        W63891  18.094   1.265  12.586
95498W        W63892  19.620  23.759  10.985
95499W        W63893   3.440  35.471   1.334
95500W        W63894   6.938  37.463  13.404
95501W        W63895   2.777   7.094  12.684
95502W        W63896   4.671  16.283   4.071
95503W        W63897  32.534  38.235   3.685
95504W        W63898   7.401   0.475   0.336
95505W        W63899  11.207  21.696  14.686
95506W        W63900   3.281  38.457   3.699
95507W        W63901  21.093   1.334   1.275
95508W        W63902   1.405  28.117   5.032
95509W        W63903  44.705   1.725   1.286
95510W        W63904  43.964  36.619   0.878
95511W        W63905  15.667   8.335   0.357
95512W        W63906  35.497  40.875   2.699
95513W        W63907  21.045  42.884  14.342
95514W        W63908  22.086  27.088   4.270
95515W        W63909   8.185  24.464  12.585
95516W        W63910   9.425  10.343   0.433
95517W        W63911  40.277  37.979  13.062
95518W        W63912  13.017   6.180  14.505
95519W        W63913   5.292  18.860  13.898
95520W        W63914  27.022  23.147   3.841
95521W        W63915  33.815  16.710   3.589
95522W        W63916  19.519  33.796  11.175
95523W        W63917  19.226  13.130  13.856
95524W        W63918  32.528  33.375  12.975
95525W        W63919  39.429  10.650   2.296
95526W        W63920  39.527  13.195  14.883
95527W        W63921  24.173   9.146  10.520
95528W        W63922   5.540  22.675   3.402
95529W        W63923  15.027  41.573  14.925
95530W        W63924  22.863  31.054  12.506
95531W        W63925  27.567  27.735   1.632
95532W        W63926  16.157  41.816   0.411
95533W        W63927   3.726  18.353   0.963
95534W        W63928  35.827  29.942   2.411
95535W        W63929  42.850  12.937  10.676
95536W        W63930  15.789  33.972  10.654
95537W        W63931   9.887   1.303  14.561
95538W        W63932  30.927  12.858  11.540
95539W        W63933  44.240  24.941   3.845
95540W        W63934   2.954  14.257  14.721
95541W        W63935  40.446  25.644  14.351
95542W        W63936  35.701   9.653   3.238
95543W        W63937  40.304  14.280   2.142
95544W        W63938  13.600  38.187  12.275
95545W        W63939  17.010   7.369  13.421
95546W        W63940  19.709  38.858  14.026
95547W        W63941  25.101  14.870   2.374
95548W        W63942  24.619  43.312  14.826
95549W        W63943   0.747  18.631  12.986
95550W        W63944  27.362  33.951  12.790
95551W        W63945  18.777  16.294   0.469
95552W        W63946   4.830  31.696  11.743
95553W        W63947  41.848  31.882  11.172
95554W        W63948  28.442   9.161  10.674
95555W        W63949  35.527  37.912   2.615
95556W        W63950  10.524  28.150   3.652
95557W        W63951  12.151  36.471   1.182
95558W        W63952  40.567  35.071   4.655
95559W        W63953   4.259  23.664   0.340
95560W        W63954  14.861  12.709   1.076
95561W        W63955  37.424  43.783   1.257
95562W        W63956  21.641   8.808   1.169
95563W        W63957   1.940  26.954   1.221
95564W        W63958   6.567  28.032   5.138
95565W        W63959   9.803  39.494   4.142
95566W        W63960   7.984  39.061  11.155
95567W        W63961  40.545  33.594  11.572
95568W        W63962  40.766  13.684   2.684
95569W        W63963  10.341  32.959   0.763
95570W        W63964  35.553  30.688   0.271
95571W        W63965  30.576  25.234   3.163
95572W        W63966  14.933  13.839   1.442
95573W        W63967  13.555  15.318   4.179
95574W        W63968  29.536  19.623   1.732
95575W        W63969   4.775  10.361   0.810
95576W        W63970  11.771  35.871  13.986
95577W        W63971   2.980  29.140  11.962
95578W        W63972   3.510  28.138   0.839
95579W        W63973  20.676  39.332   4.609
95580W        W63974  31.439   7.462  10.784
95581W        W63975  29.207   2.834  10.633
95582W        W63976  11.633  17.007   0.255
95583W        W63977  11.238  36.528   2.185
95584W        W63978   5.907   7.685   2.192
95585W        W63979  12.821  32.954  14.862
95586W        W63980  13.356  42.398  14.639
95587W        W63981  35.775  11.875   1.157
95588W        W63982  15.161   4.389  13.004
95589W        W63983   6.704  27.677   1.604
95590W        W63984  23.724  23.175  11.240
95591W        W63985   2.339  34.175  13.647
95592W        W63986   7.789   0.950   2.375
95593W        W63987  17.081  44.605  12.628
95594W        W63988  17.200   2.346  14.315
95595W        W63989   5.908  22.731  10.451
95596W        W63990  44.408  29.862   1.821
95597W        W63991  20.468  12.869   1.216
95598W        W63992  37.074  14.194  11.661
95599W        W63993   1.469  17.749   4.509
95600W        W63994  23.044  32.593   4.594
95601W        W63995  14.810   8.711  14.475
95602W        W63996  36.921  22.540   3.726
95603W        W63997  38.559  13.537  10.739
95604W        W63998  18.256  10.520   4.140
95605W        W63999  26.657   4.375   3.723
95606W        W64000  21.123   1.856   1.412
95607W        W64001   9.816  38.341   4.217
95608W        W64002  41.041  29.986   1.118
95609W        W64003  20.271   7.744   4.867
95610W        W64004  35.446  43.276  13.450
95611W        W64005   1.957  36.332   4.428
95612W        W64006  12.136   4.358  12.818
95613W        W64007  20.179  42.557   4.121
95614W        W64008  33.020  18.473   3.650
95615W        W64009  28.169  18.193   3.689
95616W        W64010  43.536  34.644  14.548
95617W        W64011  34.597  27.702   2.379
95618W        W64012  44.744  14.183  12.787
95619W        W64013  37.888  24.512  11.692
95620W        W64014  12.919   4.180   1.386
95621W        W64015  44.675   4.841  12.222
95622W        W64016  36.463  12.674  13.200
95623W        W64017  29.025  41.077  11.453
95624W        W64018  35.570  34.866  13.469
95625W        W64019  38.607  37.841  13.272
95626W        W64020  30.761  18.327   3.315
95627W        W64021  18.204  13.366   4.745
95628W        W64022  42.388   6.431  11.114
95629W        W64023  29.642  17.998  13.094
95630W        W64024   8.703  39.263  13.427
95631W        W64025  37.589  37.832   2.398
95632W        W64026  24.252  35.025  12.524
95633W        W64027   5.949   4.375  11.206
95634W        W64028  31.602  42.760  13.122
95635W        W64029  29.695  18.881  12.034
95636W        W64030  11.797  10.816   1.959
95637W        W64031   6.967  42.922  12.702
95638W        W64032  13.889  21.226   0.807
95639W        W64033  37.157  34.245  12.631
95640W        W64034  23.492  27.884  12.765
95641W        W64035  20.730  11.736  11.436
95642W        W64036  17.466  35.654  13.443
95643W        W64037  40.842  13.375   2.280
95644W        W64038  14.314  19.115  14.212
95645W        W64039  25.219  10.790   1.766
95646W        W64040   4.217  23.761  11.500
95647W        W64041  42.393  32.873  14.891
95648W        W64042   4.315  12.996  14.349
95649W        W64043   8.941   6.583   0.847
95650W        W64044  19.085  16.663  14.691
95651W        W64045  23.466   3.928   0.006
95652W        W64046  38.544   4.794  14.802
95653W        W64047   1.646   3.405   3.036
95654W        W64048  19.074  44.480  14.916
95655W        W64049  37.374   6.249   1.877
95656W        W64050  29.228  34.551   2.770
95657W        W64051  15.978  11.948  13.551
95658W        W64052   2.817   0.589   4.827
95659W        W64053  13.630   4.303   1.885
95660W        W64054  24.648  37.400  10.032
95661W        W64055   2.175  13.723  10.338
95662W        W64056   4.342  15.754   5.411
95663W        W64057  20.611  10.284   0.308
95664W        W64058   6.428  28.181  12.066
95665W        W64059  23.210  21.201  13.396
95666W        W64060  14.375  31.594   2.333
95667W        W64061  41.883  16.099  10.469
95668W        W64062  27.047  19.322  14.971
95669W        W64063  20.219   6.785   3.715
95670W        W64064  41.992  35.206   3.310
95671W        W64065  36.586  25.206  12.977
95672W        W64066   3.857  25.511   1.318
95673W        W64067   1.603  24.478  13.656
95674W        W64068  35.959  28.048   1.340
95675W        W64069   6.012   2.916   0.847
95676W        W64070  27.597  27.635  12.913
95677W        W64071   3.981  30.429  11.151
95678W        W64072  24.220  38.377   0.010
95679W        W64073  10.298  30.253   2.402
95680W        W64074  27.924   4.055  12.603
95681W        W64075  31.309  38.715   1.916
95682W        W64076  36.056  40.997  11.159
95683W        W64077  38.407  42.778   2.045
95684W        W64078   1.336  37.770   1.378
95685W        W64079   6.977  31.193  11.545
95686W        W64080  27.548  11.366  13.006
95687W        W64081  34.648  35.972  13.016
95688W        W64082  20.534  27.281   1.378
95689W        W64083  34.537  28.881  13.445
95690W        W64084   5.117   4.296   2.680
95691W        W64085  12.414  15.763   4.116
95692W        W64086  21.349  21.177  12.938
95693W        W64087   6.316   8.659   2.254
95694W        W64088   7.381  16.098  14.422
95695W        W64089  36.582  43.382   2.198
95696W        W64090   4.810  23.816  13.367
95697W        W64091  21.978  33.997  11.567
95698W        W64092   8.986  21.584   1.922
95699W        W64093  21.703  20.637  12.023
95700W        W64094  38.796   6.969   1.235
95701W        W64095   7.255  25.490  12.057
95702W        W64096  37.620  21.015  10.586
95703W        W64097  37.490   7.722   0.264
95704W        W64098  12.017   6.026   1.296
95705W        W64099  27.567  30.425  13.417
95706W        W64100   1.421   9.382   0.739
95707W        W64101  14.279   1.333  12.826
95708W        W64102  21.595  38.867   0.870
95709W        W64103   3.189  17.482   3.529
95710W        W64104  42.005  36.310  10.898
95711W        W64105  15.627  11.411   3.314
95712W        W64106  16.168  26.970  11.398
95713W        W64107  44.352  15.540   4.554
95714W        W64108   0.131  17.108   0.098
95715W        W64109   0.737   8.857  12.096
95716W        W64110  25.093  22.502   4.086
95717W        W64111   1.248  10.404  14.247
95718W        W64112  13.036  40.804  13.003
95719W        W64113  41.847  15.197  14.223
95720W        W64114   8.680  39.189   3.241
95721W        W64115  19.360  22.694  14.925
95722W        W64116  19.132  42.622   0.851
95723W        W64117  40.003   1.314   4.544
95724W        W64118  41.534  22.629   3.683
95725W        W64119  24.644  23.340   0.521
95726W        W64120  40.063  36.321   2.304
95727W        W64121  16.724  41.669  11.694
95728W        W64122  35.884   3.545   0.038
95729W        W64123  43.032  42.172  14.281
95730W        W64124   0.331  34.941   3.069
95731W        W64125  31.477  39.503   3.046
95732W        W64126  34.024  10.384  12.449
95733W        W64127  17.740  41.061  14.693
95734W        W64128   8.302   6.905  11.696
95735W        W64129  38.649   3.491   1.238
95736W        W64130  28.503  13.691   2.292
95737W        W64131   6.352   9.009  13.266
95738W        W64132  40.024  15.510  14.112
95739W        W64133  17.105  35.833   4.220
95740W        W64134  10.577  36.363  12.576
95741W        W64135  36.345  26.286  14.286
95742W        W64136   0.034  35.630   4.140
95743W        W64137  44.016  31.087  10.740
95744W        W64138  21.762  19.375   4.433
95745W        W64139  43.109  32.096  10.644
95746W        W64140  14.931  35.881  12.153
95747W        W64141  22.825  26.055   3.782
95748W        W64142  33.906  37.404   0.283
95749W        W64143  11.240  41.051   2.371
95750W        W64144  18.472  11.414  12.147
95751W        W64145   6.828  42.465  12.487
95752W        W64146  25.139  19.504  11.934
95753W        W64147  22.025  16.088  11.048
95754W        W64148  32.135  42.602  11.976
95755W        W64149  21.932  11.305   4.102
95756W        W64150   1.028  40.014   0.932
95757W        W64151   4.552  15.801   4.947
95758W        W64152  21.235   9.911  10.222
95759W        W64153  28.451   0.048   3.673
95760W        W64154  28.060  34.975   2.439
95761W        W64155  35.894  25.617   4.084
95762W        W64156  36.078  30.629  13.554
95763W        W64157   1.322  18.561  11.334
95764W        W64158  29.165  43.657   1.690
95765W        W64159  34.445  16.677  12.884
95766W        W64160   6.026  24.406  14.009
95767W        W64161   9.351  39.525   4.385
95768W        W64162  28.031  12.894  13.451
95769W        W64163  37.481  18.483  12.327
95770W        W64164  13.146  33.942   2.672
95771W        W64165  40.068  35.317  13.378
95772W        W64166  16.579  37.665  11.979
95773W        W64167  38.484  35.930   0.855
95774W        W64168  44.867   8.518   2.947
95775W        W64169  39.464  14.325   3.962
95776W        W64170   8.885  21.015   2.760
95777W        W64171  11.926  41.599   3.034
95778W        W64172  21.847  20.563  12.514
95779W        W64173   3.550  39.953  12.482
95780W        W64174  41.565  28.039  12.493
95781W        W64175  17.104  19.225  11.697
95782W        W64176  35.597  21.870   3.087
95783W        W64177  14.604   3.897  13.746
95784W        W64178   8.881  23.144  12.558
95785W        W64179  24.157  32.640  14.068
95786W        W64180  22.406  26.683  13.509
95787W        W64181   1.862  17.654   2.544
95788W        W64182  17.551  25.190   1.859
95789W        W64183  43.604  13.898   1.376
95790W        W64184   8.178   1.272   0.216
95791W        W64185  29.860  26.050   0.841
95792W        W64186  10.122  13.625   2.298
95793W        W64187   1.769  36.834  14.873
95794W        W64188  29.647  10.541  12.440
95795W        W64189  22.584  13.535  12.359
95796W        W64190  17.181  29.902  12.436
95797W        W64191   6.796  17.241   2.336
95798W        W64192  30.587   2.548   4.165
95799W        W64193  29.929   2.279  11.610
95800W        W64194   0.718  34.780   2.767
95801W        W64195   1.502   2.398  12.377
95802W        W64196  36.427   3.717  11.527
95803W        W64197  29.746  41.005  11.912
95804W        W64198  20.102  33.073  11.938
95805W        W64199  13.800   3.885   1.611
95806W        W64200  24.194  39.076   1.954
95807W        W64201  44.796   9.632   1.273
95808W        W64202  29.566  15.079  10.720
95809W        W64203   3.669  38.780  13.923
95810W        W64204   8.780  15.169  11.155
95811W        W64205  16.987  22.293  10.698
95812W        W64206  37.905   0.421   3.321
95813W        W64207  17.204  22.350  14.026
95814W        W64208  35.431   4.722  12.766
95815W        W64209  35.666  25.922   2.842
95816W        W64210  40.592  19.600  11.148
95817W        W64211  40.820  27.894  14.068
95818W        W64212  17.836  21.718  13.540
95819W        W64213  32.175  18.668   3.238
95820W        W64214  10.839  40.044  13.030
95821W        W64215  35.333   5.900  12.622
95822W        W64216  37.912  26.171   0.703
95823W        W64217  24.644  28.024  12.088
95824W        W64218   4.841  17.310   1.356
95825W        W64219   4.837  31.696  10.584
95826W        W64220  22.045  14.885   1.798
95827W        W64221  25.201  31.686  11.662
95828W        W64222  20.950  35.442   3.468
95829W        W64223  17.911  42.022   4.130
95830W        W64224   7.656  38.952  11.624
95831W        W64225  24.808  38.559  14.278
95832W        W64226  35.582  24.538   2.644
95833W        W64227  24.752   0.993  14.136
95834W        W64228  40.950   5.917   0.720
95835W        W64229   5.426  36.065  14.956
95836W        W64230  33.096   5.357   0.984
95837W        W64231  37.258  13.627   2.380
95838W        W64232   6.073  12.288  11.572
95839W        W64233   0.777  16.667  11.092
95840W        W64234   3.840  21.458  13.886
95841W        W64235  42.918  35.285   9.710
95842W        W64236  22.288  32.388  13.549
95843W        W64237   8.428  39.263   4.888
95844W        W64238  43.938   7.432   2.596
95845W        W64239  24.709  26.641  10.739
95846W        W64240  22.199   3.731   4.892
95847W        W64241  36.932   4.210   3.359
95848W        W64242  33.993  38.988   1.769
95849W        W64243  32.592   3.299  10.708
95850W        W64244   2.444  22.195  13.982
95851W        W64245  10.935  28.123   0.382
95852W        W64246   7.836  14.143   4.046
95853W        W64247  28.915  35.877   4.353
95854W        W64248  20.479   1.832  13.877
95855W        W64249  19.510  43.286  11.138
95856W        W64250  41.160  17.059   2.386
95857W        W64251   2.801  15.967  14.484
95858W        W64252  41.867  39.034  12.075
95859W        W64253  15.614  13.839   4.664
95860W        W64254  42.198  20.683  12.045
95861W        W64255  42.685  10.244  13.612
95862W        W64256   6.795  30.157  12.962
95863W        W64257  13.142  23.589  12.248
95864W        W64258  24.156  11.956   3.724
95865W        W64259  34.938  20.722   2.870
95866W        W64260  12.040  41.020  11.897
95867W        W64261  39.942   4.652  14.003
95868W        W64262  23.927   6.767  14.550
95869W        W64263  13.321  24.809  11.599
95870W        W64264   0.216  13.743   2.204
95871W        W64265  35.165  30.865  13.903
95872W        W64266   0.720  15.810   3.671
95873W        W64267  44.085  38.778   4.744
95874W        W64268  36.301  37.917  11.962
95875W        W64269  27.023  16.808  14.684
95876W        W64270  26.195  37.932  12.486
95877W        W64271   4.448  10.828  14.042
95878W        W64272   5.137  13.225   3.631
95879W        W64273  15.621  19.605  10.540
95880W        W64274  16.522  40.964   0.292
95881W        W64275  24.586   9.385  10.309
95882W        W64276  10.847   6.728   4.226
95883W        W64277  34.805  21.337  13.656
95884W        W64278   3.438   4.780   0.875
95885W        W64279  33.690   1.124   0.242
95886W        W64280  33.199  30.562  12.935
95887W        W64281  44.800   8.621   1.164
95888W        W64282  16.694  20.540   4.503
95889W        W64283  28.468  23.924  12.920
95890W        W64284  10.271  28.831  12.974
95891W        W64285  12.946  15.644   3.273
95892W        W64286  33.132   7.901   1.772
95893W        W64287  24.139  30.397   0.053
95894W        W64288  41.210  28.435  11.488
95895W        W64289  40.598  12.589  13.055
95896W        W64290  22.643  20.846  12.272
95897W        W64291  39.490   7.131   3.664
95898W        W64292  21.148   4.363  12.481
95899W        W64293  14.417  13.638  12.939
95900W        W64294   3.929  32.163  14.056
95901W        W64295  22.963  12.886   3.223
95902W        W64296  33.471  16.241   2.406
95903W        W64297  15.619  30.450  14.276
95904W        W64298  21.847  16.648  10.754
95905W        W64299  39.935  38.803   0.162
95906W        W64300   4.683  27.388  10.495
95907W        W64301  24.625   1.793  14.975
95908W        W64302  36.858  29.393   1.737
95909W        W64303  31.234  41.976  13.788
95910W        W64304   8.207  24.105   3.343
95911W        W64305  20.493  40.330  11.688
95912W        W64306   8.648  11.976   4.192
95913W        W64307  13.763  14.629   4.814
95914W        W64308  44.243  14.534   2.985
95915W        W64309   0.409  20.761   4.958
95916W        W64310  23.287   9.197   4.142
95917W        W64311  28.923  33.024  10.786
95918W        W64312  19.126  29.179   4.648
95919W        W64313  31.621  17.539   3.947
95920W        W64314  21.941  39.982  13.375
95921W        W64315  16.992  15.066   4.687
95922W        W64316  26.194  22.772   2.890
95923W        W64317  13.313  37.542  14.055
95924W        W64318  12.140   3.653  13.471
95925W        W64319  38.367  18.772  11.082
95926W        W64320  31.012   2.215   3.296
95927W        W64321  22.498  37.717  11.187
95928W        W64322  20.210  34.298   2.355
95929W        W64323   5.068   9.365  10.664
95930W        W64324  30.423  31.488   0.063
95931W        W64325  37.673  13.819  10.713
95932W        W64326  10.004  39.315   1.866
95933W        W64327  12.697  19.662  14.987
95934W        W64328   0.342   4.777   4.478
95935W        W64329   3.550  22.212  14.302
95936W        W64330  21.636  23.677   0.507
95937W        W64331   5.340  21.636  14.939
95938W        W64332  17.184  30.091   3.592
95939W        W64333  17.614  29.612  12.452
95940W        W64334  14.989  15.652   4.686
95941W        W64335  15.023  31.945   3.937
95942W        W64336  26.132   1.231   1.746
95943W        W64337  14.274  16.560  10.481
95944W        W64338  36.330  20.157  12.592
95945W        W64339  36.870  43.320  10.632
95946W        W64340  31.905  31.816  11.620
95947W        W64341  13.829  44.987   0.494
95948W        W64342  40.994   9.732   1.794
95949W        W64343  17.559  11.564   3.423
95950W        W64344  13.311  38.819   1.102
95951W        W64345  24.770   2.737  12.898
95952W        W64346  15.108  34.691  13.803
95953W        W64347  22.053   8.307   3.427
95954W        W64348  26.210   9.188   0.396
95955W        W64349  21.170   9.935  12.162
95956W        W64350  19.518   8.111   0.936
95957W        W64351  21.679  30.685  11.545
95958W        W64352  10.694   2.985  14.512
95959W        W64353  14.105  26.210   3.828
95960W        W64354  22.423   3.746   4.430
95961W        W64355  26.469  25.682   5.179
95962W        W64356  42.435  24.381  11.610
95963W        W64357   9.861  12.840  11.710
95964W        W64358  31.459  17.975   3.734
95965W        W64359  16.518  31.186  12.237
95966W        W64360  43.809  29.129   0.021
95967W        W64361  37.096   6.235  14.912
95968W        W64362   8.947  37.632   3.673
95969W        W64363   3.943  23.956   2.718
95970W        W64364  11.826  18.070   3.474
95971W        W64365   8.117   9.899   0.594
95972W        W64366   3.003  20.600   3.576
95973W        W64367   7.689  15.690  11.999
95974W        W64368  12.897   5.956   0.949
95975W        W64369   6.376  21.321  11.790
95976W        W64370  40.569   6.723  14.783
95977W        W64371  41.830  30.189   3.486
95978W        W64372  31.910  24.422  14.669
95979W        W64373  33.634   7.790   1.763
95980W        W64374  12.306   8.918   3.155
95981W        W64375  40.816  17.188   1.223
95982W        W64376  40.378  33.147   5.022
95983W        W64377  29.333  28.060  10.809
95984W        W64378   6.762   3.304  12.986
95985W        W64379  15.917  31.476   0.103
95986W        W64380  39.840   6.342   4.328
95987W        W64381   5.925   2.962   5.233
95988W        W64382  31.399  20.296   3.322
95989W        W64383  34.928  19.529   1.489
95990W        W64384   4.664  24.635  10.120
95991W        W64385  27.859  41.552   2.990
95992W        W64386  14.707  30.903   2.277
95993W        W64387  16.819  41.399   1.952
95994W        W64388  16.657  15.715   0.814
95995W        W64389  29.082   5.504   4.613
95996W        W64390  30.664  26.575   0.089
95997W        W64391  26.697   7.388  12.090
95998W        W64392  27.058   6.780  12.226
95999W        W64393  29.484   2.371   3.406
96000W        W64394  26.166  13.316  13.854
96001W        W64395   5.443  29.782  11.029
96002W        W64396  17.845   1.435  14.172
96003W        W64397   9.607   4.020   5.131
96004W        W64398  34.036  19.471   1.355
96005W        W64399  41.507   5.779   4.091
96006W        W64400   8.132  10.179   4.161
96007W        W64401  10.683  22.509  12.947
96008W        W64402  18.753  10.108   2.676
96009W        W64403   4.510  41.183  12.146
96010W        W64404  28.067   7.779   0.299
96011W        W64405  11.778   2.718  13.927
96012W        W64406  14.280   1.242   2.665
96013W        W64407  22.215   4.225   3.398
96014W        W64408   8.755   5.026   2.323
96015W        W64409  18.305   5.873  14.419
96016W        W64410  17.872  17.115  14.725
96017W        W64411  41.254   5.616   2.616
96018W        W64412   9.255  42.072  11.275
96019W        W64413   4.555   2.086   0.895
96020W        W64414  33.457  30.421   4.286
96021W        W64415  43.369  35.619  12.910
96022W        W64416  21.581  26.407  13.648
96023W        W64417  26.243  13.324   3.562
96024W        W64418  29.543   2.335   2.410
96025W        W64419   0.488  19.315  14.170
96026W        W64420  44.985  42.700  12.902
96027W        W64421  15.607  35.863  11.456
96028W        W64422   7.441  43.498  14.151
96029W        W64423   7.477  37.482  11.900
96030W        W64424   9.229   4.093   2.816
96031W        W64425  21.151   5.229   4.163
96032W        W64426  25.649  15.073  11.072
96033W        W64427  37.375  28.117   4.515
96034W        W64428  22.181  16.321   4.318
96035W        W64429   6.668  41.726   4.254
96036W        W64430  37.423  30.411  11.260
96037W        W64431  34.802  17.952   3.927
96038W        W64432  12.862  39.456  11.416
96039W        W64433  27.249  32.738  14.306
96040W        W64434  44.275  26.922  10.699
96041W        W64435  36.729  22.640   4.950
96042W        W64436  42.439  33.119   0.338
96043W        W64437  18.764  37.456  12.365
96044W        W64438  27.551   7.192  13.137
96045W        W64439  30.229   5.096   4.178
96046W        W64440  20.369  30.228  11.693
96047W        W64441  16.473  17.086  14.340
96048W        W64442  44.445  17.146  13.445
96049W        W64443   7.695   3.677   3.932
96050W        W64444  34.836  39.545  12.496
96051W        W64445  17.046   8.914  12.748
96052W        W64446  15.573  19.901   4.965
96053W        W64447  40.567  11.562   2.332
96054W        W64448  33.427   2.976  10.703
96055W        W64449  21.785  15.606  10.870
96056W        W64450  41.246  23.518  11.936
96057W        W64451   5.518  36.901   3.656
96058W        W64452  12.609  37.411   3.393
96059W        W64453   9.852  41.918   0.085
96060W        W64454  24.132   4.506   4.509
96061W        W64455  33.696  28.943  12.902
96062W        W64456   7.336   1.007  12.453
96063W        W64457  15.193  22.461  14.714
96064W        W64458  15.161  43.884   0.041
96065W        W64459  32.392  30.898   1.636
96066W        W64460   4.706   0.812  14.216
96067W        W64461   0.595   8.198  12.499
96068W        W64462  16.311  23.923   2.877
96069W        W64463  24.826  26.231   0.882
96070W        W64464  22.223   4.283  12.557
96071W        W64465  38.947  18.678   1.899
96072W        W64466  18.604  10.608  14.817
96073W        W64467  41.437  38.541   1.363
96074W        W64468  12.074   9.698  14.445
96075W        W64469   6.246  23.040   2.257
96076W        W64470  24.765  24.902   1.136
96077W        W64471  43.416  40.863   4.502
96078W        W64472   2.344  43.013   2.913
96079W        W64473  11.734  37.767   2.201
96080W        W64474  43.020  44.027  13.122
96081W        W64475  15.268  15.843   0.960
96082W        W64476   3.130   4.335   0.357
96083W        W64477  16.673  21.810   4.596
96084W        W64478  14.879  32.643  14.817
96085W        W64479  38.298  24.620  13.513
96086W        W64480   8.322  26.298  13.826
96087W        W64481  24.647  12.827  13.398
96088W        W64482  31.478   7.133  13.815
96089W        W64483  23.047  12.913  14.984
96090W        W64484   3.893  33.874  12.579
96091W        W64485  34.538  42.010   3.262
96092W        W64486  25.181   4.110   4.075
96093W        W64487  41.302  11.444   4.040
96094W        W64488  11.227  37.486   4.401
96095W        W64489   8.157  20.288   0.308
96096W        W64490  26.619  37.921   4.423
96097W        W64491   9.811  14.199   3.740
96098W        W64492   5.960   4.441   0.739
96099W        W64493  12.148  32.300   1.579
96100W        W64494   8.829  34.152  11.663
96101W        W64495  21.535  27.379   2.939
96102W        W64496  18.022  23.461  12.989
96103W        W64497  41.931  22.614  12.530
96104W        W64498  19.590  24.768   0.036
96105W        W64499  41.787  15.824   3.379
96106W        W64500  31.101  22.948  14.399
96107W        W64501  38.808  32.199  10.197
96108W        W64502  41.256  37.331   2.102
96109W        W64503  15.862  32.199   1.627
96110W        W64504  24.008   4.265  12.533
96111W        W64505  34.328  27.654  12.086
96112W        W64506  39.840  15.276  10.993
96113W        W64507  17.690  37.065   0.848
96114W        W64508   3.914  29.524   0.864
96115W        W64509  14.182  35.650  13.081
96116W        W64510  20.579   5.705  13.983
96117W        W64511  44.464  16.248   3.764
96118W        W64512  34.614  18.217   0.902
96119W        W64513  42.561   8.793  11.970
96120W        W64514  23.764  44.340   2.622
96121W        W64515  29.566  30.352  12.165
96122W        W64516  28.736  21.750  11.673
96123W        W64517  37.287   5.892  12.529
96124W        W64518  24.709   7.342  14.928
96125W        W64519  10.704  26.483  12.004
96126W        W64520  14.575  26.491  11.530
96127W        W64521   9.883  11.404   1.729
96128W        W64522   8.465  11.778  11.924
96129W        W64523  18.674  40.805  14.161
96130W        W64524   6.803  11.909  12.170
96131W        W64525  11.259   8.903  14.449
96132W        W64526   4.204   3.794  12.342
96133W        W64527   0.047   8.446   0.741
96134W        W64528  36.590  33.518   3.234
96135W        W64529  12.204  30.011   0.870
96136W        W64530  13.151   2.695  11.103
96137W        W64531   0.009  12.566  11.113
96138W        W64532   2.752   7.745  11.220
96139W        W64533  19.434  42.307  13.478
96140W        W64534  14.490  43.785  11.913
96141W        W64535   6.774  27.770  12.921
96142W        W64536  12.540   7.857   1.567
96143W        W64537   0.836   1.795  11.042
96144W        W64538   2.301  41.768   4.003
96145W        W64539  12.144  13.229  12.925
96146W        W64540  33.312   3.984   1.292
96147W        W64541  20.009  21.594   1.189
96148W        W64542   6.842   1.766   1.805
96149W        W64543  40.927   3.708   0.452
96150W        W64544  25.502   8.659  12.055
96151W        W64545  30.639  23.410   2.545
96152W        W64546  21.238  24.153   1.723
96153W        W64547  15.164   8.214   9.958
96154W        W64548  19.536  15.357   0.996
96155W        W64549  36.178  36.963   0.028
96156W        W64550  31.588  17.298  10.684
96157W        W64551   5.342   5.026  11.157
96158W        W64552  15.606  17.901  14.898
96159W        W64553  42.926  25.029  12.052
96160W        W64554  32.687  33.059   2.126
96161W        W64555  13.107  43.527   4.826
96162W        W64556  40.256  24.993   0.750
96163W        W64557  20.712   3.554   2.920
96164W        W64558  28.930  31.541   2.127
96165W        W64559  18.005   1.954   2.299
96166W        W64560  37.131  24.738  14.017
96167W        W64561  16.574  33.884   0.938
96168W        W64562   0.360  24.286  10.553
96169W        W64563  31.548  11.567   4.624
96170W        W64564  38.551  40.906  10.521
96171W        W64565  39.557  29.616   3.651
96172W        W64566  39.225  42.221  11.209
96173W        W64567   4.492  28.686   4.999
96174W        W64568  27.453  31.422  12.956
96175W        W64569  33.163  10.226  12.711
96176W        W64570   2.679  31.912  13.341
96177W        W64571  14.799   9.766   2.539
96178W        W64572  31.902  33.001   2.691
96179W        W64573  38.971   8.788   2.846
96180W        W64574   8.149  42.524  13.862
96181W        W64575  36.378  37.796  13.894
96182W        W64576  16.749  24.077  10.706
96183W        W64577  43.419  16.845   0.365
96184W        W64578  33.619  35.806   3.629
96185W        W64579  35.876  11.783   2.465
96186W        W64580  30.607   3.864   2.479
96187W        W64581  38.009  30.375  14.303
96188W        W64582  24.626  33.543   3.123
96189W        W64583   5.164  32.057   4.223
96190W        W64584   2.057  29.911  13.037
96191W        W64585  26.434   0.501   4.168
96192W        W64586  39.012  16.446  11.630
96193W        W64587   1.704  44.865   4.864
96194W        W64588   7.743  38.907  10.735
96195W        W64589   3.712  42.732   1.209
96196W        W64590  20.608  44.026   1.435
96197W        W64591  42.621  16.578  11.160
96198W        W64592  16.026  28.975   1.713
96199W        W64593   5.777   1.812   0.467
96200W        W64594   5.222   7.621   2.874
96201W        W64595  30.477  38.130   2.769
96202W        W64596  23.447  34.409  11.102
96203W        W64597  38.336  15.852  11.154
96204W        W64598  19.297  26.010  10.282
96205W        W64599   5.242  28.565   2.392
96206W        W64600  17.739  38.546  13.374
96207W        W64601  35.791  40.821  12.793
96208W        W64602  24.022  12.781   2.676
96209W        W64603  38.129  17.800  11.387
96210W        W64604  30.804  33.222  12.904
96211W        W64605  36.139  34.439  11.461
96212W        W64606  11.214   1.729   3.576
96213W        W64607  23.046  33.639   3.725
96214W        W64608  13.130  32.187   3.645
96215W        W64609  41.955   9.600  12.907
96216W        W64610  43.510   9.178  11.519
96217W        W64611  40.113  19.835  11.116
96218W        W64612  19.221   2.876  10.686
96219W        W64613  34.301  36.554   3.664
96220W        W64614   0.831  10.572   0.785
96221W        W64615  17.259  29.048  12.818
96222W        W64616  39.382  28.871  13.488
96223W        W64617  17.308  19.555   2.094
96224W        W64618  29.973  16.264   4.594
96225W        W64619   4.186   3.218  10.217
96226W        W64620  39.527  14.130  14.934
96227W        W64621  34.234  26.530   1.313
96228W        W64622  10.657   3.888  14.498
96229W        W64623   6.662   2.259  14.300
96230W        W64624  21.258   5.120   2.269
96231W        W64625  39.422  28.740  12.795
96232W        W64626   1.559  26.621   0.480
96233W        W64627   1.290  14.339  14.420
96234W        W64628   2.906  36.866  11.156
96235W        W64629  28.101   7.454   3.135
96236W        W64630  43.742  10.754   4.158
96237W        W64631  42.342  22.008  11.494
96238W        W64632  40.876  27.604   4.624
96239W        W64633  42.916  10.634  13.353
96240W        W64634  40.883   8.800  13.337
96241W        W64635  11.171   4.642   2.878
96242W        W64636  14.754  37.846  11.920
96243W        W64637  10.720  44.673   9.788
96244W        W64638   7.282  13.104  14.412
96245W        W64639   7.951  42.657   1.631
96246W        W64640  40.521  35.162   0.163
96247W        W64641  15.056  41.070   4.328
96248W        W64642  43.320   4.285   1.973
96249W        W64643  12.787  21.086  12.882
96250W        W64644  30.842  17.524  11.304
96251W        W64645   7.273  41.552  14.849
96252W        W64646   4.292  31.436   2.653
96253W        W64647   0.527  16.794  10.435
96254W        W64648  37.845   2.053  14.839
96255W        W64649  15.271  36.542  14.801
96256W        W64650  34.537  29.141   0.382
96257W        W64651   7.781   7.299   0.715
96258W        W64652  37.707  36.934   0.002
96259W        W64653  11.414  22.100   2.963
96260W        W64654  33.179   8.830  11.088
96261W        W64655  32.454  42.153  11.693
96262W        W64656  21.683  34.375  14.458
96263W        W64657  22.762   3.807   2.211
96264W        W64658   9.566  42.252   3.792
96265W        W64659  42.826  40.188   2.227
96266W        W64660   9.381   9.300   2.427
96267W        W64661  25.488  43.604   3.422
96268W        W64662  44.040  34.982  11.404
96269W        W64663   6.257  16.673   2.129
96270W        W64664  44.727  42.522  12.180
96271W        W64665  37.417  33.337   4.145
96272W        W64666  28.646  22.077  12.366
96273W        W64667   8.999  26.573  11.254
96274W        W64668  11.722  44.819  13.316
96275W        W64669  27.054  31.703   2.744
96276W        W64670  33.902  23.594  11.473
96277W        W64671   5.578  44.937  14.093
96278W        W64672  10.856  19.984   4.556
96279W        W64673  21.160  10.442  13.896
96280W        W64674  16.689  10.648   2.705
96281W        W64675   6.183  31.076   4.260
96282W        W64676  19.281  18.197   1.108
96283W        W64677   9.863  21.096   2.841
96284W        W64678  18.267  31.428   3.767
96285W        W64679   4.314   9.774   0.557
96286W        W64680  33.562   3.707   0.947
96287W        W64681  15.161  42.861   4.608
96288W        W64682   6.152  40.850   1.363
96289W        W64683  32.146   8.230  11.638
96290W        W64684  36.873   7.517  11.493
96291W        W64685  10.324  36.818   0.434
96292W        W64686  29.738  43.574  10.816
96293W        W64687   7.398   1.837  12.471
96294W        W64688   2.907   2.420  11.623
96295W        W64689  31.935   9.534  14.286
96296W        W64690  12.293  15.058  13.331
96297W        W64691  24.772   5.635   2.826
96298W        W64692  26.969  29.456   0.881
96299W        W64693  34.025  21.097   2.285
96300W        W64694  37.972  34.822   2.641
96301W        W64695  37.444   2.564   5.022
96302W        W64696   8.004  37.047   1.875
96303W        W64697   0.438   1.893   4.488
96304W        W64698  21.924  17.820  12.081
96305W        W64699  30.469  26.978   3.686
96306W        W64700   5.761  23.006   2.501
96307W        W64701  12.314  28.301   4.855
96308W        W64702  27.005  39.266  11.971
96309W        W64703  11.200  42.724  13.372
96310W        W64704  40.553   5.235   0.230
96311W        W64705  21.703   4.714  11.720
96312W        W64706   6.441  25.003  12.093
96313W        W64707  10.273  26.696   4.731
96314W        W64708  32.661  34.797   1.346
96315W        W64709  42.925  30.254   2.015
96316W        W64710  26.655   8.751   1.331
96317W        W64711   1.979  11.357   3.281
96318W        W64712  15.675  42.765  12.057
96319W        W64713  22.819  37.935  12.840
96320W        W64714  38.276   8.343   1.775
96321W        W64715  11.824   2.901   1.835
96322W        W64716  21.283  29.846  12.586
96323W        W64717  35.491  15.099   4.628
96324W        W64718  16.550  12.401  14.856
96325W        W64719  24.539  34.803   3.777
96326W        W64720  36.326  25.511  13.940
96327W        W64721  38.705  11.136   0.386
96328W        W64722   5.272  13.393  12.866
96329W        W64723  15.224  14.902  10.467
96330W        W64724  14.791  26.369   4.213
96331W        W64725   2.464   4.660  11.286
96332W        W64726  13.657   0.466   1.141
96333W        W64727  10.775  11.386  11.988
96334W        W64728  23.806  23.058   2.775
96335W        W64729   0.527  21.983   3.480
96336W        W64730  24.777  14.551  10.936
96337W        W64731  44.368  43.048  14.274
96338W        W64732  24.537  32.165  11.964
96339W        W64733  14.052  31.036  14.882
96340W        W64734   0.920  38.870   1.869
96341W        W64735  26.592   0.330   0.005
96342W        W64736   5.513   9.756   2.312
96343W        W64737  21.515  37.250   2.759
96344W        W64738  36.211  21.290   3.801
96345W        W64739  11.426  29.684  14.299
96346W        W64740  15.695  40.267   0.579
96347W        W64741  15.760  16.326  14.968
96348W        W64742  28.070   9.110  13.027
96349W        W64743  44.325   7.771  12.377
96350W        W64744  18.752  20.682   1.163
96351W        W64745  27.172  34.541  14.511
96352W        W64746  42.355  14.656   4.179
96353W        W64747  40.384  33.769  10.655
96354W        W64748  29.410   5.860  14.237
96355W        W64749  26.551  43.339   3.671
96356W        W64750  14.733  33.630   4.160
96357W        W64751  35.326  26.733  10.926
96358W        W64752  25.934  11.714  11.983
96359W        W64753  29.735  44.302  13.424
96360W        W64754  14.362  33.343   2.259
96361W        W64755   1.254  18.337   1.271
96362W        W64756  38.994  12.572   1.683
96363W        W64757  43.362   3.166   2.760
96364W        W64758  17.552  16.232  12.095
96365W        W64759   9.622   6.492  13.089
96366W        W64760   8.828  35.574  14.839
96367W        W64761  41.754  19.634   1.218
96368W        W64762  27.933  25.183   2.363
96369W        W64763  36.496  42.749  13.114
96370W        W64764  30.111  18.653   1.326
96371W        W64765   6.183  24.371   0.213
96372W        W64766   6.445  19.055   2.167
96373W        W64767  27.698   3.789   4.045
96374W        W64768  42.509   5.192  12.555
96375W        W64769   8.416   4.579  10.116
96376W        W64770  41.891  27.082   1.747
96377W        W64771  35.870  17.231   2.445
96378W        W64772   5.058  22.104   3.129
96379W        W64773  15.871  17.567   3.169
96380W        W64774  15.775  25.987   0.071
96381W        W64775  36.825  43.271   1.703
96382W        W64776  28.700  11.151   0.365
96383W        W64777   3.651   2.240   3.413
96384W        W64778  42.427  27.463   4.636
96385W        W64779  44.300  12.617  13.976
96386W        W64780  14.558  38.065   4.439
96387W        W64781  30.942  34.113   1.223
96388W        W64782  37.092   9.694   0.843
96389W        W64783  44.856  28.205  11.875
96390W        W64784  18.159  16.324  14.988
96391W        W64785  43.058  40.457   3.672
96392W        W64786  34.554   8.717   1.164
96393W        W64787  39.691  15.605   0.803
96394W        W64788   4.799  44.479   1.221
96395W        W64789   7.252   8.839  14.793
96396W        W64790  37.105  28.131   1.795
96397W        W64791  26.705  12.176   0.290
96398W        W64792  34.359  18.039   1.316
96399W        W64793  26.543   0.116   5.226
96400W        W64794   6.141  30.248   2.225
96401W        W64795  21.450   2.974  12.474
96402W        W64796   7.872  10.180  11.161
96403W        W64797  23.520  40.768   3.149
96404W        W64798   6.185  24.885  14.446
96405W        W64799  30.559   8.815  12.040
96406W        W64800  43.144  28.098   1.145
96407W        W64801  29.409  11.979  11.999
96408W        W64802  22.735   7.350   1.260
96409W        W64803  43.398  27.884  14.002
96410W        W64804   9.750   9.167   3.783
96411W        W64805  39.267  16.136   0.838
96412W        W64806   0.018  23.234  10.705
96413W        W64807  11.025  34.063  14.049
96414W        W64808  38.829  41.439   3.848
96415W        W64809  32.065  31.232   5.252
96416W        W64810  21.414  28.496   4.207
96417W        W64811  30.508  30.883  11.547
96418W        W64812  28.235  41.549  12.059
96419W        W64813  15.577  40.497   3.717
96420W        W64814   5.151  37.909   4.081
96421W        W64815  31.938  44.896  11.843
96422W        W64816  26.761  16.699   3.743
96423W        W64817   7.773  29.811   0.712
96424W        W64818  20.065  33.572   0.912
96425W        W64819  21.652  13.296  13.127
96426W        W64820  16.916   3.049  12.544
96427W        W64821  25.302  39.037  12.593
96428W        W64822  44.752   0.902   0.810
96429W        W64823  33.630  28.621   3.610
96430W        W64824  11.796  39.904  12.076
96431W        W64825  13.896  36.386  14.615
96432W        W64826  22.561   9.396   4.567
96433W        W64827   0.496  23.424  10.810
96434W        W64828  19.496  41.584   2.671
96435W        W64829  19.549   3.881  14.015
96436W        W64830  44.992  18.719  14.672
96437W        W64831  41.546  34.593   1.646
96438W        W64832  40.444  27.855  11.564
96439W        W64833  32.802   8.509   1.331
96440W        W64834  30.587   4.338  10.798
96441W        W64835  24.501   8.233   3.533
96442W        W64836  38.546   5.675  11.063
96443W        W64837  20.088  15.238  13.409
96444W        W64838  16.942  26.151  11.783
96445W        W64839  15.137   6.136  13.822
96446W        W64840  13.723   5.517  11.629
96447W        W64841  14.446  35.976  12.062
96448W        W64842  13.175  41.085  14.280
96449W        W64843  23.087  28.555   3.306
96450W        W64844  13.116  24.691   4.127
96451W        W64845  17.655  28.682  12.591
96452W        W64846  25.524  44.371   0.768
96453W        W64847  27.052  28.756  10.707
96454W        W64848   6.240   2.893   4.468
96455W        W64849  39.616  38.139   1.972
96456W        W64850  41.018  26.698   0.943
96457W        W64851  24.186  12.064  13.513
96458W        W64852  22.047  37.932   2.284
96459W        W64853  37.452  20.049   0.805
96460W        W64854   0.476   3.426   4.553
96461W        W64855  34.596  14.785   1.642
96462W        W64856  34.132  10.656  13.941
96463W        W64857  10.045  23.568   4.965
96464W        W64858  12.884  42.511  13.225
96465W        W64859  43.873  18.587   4.205
96466W        W64860  30.227  13.523  12.121
96467W        W64861  31.440  19.219   4.255
96468W        W64862  24.523  44.385   0.433
96469W        W64863  40.732  31.983  11.120
96470W        W64864  25.931  20.428  11.172
96471W        W64865   9.950  29.201   0.648
96472W        W64866  40.021  34.432   4.121
96473W        W64867  14.324  22.773   4.685
96474W        W64868  14.903  10.153   4.044
96475W        W64869  23.468  26.063  13.839
96476W        W64870   3.401  21.196   2.356
96477W        W64871   0.700  37.493  14.279
96478W        W64872  17.177  17.684  12.960
96479W        W64873  32.461  13.126  10.704
96480W        W64874   4.545   6.973   3.329
96481W        W64875  10.243  21.395  14.823
96482W        W64876  43.374   4.465   3.880
96483W        W64877  28.648  18.246  14.047
96484W        W64878  26.460  29.536  12.080
96485W        W64879  43.549  42.269   3.216
96486W        W64880   7.984  26.593   4.958
96487W        W64881   0.848  34.045   0.478
96488W        W64882  34.817  10.180   2.320
96489W        W64883  21.765  13.705  11.812
96490W        W64884   7.615  44.300  12.589
96491W        W64885  19.772   7.397  13.256
96492W        W64886  42.094  13.203   1.846
96493W        W64887  17.540  39.569   4.088
96494W        W64888  21.589  18.598  13.112
96495W        W64889  21.068  43.897  13.480
96496W        W64890  24.399  19.003   1.874
96497W        W64891  12.407   3.614  12.605
96498W        W64892  20.231   5.705   4.487
96499W        W64893  33.089  11.676   0.719
96500W        W64894  11.401  36.575  13.377
96501W        W64895  15.141  40.986   3.819
96502W        W64896  20.254  31.635   0.809
96503W        W64897  42.852  12.804   0.822
96504W        W64898   3.809  28.449   1.977
96505W        W64899  31.006  33.434   2.432
96506W        W64900  37.902  27.794   3.648
96507W        W64901   6.278  19.682   4.881
96508W        W64902  42.001  34.001   3.675
96509W        W64903   7.935  35.429  10.852
96510W        W64904  35.245  12.683   1.446
96511W        W64905   3.862  16.639   1.377
96512W        W64906  40.928  24.954   2.758
96513W        W64907   0.932  30.883  14.585
96514W        W64908  16.655   2.869  12.967
96515W        W64909  43.250   6.629  13.219
96516W        W64910  29.048  40.324   3.210
96517W        W64911  20.600   5.613  11.637
96518W        W64912  31.538   8.234  12.953
96519W        W64913  40.728  11.878   2.697
96520W        W64914  21.511  12.762  14.843
96521W        W64915  10.621  28.196  11.077
96522W        W64916  30.333  24.275  13.817
96523W        W64917  20.228  42.346   4.590
96524W        W64918  13.576  10.250   4.495
96525W        W64919   8.665  22.128   1.945
96526W        W64920   9.112  12.161   4.304
96527W        W64921  43.402  14.693   4.229
96528W        W64922  10.272  39.814  11.753
96529W        W64923   5.228  35.389   3.703
96530W        W64924   0.808  19.697  10.931
96531W        W64925  39.199  32.656  11.341
96532W        W64926  18.663  36.474  11.638
96533W        W64927  19.177   9.838   3.595
96534W        W64928  15.872  39.398  10.405
96535W        W64929   6.966  35.994  13.411
96536W        W64930   4.610  26.916   5.067
96537W        W64931  33.614  28.902   0.277
96538W        W64932  41.466   7.372   1.838
96539W        W64933  42.784   2.849   1.351
96540W        W64934   1.026   7.707  11.350
96541W        W64935  24.915  28.831   1.841
96542W        W64936   2.928   7.738   2.772
96543W        W64937  44.683  24.304  13.908
96544W        W64938  29.659   4.215   0.165
96545W        W64939   6.839   3.590  11.934
96546W        W64940  12.906  36.547  13.879
96547W        W64941   1.765  21.510  10.817
96548W        W64942  25.989  36.363   0.764
96549W        W64943  21.651  43.990   4.864
96550W        W64944  14.612  27.913  11.609
96551W        W64945   4.264   8.715   5.054
96552W        W64946  23.757  18.406  11.588
96553W        W64947  38.364  27.175  13.395
96554W        W64948  28.331  23.043   4.232
96555W        W64949  28.516  27.544  10.414
96556W        W64950  36.768  26.585   2.395
96557W        W64951  18.096  35.422   3.367
96558W        W64952  17.788  39.761  10.594
96559W        W64953  28.716   0.508   3.658
96560W        W64954  20.404  44.455  11.327
96561W        W64955  17.314  11.703   1.643
96562W        W64956  28.678  39.714   4.855
96563W        W64957  22.413  44.112  12.972
96564W        W64958  43.564  43.309  12.160
96565W        W64959  17.621   6.101   1.763
96566W        W64960  24.420  26.667   0.834
96567W        W64961  24.977  29.225   4.044
96568W        W64962  44.316  29.323  11.610
96569W        W64963  10.058  35.574   1.356
96570W        W64964  37.320  37.205  11.675
96571W        W64965  40.383   5.778  12.889
96572W        W64966  18.054  30.893   4.119
96573W        W64967   5.903   9.836   0.019
96574W        W64968  30.969  25.039   3.468
96575W        W64969   1.828  29.211  13.356
96576W        W64970  44.640   6.150   4.367
96577W        W64971  20.638  12.319  12.998
96578W        W64972   8.758  37.656   2.255
96579W        W64973   8.327  37.412  14.820
96580W        W64974  40.132  24.085   4.554
96581W        W64975  15.613  20.916   5.033
96582W        W64976  17.843  41.685   5.031
96583W        W64977  43.877   3.243  12.712
96584W        W64978  31.111   0.271  11.513
96585W        W64979  30.620  32.104  11.145
96586W        W64980  29.101  37.845   0.742
96587W        W64981  42.962   1.873  12.969
96588W        W64982  38.915   7.496   0.319
96589W        W64983  14.895  16.209  14.804
96590W        W64984  22.268  21.537  14.809
96591W        W64985  19.713  19.004   2.131
96592W        W64986  40.677  43.083  13.787
96593W        W64987  26.901  44.431  12.445
96594W        W64988  32.597   3.965   3.942
96595W        W64989  43.439   4.811  14.856
96596W        W64990  19.658  33.068   0.286
96597W        W64991   9.287  28.950   1.441
96598W        W64992  10.054  17.979  13.817
96599W        W64993  38.481  33.570   1.680
96600W        W64994  21.258  26.045  10.918
96601W        W64995  44.739  36.099   1.293
96602W        W64996   7.477  44.269   0.914
96603W        W64997  31.298  37.639   2.947
96604W        W64998  23.582  22.456   2.259
96605W        W64999  24.886   0.611   2.827
96606W        W65000  28.152  29.019  12.473
96607W        W65001   7.689   0.928  11.570
96608W        W65002  25.400  20.593  14.358
96609W        W65003  11.299  15.305   1.681
96610W        W65004  37.414  41.689   1.240
96611W        W65005  29.662  44.482   3.211
96612W        W65006  17.812  16.326  12.573
96613W        W65007  16.362   1.154  14.326
96614W        W65008   3.289   4.659   1.355
96615W        W65009  13.913  42.189   0.345
96616W        W65010  18.659  10.842  12.374
96617W        W65011   9.753  19.345   3.520
96618W        W65012  20.665  18.320  10.137
96619W        W65013  36.769  14.890   4.504
96620W        W65014  11.764   2.919   4.494
96621W        W65015  38.477  39.476  11.686
96622W        W65016  43.257  11.661   3.197
96623W        W65017  33.523  37.880  10.501
96624W        W65018  18.300  42.352   4.707
96625W        W65019   9.433  13.140   0.702
96626W        W65020  44.373  41.444   4.314
96627W        W65021   4.889   2.701  14.501
96628W        W65022  41.288   3.431   3.708
96629W        W65023   4.844  16.012   3.636
96630W        W65024  21.972  16.519  12.402
96631W        W65025   2.257   5.574  10.996
96632W        W65026  26.542  12.930  11.593
96633W        W65027  14.284  15.640  13.989
96634W        W65028  31.575  29.932   1.852
96635W        W65029  36.449  19.604   3.233
96636W        W65030  29.035  13.744   3.790
96637W        W65031  40.016  10.629   1.033
96638W        W65032  14.840  22.025  12.090
96639W        W65033  21.451  41.256   0.596
96640W        W65034  44.902  28.162  10.491
96641W        W65035  31.776   3.291   5.063
96642W        W65036  25.138  44.050   1.214
96643W        W65037  11.131  19.882   2.281
96644W        W65038  17.871  19.314   2.310
96645W        W65039  42.090  27.311   4.255
96646W        W65040  38.839  23.675  12.955
96647W        W65041  19.631   1.592  10.596
96648W        W65042  10.389  22.521   2.237
96649W        W65043  40.790  10.325  12.428
96650W        W65044  15.112   0.281  14.977
96651W        W65045  34.247  42.391  14.986
96652W        W65046  36.542   1.498  10.657
96653W        W65047  38.405  27.028   3.215
96654W        W65048  41.739  36.363  13.447
96655W        W65049  29.397   8.295  14.006
96656W        W65050  21.254   1.751  12.891
96657W        W65051   3.396  20.761  13.216
96658W        W65052   2.666  44.557   0.309
96659W        W65053  32.417  24.933  14.458
96660W        W65054  19.923  40.563  10.980
96661W        W65055  28.889   3.770  12.515
96662W        W65056  17.286  28.627   1.939
96663W        W65057   2.408  13.182  10.590
96664W        W65058  15.159  32.831  13.578
96665W        W65059  36.909  36.275   4.539
96666W        W65060  27.148  24.234   1.403
96667W        W65061   5.918  11.156  13.335
96668W        W65062  22.948  32.065  12.476
96669W        W65063  12.723   4.310  11.981
96670W        W65064  21.965  42.294   3.633
96671W        W65065  24.922  14.029  12.536
96672W        W65066   3.294   9.840  13.109
96673W        W65067  12.714   5.754  11.690
96674W        W65068  41.478   7.429   3.810
96675W        W65069   6.329   3.363   0.850
96676W        W65070  19.597  10.483   0.290
96677W        W65071   0.369  25.634  13.925
96678W        W65072  37.918  12.262   3.777
96679W        W65073   1.361   6.338   4.021
96680W        W65074  18.247  24.805   1.348
96681W        W65075   3.982  26.501   4.602
96682W        W65076  31.893  36.393   3.559
96683W        W65077  33.153  33.125   4.132
96684W        W65078   2.687  13.860  14.924
96685W        W65079   6.819   9.707  13.908
96686W        W65080  32.401  13.369   1.769
96687W        W65081   2.568  16.105   3.866
96688W        W65082   7.635  33.477   0.367
96689W        W65083  39.373  21.781   2.749
96690W        W65084  37.617   2.409   0.633
96691W        W65085  40.512  17.549   4.565
96692W        W65086  18.510  37.104  10.450
96693W        W65087   6.257   5.809   1.934
96694W        W65088  22.196   9.757  13.724
96695W        W65089  23.714   2.200  12.510
96696W        W65090  20.971  16.774   1.905
96697W        W65091  16.072  18.550   0.931
96698W        W65092  14.893  14.863  11.636
96699W        W65093   7.365  41.397   2.309
96700W        W65094  34.646   5.776   4.214
96701W        W65095  40.343  31.504  12.355
96702W        W65096  21.885  11.795  14.796
96703W        W65097   3.712   5.442  10.146
96704W        W65098  38.351  21.803  11.119
96705W        W65099  32.861  13.725  12.101
96706W        W65100   9.602  30.768   3.275
96707W        W65101  31.576  36.630   2.747
96708W        W65102   4.680  12.827   1.908
96709W        W65103  19.741  32.674   0.869
96710W        W65104   1.192   4.444  14.875
96711W        W65105  23.232   3.383   2.769
96712W        W65106  25.409  37.589   5.004
96713W        W65107  40.569  31.642  13.002
96714W        W65108  37.273  12.558  12.903
96715W        W65109  30.873  19.557   2.682
96716W        W65110  33.249  39.565  12.491
96717W        W65111  27.608  32.459  12.875
96718W        W65112   2.501   4.042   3.784
96719W        W65113  25.981  22.628   1.552
96720W        W65114  43.991  42.973  11.038
96721W        W65115  21.372  11.738   4.634
96722W        W65116  26.153  23.642  10.742
96723W        W65117  42.507  31.380   3.753
96724W        W65118  26.683  19.024  12.500
96725W        W65119  29.046   6.703  12.479
96726W        W65120  25.821  41.686   4.783
96727W        W65121  37.646  44.973   2.271
96728W        W65122  23.263  42.329   4.632
96729W        W65123  27.896   5.807   2.387
96730W        W65124  39.037  30.132  14.812
96731W        W65125   5.311   1.215   0.832
96732W        W65126  42.767   3.440   1.844
96733W        W65127  32.581  28.414   4.071
96734W        W65128   6.193  43.290   0.346
96735W        W65129  35.953  22.106  13.385
96736W        W65130  32.127   8.714   0.349
96737W        W65131  37.476   7.185  13.938
96738W        W65132  25.902  15.146   1.513
96739W        W65133  26.988  43.863   3.215
96740W        W65134  21.630  32.847   0.014
96741W        W65135   8.249  44.988   4.919
96742W        W65136  28.626   5.444   2.669
96743W        W65137  14.899  20.558  14.328
96744W        W65138  17.792  22.034   2.593
96745W        W65139   6.681  37.443  13.888
96746W        W65140  13.700   3.993   3.160
96747W        W65141  41.005  20.613   2.365
96748W        W65142   9.758  20.301  11.983
96749W        W65143  28.313  12.419  13.346
96750W        W65144   6.648  22.068  10.213
96751W        W65145  38.026  42.996  12.822
96752W        W65146  28.424  37.953  12.163
96753W        W65147  10.461   8.959   4.736
96754W        W65148  31.277   4.953   2.901
96755W        W65149   3.258  36.693  13.514
96756W        W65150   1.883  39.545  11.314
96757W        W65151   6.869  35.420   3.235
96758W        W65152  26.967  24.753   3.336
96759W        W65153  20.017  18.001  13.985
96760W        W65154  30.447  28.193   2.352
96761W        W65155  13.900  40.408   0.858
96762W        W65156  11.191   6.165  10.979
96763W        W65157   6.418  34.827  11.514
96764W        W65158  19.392  21.691   2.315
96765W        W65159  22.597   0.089  13.301
96766W        W65160  14.150  17.750  13.420
96767W        W65161  29.556   6.377  12.137
96768W        W65162  44.498   1.890   4.555
96769W        W65163  43.434  17.399   1.187
96770W        W65164  27.635  29.191  12.942
96771W        W65165  42.941   8.253  12.563
96772W        W65166  20.616  32.119   2.877
96773W        W65167  41.944  22.469  13.051
96774W        W65168  20.971   0.458  12.556
96775W        W65169  19.641   9.316  14.728
96776W        W65170  19.053  29.107  14.825
96777W        W65171  26.200  29.891   4.141
96778W        W65172  36.127  23.650  13.981
96779W        W65173  36.496  24.723  14.307
96780W        W65174  10.643  41.560   2.835
96781W        W65175   3.232  23.252  12.045
96782W        W65176  11.182  10.788   0.240
96783W        W65177  34.647  44.437  14.757
96784W        W65178  39.478  23.479   3.599
96785W        W65179   6.860  41.029   3.587
96786W        W65180  13.168   8.319  11.124
96787W        W65181  16.738   5.217  10.966
96788W        W65182  16.844  10.216  13.288
96789W        W65183   9.768  23.219  12.027
96790W        W65184   9.892   4.356  12.380
96791W        W65185   6.278  36.090   4.020
96792W        W65186  32.662  36.880   0.308
96793W        W65187  43.815  24.464  12.966
96794W        W65188  42.451  16.604   0.013
96795W        W65189  29.174  33.872  10.608
96796W        W65190  25.232  13.860  13.894
96797W        W65191  40.405  41.443  14.045
96798W        W65192  33.077  44.904  14.587
96799W        W65193  21.917  42.323  14.489
96800W        W65194  34.996  28.291   4.498
96801W        W65195  23.635   0.705  11.832
96802W        W65196   7.128  26.908  11.972
96803W        W65197  15.866  27.600   3.728
96804W        W65198  42.320  26.595   2.145
96805W        W65199  44.158  13.706   4.188
96806W        W65200   9.736  16.198  10.439
96807W        W65201  19.380  37.853   0.319
96808W        W65202  23.065  17.398   4.580
96809W        W65203  44.278  23.703  12.846
96810W        W65204  36.503   3.947  13.305
96811W        W65205  23.376  16.343   2.563
96812W        W65206   5.892  31.408   3.991
96813W        W65207  37.558  21.859  12.861
96814W        W65208  20.021  22.157   2.472
96815W        W65209  19.351  10.316   1.701
96816W        W65210  40.941  30.999  14.351
96817W        W65211  17.026   3.884  13.364
96818W        W65212   6.126  33.729   0.434
96819W        W65213   6.405  19.023   3.666
96820W        W65214  23.814  21.005   2.551
96821W        W65215  26.046  25.201   3.648
96822W        W65216  12.881  19.078  11.038
96823W        W65217   8.420  26.563   3.206
96824W        W65218  12.366  38.590   3.475
96825W        W65219   8.740  38.244  12.037
96826W        W65220   6.955  21.950  11.898
96827W        W65221   4.489  25.882  12.537
96828W        W65222   7.277  41.253  12.049
96829W        W65223  10.284   6.525  10.638
96830W        W65224  30.141   8.137  12.851
96831W        W65225   8.380  11.908   4.688
96832W        W65226  36.705   0.498  13.998
96833W        W65227  29.938  13.900   3.744
96834W        W65228   0.666  20.728  14.875
96835W        W65229  40.998  32.044   4.205
96836W        W65230  37.450  41.455  13.867
96837W        W65231  30.421  20.455   3.389
96838W        W65232  10.199  33.453   0.918
96839W        W65233  17.119  19.397   2.613
96840W        W65234  43.919   8.261  14.998
96841W        W65235  14.071   2.629  10.893
96842W        W65236  14.915  37.910   4.999
96843W        W65237  11.757  42.765   4.355
96844W        W65238   4.250  37.384  11.195
96845W        W65239  30.718  31.425   0.481
96846W        W65240  24.459  19.450  10.962
96847W        W65241  28.807  28.066  13.534
96848W        W65242  13.668  19.212   2.367
96849W        W65243  14.690  15.105   3.786
96850W        W65244  13.205  15.645   1.453
96851W        W65245  33.078  33.640  12.149
96852W        W65246   9.406  29.668   4.368
96853W        W65247   1.340  22.449   2.634
96854W        W65248  15.421  26.748   4.968
96855W        W65249  31.047  35.933  14.431
96856W        W65250  23.735  15.831  13.292
96857W        W65251  15.104   8.904  11.225
96858W        W65252  24.014  41.672  10.660
96859W        W65253  36.699  39.673  13.594
96860W        W65254   2.302  37.170  13.030
96861W        W65255   3.445  11.410  12.262
96862W        W65256  35.391  27.167  12.966
96863W        W65257   1.501  20.057   1.075
96864W        W65258   8.477  36.645   0.292
96865W        W65259  33.596  18.337  11.864
96866W        W65260  29.583  31.163  10.591
96867W        W65261  34.840  24.223  13.951
96868W        W65262  22.517  11.826  11.102
96869W        W65263  18.753  19.998   4.556
96870W        W65264   3.871   0.071   0.321
96871W        W65265  38.326  35.176   3.624
96872W        W65266  16.253  16.730   2.993
96873W        W65267   2.829  10.165  12.864
96874W        W65268  31.036   5.599  11.637
96875W        W65269  32.477  19.993  12.436
96876W        W65270  13.897  22.904   0.297
96877W        W65271   3.964  34.261  11.164
96878W        W65272  32.040  25.628  11.212
96879W        W65273  38.005  24.866   1.317
96880W        W65274  25.752  15.288   0.994
96881W        W65275  40.344  34.829   0.514
96882W        W65276  16.913  29.225   1.522
96883W        W65277  27.848  41.633  13.503
96884W        W65278  19.206  20.078  13.993
96885W        W65279  19.199  31.104  11.216
96886W        W65280  34.533  28.048  12.916
96887W        W65281   3.496  38.464   4.163
96888W        W65282   5.697  28.399   0.148
96889W        W65283  27.686  28.677  12.939
96890W        W65284  20.021  20.749   3.821
96891W        W65285  43.510  11.799   1.397
96892W        W65286  12.331  27.845   1.772
96893W        W65287  26.140   1.666   0.903
96894W        W65288  29.054  34.317  10.388
96895W        W65289   2.354   8.726  14.331
96896W        W65290  18.552  41.385   2.872
96897W        W65291  13.264  41.946   0.467
96898W        W65292  41.732  44.645   1.705
96899W        W65293  17.219  29.645   2.928
96900W        W65294  38.220  13.673  13.530
96901W        W65295  17.105  40.220  10.301
96902W        W65296  17.145  13.167   2.749
96903W        W65297  28.930  10.736   2.419
96904W        W65298  12.708  32.045   4.444
96905W        W65299  42.009   3.199   0.336
96906W        W65300   3.379  20.783  11.323
96907W        W65301   5.971  37.247   2.865
96908W        W65302   8.773  41.407  14.670
96909W        W65303  21.633  44.164   2.225
96910W        W65304  25.874  32.565   3.787
96911W        W65305   4.834  32.072  12.179
96912W        W65306  33.462  27.250   3.710
96913W        W65307   5.939  22.152  12.889
96914W        W65308  25.004  13.208  12.137
96915W        W65309  26.103  43.584  11.614
96916W        W65310  17.842  40.359  14.346
96917W        W65311  40.877  12.687   0.556
96918W        W65312  10.637  34.925   4.365
96919W        W65313  11.611  17.369   2.384
96920W        W65314  38.827  15.539   5.306
96921W        W65315  28.790  33.514   1.373
96922W        W65316  28.994   8.554  14.439
96923W        W65317  25.581  27.427  14.917
96924W        W65318  19.288  34.465   3.270
96925W        W65319   2.334  35.124  14.030
96926W        W65320   3.025  33.020   0.258
96927W        W65321  19.682  31.280  14.255
96928W        W65322  32.696   1.184  10.964
96929W        W65323  33.002  32.039  13.562
96930W        W65324   0.208   7.816  14.041
96931W        W65325  22.233  37.511  12.534
96932W        W65326  14.327  41.156  11.321
96933W        W65327  31.068  44.849  12.425
96934W        W65328   1.460  40.828   2.068
96935W        W65329  11.271   4.814  11.644
96936W        W65330  34.228  10.665   0.718
96937W        W65331  39.312  32.375   4.747
96938W        W65332   6.726  21.226  14.832
96939W        W65333  24.404  28.532   0.644
96940W        W65334  13.740  28.620  11.814
96941W        W65335  38.517   6.433  10.427
96942W        W65336  14.410  39.322  11.489
96943W        W65337  12.361   5.230   0.320
96944W        W65338  16.757  36.101  12.317
96945W        W65339  29.339   5.652  10.538
96946W        W65340   1.653  25.481   1.795
96947W        W65341  37.527  13.863  11.651
96948W        W65342  42.567   8.424   2.821
96949W        W65343  21.346  31.789   0.307
96950W        W65344  21.762  11.451   9.869
96951W        W65345   7.828  31.012   1.282
96952W        W65346  31.876  24.459  11.997
96953W        W65347  35.872  40.143  14.875
96954W        W65348  43.299  10.763   0.426
96955W        W65349  44.831  33.154  10.647
96956W        W65350  40.083  13.768   0.393
96957W        W65351  39.661   2.375  14.215
96958W        W65352  23.235  14.390  12.481
96959W        W65353   8.225  29.131   1.855
96960W        W65354  10.766  20.451   1.518
96961W        W65355   9.202   6.527   3.150
96962W        W65356  43.370  24.210   4.667
96963W        W65357  41.822  13.242   1.400
96964W        W65358  42.783  16.982  11.470
96965W        W65359  32.487  11.909   4.927
96966W        W65360  25.223  17.203   1.884
96967W        W65361   0.985  21.089  10.848
96968W        W65362  40.898  18.013   0.932
96969W        W65363  16.351   8.684  11.582
96970W        W65364   9.649  21.513   0.455
96971W        W65365  23.140  25.662  11.471
96972W        W65366  11.867  23.754  12.472
96973W        W65367   4.392  25.820  12.013
96974W        W65368  35.897  31.710  14.370
96975W        W65369  24.469  27.878  11.227
96976W        W65370  23.037  23.200   3.246
96977W        W65371  21.143   1.399   4.612
96978W        W65372  35.527  33.385   1.204
96979W        W65373  25.602   2.983   4.332
96980W        W65374  42.823   7.722  11.114
96981W        W65375   2.217  29.616  12.035
96982W        W65376  24.779  34.520   2.120
96983W        W65377  19.046  13.281  14.351
96984W        W65378  33.048  36.385   2.781
96985W        W65379  18.080  33.380   2.830
96986W        W65380  21.620  22.730   2.687
96987W        W65381  43.816  25.137   0.225
96988W        W65382  31.964  21.880   2.905
96989W        W65383  28.060  19.649  10.276
96990W        W65384  38.981   6.092  10.807
96991W        W65385  10.285  16.790  12.504
96992W        W65386   0.859  30.189  13.945
96993W        W65387  43.904  18.656  10.600
96994W        W65388  32.682  11.672  11.190
96995W        W65389  38.596  41.509  11.259
96996W        W65390  20.579   9.767   0.416
96997W        W65391  22.116  26.047  10.858
96998W        W65392  37.051   9.730   4.669
96999W        W65393  19.650  18.279  14.279
97000W        W65394   7.677  34.715  13.348
97001W        W65395  38.368  37.796   0.897
97002W        W65396  14.928  20.167   4.158
97003W        W65397  16.036  37.848  11.135
97004W        W65398  12.418   5.107  13.826
97005W        W65399  43.788  41.346  11.155
97006W        W65400  23.012  27.576   2.306
97007W        W65401  19.015  44.767   0.360
97008W        W65402  22.611  22.965  11.645
97009W        W65403  28.573  20.069   1.949
97010W        W65404  42.888  35.613  13.580
97011W        W65405  34.212   3.961   3.143
97012W        W65406  28.347  35.506  12.903
97013W        W65407   2.615  13.086  10.120
97014W        W65408   1.952   3.200  13.600
97015W        W65409  27.385  36.825  11.968
97016W        W65410  38.536   7.706  10.724
97017W        W65411  20.786  37.665   0.309
97018W        W65412  29.668  40.424   0.052
97019W        W65413  31.970  40.359  10.383
97020W        W65414  31.526  27.932   1.183
97021W        W65415  14.264  43.354  13.406
97022W        W65416  17.534  24.295   2.709
97023W        W65417  16.940   1.328   1.916
97024W        W65418   6.226  16.038  11.175
97025W        W65419  10.355  26.262  11.704
97026W        W65420  38.513  38.163   1.272
97027W        W65421  31.111  28.657  10.730
97028W        W65422  32.451  16.702   0.002
97029W        W65423  36.196  25.019   5.051
97030W        W65424  16.457  34.404  10.840
97031W        W65425  22.106   2.434   1.991
97032W        W65426   4.875  14.648  11.871
97033W        W65427  15.196  28.623  14.609
97034W        W65428  36.464  20.719  11.038
97035W        W65429   3.936  19.740   1.890
97036W        W65430   9.294  16.540   4.144
97037W        W65431  11.149  29.419  10.738
97038W        W65432  14.784   3.530  14.726
97039W        W65433  31.478  33.790   2.471
97040W        W65434  44.496  30.728   3.234
97041W        W65435  14.156  39.515   3.491
97042W        W65436   3.377  29.102   3.142
97043W        W65437  41.546  15.533   1.803
97044W        W65438  23.311  25.216   2.294
97045W        W65439   0.466  10.369   3.691
97046W        W65440   2.470  44.977  13.132
97047W        W65441  39.085   1.498   0.553
97048W        W65442   4.026  35.953  11.396
97049W        W65443  28.387  29.127   2.850
97050W        W65444   5.675  20.361  10.700
97051W        W65445  17.781  25.862   4.116
97052W        W65446   1.679   7.464  14.913
97053W        W65447   8.188  26.746   3.636
97054W        W65448  27.725   1.855  12.517
97055W        W65449  26.134  28.159   4.614
97056W        W65450  14.281  14.654  10.467
97057W        W65451  13.264   2.421   2.657
97058W        W65452   5.357  39.832   0.101
97059W        W65453  29.573  15.201   0.528
97060W        W65454  33.629  14.278  11.225
97061W        W65455  34.547  22.407   2.105
97062W        W65456   9.295  28.916  10.573
97063W        W65457   6.279   1.511   4.198
97064W        W65458  26.848  18.290  13.348
97065W        W65459  20.692  36.554   4.823
97066W        W65460  14.125   1.835  13.926
97067W        W65461   9.418  29.157  13.372
97068W        W65462  41.350  32.899  14.530
97069W        W65463   8.852   2.414   2.906
97070W        W65464  24.989  20.070  10.783
97071W        W65465   8.566  14.852   0.428
97072W        W65466  41.102  26.938   3.312
97073W        W65467   3.754  16.560  12.266
97074W        W65468   1.235  37.552   1.858
97075W        W65469   8.438  44.272  14.407
97076W        W65470   7.386  38.419  11.912
97077W        W65471  23.719  14.016   1.814
97078W        W65472  38.546  27.049   1.744
97079W        W65473  29.381  42.836  14.215
97080W        W65474   9.117   7.102  12.491
97081W        W65475  26.255  27.039  13.492
97082W        W65476  31.586   7.435  12.517
97083W        W65477  10.404  19.545   0.261
97084W        W65478  16.502   4.263  11.550
97085W        W65479  40.860  38.964  12.124
97086W        W65480   9.864  30.052   2.864
97087W        W65481   1.400  12.739  10.810
97088W        W65482  42.471  31.624   0.825
97089W        W65483  23.521  15.657  10.415
97090W        W65484  37.780  34.367  14.484
97091W        W65485  43.271  40.577  13.985
97092W        W65486  42.321  14.685  10.627
97093W        W65487  22.001  27.833  13.841
97094W        W65488  16.291  19.224   0.234
97095W        W65489  24.034   3.803   2.821
97096W        W65490  37.025  10.113  11.231
97097W        W65491  18.186  43.855  14.084
97098W        W65492  36.569  27.013   0.306
97099W        W65493  24.295  27.954  14.451
97100W        W65494   8.776  10.417   0.009
97101W        W65495  18.618  20.653  11.421
97102W        W65496  18.790  28.011   1.301
97103W        W65497  25.490   9.297   2.290
97104W        W65498  17.053  23.085   4.010
97105W        W65499  27.092  34.580   0.956
97106W        W65500  16.282  11.809   3.740
97107W        W65501  39.873  13.324  13.433
97108W        W65502  31.395  41.048  14.925
97109W        W65503   6.167  14.119  14.273
97110W        W65504  14.380  19.214  13.268
97111W        W65505  36.425  10.501   1.107
97112W        W65506  19.078  18.770   4.202
97113W        W65507  25.446  27.566  13.888
97114W        W65508  38.929   3.700   0.865
97115W        W65509   8.132  29.014   0.819
97116W        W65510  30.751  35.491  12.638
97117W        W65511  19.723  34.949  12.671
97118W        W65512  32.335  10.720  14.323
97119W        W65513  35.077  15.846  12.408
97120W        W65514  14.036  14.646  14.345
97121W        W65515  28.967   4.187  12.067
97122W        W65516  24.090  17.061   4.338
97123W        W65517  15.738  32.206  12.492
97124W        W65518  42.555  34.844   4.023
97125W        W65519   9.892   7.964   4.328
97126W        W65520  44.270  17.372  11.028
97127W        W65521  41.442  38.557  14.889
97128W        W65522  27.728  26.564   1.370
97129W        W65523  30.654   4.215  14.355
97130W        W65524  23.011  10.408   1.326
97131W        W65525  27.330   9.203  14.415
97132W        W65526   9.345   4.255   9.707
97133W        W65527  11.961  14.742  13.029
97134W        W65528  12.262   3.136   4.582
97135W        W65529  41.736  43.916  11.703
97136W        W65530   9.722  41.895   1.065
97137W        W65531  19.357  27.919  13.057
97138W        W65532  37.371   3.502  10.713
97139W        W65533  20.421  31.962   1.427
97140W        W65534   5.645  23.476   5.002
97141W        W65535  26.730  35.675   0.222
97142W        W65536  11.841   5.488  11.393
97143W        W65537  14.296  38.219  13.450
97144W        W65538  33.787  23.497   4.676
97145W        W65539   5.438  13.185   0.714
97146W        W65540   3.245  43.392  12.798
97147W        W65541   5.022  43.457   1.317
97148W        W65542  25.640  16.152  14.541
97149W        W65543  18.144  43.291  11.483
97150W        W65544  41.052  16.761  12.068
97151W        W65545   8.872  32.083   1.930
97152W        W65546  33.536   5.690  14.910
97153W        W65547  27.451   8.280   3.849
97154W        W65548  29.156  16.542   4.285
97155W        W65549  39.506  14.197  10.691
97156W        W65550   8.213  44.739   3.586
97157W        W65551   2.476  39.016  14.589
97158W        W65552  25.764  24.577  12.115
97159W        W65553   7.881  29.344  10.769
97160W        W65554  13.783  11.973  14.956
97161W        W65555   8.140  23.552  13.371
97162W        W65556   0.212  39.583   4.099
97163W        W65557  28.542  13.316  11.883
97164W        W65558  39.786  44.932   2.207
97165W        W65559  44.433  20.722  11.601
97166W        W65560  41.539  35.452  13.863
97167W        W65561  18.889   7.539  12.587
97168W        W65562  26.635   0.228   4.540
97169W        W65563   8.780  15.363  11.632
97170W        W65564  26.014  15.968   5.045
97171W        W65565  22.754   0.026  13.792
97172W        W65566  43.182  15.774  10.505
97173W        W65567  24.327  16.767  10.798
97174W        W65568  22.543  41.293  14.976
97175W        W65569  41.025  27.205   1.006
97176W        W65570  36.735  36.196   5.050
97177W        W65571  19.081  30.657  11.552
97178W        W65572  13.874  19.201  13.467
97179W        W65573  12.745  44.917   3.251
97180W        W65574  16.128  31.063  11.923
97181W        W65575  38.389  43.955   4.581
97182W        W65576   9.432  25.610   4.845
97183W        W65577  32.919  20.705   4.118
97184W        W65578   6.138  34.096   3.105
97185W        W65579   7.028  38.501  14.413
97186W        W65580  20.489  23.692   2.642
97187W        W65581   4.795  24.324   4.736
97188W        W65582  36.463   4.912  13.378
97189W        W65583  20.321  26.734   0.322
97190W        W65584  36.161  20.083   3.317
97191W        W65585  37.098  38.275  14.370
97192W        W65586  23.574   3.698   1.391
97193W        W65587   7.213   7.827   1.163
97194W        W65588  21.091   4.683   1.373
97195W        W65589  29.624   4.385   1.215
97196W        W65590  22.206  29.387  11.645
97197W        W65591  17.972  39.541  14.195
97198W        W65592   7.263   0.494   2.153
97199W        W65593  14.219  32.421   4.835
97200W        W65594   9.991  15.728  10.312
97201W        W65595  27.737  11.621  10.575
97202W        W65596  15.659  30.926  12.110
97203W        W65597  36.641   0.803   3.430
97204W        W65598  31.126  29.002  11.121
97205W        W65599  42.893   2.383   3.854
97206W        W65600  22.531   2.849   4.721
97207W        W65601   4.222  26.695  12.050
97208W        W65602  13.860  17.753   1.445
97209W        W65603  42.312  32.434  13.336
97210W        W65604  34.395   4.766   2.734
97211W        W65605  34.393  19.757  11.600
97212W        W65606   4.445  34.437  13.779
97213W        W65607  23.611   9.756   0.207
97214W        W65608  24.578  42.913   1.314
97215W        W65609  14.372  16.126  13.122
97216W        W65610  43.954  34.795  14.834
97217W        W65611   4.667  13.252   1.236
97218W        W65612  31.437  38.019  11.950
97219W        W65613  19.519  43.301   0.924
97220W        W65614  34.736  35.347  11.985
97221W        W65615  40.401  12.762   0.341
97222W        W65616  34.794  32.587  14.333
97223W        W65617   4.538  31.644   4.513
97224W        W65618  13.123   8.523  13.639
97225W        W65619  12.304   1.981  10.427
97226W        W65620  16.277  31.423   1.092
97227W        W65621  10.515   2.592  14.212
97228W        W65622  18.127  17.385   1.222
97229W        W65623   4.146  18.188  13.487
97230W        W65624  30.533  43.938   4.746
97231W        W65625  15.545  21.862   2.422
97232W        W65626  19.644  34.139  10.826
97233W        W65627  16.074  37.438   3.204
97234W        W65628  25.762  40.864   2.761
97235W        W65629  38.327  42.898   1.510
97236W        W65630  43.847  44.256  13.699
97237W        W65631  29.476   1.713   4.188
97238W        W65632  10.426  31.742   1.874
97239W        W65633   0.730   6.498   1.982
97240W        W65634  38.857  28.549  13.558
97241W        W65635  36.201  19.578  10.369
97242W        W65636  36.601  11.145  12.862
97243W        W65637  21.277  35.873  13.929
97244W        W65638   0.224   4.316  10.444
97245W        W65639   5.334  42.740  10.709
97246W        W65640  35.831  13.841  11.610
97247W        W65641  13.267  27.995   2.758
97248W        W65642  25.614   6.383   0.979
97249W        W65643  37.772   0.413  12.490
97250W        W65644   9.568   8.151  11.912
97251W        W65645  28.019  29.195   2.448
97252W        W65646   6.337  13.040  10.956
97253W        W65647  25.054   6.892  10.668
97254W        W65648   0.832   2.355  10.720
97255W        W65649  40.873  39.722  11.794
97256W        W65650  21.177   9.822  13.129
97257W        W65651  33.157  36.128  13.504
97258W        W65652  10.855   9.445  11.953
97259W        W65653   5.966  25.517   3.004
97260W        W65654  14.572  35.817   4.130
97261W        W65655   0.154  12.068   3.383
97262W        W65656  25.504  10.192   4.090
97263W        W65657  42.737   2.412   2.631
97264W        W65658  27.381   5.730  14.203
97265W        W65659  37.867   2.831   4.481
97266W        W65660  26.299  21.069  14.480
97267W        W65661  11.354  29.557   0.926
97268W        W65662  42.960  11.847  10.437
97269W        W65663  21.062   4.698  14.488
97270W        W65664  14.549  18.732  14.517
97271W        W65665  14.787  28.960  13.913
97272W        W65666  22.687  25.736   0.234
97273W        W65667  13.115  18.553   0.793
97274W        W65668  28.470  34.637   4.170
97275W        W65669  38.406  11.228  14.906
97276W        W65670  13.600   3.719   3.639
97277W        W65671  10.183  23.175  14.393
97278W        W65672  11.883  41.827   4.225
97279W        W65673  25.378   0.846  11.970
97280W        W65674  10.284  41.001  13.517
97281W        W65675  14.511  11.501   1.942
97282W        W65676  22.489   4.897  12.631
97283W        W65677   6.477   9.722  13.459
97284W        W65678  18.131  37.405   0.020
97285W        W65679  41.489  21.727   1.925
97286W        W65680  39.407  28.393  14.787
97287W        W65681  20.545   9.042   1.664
97288W        W65682  13.166  42.447  10.709
97289W        W65683   2.364   7.602  10.916
97290W        W65684  10.278  39.531   4.390
97291W        W65685   7.897   5.371   3.786
97292W        W65686  21.559  42.755  14.465
97293W        W65687  42.794  41.048   0.977
97294W        W65688  30.217   1.625  14.326
97295W        W65689  28.681  15.573   2.584
97296W        W65690  21.911  39.327  12.366
97297W        W65691  44.304  17.984  12.353
97298W        W65692  40.435  20.263  13.829
97299W        W65693  35.469  22.769   2.230
97300W        W65694  44.345  28.138   1.306
97301W        W65695  37.856  35.811  13.835
97302W        W65696  19.488   7.694   1.312
97303W        W65697  28.441  19.113   2.767
97304W        W65698  36.454  38.931  10.736
97305W        W65699  23.509  11.671   0.811
97306W        W65700  39.580  27.757  11.662
97307W        W65701  37.728  25.423  13.444
97308W        W65702  32.368  31.545   1.231
97309W        W65703  23.478  31.381   1.695
97310W        W65704  30.514  36.493   1.893
97311W        W65705   2.334  17.946  10.155
97312W        W65706  28.730   7.663  14.535
97313W        W65707  10.761  40.569   4.527
97314W        W65708  30.914  37.549  11.123
97315W        W65709   5.830   8.632   2.401
97316W        W65710  23.684  11.476  14.841
97317W        W65711  34.139  24.749  12.482
97318W        W65712   2.272  10.078  13.438
97319W        W65713   8.290   4.239   1.095
97320W        W65714  15.260   9.491  13.823
97321W        W65715  27.200  15.277  12.077
97322W        W65716  25.795  19.114  14.224
97323W        W65717  41.964   4.814   3.220
97324W        W65718  29.600  24.188   0.485
97325W        W65719  35.431  21.289   4.970
97326W        W65720   5.878  35.610   2.277
97327W        W65721   6.358  11.100   2.852
97328W        W65722   0.725   8.307   2.699
97329W        W65723  42.173  13.296  14.517
97330W        W65724   5.962  33.198   4.065
97331W        W65725  26.998  17.294   2.977
97332W        W65726  12.032  30.844  12.362
97333W        W65727  24.681   6.874   4.021
97334W        W65728  12.232   8.397   2.649
97335W        W65729  44.477   3.989  12.112
97336W        W65730  18.039  44.310  13.293
97337W        W65731   4.308  27.041  10.382
97338W        W65732  42.486   6.268   0.942
97339W        W65733  31.597  20.842  13.473
97340W        W65734  30.734   2.308   4.583
97341W        W65735  30.261   5.361  11.204
97342W        W65736  33.670   0.590   5.182
97343W        W65737  33.540  19.033   3.287
97344W        W65738  31.926  42.023   2.681
97345W        W65739  27.135  23.239   3.339
97346W        W65740  11.721  33.066  13.769
97347W        W65741   0.031  38.601  14.533
97348W        W65742  41.006  12.897   1.424
97349W        W65743  20.616  40.334   3.691
97350W        W65744  42.052  26.605  10.342
97351W        W65745  10.167  29.529  14.039
97352W        W65746  41.691  33.145   3.348
97353W        W65747   0.176  34.979  13.937
97354W        W65748  43.559  14.442  14.426
97355W        W65749  32.139  37.890  11.224
97356W        W65750  20.688  40.022   1.702
97357W        W65751  14.772   5.890  14.122
97358W        W65752  15.272  13.389   4.238
97359W        W65753  19.272  25.946   3.238
97360W        W65754   6.479  35.880   3.012
97361W        W65755   3.480  25.613  12.461
97362W        W65756  12.103   4.181   4.606
97363W        W65757   9.862   9.819  11.105
97364W        W65758  41.853  19.811  14.449
97365W        W65759   4.362   9.556  14.039
97366W        W65760   5.323  30.372   3.673
97367W        W65761  32.551   5.157   3.735
97368W        W65762   5.780  30.557  13.853
97369W        W65763  18.110  18.769   4.387
97370W        W65764  12.520   5.834   0.062
97371W        W65765  43.680  44.326  10.203
97372W        W65766  28.876  14.925   2.112
97373W        W65767   2.991   1.977   0.912
97374W        W65768  31.502  33.473   1.177
97375W        W65769   4.134  10.831  13.624
97376W        W65770   4.573  22.174   2.947
97377W        W65771  11.526  20.788  12.991
97378W        W65772  42.356  29.028  12.121
97379W        W65773  31.250   9.641  14.042
97380W        W65774  40.960  33.146  10.720
97381W        W65775  30.660  16.604   1.260
97382W        W65776  28.521   1.806  13.862
97383W        W65777  24.153  41.005  14.768
97384W        W65778  39.222  20.231  11.006
97385W        W65779   5.286  24.871  14.067
97386W        W65780  13.326  20.738  11.304
97387W        W65781  42.957  41.566  14.498
97388W        W65782  40.387  37.390   2.428
97389W        W65783  17.156  13.390   0.980
97390W        W65784  17.357  23.267  11.572
97391W        W65785  18.448  43.090  11.095
97392W        W65786  37.318  22.507  13.894
97393W        W65787  33.396  24.764   3.078
97394W        W65788  41.317   1.875   4.181
97395W        W65789  19.548   5.288   1.763
97396W        W65790  41.762  30.939  10.788
97397W        W65791   1.237  21.091  14.935
97398W        W65792  32.224  37.029  11.561
97399W        W65793   1.444  23.449   1.661
97400W        W65794  33.386  13.173   4.877
97401W        W65795  23.573  12.144   2.125
97402W        W65796   2.295  29.937   4.528
97403W        W65797  19.781  39.119   5.699
97404W        W65798  38.908  20.179  10.197
97405W        W65799   1.890  11.620   3.720
97406W        W65800   9.420   0.481   0.842
97407W        W65801  14.818   5.797   1.010
97408W        W65802  40.853  10.632   4.831
97409W        W65803  15.728  25.855  12.321
97410W        W65804  43.895  17.737  10.744
97411W        W65805  17.777  25.645   1.841
97412W        W65806  31.680   9.796  13.773
97413W        W65807  19.068   5.636   4.555
97414W        W65808  44.098  32.832   2.160
97415W        W65809  23.963  22.692   1.355
97416W        W65810   0.592  17.593  11.443
97417W        W65811  26.376  35.896  13.376
97418W        W65812  27.931  13.679   2.416
97419W        W65813  11.676  33.833  11.167
97420W        W65814   0.685  27.111  10.738
97421W        W65815  36.014   1.787  13.103
97422W        W65816   9.174   5.412  11.179
97423W        W65817  42.328  11.762  11.124
97424W        W65818  12.542  40.995  10.674
97425W        W65819  29.433  17.780   0.510
97426W        W65820  39.781  30.252   1.892
97427W        W65821  20.181   0.300   0.227
97428W        W65822   5.954   6.729   3.142
97429W        W65823  32.896  31.698  13.958
97430W        W65824  24.756  28.719   3.644
97431W        W65825  35.896   3.429  12.794
97432W        W65826   2.910  28.327  13.842
97433W        W65827   7.588  22.726  13.273
97434W        W65828  40.995   0.826  11.648
97435W        W65829   3.746  44.251  11.673
97436W        W65830  22.716  11.301   0.823
97437W        W65831  28.674   4.212  14.798
97438W        W65832  11.109  29.989   0.799
97439W        W65833   9.085  19.700  10.718
97440W        W65834  29.231   1.237   2.335
97441W        W65835   5.305  19.035  10.531
97442W        W65836  13.220  32.079   1.594
97443W        W65837   5.008  12.860  12.014
97444W        W65838  38.507   9.397   0.928
97445W        W65839   1.775   6.826  11.252
97446W        W65840  36.848  25.498  10.708
97447W        W65841  18.253  25.193   2.648
97448W        W65842  26.031  11.976  14.364
97449W        W65843  41.259  16.148   0.954
97450W        W65844  36.194   0.334   3.648
97451W        W65845  36.966   6.127   3.141
97452W        W65846  43.258  40.007  11.889
97453W        W65847  42.833  33.413   4.168
97454W        W65848  30.022  22.770  13.348
97455W        W65849  37.601  42.062  10.777
97456W        W65850  17.669  38.878  13.823
97457W        W65851  24.092   3.911  14.296
97458W        W65852  36.088  38.378  11.774
97459W        W65853  31.627  34.918   1.367
97460W        W65854  29.393  21.224  13.752
97461W        W65855  41.436   4.661  14.724
97462W        W65856  26.294  28.191  14.633
97463W        W65857  43.519  18.148   3.810
97464W        W65858  12.286  22.598  12.943
97465W        W65859   8.119  36.070  11.383
97466W        W65860  44.348   5.263  12.958
97467W        W65861  43.447   7.676   0.712
97468W        W65862   8.976  25.958   4.734
97469W        W65863   8.221  31.570   2.844
97470W        W65864  15.736  39.729   3.085
97471W        W65865  30.878  12.018   2.378
97472W        W65866   3.332  39.876   1.298
97473W        W65867  41.408  23.512  12.880
97474W        W65868   5.206   6.630  13.770
97475W        W65869  15.743  15.696  11.056
97476W        W65870  28.930  21.077  12.389
97477W        W65871  15.262  11.646   4.117
97478W        W65872  22.681  10.767   3.789
97479W        W65873  40.842   9.962  14.931
97480W        W65874  31.720  26.894   2.319
97481W        W65875   0.344   9.715  10.686
97482W        W65876  28.908   8.912   1.264
97483W        W65877   3.887  22.220   4.141
97484W        W65878  23.397  42.970   2.095
97485W        W65879  39.397   0.844  13.486
97486W        W65880  39.953  40.032  14.015
97487W        W65881   0.427  43.604  11.632
97488W        W65882  21.874  27.563   4.989
97489W        W65883  14.274   7.560   1.839
97490W        W65884  24.448  12.283  11.243
97491W        W65885  13.340  39.889  11.504
97492W        W65886  16.757  24.748   3.868
97493W        W65887  16.452   5.025   4.133
97494W        W65888  32.799  44.774   0.027
97495W        W65889  35.396   8.593   4.146
97496W        W65890  36.496  37.668  10.296
97497W        W65891   2.347  31.891   0.294
97498W        W65892  17.670  43.335   1.559
97499W        W65893   9.450  30.145  13.016
97500W        W65894  42.331  16.193  12.620
97501W        W65895  27.455  17.594  13.901
97502W        W65896   0.437  28.020   4.517
97503W        W65897  20.241   8.747   2.886
97504W        W65898  30.124  23.477   2.763
97505W        W65899  24.762  28.181   0.770
97506W        W65900  10.440   3.129   5.004
97507W        W65901  17.840  12.860  12.934
97508W        W65902  39.437  12.809   4.111
97509W        W65903  43.399  27.243   0.946
97510W        W65904  33.588  25.385  12.699
97511W        W65905  31.136  25.494   5.302
97512W        W65906  21.312  43.216  10.227
97513W        W65907   7.655  19.855  10.321
97514W        W65908  28.070  15.905   4.276
97515W        W65909   8.172   2.989  13.958
97516W        W65910  37.553  12.643   4.945
97517W        W65911  43.597  31.992   0.248
97518W        W65912  22.743  19.191   0.404
97519W        W65913   9.187  18.175   1.385
97520W        W65914  39.814  18.255   1.195
97521W        W65915  43.520   2.085   3.704
97522W        W65916   7.386  16.173  13.420
97523W        W65917  11.338  31.341   3.316
97524W        W65918   4.959  41.271   4.210
97525W        W65919  37.012  19.765   4.005
97526W        W65920   3.863   6.700   4.128
97527W        W65921  36.345  14.755  12.759
97528W        W65922   4.463   4.257   0.800
97529W        W65923  29.994  29.164  13.124
97530W        W65924   1.178  11.319  14.822
97531W        W65925  32.513  41.000  12.521
97532W        W65926  37.832  37.531  14.779
97533W        W65927   6.134  10.668   4.085
97534W        W65928  17.246   0.964   2.312
97535W        W65929  17.686   1.054   0.279
97536W        W65930   3.680  15.767  14.859
97537W        W65931  32.662  30.527   3.699
97538W        W65932  30.707   1.946  10.434
97539W        W65933   5.022  39.321  14.419
97540W        W65934  17.049  30.100   0.938
97541W        W65935  21.553  23.564  14.013
97542W        W65936   7.572  43.120   4.558
97543W        W65937   9.824   2.752   3.113
97544W        W65938  23.771  35.590  14.507
97545W        W65939  13.743   6.638   1.463
97546W        W65940  31.124   2.345  11.576
97547W        W65941  34.443   6.985   2.399
97548W        W65942   5.872  32.430   3.141
97549W        W65943  23.129   9.912  12.142
97550W        W65944  37.121  40.892  10.361
97551W        W65945  11.759  17.203   3.124
97552W        W65946  30.161  15.829   0.345
97553W        W65947  14.663  37.281  11.121
97554W        W65948  37.556  14.401  14.012
97555W        W65949  36.345   3.084  14.428
97556W        W65950   6.311  24.088   2.272
97557W        W65951  20.492  13.633   2.556
97558W        W65952  17.864   0.043  14.339
97559W        W65953  36.978   4.612  13.477
97560W        W65954  31.142  15.975   5.077
97561W        W65955  31.278  18.764   4.095
97562W        W65956  32.017  19.486  13.825
97563W        W65957  18.588   4.876  14.684
97564W        W65958  11.415  43.856   1.380
97565W        W65959  15.527  42.825  11.104
97566W        W65960  29.681  34.548  13.977
97567W        W65961  15.651  35.511  11.822
97568W        W65962  42.454  31.909  14.504
97569W        W65963  38.068  28.630  11.125
97570W        W65964  10.718  12.819   2.585
97571W        W65965  13.694  20.633   3.324
97572W        W65966   9.555  33.961   2.634
97573W        W65967  40.576  44.453  14.187
97574W        W65968  32.499   9.782   3.639
97575W        W65969  41.800   8.582  13.089
97576W        W65970   9.789   7.443  13.977
97577W        W65971  34.176  30.731  11.433
97578W        W65972  20.059  41.771   3.743
97579W        W65973  37.618  40.800   1.184
97580W        W65974   5.975  18.458  11.103
97581W        W65975  31.462  30.057   4.096
97582W        W65976   2.255  33.597  13.368
97583W        W65977  13.966  14.199   5.028
97584W        W65978  20.049  17.977  13.469
97585W        W65979   7.366   9.285  12.445
97586W        W65980  11.837  10.884   4.480
97587W        W65981  18.502  20.575   2.226
97588W        W65982  30.880  21.115  12.546
97589W        W65983   9.678  40.807  11.665
97590W        W65984  43.906  33.934  11.668
97591W        W65985  31.734  24.492   0.664
97592W        W65986  13.390   5.628   3.286
97593W        W65987  23.013  27.004   1.715
97594W        W65988  29.686  35.465   0.771
97595W        W65989   2.944   5.921  13.836
97596W        W65990   2.547  20.500   0.876
97597W        W65991  20.504  27.964  13.434
97598W        W65992  34.457   4.980  10.349
97599W        W65993   3.693   6.019   1.003
97600W        W65994  24.207  16.762   0.216
97601W        W65995   9.989  23.489  10.213
97602W        W65996  19.468   9.215   3.355
97603W        W65997  26.698  15.721   1.303
97604W        W65998  20.697  35.731   0.145
97605W        W65999  18.657  15.782   2.416
97606W        W66000  10.011  24.528  11.322
97607W        W66001   7.090  24.440  11.106
97608W        W66002  39.499  23.281   1.826
97609W        W66003   5.478  42.448   2.894
97610W        W66004   9.289  43.452  14.823
97611W        W66005  17.215  11.901  10.699
97612W        W66006   7.765  35.919   3.398
97613W        W66007   9.366   9.806  14.388
97614W        W66008   6.462  10.547  11.172
97615W        W66009  32.594  42.028  12.511
97616W        W66010  26.339  42.456  13.187
97617W        W66011  35.533   3.735  13.699
97618W        W66012  20.980  25.116   1.807
97619W        W66013  25.549  17.078   0.894
97620W        W66014  25.015  32.402  11.889
97621W        W66015  19.780  30.251   1.289
97622W        W66016   4.763  42.141   3.360
97623W        W66017  33.311  29.636   3.747
97624W        W66018  11.146  35.506  10.797
97625W        W66019   3.240  43.559  13.289
97626W        W66020  36.957  35.822  12.927
97627W        W66021   6.479  22.120  12.780
97628W        W66022  44.920  32.090  11.696
97629W        W66023  33.929  15.300   0.916
97630W        W66024   7.451  15.618   2.304
97631W        W66025  22.572  28.727   3.321
97632W        W66026   1.302   6.779  10.974
97633W        W66027  19.745  38.108   5.522
97634W        W66028  21.396   8.312   4.641
97635W        W66029  25.227  17.346  11.965
97636W        W66030  27.838  29.088  11.023
97637W        W66031  31.225  19.629  12.023
97638W        W66032  40.296  16.285   0.796
97639W        W66033  25.768   2.914  10.313
97640W        W66034  11.295  41.545   1.766
97641W        W66035  17.616  35.763   5.052
97642W        W66036  41.793   7.385   1.049
97643W        W66037  24.144  37.818  13.805
97644W        W66038   1.784  33.981  12.893
97645W        W66039   8.786  27.980   0.472
97646W        W66040  40.387  26.592  13.914
97647W        W66041  24.983   8.300   3.333
97648W        W66042   2.684  14.649   1.372
97649W        W66043  12.548   2.499   3.963
97650W        W66044  26.011  28.372   1.333
97651W        W66045   5.428  22.204  11.975
97652W        W66046  24.241   6.293   4.834
97653W        W66047  31.615  10.225  13.293
97654W        W66048  13.212   3.313  11.712
97655W        W66049   1.777  10.758  11.377
97656W        W66050  42.312  39.433  12.428
97657W        W66051   7.615  21.247  12.842
97658W        W66052  43.459  10.718   2.870
97659W        W66053   6.462   9.226  12.402
97660W        W66054  33.662  12.915  13.918
97661W        W66055  28.677  30.091   1.904
97662W        W66056  21.428  13.372   4.571
97663W        W66057   4.716  12.495   3.282
97664W        W66058   7.517   0.284   0.797
97665W        W66059  41.373  39.794   0.299
97666W        W66060   2.265  29.935   1.720
97667W        W66061  24.345  43.654  13.351
97668W        W66062  30.543  35.652   1.399
97669W        W66063   8.054  35.368   1.565
97670W        W66064  26.388  43.966  13.394
97671W        W66065  39.873   4.940   2.162
97672W        W66066  24.544  36.768  11.684
97673W        W66067   6.791   7.159   2.297
97674W        W66068   6.273  18.266   2.679
97675W        W66069  17.894  10.165   4.080
97676W        W66070   3.878  40.931  12.602
97677W        W66071  27.896  30.500   4.544
97678W        W66072  27.588  24.136  14.990
97679W        W66073  15.256  12.759  13.287
97680W        W66074  12.395  35.007  12.913
97681W        W66075  41.416  33.382   4.781
97682W        W66076   2.318  42.566  10.659
97683W        W66077  19.560  36.825   1.294
97684W        W66078  14.131   0.728   9.829
97685W        W66079  21.592  17.052   2.698
97686W        W66080  24.049  35.047  11.571
97687W        W66081  29.259   7.803   3.616
97688W        W66082  21.177  38.778   3.648
97689W        W66083  25.467  30.726   1.216
97690W        W66084  14.343  22.085  10.993
97691W        W66085  32.584   1.474  10.549
97692W        W66086  14.302  24.835  12.007
97693W        W66087  22.145  41.925   4.312
97694W        W66088   3.356  34.709   4.590
97695W        W66089  11.945   9.135  10.833
97696W        W66090  43.822   8.933  11.185
97697W        W66091  24.735  26.552  11.634
97698W        W66092  44.253  31.838   0.738
97699W        W66093  34.872  26.488   0.650
97700W        W66094  25.671   0.249  12.952
97701W        W66095  41.917  12.588  12.915
97702W        W66096  33.158  12.254   1.386
97703W        W66097  35.183  44.888  13.630
97704W        W66098  16.831  13.323  13.511
97705W        W66099  42.799  16.835  13.872
97706W        W66100  37.903  19.020   0.492
97707W        W66101  18.104   8.266   4.577
97708W        W66102  40.494  15.087   4.056
97709W        W66103  36.986  40.481   3.868
97710W        W66104  25.566  27.558  12.866
97711W        W66105  24.459  26.108  11.566
97712W        W66106  31.569  23.557  11.009
97713W        W66107  43.031  34.188  11.672
97714W        W66108  11.664  39.005   3.300
97715W        W66109  42.422  35.624   5.378
97716W        W66110  24.714  43.939  14.394
97717W        W66111  15.990  17.600  13.246
97718W        W66112  31.102  21.624   0.838
97719W        W66113  35.148  10.439   5.124
97720W        W66114   2.236  42.057   2.489
97721W        W66115  11.813   1.282  11.881
97722W        W66116  21.048  40.619  14.914
97723W        W66117  12.741   2.979   4.786
97724W        W66118  17.138  43.605  12.415
97725W        W66119  17.303   7.723  10.732
97726W        W66120  41.600  19.179   2.252
97727W        W66121  33.536  15.145   4.396
97728W        W66122   8.313  16.567   1.367
97729W        W66123  14.230   4.772   3.224
97730W        W66124  11.910  23.059   2.821
97731W        W66125  44.269  24.012  13.272
97732W        W66126  38.518  31.881  11.972
97733W        W66127   4.474  42.871   4.436
97734W        W66128  10.199  20.579  11.420
97735W        W66129  21.932  38.845   1.297
97736W        W66130  16.986   7.891  10.362
97737W        W66131  13.749  17.120  14.411
97738W        W66132  35.311   0.775   4.912
97739W        W66133  44.553  26.311   4.191
97740W        W66134  27.120  38.555   1.412
97741W        W66135  30.928   0.534   1.853
97742W        W66136   1.790  14.149  13.747
97743W        W66137  28.612  36.650   3.765
97744W        W66138   7.604  26.077   2.099
97745W        W66139  41.502  25.667  11.652
97746W        W66140  43.021  34.370   3.180
97747W        W66141  27.146   7.527  12.957
97748W        W66142  15.315  25.599   3.250
97749W        W66143  21.249  41.228  10.043
97750W        W66144  43.853  41.568  14.383
97751W        W66145  19.103   6.959   0.372
97752W        W66146  43.768  18.790  14.321
97753W        W66147  43.287  28.102   3.333
97754W        W66148  11.024  42.669  13.869
97755W        W66149  43.214   8.868  12.841
97756W        W66150   0.764  32.669   0.437
97757W        W66151  10.626  44.178   1.264
97758W        W66152  27.843   4.361  14.910
97759W        W66153   3.282  23.605  10.654
97760W        W66154  23.662  28.692  11.698
97761W        W66155  30.986  43.708   2.158
97762W        W66156   6.171   2.097   5.071
97763W        W66157   7.489  21.576   4.147
97764W        W66158  35.579  18.717  12.470
97765W        W66159  37.515   2.363   1.155
97766W        W66160  29.552   1.845  10.829
97767W        W66161  22.730  29.432   4.299
97768W        W66162  38.386  29.886  12.750
97769W        W66163  44.951  21.792   2.153
97770W        W66164  26.223  29.151  11.708
97771W        W66165  43.396  31.431  12.228
97772W        W66166   6.869  15.897   1.856
97773W        W66167  31.869  12.085  11.187
97774W        W66168  20.644  15.699  12.390
97775W        W66169   6.882  20.568   2.846
97776W        W66170  22.107  30.019   1.682
97777W        W66171   9.827  20.769   3.921
97778W        W66172  33.624  30.677  10.807
97779W        W66173  29.186  35.505   1.150
97780W        W66174   1.662   9.387   3.240
97781W        W66175  22.505  21.554   3.846
97782W        W66176  33.433  11.614  12.439
97783W        W66177  31.543  37.974  13.108
97784W        W66178  19.047  36.016   4.110
97785W        W66179  43.771  32.094   0.864
97786W        W66180  40.926  28.603   3.795
97787W        W66181   6.340  17.052  14.381
97788W        W66182   1.786  32.478  13.132
97789W        W66183  11.800   6.509   0.325
97790W        W66184  14.850  28.458   2.990
97791W        W66185  11.334  31.496  14.413
97792W        W66186  35.890  14.740  11.526
97793W        W66187   7.673   4.820  12.092
97794W        W66188  23.586  20.549  12.280
97795W        W66189  28.960  40.874  10.995
97796W        W66190  14.859  16.728  14.946
97797W        W66191  10.196  34.853   4.618
97798W        W66192  20.152   9.326   0.026
97799W        W66193  22.145  42.150  14.921
97800W        W66194  19.116  26.723   2.780
97801W        W66195   7.641  43.027  12.267
97802W        W66196  42.231  27.457   1.692
97803W        W66197  39.830  20.064  13.948
97804W        W66198  25.795   5.231   2.203
97805W        W66199  30.956  44.321   3.202
97806W        W66200   1.551  26.960   3.297
97807W        W66201  38.259  13.073   0.615
97808W        W66202   7.436   2.689   0.349
97809W        W66203  15.748  31.468  14.618
97810W        W66204   8.696  17.196  13.368
97811W        W66205  42.424   6.674  12.124
97812W        W66206  17.002   3.372  10.659
97813W        W66207  36.597  12.724   0.810
97814W        W66208  23.523  17.358   3.159
97815W        W66209  43.088  12.786   1.288
97816W        W66210   5.152   9.832   4.403
97817W        W66211  25.435  32.437   1.900
97818W        W66212   8.641  27.520  13.207
97819W        W66213  23.529  19.329   4.183
97820W        W66214  33.193  16.254   0.426
97821W        W66215  36.414   3.894  13.816
97822W        W66216  43.387   1.499   0.968
97823W        W66217   7.826  16.373   1.322
97824W        W66218  16.524   9.647  11.572
97825W        W66219  28.863  38.268  11.165
97826W        W66220  25.497  44.837   2.077
97827W        W66221  30.410  17.965   0.796
97828W        W66222   2.992   9.424   1.187
97829W        W66223  32.599  22.289  10.712
97830W        W66224  39.486  37.008  14.564
97831W        W66225   4.203   5.010   3.252
97832W        W66226  11.454  41.092   0.414
97833W        W66227  33.389  43.978  10.364
97834W        W66228  10.425  39.483  10.615
97835W        W66229  43.767  40.825   0.805
97836W        W66230  11.258  40.693  10.852
97837W        W66231  21.053  33.894  14.623
97838W        W66232  15.115   5.596   3.324
97839W        W66233  32.052   7.316   2.642
97840W        W66234  35.610   5.381  13.862
97841W        W66235  42.251  14.266   4.504
97842W        W66236  11.505  10.810  12.079
97843W        W66237  43.402  12.074  14.977
97844W        W66238  11.414  25.719  12.467
97845W        W66239  39.831  40.093   4.180
97846W        W66240  30.475  26.936   2.774
97847W        W66241   0.323  37.385  11.843
97848W        W66242   7.216  32.360  11.334
97849W        W66243  20.390  17.150   3.891
97850W        W66244   6.697  40.092   3.764
97851W        W66245  12.289  38.557   1.856
97852W        W66246  18.601  23.547   5.271
97853W        W66247  40.029   3.837   2.637
97854W        W66248  43.882  17.717   4.442
97855W        W66249  16.637  39.275   3.690
97856W        W66250  39.266  11.414  11.182
97857W        W66251  22.253   6.768  12.699
97858W        W66252  14.286  37.521   2.875
97859W        W66253  13.279  11.722  12.923
97860W        W66254   0.280  35.431   2.190
97861W        W66255  12.682   7.082  12.514
97862W        W66256  19.572   5.352   3.306
97863W        W66257  31.665   2.768   0.495
97864W        W66258   5.315  11.106   0.906
97865W        W66259  12.111  21.748  13.692
97866W        W66260  34.079  28.660  13.480
97867W        W66261   0.786   5.381  14.668
97868W        W66262  39.319  24.800  11.521
97869W        W66263  14.939  37.400   3.646
97870W        W66264  37.374   0.047  10.919
97871W        W66265  23.995  18.320  14.465
97872W        W66266  27.599  15.219  12.804
97873W        W66267  30.179  18.065  13.058
97874W        W66268  38.424   1.208  12.780
97875W        W66269  40.816  42.321   3.180
97876W        W66270  13.220  37.657   0.406
97877W        W66271  18.248  15.574   5.534
97878W        W66272   7.103  27.343  12.897
97879W        W66273  42.572   3.256   4.371
97880W        W66274  40.420  17.782   2.239
97881W        W66275  36.545  34.005   2.478
97882W        W66276  27.548   2.527  11.731
97883W        W66277   9.855  41.945  14.115
97884W        W66278  27.959  30.061   1.366
97885W        W66279  40.753  23.984  10.742
97886W        W66280  26.730  35.593   3.768
97887W        W66281  14.048   6.849  13.022
97888W        W66282  40.396  38.088  13.542
97889W        W66283  12.933  23.668   1.989
97890W        W66284  16.767   3.413  11.995
97891W        W66285  22.923  19.568   3.635
97892W        W66286  16.069   6.434   2.242
97893W        W66287  10.680   3.946   2.372
97894W        W66288  34.110  35.758  14.582
97895W        W66289  17.021  11.894   4.111
97896W        W66290   9.416   6.131   0.507
97897W        W66291  34.091  38.599   3.376
97898W        W66292   0.782  43.018  10.789
97899W        W66293  12.307  34.159   0.478
97900W        W66294   3.855  35.696  12.179
97901W        W66295  38.940   8.177  11.169
97902W        W66296  38.893  17.016   3.694
97903W        W66297   6.726   3.942   3.288
97904W        W66298  22.194  15.386   4.348
97905W        W66299  20.474  35.552  14.259
97906W        W66300  33.098  15.914   1.796
97907W        W66301  29.121   7.694   2.276
97908W        W66302  39.068  10.610  13.361
97909W        W66303  27.619  22.319   4.598
97910W        W66304   4.878  39.403   4.811
97911W        W66305  23.281  18.687   0.998
97912W        W66306  23.604  41.801  11.985
97913W        W66307  27.153   4.281   3.759
97914W        W66308  32.571  34.864   2.329
97915W        W66309  42.796   7.123   0.784
97916W        W66310   2.229  22.313   4.087
97917W        W66311  31.036  44.465   2.714
97918W        W66312  37.659   4.320   1.736
97919W        W66313   0.696  19.305   3.594
97920W        W66314  29.492  15.287   1.344
97921W        W66315  29.993   0.366  14.323
97922W        W66316  17.389  15.227  13.459
97923W        W66317  32.960   1.794   2.906
97924W        W66318  12.179  42.915   0.690
97925W        W66319   0.875   7.758  12.012
97926W        W66320  30.263   7.105  14.969
97927W        W66321   3.297  31.136   1.367
97928W        W66322  32.478  33.534  11.920
97929W        W66323   0.323   7.587  10.638
97930W        W66324   6.949  35.207  10.774
97931W        W66325  11.146  16.967   2.428
97932W        W66326  21.376   9.282   4.989
97933W        W66327  32.476  13.369  11.854
97934W        W66328   6.859  33.016  12.548
97935W        W66329   7.855  32.625  10.699
97936W        W66330  12.527  23.029   0.282
97937W        W66331   8.173  22.266   3.430
97938W        W66332  34.995  43.505  11.866
97939W        W66333   3.823  29.526  13.562
97940W        W66334   2.212   1.098   4.165
97941W        W66335   6.150  13.381  12.947
97942W        W66336  10.387  22.000   2.799
97943W        W66337  11.231  40.279  10.546
97944W        W66338   2.664  36.231  13.944
97945W        W66339  19.042  13.764  14.541
97946W        W66340  33.569  30.170  10.895
97947W        W66341  34.503  27.035  13.070
97948W        W66342   9.687  23.696   0.779
97949W        W66343  35.806  10.607   3.746
97950W        W66344   0.797  33.781   3.279
97951W        W66345  38.829  24.617   0.762
97952W        W66346  27.214  32.418   4.154
97953W        W66347  36.125  37.423  12.211
97954W        W66348  27.657  14.943  14.338
97955W        W66349  26.024   5.184  11.155
97956W        W66350  15.139  32.541   1.801
97957W        W66351   9.239  18.150   3.765
97958W        W66352  38.785  27.091  12.097
97959W        W66353  18.289  21.070  10.969
97960W        W66354  29.142  24.464  11.206
97961W        W66355  34.095  17.627   3.649
97962W        W66356  22.697  27.209  14.338
97963W        W66357  38.417  28.907   3.142
97964W        W66358  37.569  17.989   4.911
97965W        W66359  28.947   3.021   0.040
97966W        W66360  35.538  15.042   1.297
97967W        W66361  21.790  12.996   4.499
97968W        W66362  18.987   5.746  13.360
97969W        W66363   7.973  21.265   3.343
97970W        W66364  30.536   6.762  11.940
97971W        W66365   2.373  27.675  13.739
97972W        W66366   2.406   4.248  11.610
97973W        W66367   6.665   7.379   1.404
97974W        W66368  34.883  12.365  14.931
97975W        W66369  41.530  16.010  13.008
97976W        W66370  26.436  31.552  14.694
97977W        W66371  14.162   6.228  12.510
97978W        W66372   1.016  30.021  11.474
97979W        W66373  14.079  32.823  10.305
97980W        W66374  29.938  38.381  13.920
97981W        W66375  13.874  19.676   1.941
97982W        W66376  36.612  22.626   0.269
97983W        W66377   1.383  29.956  12.055
97984W        W66378  38.854  20.926   0.397
97985W        W66379  15.047  17.918  13.332
97986W        W66380  36.383  21.626  10.491
97987W        W66381  12.295   0.949  13.311
97988W        W66382  14.044  37.995   4.573
97989W        W66383  28.625  14.773   4.583
97990W        W66384  23.686  30.612  14.765
97991W        W66385  14.497  21.109  12.605
97992W        W66386  24.129  42.954   0.544
97993W        W66387  11.394  43.771  14.490
97994W        W66388  19.501   4.862  14.997
97995W        W66389  31.040  15.675   0.200
97996W        W66390  13.109  21.720  14.811
97997W        W66391  32.547  33.896  10.467
97998W        W66392  41.241   8.761   2.780
97999W        W66393  26.240  42.410   1.290
98000W        W66394  10.122   7.339   4.760
98001W        W66395   0.213  37.991   3.341
98002W        W66396  44.207  28.584  10.225
98003W        W66397   3.430  30.424   0.277
98004W        W66398  34.073  39.874  13.807
98005W        W66399  27.509  44.156  13.515
98006W        W66400  38.187   4.948  11.404
98007W        W66401  32.446  21.745   0.662
98008W        W66402  36.512  22.596   2.768
98009W        W66403   7.576  20.842   2.186
98010W        W66404  20.524  29.539   4.234
98011W        W66405  22.513  13.104   3.224
98012W        W66406  33.736  15.508   4.084
98013W        W66407   8.241   3.068  11.737
98014W        W66408  10.597  43.296   1.331
98015W        W66409   4.872  26.941  10.299
98016W        W66410  17.865   4.499   4.402
98017W        W66411  25.320   2.360  11.685
98018W        W66412   6.880   8.866  13.334
98019W        W66413  14.073  28.184  14.743
98020W        W66414   1.622  14.736   4.865
98021W        W66415   5.458  27.479   2.032
98022W        W66416  14.564  33.984  13.587
98023W        W66417  30.483  17.209  11.541
98024W        W66418  43.335  16.224   3.234
98025W        W66419  26.136  42.585  13.659
98026W        W66420  33.849  17.742  10.797
98027W        W66421  28.388  37.447   3.134
98028W        W66422  30.759  22.982  14.765
98029W        W66423  33.835  37.257  12.410
98030W        W66424  21.249  26.072  13.416
98031W        W66425  40.007  18.564   4.095
98032W        W66426  27.748  27.439   0.812
98033W        W66427  23.110   7.237  13.425
98034W        W66428  42.861  23.018   3.248
98035W        W66429  39.975  38.051  13.852
98036W        W66430   4.936  13.190  13.546
98037W        W66431  38.652   6.923  12.733
98038W        W66432  43.415  29.921   2.793
98039W        W66433  41.502  19.549  12.580
98040W        W66434  12.073   2.607  11.648
98041W        W66435  27.618  32.566  10.667
98042W        W66436  41.494  25.070  11.212
98043W        W66437  42.429  30.427   1.907
98044W        W66438  28.247   2.532  14.453
98045W        W66439   3.854  21.507   1.368
98046W        W66440  27.002   5.356  14.811
98047W        W66441  41.943  24.473  13.799
98048W        W66442  10.494   5.709   1.672
98049W        W66443  11.196  26.266  12.152
98050W        W66444  32.100  32.995  10.561
98051W        W66445   6.239  29.830  14.341
98052W        W66446  38.486  15.668  12.494
98053W        W66447  10.048  42.941  11.972
98054W        W66448  12.533  14.180   2.972
98055W        W66449  24.264  20.572   0.466
98056W        W66450  35.656  24.706   1.293
98057W        W66451  11.263   8.474   4.759
98058W        W66452  10.298  20.013  13.426
98059W        W66453   2.903  38.394   2.747
98060W        W66454  20.968  30.578   4.881
98061W        W66455  40.308  32.049  12.441
98062W        W66456  20.033  19.463   2.112
98063W        W66457  10.844  40.380  14.808
98064W        W66458  33.868  30.858  14.693
98065W        W66459  28.214  13.571  10.496
98066W        W66460  38.459  23.152  14.553
98067W        W66461   3.413  31.577  10.698
98068W        W66462   6.759  43.506   2.929
98069W        W66463  16.690  40.441  14.495
98070W        W66464  11.853  44.820   1.336
98071W        W66465  41.314  26.503   3.123
98072W        W66466  44.883  22.549   1.555
98073W        W66467  44.673  24.520   2.425
98074W        W66468   2.245  44.076   4.361
98075W        W66469  33.626  10.766   3.629
98076W        W66470  13.806   4.951   2.087
98077W        W66471  11.096  14.426  14.037
98078W        W66472  26.686   6.356  13.466
98079W        W66473  17.065   1.129  14.517
98080W        W66474  27.273   7.818  14.247
98081W        W66475   9.730  27.290  11.102
98082W        W66476  25.708  28.039   3.379
98083W        W66477   7.443  25.714   2.436
98084W        W66478  14.096  25.710   1.197
98085W        W66479   5.045  17.259   4.998
98086W        W66480  25.064  30.468   0.289
98087W        W66481  26.595  33.934   2.726
98088W        W66482  27.902  12.569   3.793
98089W        W66483  10.161  37.310  12.450
98090W        W66484  16.191  34.995   3.184
98091W        W66485  14.646  25.475   0.091
98092W        W66486  21.492  13.737  10.407
98093W        W66487  38.913  26.259  13.910
98094W        W66488  28.208   4.992  12.520
98095W        W66489  42.312   0.310   3.389
98096W        W66490  36.836  22.634   2.326
98097W        W66491  23.510  21.375  11.977
98098W        W66492  17.688  24.683  14.101
98099W        W66493  42.544  37.408  14.881
98100W        W66494  30.553   3.051   2.001
98101W        W66495   2.252   7.684   0.844
98102W        W66496  10.228  18.335  12.975
98103W        W66497  20.567  31.510   4.683
98104W        W66498  12.729  21.449   0.312
98105W        W66499  10.648  44.685   0.505
98106W        W66500  37.490  16.142   0.969
98107W        W66501  24.777  33.168  11.092
98108W        W66502  27.578  27.876  11.910
98109W        W66503  21.120  39.574  14.867
98110W        W66504  43.557  24.658  14.439
98111W        W66505  40.327  30.018  13.064
98112W        W66506   4.433  15.818  11.619
98113W        W66507  10.428  27.576  10.333
98114W        W66508  24.138  33.926  13.610
98115W        W66509  36.400  23.905   2.750
98116W        W66510  42.346   5.773   3.125
98117W        W66511  26.669  40.385   5.091
98118W        W66512  23.121  27.063  13.533
98119W        W66513  18.224   6.156  13.936
98120W        W66514   9.401  14.018  13.564
98121W        W66515  40.863  40.558   0.498
98122W        W66516  38.099  13.309  13.866
98123W        W66517  23.128  38.113  10.747
98124W        W66518  28.907  13.587  13.480
98125W        W66519  44.640  43.391   3.733
98126W        W66520   9.158   7.030   0.726
98127W        W66521  42.532  11.439  12.995
98128W        W66522  25.759  37.994   0.351
98129W        W66523  23.221  15.350   0.502
98130W        W66524   1.965  37.286   1.739
98131W        W66525  31.034  28.189  12.098
98132W        W66526  22.078   9.064   2.769
98133W        W66527  22.763  32.114  11.988
98134W        W66528  26.663  44.782  11.933
98135W        W66529  32.022  25.246  14.280
98136W        W66530  39.588  17.270  11.218
98137W        W66531  30.828  18.679  12.801
98138W        W66532   8.706  26.958   1.167
98139W        W66533  26.248  12.762  11.133
98140W        W66534  34.877  30.887   0.750
98141W        W66535  25.344  11.271   1.954
98142W        W66536   5.514  33.430   4.133
98143W        W66537  32.901  30.987   1.627
98144W        W66538  43.078  43.398   0.005
98145W        W66539   2.805  28.064   4.686
98146W        W66540  35.880  21.062   3.448
98147W        W66541   5.135   5.756   2.705
98148W        W66542  34.090  12.784  14.997
98149W        W66543  40.334  28.367   1.222
98150W        W66544   6.042   5.488   4.651
98151W        W66545  36.506  15.497   2.404
98152W        W66546  20.627  40.597  12.657
98153W        W66547  37.375  32.925   3.186
98154W        W66548  22.650  14.711   4.060
98155W        W66549   6.746  20.956   1.400
98156W        W66550  12.285  18.058  13.168
98157W        W66551  39.213  16.279  13.906
98158W        W66552  20.621   7.787   2.772
98159W        W66553  25.937  24.066   4.150
98160W        W66554  43.091  12.145   4.363
98161W        W66555  40.872  15.337  12.087
98162W        W66556  22.161  16.074   3.325
98163W        W66557  17.517  12.809   2.715
98164W        W66558  44.027  21.710  14.477
98165W        W66559  35.365  41.489   0.973
98166W        W66560  40.471  25.818  12.957
98167W        W66561  13.707  35.547   1.307
98168W        W66562  34.681  31.610   3.889
98169W        W66563  12.206  21.950  11.518
98170W        W66564  11.566   8.806  10.687
98171W        W66565  17.074  10.054  13.917
98172W        W66566  43.152  31.148  13.368
98173W        W66567  17.081  29.996  14.752
98174W        W66568  32.973   8.269  14.418
98175W        W66569  34.934  11.587   0.327
98176W        W66570  42.745  40.523   3.261
98177W        W66571  18.492  33.902  14.877
98178W        W66572  27.863  19.263  10.663
98179W        W66573  15.589   2.828  12.762
98180W        W66574   7.673  21.724   4.660
98181W        W66575  18.842   2.992  12.900
98182W        W66576  10.337  23.473   2.503
98183W        W66577  26.247  42.469   4.547
98184W        W66578   4.350  32.852  13.800
98185W        W66579  27.586  24.027   0.490
98186W        W66580  11.843  14.052   2.720
98187W        W66581  36.875  43.058   3.638
98188W        W66582  25.608  27.467  12.333
98189W        W66583  30.602  30.395  10.587
98190W        W66584   6.804   1.598   9.640
98191W        W66585  27.834  16.777  12.519
98192W        W66586  37.043  18.168   4.504
98193W        W66587  27.019  35.342   0.500
98194W        W66588  25.656  25.044  11.902
98195W        W66589   7.784  13.882  12.774
98196W        W66590  27.927  33.637   0.402
98197W        W66591   9.751   4.195   2.853
98198W        W66592  10.811  19.702   1.896
98199W        W66593  12.888   6.764   2.839
98200W        W66594  22.031  23.830   4.272
98201W        W66595  36.948  43.611   3.574
98202W        W66596  41.927   7.508   0.095
98203W        W66597  43.490  44.274   1.858
98204W        W66598  20.200   1.208   1.727
98205W        W66599  22.544  16.078  13.276
98206W        W66600  30.657  19.658  12.432
98207W        W66601  30.364  24.434  13.000
98208W        W66602  16.905  23.022   1.144
98209W        W66603   6.767  41.073  10.748
98210W        W66604   7.895  12.309  13.705
98211W        W66605  38.800   1.380   2.291
98212W        W66606   6.788  37.856   3.154
98213W        W66607  31.616  18.618  11.157
98214W        W66608  24.546   3.180  12.759
98215W        W66609  37.955   8.872  13.803
98216W        W66610  16.704  22.112   1.726
98217W        W66611  10.887  27.589   2.116
98218W        W66612  18.529  39.824   0.993
98219W        W66613   3.706  41.381  11.486
98220W        W66614  43.241  39.963   5.484
98221W        W66615  40.037  28.431   3.684
98222W        W66616  12.775  18.631   2.793
98223W        W66617  25.385  32.156  11.623
98224W        W66618  25.298   0.238  10.764
98225W        W66619   9.905  38.542   3.390
98226W        W66620   9.249  10.804  14.381
98227W        W66621  38.872   2.372   0.002
98228W        W66622  42.488  20.702   0.712
98229W        W66623  44.989   4.823   0.827
98230W        W66624  21.624  20.706   4.046
98231W        W66625  40.904   6.263   0.329
98232W        W66626  30.468  14.150  14.310
98233W        W66627  15.553  43.702  12.032
98234W        W66628  24.452  42.869   3.709
98235W        W66629  12.177  22.627   2.550
98236W        W66630   4.481  35.856   0.137
98237W        W66631   6.229   9.148   1.568
98238W        W66632  27.102  29.596   3.405
98239W        W66633   3.965  21.775  13.035
98240W        W66634   9.516  19.626   1.334
98241W        W66635   7.824   8.677  10.311
98242W        W66636  22.706  11.879   2.321
98243W        W66637  33.217  34.054  13.817
98244W        W66638  17.542  35.167   3.321
98245W        W66639  27.222   4.917  13.388
98246W        W66640  26.184  18.799   0.901
98247W        W66641  34.877  23.995  11.071
98248W        W66642  35.577   4.025   2.258
98249W        W66643  34.087  13.706   3.782
98250W        W66644  39.648  41.664   2.764
98251W        W66645  44.860   6.694  10.561
98252W        W66646   9.295  24.080  14.334
98253W        W66647  28.222  33.119  10.340
98254W        W66648  36.302  11.131  11.551
98255W        W66649  17.777   5.369   2.304
98256W        W66650   3.382  41.216  14.428
98257W        W66651  31.054  43.409  11.416
98258W        W66652  31.979  36.010   0.939
98259W        W66653  26.836  21.150  12.367
98260W        W66654  28.139  29.258  12.962
98261W        W66655  30.646  19.782   1.142
98262W        W66656  34.462  17.164   2.375
98263W        W66657  20.294  17.490  13.695
98264W        W66658   7.703   4.186  12.122
98265W        W66659  20.230  23.441   2.274
98266W        W66660  27.741   2.466  14.423
98267W        W66661  32.970  18.270  12.470
98268W        W66662  23.173  16.045   3.543
98269W        W66663  33.646  31.425   0.922
98270W        W66664   8.898  26.090  12.054
98271W        W66665  36.033  41.587   1.722
98272W        W66666   3.531  42.447  10.640
98273W        W66667  20.691  41.847   0.647
98274W        W66668  15.761  33.894  14.277
98275W        W66669  32.557  31.167  13.007
98276W        W66670   9.105  27.066  14.528
98277W        W66671  29.171  33.883  14.412
98278W        W66672   3.923  30.699  11.611
98279W        W66673  25.620  18.241   3.693
98280W        W66674  17.135  22.541   4.765
98281W        W66675  21.320  26.175   3.867
98282W        W66676  23.021  29.866   4.244
98283W        W66677  16.265   1.668  14.414
98284W        W66678  11.898  19.990  12.554
98285W        W66679   9.866  21.778   0.034
98286W        W66680  10.784  22.451  11.948
98287W        W66681  39.509  13.823   2.157
98288W        W66682  38.338  40.887   4.178
98289W        W66683  43.692   6.204  11.808
98290W        W66684  36.735   5.643  13.837
98291W        W66685  41.103   4.633   1.246
98292W        W66686  44.458   5.725   2.627
98293W        W66687  16.295  16.139  13.702
98294W        W66688  12.470   5.551   3.291
98295W        W66689  43.181  32.024   1.416
98296W        W66690  34.939  34.018   4.582
98297W        W66691   8.169  32.934  11.701
98298W        W66692  12.853  30.216  13.283
98299W        W66693  18.760  13.674  11.899
98300W        W66694   6.879  43.208  14.910
98301W        W66695  38.581  27.192   0.429
98302W        W66696  21.929  18.334   3.734
98303W        W66697   1.945  34.028   1.284
98304W        W66698  23.455  15.773   3.175
98305W        W66699  16.757   6.882   1.329
98306W        W66700  43.777  29.134   2.266
98307W        W66701  27.713   4.228   1.531
98308W        W66702  34.732   4.037   2.311
98309W        W66703  35.642  27.752   4.138
98310W        W66704  27.777   7.883  14.321
98311W        W66705  37.047  39.602  10.839
98312W        W66706  17.429  39.589   0.676
98313W        W66707   4.372  14.649   4.575
98314W        W66708  24.977  18.812   3.319
98315W        W66709   1.752  14.749   4.373
98316W        W66710  14.597   9.238   4.498
98317W        W66711  38.932   9.624  12.384
98318W        W66712  28.505  18.634  10.758
98319W        W66713  19.797  42.301   3.288
98320W        W66714  32.644   2.082  14.488
98321W        W66715  12.679   1.463   1.752
98322W        W66716  28.158  29.890  10.777
98323W        W66717  37.530  30.923   3.048
98324W        W66718  26.748  15.134  11.843
98325W        W66719   1.827  29.918  14.819
98326W        W66720  18.278  29.215   0.861
98327W        W66721  20.925  35.547   4.002
98328W        W66722   7.249  12.615   0.767
98329W        W66723  10.056   9.361  12.507
98330W        W66724  23.178  19.147   3.833
98331W        W66725  40.998   2.468   2.388
98332W        W66726  35.851   7.400  10.686
98333W        W66727  31.796  38.961   1.792
98334W        W66728  24.836  32.214  13.382
98335W        W66729  32.518  11.603  10.710
98336W        W66730  39.930  41.886   4.138
98337W        W66731  12.738  39.765  12.137
98338W        W66732   1.065  15.531  14.966
98339W        W66733  23.737   9.774  13.787
98340W        W66734  44.460  36.469   0.890
98341W        W66735  38.462  28.579   0.839
98342W        W66736   5.898  21.974   1.246
98343W        W66737  17.081  16.594   1.817
98344W        W66738  23.006  11.628  13.901
98345W        W66739  42.532  30.596   0.482
98346W        W66740  23.509   7.827  12.894
98347W        W66741  15.213  10.638  13.010
98348W        W66742   0.405  30.431  13.778
98349W        W66743  42.342   5.670  14.810
98350W        W66744  10.085  41.513  13.471
98351W        W66745   6.488  39.368   1.689
98352W        W66746   3.515  24.519  11.625
98353W        W66747  19.682   9.924   3.730
98354W        W66748  39.147   1.971  12.135
98355W        W66749   7.412  27.756  13.524
98356W        W66750  12.311  40.522   0.689
98357W        W66751  24.789   6.637  12.155
98358W        W66752  38.909  28.895   2.946
98359W        W66753   3.190  23.470   0.965
98360W        W66754  17.887  18.059  11.969
98361W        W66755  43.811   4.873  10.872
98362W        W66756  15.208  27.012   1.227
98363W        W66757  23.603   7.275  13.901
98364W        W66758  14.325  36.282   2.315
98365W        W66759  17.298   6.175  12.948
98366W        W66760  15.761  43.233  12.338
98367W        W66761  42.083  38.918  13.407
98368W        W66762   7.261  16.312   1.415
98369W        W66763  22.845   0.650  10.211
98370W        W66764  34.410  15.217   0.753
98371W        W66765  21.801  16.084  14.409
98372W        W66766   5.436   3.022   2.212
98373W        W66767  35.519  35.644   3.786
98374W        W66768  38.617  28.162  11.612
98375W        W66769  39.989  25.742  12.676
98376W        W66770  37.628  44.982   3.290
98377W        W66771  20.476  33.434   0.414
98378W        W66772  34.447  15.524  14.640
98379W        W66773  29.861   2.230  12.528
98380W        W66774  11.368  24.469   3.513
98381W        W66775   7.397  17.742  13.151
98382W        W66776  36.319  15.946   4.573
98383W        W66777   5.284  44.747  10.456
98384W        W66778  29.034  11.596  11.173
98385W        W66779  40.429  42.256   1.845
98386W        W66780  41.543  29.198  12.990
98387W        W66781   4.735  17.478   3.665
98388W        W66782  18.427   8.857  13.436
98389W        W66783   9.509  28.096  13.505
98390W        W66784  14.266  13.749  10.990
98391W        W66785  27.587  24.180  14.466
98392W        W66786  23.222  18.548  13.945
98393W        W66787  36.974  12.717   1.879
98394W        W66788  28.588  37.858  13.442
98395W        W66789  36.781  17.978  12.862
98396W        W66790  40.627   3.080  10.378
98397W        W66791  22.789  16.766  13.912
98398W        W66792   9.737  27.067   1.373
98399W        W66793  22.398  11.643   3.599
98400W        W66794  24.192   4.987   0.184
98401W        W66795  21.249  26.178   5.014
98402W        W66796  19.690  19.715   4.943
98403W        W66797  21.187  17.114  14.589
98404W        W66798  14.872  13.136  14.705
98405W        W66799  31.096  36.672  12.995
98406W        W66800  35.124   4.942   2.464
98407W        W66801  42.599  13.691   1.241
98408W        W66802  44.942  38.848  11.590
98409W        W66803  16.259   8.166   3.274
98410W        W66804  42.659  43.911  13.534
98411W        W66805  33.712  28.136   4.925
98412W        W66806  26.358  19.505   2.188
98413W        W66807   8.816  36.090  14.556
98414W        W66808   9.877  36.881  14.238
98415W        W66809  35.077  37.922   2.891
98416W        W66810  28.123  43.278  12.800
98417W        W66811  40.092  40.720  11.871
98418W        W66812  35.512  31.339   1.911
98419W        W66813  30.959  44.436   0.198
98420W        W66814   0.147  11.838  11.653
98421W        W66815  23.475  21.565  13.089
98422W        W66816  20.717   5.445   4.402
98423W        W66817   9.239  19.608  14.519
98424W        W66818  20.294  19.210  11.498
98425W        W66819   9.776   1.812  11.580
98426W        W66820  25.291  23.673   1.143
98427W        W66821  19.442   2.985  13.941
98428W        W66822  36.520  37.977  12.465
98429W        W66823   4.632  10.351  14.047
98430W        W66824   3.905  14.068   2.067
98431W        W66825  39.618  34.173  13.423
98432W        W66826  29.720   2.761  11.524
98433W        W66827  24.455  21.992   0.901
98434W        W66828  39.317  22.464   3.472
98435W        W66829  27.834   1.849   4.587
98436W        W66830  38.353   8.304  13.461
98437W        W66831  20.215  12.498   3.164
98438W        W66832   8.419  44.330  10.393
98439W        W66833  17.230  16.517  14.128
98440W        W66834  29.090  38.031   1.272
98441W        W66835  19.576  11.669   4.149
98442W        W66836  15.665  22.627  12.110
98443W        W66837   5.892  33.047  12.562
98444W        W66838  11.462  25.065   1.839
98445W        W66839  30.562  17.578  14.844
98446W        W66840  39.437  22.312   1.659
98447W        W66841  12.530   8.335  10.535
98448W        W66842   7.480  27.719   3.035
98449W        W66843  20.782   5.159  14.490
98450W        W66844  34.590  28.722   2.363
98451W        W66845  36.418   6.797   4.125
98452W        W66846   3.463  30.495  13.919
98453W        W66847  21.825  29.507   2.423
98454W        W66848   2.820   8.015  12.931
98455W        W66849  21.107  18.668  13.910
98456W        W66850  26.718  24.511  11.990
98457W        W66851  29.054  40.558   4.739
98458W        W66852  35.382  19.517   0.320
98459W        W66853   3.537  32.049  11.534
98460W        W66854   4.764  25.144  10.137
98461W        W66855  30.822   5.045  13.248
98462W        W66856  25.581  43.105  12.121
98463W        W66857  24.459   3.379  11.384
98464W        W66858   7.567  36.505  14.394
98465W        W66859  22.053  14.532  13.447
98466W        W66860  32.895  13.161  10.980
98467W        W66861  22.148  25.044  14.290
98468W        W66862   0.514  10.338  11.581
98469W        W66863  10.431  19.978   1.148
98470W        W66864   4.449  33.640  14.781
98471W        W66865  38.429  29.485   1.706
98472W        W66866  30.006  11.694  14.527
98473W        W66867  15.504  26.529  13.050
98474W        W66868   2.104  11.766   0.472
98475W        W66869   1.257  42.571  13.412
98476W        W66870  36.861  31.177   1.414
98477W        W66871  16.760   1.749   1.178
98478W        W66872  24.232  15.718   4.931
98479W        W66873  19.777  31.884  13.888
98480W        W66874   3.965  24.245   4.394
98481W        W66875  28.674  38.475  14.369
98482W        W66876  37.630   9.005   0.140
98483W        W66877  23.120  13.693   4.626
98484W        W66878   0.683  22.742   4.107
98485W        W66879  43.909   9.112  13.989
98486W        W66880  10.891  22.575   2.239
98487W        W66881   3.856  19.514  14.938
98488W        W66882  33.796  36.485   1.638
98489W        W66883   3.411  39.077  12.067
98490W        W66884  10.408   3.668   3.178
98491W        W66885  34.478  35.203  13.483
98492W        W66886   2.043  18.516   0.010
98493W        W66887  36.547  30.868  13.398
98494W        W66888  26.408  40.242   4.138
98495W        W66889  11.838  42.452   3.684
98496W        W66890   0.384   2.294   3.653
98497W        W66891  36.306  31.016   1.473
98498W        W66892  33.315   6.051  13.092
98499W        W66893  38.894  19.529   0.355
98500W        W66894  26.494  25.299  10.245
98501W        W66895  38.445  18.276   2.067
98502W        W66896  38.810  24.760   9.958
98503W        W66897   2.838  29.438   0.971
98504W        W66898  16.470  36.383  12.660
98505W        W66899  39.969  36.594   4.781
98506W        W66900  12.799  43.369   1.136
98507W        W66901  17.746  25.236   2.785
98508W        W66902  36.453  18.260   5.047
98509W        W66903   8.731  37.573  14.329
98510W        W66904  34.911  16.188  11.951
98511W        W66905  16.178  27.673   1.879
98512W        W66906  17.198  40.541  10.682
98513W        W66907   6.493  21.632  13.527
98514W        W66908  20.341  22.547   0.817
98515W        W66909  11.990   9.406   2.694
98516W        W66910  33.199  14.875   1.038
98517W        W66911  15.104   5.728   1.970
98518W        W66912  24.723  21.307  13.613
98519W        W66913  19.884  28.040  13.060
98520W        W66914  22.599  44.219   2.233
98521W        W66915   7.674  37.569   2.422
98522W        W66916  30.248   2.387   3.550
98523W        W66917  32.381  44.144   0.788
98524W        W66918  37.040  14.664  11.432
98525W        W66919  42.045   3.360  12.213
98526W        W66920  38.000  12.424  14.331
98527W        W66921  17.078  13.773   0.337
98528W        W66922   9.949  14.290  14.983
98529W        W66923  42.294  17.837   2.196
98530W        W66924  37.607  30.368   0.504
98531W        W66925  37.815  16.919   0.382
98532W        W66926  23.873  10.525  10.425
98533W        W66927  37.451  35.607   2.889
98534W        W66928  18.617  34.856   4.611
98535W        W66929   4.112  37.357   2.675
98536W        W66930  36.305  19.628  12.537
98537W        W66931  14.577   8.967   5.131
98538W        W66932  16.281  40.855   0.755
98539W        W66933  32.111  19.749  14.286
98540W        W66934   0.878  11.806   2.918
98541W        W66935   5.689  16.446   3.854
98542W        W66936  31.515   9.733   4.583
98543W        W66937  21.275  32.538   4.303
98544W        W66938  42.480  24.030   4.124
98545W        W66939  40.865   2.941   0.872
98546W        W66940  35.092  32.626  11.254
98547W        W66941  33.154  13.567  14.368
98548W        W66942   3.333  15.392  11.039
98549W        W66943  19.582  24.083   4.386
98550W        W66944  27.581  33.596   3.771
98551W        W66945  21.953  29.228   1.951
98552W        W66946  22.356  41.950  11.363
98553W        W66947  30.367  43.292  12.137
98554W        W66948   3.355  20.314   3.812
98555W        W66949  19.326  33.091   3.559
98556W        W66950  23.892  43.177   5.043
98557W        W66951  15.798  32.320   4.088
98558W        W66952  15.660  17.636   4.169
98559W        W66953  36.402  12.203   4.582
98560W        W66954  41.661  12.902   0.565
98561W        W66955  34.816  23.891   3.830
98562W        W66956  10.316  32.889  12.856
98563W        W66957  19.321   5.305  12.914
98564W        W66958  39.462  18.347   2.865
98565W        W66959  18.092  19.169   3.305
98566W        W66960  40.949  22.218   3.912
98567W        W66961  23.357  43.798  13.068
98568W        W66962  25.562  36.056   2.364
98569W        W66963  13.230  33.735   1.843
98570W        W66964  22.122  43.554   2.687
98571W        W66965  17.166  36.963   0.879
98572W        W66966  20.438  42.850  12.918
98573W        W66967  18.085   0.776   1.739
98574W        W66968  44.690  20.493   1.186
98575W        W66969  22.433   9.048  11.020
98576W        W66970  14.092  10.226  13.578
98577W        W66971  34.255  36.783  11.185
98578W        W66972  18.290  12.069   0.248
98579W        W66973  20.762   0.340   2.805
98580W        W66974  22.202  39.070  11.156
98581W        W66975  42.761   0.555  11.529
98582W        W66976   1.221  13.263  11.527
98583W        W66977  28.123  25.634   0.745
98584W        W66978  17.241   8.920  13.316
98585W        W66979  29.953  36.241   0.187
98586W        W66980  23.094   2.930  10.608
98587W        W66981  33.078  43.789  10.738
98588W        W66982  15.687  15.376  14.900
98589W        W66983  41.264  18.542   0.259
98590W        W66984   6.864  22.891   3.141
98591W        W66985  37.279  39.486   2.684
98592W        W66986  41.002   6.856  14.265
98593W        W66987   3.658  28.373  14.954
98594W        W66988   3.116   3.809  13.355
98595W        W66989  21.517   6.955  12.983
98596W        W66990   2.778   9.173   2.436
98597W        W66991  21.426  13.591  11.417
98598W        W66992  22.898  21.283   0.371
98599W        W66993  28.382  20.115   4.625
98600W        W66994   8.024  26.245   2.999
98601W        W66995   1.752  38.864   3.275
98602W        W66996  27.900  10.413   0.542
98603W        W66997   4.772   3.762   1.171
98604W        W66998   9.347  41.106  13.603
98605W        W66999  40.088   8.579   1.231
98606W        W67000   8.420  21.130   1.467
98607W        W67001  11.713  31.321  14.754
98608W        W67002   3.969   5.886  12.780
98609W        W67003   6.850  13.376   2.836
98610W        W67004  23.958  26.095  11.412
98611W        W67005  25.162  22.383  12.424
98612W        W67006  18.335   1.060  11.048
98613W        W67007  30.287  15.249  14.906
98614W        W67008  30.384  24.800  14.815
98615W        W67009  35.091   7.775  12.356
98616W        W67010  34.370  27.521  12.915
98617W        W67011  14.724   5.591   4.072
98618W        W67012  42.842  32.782   1.834
98619W        W67013  22.606   1.779   4.710
98620W        W67014  28.318  16.193   2.053
98621W        W67015  32.528  13.331   0.416
98622W        W67016  19.085  40.936   1.397
98623W        W67017  15.606   3.358  12.600
98624W        W67018   4.433  33.532  10.670
98625W        W67019  40.970  31.005   4.740
98626W        W67020  14.070  44.830   3.779
98627W        W67021  28.400  13.465  14.000
98628W        W67022  40.928  10.614   3.317
98629W        W67023  26.774  31.110   3.203
98630W        W67024   8.781  20.790  14.808
98631W        W67025   0.637  21.515  13.451
98632W        W67026  43.409  23.947   0.224
98633W        W67027  21.071  40.364  12.981
98634W        W67028  31.024  25.588   4.786
98635W        W67029  41.263  12.709   4.585
98636W        W67030   1.509  36.664  13.430
98637W        W67031  23.536  14.669  10.657
98638W        W67032  11.303  15.346  13.901
98639W        W67033   5.540  43.500  14.093
98640W        W67034  39.511  32.355  10.519
98641W        W67035  41.348  20.265   1.665
98642W        W67036  27.551   1.713   2.371
98643W        W67037  41.900  30.972  14.915
98644W        W67038  35.033  26.383  11.155
98645W        W67039   0.835   0.092   2.010
98646W        W67040  12.904  30.428   2.313
98647W        W67041  30.603  43.881  14.027
98648W        W67042  23.296   3.020   0.392
98649W        W67043   1.375  13.665  12.155
98650W        W67044  17.477   4.569  10.286
98651W        W67045  11.630  10.643   4.065
98652W        W67046   8.721  21.183  14.051
98653W        W67047   2.433  24.974   2.086
98654W        W67048  17.519   4.804  12.017
98655W        W67049  20.945  22.344  12.581
98656W        W67050  22.417  17.707  12.102
98657W        W67051  44.952  33.125  14.428
98658W        W67052  37.481  17.202  11.439
98659W        W67053  20.743  40.926   1.770
98660W        W67054  11.188   3.089  11.492
98661W        W67055  42.804  19.877   3.637
98662W        W67056  35.397  39.302   4.829
98663W        W67057  37.436   3.775   0.934
98664W        W67058  31.022  12.061  12.989
98665W        W67059  11.228  15.231  13.009
98666W        W67060  17.374  41.681  11.661
98667W        W67061   2.432   1.733  13.420
98668W        W67062   2.481  37.803  11.050
98669W        W67063  44.259  43.741   3.689
98670W        W67064  23.442  19.971  10.458
98671W        W67065  26.410  43.815   1.943
98672W        W67066  12.679  12.172  10.815
98673W        W67067  14.840  31.611   3.375
98674W        W67068  37.800  38.275   0.736
98675W        W67069  34.452  37.510  10.690
98676W        W67070  11.771   8.719  14.613
98677W        W67071  31.092  23.197   2.756
98678W        W67072  20.686  20.219   0.466
98679W        W67073  23.004  15.283  10.924
98680W        W67074  38.799  36.849  13.427
98681W        W67075   4.287  23.563  12.487
98682W        W67076  12.587  39.902   0.543
98683W        W67077  19.839   6.732   0.879
98684W        W67078   6.937  22.086  11.134
98685W        W67079  34.477   4.450   1.370
98686W        W67080  27.045   1.766  11.430
98687W        W67081  37.947  28.818  12.508
98688W        W67082   7.293   5.171  10.770
98689W        W67083  35.411  17.298  13.819
98690W        W67084  13.614  27.314   2.104
98691W        W67085   9.208  16.011   4.886
98692W        W67086  10.957  29.989   4.524
98693W        W67087  20.748  21.583  11.503
98694W        W67088  16.682  35.324  13.992
98695W        W67089   7.728  20.291  15.000
98696W        W67090   0.097  22.166  12.867
98697W        W67091  22.138  17.971  10.108
98698W        W67092  23.504  18.472  14.558
98699W        W67093  25.087  18.101   3.683
98700W        W67094  38.552  29.905  13.381
98701W        W67095   8.595  28.104   3.415
98702W        W67096   2.808  28.543  12.446
98703W        W67097   3.144  23.871   4.609
98704W        W67098   0.022  32.170  10.548
98705W        W67099  26.537  20.372   3.835
98706W        W67100   2.336  18.802  14.305
98707W        W67101  33.431  37.860   4.631
98708W        W67102  32.558  17.249   2.290
98709W        W67103  11.754   4.942   3.421
98710W        W67104  42.914  16.814   2.669
98711W        W67105  32.853   0.937  13.884
98712W        W67106  34.356  24.387  13.641
98713W        W67107  17.319  40.490  13.415
98714W        W67108  16.431  29.859  13.999
98715W        W67109  11.657  18.247   2.680
98716W        W67110  29.205  24.385  13.892
98717W        W67111  18.070   4.341   0.970
98718W        W67112  23.618  42.787  10.339
98719W        W67113   9.162  35.506   0.964
98720W        W67114  42.370   9.964  12.874
98721W        W67115   6.677   9.193   2.502
98722W        W67116  13.107  24.301   0.478
98723W        W67117  26.279  36.985   4.627
98724W        W67118  25.489  20.325  11.614
98725W        W67119   7.739   9.629  12.770
98726W        W67120  19.259  17.370  14.224
98727W        W67121   2.559  21.006  10.328
98728W        W67122  33.979  36.963   3.651
98729W        W67123  25.563  12.062  12.996
98730W        W67124  34.007  43.558  11.069
98731W        W67125  21.399  31.708   3.837
98732W        W67126   7.356  25.946   1.655
98733W        W67127  39.462  10.630  13.007
98734W        W67128  17.209  41.160  12.401
98735W        W67129  31.888  30.719  12.443
98736W        W67130  12.316  15.706  11.578
98737W        W67131  20.993  22.097  11.577
98738W        W67132  22.569  25.249  14.069
98739W        W67133  40.404  27.129   3.856
98740W        W67134   1.605  27.712   1.346
98741W        W67135  25.351  10.227  11.471
98742W        W67136  25.700  18.036   2.418
98743W        W67137  31.697  15.710   0.899
98744W        W67138   5.388  11.263  11.296
98745W        W67139  27.675   3.133   0.286
98746W        W67140  10.140  21.961   3.280
98747W        W67141   6.767   5.752   0.495
98748W        W67142  42.400  23.012  14.874
98749W        W67143   9.649  42.804   5.017
98750W        W67144   4.447  24.320  10.458
98751W        W67145  27.211   1.189   9.823
98752W        W67146  16.149  17.625   9.821
98753W        W67147  44.281  12.631  14.882
98754W        W67148  12.552  44.185  14.904
98755W        W67149  29.573   6.050   0.911
98756W        W67150  23.399  32.987   0.101
98757W        W67151   4.672  34.955  10.927
98758W        W67152  19.432  38.366   0.813
98759W        W67153  23.798  35.069   4.245
98760W        W67154   6.211  18.003   1.319
98761W        W67155  26.699  19.028   2.104
98762W        W67156  21.162   8.684  13.917
98763W        W67157  15.838   8.859   0.499
98764W        W67158  22.797  14.779   1.265
98765W        W67159  38.367   9.315   3.754
98766W        W67160  33.407  16.912  12.948
98767W        W67161  12.532  43.334  11.195
98768W        W67162  40.072  27.628   3.175
98769W        W67163  15.960  37.431   2.231
98770W        W67164  12.140  23.757  14.381
98771W        W67165   5.618  10.193  14.774
98772W        W67166   8.795   8.898  12.906
98773W        W67167  24.090   3.152   1.863
98774W        W67168   5.937   7.346   1.775
98775W        W67169   2.842  30.376   4.958
98776W        W67170  16.052  23.061   3.196
98777W        W67171  17.228  12.865   2.025
98778W        W67172  39.082  38.280  11.056
98779W        W67173  25.620  40.993   1.711
98780W        W67174  40.838  18.951   1.733
98781W        W67175  39.074   1.479   3.734
98782W        W67176   9.710   1.252   3.623
98783W        W67177  43.899  11.640  13.449
98784W        W67178  24.153   5.188  11.065
98785W        W67179   8.311  39.848   3.578
98786W        W67180  31.150  22.233  14.664
98787W        W67181  33.265  12.110  13.392
98788W        W67182   4.146  44.027  10.951
98789W        W67183  24.960   8.823  12.426
98790W        W67184  17.827   7.806  11.148
98791W        W67185   8.499  14.834  10.606
98792W        W67186  28.936   1.176  14.356
98793W        W67187  35.447  36.801  14.559
98794W        W67188  24.192   9.477  11.083
98795W        W67189  39.946  20.343  13.531
98796W        W67190   0.939   3.897  14.751
98797W        W67191  43.717   7.347   4.565
98798W        W67192  11.788  33.205   4.624
98799W        W67193  19.785  39.387   5.194
98800W        W67194   6.972  36.119   1.849
98801W        W67195   6.418   3.882   0.766
98802W        W67196  41.883  19.793   3.758
98803W        W67197  26.064   9.438   0.829
98804W        W67198  27.952  20.129   3.693
98805W        W67199   3.669  43.258   4.278
98806W        W67200   1.760  38.488  12.168
98807W        W67201   3.449  29.133  12.104
98808W        W67202  23.715   8.714  11.941
98809W        W67203  39.350  19.251   1.738
98810W        W67204   7.215  27.946  13.994
98811W        W67205  39.447   3.228  12.335
98812W        W67206  30.323  33.568  12.773
98813W        W67207  27.143  26.399  14.043
98814W        W67208  25.214  23.261   0.782
98815W        W67209  28.475  37.843   4.030
98816W        W67210   7.227  12.883   3.212
98817W        W67211  10.286  26.596  14.891
98818W        W67212  27.019  33.926  11.641
98819W        W67213   0.438  17.922  13.703
98820W        W67214  41.331  18.298  13.889
98821W        W67215  15.749  21.315  14.909
98822W        W67216  38.072  35.072   4.048
98823W        W67217  26.796  16.840  14.231
98824W        W67218  16.304   1.986   3.217
98825W        W67219  30.468  11.217   0.789
98826W        W67220   9.455  11.349   2.616
98827W        W67221  31.473  33.866  12.096
98828W        W67222  15.158   2.885  13.058
98829W        W67223   7.456  11.900   1.293
98830W        W67224  37.160  44.467  12.005
98831W        W67225  23.657  28.480   1.343
98832W        W67226  24.135   5.275  12.410
98833W        W67227  30.482   7.968   1.334
98834W        W67228  37.150  19.687   3.508
98835W        W67229   8.554  25.618   4.345
98836W        W67230   3.260   3.318   5.029
98837W        W67231   5.231  10.038   0.906
98838W        W67232  19.964  21.163  13.915
98839W        W67233  18.191  10.888   0.932
98840W        W67234   9.332  24.607   1.955
98841W        W67235  22.705   5.940   4.135
98842W        W67236  34.017  44.227  12.076
98843W        W67237   7.476  29.133   3.782
98844W        W67238  16.233  24.481   1.935
98845W        W67239  22.674  28.924   1.259
98846W        W67240  29.312  35.837   2.065
98847W        W67241   7.314  12.283   1.609
98848W        W67242   9.906  25.523  13.449
98849W        W67243  11.775  30.569  13.777
98850W        W67244  23.883  13.116  12.571
98851W        W67245  12.754  33.702  14.770
98852W        W67246  32.786  21.306   2.806
98853W        W67247  20.182  42.380   2.231
98854W        W67248  33.899  26.574  11.035
98855W        W67249   5.976  35.440  11.926
98856W        W67250  18.216  30.870   2.638
98857W        W67251  29.471  13.239  12.461
98858W        W67252  23.047  20.008  14.046
98859W        W67253   6.665  40.012  11.852
98860W        W67254  19.565  43.334  14.425
98861W        W67255   5.812  20.146   4.295
98862W        W67256   4.962  18.854   4.135
98863W        W67257  33.901  18.223  10.987
98864W        W67258   3.802  35.467   3.347
98865W        W67259   9.168  26.934   1.356
98866W        W67260  31.999  42.059  11.106
98867W        W67261   2.458  18.737  13.316
98868W        W67262  22.025  23.134   2.195
98869W        W67263  41.928   0.878  13.963
98870W        W67264  27.417  18.565   0.385
98871W        W67265  24.150  44.725  13.554
98872W        W67266  37.862  15.823  10.780
98873W        W67267   8.094  26.244  11.352
98874W        W67268  39.038   9.282   3.058
98875W        W67269   9.656  28.563   3.686
98876W        W67270  26.058  32.161   0.991
98877W        W67271  30.689   9.337  11.999
98878W        W67272  20.672   9.852   4.994
98879W        W67273   4.528  18.698   2.407
98880W        W67274  12.554  20.217  11.509
98881W        W67275  31.496  15.449   4.003
98882W        W67276  14.749  27.053   4.707
98883W        W67277  29.108  26.018   3.786
98884W        W67278  26.090  10.654   1.202
98885W        W67279  13.666  37.549   1.682
98886W        W67280  32.040  17.814   1.351
98887W        W67281  40.529   7.787   4.722
98888W        W67282  17.193   1.858   1.985
98889W        W67283   5.967  11.768   4.542
98890W        W67284  10.328   7.242   3.144
98891W        W67285  27.065  39.725   4.018
98892W        W67286  39.312  39.367  14.876
98893W        W67287  21.766  19.544  10.601
98894W        W67288  13.559  13.773  12.239
98895W        W67289  24.709  26.929   2.203
98896W        W67290   5.406  21.975   1.771
98897W        W67291   0.946  25.658  12.090
98898W        W67292  42.334  10.085   3.327
98899W        W67293   8.295  35.660  11.640
98900W        W67294  29.154   5.237   4.183
98901W        W67295  11.126  24.668  12.048
98902W        W67296  29.016  11.340   1.726
98903W        W67297  24.007  41.000   3.177
98904W        W67298  17.816  26.271  14.021
98905W        W67299  21.086  37.780  10.651
98906W        W67300  32.121   1.852   0.410
98907W        W67301  10.334  25.062   1.045
98908W        W67302  31.985  10.389  10.509
98909W        W67303  21.400  32.790  10.654
98910W        W67304  22.053  14.649   0.272
98911W        W67305   6.415  39.471   2.622
98912W        W67306  42.457  39.567   4.916
98913W        W67307  23.807  25.225  12.032
98914W        W67308   6.696   2.100   4.478
98915W        W67309  15.150   7.368  11.208
98916W        W67310  33.905  43.310   0.865
98917W        W67311  29.924  20.210  13.472
98918W        W67312  18.363   7.416  11.622
98919W        W67313  43.383  27.642  14.438
98920W        W67314  12.036  36.624  10.792
98921W        W67315  16.832  13.323   0.415
98922W        W67316   5.815   5.923  13.388
98923W        W67317  23.847  28.188  11.836
98924W        W67318  16.659  27.480  12.565
98925W        W67319   8.461  38.962  14.966
98926W        W67320  11.713  36.147  14.458
98927W        W67321  11.653   8.790  14.133
98928W        W67322  31.153  17.582  13.980
98929W        W67323   2.160  16.204  13.813
98930W        W67324   1.676   3.269   0.431
98931W        W67325  34.254   0.800  13.249
98932W        W67326   1.022   5.450  11.612
98933W        W67327  30.491  26.830  14.671
98934W        W67328  20.172  36.688  10.078
98935W        W67329   5.396  34.105   2.095
98936W        W67330  44.812  43.294  13.746
98937W        W67331   0.662  31.670  14.952
98938W        W67332   6.680  23.581   5.004
98939W        W67333  24.702  25.199   0.720
98940W        W67334   7.448  12.314   2.120
98941W        W67335  10.840   0.195  12.155
98942W        W67336  22.510  34.473  10.364
98943W        W67337  20.504  39.082   2.283
98944W        W67338   7.307  18.038  10.677
98945W        W67339  22.221  40.905   0.344
98946W        W67340  13.269  38.550  12.001
98947W        W67341  14.777   2.084  13.067
98948W        W67342   7.359  36.266   2.653
98949W        W67343  44.560  18.008   1.313
98950W        W67344  18.072   6.951   1.787
98951W        W67345  14.831   8.806   0.472
98952W        W67346  11.876   4.236  12.050
98953W        W67347  24.986  21.693  13.359
98954W        W67348   7.479  28.411  14.274
98955W        W67349   7.745  43.892  13.873
98956W        W67350  30.800  22.920  13.983
98957W        W67351  31.772   9.715  13.275
98958W        W67352  11.295  31.664  11.492
98959W        W67353  40.405  24.428   3.195
98960W        W67354  14.679   9.694   0.005
98961W        W67355   9.150  25.859   1.389
98962W        W67356  23.244  44.300   2.596
98963W        W67357   7.428  41.780  12.913
98964W        W67358  36.838   2.938  14.483
98965W        W67359  12.805  28.397   3.703
98966W        W67360  41.797   8.707  11.641
98967W        W67361  32.640   3.761   4.418
98968W        W67362  21.953  28.069   0.234
98969W        W67363  11.168  41.340  12.507
98970W        W67364   2.010  38.971   0.431
98971W        W67365  44.427  39.478  13.390
98972W        W67366  10.746  16.649   3.646
98973W        W67367  18.432  21.060  13.705
98974W        W67368  33.767  27.158   4.106
98975W        W67369   3.377  23.780  14.019
98976W        W67370  34.105  17.104   3.768
98977W        W67371  21.760  34.845   0.731
98978W        W67372  20.697  15.280  14.368
98979W        W67373   6.134  37.458   3.703
98980W        W67374  35.880   2.021   1.766
98981W        W67375  22.615  17.492  14.308
98982W        W67376  24.062  27.612  14.957
98983W        W67377  21.222   1.437  14.292
98984W        W67378  31.718  39.675   3.651
98985W        W67379  26.247  13.082  10.737
98986W        W67380   3.846  17.364   2.819
98987W        W67381  13.316   5.294  14.875
98988W        W67382  27.432  42.015   3.070
98989W        W67383   6.512  20.074  11.978
98990W        W67384   5.269  31.631  12.433
98991W        W67385  20.232  26.842  14.168
98992W        W67386  31.840  23.994   0.555
98993W        W67387  16.231  34.388  12.139
98994W        W67388  24.045  12.179  14.431
98995W        W67389  22.710  21.453  13.424
98996W        W67390  39.144   0.906  14.986
98997W        W67391  39.174  37.533   1.459
98998W        W67392   8.314  10.809   3.914
98999W        W67393  38.093  33.178   1.551
99000W        W67394   8.475  44.954   2.766
99001W        W67395  32.961  19.283  14.342
99002W        W67396   2.807  41.231  10.215
99003W        W67397  30.957  39.862   2.750
99004W        W67398  44.231  14.103  10.788
99005W        W67399  18.265  14.987   1.557
99006W        W67400  32.836  32.523  13.395
99007W        W67401   9.297  17.606   2.931
99008W        W67402  11.647  18.598   0.554
99009W        W67403   4.507  20.485   0.909
99010W        W67404  20.819  10.820  12.895
99011W        W67405  36.030  33.479  10.478
99012W        W67406   4.744  16.267  13.882
99013W        W67407  29.079  15.280  10.741
99014W        W67408  43.499   4.684  10.358
99015W        W67409  29.541   6.568   4.938
99016W        W67410   6.221   8.626  13.660
99017W        W67411  35.733  25.664  13.067
99018W        W67412   5.693   8.507  13.497
99019W        W67413  32.153  27.746  11.532
99020W        W67414  15.178  19.056   9.818
99021W        W67415  41.586   1.786   3.750
99022W        W67416  16.127   3.733   4.328
99023W        W67417   7.429   6.999   9.709
99024W        W67418  20.245  24.164   4.643
99025W        W67419  11.508   9.330   3.580
99026W        W67420  14.745  21.040   4.780
99027W        W67421   4.923  14.195   2.683
99028W        W67422   7.363  26.539  10.506
99029W        W67423  21.437  26.741  14.506
99030W        W67424  22.765  26.859   1.236
99031W        W67425  30.052  13.381   4.901
99032W        W67426   7.894  43.348  13.935
99033W        W67427   1.270  29.434   1.704
99034W        W67428  34.135  20.859  13.911
99035W        W67429   9.766   5.859  14.517
99036W        W67430  34.237   2.733   0.393
99037W        W67431  22.011   2.409  14.201
99038W        W67432  39.305  17.925  11.645
99039W        W67433  10.928   1.822   3.159
99040W        W67434  42.396   8.029   1.674
99041W        W67435  21.996  31.713  12.348
99042W        W67436   3.719  31.864   4.260
99043W        W67437  17.567  14.785   3.147
99044W        W67438  27.493   5.642   1.139
99045W        W67439  19.314  15.203  11.659
99046W        W67440  34.588  38.825   0.981
99047W        W67441  37.074  32.607   3.530
99048W        W67442  18.098  22.437  13.017
99049W        W67443  25.233   7.740   2.671
99050W        W67444   1.853  15.334   3.170
99051W        W67445  28.584  40.407  13.580
99052W        W67446  21.435   0.720  13.516
99053W        W67447  19.211  12.650   3.157
99054W        W67448  25.271  11.897  11.097
99055W        W67449  26.489  44.322   2.855
99056W        W67450  38.384  25.444  12.729
99057W        W67451   7.175  23.600   1.986
99058W        W67452  13.640  32.952   0.359
99059W        W67453  31.653  16.542   3.158
99060W        W67454  14.361  37.301   3.375
99061W        W67455  26.708  13.346   1.283
99062W        W67456  40.472  17.507  11.109
99063W        W67457   8.279  11.674   1.245
99064W        W67458  34.767   5.343   1.755
99065W        W67459   8.127  38.888   0.638
99066W        W67460   2.272  13.157  14.219
99067W        W67461  13.217  27.663   3.175
99068W        W67462   0.425  33.132  13.778
99069W        W67463  23.218  30.607  12.423
99070W        W67464  12.288  22.259   0.909
99071W        W67465  42.083  19.617  11.469
99072W        W67466  21.414  28.163  10.291
99073W        W67467  16.772  15.822  12.935
99074W        W67468  40.845   1.484  10.452
99075W        W67469  26.937  21.643  14.029
99076W        W67470  34.911  38.212   1.462
99077W        W67471  41.512  30.166  13.917
99078W        W67472  23.113  30.487   4.741
99079W        W67473   9.303  25.606  11.229
99080W        W67474  37.064  27.504  11.213
99081W        W67475  30.550   6.655  13.861
99082W        W67476   2.858  18.849   1.379
99083W        W67477  10.828  19.386   4.484
99084W        W67478   3.917  37.616   4.056
99085W        W67479  14.410  16.887   2.450
99086W        W67480  13.818  27.423   0.346
99087W        W67481  19.109  39.103   3.566
99088W        W67482   5.892  30.566  12.991
99089W        W67483  33.092   1.360   1.799
99090W        W67484  10.776  29.202   1.268
99091W        W67485  42.548  15.646  12.055
99092W        W67486  34.438  42.807   1.489
99093W        W67487  21.291  35.115  13.343
99094W        W67488  21.163  30.747  14.381
99095W        W67489  26.601  35.261  13.428
99096W        W67490  19.558  15.806   5.282
99097W        W67491  31.409  24.019   1.842
99098W        W67492  37.112   7.817   0.619
99099W        W67493  42.425  25.752   3.619
99100W        W67494  34.131   4.854  12.467
99101W        W67495   4.190   4.933  14.568
99102W        W67496  37.782   4.827  14.042
99103W        W67497  23.158  21.137   4.329
99104W        W67498  20.198  19.265   0.470
99105W        W67499  24.037  37.549  13.329
99106W        W67500  10.808  33.923   1.443
99107W        W67501   9.902  26.695   5.117
99108W        W67502  28.923  15.263  13.946
99109W        W67503  29.201  26.503  12.495
99110W        W67504   8.011   8.210   1.244
99111W        W67505  31.971   7.677   5.118
99112W        W67506  41.347  25.118  14.693
99113W        W67507  35.522  37.135   0.913
99114W        W67508  29.960  22.330  14.940
99115W        W67509  12.020   4.508   2.774
99116W        W67510  35.047   2.376   1.964
99117W        W67511  31.396  21.026  13.908
99118W        W67512   8.694  21.221   0.066
99119W        W67513  27.202   8.288   4.301
99120W        W67514   2.383  44.174  10.719
99121W        W67515  34.584  23.075  13.578
99122W        W67516  28.396  11.843   4.861
99123W        W67517  22.214   9.209   1.662
99124W        W67518  36.085   4.308  13.306
99125W        W67519  20.767  18.673   2.802
99126W        W67520  13.457  28.959   2.731
99127W        W67521  39.475  30.418   2.277
99128W        W67522   4.195  33.179  14.886
99129W        W67523  23.507  14.254  13.563
99130W        W67524  40.324  20.701  13.556
99131W        W67525  39.676  27.744   4.055
99132W        W67526   4.684  18.794  14.491
99133W        W67527  28.875  37.859  12.443
99134W        W67528  26.169  38.915  12.753
99135W        W67529  15.384  34.801   0.340
99136W        W67530  32.490  39.973  13.442
99137W        W67531  33.640  32.038  11.450
99138W        W67532  38.437   5.928   2.407
99139W        W67533  26.348  43.960   4.098
99140W        W67534   7.955  19.520   4.248
99141W        W67535  22.225  14.205   0.484
99142W        W67536  26.505  24.724   2.128
99143W        W67537   2.386  22.476  11.136
99144W        W67538  36.097  36.922  14.034
99145W        W67539  24.412  31.208   1.920
99146W        W67540  40.434  34.866   2.849
99147W        W67541  14.205   8.119  13.038
99148W        W67542  37.447  15.623   0.192
99149W        W67543  44.669   4.505   4.445
99150W        W67544  40.781  30.414  13.030
99151W        W67545  12.116  29.480  11.244
99152W        W67546  12.443   0.506  14.310
99153W        W67547  22.040  28.621  13.464
99154W        W67548  34.053  26.767   4.334
99155W        W67549  24.292   4.749   3.234
99156W        W67550  30.497  29.037  13.308
99157W        W67551  16.085  36.007  11.403
99158W        W67552  11.856   5.375   0.495
99159W        W67553  22.833  42.513  10.899
99160W        W67554  27.949  39.906   1.915
99161W        W67555  34.245  18.282   2.417
99162W        W67556   0.479  44.966  12.002
99163W        W67557   1.933  44.961   0.942
99164W        W67558   8.648  32.354  11.278
99165W        W67559   8.797   8.018  12.593
99166W        W67560  41.786  23.662   2.232
99167W        W67561  16.724  19.088   4.877
99168W        W67562  22.084   6.480  13.367
99169W        W67563   0.988  16.264   3.626
99170W        W67564  19.071   1.901  13.969
99171W        W67565  34.568  24.694  13.993
99172W        W67566  36.802   5.492   2.689
99173W        W67567  15.767  13.816   1.155
99174W        W67568  13.143   4.738   4.193
99175W        W67569   0.276   2.148   3.131
99176W        W67570  18.591  44.526   1.248
99177W        W67571  44.729  27.017   3.107
99178W        W67572  43.380   8.274   4.779
99179W        W67573  33.865   3.457   0.641
99180W        W67574  32.417  23.152   2.407
99181W        W67575  25.218  32.640   0.029
99182W        W67576  18.622  13.156  10.739
99183W        W67577  29.638  36.390  14.691
99184W        W67578  32.041  17.350   3.690
99185W        W67579  44.031  40.381   3.581
99186W        W67580  15.279  39.421  12.521
99187W        W67581  29.387  17.525   0.956
99188W        W67582  24.579  27.303  13.928
99189W        W67583  43.872   9.407   4.693
99190W        W67584  32.306  30.002  13.542
99191W        W67585  19.648   9.856   0.304
99192W        W67586   9.528  29.420  14.769
99193W        W67587  43.852  41.314   1.943
99194W        W67588  10.652  36.413  10.620
99195W        W67589   5.873  20.723  14.329
99196W        W67590  11.271  14.778   1.668
99197W        W67591  26.884  30.457   4.473
99198W        W67592  42.741  16.601   4.781
99199W        W67593  19.867  33.522  11.727
99200W        W67594  36.046  25.047   2.274
99201W        W67595  18.610   9.847   3.560
99202W        W67596   4.421  38.093  13.870
99203W        W67597  27.012  22.254   3.796
99204W        W67598  26.645   4.500   1.334
99205W        W67599  27.178  21.184  13.253
99206W        W67600  10.148  17.299  12.403
99207W        W67601  30.133  28.400  10.762
99208W        W67602  15.542  33.506   1.243
99209W        W67603  20.663  26.415  10.317
99210W        W67604  33.387  17.743  10.579
99211W        W67605  37.003  27.713   3.240
99212W        W67606  17.879  10.753  11.201
99213W        W67607   5.859  30.010   1.429
99214W        W67608  27.029  43.327   0.001
99215W        W67609  40.226   4.127   4.147
99216W        W67610   5.700  25.522   3.985
99217W        W67611  30.492  43.974   0.867
99218W        W67612   8.216   1.232  13.379
99219W        W67613   5.339  40.792   0.352
99220W        W67614  24.518   5.291   1.342
99221W        W67615   1.420   3.121  14.981
99222W        W67616  14.697  43.809   1.788
99223W        W67617  24.380  14.370   4.187
99224W        W67618  22.301   0.383  14.170
99225W        W67619  33.536  29.896  12.111
99226W        W67620  32.457  25.540  12.950
99227W        W67621   1.860  38.072   2.312
99228W        W67622  14.502  22.031   1.328
99229W        W67623   4.949  15.683  13.053
99230W        W67624  38.272  15.948   4.792
99231W        W67625  34.904  41.452  13.347
99232W        W67626  20.031  15.169  14.870
99233W        W67627  12.005   6.829   4.678
99234W        W67628  11.473  39.455   0.729
99235W        W67629  17.108  17.006   3.510
99236W        W67630  31.767  18.601   4.959
99237W        W67631  17.294   2.865  12.214
99238W        W67632  37.249  20.580  12.511
99239W        W67633  32.935  30.121  12.945
99240W        W67634  25.801  26.184  12.753
99241W        W67635  16.814   0.516   4.616
99242W        W67636  12.747   9.150   3.208
99243W        W67637   8.015  42.088  14.914
99244W        W67638  12.326  17.605   2.341
99245W        W67639  21.047  13.822  11.106
99246W        W67640  35.153   4.491   2.723
99247W        W67641   7.622  44.818   1.750
99248W        W67642  18.908  20.542   1.776
99249W        W67643   8.470  37.176  12.015
99250W        W67644   8.881   3.010   3.585
99251W        W67645  16.207  21.371  14.241
99252W        W67646  18.079   6.691   4.064
99253W        W67647  22.455  36.806  10.768
99254W        W67648   4.407  24.552   3.307
99255W        W67649  26.926   4.651  11.202
99256W        W67650  43.853  35.233   1.114
99257W        W67651  36.307  24.113   3.753
99258W        W67652   7.233  11.838  11.491
99259W        W67653  43.977  18.119  14.973
99260W        W67654  35.520   1.028  13.295
99261W        W67655  25.800   7.944  13.917
99262W        W67656  21.125  26.424  10.087
99263W        W67657  35.509  28.283   3.347
99264W        W67658  41.239  28.186  11.015
99265W        W67659  41.836  24.309  11.642
99266W        W67660  42.392  27.475  12.128
99267W        W67661  14.044  16.784   1.636
99268W        W67662  14.250  25.295  12.400
99269W        W67663  37.887   8.952  10.833
99270W        W67664  17.307   8.225  10.786
99271W        W67665  21.491   1.609   0.921
99272W        W67666  18.985  21.572   0.360
99273W        W67667  21.315  13.231  12.412
99274W        W67668  11.174  29.666  13.420
99275W        W67669  18.273  23.653   1.916
99276W        W67670   2.431  19.289   2.775
99277W        W67671  34.836   0.303   3.149
99278W        W67672  21.928  42.692   1.246
99279W        W67673  22.116  37.768  13.412
99280W        W67674  23.044   6.914   0.684
99281W        W67675   9.819  29.047   1.527
99282W        W67676  23.461  22.280   0.890
99283W        W67677  20.299  11.559  12.432
99284W        W67678  39.700  13.969  12.644
99285W        W67679  34.250  14.570  12.175
99286W        W67680   1.465   3.048  12.856
99287W        W67681  42.453  35.351  13.367
99288W        W67682   5.231  13.874  13.011
99289W        W67683  21.858  13.148   4.989
99290W        W67684   4.465  19.707  11.875
99291W        W67685  16.760   0.776   4.154
99292W        W67686  35.286  21.766  13.402
99293W        W67687   4.809  44.085  13.381
99294W        W67688  28.693  29.633  12.010
99295W        W67689  31.330  16.501   0.012
99296W        W67690  30.275  12.634  13.030
99297W        W67691  20.457  20.112   4.417
99298W        W67692   8.582  40.950  14.828
99299W        W67693  22.115  22.516  11.148
99300W        W67694  26.461  42.524  10.787
99301W        W67695  26.834  34.643  11.757
99302W        W67696  41.427  24.669  14.336
99303W        W67697  31.801  20.274  11.736
99304W        W67698  33.506  17.863   0.315
99305W        W67699   0.401  20.636   2.606
99306W        W67700   9.368  20.458   3.230
99307W        W67701  39.468   3.714  12.568
99308W        W67702  34.122  31.319  14.705
99309W        W67703  22.688   1.270   0.853
99310W        W67704  24.226  30.055   3.437
99311W        W67705  11.905  12.982  11.621
99312W        W67706  31.554   1.681   4.178
99313W        W67707  15.343   2.792  11.370
99314W        W67708  40.306  30.140  11.489
99315W        W67709  37.921  28.701   3.610
99316W        W67710  32.380  10.194  14.886
99317W        W67711   0.825  31.062  12.710
99318W        W67712  19.525   1.918  14.275
99319W        W67713  12.386  35.794  12.878
99320W        W67714  44.995  30.549   3.229
99321W        W67715  18.762  13.965  12.345
99322W        W67716  23.198   9.308  10.626
99323W        W67717   2.144  22.464   2.361
99324W        W67718  38.160  16.809   2.660
99325W        W67719  32.379  39.398  12.932
99326W        W67720  10.550  15.007   4.200
99327W        W67721  16.622  16.383  12.964
99328W        W67722  18.093  34.884   2.706
99329W        W67723   3.710  23.233   3.268
99330W        W67724  42.173  11.803  13.078
99331W        W67725  15.698  10.882   3.318
99332W        W67726   6.545   9.143   0.377
99333W        W67727  12.415  44.402  12.965
99334W        W67728  21.054   0.338  13.487
99335W        W67729  33.936  41.952   2.772
99336W        W67730  21.352   5.353   0.333
99337W        W67731  22.995  11.420  13.013
99338W        W67732  14.755   6.691  14.511
99339W        W67733  44.587  36.994  14.786
99340W        W67734  24.998  17.499   5.194
99341W        W67735   7.407  29.513  13.993
99342W        W67736  30.639  41.296  11.643
99343W        W67737  41.268  26.013  14.799
99344W        W67738  27.664  16.708  13.904
99345W        W67739  38.612  23.485   1.352
99346W        W67740   8.681  37.451   4.574
99347W        W67741  20.051   5.742  14.012
99348W        W67742  30.495  23.520  12.790
99349W        W67743  40.768  34.298  14.968
99350W        W67744  44.236  43.705  11.587
99351W        W67745  44.017  31.444  11.132
99352W        W67746  28.382  16.390   0.858
99353W        W67747   7.623   0.520   1.248
99354W        W67748  29.728  28.064   4.126
99355W        W67749   2.050  17.369   1.989
99356W        W67750   1.901  41.145   2.315
99357W        W67751  26.717  15.650   3.543
99358W        W67752  35.036  22.999   4.472
99359W        W67753   1.409  42.524   2.616
99360W        W67754   2.385  30.506  14.496
99361W        W67755   2.590  22.717   3.321
99362W        W67756  36.039  37.705   2.276
99363W        W67757  18.245  21.707   2.659
99364W        W67758   4.185   3.581   4.706
99365W        W67759   8.891   3.637  13.805
99366W        W67760  35.683  37.799   0.323
99367W        W67761   9.274  15.487   0.374
99368W        W67762   3.727  20.230  12.005
99369W        W67763  29.416   7.485   1.526
99370W        W67764  34.634  19.620  13.490
99371W        W67765  42.152  12.245  14.274
99372W        W67766  42.266  40.960  12.999
99373W        W67767  29.560  25.215   4.498
99374W        W67768  28.553  13.386   1.788
99375W        W67769  31.161  12.854  12.003
99376W        W67770  43.316  31.575  10.448
99377W        W67771  23.498  39.079   1.297
99378W        W67772   3.238  26.437   3.601
99379W        W67773   9.090  18.142   2.329
99380W        W67774  11.858  42.931   1.128
99381W        W67775  40.128  18.847   2.538
99382W        W67776  15.759  23.362   3.574
99383W        W67777   2.942  26.339  10.979
99384W        W67778  32.093  28.771  14.931
99385W        W67779  29.388  39.523  12.044
99386W        W67780  25.313  28.518  13.080
99387W        W67781  42.244   9.509  11.540
99388W        W67782   0.118  24.747   1.722
99389W        W67783   7.316   1.822  10.251
99390W        W67784   7.779  10.178   3.750
99391W        W67785  16.796  18.708   4.083
99392W        W67786   9.143  14.276  13.157
99393W        W67787   9.282  28.235  13.018
99394W        W67788  33.958  26.919  11.899
99395W        W67789   4.323  44.176   4.083
99396W        W67790   0.438  16.428   2.660
99397W        W67791  16.013  26.530  13.089
99398W        W67792  26.674  39.353   3.970
99399W        W67793  38.387   3.275  12.431
99400W        W67794   9.774  19.183   1.284
99401W        W67795  36.906   8.118   2.354
99402W        W67796  17.234   3.746   2.877
99403W        W67797  27.883  27.546   4.203
99404W        W67798  15.770   2.020   3.982
99405W        W67799  18.064  31.507   4.860
99406W        W67800  23.482  13.446  12.526
99407W        W67801   4.239  33.906   3.296
99408W        W67802  31.099  11.898   2.840
99409W        W67803   4.787  36.836   1.428
99410W        W67804  15.317   2.079   1.366
99411W        W67805  29.495  39.808   4.449
99412W        W67806   7.372   6.271   0.115
99413W        W67807  37.462  43.668  14.865
99414W        W67808  16.940   2.559  12.440
99415W        W67809  22.568  11.185  11.353
99416W        W67810  21.790   5.377   3.823
99417W        W67811  44.995  38.784   1.408
99418W        W67812  18.012  28.192  11.031
99419W        W67813  39.533  11.674  10.835
99420W        W67814   2.795  15.558   1.283
99421W        W67815   5.661  41.735  13.401
99422W        W67816  15.120  27.658  11.942
99423W        W67817  40.009  41.000   4.165
99424W        W67818  39.050  36.776  12.084
99425W        W67819   6.846  14.175   3.218
99426W        W67820  18.820   3.416  11.739
99427W        W67821  42.777  16.935  12.037
99428W        W67822  29.634  22.022  11.772
99429W        W67823  41.350  23.716   0.208
99430W        W67824  22.342  33.457   1.941
99431W        W67825  14.689  38.307  14.017
99432W        W67826  15.269  18.686   2.425
99433W        W67827  12.925  16.117  12.446
99434W        W67828  18.937   4.776   3.121
99435W        W67829  13.365  19.301   0.344
99436W        W67830  10.609  37.887   1.571
99437W        W67831  23.034  12.378   4.151
99438W        W67832  11.889  35.388  11.135
99439W        W67833  42.246  23.527  14.952
99440W        W67834  32.852   5.138   4.184
99441W        W67835  27.994  23.422   3.634
99442W        W67836  35.389   4.753   4.584
99443W        W67837   7.267  18.006   2.347
99444W        W67838  44.480   9.882   2.279
99445W        W67839   7.902   6.418  14.962
99446W        W67840  11.148  21.964   4.780
99447W        W67841  25.568  22.442   4.272
99448W        W67842   1.615  43.352  11.552
99449W        W67843  10.252  35.941  14.556
99450W        W67844  20.771  35.989   0.959
99451W        W67845  33.951  18.522   1.953
99452W        W67846  44.532  10.994   4.229
99453W        W67847  33.621  40.248   4.103
99454W        W67848  17.301  34.131   4.526
99455W        W67849  16.747  15.018   3.443
99456W        W67850  20.225   1.410  12.278
99457W        W67851   0.443  27.095  13.031
99458W        W67852  25.659  36.407   3.715
99459W        W67853  44.348   0.085   3.172
99460W        W67854  31.459   8.262   0.877
99461W        W67855  36.614  17.760   4.965
99462W        W67856  34.939  21.968   4.684
99463W        W67857   4.339   4.649  13.080
99464W        W67858  37.317  31.863  12.390
99465W        W67859   5.172   2.275  14.678
99466W        W67860  40.497  40.329   3.796
99467W        W67861  22.817  31.978   3.395
99468W        W67862   7.728  31.409   0.402
99469W        W67863  20.547   6.837   1.692
99470W        W67864  18.233  44.856  11.535
99471W        W67865  23.232  30.580  10.680
99472W        W67866  14.848  13.325   2.227
99473W        W67867   9.445  28.975  11.543
99474W        W67868  28.019  17.506   2.133
99475W        W67869  10.105  22.199   4.140
99476W        W67870  17.016  15.276   2.432
99477W        W67871  19.074   8.628  12.050
99478W        W67872  21.121  26.590  12.675
99479W        W67873  38.447  23.063   0.062
99480W        W67874  17.207  17.468  11.542
99481W        W67875  19.099  43.963   2.352
99482W        W67876   6.389  19.927   2.556
99483W        W67877  21.067  41.100   4.600
99484W        W67878   4.950  16.304   3.214
99485W        W67879  15.706  11.354   4.202
99486W        W67880  33.662  30.542   3.806
99487W        W67881  28.968  36.293  11.042
99488W        W67882  27.159   8.248  14.536
99489W        W67883  37.579  44.009   3.299
99490W        W67884  17.137  28.536  11.128
99491W        W67885   9.749  35.426  13.388
99492W        W67886  40.091  39.597  10.165
99493W        W67887  44.609  42.551   0.779
99494W        W67888   0.989  35.993   2.783
99495W        W67889  23.720   6.421   1.279
99496W        W67890  32.663   5.202   1.777
99497W        W67891   3.769  12.658  11.809
99498W        W67892  19.742   1.952   2.796
99499W        W67893  29.510   6.413   3.648
99500W        W67894  18.067   7.427  14.532
99501W        W67895  26.028  41.083   2.175
99502W        W67896   3.157  14.201   4.012
99503W        W67897  39.315  22.828  11.417
99504W        W67898   6.837  14.336  12.488
99505W        W67899  13.649  37.430   4.075
99506W        W67900  32.008  13.198   3.754
99507W        W67901  23.343   3.509   3.258
99508W        W67902  30.092   9.231   4.612
99509W        W67903  17.186  39.068   0.488
99510W        W67904  35.891  21.286  14.538
99511W        W67905  15.833  19.402  12.865
99512W        W67906  44.033   8.395   3.548
99513W        W67907   3.732   4.797  11.127
99514W        W67908  33.771  25.515  14.520
99515W        W67909  39.355  29.597   0.462
99516W        W67910  30.078   3.395   4.642
99517W        W67911  25.761  32.547   1.514
99518W        W67912  39.812  36.942  12.609
99519W        W67913   6.947  44.379  13.118
99520W        W67914  37.632  26.727   1.355
99521W        W67915  11.683  34.559  12.796
99522W        W67916   1.765   7.378  10.744
99523W        W67917  12.413  25.321   0.934
99524W        W67918  28.472   1.337  12.619
99525W        W67919  16.057  34.041  12.847
99526W        W67920  25.662   3.888  10.855
99527W        W67921  13.781   6.007  13.384
99528W        W67922   3.325  40.469   1.024
99529W        W67923  39.257  11.074   0.304
99530W        W67924   2.353  21.819   4.044
99531W        W67925   3.528   1.997   1.787
99532W        W67926   8.652  14.212   4.828
99533W        W67927  37.940  25.119   0.699
99534W        W67928   4.628  13.175   3.625
99535W        W67929   2.671  17.611   3.550
99536W        W67930  31.807  13.932   0.229
99537W        W67931  30.087   3.630   3.119
99538W        W67932   8.771  20.527   2.704
99539W        W67933  26.694  41.313   3.746
99540W        W67934  35.397  28.780   0.371
99541W        W67935   5.175  13.215   1.177
99542W        W67936  40.901  11.845   0.576
99543W        W67937   7.769  29.187  12.437
99544W        W67938  42.722   2.506   1.737
99545W        W67939  40.918   9.528  13.779
99546W        W67940  24.779  14.154  13.917
99547W        W67941  34.287  13.219   0.756
99548W        W67942  19.794  42.434  11.988
99549W        W67943  29.083   0.779  10.409
99550W        W67944  44.183  29.228   2.552
99551W        W67945   5.941  11.776   3.525
99552W        W67946   1.284  14.172  10.466
99553W        W67947  40.187  27.554   3.685
99554W        W67948  15.728  22.251  11.148
99555W        W67949  19.575  25.621   0.947
99556W        W67950  13.540  34.168   1.774
99557W        W67951  37.222  29.341  10.232
99558W        W67952  42.303   2.682   1.489
99559W        W67953   4.847  20.767  10.382
99560W        W67954  43.415  22.634   4.156
99561W        W67955  16.266  35.836   3.823
99562W        W67956  24.499  39.503  11.839
99563W        W67957  28.222  21.905   0.731
99564W        W67958  28.093  15.571   0.851
99565W        W67959   8.809  29.677  12.543
99566W        W67960  12.741  14.657   3.117
99567W        W67961  28.026  40.761  13.079
99568W        W67962   6.776  20.678  12.773
99569W        W67963  31.980  36.183   1.809
99570W        W67964  28.678  18.583  13.516
99571W        W67965  25.245   8.973   1.435
99572W        W67966   7.599  35.975  11.494
99573W        W67967  17.818  34.441  10.728
99574W        W67968  19.518   9.156  12.459
99575W        W67969  28.110  12.690   5.193
99576W        W67970  35.828  33.095   3.292
99577W        W67971  23.292  41.862   2.581
99578W        W67972  11.561  30.177  11.086
99579W        W67973  11.364  41.777  14.359
99580W        W67974  22.730  10.984  14.991
99581W        W67975  32.278  41.055   2.832
99582W        W67976  39.811  17.680  14.677
99583W        W67977  44.728   7.248  11.244
99584W        W67978  32.036   1.302  13.194
99585W        W67979  30.422  11.113  12.453
99586W        W67980   0.961  24.652   1.221
99587W        W67981  13.406   9.643  14.909
99588W        W67982  23.016   5.745  14.900
99589W        W67983  36.266   1.328   3.649
99590W        W67984  34.707  34.904  14.550
99591W        W67985   6.622  16.131  10.760
99592W        W67986  35.039   0.763   0.598
99593W        W67987  43.508  16.619   1.874
99594W        W67988  11.721  44.488  10.097
99595W        W67989  25.876   7.865   0.790
99596W        W67990  15.710  11.801   0.146
99597W        W67991  13.367   0.874   3.905
99598W        W67992  16.890  17.717   1.339
99599W        W67993   3.429  10.686  14.395
99600W        W67994   7.072  34.072  11.237
99601W        W67995  10.408  16.059  12.520
99602W        W67996  40.604  39.077   4.199
99603W        W67997  30.960  28.183  12.965
99604W        W67998  33.436  27.493   0.265
99605W        W67999  43.876   9.866  14.485
99606W        W68000  35.537  12.568   2.275
99607W        W68001  15.767  14.051   0.383
99608W        W68002  26.605   1.791  13.612
99609W        W68003   6.331  27.713   0.505
99610W        W68004  38.520  14.100   0.809
99611W        W68005   8.139  13.449  14.071
99612W        W68006  31.099  43.874   4.059
99613W        W68007   3.264  42.931   3.391
99614W        W68008  42.300  30.262   4.230
99615W        W68009   7.117   0.497   1.283
99616W        W68010  26.966  37.813   4.046
99617W        W68011  18.133  31.702  14.430
99618W        W68012  21.831   2.738   3.307
99619W        W68013   9.336   0.221   0.379
99620W        W68014  21.673  37.428  12.558
99621W        W68015   3.191  37.094   0.748
99622W        W68016  21.170  36.393  10.637
99623W        W68017   9.985  28.146  13.293
99624W        W68018  20.025  39.089   9.999
99625W        W68019  33.257  14.772  10.563
99626W        W68020  37.980  42.987  13.349
99627W        W68021  12.189  16.102   4.482
99628W        W68022  43.803   4.373  10.671
99629W        W68023  28.960   8.363   1.864
99630W        W68024  10.227  38.121   3.273
99631W        W68025  39.026  30.138  13.449
99632W        W68026  12.649   7.233   3.727
99633W        W68027  26.540   4.183   3.245
99634W        W68028   4.253   6.208  13.056
99635W        W68029  24.517  39.840  10.730
99636W        W68030   5.187   1.816   3.148
99637W        W68031   1.952  43.285   2.635
99638W        W68032  25.576   1.204   4.811
99639W        W68033  30.558  33.537  13.229
99640W        W68034  23.500  40.376   2.794
99641W        W68035   6.762   9.635   0.335
99642W        W68036  13.191  39.210   3.861
99643W        W68037  11.305  26.598  10.854
99644W        W68038  43.378   1.401   4.289
99645W        W68039   7.626  32.604  12.224
99646W        W68040   4.347  15.972   0.241
99647W        W68041  32.552  40.582  11.516
99648W        W68042  38.265   6.443   1.745
99649W        W68043  24.693  12.123  12.132
99650W        W68044  22.568  13.618  13.914
99651W        W68045  38.437   3.953   1.273
99652W        W68046   7.702  40.733   3.229
99653W        W68047  20.998  31.668  14.337
99654W        W68048  19.605  43.381   3.870
99655W        W68049   5.863  17.749   0.087
99656W        W68050   5.665  14.917   9.746
99657W        W68051  34.906  41.821  11.509
99658W        W68052  26.304   1.276  13.358
99659W        W68053   1.233   8.486  13.366
99660W        W68054  20.510  35.694  11.874
99661W        W68055  33.428  27.509   4.589
99662W        W68056  16.457  38.999   3.300
99663W        W68057  41.696  21.352   2.282
99664W        W68058  13.215   3.305   4.564
99665W        W68059  36.911   8.678  14.666
99666W        W68060  11.791   7.255   2.483
99667W        W68061  14.219  15.086  14.827
99668W        W68062  31.712  28.997   1.655
99669W        W68063  29.973  18.429   4.326
99670W        W68064  37.638  35.962  14.714
99671W        W68065   2.468   4.454   1.491
99672W        W68066   9.786  14.327   1.815
99673W        W68067  39.929  14.215   3.722
99674W        W68068   8.364   5.839   3.621
99675W        W68069  31.014  14.578  10.702
99676W        W68070  28.224   1.806  12.558
99677W        W68071  19.582  20.338  11.720
99678W        W68072  15.111   3.605   0.439
99679W        W68073   2.716   5.208  12.510
99680W        W68074  44.425  26.578  10.340
99681W        W68075   4.269  25.196  10.286
99682W        W68076  30.628   2.512   1.942
99683W        W68077   7.903  19.067   1.301
99684W        W68078  22.922  28.010  11.162
99685W        W68079  40.300   7.762   0.258
99686W        W68080  31.564  25.638  13.753
99687W        W68081  31.356  25.780  12.838
99688W        W68082  12.465  33.911   2.217
99689W        W68083  36.851   4.503   1.768
99690W        W68084  35.433  24.269   2.226
99691W        W68085  37.372  10.183  11.622
99692W        W68086  42.874  18.625  12.624
99693W        W68087  22.966  41.894   3.706
99694W        W68088   0.632  38.026   5.001
99695W        W68089  27.117   6.164   3.221
99696W        W68090   4.709  36.599   3.920
99697W        W68091  10.209   9.836  14.141
99698W        W68092   7.136  30.592  13.050
99699W        W68093  23.170  32.526  12.611
99700W        W68094  22.174  14.055  13.297
99701W        W68095  32.884  12.163  13.766
99702W        W68096  26.066  17.886  13.895
99703W        W68097  28.275  12.553   0.186
99704W        W68098  34.596  39.470   3.267
99705W        W68099  16.775   5.242  13.651
99706W        W68100  36.503   6.485   1.292
99707W        W68101   4.007   8.462  14.976
99708W        W68102  35.419  14.168  14.359
99709W        W68103  26.473  21.594  14.327
99710W        W68104  40.509  27.191   1.763
99711W        W68105   2.524   4.354   4.210
99712W        W68106  15.583  16.849  12.779
99713W        W68107  33.403   9.801   4.619
99714W        W68108  13.157  30.745   4.225
99715W        W68109   0.915   2.166   1.057
99716W        W68110  14.729  21.243  11.241
99717W        W68111   9.887  11.256  10.745
99718W        W68112   3.586   2.881   4.929
99719W        W68113  38.173   8.870   4.708
99720W        W68114   1.245  30.616   0.366
99721W        W68115   8.988  25.462   4.621
99722W        W68116   5.526  17.351  12.691
99723W        W68117   4.164  21.100   4.676
99724W        W68118  42.341  30.183   3.372
99725W        W68119  20.067   8.233  12.513
99726W        W68120  30.871  12.847  12.464
99727W        W68121  35.778  20.138  11.008
99728W        W68122  41.819  32.175  11.658
99729W        W68123  34.873  16.141  11.175
99730W        W68124   5.771  19.627  14.064
99731W        W68125   5.249  19.613  14.274
99732W        W68126  39.332  29.463  10.784
99733W        W68127   9.214   9.079   4.468
99734W        W68128   0.546  39.552  10.843
99735W        W68129  16.685   2.973   4.080
99736W        W68130  44.665  18.250  13.311
99737W        W68131  42.988  17.371  11.791
99738W        W68132   0.558  33.865  14.738
99739W        W68133   9.336  14.246   3.104
99740W        W68134   8.709   7.832   0.834
99741W        W68135  33.397  26.529   0.965
99742W        W68136   8.258  14.357  11.172
99743W        W68137  23.139   9.443   3.720
99744W        W68138  27.103  20.579   0.493
99745W        W68139  21.363  26.860  13.469
99746W        W68140   6.314  19.492   0.375
99747W        W68141  17.118   6.254   1.800
99748W        W68142   7.466  36.417   0.292
99749W        W68143  10.364  19.532  13.609
99750W        W68144  24.240  30.693   1.797
99751W        W68145  24.254  20.113   3.219
99752W        W68146  20.686   9.240   0.216
99753W        W68147  12.638  22.841   2.361
99754W        W68148  26.879  20.484  14.776
99755W        W68149  44.765  11.928   0.024
99756W        W68150   5.962  39.876   0.864
99757W        W68151  16.554  32.636   0.940
99758W        W68152  22.913  26.994   0.409
99759W        W68153   1.969  26.017  11.256
99760W        W68154   1.186  31.854  14.889
99761W        W68155  11.676   0.879  14.022
99762W        W68156  37.997   4.847  10.921
99763W        W68157  18.721  43.030  10.599
99764W        W68158  17.132  37.364  11.629
99765W        W68159  37.847  43.939  10.649
99766W        W68160  37.829  44.453   3.133
99767W        W68161   4.250   5.491  12.607
99768W        W68162  16.749  25.748   1.659
99769W        W68163  19.045  41.319   2.714
99770W        W68164  30.141  34.904   3.684
99771W        W68165  10.384  25.430   0.293
99772W        W68166  43.531  21.261   1.973
99773W        W68167  18.236  30.766   0.182
99774W        W68168  33.358   3.359   0.525
99775W        W68169   7.100  16.027  11.005
99776W        W68170   5.995  41.074  11.557
99777W        W68171  38.406   5.029   2.309
99778W        W68172  29.927  24.600  14.830
99779W        W68173   1.756   4.971  11.605
99780W        W68174  12.374   7.859  10.717
99781W        W68175  41.384  16.662  14.239
99782W        W68176  18.099   7.249   4.642
99783W        W68177  10.318  26.597  10.269
99784W        W68178  13.644  14.376   4.049
99785W        W68179  43.778  21.569  12.112
99786W        W68180  43.026   2.946   1.780
99787W        W68181  32.977  23.832  12.475
99788W        W68182  22.176   1.312  13.759
99789W        W68183   2.496  40.035   0.947
99790W        W68184  33.880  23.566   2.756
99791W        W68185  33.531  28.784   5.076
99792W        W68186  40.348  38.447   2.353
99793W        W68187  41.538  43.933  12.197
99794W        W68188   0.785  41.311  10.680
99795W        W68189  10.519  38.164   4.126
99796W        W68190  26.741  25.840   3.265
99797W        W68191  17.358  18.950  12.181
99798W        W68192  38.891   3.219  10.254
99799W        W68193  11.371  22.205  14.517
99800W        W68194  20.626  33.553  14.467
99801W        W68195  18.491  26.205   9.868
99802W        W68196   2.765  25.150  11.893
99803W        W68197   1.244  10.854   3.348
99804W        W68198   4.793  36.321   1.492
99805W        W68199  36.946  13.472   2.790
99806W        W68200   8.453  23.715   3.092
99807W        W68201  27.954  14.711   0.728
99808W        W68202  13.432  42.711  11.701
99809W        W68203  37.906  42.940  12.321
99810W        W68204  23.088  24.982  13.404
99811W        W68205  11.867  40.344  12.304
99812W        W68206   8.846  32.772   4.258
99813W        W68207  20.016  30.909  13.976
99814W        W68208  32.498   8.757   3.741
99815W        W68209  34.253  41.448  13.787
99816W        W68210   6.748  42.009  10.691
99817W        W68211  31.453  21.555   2.129
99818W        W68212  24.139  30.501  10.171
99819W        W68213   9.416  15.008   2.183
99820W        W68214  29.563  32.110  10.692
99821W        W68215  11.056  43.717  12.212
99822W        W68216  22.613   6.896   1.016
99823W        W68217   4.760  21.231  13.038
99824W        W68218   3.039  22.772  12.190
99825W        W68219  38.281  12.677  12.938
99826W        W68220  14.808   6.710   2.038
99827W        W68221  28.063  27.432   0.372
99828W        W68222  12.316   9.444   3.172
99829W        W68223   6.225   9.381   0.749
99830W        W68224  28.508  28.994  12.073
99831W        W68225  16.739  39.368   2.721
99832W        W68226   0.003  32.943   0.900
99833W        W68227   2.742  33.924  12.500
99834W        W68228   6.886   6.466  13.820
99835W        W68229  41.963  27.972   2.283
99836W        W68230  44.710   7.466  12.620
99837W        W68231  10.687  10.839   0.061
99838W        W68232  21.568   6.673   3.687
99839W        W68233  20.277  23.678  12.524
99840W        W68234  29.986  30.548   1.682
99841W        W68235   5.773  17.990  11.029
99842W        W68236  33.435  19.793  11.606
99843W        W68237  37.147  44.989   3.162
99844W        W68238  16.242  24.488   0.905
99845W        W68239  38.800  34.240   0.328
99846W        W68240  12.487  31.833   0.719
99847W        W68241   3.799  17.339   1.909
99848W        W68242  29.564  15.583  11.560
99849W        W68243  37.448  31.566  12.785
99850W        W68244  30.414  39.911  13.346
99851W        W68245  33.978  38.353  12.380
99852W        W68246  34.874  37.029   3.283
99853W        W68247  15.418  39.412  11.664
99854W        W68248  30.489  34.353   1.509
99855W        W68249  36.548  40.755  11.066
99856W        W68250   7.867  32.966  10.280
99857W        W68251  39.264  18.572   2.365
99858W        W68252  28.516   9.169   3.684
99859W        W68253   9.569  16.199  11.995
99860W        W68254   3.904  30.015   4.372
99861W        W68255  41.685  30.283  14.391
99862W        W68256   9.809  25.321   4.609
99863W        W68257  31.583   9.835  10.926
99864W        W68258  14.673  13.340   0.365
99865W        W68259  27.189  36.624  10.740
99866W        W68260  16.105  43.471   1.768
99867W        W68261  18.504  25.155   2.037
99868W        W68262  33.464  36.515   2.461
99869W        W68263  39.485   5.269   1.452
99870W        W68264  41.560  40.568  13.734
99871W        W68265   2.961  35.008   4.410
99872W        W68266  11.149  38.923  14.370
99873W        W68267  42.015  27.654  14.952
99874W        W68268   7.703  11.754   5.011
99875W        W68269  13.800  16.580  11.404
99876W        W68270  13.552   8.855   4.078
99877W        W68271  12.134  18.204  14.011
99878W        W68272  32.058  43.573   3.554
99879W        W68273  30.393  16.112  14.816
99880W        W68274   3.339  43.970   1.757
99881W        W68275  36.621  17.225   3.575
99882W        W68276   5.756  40.313   2.023
99883W        W68277  23.164  10.682   0.745
99884W        W68278  32.845   7.443   4.212
99885W        W68279  26.529  31.031  11.477
99886W        W68280  31.622   7.545  11.646
99887W        W68281  35.661  33.450   3.653
99888W        W68282  12.839   7.423  14.533
99889W        W68283  14.660  21.006   3.122
99890W        W68284  10.652   6.164   4.862
99891W        W68285  13.575  41.950   0.892
99892W        W68286  25.726   7.029  11.180
99893W        W68287  37.604  41.283   0.972
99894W        W68288  40.954  12.353  13.371
99895W        W68289  17.202   9.708   4.692
99896W        W68290  16.117  11.684   4.206
99897W        W68291   0.196   1.274  11.390
99898W        W68292  27.213  34.390   3.573
99899W        W68293  41.241  27.248   4.256
99900W        W68294   0.153  28.522   3.699
99901W        W68295  40.933   0.940   3.373
99902W        W68296  40.371  29.592  12.256
99903W        W68297  36.870  15.916  13.056
99904W        W68298  36.656  41.962  14.269
99905W        W68299   8.644  16.696  13.209
99906W        W68300  15.642  32.891  13.395
99907W        W68301   5.866  30.185  14.246
99908W        W68302   9.758  38.787  10.994
99909W        W68303  30.646   6.182   0.920
99910W        W68304  27.130   2.348   1.291
99911W        W68305  23.039  25.748   4.308
99912W        W68306  11.009  16.678   4.099
99913W        W68307  37.310  30.434   4.370
99914W        W68308  23.830  18.683   0.963
99915W        W68309  35.092  16.630   1.755
99916W        W68310  13.674  15.344  10.719
99917W        W68311  33.091  27.156  14.568
99918W        W68312  39.761   4.497   0.848
99919W        W68313  16.418  30.550  11.220
99920W        W68314  29.201   6.002   1.832
99921W        W68315   1.001  38.480  12.575
99922W        W68316  44.803   8.904  10.413
99923W        W68317  17.326  31.957   4.501
99924W        W68318  17.146  35.838  12.558
99925W        W68319  12.974  33.023   3.962
99926W        W68320   0.353   9.236  13.867
99927W        W68321  29.407  26.933  11.599
99928W        W68322   3.377  29.076  14.920
99929W        W68323  17.005  25.152   1.935
99930W        W68324   2.730  27.677  13.377
99931W        W68325   5.735  43.065  13.870
99932W        W68326  33.547  27.357  14.686
99933W        W68327  37.634  26.405   4.116
99934W        W68328  12.257  10.891   1.724
99935W        W68329  16.727  22.288  13.234
99936W        W68330  18.730  20.106   0.500
99937W        W68331  28.740   6.972  14.024
99938W        W68332  43.940  33.145   2.650
99939W        W68333  28.367  17.536   1.747
99940W        W68334   6.669   8.368   3.726
99941W        W68335  42.063  24.198  12.498
99942W        W68336  11.217  43.694  13.505
99943W        W68337   9.320  43.969  10.596
99944W        W68338   4.930  27.261  13.485
99945W        W68339  18.719  24.627  13.948
99946W        W68340  42.519  16.523   2.363
99947W        W68341   3.010  24.053   0.333
99948W        W68342  26.010  30.520   5.027
99949W        W68343   1.487  23.093   3.918
99950W        W68344  10.716  36.561  14.429
99951W        W68345   9.752  17.818   2.771
99952W        W68346  16.581  14.837  11.612
99953W        W68347  22.532   8.678  10.635
99954W        W68348  39.781  22.673   1.424
99955W        W68349  30.963  32.726   3.783
99956W        W68350  23.563  21.033   2.119
99957W        W68351  17.393  25.619   3.239
99958W        W68352  31.963  32.525  12.895
99959W        W68353  16.239  18.747  11.564
99960W        W68354  24.078  31.399  11.928
99961W        W68355  18.173  23.231   3.183
99962W        W68356  31.106  15.746   4.225
99963W        W68357   2.175  37.122  11.612
99964W        W68358  28.327  27.870  14.968
99965W        W68359   6.694  24.850   1.770
99966W        W68360  10.693  31.455   0.705
99967W        W68361  37.080  25.096   4.612
99968W        W68362  15.785  20.569  10.352
99969W        W68363  34.931  33.379  12.673
99970W        W68364  43.792  16.485   0.508
99971W        W68365  27.248  40.403  13.526
99972W        W68366  39.387  17.318   2.915
99973W        W68367  44.810  19.196   0.898
99974W        W68368  34.461  11.112  12.164
99975W        W68369  43.495  15.723   0.852
99976W        W68370  37.919  42.244  11.176
99977W        W68371  25.618  15.080   4.428
99978W        W68372  11.278   6.768   3.581
99979W        W68373  19.545  24.659   0.543
99980W        W68374  34.860  42.351  10.627
99981W        W68375  13.405  14.681   0.730
99982W        W68376   2.734  28.542  11.926
99983W        W68377   5.957  28.036  12.181
99984W        W68378  39.203  37.596   4.103
99985W        W68379  32.382  22.249   3.769
99986W        W68380  24.238  41.389   1.704
99987W        W68381   5.755   9.280   4.131
99988W        W68382  19.675  15.397  14.588
99989W        W68383   5.073  40.013   0.756
99990W        W68384  28.709  34.379   2.878
99991W        W68385  28.474  12.579   1.194
99992W        W68386  38.531  21.118   4.156
99993W        W68387  38.719   9.940  14.541
99994W        W68388  18.896  16.141   3.191
99995W        W68389  28.825   9.053  14.510
99996W        W68390  43.334  15.939   1.311
99997W        W68391  42.916  26.990   3.624
99998W        W68392  20.072  39.898  14.116
99999W        W68393   9.321   8.365   2.822
    0W        W68394   1.951  40.882   1.853
    1W        W68395  10.263  10.442   2.721
    2W        W68396  22.551   8.662  12.779
    3W        W68397  16.745  27.918   2.766
    4W        W68398   3.100  29.417  14.496
    5W        W68399  25.510   8.154   4.175
    6W        W68400  18.200   8.684   0.263
    7W        W68401  39.357  24.114   4.880
    8W        W68402  35.835  10.919   3.304
    9W        W68403  21.834  20.667   1.090
   10W        W68404  31.908  35.453   0.288
   11W        W68405  19.074  36.350   3.332
   12W        W68406  31.062  10.405  14.726
   13W        W68407  23.028  13.850  13.830
   14W        W68408  42.283  36.360  13.296
   15W        W68409  43.983   4.132   0.482
   16W        W68410   9.457  26.184   1.683
   17W        W68411  30.988  39.852  12.551
   18W        W68412  18.552   4.894  13.748
   19W        W68413  30.098  10.718   1.930
   20W        W68414   3.931  14.733  13.001
   21W        W68415  18.564  33.876   3.886
   22W        W68416  25.452  21.774  12.966
   23W        W68417  24.574  19.259  14.865
   24W        W68418  22.482  10.328  12.678
   25W        W68419   9.732  43.708   0.026
   26W        W68420  42.458   1.931  11.966
   27W        W68421  43.232   7.896   3.244
   28W        W68422  43.118   2.801   0.440
   29W        W68423   1.857  31.564   3.862
   30W        W68424   8.572   4.395  12.121
   31W        W68425  14.275   7.850   3.819
   32W        W68426  18.513  35.385   0.894
   33W        W68427  31.783  17.055   0.623
   34W        W68428  39.685  32.793  14.719
   35W        W68429  31.175  43.987  10.717
   36W        W68430  12.540   4.285   1.875
   37W        W68431  38.530  23.997  10.355
   38W        W68432   4.398  37.230   0.832
   39W        W68433   0.551  19.044   2.795
   40W        W68434  19.544  27.959   4.572
   41W        W68435  18.605  32.985   1.396
   42W        W68436   5.476  20.519   1.781
   43W        W68437  27.231  35.460   1.810
   44W        W68438  14.747  35.518   2.339
   45W        W68439  11.608  44.351   1.334
   46W        W68440   8.130  19.421  14.027
   47W        W68441   4.586  24.719   5.579
   48W        W68442  14.458  13.889  13.761
   49W        W68443  19.950  23.429   1.416
   50W        W68444   4.520   2.719   1.036
   51W        W68445  24.994  24.199   2.578
   52W        W68446  33.852  39.607   0.866
   53W        W68447  32.850  34.618  11.946
   54W        W68448  22.563  44.549  11.907
   55W        W68449  33.565  20.555  11.037
   56W        W68450  14.919   3.422   3.210
   57W        W68451  38.245  33.735  11.120
   58W        W68452  38.958   0.304   4.995
   59W        W68453  37.477  40.170   0.379
   60W        W68454  41.478   7.506   0.651
   61W        W68455  10.440   6.337  12.044
   62W        W68456  21.895   4.853   4.403
   63W        W68457  33.610  13.727   3.599
   64W        W68458  16.975   2.799   0.208
   65W        W68459  23.259  34.478  14.438
   66W        W68460  13.362  11.155   1.723
   67W        W68461  30.241   7.948   0.674
   68W        W68462  42.463   9.744  14.908
   69W        W68463   6.634  38.108   1.241
   70W        W68464   7.808  20.311   3.212
   71W        W68465  33.477  23.947   4.700
   72W        W68466  26.940   9.872  10.679
   73W        W68467   9.242  37.628  11.541
   74W        W68468  15.735  40.990  14.896
   75W        W68469   2.543  29.362   0.409
   76W        W68470  39.376  24.420  10.432
   77W        W68471  14.296   9.303   3.164
   78W        W68472  36.469  15.086   2.104
   79W        W68473  10.248   0.826  14.220
   80W        W68474  32.834   2.264  12.484
   81W        W68475  17.160  12.833   0.937
   82W        W68476   5.396  41.629  13.874
   83W        W68477  40.997   3.310  11.671
   84W        W68478  20.047  12.597   0.958
   85W        W68479  42.753  36.333   3.189
   86W        W68480  29.987   0.688  12.539
   87W        W68481  40.878  34.867  14.920
   88W        W68482  42.099   0.426  12.061
   89W        W68483   0.473  19.100  11.191
   90W        W68484  43.405   1.231   1.472
   91W        W68485   4.697  19.675  12.748
   92W        W68486  16.286  33.469   0.764
   93W        W68487   5.427  28.494  10.605
   94W        W68488   7.327  27.137   3.660
   95W        W68489  43.115  24.023  11.203
   96W        W68490  28.447   9.782  11.402
   97W        W68491  10.809  11.641  14.987
   98W        W68492  26.068   4.116   0.297
   99W        W68493   6.741   1.065   4.722
  100W        W68494  24.563   2.461  14.273
  101W        W68495  44.686   9.750  11.445
  102W        W68496  38.022  18.194  14.855
  103W        W68497   3.616  29.521   1.280
  104W        W68498  22.721  11.753   1.385
  105W        W68499  35.727  34.324  12.635
  106W        W68500   3.558  26.225   3.922
  107W        W68501   3.397  28.455  13.986
  108W        W68502  30.093  16.822  13.866
  109W        W68503   1.526  14.545  14.005
  110W        W68504   7.261  29.565  13.502
  111W        W68505   8.983  12.774  11.759
  112W        W68506  31.851  18.550   0.775
  113W        W68507   9.321  44.800   0.789
  114W        W68508   8.745  35.850   4.397
  115W        W68509  10.913  43.521  11.066
  116W        W68510  10.108  15.201  14.791
  117W        W68511  44.443   5.404  12.452
  118W        W68512  18.758  22.051   0.261
  119W        W68513   7.088  21.709   0.418
  120W        W68514  21.663  31.398   2.024
  121W        W68515  43.489  35.958  11.235
  122W        W68516  12.733  13.068  14.362
  123W        W68517   2.409  34.134  11.535
  124W        W68518   9.716  19.098   3.054
  125W        W68519  16.619  35.279  10.936
  126W        W68520  21.017  37.406  13.828
  127W        W68521  26.918  36.143  13.904
  128W        W68522  12.138  39.085   4.271
  129W        W68523  25.461  40.734   0.294
  130W        W68524  40.567  28.895   2.421
  131W        W68525   7.568  30.459   4.112
  132W        W68526  16.972  21.717   0.478
  133W        W68527  17.270  40.307  14.334
  134W        W68528  22.271  40.533  14.352
  135W        W68529  33.255   2.745   2.583
  136W        W68530  13.680  44.794   0.943
  137W        W68531  23.093  41.563  13.351
  138W        W68532  23.211   1.354  11.129
  139W        W68533   7.007  16.613   3.616
  140W        W68534  32.690  30.519   1.786
  141W        W68535  42.076   9.129   1.479
  142W        W68536   7.218   4.224  13.042
  143W        W68537  24.738   1.058   1.367
  144W        W68538   5.372  29.061   3.958
  145W        W68539  12.626  24.693   3.914
  146W        W68540  24.723   6.234   4.342
  147W        W68541  41.880  15.625  11.165
  148W        W68542   0.395  14.358   3.807
  149W        W68543  32.438  22.263   0.217
  150W        W68544  35.054  35.869   0.638
  151W        W68545  39.354  29.153   2.924
  152W        W68546   1.304  27.520  13.269
  153W        W68547  34.069  20.736   1.802
  154W        W68548  12.348  15.071  13.826
  155W        W68549  13.848  13.611  14.409
  156W        W68550  19.784  34.623   0.861
  157W        W68551  24.100  25.629  11.145
  158W        W68552   7.421   4.259  14.830
  159W        W68553  12.973  42.329  12.765
  160W        W68554  31.371  44.490  10.711
  161W        W68555  14.937  38.540  10.750
  162W        W68556  10.336  40.037   2.400
  163W        W68557  31.548   5.797  11.576
  164W        W68558  14.572  26.130   2.694
  165W        W68559   2.296  10.793   0.452
  166W        W68560  31.831  12.304   2.186
  167W        W68561  17.524  15.199   0.885
  168W        W68562  26.412  12.830   2.964
  169W        W68563  33.010  12.277   1.894
  170W        W68564  11.831  42.251   4.610
  171W        W68565  15.181  34.922   2.880
  172W        W68566  36.195  31.012   3.766
  173W        W68567  30.610  44.501   2.433
  174W        W68568  23.817   3.367   9.990
  175W        W68569  16.527  35.348   4.165
  176W        W68570   4.807   8.653   1.086
  177W        W68571  23.132  20.048   4.464
  178W        W68572  13.799  30.515   2.665
  179W        W68573  14.789  24.528  14.604
  180W        W68574  15.004  39.639  10.841
  181W        W68575  32.524  43.475  11.996
  182W        W68576  25.410  42.294   0.498
  183W        W68577  25.911   7.249   3.691
  184W        W68578  31.226  26.904  11.780
  185W        W68579  36.722  34.807  13.943
  186W        W68580  25.500  25.649   0.589
  187W        W68581  39.635   7.660   2.647
  188W        W68582  38.940   0.585   3.369
  189W        W68583  10.525   7.693   0.709
  190W        W68584  34.827  40.839  11.502
  191W        W68585  10.138   4.080   3.706
  192W        W68586  35.048   4.456  12.560
  193W        W68587   1.524  19.277   2.962
  194W        W68588  16.557  34.914  14.777
  195W        W68589  19.723   9.369  12.862
  196W        W68590  19.950  41.416  11.961
  197W        W68591  39.535  40.623   1.914
  198W        W68592  21.511  25.162   2.797
  199W        W68593  23.298   4.636  12.979
  200W        W68594  33.821  40.448   2.910
  201W        W68595  21.792  28.986   4.148
  202W        W68596  23.801  37.098  11.198
  203W        W68597  16.117  44.580  11.575
  204W        W68598  32.357   0.973  10.605
  205W        W68599   5.998  24.196   1.879
  206W        W68600  22.751  30.068  14.946
  207W        W68601  37.112  38.374   3.716
  208W        W68602  16.106  41.550   1.916
  209W        W68603   9.283  19.595   3.647
  210W        W68604  30.796  10.325   3.864
  211W        W68605  16.608  25.165   0.293
  212W        W68606  23.195  20.624   2.110
  213W        W68607  37.183  32.301   2.543
  214W        W68608  40.849   7.975  11.238
  215W        W68609  25.022  13.936   3.212
  216W        W68610   4.533   9.923  13.259
  217W        W68611  35.052  40.436  12.146
  218W        W68612  42.834  20.822  10.291
  219W        W68613  40.548   8.727  11.165
  220W        W68614  15.321  24.937   1.850
  221W        W68615  16.288  44.896   4.313
  222W        W68616  29.410  20.008   0.691
  223W        W68617  36.569   3.275  12.616
  224W        W68618  32.467  10.841  12.385
  225W        W68619   8.619  36.947  11.589
  226W        W68620  12.692   2.251   0.469
  227W        W68621  42.307  16.929   0.382
  228W        W68622  16.634  30.712  12.487
  229W        W68623  32.803  18.682   4.058
  230W        W68624  23.886   4.699  11.072
  231W        W68625  15.159  36.364   2.338
  232W        W68626   9.874  18.670  12.094
  233W        W68627   5.697  31.074  14.010
  234W        W68628  39.276  14.027  11.137
  235W        W68629  35.015  39.826  12.943
  236W        W68630  20.379  22.410   2.221
  237W        W68631  21.745   0.909  11.717
  238W        W68632  23.587  43.119  14.403
  239W        W68633  30.721  10.686  12.423
  240W        W68634  37.459  25.080   1.305
  241W        W68635  26.154  12.777   4.632
  242W        W68636  22.918  35.548   3.872
  243W        W68637  44.324  31.280  13.465
  244W        W68638  10.549   3.747   3.732
  245W        W68639  44.971  26.190   0.775
  246W        W68640  38.899  24.272   3.244
  247W        W68641  24.802  33.431  11.529
  248W        W68642  39.963  18.581  11.364
  249W        W68643  44.363  33.940  10.942
  250W        W68644  37.925  38.788   0.823
  251W        W68645  12.992   5.767  13.708
  252W        W68646  43.733   4.911   3.775
  253W        W68647   4.792   4.756  11.924
  254W        W68648   4.486  34.774   0.830
  255W        W68649  16.598   0.863  14.808
  256W        W68650  42.776  32.625   3.709
  257W        W68651   2.842  21.651   1.095
  258W        W68652  17.923  26.315  10.627
  259W        W68653  24.504  27.919   2.519
  260W        W68654  23.218   5.878   0.905
  261W        W68655  30.846  25.003  14.812
  262W        W68656  13.192  33.042   4.568
  263W        W68657  18.947  39.924   0.013
  264W        W68658  24.410  43.788  14.785
  265W        W68659  13.491  43.325   3.344
  266W        W68660   3.840  28.462  11.063
  267W        W68661  39.646  37.320   1.413
  268W        W68662  44.052   5.298  12.110
  269W        W68663  40.218  38.499  14.864
  270W        W68664  15.033  40.130  12.068
  271W        W68665  41.392  44.400   0.237
  272W        W68666   6.144   3.580   4.115
  273W        W68667  23.058  29.926  11.459
  274W        W68668  24.665  12.464   1.741
  275W        W68669   9.661   0.820  13.502
  276W        W68670  10.865   1.256   4.422
  277W        W68671   1.913  32.338  10.903
  278W        W68672  23.498  28.952  14.867
  279W        W68673   9.086   6.140  13.935
  280W        W68674  14.942  15.138  11.216
  281W        W68675  21.897  21.029  11.298
  282W        W68676  32.061   1.374  10.692
  283W        W68677   7.385  15.171  11.991
  284W        W68678  34.858  42.976  14.746
  285W        W68679  40.773  28.146  10.798
  286W        W68680  16.595  18.701  14.189
  287W        W68681  13.125  16.797  12.950
  288W        W68682  33.383  22.137   3.840
  289W        W68683   1.854  36.276   1.622
  290W        W68684  15.120  38.463   2.305
  291W        W68685   3.193  14.724   4.056
  292W        W68686  39.281   7.897  12.429
  293W        W68687  29.392   9.338   2.675
  294W        W68688  41.754   2.176   0.352
  295W        W68689   7.703   0.712   4.637
  296W        W68690  27.560  18.760  13.003
  297W        W68691  25.050  10.712  11.249
  298W        W68692  14.618  17.600  14.623
  299W        W68693   9.443  25.578   4.333
  300W        W68694   9.268  43.545   3.287
  301W        W68695   0.801  12.998  12.359
  302W        W68696  36.614  44.376   3.693
  303W        W68697   1.814  16.562   2.736
  304W        W68698  31.672  12.003   0.409
  305W        W68699   0.916  28.992   3.452
  306W        W68700  17.736   5.484  10.069
  307W        W68701  40.894  12.228  14.260
  308W        W68702   1.293  19.717  11.221
  309W        W68703  42.065   7.398  10.693
  310W        W68704  13.786   5.622   4.506
  311W        W68705  34.068  14.008   0.741
  312W        W68706  18.035  30.531   3.579
  313W        W68707  42.368  34.915  14.989
  314W        W68708   1.619  34.487   0.443
  315W        W68709  20.819  33.307  11.479
  316W        W68710  25.597   5.262  14.960
  317W        W68711  26.235  20.557   4.656
  318W        W68712   3.695  11.711   2.312
  319W        W68713  40.890  39.531   0.259
  320W        W68714   9.728   6.723  14.687
  321W        W68715  36.380  12.104  10.378
  322W        W68716  39.455  21.131  14.241
  323W        W68717  41.087  37.345  11.558
  324W        W68718   6.706  43.826   2.197
  325W        W68719  33.607   1.969  13.546
  326W        W68720  13.793   1.671  10.681
  327W        W68721  44.893  40.307  10.341
  328W        W68722  28.328   6.736  14.343
  329W        W68723  14.667  17.437   3.634
  330W        W68724  23.586   0.435  14.265
  331W        W68725   0.318  11.830   2.939
  332W        W68726  35.933  33.864   3.837
  333W        W68727  22.052  18.103   0.869
  334W        W68728  24.618  37.626   1.335
  335W        W68729  42.333  15.415  10.568
  336W        W68730  35.052  37.139  10.649
  337W        W68731  23.839   2.909   0.708
  338W        W68732  21.657  26.531   3.026
  339W        W68733  29.071  11.419  14.352
  340W        W68734   3.275  44.861  14.286
  341W        W68735  39.739  26.181   0.447
  342W        W68736  23.256  19.707  11.153
  343W        W68737  25.578  35.775  12.409
  344W        W68738  23.002   3.294  10.973
  345W        W68739   4.850  26.438   3.320
  346W        W68740  30.221   3.941   2.160
  347W        W68741   7.565  25.235   2.251
  348W        W68742  17.063  40.043   3.356
  349W        W68743   2.717  40.129   4.047
  350W        W68744  18.716  17.745   3.729
  351W        W68745  27.904  24.506   2.882
  352W        W68746  43.131  39.593   4.712
  353W        W68747  17.326  34.606   0.883
  354W        W68748   8.941  24.721   1.635
  355W        W68749  19.554   5.107  14.515
  356W        W68750  16.105  27.907  13.319
  357W        W68751  12.684   8.706   4.936
  358W        W68752   1.250   5.407   2.723
  359W        W68753   8.712  11.396  14.894
  360W        W68754  36.446  42.300  13.944
  361W        W68755  16.023  36.032  14.216
  362W        W68756  28.613   6.446  14.019
  363W        W68757  37.315  29.222  12.021
  364W        W68758  38.551  24.603   1.991
  365W        W68759  36.442  28.592   2.758
  366W        W68760  39.271  17.397   4.177
  367W        W68761  38.817   1.895   1.843
  368W        W68762  40.437  15.766   0.336
  369W        W68763  15.698  17.384  14.901
  370W        W68764   5.772  24.070   4.258
  371W        W68765  42.557   0.853   4.210
  372W        W68766  10.158  25.429   2.836
  373W        W68767  34.718  10.096   0.200
  374W        W68768  13.113  18.851   3.715
  375W        W68769   1.253   4.629   2.768
  376W        W68770  17.791  12.055   2.345
  377W        W68771  11.900  42.250  13.305
  378W        W68772  19.566  40.016  14.071
  379W        W68773   4.355  23.914  10.793
  380W        W68774  10.371  10.249  14.474
  381W        W68775  30.578  23.603  13.316
  382W        W68776  32.987  37.011   1.459
  383W        W68777   8.685  26.991  10.464
  384W        W68778  41.482  31.700  12.939
  385W        W68779  20.855  25.189  11.138
  386W        W68780  44.353   1.367   3.880
  387W        W68781   5.269   6.189   0.648
  388W        W68782  23.571  26.391   0.545
  389W        W68783  22.899  10.251  11.368
  390W        W68784  34.166  12.762   0.523
  391W        W68785  10.331   9.339  11.682
  392W        W68786  12.152  13.335  11.321
  393W        W68787  25.599  17.021  12.887
  394W        W68788  30.647  28.433  10.723
  395W        W68789  43.589  41.472  14.840
  396W        W68790   8.034  10.808   0.768
  397W        W68791  39.964  40.346   4.624
  398W        W68792  16.347   9.705   1.448
  399W        W68793  21.228  28.286  13.502
  400W        W68794  39.330  44.055  14.155
  401W        W68795  10.864  17.179  11.615
  402W        W68796   3.358   8.546  11.179
  403W        W68797  16.718  35.834   1.138
  404W        W68798  26.966  24.686   0.522
  405W        W68799  41.095  44.534   2.277
  406W        W68800  31.142  36.672  14.854
  407W        W68801  26.891   1.068   0.910
  408W        W68802  39.762  19.143  10.715
  409W        W68803  26.912  30.567  14.951
  410W        W68804  24.706  44.893   0.385
  411W        W68805  14.104  40.037  12.915
  412W        W68806   7.357   7.923  13.485
  413W        W68807   8.798   0.555   1.653
  414W        W68808  33.983  20.511   4.627
  415W        W68809  21.502  11.689   4.112
  416W        W68810  10.679  32.567  10.737
  417W        W68811  10.104  34.640  11.805
  418W        W68812  31.977  36.600   2.146
  419W        W68813  20.316  15.260   9.726
  420W        W68814  27.274  18.815  11.148
  421W        W68815  10.269   7.921  14.790
  422W        W68816  41.335  28.926  13.396
  423W        W68817  26.030  15.499   1.874
  424W        W68818  28.962   9.788  12.209
  425W        W68819  12.215  30.551  10.530
  426W        W68820  42.763  38.810   1.393
  427W        W68821  38.892  38.285   2.345
  428W        W68822  23.558  37.476  13.056
  429W        W68823  44.822  34.193  12.086
  430W        W68824  35.923  35.092   0.960
  431W        W68825  40.489  21.143  13.325
  432W        W68826  18.724  26.211  12.112
  433W        W68827  14.805  35.908  13.400
  434W        W68828  21.238   9.683   0.135
  435W        W68829  27.198  26.485   3.696
  436W        W68830  42.808  34.818  10.538
  437W        W68831  37.158  21.098   3.631
  438W        W68832  14.812  34.907  11.600
  439W        W68833  10.260   7.791  11.403
  440W        W68834  38.389  17.999   4.365
  441W        W68835  26.820  29.759  13.792
  442W        W68836  20.529  30.630  11.413
  443W        W68837  22.998  31.647   0.975
  444W        W68838  22.474   2.685  12.605
  445W        W68839  31.432   6.784   4.813
  446W        W68840  39.959  15.281  13.255
  447W        W68841  20.974  19.500  12.571
  448W        W68842  39.031  13.795   0.393
  449W        W68843  18.260   4.728   1.307
  450W        W68844   6.467  28.483   1.818
  451W        W68845  21.724  41.427  10.946
  452W        W68846  31.620  32.642  11.568
  453W        W68847  41.845   4.908   0.011
  454W        W68848  11.308  31.305  13.921
  455W        W68849  22.635  12.835  11.084
  456W        W68850   7.733  37.105   3.270
  457W        W68851  15.971  41.432   1.421
  458W        W68852  14.676  16.837  12.211
  459W        W68853  14.120  21.846   4.466
  460W        W68854  35.833  10.803   1.901
  461W        W68855  10.262  27.848  12.957
  462W        W68856  23.172  34.329  11.808
  463W        W68857  41.909  13.910   0.008
  464W        W68858  43.814  12.892  13.930
  465W        W68859  41.645  17.257  12.196
  466W        W68860  40.020  16.872  14.945
  467W        W68861  28.990   8.956   2.756
  468W        W68862  16.390  26.953   2.772
  469W        W68863   1.799  29.178   3.076
  470W        W68864  25.274  38.701   5.013
  471W        W68865  14.490  41.061   1.235
  472W        W68866   5.375  37.834   2.952
  473W        W68867  15.859   7.788   0.182
  474W        W68868   8.464  25.993  10.360
  475W        W68869  30.156  38.686   4.532
  476W        W68870  11.752  21.856   3.356
  477W        W68871  21.317  41.325  12.308
  478W        W68872  38.989  27.647  14.478
  479W        W68873  17.907  44.030  11.877
  480W        W68874  32.113  37.126   2.260
  481W        W68875  14.795  21.509  14.700
  482W        W68876  14.267  31.511   4.658
  483W        W68877  35.100  38.522  14.012
  484W        W68878  17.226   4.779  14.553
  485W        W68879  32.763   8.515   4.133
  486W        W68880   5.716  43.076  12.105
  487W        W68881  20.125  29.041  13.428
  488W        W68882  19.265  37.625   4.563
  489W        W68883   1.189  26.664  10.847
  490W        W68884  27.281  30.937   3.113
  491W        W68885  42.460   9.303   2.138
  492W        W68886  28.099  10.858   0.363
  493W        W68887  37.820  33.427   3.793
  494W        W68888  38.320  10.257   3.575
  495W        W68889  14.122  38.523   2.362
  496W        W68890  25.474  18.645  10.793
  497W        W68891  31.335  42.382   0.976
  498W        W68892  31.371  33.999   3.672
  499W        W68893   5.416  29.914  14.258
  500W        W68894  33.686  11.277  10.275
  501W        W68895  44.465   2.353  12.030
  502W        W68896  17.838  20.000  10.538
  503W        W68897  17.143  16.186   2.175
  504W        W68898  41.355  36.461   0.812
  505W        W68899  26.391   7.451  12.499
  506W        W68900  44.948  33.003  13.923
  507W        W68901  36.984  42.787  13.872
  508W        W68902  29.008  22.295  13.538
  509W        W68903  18.520  28.780   3.190
  510W        W68904   2.760  18.153  14.278
  511W        W68905  10.341  32.341  13.702
  512W        W68906   5.824  43.325   4.128
  513W        W68907  29.981  12.519   0.892
  514W        W68908  21.664  19.048  11.810
  515W        W68909  12.293  17.711   4.701
  516W        W68910  29.503  12.897  13.396
  517W        W68911  40.462   4.413  11.429
  518W        W68912  17.615  43.810   0.838
  519W        W68913   1.861  16.235  13.385
  520W        W68914   7.168  42.279   4.756
  521W        W68915  26.385  23.834  11.176
  522W        W68916  36.933  30.614  11.227
  523W        W68917   9.841  34.762   0.636
  524W        W68918  33.041   5.891   0.860
  525W        W68919  28.178   3.387   2.269
  526W        W68920  13.965  43.698   3.161
  527W        W68921  32.543  42.761   1.166
  528W        W68922   5.808  23.712  10.809
  529W        W68923   2.296  27.688   2.070
  530W        W68924  35.800  40.440   2.750
  531W        W68925   8.290  41.335  14.530
  532W        W68926   8.106  18.601  14.385
  533W        W68927  15.857  13.706  11.198
  534W        W68928   9.778   6.388   4.692
  535W        W68929  11.319   7.240   3.316
  536W        W68930  34.787  38.841  12.099
  537W        W68931  17.060  21.469  13.329
  538W        W68932  13.097  38.898  11.596
  539W        W68933  26.735  39.391  12.388
  540W        W68934   6.034  14.483   4.659
  541W        W68935   7.212  43.488  13.432
  542W        W68936  23.151  38.096   3.814
  543W        W68937  37.400   0.437   0.334
  544W        W68938   4.472  36.940   2.732
  545W        W68939  44.781   0.724   0.314
  546W        W68940  34.561  35.040   3.826
  547W        W68941  18.883  20.224   2.253
  548W        W68942  29.469  31.642   0.781
  549W        W68943  39.723  28.937  13.138
  550W        W68944  34.935  19.792   0.308
  551W        W68945  15.717  14.346   1.262
  552W        W68946  13.209  40.928  14.989
  553W        W68947  34.642  38.853   2.877
  554W        W68948  13.200  15.884  10.139
  555W        W68949  41.833  42.335  11.169
  556W        W68950  37.590  24.608  12.611
  557W        W68951  44.393  28.923   3.503
  558W        W68952   4.480   3.222   2.277
  559W        W68953  44.913  35.370  10.982
  560W        W68954   5.784  40.525  13.922
  561W        W68955  35.317   3.527   0.777
  562W        W68956  23.612  12.376   0.385
  563W        W68957   8.559  36.506   3.208
  564W        W68958   7.412  14.040   3.741
  565W        W68959  32.897  35.197   4.526
  566W        W68960   5.493  31.945   2.365
  567W        W68961  44.002  17.518  13.423
  568W        W68962   4.385  28.404   0.509
  569W        W68963  37.943  36.360   2.810
  570W        W68964  22.097  44.306   3.266
  571W        W68965  21.296  43.270   0.248
  572W        W68966  22.448  39.091  11.624
  573W        W68967  15.812  27.471   1.200
  574W        W68968  21.279  28.383  14.016
  575W        W68969  39.829  33.703   2.240
  576W        W68970  12.780  32.306   0.529
  577W        W68971  30.443  40.833   4.573
  578W        W68972  13.806  32.940   1.389
  579W        W68973  39.902  23.288  14.844
  580W        W68974   6.365  17.663   3.303
  581W        W68975  12.308  32.653   4.165
  582W        W68976  13.431  27.548  13.256
  583W        W68977  44.479  23.234  10.674
  584W        W68978  19.288   6.762   2.295
  585W        W68979  29.829  44.221   4.982
  586W        W68980  21.819  21.519  14.034
  587W        W68981   3.328  35.037   3.155
  588W        W68982  32.786  38.988  13.569
  589W        W68983  17.669   5.224  10.806
  590W        W68984   3.913   2.503  12.377
  591W        W68985  17.089  16.036   3.745
  592W        W68986  28.725  21.167   0.735
  593W        W68987   3.874  37.069  11.267
  594W        W68988  24.449  41.128  11.065
  595W        W68989   7.980  26.487  12.883
  596W        W68990   6.153  31.585   1.181
  597W        W68991  17.667  32.378  14.010
  598W        W68992  23.478   8.720  12.388
  599W        W68993  31.917  11.740  14.592
  600W        W68994  21.283   9.893   0.952
  601W        W68995  23.349  33.647   1.801
  602W        W68996  39.530  25.525   0.238
  603W        W68997   9.203  17.643  14.285
  604W        W68998  14.649   5.630   2.950
  605W        W68999  21.248  44.890  13.631
  606W        W69000   6.496   4.738  13.542
  607W        W69001  24.196  23.856  12.239
  608W        W69002   3.489   9.902  14.888
  609W        W69003   7.316  22.587   3.193
  610W        W69004  23.783   8.379  14.450
  611W        W69005  44.807  41.710  12.603
  612W        W69006   2.786  31.674  14.289
  613W        W69007   4.364  32.759   1.991
  614W        W69008   9.170  10.104  11.942
  615W        W69009  37.569  43.838  10.209
  616W        W69010  11.584   3.851  14.346
  617W        W69011  21.543  19.264   1.194
  618W        W69012  40.868  29.644  12.105
  619W        W69013   0.108  42.362   4.115
  620W        W69014  40.871   7.284  13.996
  621W        W69015  29.698   9.277   4.949
  622W        W69016  37.978  23.233  14.748
  623W        W69017   0.132  43.392  11.247
  624W        W69018  28.659  26.162  12.686
  625W        W69019  30.699  42.265  10.804
  626W        W69020   3.138  39.289  12.914
  627W        W69021  14.790  21.983  13.134
  628W        W69022  44.084  24.495   0.364
  629W        W69023   4.144  15.203   2.447
  630W        W69024  38.902   0.353  14.123
  631W        W69025  25.837  14.222  11.669
  632W        W69026  23.101  40.928   2.179
  633W        W69027  20.111  44.479  13.833
  634W        W69028  27.240  30.125  13.092
  635W        W69029  33.144  28.597   2.755
  636W        W69030   0.905  13.132   4.826
  637W        W69031  21.679   7.929  14.008
  638W        W69032  37.609  26.924   0.314
  639W        W69033  19.604  32.469   4.777
  640W        W69034  19.315  23.547   3.665
  641W        W69035  14.691  13.034  11.239
  642W        W69036  31.456  27.077  13.558
  643W        W69037  39.624  42.989  10.749
  644W        W69038  16.600  38.559  14.453
  645W        W69039  14.301  17.447  11.024
  646W        W69040  28.216  19.090  12.405
  647W        W69041  15.629  15.602   1.907
  648W        W69042  44.399   3.731  13.864
  649W        W69043   2.224  42.255   0.428
  650W        W69044   9.472   2.703  14.509
  651W        W69045   8.111  32.689   3.612
  652W        W69046  30.420  29.065  13.923
  653W        W69047  34.277   3.533  13.689
  654W        W69048  39.855  38.811   3.906
  655W        W69049  24.553  29.586  13.939
  656W        W69050  17.809  18.820  10.270
  657W        W69051  24.184  44.881   4.242
  658W        W69052  39.837  33.333  12.572
  659W        W69053  22.929  12.192  11.547
  660W        W69054  42.351  25.457   4.749
  661W        W69055   8.128   8.346  14.968
  662W        W69056  20.141  16.595  13.696
  663W        W69057  42.355  19.177   4.145
  664W        W69058  43.840  12.905  14.872
  665W        W69059  32.540  22.862  11.537
  666W        W69060  32.652  38.077  12.393
  667W        W69061  34.689  19.783   3.773
  668W        W69062  37.479  24.866  11.922
  669W        W69063  28.088  27.916  10.367
  670W        W69064  25.228  30.734   0.728
  671W        W69065   1.391  27.233   1.291
  672W        W69066  11.816   2.385  13.404
  673W        W69067  36.985  42.314  10.853
  674W        W69068  42.829  35.922  14.449
  675W        W69069  43.222  20.194  11.549
  676W        W69070  27.388   2.024  11.716
  677W        W69071   0.505   9.933  13.785
  678W        W69072  43.541   0.559   1.920
  679W        W69073  28.931  20.864  14.472
  680W        W69074  20.277  22.982  11.089
  681W        W69075   0.763  41.555  11.877
  682W        W69076  30.066   4.935  12.446
  683W        W69077  34.964  43.880   1.249
  684W        W69078   9.370  38.119  12.449
  685W        W69079   1.575  34.175  11.881
  686W        W69080   9.543  25.730   5.338
  687W        W69081  17.995  27.740   4.494
  688W        W69082  12.810  35.162  11.029
  689W        W69083  28.795  21.111  11.048
  690W        W69084  15.972   2.675   2.280
  691W        W69085  10.230  23.431  14.984
  692W        W69086  23.481   1.366   1.280
  693W        W69087  24.437   1.984  10.777
  694W        W69088  20.233  11.452  14.569
  695W        W69089  13.198  21.203   4.077
  696W        W69090  32.903  18.322  14.301
  697W        W69091  21.269  38.961   0.449
  698W        W69092  13.252  12.543  10.632
  699W        W69093  13.769  15.736  14.811
  700W        W69094  18.221  12.094   1.783
  701W        W69095  20.663  31.324  12.481
  702W        W69096   0.671   9.162   3.174
  703W        W69097  28.382  33.535  14.491
  704W        W69098  29.500  41.117   0.292
  705W        W69099  37.112  44.104   3.494
  706W        W69100  22.568  26.095  12.824
  707W        W69101  27.389  41.789   5.027
  708W        W69102   1.175   7.392   2.988
  709W        W69103  24.468  30.065  11.658
  710W        W69104  13.826  37.538   4.538
  711W        W69105  27.936  36.865   0.881
  712W        W69106  13.988  26.645   4.680
  713W        W69107  39.845   6.704   3.097
  714W        W69108  30.041  20.646  11.188
  715W        W69109   0.412  40.366   0.482
  716W        W69110  32.121  16.745  13.243
  717W        W69111  25.983  30.058  11.584
  718W        W69112  14.266   6.663   1.362
  719W        W69113  40.106  31.550  11.302
  720W        W69114  35.365  44.246  14.319
  721W        W69115  20.164  29.120   5.141
  722W        W69116  37.145  43.035  13.423
  723W        W69117  30.164  35.118  14.396
  724W        W69118   6.204  30.557  12.474
  725W        W69119   6.433  15.955  10.290
  726W        W69120  11.669  44.882  10.966
  727W        W69121  34.926  33.357   0.905
  728W        W69122  41.603  29.182  11.673
  729W        W69123  34.900   2.939  11.150
  730W        W69124   3.380  13.731   4.089
  731W        W69125  16.232  21.990   4.842
  732W        W69126  40.230  25.781  11.985
  733W        W69127   9.734  18.805  13.953
  734W        W69128  25.545   9.668   3.251
  735W        W69129  15.765   0.766   4.574
  736W        W69130  13.538  10.808   0.459
  737W        W69131  21.815   8.377  14.932
  738W        W69132  44.092  23.784   4.377
  739W        W69133  28.388  25.488  11.070
  740W        W69134  11.346  24.140  10.775
  741W        W69135  18.085  44.762  13.015
  742W        W69136   5.806  44.720   1.352
  743W        W69137  14.203  28.126  13.268
  744W        W69138  10.769  32.982   1.963
  745W        W69139  17.534  29.975   0.883
  746W        W69140  24.845   7.659  10.538
  747W        W69141  36.882  32.106  11.458
  748W        W69142  24.260  29.460   0.009
  749W        W69143  37.238  42.226  13.463
  750W        W69144   7.334  21.241   4.844
  751W        W69145  14.973  13.161  13.452
  752W        W69146   5.448  14.195   1.799
  753W        W69147  29.694  18.537   4.725
  754W        W69148  17.484  42.897   3.438
  755W        W69149  16.278  30.907   2.758
  756W        W69150  31.122  32.639  14.469
  757W        W69151  19.804   9.385  13.354
  758W        W69152  30.922  12.723   0.273
  759W        W69153   5.147  39.084   0.729
  760W        W69154   6.148  25.982   0.814
  761W        W69155  14.182  44.079  11.122
  762W        W69156  33.472  21.684  13.853
  763W        W69157  29.130  23.751   1.397
  764W        W69158  20.519  15.593   2.423
  765W        W69159  37.576  38.785   2.179
  766W        W69160   5.214  26.680  13.075
  767W        W69161  21.950   2.309  11.800
  768W        W69162  34.058   3.177   4.185
  769W        W69163  42.688  26.964   0.311
  770W        W69164  40.428  32.087   2.907
  771W        W69165  22.723  10.424   0.874
  772W        W69166   1.324  23.923   1.842
  773W        W69167  26.847  33.046  10.914
  774W        W69168  24.684  41.332  14.292
  775W        W69169  27.384  41.666  12.445
  776W        W69170  42.587  40.013   5.151
  777W        W69171  27.022  10.912  13.515
  778W        W69172  18.589   5.254  11.624
  779W        W69173  14.768  12.439   3.130
  780W        W69174  13.397   0.751   1.982
  781W        W69175  14.876   0.978   1.214
  782W        W69176  20.136   0.297   2.103
  783W        W69177  11.862  29.081   4.588
  784W        W69178   5.393  18.097   0.806
  785W        W69179  21.159  40.175  11.014
  786W        W69180   2.945  30.387  11.664
  787W        W69181   8.325  17.399   4.338
  788W        W69182   1.367   3.690   1.805
  789W        W69183  15.585  23.038  11.649
  790W        W69184  44.544  35.528   4.094
  791W        W69185  27.114  16.725   0.922
  792W        W69186  25.107   2.196   0.873
  793W        W69187  14.805   5.385   1.682
  794W        W69188  35.840  34.601   4.516
  795W        W69189  27.522  38.317   0.719
  796W        W69190  17.692  10.393   4.538
  797W        W69191  30.645  36.927  12.421
  798W        W69192  40.899  42.493   1.823
  799W        W69193  30.880   8.286   4.458
  800W        W69194  16.766  14.254  13.481
  801W        W69195  24.894  42.000  12.427
  802W        W69196   9.798  42.572   2.204
  803W        W69197  43.443  17.767   4.136
  804W        W69198  30.685   9.838  11.421
  805W        W69199   7.824   9.658   1.594
  806W        W69200   0.016   0.848   2.389
  807W        W69201  30.397  42.488   0.667
  808W        W69202   1.356  38.528   3.202
  809W        W69203  26.341  38.714   4.095
  810W        W69204  15.540  24.163  12.100
  811W        W69205   5.194   9.227  14.843
  812W        W69206  37.884  28.932  10.763
  813W        W69207   9.370  40.247   0.849
  814W        W69208  32.566  43.710   1.062
  815W        W69209  33.163  28.052   0.690
  816W        W69210  43.079  14.827   4.597
  817W        W69211  20.240  29.643  12.343
  818W        W69212   0.457  37.982   4.230
  819W        W69213   2.253  37.816   1.354
  820W        W69214  42.308   4.218   4.946
  821W        W69215  22.933  40.343  11.244
  822W        W69216  35.751  22.385   3.002
  823W        W69217  19.652   5.194   4.674
  824W        W69218  41.641   1.946  12.524
  825W        W69219  37.657   6.137  13.841
  826W        W69220  42.557   8.647   4.076
  827W        W69221  30.117   5.726  11.536
  828W        W69222  41.746  10.745   4.283
  829W        W69223   1.432   5.761  10.712
  830W        W69224  23.566  15.165  13.993
  831W        W69225   9.970  44.837   2.643
  832W        W69226  15.409  10.169   4.126
  833W        W69227   1.891  22.425  10.939
  834W        W69228  34.006  32.999  14.415
  835W        W69229  13.710   9.083   0.950
  836W        W69230  11.216  12.666  10.623
  837W        W69231  21.429  42.127  14.040
  838W        W69232  37.049  14.668  10.884
  839W        W69233  30.597   3.411   3.238
  840W        W69234  14.466  19.042  12.777
  841W        W69235   7.103   2.318   0.271
  842W        W69236  24.060   5.377   1.594
  843W        W69237  44.064  31.183  11.572
  844W        W69238   2.375  28.986   3.392
  845W        W69239  31.403  28.133  11.478
  846W        W69240  42.791  43.464  13.285
  847W        W69241  16.766   4.692  11.605
  848W        W69242  44.746  36.276   3.508
  849W        W69243  17.386   8.731  11.824
  850W        W69244  12.110  11.747   0.227
  851W        W69245  30.367  14.910   3.361
  852W        W69246   0.436  21.763   1.410
  853W        W69247  14.039   0.170   0.952
  854W        W69248  14.878   4.804   5.482
  855W        W69249  18.940  31.338   4.424
  856W        W69250  16.830  12.241  13.871
  857W        W69251  44.894  31.604  12.909
  858W        W69252  11.699   9.722  14.835
  859W        W69253   6.208  23.148   3.993
  860W        W69254  40.918  34.926   4.066
  861W        W69255  12.602  17.869  12.401
  862W        W69256  41.758   1.047  12.594
  863W        W69257  40.822  23.515  13.844
  864W        W69258  18.715  16.525  11.037
  865W        W69259  38.929  35.913  12.838
  866W        W69260  26.431  34.551  12.074
  867W        W69261  25.376  39.986  11.167
  868W        W69262  22.823  41.026   2.618
  869W        W69263  42.359  36.393   4.161
  870W        W69264   5.721  41.932  10.694
  871W        W69265  32.990  16.376   4.592
  872W        W69266  28.716   4.229  12.654
  873W        W69267  22.516   7.154  12.951
  874W        W69268  17.937   2.910   3.539
  875W        W69269  24.451  20.435   2.842
  876W        W69270  24.439  22.268   3.126
  877W        W69271  13.232   7.928   4.146
  878W        W69272  35.414  36.133   0.923
  879W        W69273  27.543   8.895  12.930
  880W        W69274  39.301   7.221   2.823
  881W        W69275  11.311   4.053  11.173
  882W        W69276  34.626  22.175   4.308
  883W        W69277  40.928  41.497   2.831
  884W        W69278  37.082  28.246   3.184
  885W        W69279  16.177  34.439   0.036
  886W        W69280   1.767  22.061  13.446
  887W        W69281  27.043  13.362  14.056
  888W        W69282  41.649   3.789  11.128
  889W        W69283  30.517  31.139   0.912
  890W        W69284  37.706  25.090   4.635
  891W        W69285  24.622   3.501   3.689
  892W        W69286  24.985   1.974   3.141
  893W        W69287  34.140   2.370   3.904
  894W        W69288  37.963  21.047  11.937
  895W        W69289  24.427  38.435   3.878
  896W        W69290  30.584  39.312   4.625
  897W        W69291  18.681  10.376   0.294
  898W        W69292  35.496  33.612  10.737
  899W        W69293  18.737   8.237  12.092
  900W        W69294  18.236  21.025  10.445
  901W        W69295   6.273  27.623  12.139
  902W        W69296  32.027  30.847  13.537
  903W        W69297  31.736   6.977   2.889
  904W        W69298  44.961  30.990  12.580
  905W        W69299   1.852   7.701   3.509
  906W        W69300  37.954  43.921   1.279
  907W        W69301  40.927  41.402  11.214
  908W        W69302   9.100  30.631  14.405
  909W        W69303  27.266  42.177   5.348
  910W        W69304  26.761  18.227   3.259
  911W        W69305  36.825  41.880   2.070
  912W        W69306  13.596  43.552  14.063
  913W        W69307   6.200  41.081   2.264
  914W        W69308  22.604  15.352   1.653
  915W        W69309  39.908  40.419   0.392
  916W        W69310  17.545  41.226   4.894
  917W        W69311  13.698  32.231   0.658
  918W        W69312  36.542  18.443   3.259
  919W        W69313   6.914  44.491   1.972
  920W        W69314   6.447  40.422   4.073
  921W        W69315  41.832  12.310   1.355
  922W        W69316  36.812  10.982  14.033
  923W        W69317  13.543  31.687  11.154
  924W        W69318  40.359   6.622   4.555
  925W        W69319  36.597  36.024  13.579
  926W        W69320  22.645  31.493  10.210
  927W        W69321  33.923  22.151   3.790
  928W        W69322   5.684  31.527  12.092
  929W        W69323   2.952  32.212  13.009
  930W        W69324   0.282  14.865  12.403
  931W        W69325  13.153  42.068  13.329
  932W        W69326  23.771   6.657   1.733
  933W        W69327   4.675  39.947  12.620
  934W        W69328  29.455  10.864   3.705
  935W        W69329  23.618   4.185  12.905
  936W        W69330   7.423  44.553   3.214
  937W        W69331  42.170   5.856  12.513
  938W        W69332  39.807   3.759   4.086
  939W        W69333  20.936  24.608  14.386
  940W        W69334  32.799  26.291   1.302
  941W        W69335  23.173   6.132   4.258
  942W        W69336  22.957  23.660  11.559
  943W        W69337   1.357  24.968   3.752
  944W        W69338   7.707  37.390  12.393
  945W        W69339  34.519  34.251   1.263
  946W        W69340  44.717  36.174   2.226
  947W        W69341   1.824  20.637  10.725
  948W        W69342  25.344  29.379   4.859
  949W        W69343  25.711   1.407   1.989
  950W        W69344  34.611  37.995   0.809
  951W        W69345  35.267  43.386  12.498
  952W        W69346  26.418  32.498  11.627
  953W        W69347  33.991  23.648   3.276
  954W        W69348   4.454  14.916  12.989
  955W        W69349  31.123  22.300  11.605
  956W        W69350  24.405  16.184   2.345
  957W        W69351  21.206  11.691   3.061
  958W        W69352  12.190  19.542  14.921
  959W        W69353  20.757   5.659  12.472
  960W        W69354   2.869  11.093   3.579
  961W        W69355  22.367  22.054  14.443
  962W        W69356  19.756  10.922  10.686
  963W        W69357  18.996  17.868   1.420
  964W        W69358   0.000   0.753   3.377
  965W        W69359   0.737  30.358   0.147
  966W        W69360   0.991  18.674   2.812
  967W        W69361  38.521  18.257  13.893
  968W        W69362  14.837  12.167   3.577
  969W        W69363  36.296  24.552  12.088
  970W        W69364  21.833  27.211   3.820
  971W        W69365  40.887   0.379   4.352
  972W        W69366   1.499   6.240   2.379
  973W        W69367  37.589  36.645  13.875
  974W        W69368  25.790  30.650   4.597
  975W        W69369  36.643  28.970  11.433
  976W        W69370  30.260  22.720   1.869
  977W        W69371  23.386  31.091  12.545
  978W        W69372  14.129  12.846   3.092
  979W        W69373   9.902  28.954   4.582
  980W        W69374  26.164  10.814   3.664
  981W        W69375  11.188  15.546   2.128
  982W        W69376  33.596  14.778  11.428
  983W        W69377  42.509   7.496   1.762
  984W        W69378  36.846  43.601  14.467
  985W        W69379   5.227  28.658   1.439
  986W        W69380  31.352   6.131  14.913
  987W        W69381  22.131   4.194   2.709
  988W        W69382  19.780  24.663  12.321
  989W        W69383  14.734  32.420   2.811
  990W        W69384  19.337  37.527  11.589
  991W        W69385  34.448  15.868   0.040
  992W        W69386  40.268   4.435   3.729
  993W        W69387  43.010  38.111   0.903
  994W        W69388  34.898  28.300  13.890
  995W        W69389   9.151  14.279   4.773
  996W        W69390  37.467   1.687   3.709
  997W        W69391  14.329  38.576   1.856
  998W        W69392   6.481   1.429   1.020
  999W        W69393  41.367  32.107   0.417
 1000W        W69394   5.320  35.042   5.031
 1001W        W69395  24.953  12.858  12.499
 1002W        W69396  26.584  33.932   4.057
 1003W        W69397  29.315  26.083   4.887
 1004W        W69398   9.196  13.759   2.874
 1005W        W69399  30.477   7.872   0.232
 1006W        W69400  12.277  42.452   2.831
 1007W        W69401  12.764  17.790  13.270
 1008W        W69402  16.750  27.210  11.137
 1009W        W69403   5.389  17.938  11.398
 1010W        W69404  26.754  21.365  10.650
 1011W        W69405  33.942  19.096   0.909
 1012W        W69406   0.479  20.588  14.404
 1013W        W69407  23.036  31.053   4.178
 1014W        W69408  18.729  33.649  10.680
 1015W        W69409   9.954  15.903  11.759
 1016W        W69410   2.798  11.774  12.973
 1017W        W69411  22.020  23.579   1.455
 1018W        W69412  23.966  18.101   0.384
 1019W        W69413  42.864  44.236  11.071
 1020W        W69414   5.789  43.025   3.653
 1021W        W69415  20.282  14.649   2.599
 1022W        W69416  17.330  34.026   2.354
 1023W        W69417  15.751  31.211   4.763
 1024W        W69418   3.206  37.296  11.121
 1025W        W69419  42.711  35.421   2.804
 1026W        W69420  18.570  22.735  10.269
 1027W        W69421  17.968  40.630  10.351
 1028W        W69422  24.210  14.202   2.730
 1029W        W69423  30.493  24.623  13.457
 1030W        W69424  14.279   5.949  12.949
 1031W        W69425  44.599   5.952  14.130
 1032W        W69426   9.119  37.396   0.494
 1033W        W69427  14.717   4.652  12.903
 1034W        W69428  34.623   9.741  13.476
 1035W        W69429  25.034  34.360  13.302
 1036W        W69430   1.777   9.148   1.930
 1037W        W69431  13.679  27.698   2.435
 1038W        W69432  15.173  36.055  14.585
 1039W        W69433   6.899  35.843  12.679
 1040W        W69434   6.666  12.165   1.423
 1041W        W69435   3.215  10.957  14.828
 1042W        W69436   6.246  11.823   0.757
 1043W        W69437  17.195  34.673   3.680
 1044W        W69438   7.339  30.008   0.888
 1045W        W69439  38.552  41.515   4.732
 1046W        W69440  41.743   7.654  11.027
 1047W        W69441   3.430  29.902   0.346
 1048W        W69442   0.761  24.574   1.714
 1049W        W69443  25.203  30.917  10.741
 1050W        W69444  41.463  31.130  11.198
 1051W        W69445  12.386  39.032  11.115
 1052W        W69446  36.313  15.376  14.761
 1053W        W69447  19.659  32.567  12.612
 1054W        W69448  12.659  23.775  10.629
 1055W        W69449   1.257   8.345   1.373
 1056W        W69450  10.591  32.831   2.830
 1057W        W69451   9.703   9.315   0.065
 1058W        W69452  20.331   4.787  10.506
 1059W        W69453  28.544   4.305   0.682
 1060W        W69454  17.102   7.773   2.660
 1061W        W69455  41.821  20.296  12.071
 1062W        W69456  22.178  23.059  11.033
 1063W        W69457  18.542  35.234   4.235
 1064W        W69458  18.261  42.008  14.062
 1065W        W69459   6.670  10.608  13.506
 1066W        W69460  20.498  31.474   0.383
 1067W        W69461  23.468  34.500   0.942
 1068W        W69462  13.677  20.753  13.939
 1069W        W69463  36.029   4.782  13.068
 1070W        W69464  13.116   7.323  12.387
 1071W        W69465  34.937  34.585   3.340
 1072W        W69466  31.716  13.613   3.608
 1073W        W69467  30.088  16.404  10.757
 1074W        W69468  13.435  41.525  14.361
 1075W        W69469   2.447   5.520   1.686
 1076W        W69470  23.662  19.172   2.167
 1077W        W69471  43.999  20.041   2.700
 1078W        W69472  18.931  19.600   0.496
 1079W        W69473  42.042  43.342   1.341
 1080W        W69474  11.462  12.384   2.690
 1081W        W69475  40.595  13.667   0.386
 1082W        W69476   6.334   1.820  13.312
 1083W        W69477  42.917  39.583  11.967
 1084W        W69478  20.990  34.034  12.008
 1085W        W69479   6.485  11.166   1.701
 1086W        W69480  17.781  33.541  14.447
 1087W        W69481   2.392  10.202  14.892
 1088W        W69482   5.157  17.693  11.031
 1089W        W69483  21.658  44.044   2.931
 1090W        W69484  21.457  20.748   0.742
 1091W        W69485  10.629   6.234   1.788
 1092W        W69486  26.992  36.635   2.358
 1093W        W69487  25.167  32.423  10.897
 1094W        W69488  42.857   6.805  11.423
 1095W        W69489  43.926   8.843  14.532
 1096W        W69490  14.369   8.675   2.820
 1097W        W69491  20.650   1.903  11.063
 1098W        W69492   7.450  28.547   2.954
 1099W        W69493  10.381  41.262   4.183
 1100W        W69494  30.446  28.078  14.228
 1101W        W69495   7.090  38.728   3.697
 1102W        W69496   2.027  31.957   3.543
 1103W        W69497  20.687  11.104  13.968
 1104W        W69498  22.649  22.717   1.869
 1105W        W69499  28.486  18.736   2.280
 1106W        W69500  36.425  34.078  10.657
 1107W        W69501  16.342  32.670  14.419
 1108W        W69502  42.299  32.349   3.644
 1109W        W69503   4.379  29.385   0.348
 1110W        W69504  30.650  38.094  12.998
 1111W        W69505  16.899  12.440   0.228
 1112W        W69506  33.623  12.007   0.246
 1113W        W69507  14.237  17.352  14.372
 1114W        W69508  20.634  28.440   3.275
 1115W        W69509  16.461   3.939  11.147
 1116W        W69510  37.998   0.746   2.927
 1117W        W69511  24.662  31.415  11.596
 1118W        W69512   0.956  30.900   3.207
 1119W        W69513  19.167  43.520   2.784
 1120W        W69514   8.276  32.641  11.028
 1121W        W69515   9.859  38.978   4.943
 1122W        W69516   4.293  11.869  13.808
 1123W        W69517   9.331  36.458   2.338
 1124W        W69518  25.197  27.693  12.549
 1125W        W69519   9.829  30.130  11.701
 1126W        W69520  37.298  22.583  10.846
 1127W        W69521  39.326  37.457  14.785
 1128W        W69522  16.249  32.673  10.699
 1129W        W69523  14.240  42.241   2.223
 1130W        W69524  21.557  39.956  14.736
 1131W        W69525  34.022  40.455  11.158
 1132W        W69526   9.063  27.522  12.375
 1133W        W69527  40.049  39.473  12.781
 1134W        W69528  22.682   5.365   0.055
 1135W        W69529   6.410  22.087  11.083
 1136W        W69530  39.027  44.691   3.744
 1137W        W69531  23.025  32.958  11.028
 1138W        W69532  18.992  43.952  10.384
 1139W        W69533  28.442  14.802  11.791
 1140W        W69534  30.071  25.578   0.898
 1141W        W69535  25.684   9.312   0.230
 1142W        W69536  29.180  14.234  13.579
 1143W        W69537   1.442  39.898   3.963
 1144W        W69538   3.746  16.712   4.145
 1145W        W69539  42.476  12.470   0.950
 1146W        W69540  38.934  21.030  13.582
 1147W        W69541   6.880  41.532  11.925
 1148W        W69542   4.200  32.055   4.519
 1149W        W69543  19.633   9.332   0.252
 1150W        W69544  13.985  28.470   4.137
 1151W        W69545  42.904   1.932  14.948
 1152W        W69546   4.836  33.635  12.475
 1153W        W69547  40.225  37.917   4.696
 1154W        W69548   8.661  19.398  12.315
 1155W        W69549  44.782   1.458   4.627
 1156W        W69550  31.828   5.795   1.026
 1157W        W69551  16.974  31.134  12.457
 1158W        W69552  41.504   0.959  13.354
 1159W        W69553  40.511  35.411  11.849
 1160W        W69554  17.238   4.895  13.386
 1161W        W69555  29.428  25.014  12.888
 1162W        W69556  20.763  41.480  12.557
 1163W        W69557  44.658  14.595  13.787
 1164W        W69558  13.567  18.602   0.539
 1165W        W69559  22.532  28.054  10.393
 1166W        W69560  24.528  28.024   1.977
 1167W        W69561  24.024  22.325   0.256
 1168W        W69562  19.508  13.024  14.313
 1169W        W69563  33.128  39.899   1.387
 1170W        W69564  39.849  41.804   0.821
 1171W        W69565  44.821  36.395   4.678
 1172W        W69566  43.766  17.942   5.003
 1173W        W69567  36.744  16.570   3.700
 1174W        W69568   2.056   5.922  13.985
 1175W        W69569   2.656  11.851  12.475
 1176W        W69570  44.776  25.210   1.682
 1177W        W69571  32.009   4.958   1.133
 1178W        W69572  24.020  32.050   4.462
 1179W        W69573  29.983  19.510   4.050
 1180W        W69574  16.826  39.248   1.381
 1181W        W69575  17.591  11.190   4.240
 1182W        W69576  22.520  19.499  11.479
 1183W        W69577  25.492  10.787  13.304
 1184W        W69578  24.108   6.204  13.283
 1185W        W69579  40.148   5.314  12.849
 1186W        W69580  38.405  39.231   2.198
 1187W        W69581  28.484  17.375  11.069
 1188W        W69582   8.622  36.875   4.499
 1189W        W69583  11.801   3.241  11.956
 1190W        W69584   2.817  19.542   0.476
 1191W        W69585  20.816  39.361   4.096
 1192W        W69586  16.304  32.421  14.865
 1193W        W69587  17.327  40.624   4.081
 1194W        W69588  29.497  12.265  10.865
 1195W        W69589  44.201  32.377   2.374
 1196W        W69590  41.720  43.549   2.836
 1197W        W69591  32.903   0.521   1.421
 1198W        W69592   6.460  12.649   4.507
 1199W        W69593  21.059  15.432  12.485
 1200W        W69594   2.402  20.028   0.987
 1201W        W69595   2.699  29.994  12.482
 1202W        W69596  11.376  14.257  14.504
 1203W        W69597  10.474  43.513   5.241
 1204W        W69598   1.627  11.712   0.278
 1205W        W69599  17.261  15.526   4.713
 1206W        W69600  12.375  19.125   2.438
 1207W        W69601  23.374  35.574  11.071
 1208W        W69602  14.401  27.235  11.006
 1209W        W69603  20.156  41.491   4.156
 1210W        W69604  23.452  19.720  11.685
 1211W        W69605   3.530   3.841  11.612
 1212W        W69606  41.069  25.410   1.364
 1213W        W69607  13.554  16.724   0.194
 1214W        W69608   4.562  20.094  14.257
 1215W        W69609   4.657  29.249   5.058
 1216W        W69610  19.741  40.341  12.383
 1217W        W69611  41.031  12.737  14.542
 1218W        W69612  32.365  16.032  12.514
 1219W        W69613  34.003  35.680   2.168
 1220W        W69614   9.017  12.579   0.481
 1221W        W69615  25.360   8.624   4.132
 1222W        W69616   6.254  42.540  14.734
 1223W        W69617  37.828  16.772  12.845
 1224W        W69618  30.412  13.535   4.034
 1225W        W69619  33.493  23.763   0.452
 1226W        W69620  20.065  15.299  11.071
 1227W        W69621  37.906  40.292   4.174
 1228W        W69622  26.055  32.895  11.744
 1229W        W69623  37.963   6.164  12.923
 1230W        W69624  40.089   5.785  11.881
 1231W        W69625  21.002   1.911  10.254
 1232W        W69626   4.114  14.035  11.648
 1233W        W69627  15.018  39.784   1.421
 1234W        W69628   8.124   7.824  12.205
 1235W        W69629  21.706  33.538  11.528
 1236W        W69630   8.875  27.225  10.892
 1237W        W69631  12.351  11.650  13.025
 1238W        W69632  31.120  44.309  10.291
 1239W        W69633  22.774  32.393   4.179
 1240W        W69634  42.399  35.110  11.186
 1241W        W69635   8.835  44.615   5.048
 1242W        W69636  30.285  14.496   4.229
 1243W        W69637  22.987  37.375   3.700
 1244W        W69638   9.515  13.561  13.363
 1245W        W69639  39.857   2.462   3.868
 1246W        W69640  38.476   8.314   0.454
 1247W        W69641  33.505  30.784   3.342
 1248W        W69642  44.821  11.244  12.941
 1249W        W69643  35.473  11.620   0.833
 1250W        W69644   5.302   1.216  14.835
 1251W        W69645  18.093  40.516  13.928
 1252W        W69646  32.522  10.325  12.300
 1253W        W69647  44.958  43.044   1.874
 1254W        W69648  44.737  12.207  13.022
 1255W        W69649   5.831  42.974   4.512
 1256W        W69650   8.349  17.769   1.377
 1257W        W69651  39.095  24.071   4.262
 1258W        W69652  41.602   4.313  14.048
 1259W        W69653  18.808   0.765   2.813
 1260W        W69654  32.585  43.231   0.365
 1261W        W69655  29.843  23.281  13.342
 1262W        W69656  21.440   1.813   1.829
 1263W        W69657   5.846  11.564  10.559
 1264W        W69658  30.628  36.452   2.830
 1265W        W69659   7.168  23.055  13.024
 1266W        W69660   6.936  12.830   2.797
 1267W        W69661  34.561  23.104   4.293
 1268W        W69662  16.614  20.613   0.133
 1269W        W69663  26.560  42.858  11.462
 1270W        W69664  13.115   7.479   2.169
 1271W        W69665   3.848  20.654  13.457
 1272W        W69666  21.178   2.150  13.843
 1273W        W69667  25.514  21.951  14.476
 1274W        W69668  21.841  26.621   9.646
 1275W        W69669  16.206   8.633   4.482
 1276W        W69670  32.074   7.035   4.494
 1277W        W69671   0.240  32.665   4.319
 1278W        W69672  42.853  31.737   4.908
 1279W        W69673   3.212  26.398   2.744
 1280W        W69674  39.524  41.807  14.543
 1281W        W69675  27.601  25.560   4.099
 1282W        W69676  44.436  15.653   2.258
 1283W        W69677   5.216  19.995  11.496
 1284W        W69678  19.831  13.944  10.639
 1285W        W69679   9.821  35.509  12.477
 1286W        W69680   5.184  38.839  13.425
 1287W        W69681  42.053   2.793  13.424
 1288W        W69682   4.551  39.947   0.776
 1289W        W69683   3.384   9.768  12.225
 1290W        W69684  11.284  34.967   0.377
 1291W        W69685  37.163  41.812  12.168
 1292W        W69686  13.654   6.268   3.770
 1293W        W69687  13.429   1.911   4.488
 1294W        W69688  27.395  27.211  14.295
 1295W        W69689  25.571  37.532  14.619
 1296W        W69690   8.283  18.993  13.513
 1297W        W69691  26.578  43.436   0.323
 1298W        W69692  42.797  10.925   1.843
 1299W        W69693  20.685  23.427   1.689
 1300W        W69694  40.355  20.514  14.459
 1301W        W69695  20.237   6.736  11.639
 1302W        W69696   0.882  17.529  14.531
 1303W        W69697   3.640  19.223  10.753
 1304W        W69698  42.675  28.537  13.323
 1305W        W69699  43.978  20.716   0.964
 1306W        W69700  12.250  32.065   0.288
 1307W        W69701  13.229  38.406  11.479
 1308W        W69702   0.600  40.291  13.631
 1309W        W69703  40.491  27.447  10.663
 1310W        W69704  27.403  24.665   2.005
 1311W        W69705  10.649  30.414   4.574
 1312W        W69706  10.663  39.447   3.628
 1313W        W69707  34.530   8.886   0.666
 1314W        W69708  22.509  29.583   3.867
 1315W        W69709  22.338  12.693  14.049
 1316W        W69710  43.190  25.339   5.016
 1317W        W69711  25.643  14.673  11.491
 1318W        W69712  26.963  32.866   0.273
 1319W        W69713  17.740  10.685   4.127
 1320W        W69714   3.876  28.520   3.285
 1321W        W69715  16.261   3.477  12.010
 1322W        W69716  15.736  39.111   3.775
 1323W        W69717   1.973  10.659   0.844
 1324W        W69718  39.047   2.805  14.787
 1325W        W69719  29.885  16.613   3.805
 1326W        W69720  25.788   9.873   1.734
 1327W        W69721  14.269  38.272  14.344
 1328W        W69722  15.522   1.396  10.479
 1329W        W69723  40.400   9.187  11.409
 1330W        W69724  37.221   1.172  11.975
 1331W        W69725  26.077  20.023  10.871
 1332W        W69726   5.148  26.025   4.483
 1333W        W69727  23.748  24.191   1.808
 1334W        W69728   9.386   4.456   1.935
 1335W        W69729  35.817  17.566  12.928
 1336W        W69730  31.305   2.834  11.971
 1337W        W69731  32.864  27.476  13.703
 1338W        W69732  40.998   2.643  11.755
 1339W        W69733   5.423   8.410  13.930
 1340W        W69734  26.212  11.624  12.523
 1341W        W69735  18.829  40.323   4.146
 1342W        W69736  44.651  31.414  14.858
 1343W        W69737  11.843   7.035   0.349
 1344W        W69738  31.553  41.716  13.003
 1345W        W69739  38.155  34.521   1.403
 1346W        W69740  43.758  24.211  13.418
 1347W        W69741  23.243  18.637  10.697
 1348W        W69742  39.747  22.665   1.939
 1349W        W69743  14.070  13.112   4.027
 1350W        W69744  17.559  23.514   3.161
 1351W        W69745  36.422  34.048   0.350
 1352W        W69746  24.823   2.447  11.636
 1353W        W69747  15.173  35.824  10.584
 1354W        W69748  39.070  40.317   3.584
 1355W        W69749  26.345  40.850   1.862
 1356W        W69750  11.827  23.624   0.688
 1357W        W69751  16.683  39.675  11.421
 1358W        W69752   9.809  10.196   2.894
 1359W        W69753  14.844  32.148   1.604
 1360W        W69754  21.424   9.270   1.276
 1361W        W69755  43.474  21.215  10.738
 1362W        W69756  33.578  13.364  13.129
 1363W        W69757  19.134   0.703  13.060
 1364W        W69758   2.255  32.561  12.188
 1365W        W69759  26.008   0.693   0.775
 1366W        W69760  41.033   5.923   3.931
 1367W        W69761  23.488  18.050  10.979
 1368W        W69762   1.335   8.759  13.804
 1369W        W69763  34.306   6.914   3.325
 1370W        W69764  19.698   8.671  11.202
 1371W        W69765   3.588   3.346  14.573
 1372W        W69766  19.207  31.210   2.849
 1373W        W69767  10.855  32.906  14.850
 1374W        W69768  18.103  11.020   4.266
 1375W        W69769  43.409  13.237  13.611
 1376W        W69770   6.756  33.483  14.348
 1377W        W69771   2.840  41.086   3.625
 1378W        W69772  13.529  22.472   2.758
 1379W        W69773  23.134   3.756  14.649
 1380W        W69774  37.847  38.899  12.034
 1381W        W69775   9.370  41.707  14.811
 1382W        W69776  24.919  33.069  14.959
 1383W        W69777  33.974  28.094   3.639
 1384W        W69778  34.348  21.614   1.732
 1385W        W69779  16.728  10.823   0.216
 1386W        W69780  13.684   3.790  11.299
 1387W        W69781  19.836  32.478  13.111
 1388W        W69782  33.158  18.674  11.094
 1389W        W69783  20.764  23.125   0.336
 1390W        W69784  42.239  35.921  10.653
 1391W        W69785   3.270  17.008   3.767
 1392W        W69786  14.333  21.778  14.681
 1393W        W69787   1.352   4.552   3.700
 1394W        W69788  27.155  30.493  11.830
 1395W        W69789  17.603   1.255  12.430
 1396W        W69790  39.454  35.522   3.746
 1397W        W69791   9.883   9.418  11.408
 1398W        W69792   9.209   8.351  10.532
 1399W        W69793  35.168  33.898   1.866
 1400W        W69794  34.430  39.797   3.672
 1401W        W69795  21.690  15.856  13.889
 1402W        W69796  22.647   8.954  14.774
 1403W        W69797  31.597  19.061   2.918
 1404W        W69798  24.684  40.095  12.520
 1405W        W69799  25.476  35.918  13.343
 1406W        W69800  13.105  37.896  13.717
 1407W        W69801  28.823  43.174   0.763
 1408W        W69802  14.058  26.432  13.771
 1409W        W69803  35.833  42.242   3.804
 1410W        W69804   6.399  23.865   1.814
 1411W        W69805  38.515  24.393   3.688
 1412W        W69806   3.397  36.615   3.145
 1413W        W69807   5.447  41.828  11.169
 1414W        W69808   1.453  38.356   4.886
 1415W        W69809  26.597   7.382   1.709
 1416W        W69810  16.910  28.088   1.453
 1417W        W69811  19.649  36.373   1.543
 1418W        W69812  43.019  14.604   5.048
 1419W        W69813  31.462  43.816   1.912
 1420W        W69814   4.297   3.839   2.850
 1421W        W69815  10.345  25.801   4.689
 1422W        W69816  12.185  44.371  13.447
 1423W        W69817  34.665  40.228  13.046
 1424W        W69818  10.911   4.749  12.986
 1425W        W69819  23.772  11.261  12.063
 1426W        W69820  34.182  34.906  14.503
 1427W        W69821  18.621  44.803  14.050
 1428W        W69822  41.554  41.265  10.485
 1429W        W69823  23.061  20.229  12.746
 1430W        W69824  31.516   4.106  14.759
 1431W        W69825  29.474   8.882   0.114
 1432W        W69826  30.343  41.312   1.595
 1433W        W69827  27.914  39.643   3.797
 1434W        W69828  17.314  14.091   3.762
 1435W        W69829   3.013  34.583   0.385
 1436W        W69830  38.430   2.316  14.094
 1437W        W69831   1.662  44.408  12.483
 1438W        W69832  17.364  19.638   0.731
 1439W        W69833  19.525  23.660   1.259
 1440W        W69834   5.460  36.097   3.990
 1441W        W69835  14.587   9.918   0.936
 1442W        W69836  39.066  43.796   2.812
 1443W        W69837   1.505  11.647  11.158
 1444W        W69838  44.057  37.868  12.010
 1445W        W69839   3.893  25.589   4.497
 1446W        W69840  39.473  26.609  13.114
 1447W        W69841  28.623  30.874   4.722
 1448W        W69842  42.499  25.180  13.889
 1449W        W69843  24.475  37.585   4.205
 1450W        W69844  27.497  40.493   3.608
 1451W        W69845  13.463  32.042   1.119
 1452W        W69846  10.524  12.360   1.471
 1453W        W69847  38.133  20.295  14.777
 1454W        W69848  38.754  16.539  13.824
 1455W        W69849  35.036  31.620   0.488
 1456W        W69850  17.234  10.829   4.119
 1457W        W69851  16.855  15.156  13.493
 1458W        W69852  26.171  26.215  12.341
 1459W        W69853  14.337  10.380   1.357
 1460W        W69854  15.914  24.460   3.311
 1461W        W69855  40.502  23.939   3.133
 1462W        W69856  22.771   9.779   1.359
 1463W        W69857   5.916  10.396   0.738
 1464W        W69858  12.112  14.197   4.439
 1465W        W69859   8.844   4.533  12.576
 1466W        W69860  29.594  32.303   1.252
 1467W        W69861  42.445  34.508  12.395
 1468W        W69862  36.880   1.828   0.875
 1469W        W69863  39.663   6.812   4.072
 1470W        W69864  32.086  40.750   0.503
 1471W        W69865  11.094  43.318  12.679
 1472W        W69866  10.057  23.973   3.226
 1473W        W69867  20.389  34.920  14.777
 1474W        W69868   3.022  20.690   0.826
 1475W        W69869   2.207  37.564  12.592
 1476W        W69870   4.048  27.400   1.482
 1477W        W69871  31.484  18.247   4.658
 1478W        W69872  27.690  13.890  12.478
 1479W        W69873  27.663  15.935  14.489
 1480W        W69874  20.508   4.771   3.792
 1481W        W69875  24.596  31.750  14.578
 1482W        W69876  28.590  40.721   0.643
 1483W        W69877  20.327  25.568   4.388
 1484W        W69878  12.612  34.610  14.308
 1485W        W69879  21.293  21.067  10.696
 1486W        W69880  12.086  42.356  12.852
 1487W        W69881  29.423  11.724   4.568
 1488W        W69882  31.221   9.898  13.390
 1489W        W69883  23.302  19.561   0.855
 1490W        W69884   8.994   2.434   1.923
 1491W        W69885  18.364  35.916   0.181
 1492W        W69886  39.187  12.724  11.682
 1493W        W69887  44.697  44.886   3.837
 1494W        W69888  20.093  37.620   3.209
 1495W        W69889   6.146   7.429  14.481
 1496W        W69890  17.206  43.887   1.686
 1497W        W69891  17.573  36.466  11.647
 1498W        W69892   6.463  12.566   2.825
 1499W        W69893   2.124  14.381   4.282
 1500W        W69894  34.990  16.914   0.724
 1501W        W69895  43.066   2.773  14.377
 1502W        W69896  19.120  43.396  11.680
 1503W        W69897  16.821  25.518  14.500
 1504W        W69898  31.996   0.345  11.594
 1505W        W69899  15.886  13.387  13.078
 1506W        W69900  16.127   8.339   1.320
 1507W        W69901  44.980   6.949   4.097
 1508W        W69902  32.216  17.464  11.040
 1509W        W69903  32.920  42.106   2.689
 1510W        W69904  33.593  35.643  12.451
 1511W        W69905  11.121   7.515  10.759
 1512W        W69906  36.118  16.374   2.394
 1513W        W69907  18.545  34.916  11.189
 1514W        W69908   7.948   8.656  12.868
 1515W        W69909  43.479  44.880   0.162
 1516W        W69910  15.269  40.519   0.751
 1517W        W69911  41.852  35.619   2.248
 1518W        W69912   3.263  15.172   0.428
 1519W        W69913  18.216  18.457   4.002
 1520W        W69914   8.466  25.057   0.340
 1521W        W69915  23.709  26.920  12.928
 1522W        W69916  33.420  33.637   4.157
 1523W        W69917  36.516  35.036  14.528
 1524W        W69918   1.308  22.681   2.167
 1525W        W69919  42.470  36.976   3.290
 1526W        W69920  16.503  40.349  14.963
 1527W        W69921   1.787  28.815  10.613
 1528W        W69922  23.919  33.095   3.810
 1529W        W69923  17.538   9.716  13.054
 1530W        W69924  41.742  31.599  14.910
 1531W        W69925  35.905   9.356   2.423
 1532W        W69926  44.755  14.162   3.534
 1533W        W69927   2.460   1.133   0.645
 1534W        W69928  18.572   6.287   1.396
 1535W        W69929  26.548  40.307  11.161
 1536W        W69930  39.967  42.502  14.514
 1537W        W69931  37.312  26.847   3.196
 1538W        W69932  40.432   6.520  12.223
 1539W        W69933  35.434  33.408  13.831
 1540W        W69934  31.884  13.059  14.896
 1541W        W69935  36.105  38.445   0.609
 1542W        W69936  15.467  21.355   2.673
 1543W        W69937  10.420  29.026   0.761
 1544W        W69938  21.571   5.684  13.781
 1545W        W69939  24.013  18.337   2.326
 1546W        W69940  13.196  30.115   3.180
 1547W        W69941  27.007   5.513   0.813
 1548W        W69942   2.771  20.017  14.262
 1549W        W69943   5.488  24.093   1.776
 1550W        W69944  29.618  20.744   2.180
 1551W        W69945  10.702  21.032  11.357
 1552W        W69946  29.113   2.530  14.891
 1553W        W69947  15.990  44.710   3.664
 1554W        W69948  18.195  38.389   2.224
 1555W        W69949   0.643  36.797  13.728
 1556W        W69950  30.981  43.014   1.905
 1557W        W69951   3.225   5.587   5.156
 1558W        W69952  39.302  36.527   4.123
 1559W        W69953  14.870  15.738   3.141
 1560W        W69954  34.484  28.186   3.818
 1561W        W69955  23.124  41.304  11.232
 1562W        W69956   8.895  17.706   0.117
 1563W        W69957  41.625  38.495   4.707
 1564W        W69958  43.906  10.545   3.683
 1565W        W69959  26.459  27.571   2.296
 1566W        W69960   7.805  13.114   2.751
 1567W        W69961  23.458   9.905   4.978
 1568W        W69962  31.979  11.893   4.556
 1569W        W69963  44.532  28.288   4.731
 1570W        W69964  23.015  28.045  11.648
 1571W        W69965  16.542  20.513  10.026
 1572W        W69966  39.850   2.687  10.567
 1573W        W69967  36.082  28.580   2.396
 1574W        W69968   5.747  30.690   2.795
 1575W        W69969  39.048   3.331  12.641
 1576W        W69970  25.106  12.540  13.323
 1577W        W69971  34.815  17.665  11.403
 1578W        W69972  43.818  36.571   3.689
 1579W        W69973  21.165   7.031   3.625
 1580W        W69974  44.713   2.834  13.529
 1581W        W69975   8.171  16.087   2.186
 1582W        W69976   2.644   1.111   1.144
 1583W        W69977  37.774  20.006  12.973
 1584W        W69978   7.335  15.074   3.760
 1585W        W69979  38.048   2.034   1.468
 1586W        W69980  25.753  16.791  11.984
 1587W        W69981  33.829  18.799   4.168
 1588W        W69982  16.084  31.990   2.757
 1589W        W69983  30.464  33.136  12.504
 1590W        W69984  17.060  16.135  11.065
 1591W        W69985  14.967  11.570  14.455
 1592W        W69986  33.386  31.851  12.437
 1593W        W69987   1.242  19.205  12.547
 1594W        W69988  32.762  25.206   2.633
 1595W        W69989  19.813   6.856   2.226
 1596W        W69990   7.210  13.607   1.153
 1597W        W69991  35.036  12.392  14.071
 1598W        W69992  21.714  44.360  14.703
 1599W        W69993  28.604  24.118   2.147
 1600W        W69994  13.677  13.802   0.267
 1601W        W69995   0.950  15.140  11.101
 1602W        W69996  38.460   0.943   0.845
 1603W        W69997  41.049   0.443   0.042
 1604W        W69998  26.018  40.855   3.706
 1605W        W69999  26.181  41.593   0.833
 1606W        W70000  19.247  30.457  12.857
 1607W        W70001   3.671  26.095  12.454
 1608W        W70002   4.886  18.527   2.810
 1609W        W70003  24.463  18.685   3.255
 1610W        W70004  31.907  38.224  13.373
 1611W        W70005  25.284  13.966   4.261
 1612W        W70006   1.276  18.233  13.427
 1613W        W70007  40.707  30.040  14.193
 1614W        W70008   1.221  42.775   1.253
 1615W        W70009  33.895  44.621  12.475
 1616W        W70010  10.534  40.028  12.602
 1617W        W70011  25.172  39.241   3.094
 1618W        W70012  16.779  19.359   3.614
 1619W        W70013  13.660  25.947  11.115
 1620W        W70014  29.042  21.745   1.267
 1621W        W70015  42.543  17.665  12.614
 1622W        W70016   5.552   6.647   0.612
 1623W        W70017   0.290   2.170   1.214
 1624W        W70018  24.281  26.468   4.199
 1625W        W70019  10.765  25.802   5.000
 1626W        W70020  30.916  11.186   2.751
 1627W        W70021  12.698  21.239  10.680
 1628W        W70022   6.062  16.235   0.194
 1629W        W70023  40.853  25.451   2.319
 1630W        W70024  43.960  13.569  13.190
 1631W        W70025   6.408  34.110   3.738
 1632W        W70026   7.972  27.636  14.536
 1633W        W70027  38.027  44.743   4.179
 1634W        W70028  17.126  11.810   3.206
 1635W        W70029  41.767  25.431   0.926
 1636W        W70030  39.257  35.059  11.130
 1637W        W70031  28.045  30.444  13.652
 1638W        W70032   9.290  35.835  11.126
 1639W        W70033   3.378   9.078   1.157
 1640W        W70034  42.358   4.375   3.511
 1641W        W70035  33.634  17.971  14.833
 1642W        W70036  27.592  37.286   1.772
 1643W        W70037  23.158  17.905   4.648
 1644W        W70038  12.248   6.188  12.652
 1645W        W70039  12.940  42.328   4.880
 1646W        W70040  19.929   7.923   1.200
 1647W        W70041  13.607  25.987   2.884
 1648W        W70042  35.787   8.890   4.317
 1649W        W70043  10.129  14.344  13.054
 1650W        W70044  16.745   4.741  12.476
 1651W        W70045  16.497  12.169   1.678
 1652W        W70046   7.083  19.808   4.183
 1653W        W70047   0.781  30.804  10.205
 1654W        W70048   7.683  29.429   1.755
 1655W        W70049   8.682  38.619   3.276
 1656W        W70050  25.086  13.086   2.853
 1657W        W70051  24.710  31.630   1.728
 1658W        W70052  26.693  18.599   1.811
 1659W        W70053  26.449  21.608   4.590
 1660W        W70054  29.712  33.510  14.871
 1661W        W70055  33.658  33.186   4.125
 1662W        W70056  18.965   8.170   0.044
 1663W        W70057  28.465  18.628   1.250
 1664W        W70058  34.978  32.418  10.805
 1665W        W70059  36.507  43.894  14.746
 1666W        W70060  18.269  38.215  13.318
 1667W        W70061  24.452  44.344  10.612
 1668W        W70062  41.946   4.727   4.137
 1669W        W70063  25.996  37.350  13.795
 1670W        W70064   8.926  14.854  11.592
 1671W        W70065  12.113   8.134   2.214
 1672W        W70066  31.649  14.354   3.145
 1673W        W70067   9.739   5.273  10.659
 1674W        W70068  15.205  18.221   2.156
 1675W        W70069  32.365   4.287  12.300
 1676W        W70070  39.538  39.802   1.258
 1677W        W70071   2.261  43.658  10.774
 1678W        W70072   2.160  25.902  12.865
 1679W        W70073  38.345  37.022   1.466
 1680W        W70074   9.673  30.783  14.992
 1681W        W70075   7.290  40.512   1.813
 1682W        W70076  18.718  41.737  12.848
 1683W        W70077  40.590  42.342  13.311
 1684W        W70078  33.661  37.992   1.241
 1685W        W70079   2.356  40.318   2.391
 1686W        W70080  35.066  14.895   1.445
 1687W        W70081  30.034  43.685   3.009
 1688W        W70082  43.520   2.795  10.811
 1689W        W70083  37.962  11.842   2.742
 1690W        W70084  37.356  16.320   2.684
 1691W        W70085  34.101   0.994  14.885
 1692W        W70086  11.791  25.671   4.891
 1693W        W70087  32.495   2.439  13.036
 1694W        W70088  17.513  31.126  11.750
 1695W        W70089  42.939  24.542   1.683
 1696W        W70090  13.400   0.757   4.905
 1697W        W70091  35.562  32.793   2.408
 1698W        W70092  41.744   3.765   2.319
 1699W        W70093  30.258  21.644   3.112
 1700W        W70094  13.391  37.498  12.665
 1701W        W70095  41.629   5.300   4.302
 1702W        W70096  19.477  28.877   9.866
 1703W        W70097  19.006  39.827   2.417
 1704W        W70098   9.817  17.846   1.494
 1705W        W70099  43.967  17.174  10.656
 1706W        W70100  12.849  13.330   3.110
 1707W        W70101  25.868  36.537  12.153
 1708W        W70102  33.484   5.390   0.336
 1709W        W70103  12.995   9.960   5.110
 1710W        W70104  33.782   7.687  11.563
 1711W        W70105  44.997  26.030   4.144
 1712W        W70106  40.452  19.832  10.697
 1713W        W70107  33.905   5.215  12.136
 1714W        W70108  43.301   7.250   3.830
 1715W        W70109  18.204  39.041   0.821
 1716W        W70110  14.941  18.054   1.142
 1717W        W70111  34.083  15.570  11.036
 1718W        W70112  35.738  28.186   0.267
 1719W        W70113   3.548   3.267   0.417
 1720W        W70114  24.760  18.771   4.161
 1721W        W70115  40.608  23.526   1.408
 1722W        W70116  33.523  18.747   2.201
 1723W        W70117  13.795  43.571  14.984
 1724W        W70118   4.856   8.428  12.075
 1725W        W70119  27.938  28.582  12.296
 1726W        W70120  27.379  19.060  13.879
 1727W        W70121  15.184   6.001  12.914
 1728W        W70122  21.967  37.387   0.747
 1729W        W70123  28.417   0.059   4.530
 1730W        W70124  21.519  15.338  14.894
 1731W        W70125  15.349   8.166   4.077
 1732W        W70126  26.715  21.052   1.717
 1733W        W70127  23.772  33.976  11.951
 1734W        W70128  42.356  36.833   3.779
 1735W        W70129  15.117   5.122  13.811
 1736W        W70130  44.335  17.541  14.319
 1737W        W70131  42.477  27.068   3.301
 1738W        W70132  41.606  19.203  13.001
 1739W        W70133  20.481   6.693   3.291
 1740W        W70134  33.913  17.087   2.380
 1741W        W70135  41.061  27.477   2.468
 1742W        W70136   6.185  32.602   0.019
 1743W        W70137   2.572  14.815   5.522
 1744W        W70138  26.053   3.901   1.943
 1745W        W70139   8.351  44.251  11.598
 1746W        W70140   1.920  26.282  14.403
 1747W        W70141  16.204  15.200  11.714
 1748W        W70142   1.724  27.505   1.896
 1749W        W70143  16.518   5.821  14.903
 1750W        W70144  26.662  16.081   4.412
 1751W        W70145  41.022  44.442  14.524
 1752W        W70146  31.218  31.708   3.552
 1753W        W70147  33.558  13.778  14.069
 1754W        W70148  25.936   5.707  11.084
 1755W        W70149  39.373  37.716  12.770
 1756W        W70150  25.255  40.126   1.806
 1757W        W70151  15.385  40.011   2.818
 1758W        W70152   0.077  42.064   0.427
 1759W        W70153   7.343  24.693   3.512
 1760W        W70154  34.161  42.518  11.129
 1761W        W70155  23.639  29.075  12.085
 1762W        W70156  21.835  23.397   3.637
 1763W        W70157   4.496  32.107   1.176
 1764W        W70158  33.128   8.616   2.360
 1765W        W70159  24.709  28.934   0.730
 1766W        W70160  39.504  31.312  13.960
 1767W        W70161  25.929  19.227  11.950
 1768W        W70162  16.038  17.342  14.464
 1769W        W70163  18.928   4.824   2.177
 1770W        W70164  24.075  30.243  12.888
 1771W        W70165  19.977   8.667   3.328
 1772W        W70166  30.158   8.136   1.712
 1773W        W70167  11.156  27.599   3.371
 1774W        W70168  35.390  44.779  14.078
 1775W        W70169  38.898  27.122   4.125
 1776W        W70170  42.980  43.434   0.942
 1777W        W70171  29.443  39.335   4.224
 1778W        W70172   4.968  39.865  14.390
 1779W        W70173   8.352  43.499   4.297
 1780W        W70174  43.129   0.832   0.576
 1781W        W70175  20.995  30.264  12.628
 1782W        W70176  18.042   2.237   1.805
 1783W        W70177  22.582   3.628  13.336
 1784W        W70178   4.527   8.205   1.274
 1785W        W70179  36.676  12.077   1.125
 1786W        W70180  19.225  11.178  13.445
 1787W        W70181  40.104   3.013   2.744
 1788W        W70182  13.566  31.862   2.905
 1789W        W70183  20.783  38.185   0.409
 1790W        W70184  40.005   9.855   0.790
 1791W        W70185  34.250  22.131  11.739
 1792W        W70186  29.018  12.386  14.505
 1793W        W70187   4.205  35.141   2.203
 1794W        W70188  36.948  14.867  12.947
 1795W        W70189  11.133  11.141   1.537
 1796W        W70190  37.444  39.311   0.057
 1797W        W70191  17.340  22.659   2.349
 1798W        W70192   1.321  16.792   0.410
 1799W        W70193  29.379   9.633   0.749
 1800W        W70194  24.983   6.550   1.165
 1801W        W70195   9.377   5.623   0.425
 1802W        W70196  10.027  44.927   1.752
 1803W        W70197  14.714   3.374  10.585
 1804W        W70198   9.820  32.544   4.769
 1805W        W70199   2.516  35.468   1.292
 1806W        W70200  37.866   7.613  11.585
 1807W        W70201   9.774   7.908  11.491
 1808W        W70202  36.412  22.104   0.321
 1809W        W70203  35.003  31.912   2.342
 1810W        W70204  19.454  41.870   2.243
 1811W        W70205   5.414  41.022  11.628
 1812W        W70206  37.710  40.277  11.237
 1813W        W70207  30.036  44.476   4.100
 1814W        W70208  23.993   8.673  10.628
 1815W        W70209  41.938  32.082   4.636
 1816W        W70210  24.156  28.560  11.639
 1817W        W70211   9.923  24.698  13.932
 1818W        W70212  42.585  40.412   4.572
 1819W        W70213  40.644  29.037  11.530
 1820W        W70214  24.641  32.057  12.943
 1821W        W70215  13.459   4.201   3.582
 1822W        W70216  44.425  13.432  12.486
 1823W        W70217   6.127  33.617   2.162
 1824W        W70218  28.521  29.952  12.513
 1825W        W70219   2.810  43.093  12.108
 1826W        W70220  44.873  37.569   3.164
 1827W        W70221  36.000  24.952  11.184
 1828W        W70222  15.034  17.009   0.354
 1829W        W70223  16.112   7.753   0.642
 1830W        W70224   4.171   9.374   0.855
 1831W        W70225  29.866  31.410   1.512
 1832W        W70226  10.152   1.354   1.891
 1833W        W70227   8.301  22.787   2.253
 1834W        W70228  15.255  31.492   4.809
 1835W        W70229  32.818  22.762  14.936
 1836W        W70230  16.064  13.747  13.442
 1837W        W70231  10.242  34.410   0.876
 1838W        W70232  30.106   1.966   0.348
 1839W        W70233  12.814  11.665  13.998
 1840W        W70234  25.520  12.798  13.502
 1841W        W70235   7.234   5.946  12.058
 1842W        W70236  17.436  36.934  14.479
 1843W        W70237  11.159  25.437   3.621
 1844W        W70238  43.771  14.726   2.917
 1845W        W70239   9.221  28.054   5.188
 1846W        W70240   3.248   5.986   4.432
 1847W        W70241   3.788  22.266   2.238
 1848W        W70242  41.564  16.543  11.143
 1849W        W70243  28.455  17.867  11.101
 1850W        W70244  29.002  30.471  11.486
 1851W        W70245  41.797  31.699  12.490
 1852W        W70246  39.384  32.168  11.525
 1853W        W70247  36.377   8.299  11.254
 1854W        W70248  21.666  17.229   0.813
 1855W        W70249  25.680  38.902   1.301
 1856W        W70250  21.212  10.955  13.933
 1857W        W70251  43.002  32.605  14.121
 1858W        W70252  36.035  24.995  13.592
 1859W        W70253  14.326  35.622  11.675
 1860W        W70254  17.417  37.991   1.309
 1861W        W70255   2.440  14.319   1.027
 1862W        W70256  37.410   6.395  12.285
 1863W        W70257  26.472  41.514   1.362
 1864W        W70258  11.327   7.246  11.153
 1865W        W70259  27.460   7.660  13.355
 1866W        W70260   1.676  21.043   2.685
 1867W        W70261  31.231  19.027   1.399
 1868W        W70262  21.537  13.829  13.883
 1869W        W70263  25.053  11.363   1.144
 1870W        W70264  22.033  38.578   0.867
 1871W        W70265  24.677  37.001   3.336
 1872W        W70266  32.869  18.967  13.033
 1873W        W70267   0.703  23.973  13.917
 1874W        W70268  34.564  17.669   0.288
 1875W        W70269  38.494  34.902  10.547
 1876W        W70270  33.593  27.653   4.102
 1877W        W70271   7.622  32.447   1.693
 1878W        W70272   9.613  41.811  11.012
 1879W        W70273  42.665  30.619   4.284
 1880W        W70274  26.143  10.706   2.182
 1881W        W70275   5.717  35.552   3.354
 1882W        W70276  25.837   7.444  11.492
 1883W        W70277  10.821  27.179  14.412
 1884W        W70278  34.810  20.720   2.375
 1885W        W70279  30.138   2.781   1.820
 1886W        W70280  25.212  10.325  12.494
 1887W        W70281  24.479  26.493   4.668
 1888W        W70282  28.428  42.579  10.648
 1889W        W70283  43.283  33.650   4.401
 1890W        W70284  42.364  14.130  14.970
 1891W        W70285  28.167  44.092  11.138
 1892W        W70286  33.093  34.490   2.643
 1893W        W70287  13.300  10.641   0.908
 1894W        W70288   2.974   4.220   2.196
 1895W        W70289  31.353  18.255   4.154
 1896W        W70290  15.858  19.117  14.436
 1897W        W70291  25.580  39.991   0.750
 1898W        W70292   8.468  16.902   4.343
 1899W        W70293   9.252  28.495  11.372
 1900W        W70294   6.405  14.849   1.289
 1901W        W70295  32.925  41.003   4.118
 1902W        W70296  21.713  13.100  11.435
 1903W        W70297  39.809   1.339  14.760
 1904W        W70298  27.714  26.016  12.816
 1905W        W70299   3.468  23.544   1.443
 1906W        W70300   8.265  10.765   0.276
 1907W        W70301  28.085   1.080  13.032
 1908W        W70302   4.437  39.473  11.602
 1909W        W70303  26.973  11.327  11.623
 1910W        W70304  25.647  38.887  14.839
 1911W        W70305  31.485  34.209  10.648
 1912W        W70306  26.927  40.209   4.143
 1913W        W70307   7.432  14.742  12.316
 1914W        W70308  27.522  14.501  14.556
 1915W        W70309  26.591   4.738   0.868
 1916W        W70310  38.983  15.323  10.745
 1917W        W70311  19.793  14.562   1.295
 1918W        W70312  39.819  18.961   0.840
 1919W        W70313  42.007  23.212   2.208
 1920W        W70314  16.597  14.858  12.443
 1921W        W70315   5.049  34.442   2.314
 1922W        W70316  25.015   9.831  12.487
 1923W        W70317   5.855  30.507   1.118
 1924W        W70318  12.614   3.919   2.295
 1925W        W70319   6.795  26.032   5.489
 1926W        W70320  42.065   4.946   2.723
 1927W        W70321  11.425  38.755  11.060
 1928W        W70322  22.640  42.345  14.898
 1929W        W70323  38.389  41.217  10.908
 1930W        W70324  14.993  38.098   1.777
 1931W        W70325  10.494  18.684   3.169
 1932W        W70326  41.481  31.864   0.876
 1933W        W70327   4.926  25.020   5.320
 1934W        W70328   0.510  11.524   1.612
 1935W        W70329  26.195  20.907   0.318
 1936W        W70330   3.053  40.849  11.167
 1937W        W70331  37.503   4.715   0.902
 1938W        W70332  34.939  22.047   2.232
 1939W        W70333  17.701   9.063  10.395
 1940W        W70334  35.246  27.447  14.029
 1941W        W70335   8.617  33.503   3.525
 1942W        W70336  15.037  18.178  11.028
 1943W        W70337   6.881  11.685   0.054
 1944W        W70338  42.385  40.888   4.647
 1945W        W70339  37.049  19.947   1.156
 1946W        W70340  31.666  44.937   3.070
 1947W        W70341  42.978  28.032  12.459
 1948W        W70342   1.003  40.320  11.409
 1949W        W70343  35.043  17.702   1.767
 1950W        W70344  18.653  40.319   0.923
 1951W        W70345   1.409  14.657  10.549
 1952W        W70346  12.093  16.850   2.959
 1953W        W70347  40.474  13.704   3.150
 1954W        W70348  22.390  11.753  14.889
 1955W        W70349  14.831  41.815   3.142
 1956W        W70350   7.744   1.449  13.860
 1957W        W70351   7.390  18.599  12.459
 1958W        W70352  26.590   4.340   2.212
 1959W        W70353   4.504   2.428  13.717
 1960W        W70354  41.531   9.872  14.326
 1961W        W70355  31.465  28.158   2.638
 1962W        W70356  10.313  22.306  11.208
 1963W        W70357   7.502  12.539  12.846
 1964W        W70358  23.188  24.573  12.654
 1965W        W70359   3.569  28.291  12.179
 1966W        W70360   7.635  23.608  11.884
 1967W        W70361  25.901   0.498   1.246
 1968W        W70362  43.501   6.751   3.884
 1969W        W70363  16.188  14.700  14.973
 1970W        W70364  38.033  22.947  14.321
 1971W        W70365  22.471  14.396   0.932
 1972W        W70366  22.413  32.127   1.435
 1973W        W70367  20.638  21.471   3.349
 1974W        W70368  32.040  20.898  10.958
 1975W        W70369  23.591  30.848   2.877
 1976W        W70370  39.566  33.791   0.209
 1977W        W70371  10.262   7.319  13.572
 1978W        W70372   3.530  14.331   1.289
 1979W        W70373  36.097   9.779  14.763
 1980W        W70374   1.689  16.775  11.081
 1981W        W70375  14.670   4.051   0.747
 1982W        W70376  13.222  40.232   4.750
 1983W        W70377  37.366  40.397  10.868
 1984W        W70378  14.194  40.857   2.359
 1985W        W70379  30.352   5.759  10.641
 1986W        W70380  34.770  13.261   0.930
 1987W        W70381  30.685   8.467   1.665
 1988W        W70382  36.629  31.742  11.976
 1989W        W70383  32.218  20.169  13.558
 1990W        W70384  42.046  15.866  12.958
 1991W        W70385  13.804   3.589   0.750
 1992W        W70386  11.216  18.735  14.092
 1993W        W70387  30.592  20.639   4.314
 1994W        W70388   2.212  41.646   0.352
 1995W        W70389  15.177  29.872  13.558
 1996W        W70390  15.563  12.869   3.168
 1997W        W70391  42.458  35.504  13.866
 1998W        W70392  30.403  42.065   3.238
 1999W        W70393   6.587  27.513   3.166
 2000W        W70394   6.823   9.714   3.658
 2001W        W70395   8.317  24.123   0.275
 2002W        W70396  43.314  32.605  14.531
 2003W        W70397  43.789   2.472   4.886
 2004W        W70398  44.442  20.004   1.345
 2005W        W70399  42.809   3.630   3.176
 2006W        W70400  13.500  30.928  11.735
 2007W        W70401  43.863  10.790  12.429
 2008W        W70402  18.683   0.948   5.253
 2009W        W70403  39.299  44.428   3.374
 2010W        W70404  40.873  37.205  14.398
 2011W        W70405   8.848  23.266  14.969
 2012W        W70406  21.155  10.783   1.192
 2013W        W70407  24.781   0.005   1.303
 2014W        W70408  25.194  43.008  14.406
 2015W        W70409  27.444  33.480  10.689
 2016W        W70410  19.274  15.466   0.365
 2017W        W70411  29.486  40.950   2.319
 2018W        W70412  44.750   2.405  13.852
 2019W        W70413  33.028  32.633   4.286
 2020W        W70414   5.650   2.228   1.942
 2021W        W70415  25.725  19.255  13.739
 2022W        W70416   8.825   6.489  14.486
 2023W        W70417  37.154   5.387   1.774
 2024W        W70418  29.186  44.263   3.237
 2025W        W70419  42.009  39.901  13.726
 2026W        W70420  17.509  19.078   1.976
 2027W        W70421   1.044  12.158  14.835
 2028W        W70422  13.710  29.980  12.522
 2029W        W70423  42.699   8.960  12.915
 2030W        W70424  33.067  10.331   2.838
 2031W        W70425  14.208  31.577  10.503
 2032W        W70426   6.375  13.854   1.695
 2033W        W70427  44.711  26.680   0.042
 2034W        W70428  35.084  24.034  13.496
 2035W        W70429   8.990  14.725  10.716
 2036W        W70430  39.294  22.247  12.532
 2037W        W70431   8.343  10.657  14.261
 2038W        W70432  21.304  25.904   9.917
 2039W        W70433  29.788   5.846  13.276
 2040W        W70434  43.498  11.310  12.157
 2041W        W70435  44.583  15.160  12.540
 2042W        W70436  38.763  33.818   1.322
 2043W        W70437   8.331  21.797  12.918
 2044W        W70438   6.388   1.277   0.541
 2045W        W70439  31.667  22.614  14.074
 2046W        W70440  36.711  30.118  12.403
 2047W        W70441  26.634  41.902  11.414
 2048W        W70442  40.058   3.964   3.665
 2049W        W70443   0.972  30.335   0.987
 2050W        W70444  27.990  18.134   4.976
 2051W        W70445  44.398  43.358   0.263
 2052W        W70446  24.688  22.628  10.593
 2053W        W70447  37.505  33.594  11.884
 2054W        W70448   6.217   9.115  11.110
 2055W        W70449  24.931  19.607  12.916
 2056W        W70450   3.690  30.682   2.891
 2057W        W70451   6.951  16.146   0.472
 2058W        W70452  37.607  44.950  13.230
 2059W        W70453  33.099  15.180  13.801
 2060W        W70454  10.102  40.753  13.114
 2061W        W70455  28.118  28.529   1.786
 2062W        W70456  35.363  38.450   3.123
 2063W        W70457  14.536   9.139  14.381
 2064W        W70458   1.915  29.394  13.849
 2065W        W70459  24.059  19.744  10.838
 2066W        W70460  12.900  26.414  12.892
 2067W        W70461  11.275   2.752   4.538
 2068W        W70462  37.067  40.904  13.344
 2069W        W70463  27.689  26.655  13.471
 2070W        W70464   2.055  42.540   3.740
 2071W        W70465   7.208  35.435   0.413
 2072W        W70466  26.706   4.395   2.752
 2073W        W70467  26.794  34.391  14.827
 2074W        W70468  37.878  15.643  12.073
 2075W        W70469  42.038   4.182   0.480
 2076W        W70470   7.346  36.897   4.227
 2077W        W70471   8.885   1.464   1.455
 2078W        W70472   6.403   0.962  10.437
 2079W        W70473  17.733  19.874  13.324
 2080W        W70474  31.876  12.188  14.011
 2081W        W70475  35.813  18.959  13.549
 2082W        W70476   8.578  30.992  12.088
 2083W        W70477  43.444  24.214  12.152
 2084W        W70478   9.498   5.545  10.291
 2085W        W70479  33.124  35.837  12.456
 2086W        W70480  42.586  31.488   0.319
 2087W        W70481   0.057  30.550  11.180
 2088W        W70482   7.126  41.661   0.756
 2089W        W70483  36.179   3.986  14.982
 2090W        W70484  42.453  38.672  10.758
 2091W        W70485  41.474  22.266  12.430
 2092W        W70486   0.474  29.064  12.500
 2093W        W70487   0.428   0.470   4.327
 2094W        W70488  11.403  40.735  10.346
 2095W        W70489   0.707   0.647   5.057
 2096W        W70490   5.268  44.268   1.216
 2097W        W70491  38.145   1.228  11.537
 2098W        W70492   8.324  21.348  10.708
 2099W        W70493  20.982  35.442  13.780
 2100W        W70494   0.905  28.992   3.961
 2101W        W70495  35.602  23.970   0.402
 2102W        W70496   8.475  25.721   2.414
 2103W        W70497  18.200  27.182   2.860
 2104W        W70498  36.006  14.822   1.441
 2105W        W70499  37.422  43.497   3.341
 2106W        W70500  44.429  23.759   3.120
 2107W        W70501   7.778  31.980   3.332
 2108W        W70502  33.660  13.725   3.080
 2109W        W70503  44.143   3.429   3.359
 2110W        W70504  22.973  28.452   0.943
 2111W        W70505  14.203  28.215   1.786
 2112W        W70506  11.339   6.838  11.521
 2113W        W70507  19.700   4.647   3.682
 2114W        W70508   7.739  29.514  12.847
 2115W        W70509  14.049  10.189   1.755
 2116W        W70510   9.973  30.154  12.967
 2117W        W70511  10.292  38.567  12.970
 2118W        W70512  12.334  39.344   3.690
 2119W        W70513  26.222  43.537  12.568
 2120W        W70514   0.739  11.604   0.456
 2121W        W70515  14.778  41.069  11.588
 2122W        W70516  12.595  13.725  14.816
 2123W        W70517  16.795  26.094   3.736
 2124W        W70518   7.318  44.776  13.503
 2125W        W70519  37.414  40.735   3.703
 2126W        W70520   5.367  16.197   2.907
 2127W        W70521  21.976   5.976  13.866
 2128W        W70522  28.677  26.335  13.695
 2129W        W70523   4.465  17.585  10.171
 2130W        W70524  10.162  43.724  14.699
 2131W        W70525  44.463   0.552  12.662
 2132W        W70526  19.527  18.027   3.697
 2133W        W70527  35.144  23.101   5.017
 2134W        W70528  37.342  40.260   3.498
 2135W        W70529   3.731  29.584  12.123
 2136W        W70530   4.846  42.268  14.871
 2137W        W70531  16.647   9.661   1.865
 2138W        W70532  25.629  19.546  14.515
 2139W        W70533   5.672  17.939   3.760
 2140W        W70534   5.719  42.970  11.610
 2141W        W70535   9.228   4.166   0.075
 2142W        W70536  28.168   4.421   3.780
 2143W        W70537   6.817   2.474  13.852
 2144W        W70538  40.141  30.625   1.767
 2145W        W70539  39.817  20.847  13.528
 2146W        W70540  36.245  28.420   0.231
 2147W        W70541  36.162  13.228   2.330
 2148W        W70542  22.230  37.270  10.726
 2149W        W70543  11.200  32.362   4.725
 2150W        W70544  31.499  11.202   2.480
 2151W        W70545   3.540  22.431   3.320
 2152W        W70546  32.174  15.589   0.751
 2153W        W70547  29.646  14.524   1.877
 2154W        W70548  29.603   7.427   2.261
 2155W        W70549  41.118  40.895  11.300
 2156W        W70550  27.249  22.629  14.077
 2157W        W70551  44.845  44.329  12.753
 2158W        W70552   2.894   5.797   4.801
 2159W        W70553   7.696  34.836   4.190
 2160W        W70554  20.168  10.373  11.006
 2161W        W70555  40.970  37.342   4.164
 2162W        W70556  22.229  19.095   0.425
 2163W        W70557  18.129   8.216   1.199
 2164W        W70558  28.652  15.559  10.127
 2165W        W70559  25.236  13.298  13.881
 2166W        W70560  43.971  26.975   2.895
 2167W        W70561  27.223   7.282  12.184
 2168W        W70562  19.818  36.998  13.127
 2169W        W70563  40.296  23.649  12.456
 2170W        W70564   2.112   0.391  12.099
 2171W        W70565  44.742  29.024   4.775
 2172W        W70566  33.299  33.853  10.034
 2173W        W70567  37.821   5.977   4.092
 2174W        W70568  14.236  28.965  13.874
 2175W        W70569   3.474  11.240   0.395
 2176W        W70570  27.116  29.450   4.399
 2177W        W70571  35.406  20.537   0.281
 2178W        W70572   1.805  10.622   2.641
 2179W        W70573   0.276  21.527   1.830
 2180W        W70574   5.592  20.525  12.896
 2181W        W70575  41.844  40.246   0.148
 2182W        W70576  28.515  44.397  14.319
 2183W        W70577  12.705  42.554   1.016
 2184W        W70578  38.527  21.679   1.440
 2185W        W70579  10.720  22.254   4.710
 2186W        W70580  10.870   9.025   3.576
 2187W        W70581  30.536  42.006   0.798
 2188W        W70582  32.428  30.903  11.026
 2189W        W70583  24.576  38.428   0.862
 2190W        W70584  26.764  36.413   1.949
 2191W        W70585   1.686  43.354   1.698
 2192W        W70586  36.290  26.496  10.723
 2193W        W70587  23.532  26.796   3.773
 2194W        W70588  10.121  22.713   3.541
 2195W        W70589   7.008  44.797   2.958
 2196W        W70590  34.587  17.091  12.589
 2197W        W70591  34.538   1.267  14.830
 2198W        W70592  21.916  32.554   2.129
 2199W        W70593   9.748  30.002   4.652
 2200W        W70594  40.475  26.164   3.116
 2201W        W70595  16.349  29.588   4.883
 2202W        W70596   3.766  25.550  10.648
 2203W        W70597   2.340   9.076  13.420
 2204W        W70598  27.791  31.612  10.762
 2205W        W70599  23.631   0.772   0.147
 2206W        W70600  28.152  13.351   1.130
 2207W        W70601  11.911  41.067   3.045
 2208W        W70602   9.612  23.976  10.588
 2209W        W70603  36.139  13.781   2.882
 2210W        W70604  39.330   4.888   3.268
 2211W        W70605  27.544  25.772   3.102
 2212W        W70606  25.176  12.577   0.147
 2213W        W70607  26.886  29.040   3.074
 2214W        W70608  24.119  31.207  13.831
 2215W        W70609  18.037   8.185   3.185
 2216W        W70610  31.683  18.077  11.982
 2217W        W70611  25.922  12.382  11.400
 2218W        W70612  13.311  40.546  12.665
 2219W        W70613  12.975  30.944  11.816
 2220W        W70614  23.128  16.794  12.287
 2221W        W70615   6.388  18.551   4.055
 2222W        W70616  42.738  37.413   3.191
 2223W        W70617   3.772  15.816   4.039
 2224W        W70618  12.827   9.621   1.152
 2225W        W70619  11.926   7.407  14.791
 2226W        W70620  30.105  20.813   4.312
 2227W        W70621  19.222  23.527  14.385
 2228W        W70622  36.140   2.934  13.991
 2229W        W70623   9.789   4.009   4.136
 2230W        W70624  19.148  25.807   1.177
 2231W        W70625  10.223   3.634   4.775
 2232W        W70626  16.221   1.021   3.225
 2233W        W70627  41.010   7.232  12.980
 2234W        W70628  36.257  37.383  14.167
 2235W        W70629  40.420  33.635   4.092
 2236W        W70630  23.537  36.366  11.549
 2237W        W70631  44.773  26.922  12.505
 2238W        W70632  31.452  11.566  11.496
 2239W        W70633   6.841  40.756  11.160
 2240W        W70634  15.389  42.794  14.369
 2241W        W70635  35.487   8.367   2.001
 2242W        W70636  31.759  23.487  14.641
 2243W        W70637  22.959  21.472   4.713
 2244W        W70638  17.900  13.544  11.080
 2245W        W70639  33.407  41.007  11.482
 2246W        W70640  11.074  13.185  14.006
 2247W        W70641   4.834   0.400   3.378
 2248W        W70642  21.268  36.936   3.871
 2249W        W70643  10.568  16.446   4.196
 2250W        W70644  36.441   6.977  10.728
 2251W        W70645  35.459  44.406   0.993
 2252W        W70646  39.318  43.274  12.491
 2253W        W70647  24.513  39.955  14.043
 2254W        W70648  34.399  23.958  13.910
 2255W        W70649  29.997  34.213  12.077
 2256W        W70650  35.361  11.584   4.067
 2257W        W70651  28.417   6.775   3.109
 2258W        W70652  14.270  12.294  12.126
 2259W        W70653  29.999   1.377  10.883
 2260W        W70654  25.849  25.405  13.289
 2261W        W70655  39.896   5.368   3.673
 2262W        W70656  10.688  16.505  14.776
 2263W        W70657  21.119  31.173  12.290
 2264W        W70658  30.926   3.317   3.629
 2265W        W70659   1.962  13.492   2.726
 2266W        W70660   5.305  34.564   1.869
 2267W        W70661  11.809  27.734  14.754
 2268W        W70662  18.773  17.094   3.176
 2269W        W70663   4.785  40.586  11.704
 2270W        W70664  43.091  25.733  11.623
 2271W        W70665  28.449  44.441  11.944
 2272W        W70666  32.011   2.748  13.915
 2273W        W70667  30.507   1.846  11.429
 2274W        W70668  13.918  20.633   2.703
 2275W        W70669  34.519  38.585   1.702
 2276W        W70670  18.830  34.505  10.331
 2277W        W70671  20.810  37.983  11.048
 2278W        W70672  29.339   9.633  10.843
 2279W        W70673  44.963   0.319   3.109
 2280W        W70674  37.110  34.634  13.597
 2281W        W70675  15.692  16.345   4.613
 2282W        W70676  22.551  17.223   4.483
 2283W        W70677   1.916  31.404  13.832
 2284W        W70678  21.097  41.903   3.520
 2285W        W70679  13.763  25.308  13.124
 2286W        W70680  26.618   2.551  13.061
 2287W        W70681  11.676  40.739  11.177
 2288W        W70682  36.072  34.391  11.972
 2289W        W70683  34.387  44.996   0.874
 2290W        W70684  37.459   5.472   2.249
 2291W        W70685  20.197  24.740   0.716
 2292W        W70686  16.174  12.658   0.540
 2293W        W70687  37.875  41.702  11.065
 2294W        W70688  39.864  32.974  10.729
 2295W        W70689  30.978  14.766  13.859
 2296W        W70690  43.030  21.272  11.525
 2297W        W70691   8.167  18.174  12.785
 2298W        W70692   7.938  44.311  11.289
 2299W        W70693  36.446  43.068  10.705
 2300W        W70694  39.122  16.551   2.680
 2301W        W70695  37.890  39.800  11.120
 2302W        W70696  30.891  11.354  14.919
 2303W        W70697  41.814   3.193   3.288
 2304W        W70698   6.319   4.479  14.027
 2305W        W70699   6.338  44.977   4.185
 2306W        W70700  37.911  13.488   2.377
 2307W        W70701  42.385  38.437   1.446
 2308W        W70702  43.405  25.499  14.354
 2309W        W70703  29.577   0.009  10.797
 2310W        W70704  27.634  39.044   4.255
 2311W        W70705  24.631   2.504   3.812
 2312W        W70706   7.249  33.643  12.935
 2313W        W70707   5.912  26.009  12.992
 2314W        W70708  23.246  10.616  11.239
 2315W        W70709  42.947  31.613   3.569
 2316W        W70710  34.496  29.975   3.156
 2317W        W70711  15.470  16.186  13.965
 2318W        W70712  19.045  18.578   2.049
 2319W        W70713   2.731  30.654   2.874
 2320W        W70714  25.484   6.945  14.204
 2321W        W70715  23.240  27.668  12.354
 2322W        W70716  29.933  29.117  11.691
 2323W        W70717  41.944  30.527   4.660
 2324W        W70718  17.163   6.620   3.638
 2325W        W70719  15.613  43.756   2.245
 2326W        W70720  40.078  38.472   3.082
 2327W        W70721  29.350  36.151  11.438
 2328W        W70722  36.453  26.229   2.594
 2329W        W70723  37.438  20.213  13.446
 2330W        W70724   1.331  10.101  13.369
 2331W        W70725   7.321  39.170  12.617
 2332W        W70726  35.368   5.865  13.406
 2333W        W70727  40.726  40.970   0.224
 2334W        W70728   1.987  13.855  13.350
 2335W        W70729  12.240   8.857   4.564
 2336W        W70730  10.419  28.869  11.772
 2337W        W70731  31.917  32.272  11.356
 2338W        W70732   9.714  44.243  13.926
 2339W        W70733  39.883  14.795   3.107
 2340W        W70734  22.682   0.547  13.840
 2341W        W70735  27.419  31.152   4.013
 2342W        W70736  11.402   5.389  11.684
 2343W        W70737  19.064  13.689   0.389
 2344W        W70738  42.994   9.751   3.686
 2345W        W70739  40.915  17.268  11.125
 2346W        W70740   3.727  20.815   2.258
 2347W        W70741  37.056  39.913  12.450
 2348W        W70742   7.178  18.169  14.482
 2349W        W70743  30.908   8.833  12.739
 2350W        W70744  40.273  38.911  13.048
 2351W        W70745  42.360  38.328  11.721
 2352W        W70746  35.978  29.464  14.993
 2353W        W70747  40.871  20.754  11.555
 2354W        W70748  22.764  40.745  11.600
 2355W        W70749  17.225   2.943  11.719
 2356W        W70750  40.911  22.438   3.007
 2357W        W70751  11.678  32.388  14.548
 2358W        W70752   7.906  36.631  13.713
 2359W        W70753  33.068  42.298  13.746
 2360W        W70754  38.674  17.743   2.423
 2361W        W70755  12.020  35.598  13.612
 2362W        W70756  27.561   6.997   1.925
 2363W        W70757  30.355  21.598  11.059
 2364W        W70758  15.882  42.263   1.269
 2365W        W70759  14.324   1.937   3.202
 2366W        W70760  43.917  16.274  12.446
 2367W        W70761  16.404  29.495  13.611
 2368W        W70762  43.977  40.427   1.687
 2369W        W70763  25.406  23.640  11.096
 2370W        W70764   9.474  35.949  13.873
 2371W        W70765  17.135  20.268  10.201
 2372W        W70766  23.736  20.050   2.213
 2373W        W70767  26.890  39.587   3.547
 2374W        W70768  42.828  42.599  13.514
 2375W        W70769   5.902   0.216  14.513
 2376W        W70770  33.199  15.384   4.734
 2377W        W70771  20.221  20.282  14.758
 2378W        W70772  37.535  11.685   3.003
 2379W        W70773  11.658  21.031  10.800
 2380W        W70774  32.359  24.292  12.098
 2381W        W70775  16.491  36.541   3.111
 2382W        W70776  11.374   9.388   4.413
 2383W        W70777  38.917   5.958   2.216
 2384W        W70778  26.535  44.849  11.450
 2385W        W70779  25.254  30.678   4.623
 2386W        W70780  34.857   4.524   2.277
 2387W        W70781  16.307  23.987  13.589
 2388W        W70782   4.243  10.768  13.111
 2389W        W70783   1.239   7.387   1.206
 2390W        W70784  32.410   1.417  12.846
 2391W        W70785  26.558  18.653  10.714
 2392W        W70786  41.421  32.119   3.843
 2393W        W70787  21.749   4.858  10.138
 2394W        W70788  39.283  44.737   0.363
 2395W        W70789   9.556   7.475  11.623
 2396W        W70790  37.409  35.336  11.271
 2397W        W70791  35.902  32.500   3.699
 2398W        W70792  22.208   9.019  11.870
 2399W        W70793  26.455  33.363  10.780
 2400W        W70794   3.717   6.243  14.853
 2401W        W70795  11.666  16.295  11.078
 2402W        W70796  30.478  32.608   2.218
 2403W        W70797  38.929  31.043  12.032
 2404W        W70798  10.161   0.721   5.104
 2405W        W70799   8.158  16.397   3.664
 2406W        W70800  28.516  34.323   0.903
 2407W        W70801  15.655   8.716  10.737
 2408W        W70802  15.993   6.364   0.283
 2409W        W70803   0.782   2.342  13.969
 2410W        W70804  21.959  22.419   3.665
 2411W        W70805  43.489  42.324   1.692
 2412W        W70806  12.333  19.571   1.339
 2413W        W70807  17.100  13.179  11.169
 2414W        W70808   3.594  10.057   1.324
 2415W        W70809  24.206   3.695  11.911
 2416W        W70810  43.488  16.033   4.080
 2417W        W70811  10.069  21.193  13.076
 2418W        W70812  32.633   0.570  10.478
 2419W        W70813  42.787  19.554  10.596
 2420W        W70814  29.934  41.463   2.741
 2421W        W70815  36.843  11.321   0.028
 2422W        W70816  21.771  39.025  13.118
 2423W        W70817  25.007  27.438  13.632
 2424W        W70818  38.239  21.683   0.872
 2425W        W70819  27.412   4.686   3.899
 2426W        W70820  36.257  16.245   1.387
 2427W        W70821  19.899  28.818  10.741
 2428W        W70822  19.182  19.768   2.183
 2429W        W70823  24.620  43.545   3.980
 2430W        W70824  13.193  18.166   1.125
 2431W        W70825  28.240  11.651   1.356
 2432W        W70826  13.592   8.309   0.253
 2433W        W70827  26.152   1.477  11.441
 2434W        W70828  29.469  40.510   3.427
 2435W        W70829  32.802  17.002  14.780
 2436W        W70830  34.994  31.128   4.312
 2437W        W70831  27.984  36.611  11.249
 2438W        W70832   4.701  13.431  11.254
 2439W        W70833   9.146   5.774  12.833
 2440W        W70834   9.717  18.052  11.296
 2441W        W70835  34.303  17.141  13.068
 2442W        W70836  23.049  38.313   0.921
 2443W        W70837   9.291  17.987   4.776
 2444W        W70838  17.338   3.662   1.925
 2445W        W70839   2.753  11.087   2.665
 2446W        W70840  36.470  42.254   1.133
 2447W        W70841   7.411  16.839  11.268
 2448W        W70842  16.750   4.511   4.985
 2449W        W70843  26.526  18.644   4.499
 2450W        W70844  18.058  11.146  14.083
 2451W        W70845  38.040  40.276   2.737
 2452W        W70846  17.037   8.417  10.383
 2453W        W70847  15.109   7.507  12.915
 2454W        W70848  30.117  36.130   2.288
 2455W        W70849  20.568   3.250   4.722
 2456W        W70850  23.159  16.639  12.794
 2457W        W70851  22.495  11.897  10.256
 2458W        W70852  37.796  23.699  12.043
 2459W        W70853  17.279  30.547  10.216
 2460W        W70854  32.364  11.648   3.750
 2461W        W70855  26.089   2.196   0.184
 2462W        W70856  25.553  30.950   3.868
 2463W        W70857   8.853  37.948  12.483
 2464W        W70858   4.121  16.823   0.335
 2465W        W70859  30.233   4.648   4.954
 2466W        W70860  21.742  32.036   4.943
 2467W        W70861  35.413   9.696  14.029
 2468W        W70862   2.982  34.466   2.371
 2469W        W70863   9.952  19.835   3.518
 2470W        W70864  41.503   2.364  11.135
 2471W        W70865  16.538  12.238   2.704
 2472W        W70866  18.334  37.095   3.147
 2473W        W70867  25.882   0.511  12.503
 2474W        W70868   3.930  36.966  13.495
 2475W        W70869  12.703  43.368   4.093
 2476W        W70870  17.680  39.103   0.687
 2477W        W70871   3.518  44.448  13.700
 2478W        W70872  36.870  26.234   0.381
 2479W        W70873  41.081  36.846   4.297
 2480W        W70874   0.706   7.881  13.001
 2481W        W70875  33.630   9.507  10.229
 2482W        W70876   0.788  20.175  10.686
 2483W        W70877  24.583  22.684  14.020
 2484W        W70878   4.655  15.995   4.472
 2485W        W70879  35.515  38.216   4.462
 2486W        W70880  21.026  30.262   2.150
 2487W        W70881  18.736  43.061  14.958
 2488W        W70882  20.985  34.630   0.350
 2489W        W70883  42.725   9.734   2.308
 2490W        W70884  14.849  19.078  14.963
 2491W        W70885  38.072  10.826  14.900
 2492W        W70886  22.300  16.550  11.056
 2493W        W70887  26.171  18.792   2.773
 2494W        W70888  11.093   3.707  14.284
 2495W        W70889  31.408  11.970   4.335
 2496W        W70890  16.290  33.353   3.137
 2497W        W70891  23.854  40.937  12.192
 2498W        W70892   1.726  33.947   2.262
 2499W        W70893  44.313  30.437   0.973
 2500W        W70894  35.971  25.878  11.920
 2501W        W70895  13.136  16.328  14.506
 2502W        W70896  23.628  28.268   3.652
 2503W        W70897  30.395  36.605  14.294
 2504W        W70898  26.652   2.834   0.850
 2505W        W70899  29.492  11.792   2.335
 2506W        W70900   0.307   1.456  13.253
 2507W        W70901  34.276  12.325   1.301
 2508W        W70902   6.158  40.470   4.492
 2509W        W70903  23.233  32.673   2.837
 2510W        W70904  41.473  14.717   4.583
 2511W        W70905  14.781  14.108  12.417
 2512W        W70906  13.814  32.584  11.173
 2513W        W70907   9.863   2.987   1.279
 2514W        W70908  44.916  27.272  13.545
 2515W        W70909   6.435  10.193   4.502
 2516W        W70910  37.563  19.327  11.990
 2517W        W70911  16.287  35.359  14.803
 2518W        W70912  10.705  31.099   1.418
 2519W        W70913  26.572  17.704  14.150
 2520W        W70914   4.629  24.920  12.473
 2521W        W70915  21.205  20.628   1.731
 2522W        W70916  13.683  11.583   0.877
 2523W        W70917  15.376  44.892  14.207
 2524W        W70918   8.504  29.382   4.101
 2525W        W70919  32.193  13.043  12.147
 2526W        W70920  38.972  14.530   2.668
 2527W        W70921   5.805  35.914  14.062
 2528W        W70922  26.431  41.244  13.400
 2529W        W70923   4.772  24.734  10.650
 2530W        W70924   0.156  16.259  12.811
 2531W        W70925   9.850  24.210  10.966
 2532W        W70926  12.296  19.378  13.376
 2533W        W70927  30.131  16.733  11.179
 2534W        W70928  14.330   8.958  12.471
 2535W        W70929  23.589  42.528   3.345
 2536W        W70930  28.143  35.597  14.267
 2537W        W70931  25.389  22.286  11.966
 2538W        W70932  44.136   0.429  14.848
 2539W        W70933  20.521  32.339  12.458
 2540W        W70934  44.945   1.480  13.964
 2541W        W70935   7.220   3.186   0.487
 2542W        W70936  13.234  24.154   3.171
 2543W        W70937  27.017  34.982  13.580
 2544W        W70938  34.396   9.142  14.199
 2545W        W70939  41.730  39.293  11.630
 2546W        W70940  21.858   7.424  12.012
 2547W        W70941  25.097   2.788   2.673
 2548W        W70942  13.054   6.656  14.787
 2549W        W70943  29.970  43.242   2.345
 2550W        W70944   8.457  14.711   2.118
 2551W        W70945  15.234   9.346  12.767
 2552W        W70946  12.950   5.943  13.227
 2553W        W70947   1.840  30.900  12.094
 2554W        W70948  22.638  16.172   4.932
 2555W        W70949   9.971   1.493  14.038
 2556W        W70950  39.750  15.402  12.792
 2557W        W70951   0.968   4.258  12.408
 2558W        W70952  30.556  21.510  11.921
 2559W        W70953  36.389  11.232  12.048
 2560W        W70954  34.014   7.692   4.673
 2561W        W70955   8.757  13.674  14.206
 2562W        W70956  25.538  10.983   0.934
 2563W        W70957   0.942   5.255   0.142
 2564W        W70958  26.372  36.608   0.316
 2565W        W70959   0.468  37.232  10.978
 2566W        W70960  43.758   1.004   1.810
 2567W        W70961  42.848  18.634  12.102
 2568W        W70962   6.815  23.071  10.505
 2569W        W70963  25.170  41.895  12.839
 2570W        W70964  30.684   0.800  12.983
 2571W        W70965   2.983  12.071   0.559
 2572W        W70966   4.175  11.737  10.195
 2573W        W70967  23.193   2.853  13.045
 2574W        W70968  11.641  17.137   4.522
 2575W        W70969   9.053   3.395   4.331
 2576W        W70970  17.487  32.626   2.491
 2577W        W70971   0.927  25.123   3.544
 2578W        W70972   6.102   9.745  12.430
 2579W        W70973  39.508  39.985  14.393
 2580W        W70974  24.076  23.562   4.539
 2581W        W70975   3.600  31.440   4.529
 2582W        W70976   5.804  42.218  11.114
 2583W        W70977  20.453  12.194   1.917
 2584W        W70978  19.698  42.886   1.640
 2585W        W70979   7.558  15.612   1.035
 2586W        W70980   5.085  28.981  14.288
 2587W        W70981  36.457  38.280  13.744
 2588W        W70982   7.448  38.330  13.297
 2589W        W70983  13.144  28.595   3.333
 2590W        W70984  30.086   6.967  12.161
 2591W        W70985  31.467  25.647  10.580
 2592W        W70986  43.740  24.192   3.786
 2593W        W70987  39.044  35.380  11.627
 2594W        W70988  21.165  19.892   5.010
 2595W        W70989   7.284  13.572   1.674
 2596W        W70990  38.618  36.565  13.044
 2597W        W70991  35.036  14.746   3.647
 2598W        W70992  25.789  31.867  11.456
 2599W        W70993  25.464  38.101  13.044
 2600W        W70994  12.124  23.565   4.710
 2601W        W70995  22.048  24.325   4.153
 2602W        W70996  40.781  17.456  13.849
 2603W        W70997   7.332   0.993   3.090
 2604W        W70998  36.628  35.554  14.296
 2605W        W70999  19.544  34.913   4.070
 2606W        W71000  35.122   7.836  11.808
 2607W        W71001  26.670   9.039   0.903
 2608W        W71002   7.624  36.250  13.936
 2609W        W71003  32.607  32.598  10.713
 2610W        W71004  27.944  16.063   0.803
 2611W        W71005  16.073  43.037  13.910
 2612W        W71006   8.646  32.561  10.282
 2613W        W71007  27.959  17.805   0.018
 2614W        W71008  22.723   7.248   4.634
 2615W        W71009   8.130  35.904  12.567
 2616W        W71010  41.264  20.101   2.306
 2617W        W71011   1.175  30.259   5.114
 2618W        W71012  32.591  11.291  13.527
 2619W        W71013  42.584   9.770   0.854
 2620W        W71014   9.843  23.628  13.057
 2621W        W71015  38.112  22.738  14.831
 2622W        W71016  12.120   5.686  13.454
 2623W        W71017  27.969  31.859   2.755
 2624W        W71018   4.219  11.302  13.857
 2625W        W71019   5.982  14.893   2.301
 2626W        W71020   1.296   6.249  10.863
 2627W        W71021   8.740  29.354   0.315
 2628W        W71022   0.847   0.656   1.190
 2629W        W71023   7.201  29.996  13.900
 2630W        W71024  23.953  13.948  11.645
 2631W        W71025  32.694  21.639  11.040
 2632W        W71026  20.989  28.349  12.579
 2633W        W71027  38.851  14.212   3.534
 2634W        W71028  23.767  11.943  11.698
 2635W        W71029  16.189  10.770   4.733
 2636W        W71030  37.776  24.766   2.416
 2637W        W71031  18.438  25.139  14.493
 2638W        W71032  16.751  24.072  14.027
 2639W        W71033  44.677  16.080  12.801
 2640W        W71034  36.479  15.868  14.909
 2641W        W71035  19.198  24.950   2.301
 2642W        W71036  32.703  28.806  13.047
 2643W        W71037  40.893  41.732  14.880
 2644W        W71038  43.603   9.672  12.372
 2645W        W71039   9.682  27.538  13.435
 2646W        W71040   2.744   9.970  10.645
 2647W        W71041   5.705  44.341   4.527
 2648W        W71042  23.638  40.888   4.504
 2649W        W71043  44.869   5.785  13.192
 2650W        W71044  36.470  33.866  11.160
 2651W        W71045  10.928   7.025  14.290
 2652W        W71046  12.710  42.348  10.433
 2653W        W71047  41.348  32.441  10.799
 2654W        W71048   6.701  14.731   5.379
 2655W        W71049  39.752  15.542   1.687
 2656W        W71050  14.122   3.209   0.903
 2657W        W71051  33.888  37.773  13.986
 2658W        W71052  30.155   4.294  11.586
 2659W        W71053  25.144  15.153   2.872
 2660W        W71054  39.778  31.720   3.146
 2661W        W71055  27.125  23.722  11.653
 2662W        W71056  22.039   2.363  11.288
 2663W        W71057  21.025  44.257   0.392
 2664W        W71058  16.684  40.820   3.770
 2665W        W71059   5.597  12.619   3.250
 2666W        W71060  29.942  13.873  14.989
 2667W        W71061  42.670  35.202   0.314
 2668W        W71062  28.103  35.010   1.007
 2669W        W71063  22.556  21.019   4.158
 2670W        W71064  17.282   5.451  10.555
 2671W        W71065  24.886  38.573   3.695
 2672W        W71066  27.668  32.021  14.852
 2673W        W71067  27.776  42.463  12.890
 2674W        W71068  34.161  16.847  14.248
 2675W        W71069   6.772  32.391   3.186
 2676W        W71070  37.102  34.398  13.130
 2677W        W71071  18.280  16.701  11.706
 2678W        W71072  12.293  41.709   3.438
 2679W        W71073  23.995  16.772   0.714
 2680W        W71074  42.101  13.601   0.375
 2681W        W71075  39.569  40.781  14.761
 2682W        W71076   5.465  42.872   1.778
 2683W        W71077  28.245  14.085  11.846
 2684W        W71078  35.484  27.779  14.422
 2685W        W71079   9.384  32.864   0.670
 2686W        W71080  26.018  43.526  14.814
 2687W        W71081  33.962  35.961  12.070
 2688W        W71082  18.240  18.120   1.823
 2689W        W71083  35.398   6.949   5.048
 2690W        W71084  22.856  32.843  14.241
 2691W        W71085  38.033   2.330  13.259
 2692W        W71086   5.268   0.542   3.149
 2693W        W71087  14.665  27.933  13.091
 2694W        W71088  40.994  24.514   3.663
 2695W        W71089  43.082  37.409  13.515
 2696W        W71090  26.515  42.829   2.810
 2697W        W71091  10.920   2.987  12.999
 2698W        W71092   5.457  20.243  11.130
 2699W        W71093   4.042  23.278  11.600
 2700W        W71094  28.656  19.740   4.898
 2701W        W71095  40.508  12.898   4.115
 2702W        W71096  33.940   5.434  13.990
 2703W        W71097   8.886  16.728  11.857
 2704W        W71098  43.606  40.137  13.405
 2705W        W71099  23.971  27.516   3.209
 2706W        W71100  35.068  38.620  10.916
 2707W        W71101  40.281  42.299  14.168
 2708W        W71102  26.990   7.909   1.321
 2709W        W71103  14.060   9.108   2.765
 2710W        W71104   5.838  10.158   3.841
 2711W        W71105  27.924  14.749  10.508
 2712W        W71106  12.276  31.202   3.825
 2713W        W71107  14.853  32.594  11.217
 2714W        W71108  13.748  16.603   2.757
 2715W        W71109  35.169   5.408  13.544
 2716W        W71110   4.222  17.118   0.733
 2717W        W71111  20.247  18.651   2.697
 2718W        W71112  30.529   8.345   3.158
 2719W        W71113  12.940  42.896   4.208
 2720W        W71114  11.809  30.033  12.092
 2721W        W71115  16.830   8.911   3.669
 2722W        W71116  30.978  38.163  13.848
 2723W        W71117  28.896  25.123   1.057
 2724W        W71118  13.206   8.942   4.482
 2725W        W71119  40.468   5.465  12.014
 2726W        W71120  16.523  44.200  12.860
 2727W        W71121  25.939  13.193  14.850
 2728W        W71122  21.918  24.992  12.940
 2729W        W71123  13.109  25.928   2.968
 2730W        W71124  35.920  13.329  13.609
 2731W        W71125  29.778  23.362   2.347
 2732W        W71126  34.758  42.183   4.486
 2733W        W71127  21.958  27.988   4.515
 2734W        W71128  42.988  34.358   9.655
 2735W        W71129   5.739   2.806   4.186
 2736W        W71130  10.223  42.604  12.339
 2737W        W71131  41.190  25.489  11.267
 2738W        W71132  29.511   3.246  11.624
 2739W        W71133  35.794   7.648  12.921
 2740W        W71134  35.589  43.995  11.513
 2741W        W71135   6.318  37.979  11.209
 2742W        W71136  19.137   9.210  13.877
 2743W        W71137  17.722  24.546   3.144
 2744W        W71138  40.945  42.924   2.423
 2745W        W71139  10.587  24.774   2.263
 2746W        W71140  41.367  15.733  12.581
 2747W        W71141  18.729  39.899   1.878
 2748W        W71142   4.421  26.505   9.762
 2749W        W71143   8.883  39.665   3.660
 2750W        W71144  22.232  32.705   3.415
 2751W        W71145  25.723  24.103  13.031
 2752W        W71146  33.027   6.156  10.964
 2753W        W71147  30.981  16.982   1.381
 2754W        W71148  41.649  29.220   1.366
 2755W        W71149  43.358  24.922   2.226
 2756W        W71150  20.340  11.333  11.531
 2757W        W71151  34.924  15.209  11.035
 2758W        W71152  18.214  36.982   0.718
 2759W        W71153  12.519  10.031   3.559
 2760W        W71154  42.222   7.289  12.483
 2761W        W71155  34.673  24.206  12.456
 2762W        W71156  22.326   9.136  10.228
 2763W        W71157   9.652  22.030  11.481
 2764W        W71158  13.881   4.435   3.842
 2765W        W71159  14.789  12.205  11.536
 2766W        W71160  33.786  10.734   1.668
 2767W        W71161  31.834  24.358   0.174
 2768W        W71162  13.495   8.597  13.983
 2769W        W71163  28.853  34.477   2.385
 2770W        W71164  36.909  21.930  12.468
 2771W        W71165  21.048  19.550   1.345
 2772W        W71166  34.118  18.180  11.882
 2773W        W71167  10.925  28.913   0.850
 2774W        W71168  42.806  19.046   0.896
 2775W        W71169  19.959   6.169  12.616
 2776W        W71170  21.180  14.209  12.105
 2777W        W71171  26.014  24.537   3.191
 2778W        W71172   6.244  29.430   1.842
 2779W        W71173  41.393   8.888  13.314
 2780W        W71174  17.179  27.034  12.836
 2781W        W71175  29.091   9.939   1.256
 2782W        W71176   4.612  41.013  13.890
 2783W        W71177  25.511  23.067  14.486
 2784W        W71178  14.115  36.553   4.543
 2785W        W71179  36.426  41.925  11.498
 2786W        W71180  41.601  44.535   5.015
 2787W        W71181  12.369  12.085   4.173
 2788W        W71182  13.427   0.738   2.827
 2789W        W71183  38.338   4.968  12.200
 2790W        W71184  33.093   9.383   3.832
 2791W        W71185   7.251  12.168   3.596
 2792W        W71186  29.511   9.559  12.382
 2793W        W71187  27.168   9.627  12.586
 2794W        W71188  34.960  20.881  14.574
 2795W        W71189  20.138  13.859   2.266
 2796W        W71190  41.649   8.386  10.730
 2797W        W71191  33.005  40.763  12.563
 2798W        W71192   0.803  13.626   3.578
 2799W        W71193   9.795  25.613   1.675
 2800W        W71194  13.315  14.625  10.754
 2801W        W71195  31.978  31.257   4.501
 2802W        W71196  44.237   1.320  12.825
 2803W        W71197  35.596  17.137  14.540
 2804W        W71198  11.344  18.815  12.147
 2805W        W71199  25.155  22.765   2.747
 2806W        W71200  11.240   4.623   0.386
 2807W        W71201   9.874  20.793  11.856
 2808W        W71202  14.746  23.238  11.133
 2809W        W71203  42.868  18.986  11.149
 2810W        W71204  41.490  41.513   2.296
 2811W        W71205  37.958  25.079  12.535
 2812W        W71206  21.038  14.088   1.846
 2813W        W71207   7.565  27.869  10.729
 2814W        W71208  38.331  20.685  14.463
 2815W        W71209  19.854  30.117  10.074
 2816W        W71210  37.415  37.056   0.433
 2817W        W71211  33.426  30.225   9.890
 2818W        W71212  27.844  21.821   2.251
 2819W        W71213  44.154  18.350  13.331
 2820W        W71214  13.242  42.557   0.992
 2821W        W71215  20.799  25.727   3.344
 2822W        W71216   7.687  30.786   2.331
 2823W        W71217  21.617  15.284   3.146
 2824W        W71218  36.865  20.616   0.257
 2825W        W71219  11.068  14.893  13.832
 2826W        W71220  20.194   3.100  14.802
 2827W        W71221   2.313  34.519  12.788
 2828W        W71222  34.536   3.957  11.123
 2829W        W71223  38.032  31.885   4.602
 2830W        W71224  20.638  12.330  14.142
 2831W        W71225  32.368  31.632  13.113
 2832W        W71226   6.169  11.130  14.502
 2833W        W71227  12.463   6.707   2.542
 2834W        W71228  44.019  28.002   0.693
 2835W        W71229   8.728   8.857   0.922
 2836W        W71230  15.432   2.859   0.724
 2837W        W71231  25.690  33.597   2.389
 2838W        W71232  10.551   3.809  11.650
 2839W        W71233  36.451  12.335  11.901
 2840W        W71234   4.784  10.761   4.474
 2841W        W71235  16.343  43.771  13.110
 2842W        W71236  10.222  19.283   3.752
 2843W        W71237  20.345   7.760  12.519
 2844W        W71238  21.669  34.059   0.251
 2845W        W71239  29.031  34.028   2.124
 2846W        W71240   3.839  42.867  11.759
 2847W        W71241  38.552  10.203  12.998
 2848W        W71242  35.606  17.599  11.280
 2849W        W71243  30.700  23.133  13.059
 2850W        W71244  10.680  31.248   4.960
 2851W        W71245  17.749  10.164  13.266
 2852W        W71246  44.019  14.295   2.108
 2853W        W71247  35.953  10.110   1.492
 2854W        W71248  23.492  28.614   0.848
 2855W        W71249  10.950  41.104  12.099
 2856W        W71250  16.258  33.399   4.727
 2857W        W71251  11.748  10.319  12.755
 2858W        W71252  42.840  19.758   2.055
 2859W        W71253   8.163   6.046  12.037
 2860W        W71254  26.767   7.787  12.616
 2861W        W71255  30.041  14.301  11.636
 2862W        W71256  38.308  16.125   4.235
 2863W        W71257  30.140  40.877   1.406
 2864W        W71258  32.159  36.857   0.387
 2865W        W71259  38.891   7.484   3.774
 2866W        W71260  43.731  10.115  14.053
 2867W        W71261  43.026  34.492   4.933
 2868W        W71262  44.541  23.053   0.351
 2869W        W71263  19.643   6.622   4.529
 2870W        W71264  21.107   5.416  11.635
 2871W        W71265  17.191  14.814  10.634
 2872W        W71266  14.641  21.723  14.253
 2873W        W71267  21.178  20.002   0.324
 2874W        W71268   6.350  41.895   0.639
 2875W        W71269   8.486  22.809  11.964
 2876W        W71270  18.102  17.370  10.369
 2877W        W71271  17.398  23.723  14.388
 2878W        W71272  33.818  33.746   1.807
 2879W        W71273  36.004  43.755   3.733
 2880W        W71274  36.540  38.698   0.774
 2881W        W71275   7.013  36.568  14.395
 2882W        W71276  11.437  17.565  11.890
 2883W        W71277  44.784  42.206  14.473
 2884W        W71278  14.086  15.922   4.468
 2885W        W71279  19.092  24.396  11.450
 2886W        W71280   9.962  20.121  13.848
 2887W        W71281   4.849  44.872  13.018
 2888W        W71282  22.055  20.295  12.982
 2889W        W71283  21.494  38.510  14.357
 2890W        W71284  21.980  41.909  11.036
 2891W        W71285  28.200  16.130   1.267
 2892W        W71286  29.460  42.148  14.838
 2893W        W71287  16.573  43.842   0.396
 2894W        W71288  19.323   1.473   1.769
 2895W        W71289  38.330  41.936   2.274
 2896W        W71290  16.292   5.313  11.185
 2897W        W71291  40.913  24.421   2.828
 2898W        W71292   4.891  21.060   4.297
 2899W        W71293  19.563  38.388  11.580
 2900W        W71294   9.765  31.593  10.723
 2901W        W71295   8.796  15.647  10.330
 2902W        W71296  13.384   6.726   2.635
 2903W        W71297  27.501  44.359   0.904
 2904W        W71298  39.033  11.416   4.304
 2905W        W71299  33.493   6.634  13.959
 2906W        W71300  14.103  32.133  12.954
 2907W        W71301   5.948  42.469   2.675
 2908W        W71302   3.461  38.449  14.851
 2909W        W71303  14.084  25.558  11.992
 2910W        W71304  33.932  24.202   4.043
 2911W        W71305  19.106  13.583  13.565
 2912W        W71306  29.865  36.339  12.531
 2913W        W71307  11.260  32.269  13.760
 2914W        W71308  34.021  42.186  14.563
 2915W        W71309   8.828  43.698  14.890
 2916W        W71310  18.035  35.099  13.823
 2917W        W71311  25.622  17.596   2.130
 2918W        W71312   0.942  12.874  10.597
 2919W        W71313  37.933   2.122  10.600
 2920W        W71314  16.764  42.974  14.277
 2921W        W71315  41.132  42.050  12.043
 2922W        W71316  43.909  21.151   1.256
 2923W        W71317   6.888  12.218   0.042
 2924W        W71318  17.605  44.667  13.945
 2925W        W71319  33.096  16.195  10.740
 2926W        W71320   6.194  24.356  11.036
 2927W        W71321   9.730  36.040  14.683
 2928W        W71322  10.036   6.973  11.490
 2929W        W71323   1.201  36.631  14.339
 2930W        W71324   5.352  20.091   4.029
 2931W        W71325  30.007  31.376   4.742
 2932W        W71326  21.617   5.804   4.069
 2933W        W71327  38.361  35.166   2.696
 2934W        W71328  18.972  19.056  11.569
 2935W        W71329  11.805   6.213   2.256
 2936W        W71330  25.427  35.267   1.793
 2937W        W71331  23.039   3.699   1.431
 2938W        W71332  36.428  44.747  14.225
 2939W        W71333   7.457  44.322  14.001
 2940W        W71334  16.979  12.729  13.832
 2941W        W71335  39.507  23.062   3.898
 2942W        W71336  33.426  31.882   4.802
 2943W        W71337  25.090  41.382  12.981
 2944W        W71338   9.748  16.079   2.645
 2945W        W71339  15.487  11.783  13.771
 2946W        W71340  38.809  31.094  13.564
 2947W        W71341  21.769   3.636  12.890
 2948W        W71342  44.197  18.418  12.820
 2949W        W71343  42.927  32.167  12.056
 2950W        W71344   6.673  37.458  12.016
 2951W        W71345  22.594  17.670   0.801
 2952W        W71346  39.728  36.574  10.070
 2953W        W71347  12.762  35.491   3.758
 2954W        W71348  19.589  33.372   4.657
 2955W        W71349  37.529   4.384  14.013
 2956W        W71350  35.543  28.400   0.702
 2957W        W71351  12.235  24.218   1.281
 2958W        W71352   3.330  27.261   3.204
 2959W        W71353  35.133   9.337  13.793
 2960W        W71354  25.921   2.298  10.749
 2961W        W71355  17.095  13.889   0.850
 2962W        W71356  41.932  23.044   0.884
 2963W        W71357  41.308   7.626   2.902
 2964W        W71358  24.657  38.314  11.687
 2965W        W71359  27.532   1.643  12.056
 2966W        W71360  24.577  21.934  12.888
 2967W        W71361  42.102  24.095   4.908
 2968W        W71362  17.007  26.772   0.364
 2969W        W71363  11.920   3.198  13.796
 2970W        W71364  20.952  41.838   1.511
 2971W        W71365  12.779  19.461   2.410
 2972W        W71366  15.063   9.401  10.491
 2973W        W71367  42.437  41.782  13.374
 2974W        W71368  10.265  28.046  10.557
 2975W        W71369  30.103  24.945  12.402
 2976W        W71370  38.933  30.633   3.053
 2977W        W71371  17.842  31.028   3.665
 2978W        W71372  13.236  18.167  11.297
 2979W        W71373  34.406  28.857   4.154
 2980W        W71374  13.936  34.167   4.925
 2981W        W71375  26.181  17.379  13.938
 2982W        W71376   9.390   2.337   1.198
 2983W        W71377  26.140  25.818   2.700
 2984W        W71378  10.260  39.717   0.961
 2985W        W71379  31.472   2.187  11.205
 2986W        W71380  18.182  35.131   3.781
 2987W        W71381   7.356  28.546   1.739
 2988W        W71382  34.356   7.689   1.261
 2989W        W71383  25.687  17.347   1.683
 2990W        W71384  30.913  19.188  12.118
 2991W        W71385  15.814  38.166  12.376
 2992W        W71386  37.646   9.556  13.344
 2993W        W71387  30.868   0.593   9.819
 2994W        W71388  34.943  30.231  12.511
 2995W        W71389   3.373  13.376  12.160
 2996W        W71390  43.334   6.276   0.678
 2997W        W71391  10.314  28.933  11.276
 2998W        W71392   5.199  29.838  12.778
 2999W        W71393  31.929  26.150   5.216
 3000W        W71394  28.754  17.321  13.986
 3001W        W71395   3.253   8.415   0.346
 3002W        W71396   6.419  43.424  11.107
 3003W        W71397  40.162  34.044   3.392
 3004W        W71398  21.679  22.049   3.898
 3005W        W71399  16.062  30.590   3.740
 3006W        W71400  30.059  34.633   0.494
 3007W        W71401  38.466   5.451  10.567
 3008W        W71402  20.589  14.210   0.352
 3009W        W71403   4.656  41.421  12.584
 3010W        W71404   0.087  14.814   4.774
 3011W        W71405   6.694  20.724   2.379
 3012W        W71406  24.485  12.469   9.960
 3013W        W71407  38.027  30.644   0.367
 3014W        W71408   0.219  29.657   4.132
 3015W        W71409  29.983  28.927   2.859
 3016W        W71410   4.230  24.158   1.228
 3017W        W71411  11.881  27.977  11.456
 3018W        W71412  42.814  27.513  10.556
 3019W        W71413  23.016  12.659  12.374
 3020W        W71414  43.781  13.302   3.456
 3021W        W71415  39.907  42.790   3.372
 3022W        W71416  18.626  14.617   4.624
 3023W        W71417  14.802  27.950   2.919
 3024W        W71418  19.513  24.524  14.588
 3025W        W71419  24.203  33.439  12.796
 3026W        W71420  12.028  34.756   3.682
 3027W        W71421  24.448  35.069  14.331
 3028W        W71422  18.584  34.266   2.007
 3029W        W71423  34.029  39.822  14.824
 3030W        W71424  12.345  11.876  14.080
 3031W        W71425  40.533  28.613   0.760
 3032W        W71426  43.589  31.485   0.017
 3033W        W71427  19.563   1.889  12.170
 3034W        W71428  34.943   9.331   1.072
 3035W        W71429  44.374  12.852  14.422
 3036W        W71430   9.164  11.906  12.344
 3037W        W71431  24.279  19.241   1.198
 3038W        W71432  33.074  20.137  11.538
 3039W        W71433  29.393  26.384   2.359
 3040W        W71434  14.352  37.540  12.035
 3041W        W71435  10.977  18.477  11.030
 3042W        W71436  28.107  40.507   1.179
 3043W        W71437   8.486  30.152   4.666
 3044W        W71438  27.612  19.538   4.542
 3045W        W71439  16.363  24.734  10.602
 3046W        W71440  35.764   5.373   2.925
 3047W        W71441  29.252  29.055   3.227
 3048W        W71442  23.297  34.894  12.974
 3049W        W71443  24.858  37.330   0.848
 3050W        W71444  32.322  14.199  12.455
 3051W        W71445   1.138  44.638  13.922
 3052W        W71446   9.384  33.616   0.335
 3053W        W71447   0.037  44.910   2.359
 3054W        W71448   9.787  43.780  10.442
 3055W        W71449  33.603  19.095  12.505
 3056W        W71450  20.154  17.286   1.918
 3057W        W71451  36.444   5.286  11.581
 3058W        W71452  11.829  27.255  14.527
 3059W        W71453  29.304  23.905  13.718
 3060W        W71454  16.587  39.255  12.870
 3061W        W71455  29.449  17.074   1.445
 3062W        W71456  18.196   1.756   2.739
 3063W        W71457  22.264   0.265  12.045
 3064W        W71458   0.326  14.241  14.218
 3065W        W71459   6.408  15.676  14.079
 3066W        W71460  30.892  32.277   1.446
 3067W        W71461  13.569  31.101   3.480
 3068W        W71462  33.575  20.817  10.592
 3069W        W71463  17.346  19.120  12.982
 3070W        W71464  14.583  17.265   2.148
 3071W        W71465   6.283   3.502  13.179
 3072W        W71466  18.355  18.322   1.176
 3073W        W71467  31.878   4.515  12.356
 3074W        W71468  30.098  35.215   1.811
 3075W        W71469  29.595  18.542   0.882
 3076W        W71470   3.927   9.193   1.272
 3077W        W71471  32.957  34.770  10.556
 3078W        W71472   9.970   1.219   5.071
 3079W        W71473  26.290  18.068   2.458
 3080W        W71474   3.675  19.912   2.335
 3081W        W71475   6.677  10.092  10.311
 3082W        W71476  39.499   9.203   4.246
 3083W        W71477  28.534  41.641   4.558
 3084W        W71478  36.012   9.355  10.623
 3085W        W71479   3.372  44.361   4.142
 3086W        W71480  35.414  15.599  11.938
 3087W        W71481   4.492  13.470  14.468
 3088W        W71482   5.034  10.845   2.671
 3089W        W71483  22.319  32.608  12.810
 3090W        W71484  14.789   9.717   5.466
 3091W        W71485  21.795  11.076   2.549
 3092W        W71486   2.094   3.983  14.865
 3093W        W71487  31.334  36.790   1.659
 3094W        W71488  15.835  35.952   2.891
 3095W        W71489   3.809   3.778   3.559
 3096W        W71490  44.008  17.300  12.408
 3097W        W71491   9.261  34.696   0.932
 3098W        W71492  35.111  42.432   1.531
 3099W        W71493  44.040  44.812  10.382
 3100W        W71494   1.829  31.482  10.935
 3101W        W71495  38.386  27.417  12.049
 3102W        W71496  39.531  19.486   1.279
 3103W        W71497   6.882  21.779   0.885
 3104W        W71498  12.244   0.053  11.136
 3105W        W71499   6.410  26.682  10.487
 3106W        W71500  40.508  14.524  11.222
 3107W        W71501   3.260  27.024  10.887
 3108W        W71502  10.759  33.084  10.625
 3109W        W71503  27.031  31.769  11.338
 3110W        W71504  29.319  40.151   0.302
 3111W        W71505  30.027   8.346  13.748
 3112W        W71506  24.242   0.018   1.722
 3113W        W71507  23.902  42.741   0.979
 3114W        W71508  12.866  37.903  10.964
 3115W        W71509  16.583  40.534  14.003
 3116W        W71510  29.497  16.749   0.282
 3117W        W71511   7.360   1.188   2.572
 3118W        W71512  16.986   6.275  13.376
 3119W        W71513  11.848  14.816  13.514
 3120W        W71514  41.795  37.144  12.941
 3121W        W71515  41.718  44.568  10.783
 3122W        W71516  24.759   3.941  11.072
 3123W        W71517  34.106   2.162  11.138
 3124W        W71518  43.766   6.623  11.517
 3125W        W71519   6.190  16.494   3.157
 3126W        W71520  32.575  22.516   2.872
 3127W        W71521  24.411  32.998  14.958
 3128W        W71522  28.620  17.802  12.022
 3129W        W71523  18.988  23.754  12.176
 3130W        W71524   8.737  14.612  14.311
 3131W        W71525  19.676  26.277   3.247
 3132W        W71526   3.237  44.824   4.370
 3133W        W71527  17.194  37.877   4.636
 3134W        W71528  23.212  42.009   0.195
 3135W        W71529  24.735  12.917   1.487
 3136W        W71530  21.955  18.169  13.735
 3137W        W71531  16.404  44.505   3.426
 3138W        W71532  44.219   7.272  12.479
 3139W        W71533  17.359  41.596  12.189
 3140W        W71534   0.842  33.285   3.411
 3141W        W71535  35.100  44.667  14.502
 3142W        W71536  36.358  40.561  13.529
 3143W        W71537  23.084  14.887  13.908
 3144W        W71538   7.405  10.654  12.873
 3145W        W71539  10.094  38.554  12.144
 3146W        W71540  38.025   6.713   2.887
 3147W        W71541  43.991  21.601  13.479
 3148W        W71542  44.297  38.647  11.636
 3149W        W71543  19.595  42.025   3.707
 3150W        W71544   4.218   8.733   3.048
 3151W        W71545  44.418  40.015   4.153
 3152W        W71546  26.621  37.581   2.212
 3153W        W71547  29.425   1.898  14.003
 3154W        W71548  27.497  10.846   3.865
 3155W        W71549  36.507  36.551   2.827
 3156W        W71550  32.409  32.053   2.785
 3157W        W71551   4.948  44.007   0.272
 3158W        W71552  24.566  17.096   4.575
 3159W        W71553   7.546  41.865   1.720
 3160W        W71554   1.743  40.018   1.515
 3161W        W71555  13.319  42.841  14.887
 3162W        W71556  25.246  25.098  12.210
 3163W        W71557  25.275  31.374  13.475
 3164W        W71558  14.541  25.634   4.769
 3165W        W71559  16.156  30.523   0.887
 3166W        W71560  29.273  20.454   0.861
 3167W        W71561   0.592  22.140  11.956
 3168W        W71562  11.884   9.247   4.566
 3169W        W71563  38.370  21.182  14.327
 3170W        W71564  17.276  22.053   3.934
 3171W        W71565   9.375   4.233   1.477
 3172W        W71566  20.931  44.860   1.776
 3173W        W71567  43.328   0.087   4.498
 3174W        W71568   1.189  19.491  11.675
 3175W        W71569  39.562  18.627  10.686
 3176W        W71570  40.868  39.573   4.207
 3177W        W71571   0.552   7.703   4.342
 3178W        W71572   6.357  43.130   0.823
 3179W        W71573  21.663  28.350   1.892
 3180W        W71574   4.268  23.049  13.391
 3181W        W71575  32.943   3.009  14.240
 3182W        W71576  23.696  38.764  13.363
 3183W        W71577  30.679   3.391  13.857
 3184W        W71578   9.805  12.539  13.504
 3185W        W71579  34.050   0.477  12.109
 3186W        W71580   1.915  25.757  12.430
 3187W        W71581  31.061  23.821   3.684
 3188W        W71582  12.853  32.954   1.268
 3189W        W71583  42.657   2.432  11.552
 3190W        W71584  19.631  26.767   1.315
 3191W        W71585   6.830  19.521   1.742
 3192W        W71586  35.596  42.859   2.939
 3193W        W71587  33.090  15.755   0.381
 3194W        W71588   0.074  33.561  12.536
 3195W        W71589  19.896  13.095  13.494
 3196W        W71590  18.859  33.450   3.981
 3197W        W71591  28.537  20.758  11.328
 3198W        W71592   4.488  34.949  12.965
 3199W        W71593  36.702  32.997  11.030
 3200W        W71594  43.453  43.374   2.780
 3201W        W71595   8.924   4.465  10.954
 3202W        W71596  10.819  16.506   2.575
 3203W        W71597   9.637   3.862   4.601
 3204W        W71598   7.719  15.742   1.878
 3205W        W71599  22.973   5.079  11.025
 3206W        W71600   8.666  34.996   5.019
 3207W        W71601   0.834  43.957   3.815
 3208W        W71602  40.414  34.303   1.635
 3209W        W71603  30.339   8.862  11.550
 3210W        W71604  24.901  31.535   5.027
 3211W        W71605  31.462  38.992  12.409
 3212W        W71606  41.008  31.828   5.263
 3213W        W71607  38.697   8.835   0.743
 3214W        W71608  20.605  25.617  10.958
 3215W        W71609  18.154  21.479  10.676
 3216W        W71610  32.437  20.232   0.845
 3217W        W71611  42.809   2.371  12.824
 3218W        W71612  37.040  13.068   2.244
 3219W        W71613   6.809  28.213   1.516
 3220W        W71614   9.809  39.777   3.688
 3221W        W71615  20.616  25.142   4.230
 3222W        W71616  27.742  25.548  13.822
 3223W        W71617  39.536  42.265  14.275
 3224W        W71618   1.973  33.917  11.704
 3225W        W71619  31.966  12.970  10.707
 3226W        W71620  26.627  30.329   1.865
 3227W        W71621  12.723  11.749   4.092
 3228W        W71622  19.448  25.008  12.120
 3229W        W71623  39.567   8.773  12.175
 3230W        W71624  37.947   0.927   4.890
 3231W        W71625   6.993  26.348  12.867
 3232W        W71626  42.292  15.409  12.968
 3233W        W71627  30.193  41.351   3.632
 3234W        W71628  35.127   1.556  12.407
 3235W        W71629   1.433   8.414   3.934
 3236W        W71630  20.032   0.033   4.300
 3237W        W71631  28.379  27.448   1.302
 3238W        W71632  44.344   0.861   0.039
 3239W        W71633  24.462   6.200  12.269
 3240W        W71634   2.520   8.645   2.203
 3241W        W71635  38.233  19.887   1.751
 3242W        W71636   7.017  42.076  13.108
 3243W        W71637  10.426  11.845   4.523
 3244W        W71638  24.003  21.800  11.177
 3245W        W71639  31.282  14.102  13.460
 3246W        W71640  42.027   1.466  14.904
 3247W        W71641  17.801  32.563   4.213
 3248W        W71642  19.729  36.373   1.039
 3249W        W71643  21.536  15.159   2.142
 3250W        W71644  41.726  11.674   4.797
 3251W        W71645   2.515   7.781   1.310
 3252W        W71646  14.551   2.150  11.171
 3253W        W71647  10.506   4.427   1.833
 3254W        W71648  44.057  27.209   4.122
 3255W        W71649  37.574  14.321   2.895
 3256W        W71650  10.118  29.528  10.659
 3257W        W71651   7.710   9.955  11.577
 3258W        W71652  35.997  24.105  13.745
 3259W        W71653   0.290  16.740  14.634
 3260W        W71654   5.240  36.237   2.704
 3261W        W71655  43.757  30.995  11.168
 3262W        W71656   1.813  17.576  14.251
 3263W        W71657  28.581  35.582  13.363
 3264W        W71658  40.129   4.181  13.899
 3265W        W71659  19.747  29.972  13.917
 3266W        W71660   8.537   5.600   5.093
 3267W        W71661  42.055  43.023  13.802
 3268W        W71662  23.615  27.506   4.025
 3269W        W71663  16.314  12.618   1.899
 3270W        W71664  18.710  34.923  13.521
 3271W        W71665  41.320  28.418  13.474
 3272W        W71666   6.305  24.989   1.065
 3273W        W71667  30.914   2.073  11.181
 3274W        W71668  21.190  10.468  12.922
 3275W        W71669  10.171   5.379  12.909
 3276W        W71670  40.820   9.284   1.512
 3277W        W71671  11.823  31.662  11.702
 3278W        W71672  43.408  22.892  12.623
 3279W        W71673  42.291   0.356  11.600
 3280W        W71674  16.807  30.196   1.884
 3281W        W71675  11.200  18.026  11.764
 3282W        W71676   2.757  24.166   2.739
 3283W        W71677  32.231  16.423   3.764
 3284W        W71678  21.825  36.616  12.785
 3285W        W71679  41.399   1.471  10.749
 3286W        W71680  39.202  38.835  10.867
 3287W        W71681  10.734  33.094   1.442
 3288W        W71682   2.986  25.460   4.053
 3289W        W71683  30.017  31.659  13.560
 3290W        W71684  40.093   8.942  12.891
 3291W        W71685  28.563  18.860   3.260
 3292W        W71686  42.281  16.870  11.465
 3293W        W71687  42.346  39.310   4.117
 3294W        W71688  32.095  21.995  11.541
 3295W        W71689   9.584   3.421   1.374
 3296W        W71690  19.912  35.914   5.100
 3297W        W71691  13.715  14.868  10.451
 3298W        W71692  14.822   3.677  10.175
 3299W        W71693  27.300  28.229   3.221
 3300W        W71694  39.344   8.597   0.059
 3301W        W71695   6.473  42.901  12.609
 3302W        W71696  44.258  17.659   0.046
 3303W        W71697  40.254  31.798   3.340
 3304W        W71698  42.011   1.070   1.223
 3305W        W71699   7.302  17.104  12.140
 3306W        W71700  33.773   3.894  10.548
 3307W        W71701  32.898  22.633   4.932
 3308W        W71702  30.694  30.992  14.980
 3309W        W71703  22.529  23.137   3.250
 3310W        W71704  21.417  28.178   3.662
 3311W        W71705  17.452  28.664  13.075
 3312W        W71706  37.491   6.320  12.777
 3313W        W71707  39.451  23.072   1.339
 3314W        W71708  27.362  40.000  11.347
 3315W        W71709  22.187  36.801   0.401
 3316W        W71710   2.542  15.132   1.508
 3317W        W71711   1.118  41.920   3.166
 3318W        W71712   5.403  33.101   1.872
 3319W        W71713  18.491  41.464  14.849
 3320W        W71714  39.933  11.782   3.160
 3321W        W71715  27.455   8.135  10.715
 3322W        W71716   5.789  16.805   4.825
 3323W        W71717  42.412   3.943  11.822
 3324W        W71718   0.971  21.525  11.254
 3325W        W71719   4.730  11.600   2.198
 3326W        W71720  35.433  15.758  12.965
 3327W        W71721  13.404  18.796   1.726
 3328W        W71722  26.562   7.777   0.015
 3329W        W71723  31.344  24.524  11.975
 3330W        W71724  19.262  42.559   4.139
 3331W        W71725  22.328  28.110  13.513
 3332W        W71726  28.632   1.778  12.851
 3333W        W71727  22.562  30.083  12.226
 3334W        W71728   5.114   5.804  14.062
 3335W        W71729  16.360  44.588  12.064
 3336W        W71730  26.654  28.398  14.326
 3337W        W71731   0.301  32.269  13.541
 3338W        W71732  18.782  40.859   0.974
 3339W        W71733   6.984  22.070  12.867
 3340W        W71734  35.904  40.847   0.799
 3341W        W71735  14.711  44.429   4.656
 3342W        W71736  20.421  15.168   3.769
 3343W        W71737  14.118   7.914  14.937
 3344W        W71738  30.602  24.490   1.474
 3345W        W71739  18.557  18.526   1.784
 3346W        W71740   6.760  31.623   2.781
 3347W        W71741  13.555   9.336   4.572
 3348W        W71742  30.062  10.422  12.734
 3349W        W71743  26.190  41.507  10.685
 3350W        W71744   8.610  41.347   0.938
 3351W        W71745  28.973   2.701   0.914
 3352W        W71746  12.363  22.286   4.330
 3353W        W71747  32.092  15.712  11.393
 3354W        W71748  40.024  41.254  11.925
 3355W        W71749  30.660  37.310   2.456
 3356W        W71750  41.204  35.604   2.816
 3357W        W71751   2.210  22.566   0.291
 3358W        W71752   9.501  36.896  12.049
 3359W        W71753  16.824  22.493   3.179
 3360W        W71754  16.564  26.516   0.400
 3361W        W71755  19.232  21.260  13.409
 3362W        W71756  20.473  41.396   4.592
 3363W        W71757   9.055   1.725   2.767
 3364W        W71758  11.385  22.796   4.623
 3365W        W71759  24.486  20.705   3.302
 3366W        W71760  37.077  13.717  11.866
 3367W        W71761  22.755   2.770   2.248
 3368W        W71762  15.299  22.936  14.438
 3369W        W71763   8.778  36.504   1.917
 3370W        W71764  13.150  18.790   1.264
 3371W        W71765  20.231   5.292  12.770
 3372W        W71766  30.921  34.868  14.830
 3373W        W71767  42.300  30.853  12.511
 3374W        W71768  24.278  19.772  11.316
 3375W        W71769  44.256   3.258   1.480
 3376W        W71770  24.086  41.819  13.928
 3377W        W71771  13.408  13.424  14.880
 3378W        W71772  29.974  16.153   4.086
 3379W        W71773  21.186  30.224   1.649
 3380W        W71774  14.571   1.726   3.648
 3381W        W71775  30.472  13.130   1.745
 3382W        W71776  17.692  19.162   1.502
 3383W        W71777  21.499  41.392   4.676
 3384W        W71778  14.404  28.648   2.845
 3385W        W71779  30.556  22.220   0.864
 3386W        W71780  31.488  27.132  11.326
 3387W        W71781  37.786  17.264  10.620
 3388W        W71782  29.140  26.434  11.111
 3389W        W71783  22.500  17.083  11.657
 3390W        W71784  40.019  37.254  11.432
 3391W        W71785  38.219  26.571  10.891
 3392W        W71786  41.343  33.438   0.932
 3393W        W71787  10.709  42.568   3.751
 3394W        W71788  32.858  10.076  14.054
 3395W        W71789  21.176   8.886   2.360
 3396W        W71790  27.679  34.689  14.685
 3397W        W71791  35.394  37.875  11.630
 3398W        W71792  29.131  19.515  12.598
 3399W        W71793   6.377  10.318   2.357
 3400W        W71794  12.888  38.493   0.396
 3401W        W71795   4.485   7.240   2.204
 3402W        W71796  43.795  11.107  11.701
 3403W        W71797  41.455  38.244   0.434
 3404W        W71798   6.240  11.768  13.992
 3405W        W71799  19.761   1.923   0.220
 3406W        W71800   8.409  42.744  10.643
 3407W        W71801  18.708  40.018  14.321
 3408W        W71802  42.840  22.416  12.977
 3409W        W71803  18.239  42.259  11.621
 3410W        W71804  36.643  15.118  12.023
 3411W        W71805  41.335   4.332   2.798
 3412W        W71806  22.495  19.623   3.362
 3413W        W71807   5.865  28.386   4.141
 3414W        W71808   2.393  17.779   0.459
 3415W        W71809  11.837   3.720  13.895
 3416W        W71810  15.193  38.573   0.230
 3417W        W71811   1.344  28.625   4.775
 3418W        W71812  41.960  28.227  12.763
 3419W        W71813  10.904   5.934   2.564
 3420W        W71814  34.841  10.408  10.881
 3421W        W71815  22.118   1.897   4.451
 3422W        W71816  13.606  28.797   3.228
 3423W        W71817  30.741  44.417  11.545
 3424W        W71818  26.017  13.043  13.420
 3425W        W71819  37.015   6.130  12.067
 3426W        W71820  14.202   2.508   0.296
 3427W        W71821  22.103  29.537   0.227
 3428W        W71822  28.161   0.571  13.017
 3429W        W71823  20.202  18.770  14.922
 3430W        W71824  17.029  38.900  14.351
 3431W        W71825  20.124  25.654  14.281
 3432W        W71826  25.356  17.464   4.010
 3433W        W71827  28.752  17.691  12.973
 3434W        W71828  44.768  15.847   4.548
 3435W        W71829  42.930   7.884  13.427
 3436W        W71830  16.655   8.638   0.846
 3437W        W71831  36.163  10.886   2.347
 3438W        W71832  42.845  26.300  11.097
 3439W        W71833   2.676   6.339  13.100
 3440W        W71834  28.398   4.487  13.984
 3441W        W71835  23.005  40.598   2.901
 3442W        W71836   8.897  31.395  12.149
 3443W        W71837  34.464  19.285  14.768
 3444W        W71838  19.754  36.472  13.008
 3445W        W71839   6.845  21.632  13.131
 3446W        W71840  21.628  19.290   2.175
 3447W        W71841  30.838  37.497  10.598
 3448W        W71842   3.394  20.197  12.381
 3449W        W71843  38.074   0.598  10.981
 3450W        W71844   8.141  10.269  10.734
 3451W        W71845  26.468   7.734   1.331
 3452W        W71846  36.608  11.878  12.559
 3453W        W71847  16.725   3.686   0.003
 3454W        W71848  42.995  19.889  12.057
 3455W        W71849  31.406  37.487   0.028
 3456W        W71850  40.555  40.973  14.246
 3457W        W71851  17.205   1.486   1.172
 3458W        W71852  31.968  25.695   0.313
 3459W        W71853  34.968   3.677  14.416
 3460W        W71854  14.935  42.532  14.375
 3461W        W71855  42.600  21.034  13.381
 3462W        W71856   6.588  21.726  10.625
 3463W        W71857  33.038  13.862   1.841
 3464W        W71858   0.329  42.699   0.234
 3465W        W71859  28.657  33.849   3.678
 3466W        W71860  11.868  37.525  14.862
 3467W        W71861   2.861   4.876  13.860
 3468W        W71862  30.885   4.710   2.638
 3469W        W71863  12.077  34.665  14.266
 3470W        W71864   7.208   9.085  12.895
 3471W        W71865   8.776   3.747  12.903
 3472W        W71866   1.419   5.269  10.882
 3473W        W71867   3.726   8.790   2.000
 3474W        W71868  25.383  29.909   2.816
 3475W        W71869   9.574  18.158  13.734
 3476W        W71870  19.672  25.271  12.487
 3477W        W71871  39.445   6.167  13.489
 3478W        W71872   0.877   2.483   0.009
 3479W        W71873  40.249  26.891   2.136
 3480W        W71874  24.558  27.432   2.311
 3481W        W71875  11.278  44.764   3.856
 3482W        W71876   5.289  33.977  11.145
 3483W        W71877   1.516  16.961   0.866
 3484W        W71878  38.023   8.174   2.209
 3485W        W71879  32.057   3.906  12.155
 3486W        W71880  33.319   7.233  13.656
 3487W        W71881  35.548   1.098   1.378
 3488W        W71882  13.065  39.822   4.491
 3489W        W71883  12.734  31.969  12.628
 3490W        W71884  12.517  32.504   4.639
 3491W        W71885  43.775  40.585   4.206
 3492W        W71886  32.957  22.475   0.334
 3493W        W71887  33.069  19.747   0.132
 3494W        W71888  27.487  13.519  13.779
 3495W        W71889  36.899  39.861   3.089
 3496W        W71890  19.032  43.464  13.115
 3497W        W71891  12.939  42.349   1.419
 3498W        W71892  14.000  42.942  10.299
 3499W        W71893  10.246  13.385  13.109
 3500W        W71894  29.460  12.614  10.065
 3501W        W71895  23.366  14.178  14.807
 3502W        W71896  25.293   0.790   4.550
 3503W        W71897   0.002  13.284   2.727
 3504W        W71898  27.897  28.018  11.400
 3505W        W71899  27.502  10.155  10.622
 3506W        W71900  29.069   5.186   2.870
 3507W        W71901  13.813   0.115  12.602
 3508W        W71902  40.741  42.389   0.942
 3509W        W71903  20.542  37.222  12.107
 3510W        W71904  21.782  33.269  10.741
 3511W        W71905  12.007   2.689   0.198
 3512W        W71906  21.314  10.951  11.227
 3513W        W71907  39.433  25.313  11.526
 3514W        W71908  10.206   1.449   2.816
 3515W        W71909   0.236  14.511   2.825
 3516W        W71910  35.877   5.914   0.181
 3517W        W71911  38.476  34.091  10.829
 3518W        W71912   7.107   4.901   2.654
 3519W        W71913   4.721  20.555   0.413
 3520W        W71914  42.820  17.583  14.955
 3521W        W71915  12.596  15.165   3.189
 3522W        W71916  20.725   9.925   2.815
 3523W        W71917  22.476  19.087  11.907
 3524W        W71918  21.185  40.922   0.307
 3525W        W71919   8.436   5.286  11.144
 3526W        W71920  42.432  12.647  13.099
 3527W        W71921  22.150  15.766  12.932
 3528W        W71922  21.250  17.656   0.218
 3529W        W71923  31.134  21.859  13.861
 3530W        W71924  24.012  43.824   1.675
 3531W        W71925  15.859   0.744   5.152
 3532W        W71926  31.879  10.123   2.187
 3533W        W71927  33.072   4.908  14.891
 3534W        W71928  44.445  22.430  13.266
 3535W        W71929  14.245  38.544  13.876
 3536W        W71930  42.076  33.971  11.027
 3537W        W71931  10.693  27.543  13.525
 3538W        W71932  32.619   5.185  14.947
 3539W        W71933  32.888  33.897   4.550
 3540W        W71934   2.268  15.271  11.428
 3541W        W71935  41.858  17.848   4.044
 3542W        W71936   3.276   8.375   2.691
 3543W        W71937  39.972   3.835   0.310
 3544W        W71938   6.554  40.859  13.956
 3545W        W71939  43.688  32.543  13.291
 3546W        W71940  43.200  20.539   4.085
 3547W        W71941   3.014  32.312   0.715
 3548W        W71942  16.085  43.946   4.655
 3549W        W71943  27.937  27.182   2.641
 3550W        W71944   1.388  43.090   3.676
 3551W        W71945  30.868  30.942   1.798
 3552W        W71946  43.387   3.902  14.828
 3553W        W71947   9.400  21.671  14.813
 3554W        W71948  44.479   8.630  14.746
 3555W        W71949   2.389  44.085   2.359
 3556W        W71950  34.288  10.838   1.690
 3557W        W71951   1.979  10.343   4.523
 3558W        W71952  33.479  36.074   2.767
 3559W        W71953   0.171   1.246   2.820
 3560W        W71954  18.738   0.345  13.321
 3561W        W71955  14.461   8.888  14.848
 3562W        W71956   4.158  25.968   2.812
 3563W        W71957   9.800  30.657  14.039
 3564W        W71958   3.235   9.247  12.080
 3565W        W71959  40.814  44.560  11.234
 3566W        W71960  32.931  39.532   4.312
 3567W        W71961  30.603  24.019   3.796
 3568W        W71962  22.076  40.955  12.283
 3569W        W71963  21.751   0.826  14.837
 3570W        W71964  15.780   2.066   1.612
 3571W        W71965  25.093   1.024   4.084
 3572W        W71966  19.719   6.910   0.081
 3573W        W71967   1.020   4.071  13.350
 3574W        W71968  41.913  44.167   1.624
 3575W        W71969  29.383  31.566  14.024
 3576W        W71970   1.366   5.396  12.373
 3577W        W71971  13.527   9.334   3.643
 3578W        W71972  43.495  39.645  14.940
 3579W        W71973  41.922  40.404   1.982
 3580W        W71974  32.054  15.219  11.096
 3581W        W71975   5.901   4.014   3.561
 3582W        W71976  27.747  32.634   2.084
 3583W        W71977  25.667   2.769  13.864
 3584W        W71978  41.302  20.512  14.343
 3585W        W71979  34.252  43.375  12.559
 3586W        W71980  17.587  22.677  13.489
 3587W        W71981  41.619  16.683   0.217
 3588W        W71982  41.522  12.103   0.228
 3589W        W71983  37.936  30.948   3.934
 3590W        W71984  30.226   1.481  13.835
 3591W        W71985  14.657  12.334  14.914
 3592W        W71986   0.327  28.975   2.101
 3593W        W71987  35.896   8.116  13.692
 3594W        W71988  38.999  40.307   2.688
 3595W        W71989   9.760  10.940  12.166
 3596W        W71990  28.315   7.715  12.444
 3597W        W71991  10.192  29.636  12.036
 3598W        W71992  33.555  10.424  13.032
 3599W        W71993  22.082  21.742   4.171
 3600W        W71994  13.320   3.875   1.777
 3601W        W71995  10.758  44.658   1.362
 3602W        W71996  12.207  21.652  14.680
 3603W        W71997  12.127  35.432  13.138
 3604W        W71998  24.729  22.010   2.788
 3605W        W71999   7.728  10.493   4.187
 3606W        W72000  37.379   8.442  14.558
 3607W        W72001  32.242  39.018  11.676
 3608W        W72002   3.483  32.882  12.983
 3609W        W72003  10.461  16.172  13.783
 3610W        W72004  20.488  11.866  12.012
 3611W        W72005  10.603  44.856  11.861
 3612W        W72006   5.184  41.035   2.129
 3613W        W72007  10.607  10.401   1.843
 3614W        W72008   2.269  42.910   2.422
 3615W        W72009  39.397  35.146   4.094
 3616W        W72010   0.235  39.690  11.455
 3617W        W72011  44.420  10.568   0.816
 3618W        W72012  40.792   7.335  10.781
 3619W        W72013  30.546  19.261   2.419
 3620W        W72014   6.904  17.705   2.089
 3621W        W72015  26.142  17.318  10.959
 3622W        W72016  44.831  35.359   3.666
 3623W        W72017  37.271  26.458   2.260
 3624W        W72018  21.118  43.966   2.835
 3625W        W72019  16.080  28.222   0.307
 3626W        W72020  42.469  14.098   0.845
 3627W        W72021   1.997  31.817   1.196
 3628W        W72022  16.848  22.547   1.480
 3629W        W72023   8.770  32.846   0.363
 3630W        W72024  38.544  28.564  14.434
 3631W        W72025  20.157  25.752  11.616
 3632W        W72026  10.432  30.995   2.707
 3633W        W72027  11.480   7.886   0.519
 3634W        W72028  38.779   3.378   2.869
 3635W        W72029  38.565  14.754  14.684
 3636W        W72030  34.325  25.862   0.376
 3637W        W72031  23.239   5.937  13.924
 3638W        W72032  35.241  13.624   4.805
 3639W        W72033  43.848  42.907  10.555
 3640W        W72034  17.087   8.049  12.512
 3641W        W72035  15.816  35.630   3.660
 3642W        W72036  43.827  41.782   4.726
 3643W        W72037  23.651   0.524   1.307
 3644W        W72038   1.262   9.896  14.399
 3645W        W72039   5.894  29.328  11.640
 3646W        W72040  20.656  15.187  11.705
 3647W        W72041  15.881  20.322   5.111
 3648W        W72042  16.235  35.592   1.151
 3649W        W72043  20.155  23.199   1.840
 3650W        W72044  31.679  44.019  11.653
 3651W        W72045  29.568  38.451   4.616
 3652W        W72046   3.606   0.208  13.440
 3653W        W72047  13.070  37.867  11.433
 3654W        W72048  11.677  14.439   1.741
 3655W        W72049  18.692  22.833  14.287
 3656W        W72050  43.724  32.371   2.137
 3657W        W72051  39.372  11.808   4.274
 3658W        W72052  21.109   9.371   2.238
 3659W        W72053   4.792  44.791  10.219
 3660W        W72054  14.922   9.750   4.841
 3661W        W72055  13.569  17.823   1.884
 3662W        W72056  10.764  14.688  14.768
 3663W        W72057  17.697   0.012  14.830
 3664W        W72058  20.263  25.135   5.596
 3665W        W72059  20.725   6.792   3.761
 3666W        W72060  38.213  43.638   0.905
 3667W        W72061  41.607   7.652  13.943
 3668W        W72062  20.705  27.031   0.536
 3669W        W72063  33.227  11.053   2.306
 3670W        W72064  12.610   2.360  12.610
 3671W        W72065  12.603  28.298   0.760
 3672W        W72066  36.486  33.178   4.157
 3673W        W72067  22.469  15.351  13.787
 3674W        W72068   6.087  26.565   1.807
 3675W        W72069  32.645  44.507   1.661
 3676W        W72070  20.521  27.739  14.449
 3677W        W72071   3.149  20.760   2.211
 3678W        W72072  14.454  23.550   2.955
 3679W        W72073  14.722   9.389  13.969
 3680W        W72074   2.945   7.613  14.050
 3681W        W72075  29.375   6.652   2.622
 3682W        W72076  28.396  33.118  12.878
 3683W        W72077  38.940  15.489  11.994
 3684W        W72078  42.967   9.420   4.400
 3685W        W72079   8.697  39.258   2.336
 3686W        W72080   8.193  43.253  11.461
 3687W        W72081   9.690  21.111  14.059
 3688W        W72082  28.857  31.995   2.688
 3689W        W72083   7.966  43.041   3.607
 3690W        W72084  19.599  42.459  14.989
 3691W        W72085  43.858   5.967   3.828
 3692W        W72086  14.735  15.268  12.841
 3693W        W72087  12.068  12.239  13.317
 3694W        W72088   2.197   3.742  10.962
 3695W        W72089  26.133  24.111   0.299
 3696W        W72090  13.728  21.716   0.727
 3697W        W72091  22.399  31.497   3.895
 3698W        W72092  16.516  11.367   3.160
 3699W        W72093   0.830  13.152   0.736
 3700W        W72094  16.203  19.758   3.084
 3701W        W72095  15.075  18.128   3.203
 3702W        W72096  19.203   4.517   3.831
 3703W        W72097   5.786   1.719  13.065
 3704W        W72098   7.668  11.700  11.784
 3705W        W72099  25.211  39.910  14.796
 3706W        W72100  25.548  36.947  11.397
 3707W        W72101  16.272  14.689   4.311
 3708W        W72102  38.001  14.102  14.875
 3709W        W72103  36.550  32.471  12.850
 3710W        W72104  11.901   0.972   0.611
 3711W        W72105   7.737  38.565  13.699
 3712W        W72106   6.788   5.276   1.373
 3713W        W72107  37.446  12.579  11.692
 3714W        W72108  32.053  21.279  10.622
 3715W        W72109  40.119  25.147   1.241
 3716W        W72110  21.158   9.906  14.105
 3717W        W72111  22.100   8.791   3.212
 3718W        W72112  38.591   7.415   3.342
 3719W        W72113  37.484  29.130   3.612
 3720W        W72114  10.948  37.326  12.852
 3721W        W72115  34.837  39.377  11.307
 3722W        W72116  26.707  38.135   4.899
 3723W        W72117  13.915  13.376  14.929
 3724W        W72118  31.991  33.883  12.472
 3725W        W72119   4.957  20.107   1.157
 3726W        W72120  33.004  35.853   4.588
 3727W        W72121  44.251  41.039  14.249
 3728W        W72122  22.089  12.186  11.422
 3729W        W72123  20.630  22.019  12.829
 3730W        W72124  21.516  27.331  11.207
 3731W        W72125  43.523  29.169  14.492
 3732W        W72126   5.694  42.017  12.032
 3733W        W72127  32.142  13.756  11.628
 3734W        W72128  19.113  42.747   2.301
 3735W        W72129  31.643  25.992  11.914
 3736W        W72130  41.070  13.188   1.863
 3737W        W72131  23.596  14.573   0.458
 3738W        W72132  32.612  11.726   1.618
 3739W        W72133  11.896  27.242  12.462
 3740W        W72134  13.255  24.099  13.093
 3741W        W72135  34.471   0.377   4.548
 3742W        W72136  15.266  35.998  13.611
 3743W        W72137  21.951  41.327   0.473
 3744W        W72138   1.742  13.613  12.930
 3745W        W72139  26.148  30.517   2.832
 3746W        W72140  44.387   4.526  11.511
 3747W        W72141   9.214  32.334  14.814
 3748W        W72142  26.233  20.692  10.786
 3749W        W72143  17.171  23.626   9.681
 3750W        W72144  10.802  41.756  14.768
 3751W        W72145  26.448  12.359  13.503
 3752W        W72146  16.991  30.971   0.764
 3753W        W72147  30.190  14.611  14.293
 3754W        W72148  35.932  41.239   2.123
 3755W        W72149  13.927  24.561  10.793
 3756W        W72150  22.461  35.470   3.204
 3757W        W72151  42.386   6.166  11.994
 3758W        W72152  32.669  44.241   2.110
 3759W        W72153  10.279  29.090  13.727
 3760W        W72154  43.469  15.536   9.928
 3761W        W72155  34.296  43.842   2.714
 3762W        W72156  23.820  28.538   1.837
 3763W        W72157   7.786  16.156   3.274
 3764W        W72158   2.207  18.613   0.790
 3765W        W72159  23.568  25.426  11.620
 3766W        W72160  41.772  26.730  11.305
 3767W        W72161  13.013   5.456   3.624
 3768W        W72162  24.614  31.419  13.064
 3769W        W72163  18.869  22.571   4.484
 3770W        W72164  30.431  30.096   1.511
 3771W        W72165  40.806  17.634  11.505
 3772W        W72166   6.411  34.537   3.172
 3773W        W72167  28.049  44.492   2.167
 3774W        W72168  18.251   7.914  10.760
 3775W        W72169   3.410  37.664  10.763
 3776W        W72170  32.206  37.051  10.742
 3777W        W72171   9.648  39.102  12.594
 3778W        W72172  43.310  35.372  10.033
 3779W        W72173   3.543  11.216   1.476
 3780W        W72174  24.657   5.953  14.028
 3781W        W72175  11.857  26.425  13.955
 3782W        W72176  43.433  31.101  10.750
 3783W        W72177   4.344   0.605  14.978
 3784W        W72178  25.547   0.467   0.869
 3785W        W72179  31.736   2.581   1.197
 3786W        W72180  15.404  39.412  10.618
 3787W        W72181  13.610  44.903   0.001
 3788W        W72182  22.749  19.712  13.623
 3789W        W72183  40.544   6.609   0.634
 3790W        W72184  19.248  22.074   1.824
 3791W        W72185   2.235  14.892   4.260
 3792W        W72186  34.495  29.482   3.326
 3793W        W72187  18.978  35.533   4.312
 3794W        W72188  25.479  19.637  14.011
 3795W        W72189  42.441   3.747  12.309
 3796W        W72190  44.294   7.422  14.067
 3797W        W72191  33.579   1.663   0.939
 3798W        W72192  12.270   5.223  13.268
 3799W        W72193  12.041  23.789  13.386
 3800W        W72194  13.044  38.948   4.803
 3801W        W72195  36.128  41.062  11.992
 3802W        W72196   7.530  38.360  14.396
 3803W        W72197   9.619   6.969   0.488
 3804W        W72198  11.015  38.274   3.989
 3805W        W72199  30.376  41.235  14.321
 3806W        W72200  35.288   0.349  11.526
 3807W        W72201  19.805  28.623  13.434
 3808W        W72202  37.909   2.904  11.923
 3809W        W72203  17.865  36.868  11.918
 3810W        W72204  11.779  25.134   4.157
 3811W        W72205  35.543  19.792  14.885
 3812W        W72206   5.141   7.344  12.928
 3813W        W72207   8.262  28.951   3.127
 3814W        W72208  13.890  10.848  10.966
 3815W        W72209  42.927  31.205  10.404
 3816W        W72210   6.817  38.488  11.198
 3817W        W72211  14.186  19.198   4.035
 3818W        W72212  36.932  41.495   1.297
 3819W        W72213  43.514  37.977   0.841
 3820W        W72214  21.081  13.644  14.008
 3821W        W72215  44.418   2.891  10.231
 3822W        W72216  39.984  42.561   0.058
 3823W        W72217  26.062  33.826   2.134
 3824W        W72218  10.309  38.390  14.500
 3825W        W72219   5.250  41.486   2.371
 3826W        W72220  28.156   3.818  10.442
 3827W        W72221  27.396  25.658  13.444
 3828W        W72222  26.022  25.124   0.311
 3829W        W72223  10.615   1.890  13.535
 3830W        W72224   9.328   6.382  14.911
 3831W        W72225  15.339  42.284  11.669
 3832W        W72226  37.446  13.252  12.448
 3833W        W72227  21.576  33.369   4.845
 3834W        W72228  26.764   5.244   1.680
 3835W        W72229  30.284  18.400  13.839
 3836W        W72230  35.441  41.533  11.596
 3837W        W72231  31.922  13.137   2.786
 3838W        W72232  40.089  10.663   2.386
 3839W        W72233  16.501  18.168  14.983
 3840W        W72234  18.178  29.649   1.909
 3841W        W72235  44.715  12.378  14.746
 3842W        W72236  35.168  33.051  11.863
 3843W        W72237  25.638  25.572  12.015
 3844W        W72238  34.894  17.810   4.402
 3845W        W72239  30.078  34.117   3.238
 3846W        W72240   6.741  32.522   1.216
 3847W        W72241  15.495   5.527   5.325
 3848W        W72242  28.626  23.216   3.864
 3849W        W72243  36.403  24.419  10.415
 3850W        W72244  44.448   6.815   3.571
 3851W        W72245  33.683  40.805  14.856
 3852W        W72246  13.697   9.829  14.463
 3853W        W72247  15.270  44.903  11.375
 3854W        W72248  35.242  21.539  13.878
 3855W        W72249  31.094  24.235  11.624
 3856W        W72250  21.564  34.925  11.478
 3857W        W72251  19.320  40.955  11.204
 3858W        W72252  15.693  42.505   4.598
 3859W        W72253  39.901   3.438  12.557
 3860W        W72254  24.123   3.935   0.801
 3861W        W72255  42.300  37.934   3.160
 3862W        W72256  18.290  42.875  12.511
 3863W        W72257  15.064  30.030   1.858
 3864W        W72258   6.831  10.773   1.708
 3865W        W72259   3.876  44.526  12.991
 3866W        W72260  41.371  19.999  14.386
 3867W        W72261  11.325  27.065  14.484
 3868W        W72262  43.467  39.653  13.435
 3869W        W72263  42.989   3.981   2.807
 3870W        W72264  22.768  31.190  13.891
 3871W        W72265  17.908  43.982   4.064
 3872W        W72266  37.515  20.174   2.882
 3873W        W72267   6.793  32.535   2.261
 3874W        W72268  14.693  34.244   0.911
 3875W        W72269  39.298  33.006   2.810
 3876W        W72270  15.498  28.423  11.901
 3877W        W72271   9.333  16.827  13.838
 3878W        W72272  16.701  24.764  13.438
 3879W        W72273  25.092  16.157   3.152
 3880W        W72274  18.382  27.924  14.898
 3881W        W72275  32.371   9.353  11.335
 3882W        W72276   9.160  24.289  13.392
 3883W        W72277   6.981  13.320   3.334
 3884W        W72278  32.513   7.304   4.710
 3885W        W72279  35.524   0.700  13.695
 3886W        W72280  15.120  13.259  11.418
 3887W        W72281  19.101  16.080  13.356
 3888W        W72282  40.550   7.339   3.853
 3889W        W72283  34.377  20.090  14.399
 3890W        W72284   4.912  29.334  12.660
 3891W        W72285  15.762  24.429   4.553
 3892W        W72286  26.905  17.312   2.469
 3893W        W72287  28.228  23.524  12.303
 3894W        W72288  44.054  22.291   2.752
 3895W        W72289  28.488   3.250   0.107
 3896W        W72290  43.796  15.666  13.568
 3897W        W72291   8.625  39.270   1.365
 3898W        W72292  31.317   6.189   0.462
 3899W        W72293  18.880   6.161   0.960
 3900W        W72294  23.010  17.711   4.171
 3901W        W72295   7.389  36.162   3.151
 3902W        W72296  38.521  40.086   2.705
 3903W        W72297  44.748  42.453  14.012
 3904W        W72298   2.491  25.896   0.476
 3905W        W72299  39.065  43.803  13.377
 3906W        W72300  26.605   8.834  10.704
 3907W        W72301  30.855  15.964   0.989
 3908W        W72302  11.267  28.613  13.549
 3909W        W72303  13.158  25.060   3.309
 3910W        W72304  42.061  42.781   3.414
 3911W        W72305   7.098  43.910   0.838
 3912W        W72306  25.034  22.651   1.396
 3913W        W72307  36.355   0.807   3.836
 3914W        W72308   0.991  26.518   4.943
 3915W        W72309  19.875  12.674   2.346
 3916W        W72310  20.803  12.701  13.846
 3917W        W72311  39.960  32.145  14.709
 3918W        W72312   7.823  28.024  14.253
 3919W        W72313  21.631  41.740   0.462
 3920W        W72314   0.136   7.382   3.813
 3921W        W72315  17.747  31.467   0.817
 3922W        W72316  29.181  16.441   2.223
 3923W        W72317  10.168  34.986  14.509
 3924W        W72318   4.913   4.864   2.753
 3925W        W72319  29.712  30.788  10.258
 3926W        W72320  44.524  27.023  13.322
 3927W        W72321   3.649  35.891   3.620
 3928W        W72322  15.960   3.837  11.181
 3929W        W72323  39.984  12.232   2.892
 3930W        W72324  27.247   2.291  14.430
 3931W        W72325  42.988  12.662  14.399
 3932W        W72326  42.387  25.020   2.318
 3933W        W72327  26.228  13.891  11.612
 3934W        W72328  37.142  43.348  12.972
 3935W        W72329  17.213  14.409   2.655
 3936W        W72330  24.929  10.440  11.672
 3937W        W72331  18.249  42.898   0.127
 3938W        W72332  10.310  20.915  11.036
 3939W        W72333  10.425  27.421  12.180
 3940W        W72334  37.452  42.430   1.749
 3941W        W72335  13.638  40.419  12.307
 3942W        W72336  30.538  23.639  10.666
 3943W        W72337  21.026  40.911  12.504
 3944W        W72338  32.867   0.465   3.658
 3945W        W72339  36.575  29.509   0.360
 3946W        W72340  31.472  33.564   1.672
 3947W        W72341  39.399  25.150   4.504
 3948W        W72342   7.936  29.540  11.227
 3949W        W72343  44.995   2.093  11.071
 3950W        W72344   8.884  34.278   4.536
 3951W        W72345  10.157   1.955   2.790
 3952W        W72346  22.461   2.059  11.254
 3953W        W72347  11.428  39.494  11.468
 3954W        W72348  42.987  43.051   1.731
 3955W        W72349  11.310  40.492   4.584
 3956W        W72350   2.427   5.298   2.158
 3957W        W72351  42.247  11.098   4.111
 3958W        W72352  33.201   0.300   4.015
 3959W        W72353  17.270  16.354  13.331
 3960W        W72354  38.464  23.237  11.711
 3961W        W72355  26.086  20.050   4.590
 3962W        W72356   0.278  18.704   4.898
 3963W        W72357  40.578  22.429  14.247
 3964W        W72358  11.628   8.320   3.801
 3965W        W72359   7.477  44.757   2.717
 3966W        W72360  33.772   6.894  12.170
 3967W        W72361  22.478  30.197   3.446
 3968W        W72362  29.155   2.209   2.063
 3969W        W72363  16.139   2.475  11.200
 3970W        W72364  38.967   6.999   0.377
 3971W        W72365  14.895  39.412   1.768
 3972W        W72366  16.631  21.164   1.448
 3973W        W72367  16.239  30.014  13.511
 3974W        W72368  44.697  10.637  11.344
 3975W        W72369  37.077  21.633   0.285
 3976W        W72370  32.709  34.621   0.819
 3977W        W72371  19.651  39.348  10.679
 3978W        W72372  15.367  34.868   0.876
 3979W        W72373  31.041   7.409   3.649
 3980W        W72374  19.258  23.048  10.637
 3981W        W72375   5.150  23.037   4.209
 3982W        W72376  38.776  24.395   1.229
 3983W        W72377  13.760   8.244  14.754
 3984W        W72378  26.479  24.967   3.453
 3985W        W72379   4.960   8.149  13.076
 3986W        W72380  42.781   3.892  11.405
 3987W        W72381   7.816  24.802   3.714
 3988W        W72382  11.845  38.505   2.121
 3989W        W72383  37.622  10.062  12.761
 3990W        W72384  34.282   5.586  14.342
 3991W        W72385  43.066  33.613  13.783
 3992W        W72386  43.027  25.781   3.255
 3993W        W72387  33.912  40.621   3.857
 3994W        W72388   0.790   8.689   5.107
 3995W        W72389  10.090  11.463  10.314
 3996W        W72390  26.167  39.905   2.168
 3997W        W72391  19.200   9.017  12.856
 3998W        W72392  38.824  43.416  13.656
 3999W        W72393  36.946  37.866   3.667
 4000W        W72394  35.419   3.272  14.985
 4001W        W72395  29.504  36.033   0.038
 4002W        W72396  12.666  24.748   4.968
 4003W        W72397   3.455  18.599   4.160
 4004W        W72398  28.385  37.028  11.239
 4005W        W72399  17.138  20.757   2.969
 4006W        W72400  20.727  35.148  14.450
 4007W        W72401  17.321  23.642   0.440
 4008W        W72402  31.569  21.244   3.475
 4009W        W72403  27.495  22.263  10.606
 4010W        W72404   7.175  43.610   2.124
 4011W        W72405   6.678  13.115   4.617
 4012W        W72406  29.397  13.750  12.416
 4013W        W72407  38.815   7.611  11.586
 4014W        W72408  30.358  43.020  10.931
 4015W        W72409  24.257   0.815   4.575
 4016W        W72410  38.664  37.350  13.437
 4017W        W72411  37.808  18.590  11.198
 4018W        W72412   2.470  29.943  13.434
 4019W        W72413  43.852  31.664   3.636
 4020W        W72414  25.739  17.837   1.627
 4021W        W72415  41.583   6.237   3.257
 4022W        W72416  43.869  21.000  10.459
 4023W        W72417  26.494   6.235   0.515
 4024W        W72418  36.468  43.231   1.335
 4025W        W72419  34.964   4.900   1.958
 4026W        W72420  21.094  35.872  13.083
 4027W        W72421  39.389   2.866   1.275
 4028W        W72422  28.563  15.550  10.665
 4029W        W72423  22.466  29.257  14.769
 4030W        W72424   7.146  32.547   3.921
 4031W        W72425  36.517  13.381   4.545
 4032W        W72426  41.488   7.179   4.260
 4033W        W72427  36.896  44.087   0.379
 4034W        W72428  16.216  29.821   4.112
 4035W        W72429  32.652  19.986  13.345
 4036W        W72430  10.382  18.008  13.404
 4037W        W72431  32.867  22.646   0.808
 4038W        W72432  29.263  21.538  14.924
 4039W        W72433   9.830   9.057  14.320
 4040W        W72434  26.023   2.686   0.291
 4041W        W72435  22.021  13.247   4.087
 4042W        W72436  38.965  21.202  14.062
 4043W        W72437  21.674  29.085  14.347
 4044W        W72438   1.423  27.997  14.037
 4045W        W72439  25.522  37.275   1.743
 4046W        W72440  38.456  21.812   0.428
 4047W        W72441   1.381  29.461  13.427
 4048W        W72442   0.349  41.192  10.442
 4049W        W72443  39.499  36.502  12.104
 4050W        W72444   4.993  24.669  14.930
 4051W        W72445   3.674  27.685   0.633
 4052W        W72446  28.183  22.709  14.293
 4053W        W72447  42.296  20.472   4.529
 4054W        W72448  15.645  34.474  11.226
 4055W        W72449  23.617  23.509  12.868
 4056W        W72450  25.102  44.525  13.970
 4057W        W72451  32.106  17.667   4.122
 4058W        W72452  22.623   4.292   3.742
 4059W        W72453   7.734  22.167   1.722
 4060W        W72454  19.193  21.953   0.952
 4061W        W72455  39.887  10.577  11.085
 4062W        W72456  41.788  42.477  11.655
 4063W        W72457  25.004  42.616  11.597
 4064W        W72458  14.203  38.809  10.186
 4065W        W72459   1.196  23.292  12.102
 4066W        W72460  30.191  16.188   1.320
 4067W        W72461  39.922   5.196   2.737
 4068W        W72462  21.752   5.500   2.294
 4069W        W72463  25.071   1.703   3.646
 4070W        W72464  13.083  19.576  11.106
 4071W        W72465  11.161  33.696   3.175
 4072W        W72466   1.814  37.561   1.294
 4073W        W72467  32.624  33.468   3.691
 4074W        W72468  30.584   5.881   1.355
 4075W        W72469  31.652  13.013   0.376
 4076W        W72470  23.621   5.957  14.406
 4077W        W72471  23.955  40.138  13.334
 4078W        W72472  39.793  20.827   1.244
 4079W        W72473   0.439  30.940  13.864
 4080W        W72474  22.610   7.285  10.875
 4081W        W72475   6.661  16.731  12.909
 4082W        W72476  37.010  33.850   2.679
 4083W        W72477   4.851  42.587   4.636
 4084W        W72478  32.345  39.556  12.464
 4085W        W72479  17.436  20.314   2.305
 4086W        W72480   4.846  34.710   4.086
 4087W        W72481  18.227  12.828  11.273
 4088W        W72482  41.584  40.354   0.952
 4089W        W72483   1.703  29.570  12.079
 4090W        W72484  41.010  24.141  11.208
 4091W        W72485   1.004   2.418  10.232
 4092W        W72486  44.898  10.665   0.614
 4093W        W72487   8.874   1.986  12.189
 4094W        W72488   6.275  40.848  11.941
 4095W        W72489  42.703  36.402  12.943
 4096W        W72490  37.321   8.190   0.940
 4097W        W72491  39.967  42.723  11.056
 4098W        W72492  41.331  37.568  13.387
 4099W        W72493   6.477   9.123  11.875
 4100W        W72494  18.809   4.439  13.024
 4101W        W72495  19.531  28.070   1.830
 4102W        W72496  35.198  34.981   1.380
 4103W        W72497  21.491  32.187   3.168
 4104W        W72498  11.696  18.764   2.731
 4105W        W72499  34.043   6.797   4.582
 4106W        W72500  10.194  25.517  13.865
 4107W        W72501  33.317  17.531  14.923
 4108W        W72502   7.813   7.016   1.184
 4109W        W72503  36.969   2.406  11.365
 4110W        W72504  29.058  15.015  11.252
 4111W        W72505  32.999   8.157  13.422
 4112W        W72506  23.328  13.218   4.818
 4113W        W72507  24.242  29.312   2.359
 4114W        W72508  19.763  24.765   3.709
 4115W        W72509  13.133  19.960   0.927
 4116W        W72510   2.284  44.989  12.653
 4117W        W72511   2.146  28.036  13.460
 4118W        W72512  31.511  24.717  14.881
 4119W        W72513  44.791   6.197  12.218
 4120W        W72514  39.914  34.974   2.718
 4121W        W72515   0.053  44.174   0.277
 4122W        W72516  36.369  44.531   1.919
 4123W        W72517  26.009  39.697   2.621
 4124W        W72518   6.160   7.740  13.858
 4125W        W72519  14.101  38.044  13.904
 4126W        W72520   5.177  30.042  10.358
 4127W        W72521  41.104  14.039   2.871
 4128W        W72522  44.946   0.666   4.405
 4129W        W72523  36.146  24.982  14.574
 4130W        W72524  24.668  27.395   3.785
 4131W        W72525  13.071  44.879   0.001
 4132W        W72526   0.262  23.230  12.979
 4133W        W72527  10.641  37.214   0.734
 4134W        W72528  33.983  28.739  11.481
 4135W        W72529  14.836  25.086   1.845
 4136W        W72530  27.949  44.174   2.562
 4137W        W72531  20.167   2.861   3.147
 4138W        W72532  34.261   8.908  10.674
 4139W        W72533  11.069   4.406   0.896
 4140W        W72534  30.190  39.601   3.512
 4141W        W72535  11.664  39.495  12.795
 4142W        W72536  35.842   2.896  13.593
 4143W        W72537  15.109   3.164  12.076
 4144W        W72538   6.430  33.473   1.720
 4145W        W72539   4.212  44.471   1.342
 4146W        W72540   3.627  38.528  12.640
 4147W        W72541  23.217   6.900  10.373
 4148W        W72542  39.529  37.946  13.592
 4149W        W72543  43.401  15.415   3.670
 4150W        W72544   2.868   4.432  12.862
 4151W        W72545  36.522   4.318   4.571
 4152W        W72546  35.137   6.702   3.731
 4153W        W72547  38.201  16.055   0.484
 4154W        W72548   0.156   7.858  11.843
 4155W        W72549  25.466  19.122  11.076
 4156W        W72550  17.189   9.392   1.320
 4157W        W72551  15.835  12.102  12.470
 4158W        W72552   4.388  44.365   4.551
 4159W        W72553  25.698   1.287  14.054
 4160W        W72554  41.434  18.554   3.628
 4161W        W72555   8.049   6.513   0.838
 4162W        W72556   4.420  30.335  11.362
 4163W        W72557  18.932  23.502   1.212
 4164W        W72558  10.331  30.110   4.272
 4165W        W72559  11.706  27.329   4.195
 4166W        W72560  13.612   8.412  11.461
 4167W        W72561  20.474   0.470   0.631
 4168W        W72562  22.648  38.082   1.743
 4169W        W72563  27.851   1.253   4.974
 4170W        W72564  24.286  16.568   4.462
 4171W        W72565  39.985  17.318  11.597
 4172W        W72566  39.475  30.963   2.212
 4173W        W72567  33.096   9.467  12.222
 4174W        W72568  38.988  31.973   3.643
 4175W        W72569  27.540  28.423   2.277
 4176W        W72570   9.340   2.088   4.020
 4177W        W72571  18.127  10.397   2.844
 4178W        W72572  14.058  18.919   2.525
 4179W        W72573  32.143   1.439  14.481
 4180W        W72574   9.970  17.017  11.525
 4181W        W72575  26.296  35.579   1.460
 4182W        W72576   4.670  28.549   1.440
 4183W        W72577  27.444  29.997   1.354
 4184W        W72578  35.467  36.579   3.763
 4185W        W72579   3.309  39.725  13.124
 4186W        W72580  20.341   0.305  14.218
 4187W        W72581   7.271  31.647   0.316
 4188W        W72582   2.982  40.802  14.687
 4189W        W72583  43.448   2.633  14.689
 4190W        W72584  40.101  42.204  10.755
 4191W        W72585  22.142  28.358   2.225
 4192W        W72586  39.418  43.415   4.472
 4193W        W72587  19.431  42.969   3.617
 4194W        W72588  38.940   2.073   1.365
 4195W        W72589   2.435  10.785  13.090
 4196W        W72590  28.482   1.035   1.890
 4197W        W72591  27.228  11.333  11.155
 4198W        W72592   3.884  42.770  13.515
 4199W        W72593   1.908   9.198  10.965
 4200W        W72594  16.519  28.418   4.457
 4201W        W72595  17.826  15.650  10.812
 4202W        W72596  38.326  44.342   3.287
 4203W        W72597   9.192  25.245   2.361
 4204W        W72598   8.171   6.880   2.450
 4205W        W72599  13.697   0.545  14.938
 4206W        W72600  27.198  40.804   3.281
 4207W        W72601   4.044  39.966   0.862
 4208W        W72602  42.517  20.083  14.037
 4209W        W72603  43.117  26.343  14.019
 4210W        W72604  35.495  13.391   0.465
 4211W        W72605  14.393  20.238   4.177
 4212W        W72606  38.006  33.799   2.850
 4213W        W72607   1.368  22.540  12.553
 4214W        W72608  13.047  18.266   5.127
 4215W        W72609  42.263  10.081   4.234
 4216W        W72610  24.180   7.734  13.516
 4217W        W72611  30.472  33.566   4.550
 4218W        W72612  17.645  43.502  14.472
 4219W        W72613  16.606  29.386  10.681
 4220W        W72614  23.207   0.759  12.953
 4221W        W72615  38.585   8.942  14.290
 4222W        W72616  21.973  36.808   4.556
 4223W        W72617   5.456  27.550  11.491
 4224W        W72618  21.259  35.665  11.250
 4225W        W72619  44.938  28.993  11.146
 4226W        W72620  14.649  28.144  12.077
 4227W        W72621   0.338  30.853   1.764
 4228W        W72622  17.716  27.967  13.586
 4229W        W72623  20.749  39.927   0.361
 4230W        W72624  30.991   5.348   1.972
 4231W        W72625   0.718  26.669   3.672
 4232W        W72626  25.975  18.281   1.727
 4233W        W72627  38.103   6.253  13.433
 4234W        W72628  41.302   3.707  11.554
 4235W        W72629  12.545   5.650   1.864
 4236W        W72630  41.346  22.129   4.423
 4237W        W72631  15.831  21.041  13.023
 4238W        W72632  42.587  11.148  13.412
 4239W        W72633  38.802  20.467  14.398
 4240W        W72634  24.296  21.761   2.699
 4241W        W72635  42.444  28.380  10.757
 4242W        W72636  38.662  39.277  12.125
 4243W        W72637   4.687  40.304   2.197
 4244W        W72638  35.509  32.115  14.963
 4245W        W72639  21.310  24.777  11.122
 4246W        W72640  15.272  14.236   3.113
 4247W        W72641  16.752  17.177  13.327
 4248W        W72642  21.604  42.432   4.633
 4249W        W72643  12.163  41.530   1.911
 4250W        W72644  14.729  21.568  12.452
 4251W        W72645   2.847   2.636  14.884
 4252W        W72646  35.642  41.375   2.888
 4253W        W72647  30.150  35.786   4.770
 4254W        W72648  39.451  39.518  11.715
 4255W        W72649  23.360  14.916  12.898
 4256W        W72650  17.731  40.813   0.170
 4257W        W72651  12.409  28.399  12.178
 4258W        W72652  44.987   9.267  10.735
 4259W        W72653  21.797  34.484  13.968
 4260W        W72654  41.524  20.271   4.148
 4261W        W72655  33.877   6.958  11.655
 4262W        W72656  35.947  24.522   2.260
 4263W        W72657  14.885  34.730   0.925
 4264W        W72658  31.157  24.986   0.231
 4265W        W72659   6.257  43.054  12.110
 4266W        W72660  10.416   1.831   3.222
 4267W        W72661   3.725  14.558  12.550
 4268W        W72662   8.597  36.177  12.478
 4269W        W72663  19.544  35.484  14.759
 4270W        W72664   6.911  35.317  14.695
 4271W        W72665   2.964   9.334   0.353
 4272W        W72666  12.875  25.987   4.241
 4273W        W72667   9.947   3.478   4.359
 4274W        W72668  23.526  30.116   1.179
 4275W        W72669   3.292  32.928   1.189
 4276W        W72670  31.134   7.947   4.748
 4277W        W72671  44.273  27.132  12.334
 4278W        W72672   7.820  17.539   4.226
 4279W        W72673  44.931   4.633  10.728
 4280W        W72674  10.763  10.580  10.633
 4281W        W72675  43.269  20.728   2.721
 4282W        W72676  14.403  40.427   4.139
 4283W        W72677   5.729  31.757  11.631
 4284W        W72678  25.976  41.887   2.781
 4285W        W72679   4.905  13.683   3.441
 4286W        W72680  28.430  42.932  13.438
 4287W        W72681  28.119  20.701  11.058
 4288W        W72682  38.787  18.771   2.378
 4289W        W72683   6.458  12.304  10.311
 4290W        W72684  39.473  42.171   2.742
 4291W        W72685  26.104   8.666   4.544
 4292W        W72686   2.833   4.948   2.310
 4293W        W72687  21.725  27.663   1.312
 4294W        W72688  20.989   2.773   4.362
 4295W        W72689   0.119  36.403   5.104
 4296W        W72690   4.264  35.431  12.906
 4297W        W72691  20.391  26.010  12.460
 4298W        W72692  19.349  44.838   3.731
 4299W        W72693   5.879  40.547   2.944
 4300W        W72694   8.130  40.314   3.436
 4301W        W72695   4.020   8.811   0.910
 4302W        W72696  36.978   7.876  14.057
 4303W        W72697  23.227  35.955   0.769
 4304W        W72698  16.611  27.232  10.653
 4305W        W72699  22.260   8.197   0.808
 4306W        W72700  13.155  35.338   1.341
 4307W        W72701  10.590  31.244   1.947
 4308W        W72702   2.617   3.893  14.788
 4309W        W72703  32.400  20.973   2.880
 4310W        W72704  19.529  32.771   1.713
 4311W        W72705  25.575  36.474  11.159
 4312W        W72706  38.350  12.528   3.786
 4313W        W72707   3.405  26.119  11.846
 4314W        W72708  16.196  21.079  14.799
 4315W        W72709   2.041   5.903   2.810
 4316W        W72710  31.683  29.433  13.881
 4317W        W72711  40.020  44.627  12.271
 4318W        W72712  20.174  13.887   0.481
 4319W        W72713  15.579  29.475  10.789
 4320W        W72714  27.499  40.038   0.465
 4321W        W72715  10.601   2.365   3.945
 4322W        W72716  33.936  29.371  12.772
 4323W        W72717   2.425  43.592  13.312
 4324W        W72718  31.559  21.680   3.163
 4325W        W72719  29.529  23.983  14.154
 4326W        W72720  32.179   5.063   1.936
 4327W        W72721   9.770  10.039   3.936
 4328W        W72722  44.031  33.133   3.309
 4329W        W72723   4.410   1.102   0.972
 4330W        W72724   2.004  16.922   1.758
 4331W        W72725   9.239  10.885   2.560
 4332W        W72726   9.759  34.287  10.549
 4333W        W72727  20.993  29.159  12.202
 4334W        W72728  38.278  42.947   3.157
 4335W        W72729   5.987  22.358  13.622
 4336W        W72730   6.892   5.717  13.389
 4337W        W72731  31.059  17.789  14.885
 4338W        W72732  14.055  33.042  14.117
 4339W        W72733   5.416  33.155  11.556
 4340W        W72734  37.812   4.339   2.806
 4341W        W72735   5.852  12.296   1.853
 4342W        W72736  28.087  18.319   0.142
 4343W        W72737  20.053  38.015  14.583
 4344W        W72738  12.142   0.972   4.194
 4345W        W72739  26.713  25.544  11.124
 4346W        W72740   6.972   2.344   1.917
 4347W        W72741   0.768   2.019  14.797
 4348W        W72742  38.060  31.935   2.242
 4349W        W72743  10.228  29.839  11.520
 4350W        W72744  30.194  42.357  11.136
 4351W        W72745  25.578  39.372  14.398
 4352W        W72746  21.120  12.387   3.664
 4353W        W72747  31.694  10.327   3.212
 4354W        W72748  14.166  27.022   3.842
 4355W        W72749  30.173  27.003  12.514
 4356W        W72750  16.780  10.154  12.782
 4357W        W72751  14.589  42.007   3.556
 4358W        W72752  11.130   0.779   4.124
 4359W        W72753   8.578  22.230   2.448
 4360W        W72754   9.423  32.807  12.923
 4361W        W72755  33.884  38.414   2.619
 4362W        W72756   7.875  23.125  14.406
 4363W        W72757  23.933  19.269  11.029
 4364W        W72758   1.042   0.763  12.783
 4365W        W72759  37.585  24.479  13.977
 4366W        W72760  21.562  32.483   4.737
 4367W        W72761  29.958  19.306  11.982
 4368W        W72762  22.710  25.711  13.516
 4369W        W72763  19.546  35.142  11.673
 4370W        W72764   3.916   8.326   4.887
 4371W        W72765  37.819  31.692  12.391
 4372W        W72766  29.056  23.150  14.627
 4373W        W72767   1.788  25.965  11.728
 4374W        W72768  40.788  21.056   5.122
 4375W        W72769   1.969  43.269  14.908
 4376W        W72770   2.366  27.153   0.946
 4377W        W72771   6.807  34.473   0.250
 4378W        W72772  40.522  42.564  13.783
 4379W        W72773  15.245   5.188  12.487
 4380W        W72774  30.546  22.522   1.429
 4381W        W72775  35.853  14.810   4.338
 4382W        W72776  19.335  39.044  11.106
 4383W        W72777  20.960   7.463  11.558
 4384W        W72778   6.477  39.053  14.527
 4385W        W72779   8.119  30.731   2.602
 4386W        W72780   8.382  25.603   1.409
 4387W        W72781  24.547  20.783   4.139
 4388W        W72782  32.396   2.049   0.824
 4389W        W72783  15.841  23.193  14.102
 4390W        W72784  22.192  24.197   4.648
 4391W        W72785  28.896   5.860  12.433
 4392W        W72786   8.633  29.868   1.921
 4393W        W72787   9.945  24.071  12.808
 4394W        W72788  18.181  32.497   1.935
 4395W        W72789   3.272  25.730  11.522
 4396W        W72790   2.785  16.665  14.547
 4397W        W72791  19.091  37.519  14.063
 4398W        W72792  22.062  36.247  13.069
 4399W        W72793  27.691  13.260   3.338
 4400W        W72794  32.667   5.940   2.316
 4401W        W72795  17.036  13.787   4.057
 4402W        W72796  20.989  33.917  14.076
 4403W        W72797  20.255  12.340   4.186
 4404W        W72798   7.590  34.561  14.951
 4405W        W72799  35.281  33.204  10.461
 4406W        W72800  17.101  11.465   4.801
 4407W        W72801  27.251  19.226   1.853
 4408W        W72802   6.853   8.905  10.658
 4409W        W72803  36.502  35.936   4.486
 4410W        W72804  29.221  21.985   0.835
 4411W        W72805  42.230  20.806   1.754
 4412W        W72806   6.737  15.598  14.831
 4413W        W72807   8.331   7.114   3.298
 4414W        W72808  16.644   7.383   3.678
 4415W        W72809  40.998  11.824   2.252
 4416W        W72810  19.049  28.216   1.701
 4417W        W72811  11.380  13.135  12.553
 4418W        W72812  41.773  41.836   3.102
 4419W        W72813  43.289  19.157   0.800
 4420W        W72814  43.479  23.740   3.760
 4421W        W72815  11.271  12.269   4.509
 4422W        W72816  24.534   5.463  13.917
 4423W        W72817   6.998  23.574   4.115
 4424W        W72818  43.475   3.408   2.287
 4425W        W72819   0.238  26.154  13.028
 4426W        W72820  18.283  28.141   0.363
 4427W        W72821  10.855  44.861   0.030
 4428W        W72822  23.582  17.983  14.389
 4429W        W72823  39.324   4.689  12.498
 4430W        W72824  25.316  16.544   3.405
 4431W        W72825   2.077  28.051  12.499
 4432W        W72826   6.861  22.181  13.918
 4433W        W72827   3.827  33.406  13.469
 4434W        W72828  27.578  32.817   3.244
 4435W        W72829   0.951  44.557  10.828
 4436W        W72830  28.465  23.044   1.033
 4437W        W72831  36.183  18.058   3.385
 4438W        W72832  40.917  39.347   2.331
 4439W        W72833  31.006  25.064   2.309
 4440W        W72834   6.167  13.396   0.340
 4441W        W72835   7.946   1.340  12.964
 4442W        W72836  40.452  15.333   1.278
 4443W        W72837  28.041  41.604  10.249
 4444W        W72838  20.292   8.373  14.770
 4445W        W72839  19.580  14.847   0.866
 4446W        W72840  18.904  13.304  11.146
 4447W        W72841  12.585  25.768   0.341
 4448W        W72842   0.937  40.409  14.387
 4449W        W72843  30.825  44.357   1.012
 4450W        W72844  19.707   5.219  12.056
 4451W        W72845  22.047   5.019  11.953
 4452W        W72846  12.950  14.696   4.154
 4453W        W72847  24.687  26.467  12.864
 4454W        W72848  36.290  18.902  14.256
 4455W        W72849  25.594  25.200   2.076
 4456W        W72850  39.208   2.695  10.904
 4457W        W72851  28.655  22.066   2.620
 4458W        W72852  28.751  43.295  11.095
 4459W        W72853  13.256  40.602   4.400
 4460W        W72854  41.897  14.133  13.682
 4461W        W72855   7.115  28.575   0.448
 4462W        W72856  42.497  42.327   0.694
 4463W        W72857  36.946  39.222   1.330
 4464W        W72858  15.623  23.631  11.969
 4465W        W72859  40.880  44.897  13.701
 4466W        W72860  40.816  40.250   3.189
 4467W        W72861  19.911   4.411   3.249
 4468W        W72862  16.710  31.412   0.818
 4469W        W72863  13.696  44.217   4.243
 4470W        W72864  43.623  28.072   0.994
 4471W        W72865   5.768  12.247   2.778
 4472W        W72866   8.346   3.943  13.895
 4473W        W72867  32.665  30.587   0.299
 4474W        W72868  10.727  40.483  13.806
 4475W        W72869  17.755  32.954   4.634
 4476W        W72870   9.737  29.869  12.143
 4477W        W72871  24.002  26.972  14.259
 4478W        W72872  23.142  25.484   0.400
 4479W        W72873  38.342  41.541  13.889
 4480W        W72874  20.343  38.862  10.908
 4481W        W72875  12.068  10.300  13.162
 4482W        W72876  20.840   2.576   2.431
 4483W        W72877  35.139  33.990  10.942
 4484W        W72878  21.315  23.058   0.327
 4485W        W72879   0.095  11.110   0.806
 4486W        W72880  42.738  10.336  11.203
 4487W        W72881   6.746  21.020  11.543
 4488W        W72882   0.418  20.188  13.043
 4489W        W72883  18.514  22.454  13.727
 4490W        W72884   1.234   0.086   1.666
 4491W        W72885  39.818  43.084   0.398
 4492W        W72886   1.995   5.787   3.773
 4493W        W72887  35.645  17.155  11.528
 4494W        W72888  44.558  11.186   3.225
 4495W        W72889  32.546   9.835  11.411
 4496W        W72890   0.218  33.871  12.145
 4497W        W72891  22.949  12.702  11.502
 4498W        W72892  10.613  25.224  13.312
 4499W        W72893  24.895   8.170  10.631
 4500W        W72894   1.084  13.790   5.457
 4501W        W72895  36.154  12.040  14.273
 4502W        W72896  44.689  32.703   0.229
 4503W        W72897  35.350  29.485   0.761
 4504W        W72898  34.136  19.505   2.824
 4505W        W72899  21.060  38.981   4.678
 4506W        W72900  20.720  40.824   3.913
 4507W        W72901  16.404  27.486  13.018
 4508W        W72902   9.343  38.784  12.896
 4509W        W72903  15.365   6.293   2.820
 4510W        W72904  10.634   2.878  12.520
 4511W        W72905  15.114  22.726  11.513
 4512W        W72906  11.891   5.165  11.810
 4513W        W72907   8.611  22.946  12.962
 4514W        W72908  41.272   2.771   4.116
 4515W        W72909   2.077  31.612  14.865
 4516W        W72910  24.478  27.370   3.278
 4517W        W72911  31.681  36.157   2.243
 4518W        W72912  17.743  41.692  11.103
 4519W        W72913   1.450  42.531  14.983
 4520W        W72914  34.344  44.985   3.670
 4521W        W72915  15.853  23.728  10.414
 4522W        W72916  15.593  15.752   3.696
 4523W        W72917  11.588  18.978  13.816
 4524W        W72918  42.843  17.866  11.676
 4525W        W72919  38.100   8.000   0.862
 4526W        W72920  42.939  18.608   4.296
 4527W        W72921  19.227  38.059  13.351
 4528W        W72922  18.514   4.282   2.820
 4529W        W72923  40.358  33.512   3.097
 4530W        W72924  36.443  31.649  12.448
 4531W        W72925   4.813   6.452  11.530
 4532W        W72926   9.139   0.852  10.595
 4533W        W72927   9.820  42.243  12.504
 4534W        W72928  42.745  22.066   3.231
 4535W        W72929  43.914  14.187  12.409
 4536W        W72930  35.608  21.496   2.700
 4537W        W72931  33.633  30.389  13.151
 4538W        W72932   0.341   3.511  13.036
 4539W        W72933  18.818  39.461  13.130
 4540W        W72934  35.580   2.783  14.986
 4541W        W72935  28.487  24.685  11.946
 4542W        W72936  29.038   0.403  11.731
 4543W        W72937  38.018  40.875  13.488
 4544W        W72938  13.620   1.394   1.082
 4545W        W72939   2.169  34.422   0.745
 4546W        W72940  10.607  18.175  10.781
 4547W        W72941  34.169  17.353   0.474
 4548W        W72942  17.166  24.586  14.220
 4549W        W72943  13.236   6.014  14.075
 4550W        W72944  27.426  23.747  14.706
 4551W        W72945  16.755  22.255  13.742
 4552W        W72946  14.475  16.944  11.126
 4553W        W72947  15.300  41.059   0.838
 4554W        W72948  30.848  44.434  10.712
 4555W        W72949   3.451  24.130   0.727
 4556W        W72950  25.514  15.242  14.724
 4557W        W72951  21.821  20.151  11.867
 4558W        W72952  32.409  13.876  10.884
 4559W        W72953  10.403   6.919   4.482
 4560W        W72954   3.095  21.289   2.815
 4561W        W72955  33.395  30.411   1.000
 4562W        W72956   9.778   5.386   0.219
 4563W        W72957  41.534  23.670   3.627
 4564W        W72958   0.846   9.937   1.460
 4565W        W72959  12.844  32.451  12.106
 4566W        W72960  28.714  29.228  13.975
 4567W        W72961   9.500  13.600   2.446
 4568W        W72962  22.720   1.545   3.789
 4569W        W72963   6.357  28.705  14.831
 4570W        W72964  20.208  37.396   3.644
 4571W        W72965  44.538  18.277   1.768
 4572W        W72966   3.222  36.857  14.872
 4573W        W72967   8.798   6.771  12.154
 4574W        W72968  10.277  35.827  11.252
 4575W        W72969   7.372  13.534   3.610
 4576W        W72970  34.610  29.165  12.978
 4577W        W72971  18.041  31.944   1.690
 4578W        W72972   0.937  29.283  12.566
 4579W        W72973  14.674  24.201   3.783
 4580W        W72974   5.202  31.522  10.908
 4581W        W72975  27.920   2.480  10.887
 4582W        W72976  28.671  34.847  12.195
 4583W        W72977  37.951  28.460   2.110
 4584W        W72978  21.551  29.702   2.910
 4585W        W72979  34.413  18.998  14.267
 4586W        W72980   7.035  29.970   0.463
 4587W        W72981  25.164  23.938   3.429
 4588W        W72982   7.165  20.319  13.992
 4589W        W72983  13.950  34.929   1.850
 4590W        W72984  12.918  21.117   3.350
 4591W        W72985  16.778  23.758   2.671
 4592W        W72986  10.641  44.346  12.039
 4593W        W72987  44.377  39.383  14.888
 4594W        W72988  22.495   3.895  10.681
 4595W        W72989  20.488  13.870   0.920
 4596W        W72990   1.307  13.791   2.795
 4597W        W72991  15.498  34.034   4.002
 4598W        W72992  26.897  28.890  11.198
 4599W        W72993  29.635  33.397   1.138
 4600W        W72994  40.463  15.862   1.239
 4601W        W72995  39.051  19.654   2.881
 4602W        W72996   1.994   4.730   1.501
 4603W        W72997   6.694  24.802  11.119
 4604W        W72998  42.101  41.028   0.519
 4605W        W72999  14.791  42.771   2.776
 4606W        W73000  14.916  33.417  11.453
 4607W        W73001   2.844  21.072  13.040
 4608W        W73002   0.856  24.841   4.034
 4609W        W73003  23.976  33.916  14.099
 4610W        W73004   8.165   5.747  11.125
 4611W        W73005  44.088   6.785  12.598
 4612W        W73006  38.940  22.631  11.142
 4613W        W73007   3.411   0.809  12.804
 4614W        W73008  29.674  13.553  12.841
 4615W        W73009  19.986  35.446   3.586
 4616W        W73010  17.580   4.418   4.002
 4617W        W73011  11.129  27.635   0.333
 4618W        W73012   5.278  20.974   2.646
 4619W        W73013  36.137  11.459   4.976
 4620W        W73014  13.485  35.476  13.469
 4621W        W73015  19.628  34.518  13.459
 4622W        W73016  39.270   9.649   2.349
 4623W        W73017   2.026  28.166   2.866
 4624W        W73018  27.166  18.297   3.826
 4625W        W73019  17.657   0.714   2.104
 4626W        W73020  38.362  41.014  11.385
 4627W        W73021  12.591  23.752   3.782
 4628W        W73022  30.971   0.396  12.865
 4629W        W73023  31.230  39.018   1.015
 4630W        W73024   1.798  12.379   1.789
 4631W        W73025  20.825  24.050   0.426
 4632W        W73026  24.312  39.311  12.652
 4633W        W73027  13.313  23.077   2.538
 4634W        W73028  33.232   0.346  11.076
 4635W        W73029  18.264  15.857   4.507
 4636W        W73030  32.321   0.832  13.682
 4637W        W73031  10.844  11.762  14.044
 4638W        W73032  20.526  39.806  10.512
 4639W        W73033  10.877   1.857   0.346
 4640W        W73034  21.901  43.994  12.925
 4641W        W73035  39.572  19.097  14.922
 4642W        W73036  19.829   0.270  14.363
 4643W        W73037  12.413   1.391   0.740
 4644W        W73038  43.582  11.093   0.139
 4645W        W73039  11.206  39.744  13.901
 4646W        W73040  21.764  33.983   3.288
 4647W        W73041   9.267  20.658  14.935
 4648W        W73042  36.327  11.536  14.335
 4649W        W73043  37.547  30.484   1.389
 4650W        W73044  11.500  12.080  13.033
 4651W        W73045  20.574  16.435   2.767
 4652W        W73046  12.190  19.950  10.750
 4653W        W73047  16.544  34.091  11.835
 4654W        W73048  34.407   8.233  14.832
 4655W        W73049  17.869  11.309   2.846
 4656W        W73050   6.414  31.136   1.144
 4657W        W73051   2.928   1.809  11.945
 4658W        W73052  10.065  40.144  14.466
 4659W        W73053   3.030   5.862   3.814
 4660W        W73054  31.166  11.277  14.353
 4661W        W73055   3.188  12.514   1.290
 4662W        W73056   4.180  23.355  12.969
 4663W        W73057  29.181   0.070  14.351
 4664W        W73058   6.677  25.078  14.499
 4665W        W73059  44.291  27.298   4.570
 4666W        W73060  18.286  41.307  14.396
 4667W        W73061   2.275  38.071   2.853
 4668W        W73062  24.238   3.973   0.247
 4669W        W73063  19.242  30.013  14.087
 4670W        W73064   3.393   4.667   0.027
 4671W        W73065  30.532   7.273  13.079
 4672W        W73066   0.106  17.699   2.679
 4673W        W73067  24.213  19.267  13.921
 4674W        W73068   6.222  38.356  14.846
 4675W        W73069  28.926   8.391   2.702
 4676W        W73070  31.775   0.140   4.422
 4677W        W73071   4.066  31.559   4.680
 4678W        W73072   9.257  30.397   3.135
 4679W        W73073  24.090  42.364  11.917
 4680W        W73074  13.118  26.962  13.355
 4681W        W73075  26.985  25.082  12.890
 4682W        W73076   8.777  17.148   3.470
 4683W        W73077   8.093  18.705   1.698
 4684W        W73078  13.560  13.885   4.154
 4685W        W73079  18.549  24.315  11.117
 4686W        W73080   7.359  26.690  11.541
 4687W        W73081  10.393  14.100   0.316
 4688W        W73082  25.996  25.064   3.155
 4689W        W73083   4.929   8.424  13.514
 4690W        W73084  12.301  13.808  14.396
 4691W        W73085  20.459  11.577  14.093
 4692W        W73086  43.061  40.390  10.853
 4693W        W73087  40.241   8.906   2.681
 4694W        W73088  34.411   6.149   1.083
 4695W        W73089  18.686  28.834  10.318
 4696W        W73090  29.371  34.440   2.236
 4697W        W73091  26.946  11.152   1.803
 4698W        W73092  27.027  32.025   2.298
 4699W        W73093  24.936   2.920   3.145
 4700W        W73094  21.953  31.239   4.236
 4701W        W73095  12.117  37.651  13.026
 4702W        W73096  17.590   8.108  13.426
 4703W        W73097  26.089  35.011   2.837
 4704W        W73098  37.916  37.691  10.307
 4705W        W73099  44.808  40.941  13.340
 4706W        W73100  40.294  15.685  12.440
 4707W        W73101  15.174   7.577  13.859
 4708W        W73102   6.897  18.240  12.438
 4709W        W73103  36.078   5.661  13.725
 4710W        W73104   2.787   1.449  13.856
 4711W        W73105  32.517  19.093   2.506
 4712W        W73106  44.019   3.093  14.086
 4713W        W73107  21.760  33.170   1.307
 4714W        W73108  43.148   1.767   1.343
 4715W        W73109  12.102  41.306  10.709
 4716W        W73110   9.091   6.352   4.102
 4717W        W73111  35.546  23.728   4.749
 4718W        W73112   3.375  21.294  11.161
 4719W        W73113   1.923  34.495  14.482
 4720W        W73114  19.895  25.262   3.585
 4721W        W73115  28.122  13.133   4.887
 4722W        W73116  43.923  24.918   0.663
 4723W        W73117  24.658  32.475   2.855
 4724W        W73118  39.107  34.208  13.473
 4725W        W73119   8.200  42.374  12.034
 4726W        W73120  12.031  14.941   1.350
 4727W        W73121  19.185  32.827  12.637
 4728W        W73122  22.324  30.899  12.496
 4729W        W73123  39.917  31.227   4.660
 4730W        W73124  35.908  19.648  10.781
 4731W        W73125  16.472   4.642   0.841
 4732W        W73126   4.380  41.298  14.368
 4733W        W73127  19.862  40.965   1.012
 4734W        W73128  38.155  35.535   3.311
 4735W        W73129   8.665  12.909   1.952
 4736W        W73130   2.411  11.376   3.580
 4737W        W73131  16.348  44.830  14.469
 4738W        W73132  15.633  42.789   2.265
 4739W        W73133  25.705  15.593  10.638
 4740W        W73134  23.257  30.129   3.856
 4741W        W73135  42.508  28.241   3.866
 4742W        W73136  32.934  16.398   1.704
 4743W        W73137  26.482  36.460   3.276
 4744W        W73138  26.944  11.896  14.536
 4745W        W73139  23.859  16.689   2.097
 4746W        W73140  38.331  28.420  12.474
 4747W        W73141  25.543  44.946   4.065
 4748W        W73142  12.733  42.755   4.680
 4749W        W73143  20.458  11.718   1.692
 4750W        W73144  33.363  29.059   2.843
 4751W        W73145  40.927   1.389  14.427
 4752W        W73146  42.890  18.147  14.266
 4753W        W73147  26.138   2.789  10.682
 4754W        W73148  11.383  39.316  12.086
 4755W        W73149  38.368   4.415   0.542
 4756W        W73150   2.487  42.283   3.876
 4757W        W73151   5.897  13.769   1.489
 4758W        W73152  43.027  14.909   3.280
 4759W        W73153  26.017  35.101   1.359
 4760W        W73154  30.220  17.783  10.698
 4761W        W73155   7.167  23.429   4.837
 4762W        W73156  36.645  36.848   3.581
 4763W        W73157  33.031  39.823   2.549
 4764W        W73158  12.684  16.770  13.858
 4765W        W73159  36.593  31.074   2.392
 4766W        W73160  31.355  22.395  13.237
 4767W        W73161  26.688  21.981  13.491
 4768W        W73162   7.352  24.552   0.689
 4769W        W73163   7.890   3.461  13.993
 4770W        W73164  13.924  37.262  12.036
 4771W        W73165   0.821  25.998   3.774
 4772W        W73166  15.241  11.126   4.111
 4773W        W73167  24.274  29.022   4.936
 4774W        W73168  12.157  37.215   0.167
 4775W        W73169  41.842  10.897   3.331
 4776W        W73170  27.144  17.028  13.073
 4777W        W73171  31.018  39.028   0.487
 4778W        W73172  37.825  17.838  10.582
 4779W        W73173  40.326  12.737  14.815
 4780W        W73174   0.396  15.708   2.267
 4781W        W73175  38.730  44.371  12.639
 4782W        W73176   6.236  38.553   2.702
 4783W        W73177  34.912  19.108  13.052
 4784W        W73178   4.797  31.453  11.230
 4785W        W73179   4.059  24.333  10.803
 4786W        W73180  12.174  26.953  12.123
 4787W        W73181   8.969  14.752  13.376
 4788W        W73182  32.673  23.164  14.574
 4789W        W73183   5.759  34.585  12.904
 4790W        W73184  39.904   9.756  13.412
 4791W        W73185  34.057   6.218   2.163
 4792W        W73186   5.916  22.048  11.154
 4793W        W73187  35.424  19.126   2.576
 4794W        W73188  25.876  27.145   2.902
 4795W        W73189  25.645   0.337  11.150
 4796W        W73190  32.463  20.289   1.848
 4797W        W73191  16.622  11.745   0.306
 4798W        W73192  10.043  32.955   3.583
 4799W        W73193  38.754   1.886  14.881
 4800W        W73194  20.830  28.140  13.805
 4801W        W73195   4.491  32.438   2.976
 4802W        W73196   6.467  34.138   0.469
 4803W        W73197   7.005  38.317   0.754
 4804W        W73198   6.186   3.805  12.397
 4805W        W73199  34.935  23.682   0.926
 4806W        W73200  34.688  39.040   2.414
 4807W        W73201  25.691   8.412  13.380
 4808W        W73202   2.373  24.958   4.442
 4809W        W73203  27.734   0.207   1.438
 4810W        W73204  16.320   5.355   4.952
 4811W        W73205   9.017  41.791  14.409
 4812W        W73206  29.925  39.087   1.278
 4813W        W73207  37.578   3.856   0.329
 4814W        W73208  40.236  41.771   3.624
 4815W        W73209  12.842  19.223   0.231
 4816W        W73210  41.012  30.560   0.448
 4817W        W73211  36.691  42.122  13.439
 4818W        W73212   1.791  19.177  13.570
 4819W        W73213  18.744  16.816   0.323
 4820W        W73214   7.927  41.328   2.352
 4821W        W73215  31.644  27.296  13.120
 4822W        W73216   5.660  44.513  11.491
 4823W        W73217  32.496  30.858  12.047
 4824W        W73218  44.515  11.848  11.214
 4825W        W73219  42.313   1.840   0.797
 4826W        W73220  25.880   4.299  12.462
 4827W        W73221   3.776  44.325   3.777
 4828W        W73222  43.998  14.162  14.510
 4829W        W73223  42.116  12.328   4.448
 4830W        W73224  18.159  26.393   5.243
 4831W        W73225  39.476  22.104  10.663
 4832W        W73226  26.592  12.120   2.252
 4833W        W73227  33.120   5.845  10.565
 4834W        W73228  36.063  29.636  13.622
 4835W        W73229  28.489  36.420  11.615
 4836W        W73230  41.048   4.325   3.252
 4837W        W73231  17.802  14.618  11.828
 4838W        W73232   9.518   2.014  13.453
 4839W        W73233  29.428  14.438   4.275
 4840W        W73234   3.683  10.931  10.404
 4841W        W73235  42.791  35.845  10.777
 4842W        W73236  18.755  19.776  10.934
 4843W        W73237  34.338  36.874   4.088
 4844W        W73238   7.425  41.002  11.635
 4845W        W73239  11.336  42.442  12.113
 4846W        W73240  25.557  21.283  12.935
 4847W        W73241  33.381  44.297   4.101
 4848W        W73242  43.069   8.161   3.665
 4849W        W73243  37.512  18.139   2.223
 4850W        W73244   7.055  39.700  12.036
 4851W        W73245   4.214  25.932   0.058
 4852W        W73246   1.856  30.418  14.028
 4853W        W73247  14.319  25.179   3.607
 4854W        W73248  27.666  18.990   4.441
 4855W        W73249  41.569  44.465  12.882
 4856W        W73250  19.662  28.847   3.539
 4857W        W73251  30.700  22.631   2.811
 4858W        W73252   0.476  18.357  14.640
 4859W        W73253  40.316  30.493  12.832
 4860W        W73254   9.173  17.502  13.337
 4861W        W73255   3.138  11.703  12.548
 4862W        W73256  22.616  31.504   3.415
 4863W        W73257  30.015  34.919  10.950
 4864W        W73258  24.511  30.089  13.113
 4865W        W73259   5.752  39.610  10.639
 4866W        W73260  30.644  32.388  11.605
 4867W        W73261  21.986  13.613   4.790
 4868W        W73262  18.231  22.239  10.573
 4869W        W73263  18.370  33.322   4.136
 4870W        W73264  12.761   9.612   3.411
 4871W        W73265  24.956  13.640  14.526
 4872W        W73266  12.161  17.227   4.498
 4873W        W73267  12.647  25.296   2.627
 4874W        W73268  43.805  22.919  11.034
 4875W        W73269  12.137  21.221  10.707
 4876W        W73270  29.639  14.720   2.726
 4877W        W73271  32.196  28.119   0.619
 4878W        W73272  17.839  25.015  13.741
 4879W        W73273  22.960   0.858   0.707
 4880W        W73274  34.352  26.015   1.323
 4881W        W73275   0.419  20.936   0.873
 4882W        W73276  11.428   1.687   1.698
 4883W        W73277  42.260  43.588   2.618
 4884W        W73278  42.485   8.409  12.778
 4885W        W73279  21.166  13.862  13.466
 4886W        W73280  43.220   3.245   3.288
 4887W        W73281  23.608  36.038  14.307
 4888W        W73282   2.960  33.462  12.603
 4889W        W73283  25.173  14.751  12.132
 4890W        W73284  42.970   7.724  12.515
 4891W        W73285  44.656   4.390   1.832
 4892W        W73286  43.020  39.081  12.048
 4893W        W73287  41.774  16.644  13.869
 4894W        W73288  40.637  29.740   4.939
 4895W        W73289   4.159  42.463   1.141
 4896W        W73290   6.164  26.126   1.431
 4897W        W73291  16.852  19.796   0.850
 4898W        W73292  11.253  18.964   0.523
 4899W        W73293  43.916  24.089   2.399
 4900W        W73294   5.206  30.165   0.729
 4901W        W73295  10.344   0.419  11.395
 4902W        W73296  31.986  34.093   0.843
 4903W        W73297   8.757  13.400   2.150
 4904W        W73298  36.951   5.379   4.825
 4905W        W73299  33.949   5.035  11.192
 4906W        W73300  39.738  16.774  11.164
 4907W        W73301  36.417  22.555  12.030
 4908W        W73302   2.327  36.057   2.482
 4909W        W73303  35.325  41.345  12.100
 4910W        W73304  32.862  39.358   2.791
 4911W        W73305  41.483  40.377  12.082
 4912W        W73306  28.544  34.310   1.982
 4913W        W73307  28.938  41.912   3.162
 4914W        W73308  24.008  40.822   4.077
 4915W        W73309   4.894   1.525  12.461
 4916W        W73310  25.568  34.046   2.079
 4917W        W73311  24.892  21.049   3.623
 4918W        W73312  13.856  40.486  12.769
 4919W        W73313  40.840  38.352  12.545
 4920W        W73314   3.730  10.382   0.909
 4921W        W73315  36.871  25.780   1.865
 4922W        W73316   7.141  44.244  14.935
 4923W        W73317  28.621  16.712   0.519
 4924W        W73318  38.933  32.659  12.800
 4925W        W73319  41.623   2.501  14.531
 4926W        W73320  13.324  20.781  13.549
 4927W        W73321  37.128  16.599  12.466
 4928W        W73322  41.609  33.123  13.570
 4929W        W73323   1.232  18.380   3.366
 4930W        W73324  42.355   1.823  14.282
 4931W        W73325   1.303   2.568  11.886
 4932W        W73326  30.947  27.671  12.108
 4933W        W73327  33.052  25.502   2.303
 4934W        W73328  31.208   8.512   1.673
 4935W        W73329   7.797  16.112  10.772
 4936W        W73330  16.241   3.426   0.445
 4937W        W73331  17.592  12.497   4.576
 4938W        W73332  38.516  28.075   1.731
 4939W        W73333  27.274  37.784   2.698
 4940W        W73334   2.946  34.170  12.094
 4941W        W73335  30.518  29.995   3.077
 4942W        W73336  29.455  39.380  10.842
 4943W        W73337  32.561  19.258  13.909
 4944W        W73338  27.636  41.738   4.584
 4945W        W73339  34.327  41.035  11.686
 4946W        W73340  19.897  36.829   0.900
 4947W        W73341  37.475  32.992  13.984
 4948W        W73342  10.665  30.053  11.600
 4949W        W73343  13.795  31.376   0.374
 4950W        W73344  18.694  17.950  11.534
 4951W        W73345  10.743  25.979  10.376
 4952W        W73346  40.266  19.609   0.171
 4953W        W73347  42.305  19.753  10.519
 4954W        W73348  43.336   6.281  12.533
 4955W        W73349  21.516  39.065   3.381
 4956W        W73350  17.495   3.202  10.762
 4957W        W73351   7.847   0.695  11.153
 4958W        W73352  33.319  35.377   3.744
 4959W        W73353  23.710   1.918  13.166
 4960W        W73354  41.081  18.240  14.371
 4961W        W73355  21.455  33.882   2.851
 4962W        W73356   2.000  29.429  12.477
 4963W        W73357  26.495   6.245  10.702
 4964W        W73358   6.289  40.993   0.856
 4965W        W73359  15.273  22.492  11.100
 4966W        W73360  16.086  11.615  11.994
 4967W        W73361  15.544  39.650  12.929
 4968W        W73362  40.324  38.621   4.156
 4969W        W73363  25.777   8.826   2.297
 4970W        W73364  39.485  12.387  14.327
 4971W        W73365  13.202  36.480  14.383
 4972W        W73366  41.823  15.798   9.999
 4973W        W73367   0.006  35.935   0.870
 4974W        W73368   1.352   6.203   1.300
 4975W        W73369   9.689  44.393  14.785
 4976W        W73370  43.879   2.739   4.013
 4977W        W73371  37.726  22.970  13.555
 4978W        W73372  18.507   4.381  14.364
 4979W        W73373  13.380  16.917  14.730
 4980W        W73374  30.346  12.643  14.466
 4981W        W73375  25.943  27.933  14.944
 4982W        W73376   6.831   7.970   1.725
 4983W        W73377  15.759   5.405  12.486
 4984W        W73378  20.564  21.158   4.623
 4985W        W73379   8.540  41.656   4.047
 4986W        W73380  13.800  43.954   2.696
 4987W        W73381  11.755  31.937   0.433
 4988W        W73382  27.772  19.828  12.994
 4989W        W73383  28.171  11.148   1.194
 4990W        W73384  31.382  29.980  10.384
 4991W        W73385  43.540  16.845  13.593
 4992W        W73386  40.879  18.687   4.313
 4993W        W73387  38.536  31.070  12.372
 4994W        W73388   5.714  41.034  13.012
 4995W        W73389  39.608  12.809  11.414
 4996W        W73390  12.129  25.588   3.127
 4997W        W73391  24.690  25.896   1.252
 4998W        W73392  43.187   2.293  11.542
 4999W        W73393  38.994   6.168   4.423
 5000W        W73394  26.647  43.474   3.183
 5001W        W73395  29.615   8.220  12.568
 5002W        W73396  16.241  41.881   3.152
 5003W        W73397   6.632  20.992  12.059
 5004W        W73398  32.766  36.989  11.588
 5005W        W73399   4.805  26.688  12.611
 5006W        W73400   1.961  20.187   2.231
 5007W        W73401  13.257  29.059  14.314
 5008W        W73402  19.095  19.482   1.674
 5009W        W73403  20.006  33.382   1.819
 5010W        W73404  24.034  42.188  13.552
 5011W        W73405   0.713  30.121  13.400
 5012W        W73406   5.320  36.722   0.827
 5013W        W73407  42.447  41.413   1.261
 5014W        W73408  20.714  27.418   3.228
 5015W        W73409  31.904  41.987   4.495
 5016W        W73410  29.601  20.840   3.323
 5017W        W73411  25.714  12.239   1.210
 5018W        W73412  17.277  44.121   3.686
 5019W        W73413   7.180  23.912   3.193
 5020W        W73414   7.899   7.207   4.117
 5021W        W73415  31.143  16.861  11.613
 5022W        W73416  10.660  25.157  11.508
 5023W        W73417  38.054   1.528   1.396
 5024W        W73418  42.899  33.912  12.485
 5025W        W73419  17.108  19.494  12.712
 5026W        W73420  18.100   4.257  11.528
 5027W        W73421   8.213   8.602   3.161
 5028W        W73422  25.557   5.184  10.380
 5029W        W73423   1.957  15.020  12.062
 5030W        W73424  21.315  20.061  13.496
 5031W        W73425  31.179  33.531  12.397
 5032W        W73426   4.939  10.713  13.790
 5033W        W73427  12.896   5.883   3.351
 5034W        W73428  13.403   3.385  13.208
 5035W        W73429  19.598   9.418   1.259
 5036W        W73430  29.998   6.461   0.270
 5037W        W73431  33.715  28.232  14.461
 5038W        W73432  34.051  23.942   1.409
 5039W        W73433   4.953   8.966   1.933
 5040W        W73434  24.759  27.564   1.800
 5041W        W73435  21.038  42.057   1.059
 5042W        W73436  43.301   8.921  11.061
 5043W        W73437  10.846   8.136  14.316
 5044W        W73438  43.855  39.040   3.366
 5045W        W73439  15.266  37.912   0.890
 5046W        W73440   9.730  36.428   3.611
 5047W        W73441  43.752  11.161   2.194
 5048W        W73442  40.990  28.103  13.234
 5049W        W73443  39.526  43.024   3.097
 5050W        W73444   9.207  15.325   3.680
 5051W        W73445  12.463  42.473   2.342
 5052W        W73446  35.415  18.484  12.051
 5053W        W73447  15.612   8.236  13.428
 5054W        W73448  14.402   1.516   4.993
 5055W        W73449   6.377  13.111  12.173
 5056W        W73450  37.584  35.306  14.058
 5057W        W73451  41.804  42.245  14.936
 5058W        W73452  17.542   3.325  11.545
 5059W        W73453   6.424  32.191  12.382
 5060W        W73454  24.231   7.744   2.047
 5061W        W73455  33.712  24.601   2.678
 5062W        W73456  26.622   5.319   4.735
 5063W        W73457  11.786   1.293  10.447
 5064W        W73458  34.133  31.105  14.218
 5065W        W73459  17.548   2.400   2.682
 5066W        W73460  27.880   1.175   4.131
 5067W        W73461   5.208  17.505   4.541
 5068W        W73462   4.025  38.849   4.877
 5069W        W73463  36.981  10.189  14.438
 5070W        W73464  28.615  13.185   2.279
 5071W        W73465   1.058   5.462   3.629
 5072W        W73466  23.564  16.085  10.720
 5073W        W73467  13.626   1.303  13.964
 5074W        W73468  24.586  23.121  14.338
 5075W        W73469  27.422  30.291   1.890
 5076W        W73470  43.880  21.660  11.626
 5077W        W73471  21.880  21.490  11.073
 5078W        W73472  28.730  33.889   1.714
 5079W        W73473  40.031  38.338  10.684
 5080W        W73474   0.138  20.016  14.932
 5081W        W73475  17.228  31.561   3.809
 5082W        W73476  31.948  28.457  12.038
 5083W        W73477  38.110  38.781   2.296
 5084W        W73478   1.046  29.741   5.081
 5085W        W73479  36.642  14.313  11.409
 5086W        W73480   0.814   1.413  13.897
 5087W        W73481  33.219  16.588   3.091
 5088W        W73482  43.686  23.564   1.864
 5089W        W73483  38.586  24.049   4.148
 5090W        W73484  38.525  24.708   4.809
 5091W        W73485  20.561  30.234   3.912
 5092W        W73486  34.399  25.124   1.554
 5093W        W73487  22.007  28.794   0.980
 5094W        W73488   0.763  12.368  11.456
 5095W        W73489  26.740   7.361  13.414
 5096W        W73490   7.832  24.260   3.687
 5097W        W73491  20.169  36.774  12.832
 5098W        W73492  36.964  23.228   1.652
 5099W        W73493  32.480   2.964  13.102
 5100W        W73494  28.561  33.188  14.137
 5101W        W73495  15.668  38.525  11.160
 5102W        W73496   9.012  42.525   2.761
 5103W        W73497  12.479  42.391  11.887
 5104W        W73498  12.598  31.585  11.186
 5105W        W73499  22.653  44.322  11.429
 5106W        W73500   6.542   2.628   0.182
 5107W        W73501  10.508  40.314  11.081
 5108W        W73502   1.470  25.967  14.359
 5109W        W73503  17.587  39.056   3.997
 5110W        W73504   6.685   2.624   4.497
 5111W        W73505  30.768  13.041   4.585
 5112W        W73506  19.671   3.007  13.092
 5113W        W73507   8.453  22.760   0.966
 5114W        W73508   6.186  43.981  12.926
 5115W        W73509  25.328   5.907  11.946
 5116W        W73510  28.085  16.614  11.144
 5117W        W73511  39.049  35.339  10.727
 5118W        W73512  34.995  15.890   1.163
 5119W        W73513   0.876  31.133   0.525
 5120W        W73514  20.299  33.997  12.392
 5121W        W73515   9.154  24.232   2.341
 5122W        W73516   2.882  29.728   3.005
 5123W        W73517  37.071   9.219   4.865
 5124W        W73518  25.972  31.298  12.905
 5125W        W73519   1.406  23.129   0.258
 5126W        W73520  10.841  36.808  12.808
 5127W        W73521  44.964   9.792  12.935
 5128W        W73522  12.070  42.862   3.921
 5129W        W73523  44.634  17.697   2.975
 5130W        W73524   6.742  30.193  13.793
 5131W        W73525   5.758  22.333   0.286
 5132W        W73526  30.192   2.255   4.565
 5133W        W73527  19.723  33.797   4.377
 5134W        W73528   8.594  16.401  13.959
 5135W        W73529  11.260  30.623   3.986
 5136W        W73530  36.149  17.277  14.472
 5137W        W73531  39.745   2.428  13.685
 5138W        W73532  23.994  20.734  13.476
 5139W        W73533  13.751  29.645   3.240
 5140W        W73534  10.621  40.898  13.070
 5141W        W73535  25.041  33.596   3.449
 5142W        W73536  24.626  12.001   2.320
 5143W        W73537  18.907  38.288   0.998
 5144W        W73538  44.639  42.125   3.359
 5145W        W73539  42.436  31.997   0.435
 5146W        W73540  18.727   5.444   2.376
 5147W        W73541  30.358  17.738   0.313
 5148W        W73542  20.654  12.613   0.186
 5149W        W73543  30.291  20.121   2.377
 5150W        W73544  20.822  22.635   0.550
 5151W        W73545  12.757  22.949  13.313
 5152W        W73546  28.986   7.165  12.736
 5153W        W73547  18.196  31.374  11.482
 5154W        W73548  23.310  41.596  12.430
 5155W        W73549  32.344  23.833  10.633
 5156W        W73550   9.369   1.255  14.710
 5157W        W73551  31.628  28.506  13.762
 5158W        W73552  23.513  14.338   3.156
 5159W        W73553   6.841  24.265   3.547
 5160W        W73554  39.845  13.855  12.165
 5161W        W73555  39.776  11.308  11.129
 5162W        W73556  16.657   9.137  12.450
 5163W        W73557  10.014  21.345  11.004
 5164W        W73558  20.748   4.898  10.154
 5165W        W73559  30.684  20.559   2.419
 5166W        W73560   2.977  43.618   2.826
 5167W        W73561  39.054  36.391  12.874
 5168W        W73562  18.555  12.600  11.617
 5169W        W73563  11.448  27.494  14.239
 5170W        W73564  38.837  12.289   4.567
 5171W        W73565  41.907  37.518   2.613
 5172W        W73566   2.726  29.603  12.027
 5173W        W73567  18.641  17.939  12.499
 5174W        W73568  18.070  42.463   2.275
 5175W        W73569  11.132  29.096   2.867
 5176W        W73570  14.807   0.746  11.706
 5177W        W73571  23.081  12.779   4.681
 5178W        W73572   3.035   3.862  11.473
 5179W        W73573   0.308  33.071   2.627
 5180W        W73574  18.348   2.927  10.756
 5181W        W73575  38.726  17.797  10.757
 5182W        W73576  19.734  41.074   1.794
 5183W        W73577  36.623  24.440   1.587
 5184W        W73578   8.379  36.367  13.859
 5185W        W73579  10.181  24.092  10.606
 5186W        W73580  24.790  36.342   5.022
 5187W        W73581  36.633   0.371   2.729
 5188W        W73582   9.236  29.551  14.327
 5189W        W73583   5.138   4.362   1.793
 5190W        W73584  37.484  32.029  13.008
 5191W        W73585  32.545  42.473   4.360
 5192W        W73586  12.419   3.214   1.145
 5193W        W73587  41.274  37.994  13.100
 5194W        W73588  13.340   6.661  13.447
 5195W        W73589  24.134  42.589   4.523
 5196W        W73590  42.754  23.527   3.214
 5197W        W73591  28.679  14.116  13.465
 5198W        W73592  32.982  14.348   2.657
 5199W        W73593  32.594  23.638   2.277
 5200W        W73594  37.484   2.214   3.651
 5201W        W73595  41.461   0.438   2.639
 5202W        W73596  10.167  42.251  12.893
 5203W        W73597  26.337   9.783  12.165
 5204W        W73598   6.880  38.937  12.865
 5205W        W73599  14.178  25.091   4.141
 5206W        W73600  13.107   5.979  11.925
 5207W        W73601   7.167  44.302  11.726
 5208W        W73602  14.781  36.451  13.446
 5209W        W73603  26.954   2.832   1.283
 5210W        W73604   7.476   8.381   4.115
 5211W        W73605  38.565  36.972   4.884
 5212W        W73606  21.637  26.904  13.920
 5213W        W73607  19.119  26.703  11.509
 5214W        W73608  30.491  42.351   4.615
 5215W        W73609   2.455  40.096  13.815
 5216W        W73610  33.043  26.075   0.912
 5217W        W73611  44.870  19.035   3.388
 5218W        W73612   0.419  37.004   3.168
 5219W        W73613   0.772   3.408  14.783
 5220W        W73614  39.021   5.461   1.307
 5221W        W73615  39.084  30.100   3.924
 5222W        W73616  29.585  33.127   2.322
 5223W        W73617  11.859  44.335  14.968
 5224W        W73618   0.001  15.688  10.767
 5225W        W73619  39.324  20.700  13.540
 5226W        W73620  28.016  43.743  14.243
 5227W        W73621  41.809  12.690  11.989
 5228W        W73622   8.115   2.968  14.832
 5229W        W73623  43.340  26.803  14.771
 5230W        W73624  26.014  27.313   1.394
 5231W        W73625  36.852   8.191   4.690
 5232W        W73626   6.601  36.628   0.206
 5233W        W73627  39.126   0.721   0.927
 5234W        W73628   6.496   1.229   5.529
 5235W        W73629  12.749   6.607  14.358
 5236W        W73630  18.086   3.937  12.846
 5237W        W73631  21.167  44.140   5.043
 5238W        W73632  20.964  17.291  11.479
 5239W        W73633  18.709  33.618  12.912
 5240W        W73634  37.371  14.509   3.758
 5241W        W73635  33.967   1.628  11.269
 5242W        W73636  13.714  16.680   0.732
 5243W        W73637  22.087  43.850   4.576
 5244W        W73638  10.246  39.318   5.105
 5245W        W73639  26.692   1.459   3.874
 5246W        W73640   3.030  28.223  10.987
 5247W        W73641  36.454   3.599   3.983
 5248W        W73642  32.994  23.222   3.163
 5249W        W73643   5.673  10.301  10.939
 5250W        W73644  33.145  11.212  14.416
 5251W        W73645   5.851  41.914  14.967
 5252W        W73646   1.754   2.769  12.060
 5253W        W73647  32.123   8.661  10.876
 5254W        W73648   6.724  18.791   3.301
 5255W        W73649  24.436  19.242  13.415
 5256W        W73650  44.029   5.049   1.437
 5257W        W73651   6.812  10.887   2.739
 5258W        W73652  40.882  30.579  11.141
 5259W        W73653  41.282  39.440  14.918
 5260W        W73654  30.869   8.700   4.143
 5261W        W73655  21.715  31.301   2.932
 5262W        W73656  41.165  23.376   2.797
 5263W        W73657  41.342  25.234  12.502
 5264W        W73658  38.544   7.846  11.220
 5265W        W73659   5.641   2.287   1.416
 5266W        W73660  18.125  35.924   3.203
 5267W        W73661  38.864  35.169  14.560
 5268W        W73662   2.286  28.743  11.678
 5269W        W73663  40.508  18.720   0.711
 5270W        W73664   3.836  41.375  12.911
 5271W        W73665  27.213  37.819  11.158
 5272W        W73666   4.689  23.191   3.028
 5273W        W73667  32.535  44.292   2.596
 5274W        W73668  32.905  34.000  11.194
 5275W        W73669  15.121  38.859   0.915
 5276W        W73670   9.053  34.644  14.562
 5277W        W73671   9.158  32.955  13.771
 5278W        W73672  40.391  42.388   2.806
 5279W        W73673   3.369  19.025  12.948
 5280W        W73674   7.515  19.977   3.536
 5281W        W73675  12.702   1.804   2.409
 5282W        W73676   7.138   7.579  13.147
 5283W        W73677   1.884  28.658  11.998
 5284W        W73678  26.552  36.775   0.969
 5285W        W73679  42.350  36.591   4.646
 5286W        W73680   4.475   6.434   0.946
 5287W        W73681  23.209  32.730  13.650
 5288W        W73682  35.691  21.255   0.039
 5289W        W73683   0.263  16.496  14.092
 5290W        W73684  42.028  23.766   1.313
 5291W        W73685  11.802  10.807  13.508
 5292W        W73686  35.429  41.932   3.629
 5293W        W73687  40.756  36.321  10.179
 5294W        W73688  19.325  13.525  12.600
 5295W        W73689  40.108  35.665   3.199
 5296W        W73690   5.692  36.348   0.320
 5297W        W73691  32.050  42.113  12.019
 5298W        W73692  10.195   1.684   4.977
 5299W        W73693  26.125  23.112  13.310
 5300W        W73694  24.271  40.797   0.909
 5301W        W73695   5.900  19.568  14.553
 5302W        W73696  44.332  13.571   2.378
 5303W        W73697  17.801  43.494   4.176
 5304W        W73698  26.465  24.342  13.630
 5305W        W73699   2.440   1.917  11.177
 5306W        W73700  25.485  17.124   4.358
 5307W        W73701  37.161  20.160   3.722
 5308W        W73702  40.099  37.044   0.040
 5309W        W73703  34.961  34.421  11.721
 5310W        W73704  10.903  20.671   1.967
 5311W        W73705  24.261  11.579   2.248
 5312W        W73706   1.333  41.456   3.320
 5313W        W73707   5.032  25.581  10.254
 5314W        W73708  42.953   2.349  11.072
 5315W        W73709  37.035  16.350  13.925
 5316W        W73710   3.776  11.853  13.319
 5317W        W73711  40.368  39.337   0.292
 5318W        W73712  13.417   8.827   1.329
 5319W        W73713  25.314  42.438  13.847
 5320W        W73714  10.870  22.669   4.074
 5321W        W73715   8.244  44.619  12.599
 5322W        W73716   6.139  35.128   3.660
 5323W        W73717  17.934  15.713   4.902
 5324W        W73718  36.313  33.255  14.924
 5325W        W73719  18.054   5.846   0.809
 5326W        W73720  27.390  16.818  13.484
 5327W        W73721  34.022  34.752   2.204
 5328W        W73722  14.078  21.933   0.123
 5329W        W73723  13.455  15.325  12.426
 5330W        W73724  18.840  39.451   0.821
 5331W        W73725  12.838  33.056  13.385
 5332W        W73726  22.006   8.038  14.415
 5333W        W73727  35.355  23.038   3.582
 5334W        W73728  14.590   9.976   2.971
 5335W        W73729   8.230  36.019  14.587
 5336W        W73730  19.153  36.835   4.312
 5337W        W73731  34.043  29.809  13.733
 5338W        W73732  22.632  16.137  12.742
 5339W        W73733  34.572  13.145   3.114
 5340W        W73734  22.079  17.087  14.754
 5341W        W73735   3.493  13.366  11.116
 5342W        W73736  29.204  19.531  14.112
 5343W        W73737  36.258  20.340  11.694
 5344W        W73738  10.814  36.667   2.506
 5345W        W73739  33.708  23.915   1.001
 5346W        W73740  41.919  36.584  11.597
 5347W        W73741  42.123  14.939  13.287
 5348W        W73742  21.820  27.631  12.360
 5349W        W73743  27.958  34.563   4.161
 5350W        W73744  27.909  12.842  14.200
 5351W        W73745  42.307   7.155   4.681
 5352W        W73746   7.786  20.116   2.727
 5353W        W73747   6.681  38.763   4.286
 5354W        W73748  22.190  35.148  12.572
 5355W        W73749  30.087  18.578  14.461
 5356W        W73750  42.930   4.487   4.157
 5357W        W73751  38.314  18.305   0.274
 5358W        W73752  20.699   9.309  12.574
 5359W        W73753  27.989  35.898   3.416
 5360W        W73754   4.409  27.511   0.302
 5361W        W73755  17.711  43.994  11.388
 5362W        W73756  16.123  19.310  11.604
 5363W        W73757  36.411  16.796  14.675
 5364W        W73758   3.681  40.092   2.493
 5365W        W73759   1.484   9.923  12.620
 5366W        W73760  40.544   5.923   3.740
 5367W        W73761   8.814  23.868   9.871
 5368W        W73762   9.904   9.379   1.436
 5369W        W73763   7.310  34.510   4.075
 5370W        W73764  18.831  13.916  14.992
 5371W        W73765  15.196  39.152  12.957
 5372W        W73766   4.365  43.415   2.482
 5373W        W73767  35.788  25.534  10.572
 5374W        W73768  38.939  15.819  10.551
 5375W        W73769   2.663  24.019   1.200
 5376W        W73770  24.497  19.538  14.412
 5377W        W73771  41.347   8.793  10.511
 5378W        W73772  24.721  15.843  14.365
 5379W        W73773  22.005   9.409   2.107
 5380W        W73774  35.655  40.856  10.813
 5381W        W73775  24.190  39.658   4.986
 5382W        W73776  16.531  25.495  13.862
 5383W        W73777  13.264  37.809  12.293
 5384W        W73778  44.951  36.607  12.993
 5385W        W73779   3.373  33.419   0.216
 5386W        W73780  10.396  41.343   1.711
 5387W        W73781  24.920  27.237   0.999
 5388W        W73782   0.073  22.081  11.985
 5389W        W73783   3.342   9.099  13.615
 5390W        W73784   0.196  42.486  14.341
 5391W        W73785  30.095  19.059  14.224
 5392W        W73786   3.893  27.184  10.630
 5393W        W73787  41.621  12.108  14.355
 5394W        W73788  14.212  31.470  12.090
 5395W        W73789  32.717   3.479   3.248
 5396W        W73790   0.979  14.696  11.412
 5397W        W73791  37.039  39.893  14.552
 5398W        W73792  24.033  10.284   1.435
 5399W        W73793  18.305  22.217   2.591
 5400W        W73794  12.691  26.698  14.316
 5401W        W73795   8.886  41.997   4.271
 5402W        W73796  32.073  31.887   3.142
 5403W        W73797  38.778   9.152   1.314
 5404W        W73798  37.484  41.529   4.114
 5405W        W73799  29.547  36.118  12.885
 5406W        W73800   8.289  18.010  13.518
 5407W        W73801  14.534  42.083  12.419
 5408W        W73802  39.047  12.147   0.335
 5409W        W73803  43.879  26.133  11.536
 5410W        W73804  26.062   2.557  11.171
 5411W        W73805  22.149  17.186  14.220
 5412W        W73806  20.326  36.914   4.941
 5413W        W73807  35.484  14.812  13.854
 5414W        W73808  12.832   5.160   0.542
 5415W        W73809  44.384  32.031   2.748
 5416W        W73810  41.894  18.475  12.160
 5417W        W73811  26.891  27.026   2.801
 5418W        W73812  15.619   1.285   5.103
 5419W        W73813   1.297  11.796   4.656
 5420W        W73814  20.939  31.591   4.048
 5421W        W73815   7.652   7.620   0.275
 5422W        W73816  14.640  10.779   1.273
 5423W        W73817  39.307  14.586   0.811
 5424W        W73818   1.444  31.920   2.632
 5425W        W73819  27.997   2.380  11.907
 5426W        W73820   4.862   4.607  12.867
 5427W        W73821  43.248  39.431   5.560
 5428W        W73822  33.889  13.689   1.877
 5429W        W73823  37.798  20.601   1.420
 5430W        W73824  14.400  24.787  11.493
 5431W        W73825   1.868   0.284   2.978
 5432W        W73826   8.383  26.229  13.019
 5433W        W73827  29.295  34.748  12.377
 5434W        W73828  40.635  26.475  10.869
 5435W        W73829  44.956  29.213  11.995
 5436W        W73830  42.424  41.506   2.248
 5437W        W73831  29.169   0.838   4.217
 5438W        W73832  18.011  36.971  12.407
 5439W        W73833  38.859  33.216   2.261
 5440W        W73834  33.308  27.608  11.069
 5441W        W73835  21.937   5.264  10.425
 5442W        W73836   1.237  29.677  11.162
 5443W        W73837  11.431  27.615  12.123
 5444W        W73838  41.977  23.654  12.536
 5445W        W73839   0.766  19.168  11.624
 5446W        W73840  26.381  18.604  12.513
 5447W        W73841   9.223  29.363   2.867
 5448W        W73842  22.614   2.046  10.762
 5449W        W73843  37.456  44.267   4.693
 5450W        W73844  37.927  12.689   4.103
 5451W        W73845  44.347  11.301   3.689
 5452W        W73846   3.221   2.783   1.195
 5453W        W73847  42.275   8.233  14.268
 5454W        W73848  31.441  30.511  14.756
 5455W        W73849   6.283  41.410   4.136
 5456W        W73850   5.920  20.183   1.854
 5457W        W73851  25.772   2.063   4.614
 5458W        W73852  39.306  33.135  11.162
 5459W        W73853   3.375   9.210   4.657
 5460W        W73854  26.644  23.973   1.334
 5461W        W73855   1.483   4.678  14.421
 5462W        W73856  15.610   2.838  14.668
 5463W        W73857  39.983  37.776  13.426
 5464W        W73858  13.320   8.860   3.593
 5465W        W73859  14.547  41.463   5.363
 5466W        W73860  12.780  37.591   1.312
 5467W        W73861  40.863  26.809  13.906
 5468W        W73862   2.784  32.150   1.151
 5469W        W73863  29.266  27.145  12.885
 5470W        W73864  14.744   6.700   1.130
 5471W        W73865  14.486  37.740  11.064
 5472W        W73866   8.464  42.239  13.550
 5473W        W73867   7.263  16.998   2.308
 5474W        W73868  10.328   0.629   3.784
 5475W        W73869  26.462  37.463  14.514
 5476W        W73870   9.911  44.891   4.045
 5477W        W73871  16.667  26.003   2.720
 5478W        W73872   5.280  44.003   3.386
 5479W        W73873   1.742  30.984  11.579
 5480W        W73874  36.524  29.107   0.754
 5481W        W73875  40.840   9.347  11.591
 5482W        W73876  30.192  16.808  11.701
 5483W        W73877  14.640  28.945  11.532
 5484W        W73878  39.397  25.818  11.657
 5485W        W73879  24.861  30.981  11.146
 5486W        W73880  10.115  33.890   4.898
 5487W        W73881  17.813   2.539  12.186
 5488W        W73882  30.123  14.105  13.438
 5489W        W73883   7.062  12.243  10.667
 5490W        W73884  13.085  27.732   1.352
 5491W        W73885  28.886  13.064   4.181
 5492W        W73886  37.447  33.391  13.400
 5493W        W73887  44.962  23.563  11.634
 5494W        W73888  36.328  34.850   4.149
 5495W        W73889  17.626   8.328   1.358
 5496W        W73890  15.746  34.517   2.842
 5497W        W73891   1.726  22.587  13.374
 5498W        W73892  36.064  31.160  13.500
 5499W        W73893  14.991   3.447  11.650
 5500W        W73894  28.138  44.427  14.708
 5501W        W73895  10.075  35.100  11.597
 5502W        W73896   2.265   5.931   3.356
 5503W        W73897  28.067  24.032  14.361
 5504W        W73898  29.030   4.716   2.190
 5505W        W73899  28.693  17.818   3.161
 5506W        W73900   0.826  24.633  11.132
 5507W        W73901  38.067   7.287   1.486
 5508W        W73902   9.158  37.985   3.342
 5509W        W73903  16.471  28.487  12.952
 5510W        W73904  27.562   0.843  14.451
 5511W        W73905   6.846  38.864   2.959
 5512W        W73906  20.730   8.357  13.798
 5513W        W73907  38.001  43.513  10.356
 5514W        W73908   0.677  40.563  12.436
 5515W        W73909  17.608  11.597  13.502
 5516W        W73910  39.269  25.608  10.777
 5517W        W73911  35.166   9.131  12.944
 5518W        W73912  28.948  39.841   0.080
 5519W        W73913   6.950  38.971  11.141
 5520W        W73914  17.061   7.123  12.937
 5521W        W73915  17.680   7.545  14.875
 5522W        W73916  13.179  26.747  11.099
 5523W        W73917   2.723   6.339  13.615
 5524W        W73918   7.302  26.881  14.740
 5525W        W73919  42.547  32.919   2.223
 5526W        W73920   7.515  32.450  10.364
 5527W        W73921  19.984  29.250  10.127
 5528W        W73922  42.853   3.375  10.608
 5529W        W73923  41.844  43.398   2.290
 5530W        W73924  19.769  25.041   5.429
 5531W        W73925  12.631  20.126  14.682
 5532W        W73926  14.327  44.824   0.228
 5533W        W73927  29.952  24.257   1.854
 5534W        W73928  30.275  17.600  11.245
 5535W        W73929  15.760  34.010  11.510
 5536W        W73930   4.439  34.563  10.587
 5537W        W73931  18.812   3.912   3.722
 5538W        W73932   4.206  26.666   2.016
 5539W        W73933  42.497  38.987   0.743
 5540W        W73934  19.571  43.963  12.361
 5541W        W73935   1.606  34.317   0.968
 5542W        W73936  14.875  44.887  14.355
 5543W        W73937  18.117   3.005  13.449
 5544W        W73938   9.194  33.051   4.541
 5545W        W73939  21.141  32.352   9.899
 5546W        W73940   5.828  19.706   4.583
 5547W        W73941  11.389   7.359   0.435
 5548W        W73942  11.797  22.988  14.255
 5549W        W73943  13.287  21.673  12.462
 5550W        W73944  42.434  29.148  13.723
 5551W        W73945   2.933   0.781  12.998
 5552W        W73946  14.829  24.467  12.279
 5553W        W73947   1.242  29.342  12.952
 5554W        W73948  31.420  17.179  13.306
 5555W        W73949   6.917  22.738  10.087
 5556W        W73950  21.761  27.588   9.873
 5557W        W73951  23.712  43.852   4.291
 5558W        W73952  36.285   2.401  11.197
 5559W        W73953  33.482  12.279  10.119
 5560W        W73954  38.815   2.368   4.208
 5561W        W73955  23.353  40.771  12.091
 5562W        W73956  20.093  26.908   4.063
 5563W        W73957   9.474   9.824  10.709
 5564W        W73958  31.342  14.304  11.566
 5565W        W73959  16.529   7.176  13.475
 5566W        W73960  26.730  41.612  10.724
 5567W        W73961   9.164  25.144   5.000
 5568W        W73962  23.476   1.166  12.819
 5569W        W73963  30.614   8.493  12.521
 5570W        W73964  30.893  14.216   2.744
 5571W        W73965   2.751  22.319  13.584
 5572W        W73966  29.961  23.757   0.463
 5573W        W73967  35.331   0.428   0.320
 5574W        W73968  25.727  19.055   0.256
 5575W        W73969  15.066  35.450  13.539
 5576W        W73970   4.125  30.395   4.122
 5577W        W73971   7.179  22.035  14.308
 5578W        W73972   3.943  17.864  10.764
 5579W        W73973  21.026   6.200   4.547
 5580W        W73974  19.953  41.904   2.415
 5581W        W73975  18.644  27.946   1.810
 5582W        W73976   7.168  17.195   1.282
 5583W        W73977  31.052  18.863  11.140
 5584W        W73978   7.786  20.655   2.643
 5585W        W73979  38.097   6.115  14.725
 5586W        W73980  19.929  10.931   4.029
 5587W        W73981   9.438  40.785   3.132
 5588W        W73982  44.438  13.792   1.068
 5589W        W73983  38.870   3.826  11.337
 5590W        W73984  29.226   3.262   1.429
 5591W        W73985  34.905   1.623  11.949
 5592W        W73986  29.707   6.354  13.501
 5593W        W73987  11.089  16.712   3.198
 5594W        W73988  35.814   9.793  13.711
 5595W        W73989  20.198  34.112   3.311
 5596W        W73990  27.213  36.184   2.422
 5597W        W73991  20.382  23.236   3.225
 5598W        W73992  19.908  29.075   2.627
 5599W        W73993  17.837  14.071   3.715
 5600W        W73994   3.175  26.204   4.783
 5601W        W73995  30.836   3.845   4.322
 5602W        W73996  16.974  14.372  11.575
 5603W        W73997  36.031  32.042   0.048
 5604W        W73998  12.101   4.774  12.518
 5605W        W73999  25.854  17.532   4.114
 5606W        W74000  12.762  23.712  12.606
 5607W        W74001  17.325  11.718   2.168
 5608W        W74002  19.585  26.151  14.794
 5609W        W74003  42.898  33.588  14.717
 5610W        W74004  35.386  32.693  10.604
 5611W        W74005  35.352  19.970   2.813
 5612W        W74006  42.597  22.991   5.061
 5613W        W74007  35.561  42.859  13.152
 5614W        W74008  36.148  17.651   0.645
 5615W        W74009   3.371  44.507   1.788
 5616W        W74010  29.632   1.362   3.299
 5617W        W74011  42.398   2.952   1.004
 5618W        W74012  10.076  42.789  14.869
 5619W        W74013  12.498  27.397  12.219
 5620W        W74014  15.674  30.585  12.506
 5621W        W74015  13.741  31.897   4.723
 5622W        W74016  26.446   4.823  14.393
 5623W        W74017  43.817  20.005   0.688
 5624W        W74018  36.636  40.002  10.006
 5625W        W74019  18.744  34.450  13.885
 5626W        W74020  31.955   4.976   2.846
 5627W        W74021  34.186  35.976  10.616
 5628W        W74022  11.833  24.693   3.338
 5629W        W74023  38.771  10.617   4.633
 5630W        W74024  33.679  36.065   2.272
 5631W        W74025  24.855  33.112   3.341
 5632W        W74026  15.710  15.234  12.664
 5633W        W74027  15.679  42.463   1.742
 5634W        W74028  44.881  19.560   2.663
 5635W        W74029  21.736  37.547   2.394
 5636W        W74030  39.335  35.727  14.872
 5637W        W74031  38.705  25.035  12.832
 5638W        W74032  31.673  16.834  12.991
 5639W        W74033  43.675  40.453   2.151
 5640W        W74034  24.869  40.059  13.366
 5641W        W74035   5.494  16.735   0.650
 5642W        W74036  20.026  19.784   3.658
 5643W        W74037  16.255  18.099  13.306
 5644W        W74038  44.458  40.015  13.428
 5645W        W74039  16.668  18.439  13.291
 5646W        W74040  31.311  23.096  14.834
 5647W        W74041  18.080   9.233  12.695
 5648W        W74042  27.137  23.172   1.371
 5649W        W74043   3.412  30.307  14.411
 5650W        W74044  11.193  27.196   4.100
 5651W        W74045   5.718   8.191   4.662
 5652W        W74046   8.851  29.183  12.362
 5653W        W74047   8.409   8.852  13.639
 5654W        W74048   2.202   2.412   0.834
 5655W        W74049  12.300  35.951  10.690
 5656W        W74050  39.059  37.105   3.081
 5657W        W74051  12.976  33.370   0.955
 5658W        W74052  27.519  39.412  12.981
 5659W        W74053  15.844  36.377   0.913
 5660W        W74054   9.584  22.596   1.802
 5661W        W74055   1.420  13.212   1.848
 5662W        W74056   9.821  39.411   4.648
 5663W        W74057  22.558  23.417  10.341
 5664W        W74058   7.665  25.044   3.270
 5665W        W74059  11.918  27.726  14.259
 5666W        W74060  38.884  41.540   2.274
 5667W        W74061  43.689  42.896   2.816
 5668W        W74062  39.374  43.940   3.212
 5669W        W74063  25.103  40.065   2.765
 5670W        W74064  28.714   2.835   3.632
 5671W        W74065  22.141  26.692   3.196
 5672W        W74066  31.161  22.085   1.175
 5673W        W74067  20.189   4.303  11.541
 5674W        W74068  21.096  20.542  13.411
 5675W        W74069   5.167  18.841   1.824
 5676W        W74070  41.407  15.498   4.115
 5677W        W74071  33.409   0.253   4.875
 5678W        W74072  36.794  39.834   0.054
 5679W        W74073  30.631  22.724  13.406
 5680W        W74074  35.576  41.942   4.132
 5681W        W74075   8.844  20.875   1.355
 5682W        W74076   0.876  28.516   2.713
 5683W        W74077   9.035  40.504   0.500
 5684W        W74078   5.210   7.522  14.026
 5685W        W74079  20.583  22.197   1.194
 5686W        W74080  18.765   1.242  10.514
 5687W        W74081  42.052  43.258   3.631
 5688W        W74082  35.880  39.585  11.106
 5689W        W74083  42.437   6.555  11.617
 5690W        W74084  28.792  44.619  11.106
 5691W        W74085  44.358  16.785  12.109
 5692W        W74086   1.863  18.296   0.485
 5693W        W74087   9.443  38.920  10.023
 5694W        W74088  39.846  14.125   4.750
 5695W        W74089  15.779  35.926  13.764
 5696W        W74090  27.619  21.343   2.254
 5697W        W74091  38.370  24.221   4.607
 5698W        W74092  43.259  34.938   2.375
 5699W        W74093   5.229  44.221  10.680
 5700W        W74094  36.076  34.286   1.947
 5701W        W74095  27.503  41.460   0.295
 5702W        W74096  19.398  33.431  11.512
 5703W        W74097  12.786  10.446   3.281
 5704W        W74098   8.793  35.094  10.665
 5705W        W74099  37.129  34.555  11.649
 5706W        W74100  33.670  20.070   0.642
 5707W        W74101  29.044  24.517  13.365
 5708W        W74102   0.526  22.221   0.397
 5709W        W74103  41.294  17.270   1.934
 5710W        W74104   7.922   5.763  12.570
 5711W        W74105  19.962  37.654   5.072
 5712W        W74106  38.415  43.509   4.300
 5713W        W74107  15.625  17.588  12.258
 5714W        W74108  24.553  11.330  14.526
 5715W        W74109   3.288  28.307  11.751
 5716W        W74110  15.605  25.148   2.672
 5717W        W74111  40.710  33.557   3.671
 5718W        W74112  44.651  28.944  11.578
 5719W        W74113  30.602  34.544   1.997
 5720W        W74114  28.641  28.446  10.956
 5721W        W74115  40.479  24.696   2.773
 5722W        W74116   3.474  25.179  10.856
 5723W        W74117  25.994  24.164  13.462
 5724W        W74118  44.935  33.577  14.833
 5725W        W74119  27.573  20.906   1.333
 5726W        W74120  11.308  11.150   2.014
 5727W        W74121   4.932  27.547  11.461
 5728W        W74122  39.906  17.782   3.601
 5729W        W74123  31.709  44.202  12.417
 5730W        W74124  34.569  39.891  14.456
 5731W        W74125  20.468  38.815  14.798
 5732W        W74126  33.171  42.942   4.210
 5733W        W74127  36.884  41.008  11.398
 5734W        W74128  20.302  29.070  12.916
 5735W        W74129  19.621  24.066  13.681
 5736W        W74130   6.138  18.151  14.930
 5737W        W74131  24.664  21.025  10.587
 5738W        W74132  19.751  27.142  12.657
 5739W        W74133  43.388  16.047  12.449
 5740W        W74134  19.927  36.390  11.129
 5741W        W74135  28.033  31.937  12.327
 5742W        W74136   9.891   2.215   2.431
 5743W        W74137  31.703  15.941   1.361
 5744W        W74138  12.363  35.079  14.099
 5745W        W74139  33.493  30.961   4.334
 5746W        W74140   2.602  36.009   5.159
 5747W        W74141   7.339  43.236  11.063
 5748W        W74142  30.530   4.334   2.724
 5749W        W74143  27.818  26.392   4.636
 5750W        W74144  42.359  14.642   1.312
 5751W        W74145  40.450  35.904   1.372
 5752W        W74146  38.583  20.600  11.481
 5753W        W74147  14.807  37.430  13.603
 5754W        W74148  15.701  23.879  12.961
 5755W        W74149  23.254  38.950  13.650
 5756W        W74150  19.537   9.832   1.575
 5757W        W74151  12.808  36.343  11.697
 5758W        W74152   2.452  24.943   0.382
 5759W        W74153   3.752  32.466  12.102
 5760W        W74154   4.933  32.691   2.814
 5761W        W74155   4.275  20.504   1.392
 5762W        W74156   7.872  43.416   4.884
 5763W        W74157   4.830  41.198  10.232
 5764W        W74158  20.251  41.485   3.344
 5765W        W74159  27.347   9.035  11.654
 5766W        W74160  29.810   4.853  13.463
 5767W        W74161  21.284  29.895  11.670
 5768W        W74162   1.498  25.566  14.733
 5769W        W74163   9.935  24.017   4.118
 5770W        W74164  30.247  18.913  13.713
 5771W        W74165  42.239  42.576   2.400
 5772W        W74166  24.916  10.321   3.272
 5773W        W74167  26.981  13.722  14.458
 5774W        W74168  23.689  17.240  12.088
 5775W        W74169  35.709  21.523   2.197
 5776W        W74170   8.215  22.042  14.956
 5777W        W74171  40.488   7.428   1.454
 5778W        W74172  17.996  38.303  12.887
 5779W        W74173  20.844  36.964   0.862
 5780W        W74174  27.630  10.630   4.861
 5781W        W74175  17.171  17.121  11.165
 5782W        W74176   5.183  25.023   3.100
 5783W        W74177  30.158  43.215   0.372
 5784W        W74178  32.943  21.572   0.775
 5785W        W74179   5.208  36.575  13.025
 5786W        W74180  26.081  33.170   1.230
 5787W        W74181  29.137  34.227   4.741
 5788W        W74182  33.039   3.829  14.226
 5789W        W74183  36.640  43.703  13.038
 5790W        W74184  15.779  12.616  12.504
 5791W        W74185  19.989  20.922  10.239
 5792W        W74186  23.776  44.506  14.882
 5793W        W74187  13.885   3.605   2.858
 5794W        W74188  20.573  10.905  13.502
 5795W        W74189  35.489   2.996   2.221
 5796W        W74190  14.449   0.714   4.073
 5797W        W74191   0.982   1.469   3.227
 5798W        W74192   6.858  40.335   2.180
 5799W        W74193   5.020  22.234  12.989
 5800W        W74194   9.591  29.655  10.454
 5801W        W74195   3.244  36.180   4.931
 5802W        W74196  36.855  36.278  12.062
 5803W        W74197   8.280  42.324  14.340
 5804W        W74198   1.792   5.099  12.596
 5805W        W74199  13.786  23.677  13.910
 5806W        W74200  40.435  38.820  13.920
 5807W        W74201  12.526  18.587  12.976
 5808W        W74202   1.046  13.208  13.911
 5809W        W74203  26.504  26.480   4.095
 5810W        W74204  23.568  24.704  14.538
 5811W        W74205  10.762   5.340   0.388
 5812W        W74206   7.158  10.272  14.759
 5813W        W74207  28.660   3.774   4.325
 5814W        W74208  19.240  25.183   2.755
 5815W        W74209  13.318  16.567  10.659
 5816W        W74210  39.620   8.637   3.537
 5817W        W74211  41.645  24.892  12.908
 5818W        W74212  35.006  27.597  14.473
 5819W        W74213  14.891   0.449   3.265
 5820W        W74214  44.268   4.893  12.537
 5821W        W74215  39.109  39.540  12.158
 5822W        W74216   8.714  40.470   0.908
 5823W        W74217  11.478  21.112   2.728
 5824W        W74218  13.753   7.017  13.455
 5825W        W74219  25.538  16.565   2.686
 5826W        W74220  44.446   0.798   4.960
 5827W        W74221  31.734   1.147   4.916
 5828W        W74222   4.470  11.189   4.449
 5829W        W74223  11.611   9.641  13.377
 5830W        W74224  32.315  30.436   4.118
 5831W        W74225  10.116   2.039  14.814
 5832W        W74226  42.371  35.495   2.370
 5833W        W74227  38.090  36.300  11.983
 5834W        W74228  29.429  43.692   3.744
 5835W        W74229  10.686  12.164  13.714
 5836W        W74230  23.570  27.946  14.286
 5837W        W74231   4.352  26.288   4.250
 5838W        W74232  43.218  25.975  14.467
 5839W        W74233   5.953  38.374   0.815
 5840W        W74234  23.517   3.275  13.270
 5841W        W74235   5.296   0.693   0.873
 5842W        W74236  26.717  21.094  13.486
 5843W        W74237  21.680  43.283   2.711
 5844W        W74238  33.548   8.854  14.863
 5845W        W74239  34.928   2.415  14.064
 5846W        W74240  15.414  16.166  11.936
 5847W        W74241   6.468  27.930  12.536
 5848W        W74242  37.325  12.278   2.588
 5849W        W74243  35.385  18.229   3.776
 5850W        W74244  30.135  41.493   4.595
 5851W        W74245  38.993  40.275  10.770
 5852W        W74246  43.506  40.702   4.986
 5853W        W74247  26.476   2.884  14.484
 5854W        W74248  30.121  30.720  14.467
 5855W        W74249  44.371  35.428  12.967
 5856W        W74250  16.314  38.661   0.770
 5857W        W74251   7.665   8.609  11.852
 5858W        W74252  35.464   4.824  10.385
 5859W        W74253  39.690  11.375   0.261
 5860W        W74254   5.692  23.725  10.319
 5861W        W74255  27.553  42.039   1.762
 5862W        W74256  17.062  38.490  12.117
 5863W        W74257  26.646   6.924   2.811
 5864W        W74258  19.617  24.179   2.133
 5865W        W74259  12.630  11.411  12.481
 5866W        W74260  13.535  14.283  12.019
 5867W        W74261  14.288  30.855   3.347
 5868W        W74262   5.221  16.418  12.971
 5869W        W74263   2.467   5.839   0.354
 5870W        W74264   5.677   9.647   4.490
 5871W        W74265  17.589   5.139  11.613
 5872W        W74266   6.540  20.666   3.237
 5873W        W74267   2.285  24.818  10.918
 5874W        W74268  39.480   5.186   2.439
 5875W        W74269  18.085  43.798  14.596
 5876W        W74270  23.270  21.688  14.409
 5877W        W74271  11.748  33.506   3.590
 5878W        W74272  12.594   5.722   3.765
 5879W        W74273  18.295   2.419   4.691
 5880W        W74274  28.606  42.678  13.871
 5881W        W74275  11.563  16.825  11.093
 5882W        W74276  30.926  38.780   4.150
 5883W        W74277  36.525  12.913   0.012
 5884W        W74278   8.431  15.641   1.414
 5885W        W74279  13.169  21.529  10.722
 5886W        W74280   0.673  16.286  12.868
 5887W        W74281  30.950  32.231   3.645
 5888W        W74282  23.054  28.925  13.972
 5889W        W74283   7.288   8.877  12.096
 5890W        W74284  27.955  44.923  10.876
 5891W        W74285  26.456   4.973   1.373
 5892W        W74286   5.793  11.492  14.204
 5893W        W74287  20.266  22.713  13.393
 5894W        W74288  16.379  33.592  12.783
 5895W        W74289  16.189  36.836   3.438
 5896W        W74290  34.020  34.761   1.701
 5897W        W74291  26.836  16.380   2.467
 5898W        W74292  14.193  37.085  13.896
 5899W        W74293   4.005  12.251   0.627
 5900W        W74294   3.428   1.700   0.001
 5901W        W74295  16.719  23.201  13.258
 5902W        W74296  41.708   4.853   3.668
 5903W        W74297  25.491  29.072   3.238
 5904W        W74298  26.381  34.777  13.513
 5905W        W74299  34.526  35.642  12.381
 5906W        W74300  32.133  31.210  13.950
 5907W        W74301  22.993  43.650   1.844
 5908W        W74302  23.754  20.318  13.201
 5909W        W74303   8.938  16.067  12.616
 5910W        W74304  26.447   2.875  11.279
 5911W        W74305  17.252  12.432   0.602
 5912W        W74306  19.106  14.344  11.363
 5913W        W74307  19.626  31.484   3.094
 5914W        W74308  28.669  11.867  13.840
 5915W        W74309  14.388  18.746   4.260
 5916W        W74310   9.528   3.845   0.346
 5917W        W74311  41.617   3.462  11.916
 5918W        W74312  11.824  10.289  13.640
 5919W        W74313  16.507  13.638   4.662
 5920W        W74314  17.110  43.907  13.456
 5921W        W74315  20.594  19.602  13.514
 5922W        W74316  15.091   2.651  12.600
 5923W        W74317   5.111   2.714  10.255
 5924W        W74318  30.626   2.078   2.851
 5925W        W74319  33.709   1.189   0.777
 5926W        W74320  36.956  22.208  13.639
 5927W        W74321  32.944  28.224   1.217
 5928W        W74322  42.598   1.455   3.463
 5929W        W74323   0.743  35.021   0.905
 5930W        W74324  44.993  40.507   1.823
 5931W        W74325  35.118  21.766  12.115
 5932W        W74326  36.096  29.523   2.159
 5933W        W74327  31.902  38.805   0.238
 5934W        W74328  15.619  25.033   0.632
 5935W        W74329  18.631  17.617   3.217
 5936W        W74330  13.073  24.599   4.652
 5937W        W74331  36.867  33.747   3.623
 5938W        W74332  29.055   8.282  13.486
 5939W        W74333   8.381  11.466  12.330
 5940W        W74334  34.059   3.463   3.105
 5941W        W74335   4.298  25.515  14.393
 5942W        W74336  32.367  26.175  13.579
 5943W        W74337  44.040  24.636  10.625
 5944W        W74338  37.834  21.369   0.917
 5945W        W74339   9.351  12.165   1.272
 5946W        W74340  36.430  15.586   4.216
 5947W        W74341  19.750  18.256  11.197
 5948W        W74342  10.337  41.846  11.508
 5949W        W74343   9.264  25.229  13.810
 5950W        W74344  17.859  14.859   0.404
 5951W        W74345   5.875  22.666   0.746
 5952W        W74346  13.875  31.436  14.391
 5953W        W74347  26.026   4.348   3.294
 5954W        W74348  34.882  44.129  10.792
 5955W        W74349  34.066  29.599  13.245
 5956W        W74350  35.302  15.110   0.848
 5957W        W74351  37.096  13.221   4.544
 5958W        W74352   2.111  31.750  11.606
 5959W        W74353  26.266   8.592  13.558
 5960W        W74354  44.169  40.902   1.746
 5961W        W74355  12.894  34.896   3.791
 5962W        W74356  37.060  43.086  12.550
 5963W        W74357  12.306   1.715   3.609
 5964W        W74358  20.547  15.716   5.366
 5965W        W74359  36.865  27.659   1.681
 5966W        W74360   3.597  29.284  14.512
 5967W        W74361   7.249   9.605  12.979
 5968W        W74362  30.815   2.901  13.919
 5969W        W74363  12.201  10.183   1.383
 5970W        W74364  37.452   9.289   1.168
 5971W        W74365   7.908  33.559   3.349
 5972W        W74366   2.037   7.789   3.041
 5973W        W74367   4.368  17.766   3.419
 5974W        W74368  16.062  33.367   0.287
 5975W        W74369  26.967  16.842   2.251
 5976W        W74370  22.039  12.801   3.846
 5977W        W74371  31.062  38.886  12.736
 5978W        W74372  44.487   4.412  12.452
 5979W        W74373  43.922  26.542  10.604
 5980W        W74374  11.321  28.873   3.289
 5981W        W74375   4.384  23.821  10.288
 5982W        W74376   3.317  26.004   4.327
 5983W        W74377  25.143   8.496   0.354
 5984W        W74378  28.244   0.921   4.940
 5985W        W74379  40.110  41.883  11.179
 5986W        W74380  15.075  32.842  10.805
 5987W        W74381  11.095  25.747   3.182
 5988W        W74382  24.888   4.196  12.227
 5989W        W74383  10.787  28.251   9.663
 5990W        W74384  31.442  25.013   0.687
 5991W        W74385  22.763  28.889  11.453
 5992W        W74386  27.845  38.413  11.701
 5993W        W74387  14.099   4.167  14.456
 5994W        W74388  12.773   3.342  13.923
 5995W        W74389  38.206   6.317   4.091
 5996W        W74390  35.423   1.516   4.686
 5997W        W74391  35.882  30.093  11.587
 5998W        W74392  23.416  25.480   4.090
 5999W        W74393  27.123  26.068  12.728
 6000W        W74394  29.104  22.455  10.987
 6001W        W74395  32.285   2.540  11.150
 6002W        W74396  44.021  11.234   4.210
 6003W        W74397  40.628  25.080   0.396
 6004W        W74398  24.504  20.685   0.935
 6005W        W74399  42.776   8.553   4.553
 6006W        W74400  13.727  20.056  10.690
 6007W        W74401  18.397  43.865   0.016
 6008W        W74402  33.652   9.959   3.208
 6009W        W74403  33.658  16.285  14.041
 6010W        W74404  18.808  22.318  12.425
 6011W        W74405  10.839   7.302  14.755
 6012W        W74406  20.875  17.269   2.360
 6013W        W74407   6.062  31.376   3.455
 6014W        W74408  42.534  11.829   4.986
 6015W        W74409  16.769  40.312   2.590
 6016W        W74410  21.725  26.978  11.644
 6017W        W74411  39.179  43.985   2.324
 6018W        W74412   8.657  37.635  10.360
 6019W        W74413  43.758  22.256   2.303
 6020W        W74414  27.040  10.943   3.249
 6021W        W74415  34.535  43.734  11.076
 6022W        W74416  18.127   9.365   3.853
 6023W        W74417  29.458  31.229  14.439
 6024W        W74418  38.315  41.921  11.227
 6025W        W74419  26.867   8.182   1.750
 6026W        W74420  10.739   5.853  14.068
 6027W        W74421  13.440  31.121   1.266
 6028W        W74422  25.704  37.783  10.323
 6029W        W74423  10.772  44.543  10.521
 6030W        W74424  26.069   4.399  11.536
 6031W        W74425   9.683   3.844  11.026
 6032W        W74426  37.347   1.148  11.206
 6033W        W74427  41.411  10.645   2.747
 6034W        W74428  19.506  26.574   0.833
 6035W        W74429   1.562  15.189   1.257
 6036W        W74430   5.295   1.895  12.917
 6037W        W74431   2.134   1.319  13.399
 6038W        W74432   4.712  12.207  13.903
 6039W        W74433  28.671  32.337   4.615
 6040W        W74434  12.611  28.039  13.955
 6041W        W74435   1.777  40.301  14.852
 6042W        W74436  27.708  34.900  12.913
 6043W        W74437   4.758  44.449   3.568
 6044W        W74438  21.653   8.349  11.221
 6045W        W74439   6.613  17.558  13.844
 6046W        W74440  42.016  26.772   0.321
 6047W        W74441   2.078  44.005  12.123
 6048W        W74442   6.690   7.733  13.883
 6049W        W74443  16.474   5.593  11.777
 6050W        W74444  43.382  11.683  11.144
 6051W        W74445  10.585  28.794   4.115
 6052W        W74446  16.155  18.184  10.229
 6053W        W74447   2.325   8.793   2.691
 6054W        W74448  19.525   7.212   3.878
 6055W        W74449  34.473  39.052   1.957
 6056W        W74450  31.598  20.823   1.520
 6057W        W74451   4.150  26.214  12.279
 6058W        W74452  13.734  29.405   4.174
 6059W        W74453  12.304  25.112   4.967
 6060W        W74454  14.705  28.847   2.185
 6061W        W74455  37.556  28.472  12.051
 6062W        W74456  18.876  14.740   9.978
 6063W        W74457  13.369  15.982   3.288
 6064W        W74458  24.195  27.475  14.242
 6065W        W74459  22.133  25.157  12.422
 6066W        W74460  27.507  25.117  11.956
 6067W        W74461  20.343   6.812   0.662
 6068W        W74462   8.835  20.612   4.545
 6069W        W74463  35.376   0.027  12.502
 6070W        W74464   7.778  29.010  14.378
 6071W        W74465  10.608   9.163   2.721
 6072W        W74466  43.836   3.934  14.524
 6073W        W74467  40.227  29.628  12.764
 6074W        W74468  14.504  14.185  14.809
 6075W        W74469   0.741  23.722   0.442
 6076W        W74470   0.733  32.961   1.295
 6077W        W74471  17.674   7.063  11.829
 6078W        W74472  28.686  43.409   1.780
 6079W        W74473  21.617  38.965   3.876
 6080W        W74474  30.994  42.724   2.348
 6081W        W74475  27.887   0.016   4.530
 6082W        W74476   5.799  10.245  13.281
 6083W        W74477  18.212  11.865   4.129
 6084W        W74478  28.918  16.669  13.379
 6085W        W74479   9.777  11.329  12.698
 6086W        W74480  36.875  21.479   1.279
 6087W        W74481  43.583  10.052  11.546
 6088W        W74482  33.902   2.896   1.289
 6089W        W74483  11.364  11.299   4.872
 6090W        W74484   2.920  33.846   3.824
 6091W        W74485  28.995  36.802  13.859
 6092W        W74486  14.594  17.311   2.689
 6093W        W74487   4.395  16.432   1.938
 6094W        W74488   6.934  40.540   1.395
 6095W        W74489  15.039  15.529  13.385
 6096W        W74490   8.898  15.806   2.135
 6097W        W74491  15.689  19.610  10.028
 6098W        W74492  42.300   2.798   4.259
 6099W        W74493  40.236  25.449   4.067
 6100W        W74494   7.348  40.818  11.178
 6101W        W74495  21.740  24.800   1.879
 6102W        W74496  37.404   7.283   0.821
 6103W        W74497  29.010  12.870  11.305
 6104W        W74498  43.585  39.306  13.053
 6105W        W74499  11.785  32.088  12.677
 6106W        W74500  30.658   9.254  12.917
 6107W        W74501  33.474  15.448   0.502
 6108W        W74502  27.749  20.603   4.575
 6109W        W74503   3.439  24.737   2.320
 6110W        W74504  36.435   0.797  11.674
 6111W        W74505  17.175  12.611   1.554
 6112W        W74506   3.525  39.107   2.793
 6113W        W74507  39.257  29.109  14.319
 6114W        W74508  40.236  17.091   0.376
 6115W        W74509  28.494  26.403   2.291
 6116W        W74510  38.830  28.342   4.224
 6117W        W74511  32.739   6.688  13.252
 6118W        W74512  37.560  21.432  11.970
 6119W        W74513  37.074  31.924   0.060
 6120W        W74514  11.203  10.454   0.769
 6121W        W74515  26.184  35.872  11.604
 6122W        W74516  32.314  11.720  14.276
 6123W        W74517   1.394  25.206   1.345
 6124W        W74518  11.452  18.638   3.173
 6125W        W74519  10.568   1.342   4.850
 6126W        W74520  21.643  10.305   5.269
 6127W        W74521  23.428  17.638  14.751
 6128W        W74522  25.841  26.717   3.200
 6129W        W74523  19.810  11.133   0.900
 6130W        W74524  35.233   5.120   1.589
 6131W        W74525  12.202  18.736   0.853
 6132W        W74526   7.932  15.715  14.031
 6133W        W74527  13.859  16.670  11.902
 6134W        W74528  41.455  37.151   4.020
 6135W        W74529  34.584   8.480   2.228
 6136W        W74530  28.096  35.368  10.651
 6137W        W74531  44.496  16.186  11.575
 6138W        W74532   6.926   0.321   2.897
 6139W        W74533   7.326  33.831  11.650
 6140W        W74534  43.271  35.429  11.924
 6141W        W74535  37.316  41.054   3.224
 6142W        W74536  35.423  16.124  14.387
 6143W        W74537  32.003  37.129  12.526
 6144W        W74538   4.545  14.515   3.542
 6145W        W74539  27.052  20.706  13.399
 6146W        W74540  28.072  29.850   4.188
 6147W        W74541  18.568  29.688  11.127
 6148W        W74542  32.418  30.119   0.306
 6149W        W74543   0.172  17.744  10.878
 6150W        W74544  38.034  29.145  11.230
 6151W        W74545  31.092   4.879   0.312
 6152W        W74546   0.202  40.350  14.999
 6153W        W74547   0.044   9.313   0.336
 6154W        W74548  37.335  33.966  12.202
 6155W        W74549  31.595  36.019  13.731
 6156W        W74550   0.847  44.830   4.380
 6157W        W74551  27.696  26.592   3.732
 6158W        W74552  37.481  39.073   0.925
 6159W        W74553   2.978  44.346   0.756
 6160W        W74554   5.488  34.607   4.768
 6161W        W74555  18.200  12.228  11.983
 6162W        W74556  32.525  30.149  14.414
 6163W        W74557  24.493  13.734  14.317
 6164W        W74558  27.218   0.470   5.052
 6165W        W74559  18.682  25.673   9.877
 6166W        W74560  20.477  25.094   2.743
 6167W        W74561  41.518  36.398  14.330
 6168W        W74562  31.973  18.815   3.707
 6169W        W74563  15.443   3.585  12.000
 6170W        W74564  42.258  11.200   2.376
 6171W        W74565  33.169  24.520   0.080
 6172W        W74566  15.222  16.276   2.226
 6173W        W74567  29.522  21.697  12.619
 6174W        W74568  16.036   3.016  10.738
 6175W        W74569  23.976  44.389   4.218
 6176W        W74570  23.607  17.210  14.977
 6177W        W74571  35.497  15.560   3.819
 6178W        W74572  12.097  10.686   1.282
 6179W        W74573  15.870  16.779   1.337
 6180W        W74574  42.218  22.468  12.103
 6181W        W74575  19.554  33.098   2.672
 6182W        W74576  11.538  28.590   1.380
 6183W        W74577  32.043   7.321   0.394
 6184W        W74578   2.474  34.653  13.794
 6185W        W74579  44.419  14.739  10.352
 6186W        W74580   7.819  22.669   3.385
 6187W        W74581  41.437  19.764   1.599
 6188W        W74582  27.340   1.006  14.895
 6189W        W74583   4.644   3.856  14.718
 6190W        W74584  32.222   8.920  10.439
 6191W        W74585  17.519  18.815  10.775
 6192W        W74586   4.404  38.372  12.125
 6193W        W74587  12.469  14.692  12.995
 6194W        W74588  43.883  18.862   4.692
 6195W        W74589   3.300  15.431  14.986
 6196W        W74590  35.483  25.746  12.078
 6197W        W74591  23.779  32.291  11.052
 6198W        W74592  26.896  23.305  10.978
 6199W        W74593   8.106  23.951  14.825
 6200W        W74594  15.657   6.752  13.162
 6201W        W74595  28.494  23.388  12.909
 6202W        W74596   9.422  44.270   4.561
 6203W        W74597  24.420  10.146   3.235
 6204W        W74598  22.513  31.625   0.758
 6205W        W74599  25.905   8.739   3.199
 6206W        W74600  16.992  19.790  14.611
 6207W        W74601  43.346  17.363   0.264
 6208W        W74602  40.801   6.392  14.427
 6209W        W74603  43.763  38.054  12.520
 6210W        W74604  28.911   6.103   3.258
 6211W        W74605  36.553  36.301  11.197
 6212W        W74606   9.152  17.264   2.157
 6213W        W74607   6.470  25.334   1.407
 6214W        W74608  36.322  10.092  13.815
 6215W        W74609  28.628  44.872  14.087
 6216W        W74610   3.785  15.785   4.550
 6217W        W74611  32.169  27.204  14.484
 6218W        W74612  23.566  33.730   0.402
 6219W        W74613  28.552  26.213  11.649
 6220W        W74614  18.058  43.430   1.225
 6221W        W74615   2.306  35.980   4.612
 6222W        W74616  40.200   1.015   1.155
 6223W        W74617  31.397  37.609  12.779
 6224W        W74618   0.711  19.631   1.151
 6225W        W74619  17.279  38.804   3.617
 6226W        W74620   1.940  21.977  12.100
 6227W        W74621  32.774  44.192   3.446
 6228W        W74622  14.742  10.766  11.082
 6229W        W74623  27.969  26.496  10.278
 6230W        W74624  18.911   3.669   4.544
 6231W        W74625   6.767   2.661  10.920
 6232W        W74626  17.654  12.395   3.676
 6233W        W74627  26.972  25.103   2.697
 6234W        W74628  13.766  42.439   0.975
 6235W        W74629  24.578   5.185   4.946
 6236W        W74630  11.515  29.918  12.488
 6237W        W74631  28.426  31.568  14.959
 6238W        W74632  39.430  12.720   3.231
 6239W        W74633  11.460  14.769  13.076
 6240W        W74634  24.211  39.868   2.487
 6241W        W74635   6.159  44.285  13.365
 6242W        W74636  44.733  12.658  12.217
 6243W        W74637  13.787  22.718   1.785
 6244W        W74638  30.899  33.609  10.756
 6245W        W74639  31.250  26.999   3.337
 6246W        W74640  16.335  13.642  12.068
 6247W        W74641  42.000  14.985   0.069
 6248W        W74642  23.969  18.514   3.197
 6249W        W74643  31.023  41.843  14.606
 6250W        W74644  19.967  18.122  10.747
 6251W        W74645  25.522  44.458   2.861
 6252W        W74646  43.610  33.426  11.972
 6253W        W74647  17.804  29.841  14.108
 6254W        W74648  40.336  42.715   4.156
 6255W        W74649  41.925  11.201  12.268
 6256W        W74650  32.554  13.914   3.775
 6257W        W74651  35.617  10.572  12.080
 6258W        W74652  22.102  20.469   1.972
 6259W        W74653  32.533  37.076   2.800
 6260W        W74654  34.096  17.508   1.739
 6261W        W74655  16.668   3.024  14.370
 6262W        W74656  41.047  17.700  14.416
 6263W        W74657  44.274  25.073   1.828
 6264W        W74658  32.914  42.263  10.750
 6265W        W74659  44.211  12.573  12.217
 6266W        W74660  31.535  14.326  10.539
 6267W        W74661  26.166  37.341   2.248
 6268W        W74662  13.846  37.410  10.497
 6269W        W74663  17.590  38.794   2.581
 6270W        W74664  31.870  38.349  12.871
 6271W        W74665  14.281  14.338  12.441
 6272W        W74666  40.626  11.411  10.694
 6273W        W74667  20.881  30.846  12.612
 6274W        W74668  25.039  43.263   0.681
 6275W        W74669  20.254  27.619   3.092
 6276W        W74670   9.318  26.493  11.663
 6277W        W74671  44.090   3.506   2.007
 6278W        W74672  34.116  27.047  12.747
 6279W        W74673  26.621  25.605  13.693
 6280W        W74674  38.041  24.216  13.925
 6281W        W74675  43.587  39.912  12.311
 6282W        W74676  27.430  17.862   2.436
 6283W        W74677  20.663  29.845   0.553
 6284W        W74678  29.046  18.061  13.203
 6285W        W74679  12.633  34.666  14.993
 6286W        W74680   5.699  40.443  10.773
 6287W        W74681  41.269   6.202  13.466
 6288W        W74682  39.445  36.834  13.536
 6289W        W74683   2.466   1.966   0.945
 6290W        W74684  20.599  15.974  10.267
 6291W        W74685   0.011  20.672  13.479
 6292W        W74686   3.804  14.310   3.526
 6293W        W74687  29.166   4.170   1.345
 6294W        W74688  13.800  10.181   2.225
 6295W        W74689  23.935  34.397  10.978
 6296W        W74690  23.862  21.978   2.886
 6297W        W74691  42.062  30.497  14.718
 6298W        W74692  23.538  10.900  12.361
 6299W        W74693  11.241  13.932  11.057
 6300W        W74694  30.844  40.573  11.131
 6301W        W74695  20.535  22.677  12.174
 6302W        W74696  14.746  19.995   2.222
 6303W        W74697  27.792  26.917  14.130
 6304W        W74698  41.917  30.162  13.547
 6305W        W74699  41.957   2.129  11.099
 6306W        W74700   9.320  44.767  11.229
 6307W        W74701  32.144  27.632  13.172
 6308W        W74702   2.995  16.809   1.897
 6309W        W74703  34.363  43.266   0.627
 6310W        W74704  35.033  25.605   3.408
 6311W        W74705   9.845  43.403  12.082
 6312W        W74706  16.070   1.462   4.907
 6313W        W74707  13.445  28.122   3.263
 6314W        W74708  12.214  40.553  11.993
 6315W        W74709   9.578  12.788   0.361
 6316W        W74710  30.647   9.811   1.856
 6317W        W74711  42.260   4.149  14.915
 6318W        W74712   7.953  27.621  11.594
 6319W        W74713  16.626   8.380  13.306
 6320W        W74714   1.815  14.687  13.612
 6321W        W74715   7.002   2.302   4.850
 6322W        W74716   6.702  31.114   4.254
 6323W        W74717  41.368  14.838  11.652
 6324W        W74718   9.162  10.665  11.947
 6325W        W74719   4.925  33.399   0.830
 6326W        W74720  21.957  34.613   4.577
 6327W        W74721  18.010  12.540   2.546
 6328W        W74722   0.240  40.393  14.064
 6329W        W74723  14.178  15.562   9.931
 6330W        W74724  30.931  16.608   0.334
 6331W        W74725  20.582  30.504   4.570
 6332W        W74726  25.102  21.317   2.127
 6333W        W74727  38.974   8.945   0.295
 6334W        W74728   0.463  40.253  10.171
 6335W        W74729   9.121   5.764   1.759
 6336W        W74730   9.748  15.600   2.454
 6337W        W74731  44.781  19.714  11.973
 6338W        W74732  39.850  24.987  11.574
 6339W        W74733  22.094  31.293  12.060
 6340W        W74734  14.412   6.622   2.789
 6341W        W74735  39.892  16.566   3.225
 6342W        W74736  40.570  11.319  11.530
 6343W        W74737  43.876   0.724   0.451
 6344W        W74738  18.229  29.119   4.130
 6345W        W74739  19.529  43.752  13.335
 6346W        W74740   6.142  41.077  14.493
 6347W        W74741  29.962  42.980  12.146
 6348W        W74742   3.814  31.624   3.806
 6349W        W74743  15.044   8.190  10.462
 6350W        W74744  24.089  32.488   5.020
 6351W        W74745  44.414  20.851   2.641
 6352W        W74746  29.468  24.428  12.117
 6353W        W74747   7.419   0.316   1.694
 6354W        W74748  30.536  26.036  13.397
 6355W        W74749   4.600   3.398  10.504
 6356W        W74750  11.993  34.944  10.719
 6357W        W74751  16.604  26.989   0.668
 6358W        W74752  36.297  33.859  13.767
 6359W        W74753  22.305  34.234   4.174
 6360W        W74754  30.896  21.658   1.352
 6361W        W74755  28.389  37.085  12.071
 6362W        W74756  27.368   4.131  14.887
 6363W        W74757  27.448  35.640   0.477
 6364W        W74758  37.025  18.209   1.467
 6365W        W74759  42.812  39.622   0.698
 6366W        W74760  28.068  31.509   3.134
 6367W        W74761  27.153  15.325  12.577
 6368W        W74762   5.358  19.812  13.808
 6369W        W74763  37.367  28.768  12.437
 6370W        W74764  31.388  30.447  11.603
 6371W        W74765  22.764   1.440   1.737
 6372W        W74766  15.794  29.832  12.785
 6373W        W74767  16.090  24.538  13.947
 6374W        W74768  41.742  22.640  10.356
 6375W        W74769  36.903  17.205  10.603
 6376W        W74770  41.805  21.282  11.518
 6377W        W74771  40.073  15.215  12.439
 6378W        W74772  27.650  31.044   4.514
 6379W        W74773  33.283   9.129  12.548
 6380W        W74774  17.201  10.911  12.635
 6381W        W74775  33.867  12.218  11.868
 6382W        W74776   5.023   5.296  14.786
 6383W        W74777   2.769  10.666  14.963
 6384W        W74778  15.708  37.414  11.950
 6385W        W74779   0.339  12.904   0.633
 6386W        W74780  13.600   0.324  13.986
 6387W        W74781   6.307  32.459  10.643
 6388W        W74782  18.785  25.161   4.986
 6389W        W74783   8.314  26.191   0.291
 6390W        W74784  39.969  23.331   4.643
 6391W        W74785   2.769  26.819  13.412
 6392W        W74786   3.920  24.979   1.762
 6393W        W74787   2.799  10.645  13.795
 6394W        W74788   7.090  25.852   9.826
 6395W        W74789  11.990  12.724  14.078
 6396W        W74790  13.661   3.268  11.459
 6397W        W74791  39.091   3.336  11.598
 6398W        W74792  10.381  10.918   1.823
 6399W        W74793  12.167   4.607   1.107
 6400W        W74794  40.444  33.438   0.598
 6401W        W74795  28.389  27.978   1.302
 6402W        W74796  41.372  35.853  13.123
 6403W        W74797   3.764  14.497   2.316
 6404W        W74798  11.854  30.463  11.403
 6405W        W74799  39.907  36.498  13.866
 6406W        W74800  10.216   0.423   1.744
 6407W        W74801   8.367  26.649  11.495
 6408W        W74802   5.326   6.845   0.183
 6409W        W74803  17.246   6.408   4.175
 6410W        W74804  43.358  30.419   4.583
 6411W        W74805  40.126  40.515   2.781
 6412W        W74806  26.029   2.563   3.644
 6413W        W74807  24.290  12.397   5.151
 6414W        W74808  16.217  16.175  12.669
 6415W        W74809  31.813  41.349  14.751
 6416W        W74810   7.267  24.809  12.457
 6417W        W74811  15.804   9.211  10.606
 6418W        W74812  44.866   4.453   2.283
 6419W        W74813  27.634  28.978  12.482
 6420W        W74814   0.117  23.101   1.620
 6421W        W74815  14.654  33.069  10.621
 6422W        W74816  42.865  24.509  12.056
 6423W        W74817  44.968   1.721   2.763
 6424W        W74818  36.107  37.577   1.409
 6425W        W74819  34.030  34.639   0.509
 6426W        W74820  30.507  39.501  12.998
 6427W        W74821  13.795  29.100   0.896
 6428W        W74822   0.708  44.429  12.161
 6429W        W74823   2.044  13.506  10.790
 6430W        W74824   8.648  16.264   2.132
 6431W        W74825   7.219  11.318   3.724
 6432W        W74826  30.853  39.115   1.382
 6433W        W74827  37.623  34.571   4.223
 6434W        W74828  42.479  11.287  10.831
 6435W        W74829   8.706  23.626  12.521
 6436W        W74830  34.123   6.398  13.371
 6437W        W74831  12.318  35.696  11.135
 6438W        W74832  17.620   2.633  13.533
 6439W        W74833   0.559  42.754   0.683
 6440W        W74834  21.504   0.433  11.625
 6441W        W74835  20.315  33.558  12.650
 6442W        W74836  31.089  12.873  14.761
 6443W        W74837  37.886   2.795  10.560
 6444W        W74838  13.653  42.007  14.906
 6445W        W74839  30.514  21.457  12.430
 6446W        W74840  13.123  31.994  13.005
 6447W        W74841   1.658  11.198  12.541
 6448W        W74842  22.727   5.394  14.542
 6449W        W74843  22.784  15.154  14.699
 6450W        W74844  29.301   8.503  12.260
 6451W        W74845  25.520   3.266   3.829
 6452W        W74846  29.834  17.092   2.347
 6453W        W74847  40.975   8.455  11.148
 6454W        W74848  24.185  29.948  14.251
 6455W        W74849  25.149  31.756  10.315
 6456W        W74850  18.945  42.836   3.705
 6457W        W74851  39.554  20.829  11.728
 6458W        W74852   7.001  22.627  10.624
 6459W        W74853  35.541   5.167   4.231
 6460W        W74854  42.823  41.605   1.921
 6461W        W74855   2.332   8.942   0.302
 6462W        W74856   4.485  23.931   0.786
 6463W        W74857  18.140  34.788  11.475
 6464W        W74858   6.405  35.342  11.624
 6465W        W74859  44.856   9.108   1.350
 6466W        W74860   7.319  33.613   4.170
 6467W        W74861  25.453  44.596  12.478
 6468W        W74862  25.284  33.315  11.445
 6469W        W74863  30.932  41.869  11.622
 6470W        W74864   4.313  12.421  12.961
 6471W        W74865   3.925   0.306  11.133
 6472W        W74866  11.113  12.390  13.944
 6473W        W74867  32.473  40.649  12.914
 6474W        W74868   8.201  41.744   2.148
 6475W        W74869   5.741  33.385   0.385
 6476W        W74870   0.456   5.750   4.740
 6477W        W74871  24.165  31.681   1.794
 6478W        W74872  18.721  42.725  14.303
 6479W        W74873  41.747  12.589   0.173
 6480W        W74874  42.638  44.342  10.627
 6481W        W74875  27.156   5.417  10.734
 6482W        W74876  25.675  31.041  14.754
 6483W        W74877  35.309  28.425  12.511
 6484W        W74878   5.820  21.491   2.416
 6485W        W74879  26.485  43.981   3.238
 6486W        W74880  18.107  33.570  13.046
 6487W        W74881   6.015  30.731   2.364
 6488W        W74882  22.081  39.907  11.487
 6489W        W74883  13.900  16.142   1.884
 6490W        W74884  44.774  32.482  10.910
 6491W        W74885  30.274  43.540  10.822
 6492W        W74886  28.167  24.574  14.408
 6493W        W74887   9.703  21.267   0.001
 6494W        W74888  25.353   1.356   2.379
 6495W        W74889  32.993  43.892  12.567
 6496W        W74890  33.117  24.966  14.825
 6497W        W74891   0.722  17.225  13.034
 6498W        W74892   9.361  36.452   4.138
 6499W        W74893   9.093  10.879  12.411
 6500W        W74894  15.526  26.522  10.268
 6501W        W74895   0.039  29.056  13.341
 6502W        W74896  19.495   6.474  12.828
 6503W        W74897  20.433  19.715   5.255
 6504W        W74898  26.650  10.679   3.487
 6505W        W74899  32.761  24.772   0.256
 6506W        W74900  30.552  21.943   2.822
 6507W        W74901  25.129  34.427  10.460
 6508W        W74902  39.114  16.656  12.433
 6509W        W74903  39.054  37.283  12.115
 6510W        W74904  40.393  34.373  14.077
 6511W        W74905  27.147  21.648  10.781
 6512W        W74906  39.430  19.769  14.106
 6513W        W74907   6.616  32.680   4.623
 6514W        W74908  30.704  19.632  11.935
 6515W        W74909   4.442  44.550   0.840
 6516W        W74910   1.143  32.072  13.944
 6517W        W74911  26.033  12.062  10.601
 6518W        W74912  11.662  26.476   2.412
 6519W        W74913   2.409  38.673  13.281
 6520W        W74914   8.365  42.307   0.264
 6521W        W74915  33.047  17.073  13.592
 6522W        W74916   7.837  34.000  14.783
 6523W        W74917  14.822  22.250  11.060
 6524W        W74918  44.431  38.482   1.791
 6525W        W74919  43.286   4.622   0.363
 6526W        W74920   7.427  22.620   4.526
 6527W        W74921  15.507  25.677  13.855
 6528W        W74922  40.437  21.142  12.800
 6529W        W74923  20.711  43.624   4.516
 6530W        W74924  28.638  39.538  12.850
 6531W        W74925  40.374  35.649   4.109
 6532W        W74926  41.327   5.825   3.071
 6533W        W74927  28.017  35.077   0.505
 6534W        W74928   3.657   3.731   2.095
 6535W        W74929   2.811  15.092   0.673
 6536W        W74930  20.141  12.739  11.120
 6537W        W74931   9.278  26.215   2.185
 6538W        W74932   1.412  44.428   4.324
 6539W        W74933  41.454  12.351  12.127
 6540W        W74934   6.749  39.014   0.277
 6541W        W74935  39.386  10.398  11.126
 6542W        W74936   6.666  36.935  11.116
 6543W        W74937  40.229   3.196  14.767
 6544W        W74938   0.655   9.001   4.724
 6545W        W74939  35.082  11.888  10.856
 6546W        W74940  26.531  34.073   2.213
 6547W        W74941  24.110  33.343  12.013
 6548W        W74942  13.161  18.300  13.989
 6549W        W74943  20.301  44.949   3.431
 6550W        W74944  25.501  23.191  12.064
 6551W        W74945   6.607  12.794  13.234
 6552W        W74946  22.658  39.947  12.686
 6553W        W74947  42.456  28.080  12.587
 6554W        W74948  25.774  26.078   3.536
 6555W        W74949  31.587  34.636   4.568
 6556W        W74950   7.375  41.774  12.034
 6557W        W74951   6.325  23.860  10.912
 6558W        W74952   5.768  21.077   1.181
 6559W        W74953  44.820  10.496   4.406
 6560W        W74954   3.257   8.592   5.434
 6561W        W74955  39.786  13.320   0.306
 6562W        W74956  26.717  25.648  12.813
 6563W        W74957  10.210  22.199  13.035
 6564W        W74958  13.706  24.062   1.524
 6565W        W74959  42.441  30.134  10.803
 6566W        W74960   3.331   6.759  13.930
 6567W        W74961   9.660  44.954  12.836
 6568W        W74962  11.894  11.181  13.887
 6569W        W74963  34.436  32.008  13.593
 6570W        W74964  40.119   1.583  12.710
 6571W        W74965  42.764  14.772   2.858
 6572W        W74966   2.561  34.964  12.615
 6573W        W74967  13.309  36.970   4.418
 6574W        W74968  21.402   3.414  13.177
 6575W        W74969  11.710  12.557  14.469
 6576W        W74970  18.786  39.929   3.731
 6577W        W74971  25.183  24.654  12.941
 6578W        W74972  40.183  34.994   2.059
 6579W        W74973  32.239   6.596   0.044
 6580W        W74974  18.848  25.225   3.603
 6581W        W74975  15.257  24.443   4.494
 6582W        W74976  26.092  27.160  11.496
 6583W        W74977  25.682   1.864  10.582
 6584W        W74978  21.621   9.498   0.875
 6585W        W74979  12.659  29.164  13.396
 6586W        W74980  44.653  28.480   3.559
 6587W        W74981  16.467  30.951   0.910
 6588W        W74982  13.838   7.879   1.811
 6589W        W74983  22.744   6.454   4.245
 6590W        W74984   3.892  42.270   4.902
 6591W        W74985  29.351  12.253  12.433
 6592W        W74986  42.526  14.038  12.844
 6593W        W74987  17.876  20.181  13.724
 6594W        W74988   2.169   2.442  12.829
 6595W        W74989   2.752  30.572  11.113
 6596W        W74990  30.033   4.185   0.935
 6597W        W74991  18.728  31.997   4.200
 6598W        W74992  42.724   5.383  14.996
 6599W        W74993  23.699  13.878   3.278
 6600W        W74994  29.602  43.358   1.865
 6601W        W74995  35.311  19.286   4.053
 6602W        W74996  11.756  26.176  14.423
 6603W        W74997  27.705   4.312  14.400
 6604W        W74998  12.919  16.652  11.697
 6605W        W74999  17.161  42.531  14.825
 6606W        W75000  32.474   7.806   3.322
 6607W        W75001  11.532  34.150  13.067
 6608W        W75002  38.626  38.907  11.679
 6609W        W75003  17.466   4.913   2.316
 6610W        W75004  31.724   9.813  14.712
 6611W        W75005  39.350  16.625  11.966
 6612W        W75006   4.583  24.350  10.952
 6613W        W75007  28.942  18.880   3.825
 6614W        W75008  38.721  37.121   1.828
 6615W        W75009  23.509  34.115   4.547
 6616W        W75010   9.019  32.620  11.531
 6617W        W75011  34.803  17.631  12.953
 6618W        W75012  18.787  17.491   2.721
 6619W        W75013   2.938  28.958  14.671
 6620W        W75014  41.632  28.272   4.177
 6621W        W75015  14.752  33.567  10.524
 6622W        W75016   1.027  15.810  13.974
 6623W        W75017  15.294  42.365   3.867
 6624W        W75018  35.892  40.265   1.536
 6625W        W75019  33.361  17.316  11.200
 6626W        W75020  17.591   1.208   4.078
 6627W        W75021  40.943   8.091  13.590
 6628W        W75022  23.759  10.399   4.450
 6629W        W75023  32.872   7.730   0.491
 6630W        W75024  22.407  36.836   1.423
 6631W        W75025  44.435  40.258  11.524
 6632W        W75026   9.878  19.196  14.283
 6633W        W75027  35.065  35.868   3.623
 6634W        W75028  30.371  31.536   3.288
 6635W        W75029  44.513  40.759  11.587
 6636W        W75030  31.655  23.586  12.242
 6637W        W75031  21.147  20.834  10.124
 6638W        W75032  42.702   9.172  14.449
 6639W        W75033  38.141  26.456  12.743
 6640W        W75034  27.656  40.591   3.094
 6641W        W75035  25.365  25.563  10.722
 6642W        W75036  15.502  21.679  14.207
 6643W        W75037  34.456   8.822   3.968
 6644W        W75038   3.708  26.737  10.756
 6645W        W75039  23.722  29.634  12.891
 6646W        W75040  19.966   0.255   0.697
 6647W        W75041  12.824  27.892   3.722
 6648W        W75042  36.352   4.836  14.304
 6649W        W75043  19.013  20.198  11.047
 6650W        W75044  22.013  21.451   3.741
 6651W        W75045  28.573   8.675   0.476
 6652W        W75046   0.892  14.302   3.314
 6653W        W75047  39.144  42.823  11.611
 6654W        W75048   1.882  16.859   1.230
 6655W        W75049  26.670  16.779   1.818
 6656W        W75050  36.455  13.153  12.936
 6657W        W75051  42.534  33.372   1.316
 6658W        W75052  30.366  22.465  11.957
 6659W        W75053  11.576  29.623   2.467
 6660W        W75054   4.534  34.817   4.514
 6661W        W75055  10.596   1.720   1.158
 6662W        W75056  36.558   0.042   1.305
 6663W        W75057  44.983  10.447  14.570
 6664W        W75058   9.404  29.243   3.343
 6665W        W75059  16.130  37.049   4.749
 6666W        W75060  37.929  13.426   2.903
 6667W        W75061  38.532  34.843  12.472
 6668W        W75062  20.546  17.698   2.284
 6669W        W75063   4.208  16.276  12.396
 6670W        W75064  13.789  29.740  14.011
 6671W        W75065   5.296  30.141  11.377
 6672W        W75066  27.140  44.497  13.274
 6673W        W75067  33.155  43.392   3.614
 6674W        W75068  20.502  42.836   2.287
 6675W        W75069  21.751  37.593   0.294
 6676W        W75070  25.573   8.238   0.522
 6677W        W75071  42.992  19.497  11.077
 6678W        W75072  25.456  11.861   4.055
 6679W        W75073  30.972   1.916   3.683
 6680W        W75074  31.496  35.026   2.626
 6681W        W75075  24.447  36.985  14.792
 6682W        W75076   6.859  39.258   0.753
 6683W        W75077  11.868  15.100   3.633
 6684W        W75078   6.839  38.796  14.795
 6685W        W75079   4.338  30.449  14.315
 6686W        W75080  32.114  14.846   2.822
 6687W        W75081  40.041   9.146  11.058
 6688W        W75082  21.903  33.027  14.360
 6689W        W75083   9.586  34.757   2.582
 6690W        W75084  15.120  21.360  14.309
 6691W        W75085  12.812  11.263  12.021
 6692W        W75086  41.773   8.799   0.540
 6693W        W75087  26.601  28.302   4.142
 6694W        W75088  28.212  28.613   2.829
 6695W        W75089  13.836  22.569  13.457
 6696W        W75090  11.306  28.902  12.570
 6697W        W75091  24.630  12.388  10.765
 6698W        W75092  28.203   6.353  12.581
 6699W        W75093  11.224  16.705  11.893
 6700W        W75094  15.678  29.687   1.010
 6701W        W75095   3.682  37.973  13.351
 6702W        W75096  33.077  11.732   4.129
 6703W        W75097  23.879  20.404  13.835
 6704W        W75098  19.765  30.672  11.121
 6705W        W75099  13.237   9.163   1.694
 6706W        W75100   0.802  20.608  10.968
 6707W        W75101  43.672  18.716  11.052
 6708W        W75102  13.252  38.978   2.924
 6709W        W75103  10.409   9.724  12.042
 6710W        W75104  17.832  32.193   2.151
 6711W        W75105  39.890   2.396   1.608
 6712W        W75106  38.449  18.949  14.757
 6713W        W75107  25.392  42.089   3.932
 6714W        W75108  30.424  38.922  10.511
 6715W        W75109  28.225  29.905   0.630
 6716W        W75110  20.737  28.759  12.419
 6717W        W75111  40.690  27.121  12.897
 6718W        W75112  32.585   4.148   1.829
 6719W        W75113   1.583  22.266  12.980
 6720W        W75114  20.835  16.331   0.451
 6721W        W75115   1.095  28.682   2.281
 6722W        W75116   3.953  40.060  14.281
 6723W        W75117   1.609  29.228   0.419
 6724W        W75118  14.706   6.375   1.533
 6725W        W75119  26.108  26.747  13.098
 6726W        W75120   0.207  38.021  11.213
 6727W        W75121  24.202  10.615  12.952
 6728W        W75122  32.153  25.015   1.354
 6729W        W75123  40.678  37.702  14.314
 6730W        W75124   4.277  16.591  10.988
 6731W        W75125  39.016  33.584   4.629
 6732W        W75126  36.015  16.189   4.110
 6733W        W75127  30.529  11.134  10.625
 6734W        W75128  33.167  19.026   1.939
 6735W        W75129  12.498  12.440   0.681
 6736W        W75130  17.882  15.863  11.262
 6737W        W75131  23.877  39.757   3.246
 6738W        W75132  26.152  40.306  12.099
 6739W        W75133   6.602  36.587   2.848
 6740W        W75134   0.479  43.780  14.347
 6741W        W75135  25.386  26.266  11.163
 6742W        W75136  30.173  31.017   3.401
 6743W        W75137  44.218  13.666  13.948
 6744W        W75138  43.716  20.627   4.103
 6745W        W75139  32.717  20.863   3.662
 6746W        W75140  36.816   1.488  12.008
 6747W        W75141  38.434  15.051  13.001
 6748W        W75142  22.463  32.091  11.090
 6749W        W75143  18.877  38.613   1.419
 6750W        W75144   3.998  29.654  10.804
 6751W        W75145  39.167  16.055  13.198
 6752W        W75146  34.593  44.244   3.650
 6753W        W75147  21.492  18.128  10.479
 6754W        W75148   8.850  25.090  11.474
 6755W        W75149   1.295   1.001  13.383
 6756W        W75150  39.779  44.489  11.586
 6757W        W75151   8.264  32.191  12.552
 6758W        W75152  22.622   5.726   2.331
 6759W        W75153   7.392  34.306   3.311
 6760W        W75154  23.490  39.041  14.397
 6761W        W75155  39.978  28.768  10.847
 6762W        W75156  12.311  25.121   3.914
 6763W        W75157  33.098  13.675   4.258
 6764W        W75158  43.318   7.864  11.843
 6765W        W75159  13.602  19.915  14.721
 6766W        W75160  26.543  16.516  13.320
 6767W        W75161  36.669   5.379  12.973
 6768W        W75162  44.763  40.094  13.912
 6769W        W75163  10.827  29.363  14.823
 6770W        W75164   6.103   1.234   9.910
 6771W        W75165  40.956  23.821  14.248
 6772W        W75166   2.954  31.345  10.762
 6773W        W75167  38.428  33.499   2.185
 6774W        W75168  16.660  33.226   0.229
 6775W        W75169  13.278  33.582   1.331
 6776W        W75170  43.531  29.459  10.968
 6777W        W75171  42.990  31.652  13.421
 6778W        W75172  21.539  23.267  10.544
 6779W        W75173   4.123  38.513  13.947
 6780W        W75174   9.904  21.329   5.009
 6781W        W75175  33.860  19.156  12.036
 6782W        W75176   0.061  10.167  10.721
 6783W        W75177  33.276  11.275  12.954
 6784W        W75178  18.757   2.275   0.241
 6785W        W75179  20.698  22.993  11.819
 6786W        W75180   6.747  43.851   1.231
 6787W        W75181   5.477  32.700   1.563
 6788W        W75182  13.284  36.621   3.104
 6789W        W75183  15.002   6.879  14.930
 6790W        W75184  17.807  12.362   1.910
 6791W        W75185  35.866  41.466  14.011
 6792W        W75186  29.487  37.501   1.787
 6793W        W75187  21.015  10.379  12.407
 6794W        W75188  24.887  42.068  10.623
 6795W        W75189  22.283   1.741  14.044
 6796W        W75190  41.459  21.194   2.749
 6797W        W75191  11.658  15.040   4.096
 6798W        W75192   9.378  24.691  13.082
 6799W        W75193  42.206  37.121  11.018
 6800W        W75194  43.934  21.631   1.019
 6801W        W75195  34.184  15.643   1.411
 6802W        W75196  12.634  16.233   0.334
 6803W        W75197  42.589  12.977  14.459
 6804W        W75198  10.527  34.981  12.492
 6805W        W75199  15.759   7.310  12.422
 6806W        W75200  13.749  35.223   2.762
 6807W        W75201  18.470  35.214  14.913
 6808W        W75202  12.016  44.488  14.037
 6809W        W75203   4.303   3.254   0.966
 6810W        W75204  28.397  27.737  13.543
 6811W        W75205  20.201  10.080   5.084
 6812W        W75206  15.832   2.210   1.125
 6813W        W75207  12.903  44.444   0.706
 6814W        W75208  17.802   8.411   3.638
 6815W        W75209   3.218   9.697   4.460
 6816W        W75210  20.172  40.961   4.158
 6817W        W75211  38.304  37.063  11.653
 6818W        W75212  29.570  41.725  13.909
 6819W        W75213   3.414  43.874   2.964
 6820W        W75214  13.706  28.892  13.026
 6821W        W75215  15.142  13.190   1.259
 6822W        W75216  40.779  44.216   1.904
 6823W        W75217  30.139   5.906   1.667
 6824W        W75218  11.905  28.237  14.424
 6825W        W75219  18.255   6.174  14.850
 6826W        W75220  33.723  31.219   1.409
 6827W        W75221  39.544  15.360   1.225
 6828W        W75222  29.162  41.387  14.002
 6829W        W75223   8.631  17.332   2.151
 6830W        W75224  19.677  11.306   2.375
 6831W        W75225  22.334   3.020   2.404
 6832W        W75226  12.281   9.593   3.669
 6833W        W75227   8.532  36.506  14.392
 6834W        W75228   8.098   3.976   2.807
 6835W        W75229  36.167  23.104   3.369
 6836W        W75230  38.334  34.898  11.983
 6837W        W75231  20.023  14.080  12.828
 6838W        W75232  14.338   5.493  14.052
 6839W        W75233  38.683   2.045   3.158
 6840W        W75234  21.246  32.014  13.970
 6841W        W75235  34.295   4.927   1.209
 6842W        W75236  24.066  43.319  10.717
 6843W        W75237  41.732  25.127  13.429
 6844W        W75238  36.387  33.872   3.598
 6845W        W75239   9.886  36.431   4.134
 6846W        W75240  19.544  22.557  10.637
 6847W        W75241  16.206  24.716  14.494
 6848W        W75242  38.255  13.279   0.132
 6849W        W75243   4.654  18.156  12.058
 6850W        W75244  39.236  38.309  14.851
 6851W        W75245  27.546   1.578  11.519
 6852W        W75246   9.460   6.601   0.816
 6853W        W75247   8.926  16.788  10.350
 6854W        W75248   1.320  12.800  13.691
 6855W        W75249  19.137  42.677  10.642
 6856W        W75250  20.780  17.528  12.879
 6857W        W75251  25.503  18.652   4.633
 6858W        W75252  41.839  35.371   4.574
 6859W        W75253  28.487  10.103  12.365
 6860W        W75254  44.387  31.226   3.168
 6861W        W75255  40.437  18.133   3.623
 6862W        W75256  18.215  11.670   2.118
 6863W        W75257  10.465  24.197  12.532
 6864W        W75258  20.947   9.144   1.375
 6865W        W75259   6.339  22.863   4.438
 6866W        W75260  29.546   1.871  11.817
 6867W        W75261  16.590  41.900   3.650
 6868W        W75262   1.271  28.669   4.220
 6869W        W75263  43.806  40.009   1.926
 6870W        W75264   8.235  17.898   4.441
 6871W        W75265  18.283  21.972  14.509
 6872W        W75266   2.493  22.248  10.682
 6873W        W75267  23.413  23.171   3.829
 6874W        W75268   6.713   4.419   1.991
 6875W        W75269   2.990  32.885   2.892
 6876W        W75270   0.526   1.973  11.570
 6877W        W75271   2.843   9.613  13.944
 6878W        W75272  10.936  18.689  13.255
 6879W        W75273  16.006  12.127   2.920
 6880W        W75274  41.400  19.383  10.769
 6881W        W75275  32.736  23.119   1.730
 6882W        W75276  10.858  24.594   1.499
 6883W        W75277  12.068  16.150  11.942
 6884W        W75278  10.781   8.812   2.364
 6885W        W75279  23.737  16.068   2.861
 6886W        W75280  11.309   0.949   4.571
 6887W        W75281  16.432   4.011   5.585
 6888W        W75282  42.981  44.577  13.855
 6889W        W75283  33.793  21.735  10.806
 6890W        W75284  22.195  14.379  11.892
 6891W        W75285  29.613  18.154  11.506
 6892W        W75286  11.560   3.844  12.489
 6893W        W75287  38.070  38.737   4.002
 6894W        W75288  34.989  23.982  14.538
 6895W        W75289   9.160   2.720   2.420
 6896W        W75290   3.262  16.645  11.955
 6897W        W75291   0.693  34.257   5.045
 6898W        W75292  13.141  19.472  11.921
 6899W        W75293  24.599  15.064   2.800
 6900W        W75294   6.894   6.210   0.286
 6901W        W75295  26.116   7.346  14.587
 6902W        W75296  28.537  25.642  14.310
 6903W        W75297  13.620  20.711  10.507
 6904W        W75298  41.899  26.481  14.887
 6905W        W75299  37.759  18.063  11.042
 6906W        W75300   3.928  38.352  13.025
 6907W        W75301  25.368   4.158   2.645
 6908W        W75302  16.287   0.746   2.121
 6909W        W75303   6.829   6.673  10.891
 6910W        W75304  43.754  25.221  13.423
 6911W        W75305   7.701  31.523   1.353
 6912W        W75306  31.627  13.887   2.366
 6913W        W75307  38.311  17.059   1.338
 6914W        W75308   2.511   8.383  10.920
 6915W        W75309  24.177  18.809   5.028
 6916W        W75310  10.406  30.619   4.156
 6917W        W75311  18.835  27.555   0.749
 6918W        W75312  25.023  17.201  12.528
 6919W        W75313  38.659  24.559  12.561
 6920W        W75314  43.305  13.822  12.881
 6921W        W75315  31.298  42.826   4.561
 6922W        W75316  13.126   9.135  14.810
 6923W        W75317  11.059  31.530   4.138
 6924W        W75318  11.817  19.473   3.262
 6925W        W75319  22.020  19.752  11.466
 6926W        W75320  15.549   3.822   2.450
 6927W        W75321   5.986   3.510  11.543
 6928W        W75322  22.293  21.932  12.470
 6929W        W75323   8.794  35.540  11.358
 6930W        W75324  42.964   1.283   1.205
 6931W        W75325   3.658   5.848   4.111
 6932W        W75326  15.668   6.093   4.216
 6933W        W75327  44.238   4.390  10.090
 6934W        W75328   8.710  18.794   3.932
 6935W        W75329  24.077   4.662  13.397
 6936W        W75330   2.584   3.529   2.873
 6937W        W75331  26.515  20.001   4.247
 6938W        W75332   1.450  40.383   0.254
 6939W        W75333   0.327  13.393  11.263
 6940W        W75334  32.093  15.674  10.884
 6941W        W75335   8.253   1.343  10.625
 6942W        W75336  27.824   2.016   2.892
 6943W        W75337  44.115  13.712   1.465
 6944W        W75338  31.977  19.067   4.201
 6945W        W75339  18.306  35.812  11.087
 6946W        W75340  40.427  36.972   5.120
 6947W        W75341  15.846  42.290  12.570
 6948W        W75342  37.667  16.633   0.967
 6949W        W75343  15.700  14.268   2.844
 6950W        W75344   5.418  23.604   4.120
 6951W        W75345   0.253  12.776   4.786
 6952W        W75346  36.588  19.001  13.837
 6953W        W75347  33.380  18.130   3.733
 6954W        W75348  12.256  44.473   0.825
 6955W        W75349   1.793  37.138   0.760
 6956W        W75350  17.721  26.028   3.099
 6957W        W75351   9.341  17.679   1.504
 6958W        W75352   1.464  10.099  13.887
 6959W        W75353  27.443  20.044   1.409
 6960W        W75354  37.740  32.349  13.329
 6961W        W75355  40.833  14.111  12.079
 6962W        W75356   6.643  44.286  13.544
 6963W        W75357  17.082  25.845  10.806
 6964W        W75358  20.026  43.926   1.383
 6965W        W75359  40.647   4.340  13.937
 6966W        W75360  40.721  21.554   2.491
 6967W        W75361   5.311  12.179   1.890
 6968W        W75362  39.829  36.151  10.996
 6969W        W75363   2.269  28.674  10.734
 6970W        W75364  17.845  15.182   2.960
 6971W        W75365  32.616  40.104   3.879
 6972W        W75366  41.779  40.748   3.292
 6973W        W75367  31.727   5.364   1.265
 6974W        W75368  33.028  33.435  14.573
 6975W        W75369   0.235  24.077  11.423
 6976W        W75370  20.751  40.036  11.343
 6977W        W75371   1.831  44.945  12.384
 6978W        W75372  21.578  11.396   2.866
 6979W        W75373  24.088  16.661  10.346
 6980W        W75374  37.384   5.901   4.683
 6981W        W75375  17.093  18.309   3.942
 6982W        W75376   8.000  30.840  13.604
 6983W        W75377  17.504  11.667   4.076
 6984W        W75378   3.853  19.310  12.140
 6985W        W75379  44.757  27.836   1.295
 6986W        W75380  28.607  14.313   3.874
 6987W        W75381  18.650   5.180   1.901
 6988W        W75382  12.601  13.550   4.172
 6989W        W75383  12.770  31.194   2.772
 6990W        W75384  29.262   5.627   0.967
 6991W        W75385  32.081   5.246  10.458
 6992W        W75386  20.394  40.496   4.138
 6993W        W75387  24.698   9.541  14.708
 6994W        W75388  39.380  33.578  14.758
 6995W        W75389  19.550  22.022  10.948
 6996W        W75390  43.247  18.044   3.101
 6997W        W75391   7.412  12.185   2.636
 6998W        W75392  16.544  30.061  12.938
 6999W        W75393  42.109  31.898  10.720
 7000W        W75394  32.582  34.614  12.812
 7001W        W75395  23.758   4.943   2.336
 7002W        W75396  26.175  43.008   3.810
 7003W        W75397  18.595  41.543   1.277
 7004W        W75398  44.894   6.649   1.735
 7005W        W75399  20.610   4.914   3.256
 7006W        W75400  39.284  22.811   1.750
 7007W        W75401   7.369  19.445  14.511
 7008W        W75402  20.104  19.972   1.268
 7009W        W75403   3.279  10.940  11.107
 7010W        W75404  30.484  38.889   0.401
 7011W        W75405  37.151  16.778   2.830
 7012W        W75406  26.552  17.125   3.293
 7013W        W75407  30.088  10.886   3.232
 7014W        W75408  41.728  19.479  14.003
 7015W        W75409   6.742  37.932   2.631
 7016W        W75410  26.469  25.796   0.428
 7017W        W75411   0.764   1.605   3.686
 7018W        W75412  34.535  41.543  12.782
 7019W        W75413  14.468  32.432   0.750
 7020W        W75414  24.950   9.281   2.359
 7021W        W75415  17.814  42.503  11.449
 7022W        W75416  35.035  41.968   0.303
 7023W        W75417  37.398  19.416  13.716
 7024W        W75418  18.900  12.673   2.748
 7025W        W75419  27.246  30.923   2.236
 7026W        W75420   4.802   6.206  14.348
 7027W        W75421  29.666  29.644  14.240
 7028W        W75422  12.793  18.142   0.803
 7029W        W75423  34.610  36.983   2.789
 7030W        W75424   3.445  44.670  11.483
 7031W        W75425  39.411  32.523  12.667
 7032W        W75426   8.218  20.709  11.225
 7033W        W75427  13.545  38.915   4.595
 7034W        W75428   0.413   2.965  13.905
 7035W        W75429  10.761  15.224   0.915
 7036W        W75430  10.148  18.804  11.677
 7037W        W75431  41.919  34.363  10.167
 7038W        W75432  39.475  40.528  10.749
 7039W        W75433  11.371  39.353   1.735
 7040W        W75434   3.464  27.538   4.398
 7041W        W75435  24.399   4.766   4.146
 7042W        W75436  11.221   1.280   1.931
 7043W        W75437   7.154  25.170  14.856
 7044W        W75438  11.552   3.173   2.741
 7045W        W75439  22.592  10.642  13.976
 7046W        W75440   6.335  20.564   2.759
 7047W        W75441  18.125  36.280  11.181
 7048W        W75442  10.585  19.634   2.843
 7049W        W75443  20.707  16.237   3.726
 7050W        W75444  31.851  25.130  12.498
 7051W        W75445   8.505  37.827  11.211
 7052W        W75446  44.697  31.774   4.524
 7053W        W75447   8.382  30.227   2.667
 7054W        W75448  20.083  24.609   3.254
 7055W        W75449  13.649  44.439  13.374
 7056W        W75450  27.021   8.216  12.443
 7057W        W75451   5.061  39.441   2.707
 7058W        W75452  10.133  11.096  11.167
 7059W        W75453  17.334  43.805  13.015
 7060W        W75454   8.285  13.950  12.484
 7061W        W75455  41.645  25.463   3.253
 7062W        W75456  11.842  32.499  11.144
 7063W        W75457  24.685  21.131   4.979
 7064W        W75458  20.125   9.847   2.296
 7065W        W75459   4.221  38.772   0.771
 7066W        W75460  10.256  14.072  14.362
 7067W        W75461  17.708  31.995  10.301
 7068W        W75462  31.046  26.812   1.874
 7069W        W75463   9.609   7.830   0.728
 7070W        W75464  37.569  12.083  14.452
 7071W        W75465  15.752  37.486   1.746
 7072W        W75466   3.093  26.021   1.759
 7073W        W75467   2.978  31.453  14.728
 7074W        W75468  42.401  35.554   4.589
 7075W        W75469   8.242  43.961   4.054
 7076W        W75470  40.922  23.435  11.482
 7077W        W75471  42.656   4.300  12.860
 7078W        W75472  29.874   6.483  11.178
 7079W        W75473  26.934  25.093   2.141
 7080W        W75474  24.452   2.756   1.948
 7081W        W75475  44.304  40.870  10.556
 7082W        W75476  29.525  14.620  10.485
 7083W        W75477   2.260   3.492  12.855
 7084W        W75478   1.323   1.233  14.879
 7085W        W75479  33.650   1.713  14.493
 7086W        W75480  23.620  32.405  13.374
 7087W        W75481  38.795  19.019   0.334
 7088W        W75482   3.194  13.812   3.207
 7089W        W75483  26.386  27.098   2.870
 7090W        W75484  35.546  14.690   3.882
 7091W        W75485  14.951   9.870  14.002
 7092W        W75486  30.639  41.253  10.824
 7093W        W75487   4.298  15.821  12.600
 7094W        W75488  22.032  15.644   3.685
 7095W        W75489  38.949  22.043  11.831
 7096W        W75490  16.268  26.073   0.402
 7097W        W75491  40.515  43.015  11.905
 7098W        W75492   4.396  35.357   0.205
 7099W        W75493  33.517  38.554  11.133
 7100W        W75494   4.471  24.278  13.697
 7101W        W75495  38.516  15.092  10.638
 7102W        W75496  11.916  28.596  13.007
 7103W        W75497  24.208   9.732  12.875
 7104W        W75498  23.037   1.067  12.547
 7105W        W75499  28.430  25.778   1.485
 7106W        W75500   1.742  26.246   5.006
 7107W        W75501   8.229  17.280   0.695
 7108W        W75502   9.023  30.874  11.339
 7109W        W75503  26.692  11.335  11.196
 7110W        W75504  43.433  40.360   3.271
 7111W        W75505  42.704   4.666  14.078
 7112W        W75506  37.409   8.887   1.537
 7113W        W75507   1.845  25.825   2.282
 7114W        W75508  42.271  40.818  10.427
 7115W        W75509   1.836   2.727  12.572
 7116W        W75510   4.137   7.215  13.094
 7117W        W75511  14.859   1.430   0.738
 7118W        W75512  29.290  34.297  11.621
 7119W        W75513   4.982  15.451  14.877
 7120W        W75514   6.301  10.790  10.730
 7121W        W75515   7.324  28.205   1.345
 7122W        W75516   2.876  17.056   1.452
 7123W        W75517  30.217  20.462  10.751
 7124W        W75518  16.223   9.740  13.542
 7125W        W75519  22.666  35.081   0.829
 7126W        W75520  38.388  43.544  12.893
 7127W        W75521  18.838  19.566   1.023
 7128W        W75522  37.038  41.661  14.098
 7129W        W75523   7.683  21.083   4.185
 7130W        W75524   3.979   4.917   4.888
 7131W        W75525   5.230   9.734  14.249
 7132W        W75526   1.835  31.913  10.645
 7133W        W75527  12.695  17.806   0.210
 7134W        W75528   8.936  15.512   1.703
 7135W        W75529   7.724  36.337  12.561
 7136W        W75530  39.578  24.202   0.504
 7137W        W75531   1.496  14.896  11.873
 7138W        W75532  19.261  44.812   4.684
 7139W        W75533  42.785  29.507  13.791
 7140W        W75534  28.194  34.866  10.593
 7141W        W75535  25.427   5.893  13.293
 7142W        W75536  13.898  20.009   5.060
 7143W        W75537   8.597   1.707  10.775
 7144W        W75538  41.043  37.032   2.847
 7145W        W75539  35.734  32.548  13.299
 7146W        W75540  23.647  26.168   3.160
 7147W        W75541   4.375   6.732  13.233
 7148W        W75542  16.731  40.887  12.116
 7149W        W75543  34.141   6.935  13.468
 7150W        W75544  19.982   9.755   1.276
 7151W        W75545  23.159  40.788  11.205
 7152W        W75546  10.956  14.235  14.929
 7153W        W75547  25.212  43.319  12.607
 7154W        W75548  21.178  18.125   1.802
 7155W        W75549  34.458  30.028   0.505
 7156W        W75550  14.519  32.470   4.025
 7157W        W75551  36.088  23.604   4.028
 7158W        W75552  23.647  28.685  14.438
 7159W        W75553  15.441  32.006  10.657
 7160W        W75554  13.110  38.860  10.679
 7161W        W75555   5.334  16.817   5.070
 7162W        W75556  22.474  26.757   0.335
 7163W        W75557  18.401  43.090   1.447
 7164W        W75558  31.156  41.836   3.220
 7165W        W75559   4.776  21.787   0.318
 7166W        W75560  31.613  38.816   0.704
 7167W        W75561   7.498   9.682  13.424
 7168W        W75562  43.901  35.356   4.561
 7169W        W75563  26.982   5.699   2.994
 7170W        W75564  13.646   9.090  14.038
 7171W        W75565   6.910   9.813  14.766
 7172W        W75566   1.821  43.820  11.686
 7173W        W75567  19.314  39.486   4.990
 7174W        W75568  18.708  18.132   0.194
 7175W        W75569  22.451   1.762   1.989
 7176W        W75570   7.985  24.182  12.982
 7177W        W75571   5.016  29.698  11.283
 7178W        W75572  32.453   8.958  14.883
 7179W        W75573  12.918  43.858   2.221
 7180W        W75574  43.394  16.736  14.861
 7181W        W75575  24.790  17.748   1.951
 7182W        W75576  40.783  22.492  11.032
 7183W        W75577  29.098  22.706  13.811
 7184W        W75578  44.726  24.204  12.694
 7185W        W75579  42.087   5.904  14.428
 7186W        W75580  42.021  24.954  13.896
 7187W        W75581  34.383  10.657  10.753
 7188W        W75582  24.966  18.711  10.698
 7189W        W75583  13.007  14.539   0.457
 7190W        W75584  11.116  22.972   0.283
 7191W        W75585  32.197  13.637  12.961
 7192W        W75586  17.653  19.223  11.081
 7193W        W75587  33.345  43.082  10.857
 7194W        W75588  25.438   8.359   3.693
 7195W        W75589  36.776  25.286   1.796
 7196W        W75590  27.211  24.185   2.191
 7197W        W75591   9.269  24.315   2.836
 7198W        W75592   8.909   0.078  14.372
 7199W        W75593   5.428  38.618  10.551
 7200W        W75594   3.374  28.214   1.774
 7201W        W75595  24.481  12.675   5.536
 7202W        W75596  32.368   8.157   4.092
 7203W        W75597  33.025   7.659   2.582
 7204W        W75598  38.538  24.395  13.938
 7205W        W75599  33.063  36.623   3.379
 7206W        W75600  34.018  10.530  11.107
 7207W        W75601  36.834  33.047   1.906
 7208W        W75602  42.316   3.017  11.168
 7209W        W75603  36.118   3.340  13.525
 7210W        W75604  42.352   0.774  11.314
 7211W        W75605  11.526  10.185   3.616
 7212W        W75606  37.888  32.947   2.534
 7213W        W75607  44.060   5.905   1.129
 7214W        W75608   0.795  14.671   3.659
 7215W        W75609  24.015  16.270  13.947
 7216W        W75610  16.972  10.880   3.665
 7217W        W75611  12.706  29.739  14.554
 7218W        W75612  30.462   9.797   4.858
 7219W        W75613  33.916  42.509  11.579
 7220W        W75614  18.326  14.972   3.324
 7221W        W75615  15.303  32.938   0.863
 7222W        W75616  43.766  38.937  12.743
 7223W        W75617  42.769  26.013   2.409
 7224W        W75618  10.389  21.743   0.941
 7225W        W75619  22.737   3.456  10.554
 7226W        W75620   2.403  11.911  10.140
 7227W        W75621  19.807  40.814   0.532
 7228W        W75622  17.066  24.113  14.418
 7229W        W75623  31.606  29.024   0.753
 7230W        W75624  22.670  38.264   3.742
 7231W        W75625  17.233  24.634   3.718
 7232W        W75626  38.461  23.474   3.705
 7233W        W75627  40.541   1.953  12.131
 7234W        W75628  29.197  24.675   1.664
 7235W        W75629  44.324  38.459  13.355
 7236W        W75630  23.251  23.643  13.203
 7237W        W75631   9.925   0.202   3.608
 7238W        W75632  10.687   0.043  10.314
 7239W        W75633  16.388  42.693   0.696
 7240W        W75634  36.144  31.352  10.787
 7241W        W75635  32.851  42.737  13.118
 7242W        W75636  32.292  42.642  13.812
 7243W        W75637  15.552  11.655  10.769
 7244W        W75638  34.442  18.707   2.161
 7245W        W75639  12.034  16.688   1.973
 7246W        W75640  23.127   2.185   3.353
 7247W        W75641  35.812  33.143   2.006
 7248W        W75642  30.410  22.108  14.465
 7249W        W75643  36.025  37.602   3.280
 7250W        W75644  30.975  35.677   1.111
 7251W        W75645  10.219  40.835  11.597
 7252W        W75646  16.600  11.371  14.534
 7253W        W75647  24.966  26.286  12.459
 7254W        W75648   6.232  21.566   1.405
 7255W        W75649  39.783  35.068  14.323
 7256W        W75650  21.514  31.878   1.212
 7257W        W75651  44.296  28.532  14.855
 7258W        W75652   8.102  13.294  11.970
 7259W        W75653  32.068  30.884  11.471
 7260W        W75654   1.279  31.947  13.446
 7261W        W75655  25.964  35.129  14.482
 7262W        W75656  30.411  32.970   0.389
 7263W        W75657  28.318   0.926   4.438
 7264W        W75658  26.504  39.867  11.503
 7265W        W75659  13.771   4.170  13.752
 7266W        W75660  35.021  23.739   2.838
 7267W        W75661  17.016  34.096   0.139
 7268W        W75662   8.705  44.841   4.580
 7269W        W75663  37.969  30.837  12.869
 7270W        W75664  32.676   3.143  12.299
 7271W        W75665  38.314  42.401   2.848
 7272W        W75666  43.325   5.296   3.921
 7273W        W75667  22.465  28.595   0.860
 7274W        W75668  26.811  44.845   1.195
 7275W        W75669   0.325  41.443   1.501
 7276W        W75670  29.072  44.553   3.676
 7277W        W75671  15.086  42.066   0.974
 7278W        W75672  43.926  26.721   0.507
 7279W        W75673  13.135  20.479   0.840
 7280W        W75674   3.645  17.657  11.953
 7281W        W75675  18.232   9.392  11.244
 7282W        W75676  32.225  35.946  10.566
 7283W        W75677  41.525  30.683  13.054
 7284W        W75678  39.553  17.723  12.901
 7285W        W75679  40.614  19.274  14.829
 7286W        W75680  33.082  17.981  14.849
 7287W        W75681  18.279   4.203   2.364
 7288W        W75682  41.890  32.679  14.734
 7289W        W75683  20.833  29.107  12.813
 7290W        W75684  40.048  24.725   1.860
 7291W        W75685  43.609  11.817  13.019
 7292W        W75686  26.499  16.943   0.627
 7293W        W75687  16.706   2.678  11.067
 7294W        W75688   5.399   4.461   2.234
 7295W        W75689  19.635  20.340  12.659
 7296W        W75690  44.830  18.248  10.686
 7297W        W75691  24.052  12.372   5.614
 7298W        W75692  16.659  24.608  11.588
 7299W        W75693  40.955  13.286  13.351
 7300W        W75694  35.847   4.946   4.685
 7301W        W75695  35.566  30.907  11.611
 7302W        W75696  29.639  22.672   0.455
 7303W        W75697  24.600  27.990  13.067
 7304W        W75698  28.013  30.555   3.540
 7305W        W75699   2.313  30.122  14.855
 7306W        W75700  34.406  23.451  13.879
 7307W        W75701   6.134  32.476   4.615
 7308W        W75702  33.494   7.410   2.547
 7309W        W75703  12.297  21.846   4.062
 7310W        W75704  28.176  16.242  11.927
 7311W        W75705   3.837  33.994   3.642
 7312W        W75706  24.668  15.660   1.465
 7313W        W75707  36.490  29.485   3.344
 7314W        W75708  36.486  23.199  11.996
 7315W        W75709  37.112  39.968   2.645
 7316W        W75710  40.218  18.305   4.491
 7317W        W75711  35.457  31.304   2.828
 7318W        W75712   3.030  41.734  14.966
 7319W        W75713  32.050   9.072   1.240
 7320W        W75714  30.207  26.537   3.636
 7321W        W75715  18.699  10.112   0.843
 7322W        W75716  40.523  23.111  11.761
 7323W        W75717   9.423  17.200   2.653
 7324W        W75718  38.088   4.922   9.846
 7325W        W75719   1.051  42.355   3.886
 7326W        W75720  17.093  40.421  14.814
 7327W        W75721   2.253   8.270   2.910
 7328W        W75722   5.455  12.572  13.985
 7329W        W75723  36.972  16.082   2.420
 7330W        W75724  17.920  22.506   2.369
 7331W        W75725  18.192  40.089   4.515
 7332W        W75726   9.845  38.739   3.874
 7333W        W75727   5.312  37.145   2.169
 7334W        W75728  36.503  16.246  10.570
 7335W        W75729  23.274  16.134  13.501
 7336W        W75730  39.118  30.593   0.316
 7337W        W75731   5.741  40.046   2.883
 7338W        W75732   9.129   5.330  11.949
 7339W        W75733  25.636   6.942   1.677
 7340W        W75734   5.331  14.089  14.878
 7341W        W75735  22.927  40.790  12.906
 7342W        W75736   6.112  28.125   1.922
 7343W        W75737   4.816   6.430   2.372
 7344W        W75738   1.967  42.797   0.822
 7345W        W75739   5.422  37.346  14.339
 7346W        W75740  26.300  39.666   1.303
 7347W        W75741  17.282  19.282   3.647
 7348W        W75742  39.181  24.786  13.542
 7349W        W75743  43.159  42.061   3.660
 7350W        W75744  20.078  36.467  10.625
 7351W        W75745  38.225  24.252   2.679
 7352W        W75746  18.383  41.230   1.898
 7353W        W75747   9.189  26.578  14.349
 7354W        W75748  38.776  42.757   4.299
 7355W        W75749  33.769  18.640   4.671
 7356W        W75750  36.345  41.884   4.696
 7357W        W75751  17.390  12.701  14.231
 7358W        W75752  30.119  26.047  14.520
 7359W        W75753  23.652  34.374  11.585
 7360W        W75754  13.453  35.335   3.217
 7361W        W75755  43.262  36.037  12.573
 7362W        W75756   4.912  23.495   3.408
 7363W        W75757  42.321  23.340   1.800
 7364W        W75758  32.991   7.967  11.842
 7365W        W75759   7.706   1.443  11.613
 7366W        W75760  20.739  23.083  11.306
 7367W        W75761  43.957  10.799  14.856
 7368W        W75762  19.544  36.387   2.941
 7369W        W75763  18.653  14.478  10.425
 7370W        W75764  12.427   0.893  12.494
 7371W        W75765   5.998  10.412  12.837
 7372W        W75766  20.026   5.957   1.459
 7373W        W75767   2.047  30.390   4.563
 7374W        W75768  39.365  42.468   0.938
 7375W        W75769  37.902   2.650   3.370
 7376W        W75770  26.436  29.120   0.351
 7377W        W75771  43.268  16.424   1.175
 7378W        W75772  13.270  40.060  14.363
 7379W        W75773   3.283   7.164  12.894
 7380W        W75774   6.892  27.815   1.130
 7381W        W75775  33.402  40.998   4.363
 7382W        W75776  32.910  15.646  10.854
 7383W        W75777  42.766  43.573  14.301
 7384W        W75778  26.416  40.935   0.071
 7385W        W75779  38.850  19.226   0.801
 7386W        W75780  15.694   0.059   2.639
 7387W        W75781  33.541  43.263   4.893
 7388W        W75782  41.454  20.784  13.903
 7389W        W75783  35.378  39.330  11.577
 7390W        W75784  24.226   0.122  13.914
 7391W        W75785  29.525  10.239   2.488
 7392W        W75786  17.178  38.342   2.085
 7393W        W75787  40.044   8.227   3.648
 7394W        W75788   7.440  28.681   3.480
 7395W        W75789  28.712  40.817   4.432
 7396W        W75790  25.438  10.286   1.229
 7397W        W75791  11.179  17.170  11.142
 7398W        W75792   7.405  20.497   3.489
 7399W        W75793  34.951  37.648  10.743
 7400W        W75794  41.936  34.134   4.208
 7401W        W75795  11.172  19.248   4.070
 7402W        W75796   3.353  41.889  12.524
 7403W        W75797  40.527  41.045   4.200
 7404W        W75798  13.063  42.315  11.970
 7405W        W75799   2.486  19.296  14.436
 7406W        W75800   7.289   3.436  13.074
 7407W        W75801   0.137  35.697  11.324
 7408W        W75802  33.180  39.091   5.081
 7409W        W75803  25.782   2.952  14.710
 7410W        W75804   1.375  43.291   2.151
 7411W        W75805  23.111  11.176  12.568
 7412W        W75806  28.871  16.297   0.745
 7413W        W75807  31.570  19.549   0.655
 7414W        W75808   6.290  29.647  11.558
 7415W        W75809  11.736   1.198  12.399
 7416W        W75810  19.326  17.350   0.169
 7417W        W75811  30.646  23.998  12.955
 7418W        W75812  38.591  24.004   2.413
 7419W        W75813  10.275  25.551   3.769
 7420W        W75814  10.426  19.020  13.443
 7421W        W75815   5.594   5.588   4.395
 7422W        W75816   5.455  16.262  13.405
 7423W        W75817  37.445  40.634   5.082
 7424W        W75818  31.010   0.821  13.893
 7425W        W75819  37.668   0.575  11.985
 7426W        W75820  37.853  15.627   4.811
 7427W        W75821  15.097  20.063   4.816
 7428W        W75822  44.951  31.515   1.313
 7429W        W75823  44.477  44.261   2.216
 7430W        W75824  10.128  14.599   0.396
 7431W        W75825   2.961  27.131   2.133
 7432W        W75826   1.846  20.844   3.150
 7433W        W75827  35.592  10.926   1.448
 7434W        W75828   3.024   1.103  10.882
 7435W        W75829  26.286  25.753   1.243
 7436W        W75830  44.197  27.427  10.608
 7437W        W75831  23.982  40.977   1.880
 7438W        W75832   7.489  11.465   1.837
 7439W        W75833  42.953  25.751   1.384
 7440W        W75834  31.960  18.267  11.558
 7441W        W75835  11.992  17.123  11.048
 7442W        W75836  41.436  42.259   4.814
 7443W        W75837  42.868  38.299   1.370
 7444W        W75838  40.376  16.868   1.251
 7445W        W75839   5.602  13.043   4.534
 7446W        W75840  11.003  24.736  10.668
 7447W        W75841  19.591  35.856  14.373
 7448W        W75842  21.185  10.869  12.544
 7449W        W75843  43.939  20.645  11.754
 7450W        W75844  16.612   6.410   1.083
 7451W        W75845   1.983   4.617  12.530
 7452W        W75846  38.566  44.303  14.754
 7453W        W75847  32.877  31.857  12.435
 7454W        W75848  14.903  16.086  13.329
 7455W        W75849   8.597   3.272   2.390
 7456W        W75850  13.223   9.125  10.531
 7457W        W75851  40.232  35.145   4.265
 7458W        W75852  34.686  39.484   1.704
 7459W        W75853  31.375  19.647   3.965
 7460W        W75854  32.361  27.610   4.325
 7461W        W75855  27.495  40.349   2.509
 7462W        W75856   0.810  38.251   0.464
 7463W        W75857   1.437   0.233   3.314
 7464W        W75858  11.911  25.196   0.964
 7465W        W75859  34.273   2.811   1.852
 7466W        W75860  22.814   7.837   1.416
 7467W        W75861  37.348  19.803   2.086
 7468W        W75862  42.016  23.379   2.720
 7469W        W75863  22.950  34.034   2.916
 7470W        W75864  42.756  30.757  13.342
 7471W        W75865  39.331   1.183   4.552
 7472W        W75866  42.134  39.021   0.096
 7473W        W75867  13.145   8.023  13.545
 7474W        W75868  39.133  35.056   2.197
 7475W        W75869  23.806  24.564   2.650
 7476W        W75870  10.507  35.365   3.475
 7477W        W75871  22.672  24.352  14.749
 7478W        W75872  34.405  10.193  13.871
 7479W        W75873  25.704   9.758  13.889
 7480W        W75874  16.819  42.783   1.774
 7481W        W75875   6.432  13.071   2.774
 7482W        W75876  10.971  16.006   2.416
 7483W        W75877  15.005  38.784   5.063
 7484W        W75878  43.392  40.511   0.994
 7485W        W75879  29.149  24.060   2.243
 7486W        W75880  42.429  21.704   3.034
 7487W        W75881  12.810  24.866  11.568
 7488W        W75882  23.622  13.174   0.710
 7489W        W75883  15.585  35.177  13.116
 7490W        W75884  14.312  42.628   4.083
 7491W        W75885  44.268  36.611  11.165
 7492W        W75886  32.973  27.527   0.928
 7493W        W75887  37.391  24.574  11.517
 7494W        W75888  27.585   3.352   2.396
 7495W        W75889  14.753   4.777   2.258
 7496W        W75890   7.402  39.111   4.619
 7497W        W75891  22.418  31.610  14.753
 7498W        W75892  27.093  22.284   4.813
 7499W        W75893   1.886  31.587   2.417
 7500W        W75894  40.047  20.122   4.262
 7501W        W75895   7.368  25.434   1.537
 7502W        W75896  28.213  34.634  12.035
 7503W        W75897  26.879  43.337  10.440
 7504W        W75898  20.600  43.228  14.839
 7505W        W75899  33.716   5.137  11.654
 7506W        W75900  39.527  16.044   2.243
 7507W        W75901  21.497  44.028   1.187
 7508W        W75902  16.046  19.037   4.201
 7509W        W75903   7.411  10.616  14.448
 7510W        W75904   7.847  20.679   1.763
 7511W        W75905  29.882  14.383   1.422
 7512W        W75906   5.686  34.980  12.069
 7513W        W75907  19.161  44.418  10.688
 7514W        W75908  44.447  19.956  14.150
 7515W        W75909  16.377  11.648  13.356
 7516W        W75910  14.713  19.706   0.808
 7517W        W75911  27.069  23.284   0.460
 7518W        W75912  34.428  15.823  12.019
 7519W        W75913  22.096   8.678   1.600
 7520W        W75914   3.232   9.901   0.940
 7521W        W75915  34.076  17.153  12.577
 7522W        W75916  30.391  35.460  13.039
 7523W        W75917  39.732  43.831   4.598
 7524W        W75918   9.978  12.120   1.274
 7525W        W75919  11.091  16.739  10.875
 7526W        W75920  11.186  37.673   4.912
 7527W        W75921  43.200   4.427   5.038
 7528W        W75922  40.858  34.127   0.467
 7529W        W75923  41.822  44.509  14.391
 7530W        W75924  13.364   4.207  14.597
 7531W        W75925  29.546   4.186   1.695
 7532W        W75926  44.210  22.541   4.041
 7533W        W75927  21.065  11.232   2.843
 7534W        W75928  23.474  43.757  14.991
 7535W        W75929  11.478  32.777   4.611
 7536W        W75930  14.899  18.734   4.230
 7537W        W75931  38.925   7.835   3.364
 7538W        W75932   0.489  12.341   4.664
 7539W        W75933   8.335  38.624  12.018
 7540W        W75934   6.829   5.862   4.575
 7541W        W75935  26.088  19.412  12.871
 7542W        W75936  34.405  10.200  13.319
 7543W        W75937  34.030  25.262  12.421
 7544W        W75938   6.818  34.146  10.671
 7545W        W75939  17.706  17.249   0.913
 7546W        W75940   3.236  30.669   2.603
 7547W        W75941  24.990  10.808   0.203
 7548W        W75942  34.907  13.039  11.633
 7549W        W75943  43.233  21.143   2.404
 7550W        W75944  31.729  12.821  11.145
 7551W        W75945  15.075  17.129   3.565
 7552W        W75946  20.344  24.731   4.087
 7553W        W75947  27.940  15.296  14.031
 7554W        W75948  17.004  26.478  14.462
 7555W        W75949  19.551  32.037  14.854
 7556W        W75950  12.986  35.835   2.202
 7557W        W75951  36.613   7.940  11.531
 7558W        W75952  18.392  22.608  14.633
 7559W        W75953  40.164  43.753   1.932
 7560W        W75954   0.238   8.093  10.468
 7561W        W75955  35.800  36.525  12.051
 7562W        W75956  33.056  21.760  14.981
 7563W        W75957  10.897  35.826   3.094
 7564W        W75958   7.026   8.272   1.335
 7565W        W75959  14.365  32.657  13.975
 7566W        W75960  21.053   6.731   4.566
 7567W        W75961  23.923  19.173  13.500
 7568W        W75962  14.315  14.177  10.683
 7569W        W75963  40.934  19.351   3.687
 7570W        W75964  29.670   0.730   4.100
 7571W        W75965   0.419  39.380   4.668
 7572W        W75966  37.624  20.143   4.578
 7573W        W75967  22.531  15.219  11.193
 7574W        W75968  37.444   0.856   1.552
 7575W        W75969   2.869  25.106   1.780
 7576W        W75970  42.989   0.441  10.890
 7577W        W75971  29.023  32.124  10.611
 7578W        W75972  38.804  41.265   1.845
 7579W        W75973   3.209   9.670  11.485
 7580W        W75974  21.339  38.645   3.139
 7581W        W75975  18.806   6.950   2.847
 7582W        W75976  25.989   3.723  14.319
 7583W        W75977  13.792  17.815   3.264
 7584W        W75978  23.952  38.467   4.133
 7585W        W75979  37.736  41.580   1.900
 7586W        W75980   9.850  36.966   2.860
 7587W        W75981  18.785  38.300   3.548
 7588W        W75982  44.713  38.647   2.222
 7589W        W75983  19.183  12.556   0.918
 7590W        W75984  21.213  16.227  12.882
 7591W        W75985   6.750  34.890  14.415
 7592W        W75986  29.445  24.266   1.867
 7593W        W75987   7.121  26.081   4.748
 7594W        W75988  26.800   5.202  13.602
 7595W        W75989  28.564  29.997   2.806
 7596W        W75990   4.743  23.768  11.682
 7597W        W75991  42.462   0.979  13.237
 7598W        W75992  38.617  29.962  12.127
 7599W        W75993  11.860  25.167   3.664
 7600W        W75994  38.181  12.865   1.571
 7601W        W75995  43.269  38.284  11.848
 7602W        W75996  16.373  31.591  13.851
 7603W        W75997  16.565  43.833   4.812
 7604W        W75998  19.185  38.037  11.637
 7605W        W75999  27.168  42.215  11.110
 7606W        W76000  23.861  18.888   1.776
 7607W        W76001  17.814   5.827   1.308
 7608W        W76002   7.161  26.147  10.246
 7609W        W76003  13.718  32.843  12.028
 7610W        W76004   6.132   0.158   4.660
 7611W        W76005  12.776   1.754   2.915
 7612W        W76006  24.443  44.875   2.201
 7613W        W76007  10.703  29.504   3.682
 7614W        W76008   6.751  39.488  14.455
 7615W        W76009  28.489  15.097  12.580
 7616W        W76010  36.989   3.700  13.269
 7617W        W76011  17.310  42.474  13.285
 7618W        W76012  36.010   0.012   0.053
 7619W        W76013  36.893  30.469  14.976
 7620W        W76014  13.104  32.350  12.565
 7621W        W76015  17.136  25.753  12.034
 7622W        W76016  33.882   6.971   1.915
 7623W        W76017  40.404  31.488   2.119
 7624W        W76018  18.919  14.949  12.564
 7625W        W76019   8.802  37.058   0.225
 7626W        W76020  18.297   3.313  10.203
 7627W        W76021  16.807  17.278   4.070
 7628W        W76022  19.260  27.101   3.654
 7629W        W76023  17.019  16.680   2.326
 7630W        W76024  41.993   2.974   4.674
 7631W        W76025   9.124   9.976  11.448
 7632W        W76026  35.658  30.417  12.481
 7633W        W76027  12.094  39.854   3.638
 7634W        W76028   6.216  10.580   1.929
 7635W        W76029  17.623  26.484  14.518
 7636W        W76030  25.516  31.538  13.046
 7637W        W76031  35.565  43.373   4.624
 7638W        W76032  16.272   6.802  14.369
 7639W        W76033  35.977  39.913   2.678
 7640W        W76034  13.077   1.732   3.607
 7641W        W76035   2.837  17.147   3.341
 7642W        W76036   4.533  18.064   4.479
 7643W        W76037  25.136  25.060   1.494
 7644W        W76038  40.925  19.643   0.881
 7645W        W76039  26.558  40.850   0.946
 7646W        W76040  44.630  33.929  13.969
 7647W        W76041  40.457  29.505  11.709
 7648W        W76042   6.848  40.773   1.871
 7649W        W76043  41.585  24.141  14.980
 7650W        W76044  41.019  44.644   4.162
 7651W        W76045   9.321  36.938   0.266
 7652W        W76046   9.216  13.829   3.408
 7653W        W76047   0.797  38.330  13.898
 7654W        W76048  11.518  23.093  14.979
 7655W        W76049  20.154  23.105  14.479
 7656W        W76050  37.133  22.092  10.787
 7657W        W76051  19.793  34.643  14.785
 7658W        W76052  23.403  28.965   3.278
 7659W        W76053  16.299  12.660  13.061
 7660W        W76054  11.938  23.456  11.222
 7661W        W76055   0.184  12.384   3.821
 7662W        W76056   8.295  36.328  10.939
 7663W        W76057  25.196  34.330   2.365
 7664W        W76058  17.568  35.594  14.984
 7665W        W76059  18.069  30.099  14.458
 7666W        W76060  34.739   3.952   3.157
 7667W        W76061  17.181  35.608   4.780
 7668W        W76062  26.276  41.418   2.855
 7669W        W76063  36.545  23.035   2.482
 7670W        W76064  13.016   6.343  11.585
 7671W        W76065  25.845   5.838  11.965
 7672W        W76066   5.848  17.799   3.281
 7673W        W76067  21.977  33.140  13.847
 7674W        W76068  21.170  32.647   3.798
 7675W        W76069  17.531  44.763  10.746
 7676W        W76070   1.957  33.414   1.571
 7677W        W76071  20.079  23.645  13.013
 7678W        W76072  12.255  41.517   0.944
 7679W        W76073  24.002   7.589  13.970
 7680W        W76074  14.036  27.958  11.470
 7681W        W76075  18.016  18.084   4.313
 7682W        W76076  15.859   7.351   0.450
 7683W        W76077  40.300  43.812   0.013
 7684W        W76078  14.694  23.431  11.827
 7685W        W76079  44.462  36.137   1.737
 7686W        W76080  42.415   6.658   4.801
 7687W        W76081  39.791  14.657   4.652
 7688W        W76082   2.346  37.730   4.121
 7689W        W76083  20.043   7.270  14.793
 7690W        W76084  41.996  18.312  12.650
 7691W        W76085  41.872  31.991   0.279
 7692W        W76086   6.642  44.329   4.386
 7693W        W76087  30.795  30.690  13.958
 7694W        W76088   4.875  36.968   2.381
 7695W        W76089  31.352  23.994  10.811
 7696W        W76090  20.551  32.784  13.283
 7697W        W76091  42.746  22.139   4.198
 7698W        W76092  13.699  15.387  13.066
 7699W        W76093   2.286   4.831   0.668
 7700W        W76094   0.767   3.251   0.406
 7701W        W76095  32.002   3.181   3.709
 7702W        W76096  24.295  13.245   3.361
 7703W        W76097  10.794  34.169  11.359
 7704W        W76098  26.802   0.566  10.351
 7705W        W76099  20.175  38.097   1.415
 7706W        W76100   3.732  12.209   3.600
 7707W        W76101  24.419  29.654  13.435
 7708W        W76102  41.839  21.740  10.797
 7709W        W76103  12.325  40.878   2.767
 7710W        W76104   9.076  18.299  10.747
 7711W        W76105  35.132  21.932   1.305
 7712W        W76106  35.371   6.808   2.373
 7713W        W76107   0.339  43.574  13.018
 7714W        W76108   7.348  43.000  14.272
 7715W        W76109  12.992  42.414   2.336
 7716W        W76110  17.532  26.821   5.306
 7717W        W76111  41.595  12.640  14.443
 7718W        W76112  21.085  19.663   4.570
 7719W        W76113  13.166  12.104   2.739
 7720W        W76114  37.999  30.875   2.173
 7721W        W76115  35.879   3.851  12.485
 7722W        W76116  41.921  20.541  13.887
 7723W        W76117   9.640  33.838  11.261
 7724W        W76118  32.080  10.835  13.893
 7725W        W76119  22.517  16.244  13.899
 7726W        W76120  15.551  29.892   3.475
 7727W        W76121  37.375  20.772   0.256
 7728W        W76122  16.109  16.976   4.661
 7729W        W76123   9.655  40.260  11.200
 7730W        W76124  14.635   8.334   0.328
 7731W        W76125   7.398  38.197  13.859
 7732W        W76126  42.018   6.467   0.865
 7733W        W76127  21.273  38.541  10.912
 7734W        W76128  22.302  21.361  14.313
 7735W        W76129   7.147   0.903  10.618
 7736W        W76130   5.208  31.683   3.348
 7737W        W76131  15.207  31.702  11.603
 7738W        W76132  13.361   5.526  13.989
 7739W        W76133  31.388  12.828  12.533
 7740W        W76134  18.458  39.463   0.353
 7741W        W76135  10.373  11.762  13.842
 7742W        W76136   3.003  34.391  11.629
 7743W        W76137  38.785  20.419  11.917
 7744W        W76138  35.084   1.000   4.128
 7745W        W76139   3.946  32.061  14.569
 7746W        W76140  19.601  38.816  12.565
 7747W        W76141   4.282   7.909   2.926
 7748W        W76142  27.631  28.398   0.961
 7749W        W76143  18.547  19.744   0.186
 7750W        W76144  39.614  36.522  14.359
 7751W        W76145  31.117   1.313  10.528
 7752W        W76146   1.076  22.000   3.526
 7753W        W76147  34.973  32.076   4.863
 7754W        W76148  21.066  25.271  11.587
 7755W        W76149  28.959  43.672   0.881
 7756W        W76150  41.283   8.606  11.529
 7757W        W76151  21.252  28.737  14.923
 7758W        W76152  20.155  14.123  12.330
 7759W        W76153  14.953   7.759  10.212
 7760W        W76154  33.562   6.817   3.770
 7761W        W76155   4.744  40.497  13.830
 7762W        W76156  19.095  21.519   2.710
 7763W        W76157  42.809  38.988  11.162
 7764W        W76158  38.380  43.480   4.806
 7765W        W76159  24.559  24.333   3.656
 7766W        W76160  10.343  43.356  11.972
 7767W        W76161  34.361  36.562   0.722
 7768W        W76162   8.678  15.161   2.384
 7769W        W76163  27.510   0.975  13.640
 7770W        W76164   8.244  33.325  10.453
 7771W        W76165   3.468  15.732  14.026
 7772W        W76166  36.837  32.143   0.527
 7773W        W76167  24.536   0.343   3.587
 7774W        W76168  10.404  37.519  11.214
 7775W        W76169  10.131  10.337  13.414
 7776W        W76170  39.160   6.595   5.026
 7777W        W76171  42.091  42.311  12.089
 7778W        W76172  37.373  43.271   1.416
 7779W        W76173  21.191   4.410  14.032
 7780W        W76174  20.475   9.113   1.161
 7781W        W76175   8.544   2.670   3.773
 7782W        W76176  17.179  24.106   3.760
 7783W        W76177  23.874  35.766  11.191
 7784W        W76178  15.799  32.387  10.683
 7785W        W76179  41.378  43.645   2.435
 7786W        W76180  21.538  10.376  10.278
 7787W        W76181  22.593   1.518  10.679
 7788W        W76182  15.577  31.581   0.487
 7789W        W76183   6.191  43.622   0.769
 7790W        W76184  12.309   7.031  11.392
 7791W        W76185  38.267  14.386   2.120
 7792W        W76186   4.625   9.417  11.443
 7793W        W76187  38.860  12.258  12.514
 7794W        W76188  27.120  42.791   0.076
 7795W        W76189  44.885  23.009  11.545
 7796W        W76190  40.496   7.868  11.602
 7797W        W76191  30.864  39.302   4.154
 7798W        W76192   7.888  33.864  12.584
 7799W        W76193  32.140  29.173   1.863
 7800W        W76194  22.410  44.345  14.048
 7801W        W76195  29.949  27.578  12.063
 7802W        W76196  22.830  38.906   0.753
 7803W        W76197   2.086  17.134  14.953
 7804W        W76198  31.839  40.527  11.225
 7805W        W76199   2.842  40.774   2.273
 7806W        W76200  36.465   3.817   1.274
 7807W        W76201   0.491  27.976  12.508
 7808W        W76202  29.515  41.917  14.379
 7809W        W76203   7.869  44.913   4.162
 7810W        W76204  26.090  16.676  13.514
 7811W        W76205  31.228  22.989  11.521
 7812W        W76206  10.932  18.913   2.256
 7813W        W76207   5.299  25.929   0.022
 7814W        W76208  42.799  23.467   4.929
 7815W        W76209   7.481  39.984   2.285
 7816W        W76210  37.878  22.147  12.577
 7817W        W76211  25.778   7.167  11.929
 7818W        W76212  22.064  32.475   4.688
 7819W        W76213  36.912   9.132  14.396
 7820W        W76214  29.050  13.538   1.806
 7821W        W76215  31.741  11.340  12.938
 7822W        W76216  13.687  21.845   4.143
 7823W        W76217  39.438  27.566   2.656
 7824W        W76218   7.168  25.488  14.430
 7825W        W76219   8.657   1.107  11.569
 7826W        W76220   6.278  24.757  12.573
 7827W        W76221   2.060   0.929  12.048
 7828W        W76222   0.427  41.285   0.502
 7829W        W76223  27.127  38.055   0.887
 7830W        W76224  16.613  25.825  12.131
 7831W        W76225  33.127  16.589   1.261
 7832W        W76226  24.947  17.813   4.199
 7833W        W76227  11.731  38.569  10.250
 7834W        W76228  18.421  36.497  14.028
 7835W        W76229  38.786  17.603   0.017
 7836W        W76230  42.101   2.317   0.775
 7837W        W76231  36.307   2.314  14.076
 7838W        W76232  23.641  25.959   4.625
 7839W        W76233  38.014  27.146   1.661
 7840W        W76234  13.390  21.744  11.153
 7841W        W76235  33.626   0.465   3.018
 7842W        W76236  30.083   6.616  11.752
 7843W        W76237  19.187  17.279   0.707
 7844W        W76238  35.690  32.592   1.062
 7845W        W76239  29.195  11.119  12.104
 7846W        W76240  39.482  23.368   4.884
 7847W        W76241  23.595  22.116   1.881
 7848W        W76242  10.556   9.722   2.363
 7849W        W76243  23.683   4.934   4.541
 7850W        W76244  32.904  23.146   3.666
 7851W        W76245   0.817  35.138   3.837
 7852W        W76246  44.702   9.190   3.841
 7853W        W76247  10.487   9.262  12.261
 7854W        W76248  18.170  15.457   3.238
 7855W        W76249  40.981   3.769  11.953
 7856W        W76250   4.369  16.706   4.982
 7857W        W76251  44.708   5.375   4.871
 7858W        W76252  11.556  43.760   0.849
 7859W        W76253  38.968  39.539   4.209
 7860W        W76254  25.978   4.458  14.841
 7861W        W76255  38.991   5.600   3.657
 7862W        W76256  43.309  21.611   2.634
 7863W        W76257  37.862  34.086   0.316
 7864W        W76258   8.808  38.318   4.214
 7865W        W76259  34.912   2.351   2.498
 7866W        W76260  10.227  18.588  14.437
 7867W        W76261  10.778   3.723  13.456
 7868W        W76262  43.432  13.797   4.093
 7869W        W76263  37.613  37.917  12.554
 7870W        W76264  21.022  32.961  13.044
 7871W        W76265  41.887  26.579   1.831
 7872W        W76266  31.641  44.677   0.781
 7873W        W76267  18.306  10.172   1.841
 7874W        W76268  13.410  23.047   4.595
 7875W        W76269  11.655  29.744   3.157
 7876W        W76270  11.018  22.510   0.893
 7877W        W76271  42.958  39.390   0.266
 7878W        W76272  32.423  27.007   4.198
 7879W        W76273  39.820  34.873  13.354
 7880W        W76274  30.341  11.192   1.807
 7881W        W76275   5.505  17.725  13.405
 7882W        W76276  18.037  26.984  11.679
 7883W        W76277   6.144  14.794  10.770
 7884W        W76278  10.382  15.218   2.420
 7885W        W76279   1.457  16.953  14.723
 7886W        W76280   4.175   2.435  10.596
 7887W        W76281  11.325  26.423  13.111
 7888W        W76282  11.104   8.930  11.149
 7889W        W76283  16.813   3.376   0.407
 7890W        W76284  42.497   8.777   2.312
 7891W        W76285   1.213  29.402  14.453
 7892W        W76286  19.211  37.983   2.312
 7893W        W76287  21.307  28.854  11.594
 7894W        W76288  21.208  31.582  14.837
 7895W        W76289  30.925  40.531   1.271
 7896W        W76290  19.734  36.654  13.519
 7897W        W76291  23.222  44.029  12.592
 7898W        W76292  27.601  24.373  12.448
 7899W        W76293  18.453   6.401  14.415
 7900W        W76294  32.511  18.332  11.601
 7901W        W76295   7.190  23.190   4.380
 7902W        W76296  42.287   6.672   3.292
 7903W        W76297  20.070  34.401  12.597
 7904W        W76298  32.043  41.579  12.927
 7905W        W76299  20.030   2.135   1.104
 7906W        W76300   8.930  22.988   0.472
 7907W        W76301  42.979  21.900  11.215
 7908W        W76302   7.670  21.983  11.625
 7909W        W76303  28.834  10.557  11.589
 7910W        W76304  38.504  17.347   3.734
 7911W        W76305  15.509  33.474   0.211
 7912W        W76306  20.976  32.170  14.449
 7913W        W76307   2.883  10.056   2.682
 7914W        W76308   8.680  28.857   1.746
 7915W        W76309  41.339   1.476  12.036
 7916W        W76310  10.820   0.898   3.707
 7917W        W76311   6.025  17.194  12.527
 7918W        W76312  34.374  12.248  11.186
 7919W        W76313   4.327  12.295  12.468
 7920W        W76314  34.512  29.388  13.443
 7921W        W76315  35.496  22.280   1.596
 7922W        W76316  40.543   4.324   0.172
 7923W        W76317   7.379  42.995   3.191
 7924W        W76318   5.328  29.064   4.483
 7925W        W76319   4.433  39.676   4.623
 7926W        W76320  12.062   1.295   3.790
 7927W        W76321  34.046   8.783  13.994
 7928W        W76322   6.716   0.717  13.040
 7929W        W76323  42.761   0.309   4.533
 7930W        W76324  41.608  43.853  13.603
 7931W        W76325   3.577   7.580   3.953
 7932W        W76326   6.050  16.390   4.680
 7933W        W76327  31.844   3.173  11.191
 7934W        W76328   7.386  11.752   0.182
 7935W        W76329  41.843  23.808  11.549
 7936W        W76330  41.806  11.408   3.215
 7937W        W76331  31.304  24.123   3.187
 7938W        W76332  17.317  33.426  12.363
 7939W        W76333  17.657   9.279   3.597
 7940W        W76334  12.111  40.826  10.923
 7941W        W76335  11.254  28.072   3.167
 7942W        W76336  38.709  12.891   0.849
 7943W        W76337  31.153  41.743   2.272
 7944W        W76338  23.554  25.458  13.042
 7945W        W76339  30.234  43.249   2.789
 7946W        W76340  34.672  43.700  10.564
 7947W        W76341  28.436  11.849   3.182
 7948W        W76342  17.395  38.093  13.440
 7949W        W76343  23.948  11.898   4.200
 7950W        W76344   7.608   7.432  13.303
 7951W        W76345  15.895  40.026  11.037
 7952W        W76346  33.880  11.809   4.834
 7953W        W76347   4.846  13.335  12.036
 7954W        W76348  14.054   0.812  12.112
 7955W        W76349  40.862  40.744  13.890
 7956W        W76350  38.941  11.378   3.291
 7957W        W76351  15.088   6.727  12.480
 7958W        W76352  29.629  19.641  12.670
 7959W        W76353  24.890  11.463  12.617
 7960W        W76354  22.767   9.180   4.114
 7961W        W76355  32.971   8.889   1.918
 7962W        W76356  33.730  29.964   3.757
 7963W        W76357  27.773  27.939   4.980
 7964W        W76358  12.353   0.793   2.810
 7965W        W76359  28.458  43.451   9.398
 7966W        W76360  29.917   5.452   3.652
 7967W        W76361  39.995  15.632   1.246
 7968W        W76362  29.131  15.989   0.204
 7969W        W76363   4.549   3.587  11.557
 7970W        W76364  44.968   3.206  13.255
 7971W        W76365  11.881  40.465  14.278
 7972W        W76366  22.680  42.282   0.753
 7973W        W76367  36.040  37.919   5.069
 7974W        W76368  29.983   0.326   4.090
 7975W        W76369  13.441  24.337  11.517
 7976W        W76370  19.106  25.405  12.092
 7977W        W76371  38.063  28.510   0.282
 7978W        W76372  19.191  38.531  12.397
 7979W        W76373  29.026  33.886  12.550
 7980W        W76374  40.816  16.309   4.187
 7981W        W76375  15.088  18.820   3.766
 7982W        W76376  23.629   5.132  11.120
 7983W        W76377  26.562  41.573  12.107
 7984W        W76378  28.623  39.188   1.797
 7985W        W76379  42.760   3.334  14.414
 7986W        W76380  22.001   6.798   4.700
 7987W        W76381  22.709  38.935   4.580
 7988W        W76382   6.199  20.667   3.633
 7989W        W76383  28.007  44.275  14.235
 7990W        W76384  22.122   6.751   0.919
 7991W        W76385  25.253  21.023  12.013
 7992W        W76386  31.229  34.504   2.558
 7993W        W76387  38.626   5.979   4.101
 7994W        W76388  24.644  21.085   2.290
 7995W        W76389   8.410  41.302   1.421
 7996W        W76390  21.457   0.458  10.720
 7997W        W76391  37.413   2.936  12.501
 7998W        W76392  17.178   8.402  14.379
 7999W        W76393   0.484   1.880  13.019
 8000W        W76394  35.832  21.472  11.737
 8001W        W76395  13.600  42.429  10.425
 8002W        W76396  15.090  21.736  12.824
 8003W        W76397  34.360   8.326  11.367
 8004W        W76398  33.548  14.604   4.640
 8005W        W76399  34.387  26.699  10.840
 8006W        W76400  10.370  39.998   2.905
 8007W        W76401  32.640  16.134   2.912
 8008W        W76402  23.901  13.244   5.081
 8009W        W76403  12.217  39.511   0.663
 8010W        W76404  26.072  36.915  11.289
 8011W        W76405  13.421   0.907  11.006
 8012W        W76406  32.043   9.856  11.638
 8013W        W76407  40.535  35.391  12.415
 8014W        W76408  24.958  23.504  13.367
 8015W        W76409   3.746  20.563   2.707
 8016W        W76410  26.787  34.062   1.768
 8017W        W76411  17.319  33.864  10.797
 8018W        W76412  36.635  40.710   1.813
 8019W        W76413  29.379   6.135   2.714
 8020W        W76414   0.661  15.708   5.075
 8021W        W76415  12.752   8.231  11.504
 8022W        W76416  41.550   3.855   2.815
 8023W        W76417   9.514   3.289   4.549
 8024W        W76418  12.651  18.655   4.669
 8025W        W76419  33.519  12.573  13.532
 8026W        W76420  30.586   6.168   1.790
 8027W        W76421  10.227  25.919   0.455
 8028W        W76422  30.080   9.348  14.505
 8029W        W76423  39.885   9.076  11.557
 8030W        W76424  27.155  15.883  11.792
 8031W        W76425  36.563  28.077   1.671
 8032W        W76426  41.607  20.772   0.675
 8033W        W76427  35.963   3.310   3.893
 8034W        W76428  17.291  15.772   0.087
 8035W        W76429  33.795  17.283  13.003
 8036W        W76430  22.045   5.731  11.475
 8037W        W76431  28.417  32.959   0.147
 8038W        W76432   0.861  42.710  11.676
 8039W        W76433  38.998  26.413   1.342
 8040W        W76434  41.071  44.009  11.977
 8041W        W76435  18.627   5.922  10.313
 8042W        W76436  17.230  37.359   5.131
 8043W        W76437  33.538   5.287  12.497
 8044W        W76438  29.577   0.822  10.233
 8045W        W76439  43.780  28.076   1.483
 8046W        W76440  11.802  13.664   1.048
 8047W        W76441  32.180  39.752  11.120
 8048W        W76442   5.273  11.925   1.434
 8049W        W76443  15.722  11.815  12.876
 8050W        W76444  19.570  34.474   3.785
 8051W        W76445  34.276  21.212  11.901
 8052W        W76446  44.538  31.375   1.849
 8053W        W76447   2.910  18.599  12.574
 8054W        W76448   0.888   3.234  12.237
 8055W        W76449  24.146   3.157  13.981
 8056W        W76450  38.283   8.568  12.241
 8057W        W76451   3.389   1.211   4.283
 8058W        W76452  13.667  43.572   1.897
 8059W        W76453  28.052  21.740   3.506
 8060W        W76454  26.428  26.441  11.261
 8061W        W76455  10.849   8.799  12.911
 8062W        W76456  22.744  42.781   5.126
 8063W        W76457  23.088  28.153  12.624
 8064W        W76458  23.332  43.366   2.737
 8065W        W76459  20.197  20.131  12.458
 8066W        W76460  20.353  22.409  11.057
 8067W        W76461  16.687  44.941  14.887
 8068W        W76462  38.231  18.295  11.194
 8069W        W76463   4.200  11.549  13.390
 8070W        W76464  24.258  38.497  12.682
 8071W        W76465   5.211  40.508  12.993
 8072W        W76466  18.297  13.624  13.874
 8073W        W76467  25.673  32.724  11.023
 8074W        W76468   4.773   0.500  12.188
 8075W        W76469  20.233  19.135  12.772
 8076W        W76470  36.171  35.315  10.395
 8077W        W76471  22.630   7.361  11.391
 8078W        W76472  36.343  26.143  11.144
 8079W        W76473  34.607  44.903   0.409
 8080W        W76474  34.012   7.166   3.707
 8081W        W76475  26.807   2.024   2.723
 8082W        W76476  31.089  17.524   3.066
 8083W        W76477  37.174   2.036   0.430
 8084W        W76478  20.006   1.233  11.847
 8085W        W76479  16.024   9.658  13.056
 8086W        W76480  39.760   7.792   0.217
 8087W        W76481  36.161  44.013   3.279
 8088W        W76482  30.165   3.962  12.560
 8089W        W76483  21.220  26.679   5.160
 8090W        W76484  38.278  27.294   2.161
 8091W        W76485  34.423   3.793  14.939
 8092W        W76486   7.159  34.292  14.793
 8093W        W76487  40.772  16.332  11.872
 8094W        W76488  31.654  15.658   3.046
 8095W        W76489  27.953   1.377  12.627
 8096W        W76490  19.290  24.022   3.452
 8097W        W76491  38.960  12.355  14.355
 8098W        W76492  38.743  32.475  11.500
 8099W        W76493   5.802   2.982   4.716
 8100W        W76494  14.737  39.575   0.398
 8101W        W76495  30.986  20.974   2.672
 8102W        W76496  25.663  38.270  11.474
 8103W        W76497  16.796   8.267   3.999
 8104W        W76498   1.542  32.145   3.566
 8105W        W76499  37.983  26.904  13.140
 8106W        W76500   1.433  32.558   4.822
 8107W        W76501  19.587   6.690  13.880
 8108W        W76502  20.596  36.416   4.297
 8109W        W76503  21.479  10.269  14.692
 8110W        W76504  40.054  27.111  12.064
 8111W        W76505  20.074   8.240   3.045
 8112W        W76506  42.484  10.107  11.578
 8113W        W76507  29.544   8.839  11.940
 8114W        W76508   6.633  33.632   0.414
 8115W        W76509   0.272  20.019   4.852
 8116W        W76510  32.598  14.005  13.031
 8117W        W76511   4.613  24.247  14.234
 8118W        W76512  18.283  32.757  14.703
 8119W        W76513  28.387  22.887   2.899
 8120W        W76514   1.507   7.724  11.551
 8121W        W76515  31.015   4.290   0.958
 8122W        W76516   6.370  21.771   1.831
 8123W        W76517  16.664  19.549   0.439
 8124W        W76518  37.005  30.013  12.815
 8125W        W76519  44.136  30.467   4.077
 8126W        W76520  35.537  42.334   2.881
 8127W        W76521  14.163  38.108   3.656
 8128W        W76522  27.688  13.550   1.979
 8129W        W76523  28.120  35.369  11.548
 8130W        W76524  19.300  25.440   3.208
 8131W        W76525  15.080  43.108  11.235
 8132W        W76526   1.411  36.086   1.786
 8133W        W76527  11.427  18.100  12.497
 8134W        W76528  18.422  31.180  10.665
 8135W        W76529  41.242  34.118  11.486
 8136W        W76530  17.220  37.113   4.075
 8137W        W76531   4.739   6.787   1.932
 8138W        W76532  11.375  13.330   3.746
 8139W        W76533  15.167   2.847   3.841
 8140W        W76534  41.804  39.030  13.847
 8141W        W76535  12.654  28.069  14.856
 8142W        W76536  16.672  43.284  14.690
 8143W        W76537  22.473  19.249  14.969
 8144W        W76538  31.816  12.816   2.003
 8145W        W76539   9.306  20.549   0.471
 8146W        W76540   6.211   7.454   0.406
 8147W        W76541  37.487  39.895   1.344
 8148W        W76542  44.076   2.782  10.736
 8149W        W76543  28.375  20.064  12.453
 8150W        W76544  32.719  17.444  11.128
 8151W        W76545  35.207  17.574  12.157
 8152W        W76546   7.722  41.652   0.071
 8153W        W76547  22.551  20.684  13.718
 8154W        W76548  44.968  24.657  10.923
 8155W        W76549   7.668   4.426  14.362
 8156W        W76550   6.933  13.281  12.548
 8157W        W76551  11.301  32.582  11.097
 8158W        W76552  31.509  28.162   3.140
 8159W        W76553  11.618  36.268   3.700
 8160W        W76554  21.147  13.772   0.379
 8161W        W76555  27.076  42.672   9.696
 8162W        W76556  24.595  42.167  11.235
 8163W        W76557   7.107  42.577  11.556
 8164W        W76558  16.969   6.391   2.279
 8165W        W76559  27.418  20.280  12.437
 8166W        W76560  15.023  26.601   4.630
 8167W        W76561  20.373  25.212   0.422
 8168W        W76562  12.865   1.690   4.255
 8169W        W76563  40.951  19.756   3.387
 8170W        W76564  17.670  16.044  10.539
 8171W        W76565   7.264  42.254  14.107
 8172W        W76566   7.642   1.408  12.529
 8173W        W76567  18.778   6.030   3.239
 8174W        W76568   6.826  28.760  13.767
 8175W        W76569  21.748  21.157   0.925
 8176W        W76570   1.016  36.867   1.740
 8177W        W76571  20.149  21.045  11.624
 8178W        W76572  24.221  12.839   4.364
 8179W        W76573  27.503   1.753   3.227
 8180W        W76574  39.963  18.479   0.723
 8181W        W76575  35.309  20.688  12.642
 8182W        W76576  20.642  37.929   4.597
 8183W        W76577   3.431  34.387  12.114
 8184W        W76578  23.575  22.754   3.129
 8185W        W76579  37.425   1.933  10.743
 8186W        W76580  30.699  16.845  11.877
 8187W        W76581  44.232  32.029   4.512
 8188W        W76582   9.052  12.647   2.756
 8189W        W76583  40.426  15.553  11.956
 8190W        W76584  32.409  16.073  10.976
 8191W        W76585  28.036  20.999  11.512
 8192W        W76586   9.212  12.012   0.791
 8193W        W76587  23.876  10.797   3.596
 8194W        W76588   8.235  29.911   1.339
 8195W        W76589  11.260  21.651  13.366
 8196W        W76590  11.815   2.468   0.874
 8197W        W76591  11.098  42.496  10.625
 8198W        W76592  15.264  37.660   1.740
 8199W        W76593  11.602   8.873   1.887
 8200W        W76594  11.078  21.310   1.363
 8201W        W76595  36.761  18.790  11.964
 8202W        W76596   2.476  13.970   2.500
 8203W        W76597   3.408  22.081   1.254
 8204W        W76598   6.772  19.642  10.670
 8205W        W76599  18.041  15.744  13.317
 8206W        W76600  17.424  20.528   4.317
 8207W        W76601  12.785  35.959   4.571
 8208W        W76602  41.910  21.109   3.069
 8209W        W76603   7.655  32.091  13.355
 8210W        W76604  41.514  24.241  12.503
 8211W        W76605  33.332   6.370   4.651
 8212W        W76606  13.158  37.295   4.039
 8213W        W76607  26.800  28.119   3.339
 8214W        W76608   6.300  31.150   0.261
 8215W        W76609  13.834  42.478   2.453
 8216W        W76610  14.050  33.790  14.522
 8217W        W76611   3.757  41.424   4.681
 8218W        W76612  34.382  18.341   1.749
 8219W        W76613  17.118  30.213  13.399
 8220W        W76614  18.361  44.667  12.571
 8221W        W76615  19.615  42.521   3.724
 8222W        W76616  34.214  16.164  13.988
 8223W        W76617  12.241   6.106  13.162
 8224W        W76618  24.228   1.388   3.126
 8225W        W76619  35.230  40.469   2.233
 8226W        W76620  39.884  34.598   2.338
 8227W        W76621  16.319  27.917   4.567
 8228W        W76622   4.206   3.092   4.117
 8229W        W76623  17.885  30.220   1.302
 8230W        W76624  37.070  43.795   3.097
 8231W        W76625  22.232  25.937  11.847
 8232W        W76626  39.365  42.056  13.644
 8233W        W76627  42.921  18.199   0.301
 8234W        W76628  36.470  17.527  13.414
 8235W        W76629   6.601   9.730  12.421
 8236W        W76630   8.910  24.409  10.756
 8237W        W76631  40.552   5.937  10.828
 8238W        W76632  42.264  36.539   0.398
 8239W        W76633   0.919   2.923   0.780
 8240W        W76634  42.948  26.266   1.454
 8241W        W76635  27.936  43.012  13.628
 8242W        W76636  35.676  24.650  13.811
 8243W        W76637  15.544  40.608   0.206
 8244W        W76638  33.402  24.898   0.951
 8245W        W76639  44.227  40.819  12.854
 8246W        W76640  19.738   2.499  13.021
 8247W        W76641  36.971   4.024   1.930
 8248W        W76642  42.770  41.812   1.390
 8249W        W76643   6.989   4.742   1.213
 8250W        W76644  34.002  12.559  13.346
 8251W        W76645  18.208   5.333  12.542
 8252W        W76646  16.094  33.457  12.371
 8253W        W76647  36.641  34.607  11.508
 8254W        W76648  16.492  40.219   1.268
 8255W        W76649  31.010  19.494   1.358
 8256W        W76650  27.518  21.897   3.237
 8257W        W76651  11.808   7.497  10.118
 8258W        W76652  36.831  23.745   0.795
 8259W        W76653  38.209  26.493   2.530
 8260W        W76654  17.172  15.703   3.364
 8261W        W76655  41.436   4.878   5.013
 8262W        W76656  39.327  38.629   3.407
 8263W        W76657  33.475  42.835   4.608
 8264W        W76658  25.770  34.634   1.317
 8265W        W76659   0.226  41.723  13.431
 8266W        W76660  12.186  12.850   1.983
 8267W        W76661   4.862  42.195   0.793
 8268W        W76662  26.064  44.400  12.990
 8269W        W76663  16.670  16.372   5.038
 8270W        W76664  22.734   3.882  11.140
 8271W        W76665  16.096   0.350   2.466
 8272W        W76666  34.880  28.060   2.617
 8273W        W76667  13.169  17.857  11.694
 8274W        W76668  21.965  17.061  12.405
 8275W        W76669  17.223  32.374   4.217
 8276W        W76670   4.335   0.467  11.915
 8277W        W76671  12.128   3.308   1.962
 8278W        W76672   3.132  27.618   3.665
 8279W        W76673  29.676  26.287  12.332
 8280W        W76674  31.517  13.255  10.706
 8281W        W76675  36.366  16.351  11.103
 8282W        W76676   5.820  42.823  14.808
 8283W        W76677  32.097  32.620  11.941
 8284W        W76678  33.315  40.434   0.639
 8285W        W76679  19.535  44.961   0.760
 8286W        W76680  30.655  31.374   2.710
 8287W        W76681  33.353  44.452  11.570
 8288W        W76682  44.244  42.311   0.472
 8289W        W76683  11.823  33.881  12.095
 8290W        W76684  12.116   9.238   1.183
 8291W        W76685  11.579   9.210  14.742
 8292W        W76686  13.381  20.489  13.060
 8293W        W76687   0.446   8.776   0.018
 8294W        W76688   9.257   7.897  11.502
 8295W        W76689   7.595  19.157   4.148
 8296W        W76690  26.366  43.088   0.676
 8297W        W76691   9.168  19.387  14.983
 8298W        W76692  41.983  36.022   1.280
 8299W        W76693  33.448   8.277   2.096
 8300W        W76694   2.216  31.860  11.104
 8301W        W76695   2.001  44.869  13.359
 8302W        W76696  37.291  12.203  12.535
 8303W        W76697  31.617  16.269  11.990
 8304W        W76698  15.678  15.604   0.694
 8305W        W76699   9.341  10.562  13.407
 8306W        W76700   2.480  10.578  14.519
 8307W        W76701  23.129  33.591  13.002
 8308W        W76702  43.350   7.277   1.031
 8309W        W76703   2.275  31.856  14.429
 8310W        W76704  13.699  19.409   0.968
 8311W        W76705  16.326  40.773  11.454
 8312W        W76706  40.726  27.223   4.241
 8313W        W76707  18.611  10.561  10.644
 8314W        W76708  42.967   8.224   1.488
 8315W        W76709  12.069  15.294  14.749
 8316W        W76710   9.619  14.100  13.087
 8317W        W76711  23.806  11.102  13.870
 8318W        W76712  35.905  17.102   1.907
 8319W        W76713  30.475  40.556   3.326
 8320W        W76714  22.546   9.393  12.521
 8321W        W76715  39.018  18.971  11.644
 8322W        W76716   5.881  23.999   0.956
 8323W        W76717   5.623   4.996   2.286
 8324W        W76718   9.327  25.637   0.943
 8325W        W76719   0.332  31.660   3.115
 8326W        W76720  19.558  37.359   4.169
 8327W        W76721  40.746  42.117   1.424
 8328W        W76722   2.227  19.116   1.734
 8329W        W76723  32.864  28.916  13.883
 8330W        W76724  15.180  38.375  12.470
 8331W        W76725  13.750  25.484   0.438
 8332W        W76726  39.657  18.222   4.229
 8333W        W76727  43.028  18.672   4.803
 8334W        W76728  44.291  16.248   0.851
 8335W        W76729  44.943  37.604  11.105
 8336W        W76730  24.655  26.150   1.714
 8337W        W76731  35.339  11.873   3.643
 8338W        W76732   5.384   1.795   4.800
 8339W        W76733  43.453   0.344  14.424
 8340W        W76734   4.336  42.388   4.610
 8341W        W76735  16.265  36.557  14.095
 8342W        W76736  18.419  15.683   5.053
 8343W        W76737  12.143  28.113  14.880
 8344W        W76738  11.955   7.424   4.211
 8345W        W76739  20.795  35.959   2.737
 8346W        W76740  20.520  11.425  13.585
 8347W        W76741  38.897  21.004  12.060
 8348W        W76742  36.958  18.286  13.226
 8349W        W76743  31.477  12.351   2.566
 8350W        W76744  12.480  42.906   1.981
 8351W        W76745  30.487   2.390   5.017
 8352W        W76746   9.066   4.196   1.077
 8353W        W76747  12.820  19.189   2.899
 8354W        W76748  14.327  33.481  14.226
 8355W        W76749  18.773  10.453  12.016
 8356W        W76750  21.715  18.317  10.033
 8357W        W76751   8.169  27.164   3.316
 8358W        W76752  13.851  12.725   2.303
 8359W        W76753  34.580   1.988  11.212
 8360W        W76754  20.103  26.302   1.938
 8361W        W76755  19.189  29.721   1.789
 8362W        W76756  34.067  31.643   4.232
 8363W        W76757  20.006  33.958  10.480
 8364W        W76758  44.366  27.107  10.204
 8365W        W76759  30.544  23.803   0.766
 8366W        W76760  15.626  10.530  13.306
 8367W        W76761  18.827  23.218   2.437
 8368W        W76762  21.291   6.814  12.553
 8369W        W76763  27.566  35.384   4.249
 8370W        W76764  20.098  22.086   1.954
 8371W        W76765   6.458   1.809  10.752
 8372W        W76766  22.279  29.530   1.665
 8373W        W76767  24.065  25.183   2.355
 8374W        W76768   4.405   8.449   4.109
 8375W        W76769   7.415  43.770   1.688
 8376W        W76770  20.993   3.167  12.298
 8377W        W76771  33.183  37.991   0.418
 8378W        W76772  24.592  23.242   3.359
 8379W        W76773  19.866   8.424   1.231
 8380W        W76774   6.498  19.254  14.421
 8381W        W76775   6.361   2.669   2.105
 8382W        W76776   1.591  44.371   3.285
 8383W        W76777   0.710  40.810  10.551
 8384W        W76778  10.778  10.454   1.364
 8385W        W76779  32.747  16.973   0.523
 8386W        W76780   3.214   1.742  13.958
 8387W        W76781  41.750   1.122   2.345
 8388W        W76782  38.796  16.027   3.516
 8389W        W76783   0.340  28.199  10.809
 8390W        W76784  35.840  39.083  12.030
 8391W        W76785  15.060  18.519  11.534
 8392W        W76786   9.629  17.647  13.585
 8393W        W76787  28.250  31.409  13.394
 8394W        W76788  34.463  17.094   4.964
 8395W        W76789  17.290  12.153  11.143
 8396W        W76790  10.721  39.754   1.235
 8397W        W76791  37.999  32.840   1.172
 8398W        W76792  22.556  14.624  10.652
 8399W        W76793   5.658  19.192  13.803
 8400W        W76794  41.251  27.585  12.440
 8401W        W76795  35.686  33.942   1.967
 8402W        W76796  32.788  24.233  14.854
 8403W        W76797  19.681  21.097   0.691
 8404W        W76798  35.287  10.205   4.649
 8405W        W76799  10.151  38.320   3.790
 8406W        W76800   5.199  23.152  12.971
 8407W        W76801  15.831  35.252   0.297
 8408W        W76802  41.320   7.987   3.762
 8409W        W76803  38.706   2.785  11.005
 8410W        W76804   0.463  41.762   0.307
 8411W        W76805   2.027  12.237  14.398
 8412W        W76806  34.065  11.598  13.157
 8413W        W76807   9.588  11.603  10.535
 8414W        W76808  38.894  24.173  11.252
 8415W        W76809  43.772  11.688   2.260
 8416W        W76810  31.991  25.530   4.606
 8417W        W76811  15.848  44.442   4.125
 8418W        W76812  14.789   3.168  11.059
 8419W        W76813  28.439   6.404  14.728
 8420W        W76814  25.090  23.004  13.424
 8421W        W76815   9.673  27.025  13.378
 8422W        W76816  41.122   4.532  14.085
 8423W        W76817   7.704  36.623   1.851
 8424W        W76818  27.412   2.324   0.857
 8425W        W76819   0.177  16.757   0.495
 8426W        W76820   7.246  40.612  12.646
 8427W        W76821  25.053  36.874   3.950
 8428W        W76822  43.279  28.095   1.636
 8429W        W76823  38.807  13.254   3.346
 8430W        W76824  14.342   8.748   3.701
 8431W        W76825  16.322  18.586   1.369
 8432W        W76826  37.050  42.348   2.076
 8433W        W76827  32.093  14.994   3.703
 8434W        W76828  30.417   8.988   4.241
 8435W        W76829  41.032  29.939   4.408
 8436W        W76830  23.053  24.193   4.091
 8437W        W76831  33.855   0.962  12.983
 8438W        W76832  44.904  30.171  12.091
 8439W        W76833   4.625   3.496  13.988
 8440W        W76834  35.171  35.962  14.242
 8441W        W76835  17.578   9.236   2.584
 8442W        W76836  44.482  37.820   2.750
 8443W        W76837  28.164  17.137  11.856
 8444W        W76838   6.367  29.912   1.284
 8445W        W76839   6.257   2.564   4.088
 8446W        W76840  16.691   1.650  11.042
 8447W        W76841   6.225  39.988   4.329
 8448W        W76842  36.897   4.264   2.379
 8449W        W76843  25.803  16.394   4.800
 8450W        W76844   5.418  17.221   3.700
 8451W        W76845  11.579  26.122   0.555
 8452W        W76846   7.417  42.542   0.971
 8453W        W76847  36.313  26.771  14.462
 8454W        W76848  20.378   5.683   1.749
 8455W        W76849   8.674   5.308   2.915
 8456W        W76850   5.420  31.385  14.374
 8457W        W76851  23.649  32.096   4.098
 8458W        W76852  26.499  25.144   2.436
 8459W        W76853  31.909  41.333  13.801
 8460W        W76854  34.094  11.994  13.984
 8461W        W76855  25.952  26.147  11.196
 8462W        W76856   8.726  24.453   2.597
 8463W        W76857  41.620   7.391  14.384
 8464W        W76858   8.264   9.328   4.566
 8465W        W76859   6.902  35.029   2.387
 8466W        W76860   1.984  17.836  12.954
 8467W        W76861  15.629  18.342   4.761
 8468W        W76862   3.704  23.011   3.752
 8469W        W76863  13.509  26.513   4.871
 8470W        W76864   1.764  20.522   2.685
 8471W        W76865  39.048  26.749  13.952
 8472W        W76866  11.484  24.497  13.946
 8473W        W76867  31.971   9.145  11.092
 8474W        W76868   1.930  28.773  14.447
 8475W        W76869  25.681   9.930   3.686
 8476W        W76870  24.151  18.149  10.676
 8477W        W76871  42.018  24.692  13.304
 8478W        W76872  33.839   7.584  10.852
 8479W        W76873  42.975  11.057  13.058
 8480W        W76874  34.361  14.387   2.441
 8481W        W76875   0.367  28.002  11.814
 8482W        W76876   8.658  24.557  11.245
 8483W        W76877  23.234  27.123   3.512
 8484W        W76878  44.381  14.253   0.241
 8485W        W76879  15.379  12.140   0.513
 8486W        W76880  36.413  22.548  13.074
 8487W        W76881  12.160  33.914  12.485
 8488W        W76882  18.365   8.910  10.500
 8489W        W76883   1.301  14.703  13.529
 8490W        W76884   9.721  26.609   2.886
 8491W        W76885   2.237  23.176   0.746
 8492W        W76886  42.267  42.280   2.828
 8493W        W76887  15.116  21.711   3.094
 8494W        W76888  12.335  41.015  12.326
 8495W        W76889   7.926   0.417  12.164
 8496W        W76890   5.022  17.477  12.538
 8497W        W76891  17.601  38.866  12.336
 8498W        W76892   6.722  21.505  14.049
 8499W        W76893  22.132  25.943  13.094
 8500W        W76894   9.899  33.211   3.168
 8501W        W76895  11.675  31.202  10.813
 8502W        W76896   1.574   8.412   2.366
 8503W        W76897   0.955  38.766  10.647
 8504W        W76898  30.510  44.827  12.032
 8505W        W76899  28.589  22.081   1.834
 8506W        W76900  29.146  20.029  12.981
 8507W        W76901   1.205   4.243  10.732
 8508W        W76902  44.315  43.560  14.345
 8509W        W76903  31.044  21.608  13.416
 8510W        W76904  22.206  27.558  10.213
 8511W        W76905   7.125   6.167   1.221
 8512W        W76906  35.970  35.774  10.562
 8513W        W76907  24.223  18.512   1.844
 8514W        W76908   2.458   2.545   3.041
 8515W        W76909  42.820  33.398   5.055
 8516W        W76910  11.296   1.163  10.647
 8517W        W76911  23.183  36.176  14.042
 8518W        W76912  40.150  42.311   2.334
 8519W        W76913  41.854  20.466   2.924
 8520W        W76914  11.419  32.624  13.310
 8521W        W76915  43.675  31.927   1.333
 8522W        W76916  40.649   0.822  13.798
 8523W        W76917  42.845  39.923   2.677
 8524W        W76918   1.421   8.681  12.927
 8525W        W76919   0.704   9.226  14.749
 8526W        W76920  40.933  22.630   1.831
 8527W        W76921  41.561  34.202   2.674
 8528W        W76922  15.940  32.649   3.696
 8529W        W76923  42.402   6.643  13.086
 8530W        W76924  43.831   4.144   4.353
 8531W        W76925   4.792  32.093  14.018
 8532W        W76926  21.555  40.810   2.165
 8533W        W76927  32.568  42.420   1.544
 8534W        W76928  33.100   9.616   2.462
 8535W        W76929  14.826  32.624  12.504
 8536W        W76930  29.716  16.589   0.779
 8537W        W76931  25.296   8.120   2.992
 8538W        W76932  35.641  20.830   3.817
 8539W        W76933  16.123  38.529   1.238
 8540W        W76934  33.857  42.444  12.508
 8541W        W76935  44.745  10.122  10.212
 8542W        W76936  19.096  39.187   1.604
 8543W        W76937  17.208  30.022  11.949
 8544W        W76938  18.280   3.706   1.907
 8545W        W76939  44.821   8.287  13.039
 8546W        W76940  41.842  17.606   2.326
 8547W        W76941  32.905  17.594  13.521
 8548W        W76942  14.672  25.032   3.984
 8549W        W76943  35.499   5.940   4.698
 8550W        W76944  36.433  39.081   1.222
 8551W        W76945  31.692   9.921   2.876
 8552W        W76946  19.843  44.254   1.773
 8553W        W76947  30.119  36.445   0.642
 8554W        W76948  21.039  14.522   3.206
 8555W        W76949   7.465  43.936  13.369
 8556W        W76950  10.813   3.777   2.865
 8557W        W76951   3.322   3.877   5.103
 8558W        W76952  41.224  12.423  10.792
 8559W        W76953  10.414  31.871  13.102
 8560W        W76954   8.283  19.617  12.031
 8561W        W76955  22.361  27.040   3.823
 8562W        W76956   5.760   6.439  12.128
 8563W        W76957  31.826  38.948   4.804
 8564W        W76958  38.291  29.165  14.093
 8565W        W76959  43.313  44.932  12.162
 8566W        W76960  35.005  19.136  10.712
 8567W        W76961  25.669   2.026   0.895
 8568W        W76962   0.036  32.716  12.261
 8569W        W76963  14.658  18.767  14.007
 8570W        W76964  43.872  11.851  13.916
 8571W        W76965  41.737  28.181   1.239
 8572W        W76966  23.937  43.395   3.371
 8573W        W76967  26.474  18.577   2.284
 8574W        W76968  10.288  20.913  13.941
 8575W        W76969  14.614   9.380   1.690
 8576W        W76970  38.746  13.177   0.403
 8577W        W76971  14.534   9.754   2.046
 8578W        W76972   4.628   2.273   3.662
 8579W        W76973  25.415  40.938   3.669
 8580W        W76974  28.598  32.013   3.356
 8581W        W76975  28.637  17.672  10.656
 8582W        W76976  31.046  44.743   2.258
 8583W        W76977  41.028   7.194   3.622
 8584W        W76978  16.058  10.280  12.035
 8585W        W76979   4.890  17.973  12.525
 8586W        W76980  16.812  15.821   0.273
 8587W        W76981  36.154   5.673  12.021
 8588W        W76982   4.632  14.624   2.555
 8589W        W76983  37.459  26.894  12.107
 8590W        W76984  39.023  43.225   2.087
 8591W        W76985  35.981   3.862   3.939
 8592W        W76986  10.131  43.274   3.815
 8593W        W76987  17.145   6.549   2.722
 8594W        W76988  33.497  38.505   2.262
 8595W        W76989  30.619   7.929  11.634
 8596W        W76990  33.091  27.618   3.751
 8597W        W76991  23.556  37.954  14.508
 8598W        W76992  16.339  42.239  11.691
 8599W        W76993  23.204  26.394   0.907
 8600W        W76994  37.313  24.636   0.371
 8601W        W76995  24.582  35.070  13.832
 8602W        W76996   1.871  15.053   0.824
 8603W        W76997  35.988  35.363  10.874
 8604W        W76998  39.305  23.765   1.813
 8605W        W76999  12.772  20.943  14.344
 8606W        W77000  22.977  39.763  13.824
 8607W        W77001  29.072  23.227   1.605
 8608W        W77002   0.174   2.329  12.858
 8609W        W77003   3.737  33.686   1.397
 8610W        W77004  27.487   4.637   1.340
 8611W        W77005  44.683  14.874  14.226
 8612W        W77006  40.057  44.496   2.206
 8613W        W77007  36.209  43.925  13.254
 8614W        W77008   7.710  41.975  14.173
 8615W        W77009  44.764  23.986  14.324
 8616W        W77010  13.917  34.584  13.975
 8617W        W77011  44.428  13.164  13.397
 8618W        W77012  18.477  34.898  13.994
 8619W        W77013   4.928  38.491  11.700
 8620W        W77014   6.955  12.604   3.572
 8621W        W77015  16.829  42.126  11.867
 8622W        W77016  30.790  25.420   1.243
 8623W        W77017   7.776  31.132  11.488
 8624W        W77018  26.483  11.732   3.961
 8625W        W77019  31.154  41.545   4.763
 8626W        W77020  13.273  29.170  12.318
 8627W        W77021  43.467  31.000  11.639
 8628W        W77022  23.017   4.367   4.062
 8629W        W77023  11.211  39.232  13.885
 8630W        W77024  40.770   0.670   5.183
 8631W        W77025   9.029   2.691  10.193
 8632W        W77026   1.635   5.782   1.818
 8633W        W77027  19.016  35.556  12.373
 8634W        W77028  11.153  40.260   1.424
 8635W        W77029  22.609  40.252  11.635
 8636W        W77030  32.443  19.139  12.049
 8637W        W77031  18.152  22.427  11.059
 8638W        W77032  28.212  28.753  12.917
 8639W        W77033  11.803  34.573   4.167
 8640W        W77034  31.691  26.945   4.369
 8641W        W77035  22.337  11.745  11.583
 8642W        W77036  44.947  43.921  13.056
 8643W        W77037   7.431  25.021  13.900
 8644W        W77038  28.166   9.192   1.361
 8645W        W77039  22.749  10.404   1.787
 8646W        W77040  22.258   6.745  10.725
 8647W        W77041  11.704  37.022  13.451
 8648W        W77042  17.104  10.599  14.910
 8649W        W77043  37.854  16.226  13.304
 8650W        W77044   4.642  20.178   1.547
 8651W        W77045  41.006  21.208   4.121
 8652W        W77046  30.142  36.281  12.995
 8653W        W77047  19.261   3.661  10.197
 8654W        W77048  43.950  23.248  13.912
 8655W        W77049  25.233  22.448   3.580
 8656W        W77050  28.425   2.421   3.733
 8657W        W77051   2.525   2.933   3.382
 8658W        W77052  29.959  24.592  10.984
 8659W        W77053  13.015   8.516  14.140
 8660W        W77054   0.104  25.048  14.922
 8661W        W77055  33.119   0.439   1.882
 8662W        W77056  10.086  34.048  14.089
 8663W        W77057   8.554  19.181  11.876
 8664W        W77058  24.493  13.546   0.710
 8665W        W77059  15.209  21.401   1.205
 8666W        W77060  26.905  39.981  13.540
 8667W        W77061   2.416  18.766   2.736
 8668W        W77062   3.223   8.253  11.558
 8669W        W77063   2.281  26.559   1.187
 8670W        W77064   7.947  41.605   3.224
 8671W        W77065  33.538   9.391   2.666
 8672W        W77066  13.920  43.694  13.630
 8673W        W77067   8.709  26.441   2.762
 8674W        W77068  21.061  37.346  12.108
 8675W        W77069  22.406   9.194   2.375
 8676W        W77070  44.914  14.662   1.778
 8677W        W77071  11.397  43.195  13.489
 8678W        W77072  12.393  38.818   0.855
 8679W        W77073  35.415  30.054  14.851
 8680W        W77074  33.016  14.750   0.582
 8681W        W77075  27.028  30.647   1.746
 8682W        W77076  16.675  12.219   4.618
 8683W        W77077  13.625  30.438   4.252
 8684W        W77078  23.838  38.383  11.242
 8685W        W77079   4.510  14.139   4.701
 8686W        W77080   8.442  39.847  11.502
 8687W        W77081  17.430   5.199   2.748
 8688W        W77082   4.894  33.195  11.557
 8689W        W77083  24.612  22.020  14.591
 8690W        W77084  44.239   0.910   3.631
 8691W        W77085  13.813  19.175  13.983
 8692W        W77086  19.154   7.596   2.719
 8693W        W77087  22.005  40.306   1.317
 8694W        W77088  37.482  20.305   1.831
 8695W        W77089  44.357  36.661   4.695
 8696W        W77090  43.990  36.376  12.933
 8697W        W77091  19.718  19.542  14.264
 8698W        W77092  28.461  43.685   1.398
 8699W        W77093   6.842  30.171  14.295
 8700W        W77094   8.627  33.162  11.800
 8701W        W77095  17.209  20.745  10.620
 8702W        W77096  20.444  15.751  14.276
 8703W        W77097  12.907  27.397   1.009
 8704W        W77098   2.240  44.121   1.018
 8705W        W77099  16.038  31.177  13.909
 8706W        W77100  11.243   5.448  13.143
 8707W        W77101  34.004  19.028   1.952
 8708W        W77102  34.532  14.115   1.463
 8709W        W77103  32.514  12.745  10.321
 8710W        W77104  10.195   9.406   1.878
 8711W        W77105  15.790  34.145   3.229
 8712W        W77106  18.941  24.947  12.227
 8713W        W77107  36.875   9.202  13.049
 8714W        W77108   7.949  34.122  11.608
 8715W        W77109  27.278  13.011  12.438
 8716W        W77110  36.936  23.456   3.853
 8717W        W77111  11.005  19.635  10.931
 8718W        W77112  20.761  35.801  11.198
 8719W        W77113  42.724  37.420   0.456
 8720W        W77114  40.736  21.750  14.514
 8721W        W77115   5.722  37.003   4.135
 8722W        W77116  32.385  34.155  13.548
 8723W        W77117   3.000  22.459  11.791
 8724W        W77118   9.345  44.803  14.458
 8725W        W77119  42.006  41.013   2.873
 8726W        W77120  28.679   6.735   0.580
 8727W        W77121  34.928   0.304  12.375
 8728W        W77122  41.853   7.218   1.525
 8729W        W77123   9.597   0.956  11.639
 8730W        W77124  37.871  18.082   0.403
 8731W        W77125  33.660  21.966   2.175
 8732W        W77126  11.746  37.112  11.333
 8733W        W77127  42.620   9.743  13.358
 8734W        W77128   2.908  21.622  13.021
 8735W        W77129   4.481   6.555  14.580
 8736W        W77130  39.334  21.700  12.077
 8737W        W77131   6.250  14.127   2.567
 8738W        W77132   1.388  14.182  13.423
 8739W        W77133  33.109  23.604  13.604
 8740W        W77134   2.553  40.816  11.346
 8741W        W77135  32.725   5.719  10.956
 8742W        W77136  14.411   5.678   1.406
 8743W        W77137   8.721  34.286  12.997
 8744W        W77138  29.536  31.074   3.096
 8745W        W77139   0.522   4.364   1.370
 8746W        W77140   1.008   9.829   4.355
 8747W        W77141   4.001  39.605  11.844
 8748W        W77142  44.953  18.169  14.686
 8749W        W77143  16.513  10.078   2.131
 8750W        W77144  41.358  25.886  11.020
 8751W        W77145  20.137  19.473   1.315
 8752W        W77146  28.296  32.572   1.458
 8753W        W77147  28.879  33.462  14.488
 8754W        W77148  41.819  40.946   4.691
 8755W        W77149  10.525  15.660  14.991
 8756W        W77150  35.377  26.556  10.448
 8757W        W77151  10.802  38.464  10.692
 8758W        W77152  28.579   0.419  13.965
 8759W        W77153   3.336  18.045   2.331
 8760W        W77154  30.593  11.449   4.290
 8761W        W77155  12.401  35.626   0.845
 8762W        W77156  25.599  23.218   4.615
 8763W        W77157  34.922  37.096   0.352
 8764W        W77158  23.429  38.053  11.158
 8765W        W77159  16.561  41.491   0.291
 8766W        W77160   5.904   3.623  14.494
 8767W        W77161  43.008  21.029  10.728
 8768W        W77162  18.565  42.555  13.226
 8769W        W77163  14.016  30.164  14.258
 8770W        W77164  13.753  40.420  14.868
 8771W        W77165  22.513   9.152  12.977
 8772W        W77166  13.663   6.699  13.876
 8773W        W77167  31.683  43.471   0.379
 8774W        W77168  37.628   3.492  11.603
 8775W        W77169  16.023  14.384  12.788
 8776W        W77170  37.001  19.602  13.988
 8777W        W77171   0.511  16.733   0.096
 8778W        W77172  42.428   0.053  13.418
 8779W        W77173   1.325  24.425   0.900
 8780W        W77174  19.503  28.690  12.031
 8781W        W77175  30.106  30.271   4.870
 8782W        W77176  27.579  23.825   2.257
 8783W        W77177  19.733  32.532  14.939
 8784W        W77178   8.245   6.064   1.734
 8785W        W77179   8.142  37.796  13.799
 8786W        W77180  16.720  34.869  14.272
 8787W        W77181  13.241  14.289  12.458
 8788W        W77182  20.551  25.779  12.023
 8789W        W77183  10.310  33.177   1.841
 8790W        W77184  21.225  17.126   4.134
 8791W        W77185  35.445  26.418  13.888
 8792W        W77186   5.461   3.413  12.139
 8793W        W77187  24.411  31.284  11.140
 8794W        W77188   2.417   2.186  14.097
 8795W        W77189  37.857  31.014  10.639
 8796W        W77190  14.136  25.538   2.143
 8797W        W77191   2.257  34.033  12.624
 8798W        W77192   2.439  43.035  11.384
 8799W        W77193  43.337  24.109  10.749
 8800W        W77194  43.584  20.584  11.383
 8801W        W77195  28.635  10.818   4.135
 8802W        W77196  44.011  11.267   3.253
 8803W        W77197  20.653   7.901  10.626
 8804W        W77198   4.123  10.110   3.583
 8805W        W77199  38.914  16.847  12.908
 8806W        W77200  37.082   3.792  14.542
 8807W        W77201  30.800   6.354   3.158
 8808W        W77202  12.142  39.870   0.278
 8809W        W77203   6.626  27.923  13.406
 8810W        W77204  23.646  17.135   1.918
 8811W        W77205  10.588  24.424  10.704
 8812W        W77206   9.148  40.615   1.766
 8813W        W77207  10.241  22.059   4.606
 8814W        W77208   6.960  17.061   3.326
 8815W        W77209  19.708  31.045   2.799
 8816W        W77210  31.703  37.187  14.373
 8817W        W77211  19.484  31.118   4.171
 8818W        W77212  18.849  18.597  13.903
 8819W        W77213  40.281  10.197   2.128
 8820W        W77214  26.803  21.725   2.020
 8821W        W77215  17.284  40.021   9.866
 8822W        W77216   0.376  10.609  14.911
 8823W        W77217  24.098   5.448  12.885
 8824W        W77218   4.228  21.749   3.236
 8825W        W77219  22.063  21.215   4.207
 8826W        W77220  23.933  12.266  11.327
 8827W        W77221   1.054  44.180  14.184
 8828W        W77222   3.843  26.231   3.185
 8829W        W77223  22.730  18.940   3.658
 8830W        W77224  18.662  13.295   2.186
 8831W        W77225  10.307  42.982   0.863
 8832W        W77226  15.666  24.728  13.363
 8833W        W77227   3.985   5.205   9.773
 8834W        W77228  42.301  11.655  11.660
 8835W        W77229   0.005  11.556  11.218
 8836W        W77230  26.251   9.510   4.548
 8837W        W77231  21.004  19.336   3.585
 8838W        W77232   6.313  20.747  14.054
 8839W        W77233  44.078  25.627   4.084
 8840W        W77234   7.373  40.811   1.409
 8841W        W77235  21.018   0.412   3.242
 8842W        W77236  21.778  43.251   0.490
 8843W        W77237   1.436  37.412   0.482
 8844W        W77238  41.785   0.279  11.602
 8845W        W77239  43.294  24.162   3.046
 8846W        W77240   2.299  28.982  12.715
 8847W        W77241   0.402  42.549  11.568
 8848W        W77242  40.044  24.008   2.784
 8849W        W77243  29.631  38.777   3.764
 8850W        W77244  43.505   6.772   0.798
 8851W        W77245  23.715  27.703  13.502
 8852W        W77246  29.148  30.938   1.806
 8853W        W77247  44.491   4.231   0.473
 8854W        W77248  36.304   0.187  14.007
 8855W        W77249  18.704  42.728  11.901
 8856W        W77250  18.295   2.285   3.423
 8857W        W77251  13.782  20.577  11.469
 8858W        W77252  20.503  22.174   2.663
 8859W        W77253  32.673  33.421  12.403
 8860W        W77254  28.289  41.537  11.117
 8861W        W77255  25.252  14.040   0.318
 8862W        W77256  11.787  20.294   1.513
 8863W        W77257  18.147  13.852  13.440
 8864W        W77258  19.542   8.293   3.205
 8865W        W77259  30.846  18.659   2.638
 8866W        W77260  11.825   3.104  14.767
 8867W        W77261  27.642  19.275   2.204
 8868W        W77262  28.176  44.619   0.722
 8869W        W77263   2.703  17.523   2.625
 8870W        W77264  42.445   4.831  13.124
 8871W        W77265  12.593  19.151   1.971
 8872W        W77266  15.790  35.530  14.857
 8873W        W77267  13.229   5.467   0.336
 8874W        W77268  40.855  13.768   1.778
 8875W        W77269   7.206  33.947  13.583
 8876W        W77270  41.749  35.847  13.506
 8877W        W77271   2.247  43.493  13.783
 8878W        W77272  33.931  26.558  14.537
 8879W        W77273   6.975  28.530  14.270
 8880W        W77274  11.268  38.000   3.213
 8881W        W77275   7.389  39.903   0.939
 8882W        W77276  29.356  30.646  14.898
 8883W        W77277  39.575  24.517  12.563
 8884W        W77278  16.308   8.016  13.932
 8885W        W77279  34.868   4.287   0.725
 8886W        W77280  13.131   4.337  11.637
 8887W        W77281  43.322  22.773  10.859
 8888W        W77282  32.893  22.287   3.792
 8889W        W77283  37.909  42.721   2.893
 8890W        W77284  44.484  36.545   1.404
 8891W        W77285   6.703  33.093   2.423
 8892W        W77286  31.358  22.196  11.143
 8893W        W77287  10.319  43.768   1.279
 8894W        W77288  38.570  29.902  14.782
 8895W        W77289  25.470   8.757  13.825
 8896W        W77290   5.954  42.710  11.224
 8897W        W77291   4.332   4.877   9.978
 8898W        W77292   2.953  22.194  10.422
 8899W        W77293  43.087  34.124  13.855
 8900W        W77294  29.687  10.227  13.054
 8901W        W77295  37.517  41.812  13.299
 8902W        W77296  19.664  16.133   4.565
 8903W        W77297   6.740  11.837  12.671
 8904W        W77298   8.279  17.527  13.320
 8905W        W77299   7.573  15.592  14.582
 8906W        W77300  44.821  32.434  13.294
 8907W        W77301  18.938  42.635   0.359
 8908W        W77302  26.689  23.505  11.432
 8909W        W77303   1.033  23.910  11.660
 8910W        W77304  15.652  36.358  11.416
 8911W        W77305   7.471  42.054   0.808
 8912W        W77306  12.035   5.391  12.282
 8913W        W77307  28.625  35.249   2.499
 8914W        W77308   4.727   6.281   1.392
 8915W        W77309  33.558  34.901   2.398
 8916W        W77310  31.530  39.037   2.777
 8917W        W77311  32.298  24.614  11.727
 8918W        W77312  24.513  30.498   3.628
 8919W        W77313   6.568   4.028  14.963
 8920W        W77314  44.047   3.446  13.173
 8921W        W77315  12.602   6.652  10.072
 8922W        W77316  27.150   7.720  13.761
 8923W        W77317  20.116  43.871  14.986
 8924W        W77318  13.178   0.219  13.710
 8925W        W77319   6.890  14.805   3.741
 8926W        W77320   1.694  15.854  11.120
 8927W        W77321  33.583  39.809   3.735
 8928W        W77322  28.426  14.582  13.531
 8929W        W77323  20.147  12.194  13.195
 8930W        W77324   6.584  42.021   1.493
 8931W        W77325  43.599  30.581   0.535
 8932W        W77326  22.188  42.577   2.692
 8933W        W77327  39.635  12.173  13.863
 8934W        W77328  41.879   0.831   5.048
 8935W        W77329  30.805  22.734  11.663
 8936W        W77330  38.529  14.992   0.605
 8937W        W77331   8.013  30.106  12.052
 8938W        W77332  30.124  36.422  13.875
 8939W        W77333   3.994  32.849  12.595
 8940W        W77334  38.733  28.063  14.300
 8941W        W77335  27.179  16.170  10.802
 8942W        W77336  25.664   0.365   2.833
 8943W        W77337   9.911  28.915  13.338
 8944W        W77338   9.743   4.234  10.702
 8945W        W77339   1.300  14.496   4.498
 8946W        W77340   8.372  34.032   4.999
 8947W        W77341   3.322  32.506  11.707
 8948W        W77342  20.730  17.776  13.781
 8949W        W77343  20.299  35.827   2.657
 8950W        W77344  24.898   7.455  12.882
 8951W        W77345  14.131  34.998   0.800
 8952W        W77346   0.540   4.927   0.634
 8953W        W77347  26.167  31.513   2.735
 8954W        W77348  22.048  21.448   1.303
 8955W        W77349  38.443  28.905  12.688
 8956W        W77350  42.973  24.991  12.985
 8957W        W77351  37.638  32.049  14.441
 8958W        W77352  35.443  10.134  14.293
 8959W        W77353   0.197  32.904  14.856
 8960W        W77354  16.705  27.859  14.295
 8961W        W77355  28.985  25.272  12.956
 8962W        W77356  38.362  32.325   4.260
 8963W        W77357  20.094  27.704   0.315
 8964W        W77358   3.333  43.984  13.590
 8965W        W77359  23.585  33.874  10.432
 8966W        W77360   3.711  33.467   4.646
 8967W        W77361  44.363  16.759   3.948
 8968W        W77362  35.930  29.670   4.766
 8969W        W77363  41.309  30.934   3.807
 8970W        W77364  43.798  24.735  14.899
 8971W        W77365  37.053  31.879   0.928
 8972W        W77366  31.543  13.531   2.742
 8973W        W77367   2.488  43.345   3.301
 8974W        W77368   2.353  42.025  11.525
 8975W        W77369  43.339  20.258  13.486
 8976W        W77370  38.064   7.169  11.955
 8977W        W77371  41.410  20.208  11.758
 8978W        W77372  41.833   1.790  10.724
 8979W        W77373  15.859  24.003  11.654
 8980W        W77374  23.653  20.121  11.983
 8981W        W77375  22.529   0.901   3.921
 8982W        W77376  36.890  29.879  10.640
 8983W        W77377  37.270   8.195  10.765
 8984W        W77378  16.835   0.033   4.122
 8985W        W77379  30.701  24.101  13.464
 8986W        W77380  44.848  15.302  14.726
 8987W        W77381  16.203  11.129   0.311
 8988W        W77382  10.174  24.536   2.506
 8989W        W77383  15.193   4.888   1.657
 8990W        W77384  16.022   7.793   2.028
 8991W        W77385  34.581  11.566  13.466
 8992W        W77386  36.856   9.829  10.708
 8993W        W77387  28.429  32.156   4.180
 8994W        W77388  44.214   9.208   3.667
 8995W        W77389  35.446  41.842  12.009
 8996W        W77390  37.919  39.387  14.801
 8997W        W77391   7.399  14.061   1.810
 8998W        W77392  21.122  14.160  13.928
 8999W        W77393  21.072   3.422  11.034
 9000W        W77394  44.228  41.698   1.222
 9001W        W77395  38.632  29.566   4.678
 9002W        W77396  17.914  19.696   0.821
 9003W        W77397  36.123   2.463   1.906
 9004W        W77398  32.237  35.457  13.479
 9005W        W77399  39.993  42.076   1.401
 9006W        W77400  26.444   5.873  12.451
 9007W        W77401  44.714   8.789  12.986
 9008W        W77402  17.224  35.285   2.183
 9009W        W77403  27.946   1.762   0.596
 9010W        W77404  41.885  14.700  10.900
 9011W        W77405  20.099  28.871   4.644
 9012W        W77406  11.457  27.013  11.581
 9013W        W77407  31.091  38.049   2.205
 9014W        W77408  44.696  38.024   3.382
 9015W        W77409   1.069  40.817   4.324
 9016W        W77410  14.606  19.633  13.455
 9017W        W77411  15.524  41.261   2.722
 9018W        W77412  23.563  31.480   3.691
 9019W        W77413  44.743  23.039   4.768
 9020W        W77414  15.983   7.789  12.525
 9021W        W77415  41.528   6.342  12.982
 9022W        W77416  14.555  16.681   3.351
 9023W        W77417  36.845  38.320   3.265
 9024W        W77418  38.520   3.688   2.341
 9025W        W77419  26.865  21.647   1.500
 9026W        W77420  22.187   9.750   0.205
 9027W        W77421  36.437  17.033  12.370
 9028W        W77422  14.163  16.667   4.017
 9029W        W77423  30.012  22.746   1.367
 9030W        W77424  36.861  32.014  13.564
 9031W        W77425  13.208  19.756   2.298
 9032W        W77426   6.321   6.661  10.980
 9033W        W77427  14.202  16.847  14.361
 9034W        W77428  17.200  20.250  14.493
 9035W        W77429   8.772  35.075   2.393
 9036W        W77430  24.822  41.477  12.540
 9037W        W77431  11.900  27.888   2.726
 9038W        W77432   1.926  42.196  13.930
 9039W        W77433  29.577  24.763   0.772
 9040W        W77434  31.841  29.572   2.655
 9041W        W77435  25.133  44.904  11.141
 9042W        W77436  34.810  13.622   1.367
 9043W        W77437  28.233  36.706   4.106
 9044W        W77438  30.482  30.851  13.590
 9045W        W77439  11.865  13.513   2.792
 9046W        W77440  22.673  16.070   4.390
 9047W        W77441  22.281   3.430  11.538
 9048W        W77442  24.199  25.927  14.387
 9049W        W77443  10.447  31.712   4.995
 9050W        W77444  35.562  17.584   2.731
 9051W        W77445  40.078   4.207  12.130
 9052W        W77446  15.240  18.852  12.298
 9053W        W77447  39.815  22.727  12.406
 9054W        W77448  42.527  34.071   2.787
 9055W        W77449  24.150  18.377  13.328
 9056W        W77450  34.304  14.957   3.163
 9057W        W77451  32.882  36.970  12.086
 9058W        W77452  40.468  20.037  14.350
 9059W        W77453  33.659   3.458  10.247
 9060W        W77454   2.218  28.401   0.454
 9061W        W77455  30.150  25.601   1.898
 9062W        W77456   1.216  13.329   3.792
 9063W        W77457  23.622  10.509  12.016
 9064W        W77458  40.672   5.340  12.961
 9065W        W77459  20.203  42.537   0.829
 9066W        W77460  39.809  10.068  11.184
 9067W        W77461   7.882  35.579  11.341
 9068W        W77462  30.562  39.584  12.490
 9069W        W77463   1.794   3.667  14.528
 9070W        W77464   2.001   0.512  14.376
 9071W        W77465  40.533   5.319  13.821
 9072W        W77466  11.596  10.645   0.497
 9073W        W77467   0.602  22.151  12.853
 9074W        W77468  26.022  14.988   4.107
 9075W        W77469  37.178  36.609   4.177
 9076W        W77470  41.025   3.238   4.133
 9077W        W77471   4.649  43.900   2.158
 9078W        W77472  40.056  29.880   4.403
 9079W        W77473  16.323  15.899   1.227
 9080W        W77474  36.365  29.572   1.712
 9081W        W77475  39.238  14.264   2.175
 9082W        W77476   5.939  44.697   4.839
 9083W        W77477  21.628   6.155   0.903
 9084W        W77478  13.287   9.304   4.114
 9085W        W77479  11.101  43.883  14.964
 9086W        W77480  27.899  34.009  12.912
 9087W        W77481  43.410  35.198   0.464
 9088W        W77482  40.278  19.058  14.445
 9089W        W77483   4.829  10.268  13.012
 9090W        W77484  26.741   4.786   2.398
 9091W        W77485  30.425  14.780  14.737
 9092W        W77486  43.338  11.835   1.887
 9093W        W77487   3.758  30.568   0.756
 9094W        W77488  39.492   1.776  10.657
 9095W        W77489  16.487   2.971   3.210
 9096W        W77490  21.807  24.993   1.355
 9097W        W77491  41.944  22.266  11.699
 9098W        W77492  15.138   2.328  12.201
 9099W        W77493  29.108  38.388   1.930
 9100W        W77494  12.470  13.139  10.945
 9101W        W77495  13.814  25.545  13.574
 9102W        W77496  33.509  11.239   2.701
 9103W        W77497  36.650  18.503  13.909
 9104W        W77498  19.630  34.080   3.047
 9105W        W77499   7.413   8.284   1.706
 9106W        W77500  41.544   5.749  10.845
 9107W        W77501  30.927  32.949   4.244
 9108W        W77502  36.095  30.060   0.926
 9109W        W77503   4.419  17.731  13.426
 9110W        W77504  40.944  20.514   1.862
 9111W        W77505  19.784  20.741   1.510
 9112W        W77506  22.359  27.522   4.000
 9113W        W77507   6.955  24.771  13.862
 9114W        W77508  38.464  41.808  11.735
 9115W        W77509   0.456  17.136   1.399
 9116W        W77510  26.936  25.458  14.920
 9117W        W77511   2.306  42.848  14.441
 9118W        W77512  20.870  29.641   5.672
 9119W        W77513   2.393  12.989   2.778
 9120W        W77514  32.983  41.833  13.928
 9121W        W77515  35.846  29.440   2.599
 9122W        W77516  22.322   7.854  12.355
 9123W        W77517  16.374   9.072   0.786
 9124W        W77518  30.904  14.232  11.315
 9125W        W77519  25.120  39.051  12.112
 9126W        W77520   9.802  18.594   2.185
 9127W        W77521  12.859  20.567   0.385
 9128W        W77522   1.223  31.594   4.254
 9129W        W77523   0.556  32.323   3.517
 9130W        W77524   4.864   4.829   1.838
 9131W        W77525  40.971   6.950  11.097
 9132W        W77526  34.325  34.542  12.285
 9133W        W77527  44.526  11.685   1.426
 9134W        W77528   4.274  10.597   1.765
 9135W        W77529   1.172   1.368   2.761
 9136W        W77530  11.114   4.114   2.572
 9137W        W77531  35.102  31.333   3.214
 9138W        W77532   3.825  33.872  10.297
 9139W        W77533  24.594  23.924   3.935
 9140W        W77534  13.923  38.017   0.877
 9141W        W77535   1.886  37.000   2.196
 9142W        W77536  30.211  13.745   2.968
 9143W        W77537  10.710  20.989  10.310
 9144W        W77538  23.116  41.169   0.290
 9145W        W77539  23.342  31.479   4.159
 9146W        W77540  28.959  38.613   4.113
 9147W        W77541  20.254   3.293  10.612
 9148W        W77542  12.441  18.187   0.435
 9149W        W77543   8.244  11.650   4.251
 9150W        W77544   6.822   7.848  12.357
 9151W        W77545   7.198  12.728   2.366
 9152W        W77546  10.933  39.301   1.403
 9153W        W77547  40.107  22.180   1.421
 9154W        W77548  33.398  12.238   2.722
 9155W        W77549  26.186  27.645  11.651
 9156W        W77550   7.904   9.800  10.657
 9157W        W77551  18.594   7.488   4.492
 9158W        W77552   5.448  18.371  14.018
 9159W        W77553  16.605  25.020   3.479
 9160W        W77554  44.492  26.028  14.429
 9161W        W77555  15.560  41.949   3.683
 9162W        W77556  44.186  44.813  11.766
 9163W        W77557  10.738   2.226   2.889
 9164W        W77558   7.088  37.240  11.033
 9165W        W77559   5.703  13.740   2.852
 9166W        W77560  22.075  33.856   2.402
 9167W        W77561  27.835  22.864  13.446
 9168W        W77562  16.255  44.877   2.286
 9169W        W77563   2.293  10.892  10.753
 9170W        W77564  36.634  19.252   0.662
 9171W        W77565  28.710  20.148   0.181
 9172W        W77566  18.603   7.334  14.326
 9173W        W77567  10.873  35.398  12.596
 9174W        W77568  25.421  43.140   3.666
 9175W        W77569  33.158   7.538   1.408
 9176W        W77570  27.489  41.977  12.006
 9177W        W77571  35.039   0.998  12.978
 9178W        W77572   2.869  43.246   0.049
 9179W        W77573  17.218  35.111   4.706
 9180W        W77574  25.131  38.069   1.954
 9181W        W77575  25.536   3.091  14.254
 9182W        W77576  35.458  19.261  14.871
 9183W        W77577  14.083  20.643   4.272
 9184W        W77578  22.670  30.218   0.898
 9185W        W77579  41.438  14.157   3.416
 9186W        W77580  13.219  34.618  10.771
 9187W        W77581  40.768   0.635  10.783
 9188W        W77582  28.306  18.265  13.682
 9189W        W77583  33.078   5.952  14.096
 9190W        W77584  43.441  19.182  11.106
 9191W        W77585  32.717  44.175  10.802
 9192W        W77586  21.566  29.592  14.423
 9193W        W77587   0.474   3.300  12.565
 9194W        W77588  19.731  39.633   2.603
 9195W        W77589  41.284  11.717   4.482
 9196W        W77590  44.440  11.948   0.893
 9197W        W77591  35.345   4.721   0.232
 9198W        W77592  24.500  31.044  13.463
 9199W        W77593  44.749  40.369  12.645
 9200W        W77594  31.707   0.355  12.002
 9201W        W77595   6.633  13.026  14.695
 9202W        W77596   6.403  37.469  10.731
 9203W        W77597  17.738   8.833   0.024
 9204W        W77598  15.818  29.967  10.942
 9205W        W77599  24.491  18.015   2.323
 9206W        W77600  23.683  14.540  12.686
 9207W        W77601  10.763  17.447  11.146
 9208W        W77602  44.062  31.456  13.870
 9209W        W77603  16.714  43.843   0.894
 9210W        W77604  35.373  40.194   3.755
 9211W        W77605   5.192   1.935  14.291
 9212W        W77606  25.934  22.590   2.110
 9213W        W77607  37.120  42.576   0.310
 9214W        W77608  11.381  29.123   2.411
 9215W        W77609  25.683  28.906  12.123
 9216W        W77610  19.621  37.571  11.120
 9217W        W77611  39.526  15.301   3.747
 9218W        W77612   3.263   0.902   0.390
 9219W        W77613  35.389  26.598  12.379
 9220W        W77614   9.220  25.131  14.374
 9221W        W77615  15.854  12.759   1.709
 9222W        W77616  43.400   3.735  14.293
 9223W        W77617   9.866  38.365   1.860
 9224W        W77618  12.718  15.591  14.724
 9225W        W77619  32.213   3.402   3.280
 9226W        W77620  20.241  23.722   1.821
 9227W        W77621  18.125  31.086   1.474
 9228W        W77622  42.708  39.449   4.440
 9229W        W77623  27.704  32.783  11.145
 9230W        W77624  27.189  15.533   3.759
 9231W        W77625  16.135  43.740   3.567
 9232W        W77626   7.147   5.946  11.080
 9233W        W77627  15.753  15.987   3.233
 9234W        W77628  20.104  20.218   4.013
 9235W        W77629  36.426  34.389   3.752
 9236W        W77630   4.810  18.736  13.374
 9237W        W77631  28.419  23.814   2.578
 9238W        W77632   5.030  34.697  13.729
 9239W        W77633  13.868  37.663  12.447
 9240W        W77634  24.395  30.777  11.205
 9241W        W77635  13.883  21.815  13.863
 9242W        W77636  14.154   3.686  13.522
 9243W        W77637  23.750   3.369   2.779
 9244W        W77638  32.805  44.749   4.558
 9245W        W77639   6.667   6.405  14.295
 9246W        W77640  20.993  23.425   3.285
 9247W        W77641  20.161  25.712   2.679
 9248W        W77642   7.750  23.605  12.375
 9249W        W77643  13.466   4.210   1.385
 9250W        W77644   4.978  21.233  12.589
 9251W        W77645  43.369  31.687  12.692
 9252W        W77646  40.989   1.784  11.388
 9253W        W77647  20.280  40.505   2.475
 9254W        W77648  33.688  15.608  11.544
 9255W        W77649  10.033  42.138   4.404
 9256W        W77650  29.468  16.324   3.692
 9257W        W77651  28.133   6.230  10.129
 9258W        W77652  30.093   3.349  13.137
 9259W        W77653   2.795  43.538  14.609
 9260W        W77654   3.411   5.989   0.200
 9261W        W77655  10.818  31.119   3.466
 9262W        W77656  33.538  28.528   4.633
 9263W        W77657   5.813  16.917  13.919
 9264W        W77658   7.987  16.645   3.172
 9265W        W77659  21.003   0.803   2.714
 9266W        W77660   8.070  18.647   0.633
 9267W        W77661  40.870  34.069  12.934
 9268W        W77662  24.929  37.226  10.919
 9269W        W77663  42.530  43.298   3.402
 9270W        W77664  36.345  20.483  14.267
 9271W        W77665   5.244  12.890  12.914
 9272W        W77666  28.418  29.922   2.310
 9273W        W77667  24.610  12.491  12.465
 9274W        W77668  12.719  11.069  13.295
 9275W        W77669  30.254  43.757   0.350
 9276W        W77670  15.704  40.524  14.715
 9277W        W77671  20.547  20.702   3.754
 9278W        W77672  42.896  39.194   0.981
 9279W        W77673   8.495  37.372   3.658
 9280W        W77674  11.110  43.014   1.898
 9281W        W77675  21.194  21.112  12.087
 9282W        W77676  42.062   0.915   4.128
 9283W        W77677   0.395  33.799  13.431
 9284W        W77678  11.791  26.467   3.946
 9285W        W77679  29.615   9.269   1.215
 9286W        W77680  39.509  35.237  14.856
 9287W        W77681   9.039  38.322  10.374
 9288W        W77682  36.131  35.598   1.509
 9289W        W77683  35.165  12.829   4.328
 9290W        W77684  17.047  37.090  10.251
 9291W        W77685  13.633  39.272   2.700
 9292W        W77686  16.532  27.137   5.470
 9293W        W77687  25.571  28.915   0.839
 9294W        W77688  41.034   8.557  11.982
 9295W        W77689  34.592  11.930   0.039
 9296W        W77690  31.883   5.646  10.729
 9297W        W77691  25.523  42.825   1.163
 9298W        W77692  33.427  39.961   2.859
 9299W        W77693  12.330  10.949   4.298
 9300W        W77694  18.034  16.723   3.128
 9301W        W77695   3.349  18.787   2.805
 9302W        W77696  38.447  41.472  12.162
 9303W        W77697  15.183  11.699   0.282
 9304W        W77698  21.726   3.854  11.126
 9305W        W77699  20.511  30.108  10.597
 9306W        W77700   6.644  28.440  13.375
 9307W        W77701  40.073  24.033  14.252
 9308W        W77702  24.143  19.368   2.190
 9309W        W77703  40.532  22.791   3.731
 9310W        W77704  36.888  26.640   3.407
 9311W        W77705  40.526  41.173   2.801
 9312W        W77706   3.833  10.585  12.812
 9313W        W77707  13.910   5.352  13.294
 9314W        W77708   3.701  15.853   3.084
 9315W        W77709  19.601  32.846   3.924
 9316W        W77710  41.989  25.997   3.810
 9317W        W77711   2.489   4.842  12.824
 9318W        W77712  17.028  42.414   2.170
 9319W        W77713  24.688  27.506   2.822
 9320W        W77714  38.900   7.293   0.816
 9321W        W77715  37.989  40.769  14.888
 9322W        W77716  25.414   4.372  10.526
 9323W        W77717  26.629  42.348   9.781
 9324W        W77718  42.566  33.571  11.495
 9325W        W77719  35.569  15.801  10.783
 9326W        W77720  34.883  32.178   2.811
 9327W        W77721  33.141  12.724  11.154
 9328W        W77722  26.381  20.679  14.835
 9329W        W77723  12.518   6.721  14.811
 9330W        W77724  26.110  35.991   3.114
 9331W        W77725  16.528  37.660   3.105
 9332W        W77726  14.745  17.734  11.162
 9333W        W77727  42.622  26.461  11.976
 9334W        W77728  33.314  26.231  14.920
 9335W        W77729  37.091  31.128   3.717
 9336W        W77730  15.534  34.107  12.940
 9337W        W77731   0.862   0.448  11.328
 9338W        W77732   1.778  12.664  13.869
 9339W        W77733  11.581  26.992  14.928
 9340W        W77734  37.413  41.245  11.027
 9341W        W77735   8.104  25.087  13.557
 9342W        W77736  41.519  42.596  12.626
 9343W        W77737  39.041   8.024   3.841
 9344W        W77738  10.251  39.563   1.468
 9345W        W77739  22.641   6.864  13.352
 9346W        W77740  18.698  12.341  12.059
 9347W        W77741  28.164   8.294   1.370
 9348W        W77742  44.682  35.632  10.613
 9349W        W77743  37.003  14.341   0.748
 9350W        W77744  17.197   6.588  13.834
 9351W        W77745  23.301  31.035   3.743
 9352W        W77746   3.548  16.645  13.949
 9353W        W77747   0.506  23.522   3.281
 9354W        W77748  26.859  37.634   4.793
 9355W        W77749   7.675  27.514   1.888
 9356W        W77750  22.400   8.017   2.759
 9357W        W77751  32.992   8.632   5.070
 9358W        W77752   7.293  25.973  11.159
 9359W        W77753  32.911  26.129  12.044
 9360W        W77754  16.650  43.339  13.155
 9361W        W77755  15.279  16.049   4.519
 9362W        W77756  39.278   9.344  11.136
 9363W        W77757  32.661  43.841   4.254
 9364W        W77758  38.186  16.333  12.918
 9365W        W77759  31.336  41.421  14.554
 9366W        W77760  20.684   8.948   2.644
 9367W        W77761  36.599  35.313  12.089
 9368W        W77762   5.454  37.640  11.577
 9369W        W77763  43.032  18.134   3.556
 9370W        W77764   2.636  22.609  10.331
 9371W        W77765  24.372   6.890  14.962
 9372W        W77766  28.966   7.693  12.887
 9373W        W77767  24.257  24.603   4.887
 9374W        W77768  14.759  25.458   1.474
 9375W        W77769  34.638   4.175   3.599
 9376W        W77770   8.257  25.908   3.297
 9377W        W77771   4.621  29.364   4.030
 9378W        W77772  40.486  16.375  11.434
 9379W        W77773  40.527  10.340  11.683
 9380W        W77774  38.848   4.306  13.632
 9381W        W77775  19.072  24.625  10.394
 9382W        W77776   2.501   9.603  11.090
 9383W        W77777  34.058  26.741   1.876
 9384W        W77778  22.523  40.047   3.557
 9385W        W77779  37.750  16.317   1.387
 9386W        W77780  42.500   5.675   4.324
 9387W        W77781  21.022  25.475   2.209
 9388W        W77782  39.125  38.416   1.515
 9389W        W77783  25.892  43.787  13.315
 9390W        W77784  34.226   3.942   2.277
 9391W        W77785  42.276  30.597  10.624
 9392W        W77786  32.169  31.341   1.654
 9393W        W77787  12.321  40.046  12.868
 9394W        W77788  34.141   1.741   1.360
 9395W        W77789  37.774  31.256  11.079
 9396W        W77790  34.528  23.526  13.231
 9397W        W77791  39.316  27.953   0.902
 9398W        W77792  29.683   3.957   2.909
 9399W        W77793  28.010   4.803  14.185
 9400W        W77794  38.657  21.895  10.711
 9401W        W77795  44.888  35.145   2.362
 9402W        W77796  25.539   8.901  14.731
 9403W        W77797  40.227   5.376   4.540
 9404W        W77798  18.805  26.465   0.068
 9405W        W77799   7.707  39.476   4.244
 9406W        W77800   0.241  35.652   3.031
 9407W        W77801  20.240  13.610  10.688
 9408W        W77802   8.697  12.294   4.606
 9409W        W77803   8.123   9.145   4.109
 9410W        W77804   9.880  44.872   3.188
 9411W        W77805  28.541  34.393  14.878
 9412W        W77806   2.735  24.385   4.993
 9413W        W77807   4.495  41.058   4.333
 9414W        W77808   8.801  41.553   3.622
 9415W        W77809   5.494  41.934   2.246
 9416W        W77810  39.677   0.909  13.943
 9417W        W77811  27.225  12.204  10.977
 9418W        W77812  38.365  10.324  14.432
 9419W        W77813  37.761  30.487   3.208
 9420W        W77814  31.479  15.140  11.158
 9421W        W77815   6.149  37.324   1.010
 9422W        W77816  16.037   3.765  14.318
 9423W        W77817   5.870  19.246   0.925
 9424W        W77818   5.809  29.523   3.202
 9425W        W77819  24.048  32.679  13.111
 9426W        W77820  12.017  10.283   4.912
 9427W        W77821  19.582  21.140  10.454
 9428W        W77822  10.360  30.529  11.652
 9429W        W77823   1.926  19.684  10.542
 9430W        W77824  19.660  33.243   0.786
 9431W        W77825  34.149  44.359   3.911
 9432W        W77826  18.795  33.157  12.641
 9433W        W77827  26.159  25.062  14.817
 9434W        W77828  10.146  42.305  13.898
 9435W        W77829  30.672  11.195  14.465
 9436W        W77830  31.456  15.861   2.182
 9437W        W77831   9.885  41.952  13.615
 9438W        W77832  28.950  37.999   4.146
 9439W        W77833  23.458  12.852  11.645
 9440W        W77834  29.839  42.497  14.913
 9441W        W77835  36.805  12.121   0.082
 9442W        W77836  11.547  41.740   2.690
 9443W        W77837  41.558  44.584  13.899
 9444W        W77838   5.014   0.464   2.502
 9445W        W77839   9.056  31.474  14.861
 9446W        W77840  33.280  25.770  12.542
 9447W        W77841   3.685  26.671   2.091
 9448W        W77842   7.181  35.024   4.113
 9449W        W77843   4.287  24.148  14.958
 9450W        W77844   7.428  18.876  11.064
 9451W        W77845  19.751  17.313  12.327
 9452W        W77846  23.960  20.668   1.812
 9453W        W77847   6.692  24.712   1.270
 9454W        W77848  44.801  30.956   4.349
 9455W        W77849  44.910  14.606   3.329
 9456W        W77850   4.683  38.995   3.576
 9457W        W77851  29.559  10.223   3.518
 9458W        W77852  22.284   0.061  14.948
 9459W        W77853  35.163  34.132   4.131
 9460W        W77854  21.746  17.823  14.090
 9461W        W77855  28.535  33.052   1.383
 9462W        W77856   7.130  29.612   4.544
 9463W        W77857   5.021   8.438  14.905
 9464W        W77858  43.476  20.992  12.109
 9465W        W77859   2.986  43.581  12.095
 9466W        W77860   4.402   5.763   0.481
 9467W        W77861   3.347   1.479   2.952
 9468W        W77862   6.970  41.432  14.455
 9469W        W77863  18.572  14.905  14.848
 9470W        W77864  38.318  37.591  11.602
 9471W        W77865  40.435  26.075   1.741
 9472W        W77866   4.261   0.947  13.974
 9473W        W77867  41.587  13.173   1.858
 9474W        W77868  16.204   7.428   2.357
 9475W        W77869   5.862   6.357   4.917
 9476W        W77870  29.185  39.480   3.593
 9477W        W77871  28.350  33.871   0.689
 9478W        W77872  28.970  22.278   0.490
 9479W        W77873  30.612  22.946   0.251
 9480W        W77874  13.712  14.813   1.535
 9481W        W77875  16.111  24.682   2.387
 9482W        W77876   2.664  14.147  11.272
 9483W        W77877  16.664  39.584  14.986
 9484W        W77878  31.080  24.096  12.181
 9485W        W77879  40.770  22.993  11.225
 9486W        W77880   3.691  29.947   4.834
 9487W        W77881   1.850  39.404   1.819
 9488W        W77882   5.843  39.448  11.603
 9489W        W77883  35.782  23.965   3.847
 9490W        W77884  33.340   2.899   1.290
 9491W        W77885  22.805   9.613  10.400
 9492W        W77886   3.690  31.983  10.513
 9493W        W77887  14.832  22.234   2.723
 9494W        W77888   8.162  38.844   2.092
 9495W        W77889   2.199  13.173   4.988
 9496W        W77890  14.041   2.267   1.448
 9497W        W77891   1.785  15.173   0.330
 9498W        W77892  31.532   1.046   3.302
 9499W        W77893  25.582  30.977  11.789
 9500W        W77894   9.872  44.040  14.375
 9501W        W77895  31.959  41.223   0.270
 9502W        W77896   9.400  34.302  11.277
 9503W        W77897  18.547   6.678  11.452
 9504W        W77898  13.069  35.071  10.582
 9505W        W77899  30.417  30.986   0.413
 9506W        W77900  13.841  31.341   4.431
 9507W        W77901  14.853  15.488   2.137
 9508W        W77902  39.794  33.018  13.040
 9509W        W77903  17.494  22.986  14.969
 9510W        W77904  21.005  35.594  14.277
 9511W        W77905  37.133  40.557  12.759
 9512W        W77906  21.573  34.848  11.991
 9513W        W77907  11.346  27.471  14.819
 9514W        W77908  17.574  25.603   4.549
 9515W        W77909  24.987  34.774  13.645
 9516W        W77910  18.285   7.713   1.173
 9517W        W77911   1.798  23.570   3.675
 9518W        W77912  39.068  16.538  13.397
 9519W        W77913  12.231   5.891   5.220
 9520W        W77914  40.475  17.786   0.737
 9521W        W77915  16.796  19.617  11.980
 9522W        W77916  13.192  17.477   1.846
 9523W        W77917  31.937  19.139   3.322
 9524W        W77918  17.064  20.177   3.711
 9525W        W77919  21.487  22.247   2.746
 9526W        W77920  25.115  15.233   3.395
 9527W        W77921  10.727  23.525  11.574
 9528W        W77922  21.037  27.654  14.366
 9529W        W77923   7.565  29.641  11.572
 9530W        W77924   6.656  34.438  14.746
 9531W        W77925  40.791  32.937   3.632
 9532W        W77926  39.831   8.664   1.693
 9533W        W77927  33.346  40.468   2.122
 9534W        W77928  20.053  37.980  10.594
 9535W        W77929  32.558  27.950  13.744
 9536W        W77930  37.488  38.624  14.357
 9537W        W77931   0.945  19.364   0.005
 9538W        W77932   1.747  37.216  10.729
 9539W        W77933   6.352  28.241   0.586
 9540W        W77934  10.320   2.296   1.686
 9541W        W77935  30.981   7.790   2.202
 9542W        W77936   9.295  26.228  13.073
 9543W        W77937   6.210  31.909  13.799
 9544W        W77938  12.792   4.976   5.438
 9545W        W77939  26.000   9.919  13.494
 9546W        W77940  10.380   5.393   2.073
 9547W        W77941  28.616  44.594  12.548
 9548W        W77942  33.163  11.236  13.476
 9549W        W77943  40.332  13.561  13.023
 9550W        W77944  21.135  26.854  13.965
 9551W        W77945   7.287  23.169  11.389
 9552W        W77946  17.764   3.487  11.104
 9553W        W77947  41.988  12.865  13.349
 9554W        W77948  28.576  35.587  10.618
 9555W        W77949  43.928  13.189  13.534
 9556W        W77950  25.704  41.814  12.474
 9557W        W77951   7.053  42.820   1.875
 9558W        W77952  18.798   5.193   4.428
 9559W        W77953   8.646  14.263   2.384
 9560W        W77954  26.090  18.558   4.184
 9561W        W77955  38.939   5.678  10.532
 9562W        W77956  17.091  13.835  13.406
 9563W        W77957  38.410  42.813  13.552
 9564W        W77958  19.143   8.347  13.735
 9565W        W77959   3.429  37.842  12.895
 9566W        W77960  25.057  39.042   3.681
 9567W        W77961  43.452  33.927   2.215
 9568W        W77962   9.731  24.955  12.794
 9569W        W77963  44.170  38.273   1.397
 9570W        W77964  20.776  10.156  13.008
 9571W        W77965  18.515  12.340   2.725
 9572W        W77966  25.104  24.427   1.732
 9573W        W77967  40.776  44.990  12.882
 9574W        W77968  37.574  10.989   3.836
 9575W        W77969   4.891  32.879   4.643
 9576W        W77970  26.955  37.036  13.825
 9577W        W77971  39.951  35.252  10.846
 9578W        W77972  34.978  24.373  10.154
 9579W        W77973  11.041  26.734   4.278
 9580W        W77974  18.352  33.567  14.426
 9581W        W77975  43.349  31.374   4.881
 9582W        W77976  20.251  14.293   1.348
 9583W        W77977  19.672  15.203   0.520
 9584W        W77978  29.882  39.036   4.187
 9585W        W77979  24.198  28.946   0.423
 9586W        W77980   9.785  32.115  11.652
 9587W        W77981  32.819  39.008   3.190
 9588W        W77982  37.994  40.836  12.599
 9589W        W77983   8.789  38.779  11.233
 9590W        W77984  32.095  32.833  11.465
 9591W        W77985  22.537  25.996  10.595
 9592W        W77986  12.677  25.921   4.780
 9593W        W77987  36.524  25.275   2.245
 9594W        W77988   2.751  21.511  11.159
 9595W        W77989   2.325   3.744  11.464
 9596W        W77990  13.156  15.543   4.489
 9597W        W77991  44.704  29.028  10.704
 9598W        W77992  43.574  40.575  10.060
 9599W        W77993  12.376  26.505  10.729
 9600W        W77994  14.706  40.453   4.570
 9601W        W77995  11.605  36.322   0.353
 9602W        W77996  14.580  41.030  13.488
 9603W        W77997   1.666  20.985  13.870
 9604W        W77998  44.405  10.532  14.936
 9605W        W77999   5.197  30.638  14.799
 9606W        W78000  30.187  10.225   4.634
 9607W        W78001  42.568  12.826  11.472
 9608W        W78002  36.199  34.231   3.304
 9609W        W78003  39.899   2.370  13.197
 9610W        W78004  26.373   8.192  13.880
 9611W        W78005  41.278   0.940   3.755
 9612W        W78006  29.287   0.937   1.388
 9613W        W78007  40.212   6.887   2.597
 9614W        W78008   1.295  20.183   3.719
 9615W        W78009  15.065  38.112  12.905
 9616W        W78010  20.835   5.479  14.994
 9617W        W78011  20.214  43.012   1.023
 9618W        W78012  30.687  11.269  12.020
 9619W        W78013  31.894   6.561   4.508
 9620W        W78014  27.978  20.122   0.802
 9621W        W78015   9.800  21.642  14.034
 9622W        W78016  30.716  41.053   4.186
 9623W        W78017  39.433  13.606  14.051
 9624W        W78018  21.484  21.595  14.564
 9625W        W78019  19.752  19.984   3.227
 9626W        W78020  17.288  14.618  11.923
 9627W        W78021   8.899  14.215  13.590
 9628W        W78022  38.926  33.494  12.415
 9629W        W78023  40.867  42.013   2.750
 9630W        W78024  18.667  41.699  11.916
 9631W        W78025  17.674   5.590   1.811
 9632W        W78026   2.304  37.271   3.212
 9633W        W78027  28.490  12.092   0.000
 9634W        W78028  32.076  20.371   2.188
 9635W        W78029  32.931  11.683  13.436
 9636W        W78030  35.991  29.856  12.952
 9637W        W78031  31.832   4.941   3.640
 9638W        W78032  33.323  37.498   0.264
 9639W        W78033  26.961  44.977  13.360
 9640W        W78034   8.878   9.843   3.885
 9641W        W78035  44.097  41.890   0.166
 9642W        W78036  43.476   8.779   4.028
 9643W        W78037  22.051   7.842  10.606
 9644W        W78038  34.358  42.430   0.905
 9645W        W78039  39.924  38.747  12.301
 9646W        W78040  21.161  36.833   1.248
 9647W        W78041  13.156   0.453  11.202
 9648W        W78042  14.131  32.102   4.001
 9649W        W78043  35.906   0.921  11.620
 9650W        W78044  21.759  25.622   0.350
 9651W        W78045  38.016  10.693  14.356
 9652W        W78046   4.464  37.430   1.718
 9653W        W78047  32.628   1.246   0.893
 9654W        W78048  13.198  15.734  12.671
 9655W        W78049  12.662   0.855   3.258
 9656W        W78050  32.113  19.097  14.822
 9657W        W78051   7.786  10.037  12.451
 9658W        W78052   5.904  27.068  11.114
 9659W        W78053  25.523  26.545  12.077
 9660W        W78054  12.259  35.626   3.582
 9661W        W78055  12.317  12.337  14.319
 9662W        W78056  23.887  18.562   4.374
 9663W        W78057  42.961  27.713  12.034
 9664W        W78058   0.563  36.900   3.635
 9665W        W78059  39.390  40.694   2.845
 9666W        W78060  36.428  19.696  14.754
 9667W        W78061  15.395  19.438  12.305
 9668W        W78062  17.089  18.349   3.423
 9669W        W78063   8.167  25.731   2.826
 9670W        W78064  10.791  37.775  11.449
 9671W        W78065  37.989  25.665  14.800
 9672W        W78066  33.042  14.050  13.339
 9673W        W78067  36.754  23.659   4.644
 9674W        W78068  19.817  35.531   1.658
 9675W        W78069  22.727  18.567  10.731
 9676W        W78070  36.110  14.732  13.337
 9677W        W78071  36.036  18.992  12.510
 9678W        W78072   9.508  34.626  12.450
 9679W        W78073  12.118  43.975  13.007
 9680W        W78074   6.891  21.085  14.354
 9681W        W78075  43.886  12.110   0.273
 9682W        W78076  23.319  44.261   0.030
 9683W        W78077  41.493  27.583   1.605
 9684W        W78078  15.848   3.501   3.855
 9685W        W78079  21.728  33.494   3.085
 9686W        W78080  21.055  24.287  11.116
 9687W        W78081  42.431  34.018  12.184
 9688W        W78082  35.127   5.858  11.169
 9689W        W78083  14.149  43.578  11.060
 9690W        W78084  27.171   0.431  10.720
 9691W        W78085  33.854  36.971   1.453
 9692W        W78086  43.480   9.693   4.940
 9693W        W78087  25.738  31.723   0.854
 9694W        W78088  14.335  11.316   4.489
 9695W        W78089  35.383   8.264   1.009
 9696W        W78090  21.106  36.003  14.942
 9697W        W78091   3.403  38.052   3.375
 9698W        W78092   9.894  25.804  12.368
 9699W        W78093  40.256  44.928   4.717
 9700W        W78094  18.911  24.826  11.731
 9701W        W78095  37.112   3.300   0.888
 9702W        W78096   7.372  17.366  13.522
 9703W        W78097  23.195  23.661  12.026
 9704W        W78098  33.053  17.622   0.424
 9705W        W78099   8.411  21.517   3.221
 9706W        W78100  36.475  43.070   3.305
 9707W        W78101   6.790  28.242  13.844
 9708W        W78102  13.754   4.669  11.970
 9709W        W78103   3.364  18.296  12.503
 9710W        W78104  30.184  28.448  14.485
 9711W        W78105  39.326  17.358   1.324
 9712W        W78106   1.375   2.277  13.889
 9713W        W78107  37.312  33.962  11.188
 9714W        W78108  31.391  25.172  13.988
 9715W        W78109  19.618  21.213   2.303
 9716W        W78110  16.665   9.388   0.253
 9717W        W78111  19.625  19.532   3.425
 9718W        W78112  32.844  23.630  10.563
 9719W        W78113  39.858  11.185   1.098
 9720W        W78114  26.993  25.698  12.377
 9721W        W78115  35.695  17.747  13.807
 9722W        W78116  36.577  23.490  10.725
 9723W        W78117  37.548  40.641   1.684
 9724W        W78118   3.748   1.797   1.351
 9725W        W78119  30.592  39.527   2.597
 9726W        W78120   6.345  31.050  14.386
 9727W        W78121  15.754   6.916   3.688
 9728W        W78122   3.224  44.718   3.356
 9729W        W78123  36.091   0.955   1.456
 9730W        W78124  33.881   0.349  13.371
 9731W        W78125  13.896  18.042   4.526
 9732W        W78126  26.094  19.313   2.825
 9733W        W78127  42.600  44.841   2.459
 9734W        W78128  21.460  29.353   2.069
 9735W        W78129  35.676   1.968  10.519
 9736W        W78130  26.901  44.934  14.170
 9737W        W78131  18.560  11.690  13.423
 9738W        W78132  29.152  22.701  14.345
 9739W        W78133  32.947   0.012   0.916
 9740W        W78134  42.882   8.342  14.567
 9741W        W78135  19.197  41.776   4.546
 9742W        W78136  18.992  34.085  12.983
 9743W        W78137  38.291  23.279   0.508
 9744W        W78138  44.428  14.790   2.010
 9745W        W78139   0.552  32.028  10.485
 9746W        W78140  32.970  12.309  11.431
 9747W        W78141  34.441  34.347   0.395
 9748W        W78142  10.090  12.157  12.490
 9749W        W78143  24.820  25.299  12.014
 9750W        W78144  26.025   2.602   1.262
 9751W        W78145  26.012  23.001  12.678
 9752W        W78146  40.962  26.606   4.440
 9753W        W78147  19.802  30.413   2.773
 9754W        W78148   9.632  33.176   2.724
 9755W        W78149  16.901  42.873  13.410
 9756W        W78150  27.000  24.065  10.670
 9757W        W78151  37.969  22.446  14.415
 9758W        W78152  26.617  11.433   4.679
 9759W        W78153  14.269  35.305   5.251
 9760W        W78154  23.517  22.775  13.380
 9761W        W78155  35.917  44.669  11.954
 9762W        W78156  12.220   6.247   0.523
 9763W        W78157  28.292  13.161  14.426
 9764W        W78158   7.699  44.438  11.756
 9765W        W78159   7.041  17.732  14.765
 9766W        W78160  23.741  27.770   3.600
 9767W        W78161   3.896  32.897  13.494
 9768W        W78162   1.304  26.012  11.909
 9769W        W78163  44.406  34.449   1.364
 9770W        W78164  24.703  36.925   4.347
 9771W        W78165   1.459   1.369  11.587
 9772W        W78166   4.282  41.781   0.202
 9773W        W78167  12.328  30.030   5.139
 9774W        W78168  30.029  33.335   2.079
 9775W        W78169  21.721  36.026  14.198
 9776W        W78170  14.873  11.777  12.413
 9777W        W78171  16.109  38.479   4.129
 9778W        W78172  30.486  44.307   3.868
 9779W        W78173  18.141  33.675   0.774
 9780W        W78174  26.868  13.887  10.650
 9781W        W78175  37.989  35.015  10.679
 9782W        W78176  27.572  33.587   1.948
 9783W        W78177  29.143  21.661   4.356
 9784W        W78178  10.080  41.463   0.214
 9785W        W78179  28.619  43.117   2.198
 9786W        W78180  34.083   9.297  13.817
 9787W        W78181  41.866  35.623  14.636
 9788W        W78182  41.029   7.750  12.241
 9789W        W78183   9.632  27.835   0.847
 9790W        W78184  11.645  28.082  11.934
 9791W        W78185  40.166  42.831   4.886
 9792W        W78186  21.740   8.302   1.636
 9793W        W78187  22.054  15.071   3.963
 9794W        W78188  21.067  16.689   3.884
 9795W        W78189   8.442  21.679   0.784
 9796W        W78190  33.951  40.400  12.582
 9797W        W78191  12.349  39.886  13.932
 9798W        W78192   1.168  25.016   9.828
 9799W        W78193  19.576  14.059   0.427
 9800W        W78194   6.508  11.254   3.315
 9801W        W78195  39.448  29.219  12.553
 9802W        W78196   5.408  34.969  13.072
 9803W        W78197  36.493  19.783   4.069
 9804W        W78198  44.011  44.344  10.615
 9805W        W78199   6.404  23.485  11.270
 9806W        W78200  42.777  28.006  13.369
 9807W        W78201  32.819   7.326  13.757
 9808W        W78202  15.149  14.318   4.675
 9809W        W78203  11.190  20.548  11.383
 9810W        W78204  27.537  12.344   1.657
 9811W        W78205   3.137  25.348  11.211
 9812W        W78206   0.845  42.740   1.643
 9813W        W78207  29.406  44.325  12.318
 9814W        W78208  19.995   0.267  11.008
 9815W        W78209  37.433   8.709   0.532
 9816W        W78210  20.972  20.329   2.905
 9817W        W78211  19.586  42.503  12.459
 9818W        W78212  21.839   4.669  12.916
 9819W        W78213  25.358  36.459  12.018
 9820W        W78214   9.948   8.176  11.081
 9821W        W78215  30.961  30.137   2.835
 9822W        W78216   4.953  36.073  12.488
 9823W        W78217  40.576   0.991  14.316
 9824W        W78218  26.985  43.626  11.429
 9825W        W78219  37.642  23.531  10.630
 9826W        W78220  41.808   9.448  14.484
 9827W        W78221  34.441  36.066  13.927
 9828W        W78222  41.945  40.735   2.433
 9829W        W78223   2.975   3.874   0.168
 9830W        W78224   9.218   8.618   4.162
 9831W        W78225  25.215  24.133  13.103
 9832W        W78226  20.092  43.238  11.553
 9833W        W78227  29.053   1.916   1.276
 9834W        W78228  35.073  20.306   4.039
 9835W        W78229   7.956  42.168   1.836
 9836W        W78230  34.009  18.015  13.431
 9837W        W78231  36.621  10.859   0.795
 9838W        W78232  23.233  33.717   0.997
 9839W        W78233  36.612  14.159  12.407
 9840W        W78234  37.625  13.126   4.676
 9841W        W78235   4.337  11.226   4.982
 9842W        W78236  39.116  26.345   2.690
 9843W        W78237  12.714   6.836   1.660
 9844W        W78238  20.326  26.219   0.388
 9845W        W78239  32.457   2.189   1.869
 9846W        W78240   9.942   0.417   4.631
 9847W        W78241  23.134  21.735  13.481
 9848W        W78242  26.476   5.819   4.628
 9849W        W78243  26.136  26.586   4.890
 9850W        W78244  42.812  35.820  14.989
 9851W        W78245  31.904   4.457   0.418
 9852W        W78246   1.692   5.939   4.144
 9853W        W78247   0.473  42.177  13.401
 9854W        W78248  23.680  37.918  14.009
 9855W        W78249   8.361   8.919   0.558
 9856W        W78250  10.665   5.444   3.417
 9857W        W78251  38.831  26.630   2.203
 9858W        W78252  34.438   9.735   3.644
 9859W        W78253  28.510   5.104  10.620
 9860W        W78254   5.876  15.608  12.984
 9861W        W78255  10.223   8.590  10.661
 9862W        W78256   8.851   2.568  11.092
 9863W        W78257  22.203   9.726   0.708
 9864W        W78258   6.388  13.729   3.677
 9865W        W78259  10.155  28.058   2.267
 9866W        W78260   8.176  39.532  12.169
 9867W        W78261  24.042  34.623  10.527
 9868W        W78262  27.244   0.390   1.855
 9869W        W78263  11.852  39.481   1.522
 9870W        W78264   8.239  16.010  14.881
 9871W        W78265   5.271  37.767  12.075
 9872W        W78266  30.701   5.406  12.180
 9873W        W78267  41.728  17.780  11.460
 9874W        W78268  35.787  14.055  13.892
 9875W        W78269  26.206  23.945  12.976
 9876W        W78270  35.277  35.034   2.583
 9877W        W78271  25.729  15.638  14.341
 9878W        W78272  44.543  40.981   4.086
 9879W        W78273  15.681   8.288   9.925
 9880W        W78274  14.788  18.161   5.214
 9881W        W78275  19.789  21.568  12.683
 9882W        W78276  11.172  44.359   2.266
 9883W        W78277  40.478  42.752  14.273
 9884W        W78278  11.184  21.808   1.461
 9885W        W78279  15.265  21.473  11.085
 9886W        W78280   0.832   1.092   4.784
 9887W        W78281   4.512  20.631  12.126
 9888W        W78282  12.902   9.359  14.423
 9889W        W78283  39.324   7.753   0.503
 9890W        W78284   4.242  38.623   1.273
 9891W        W78285  17.479  20.518   3.790
 9892W        W78286  11.727  17.626  13.652
 9893W        W78287  31.396  35.850  10.936
 9894W        W78288   4.203  11.124  14.931
 9895W        W78289  12.683  17.972   2.216
 9896W        W78290  35.151  38.010  14.255
 9897W        W78291  42.427  22.910  10.600
 9898W        W78292  42.369  18.684  14.855
 9899W        W78293  31.821  31.400  14.558
 9900W        W78294   2.421  33.866   4.068
 9901W        W78295  35.054  14.282   3.253
 9902W        W78296  12.895   4.306  12.468
 9903W        W78297  11.704  16.362  14.440
 9904W        W78298  26.710  36.394  14.834
 9905W        W78299  42.848  39.283  13.768
 9906W        W78300   0.236  44.607  12.900
 9907W        W78301   9.097  16.496  13.371
 9908W        W78302  16.207  22.021   2.982
 9909W        W78303  27.415   7.666   1.129
 9910W        W78304  29.729  14.280  10.797
 9911W        W78305  15.821  42.194   3.240
 9912W        W78306  19.011  20.251   1.291
 9913W        W78307  13.414  29.697   2.859
 9914W        W78308   1.691  21.337   3.130
 9915W        W78309  29.702  19.312   1.335
 9916W        W78310   0.475  15.344   3.703
 9917W        W78311   4.347   2.941  10.633
 9918W        W78312  13.773  36.110  10.673
 9919W        W78313  39.855  20.262   3.206
 9920W        W78314  25.181  25.498   1.876
 9921W        W78315  14.503   3.955  14.712
 9922W        W78316   5.323  19.327   0.235
 9923W        W78317  30.103  10.155  14.773
 9924W        W78318  39.623  10.165   4.723
 9925W        W78319  37.498  24.839  11.099
 9926W        W78320   0.550  35.680   2.612
 9927W        W78321   0.438  35.529   0.075
 9928W        W78322  34.955  31.943  13.090
 9929W        W78323   2.166   3.450   0.991
 9930W        W78324  12.355  31.057   0.516
 9931W        W78325  21.739  28.156  10.667
 9932W        W78326   5.226  39.509  10.492
 9933W        W78327  37.474  26.943   2.191
 9934W        W78328  14.000   1.096   0.681
 9935W        W78329  37.771  42.703  10.990
 9936W        W78330  41.806   5.282  12.083
 9937W        W78331  24.800  14.677  13.885
 9938W        W78332   5.835  20.626   1.416
 9939W        W78333  33.924  12.470  13.882
 9940W        W78334   2.268  12.560   1.701
 9941W        W78335   6.269  24.547   2.568
 9942W        W78336  36.591  27.665   2.882
 9943W        W78337   6.443  29.309  14.512
 9944W        W78338  17.726  10.912   4.648
 9945W        W78339  32.825  31.413   3.292
 9946W        W78340  25.323  18.760  12.525
 9947W        W78341  18.113  11.201   1.914
 9948W        W78342  28.183  24.144   4.119
 9949W        W78343   2.940  16.334  11.100
 9950W        W78344   0.493  43.363   2.743
 9951W        W78345  41.873  32.742   3.687
 9952W        W78346  18.544  20.917  12.280
 9953W        W78347  10.925  30.237   1.213
 9954W        W78348  19.681  27.588   1.971
 9955W        W78349  17.276  43.427  10.939
 9956W        W78350   1.944  23.753  12.080
 9957W        W78351  28.458  27.910   2.417
 9958W        W78352  27.038  43.997  13.275
 9959W        W78353  35.955   7.819   3.153
 9960W        W78354  20.166   5.488   1.300
 9961W        W78355  35.138  38.149  13.454
 9962W        W78356  35.320  16.359   3.756
 9963W        W78357   4.981  20.676  11.250
 9964W        W78358   5.728   5.486   3.619
 9965W        W78359  31.509  24.677   4.786
 9966W        W78360  26.903  11.131  14.782
 9967W        W78361   6.984  14.259  14.793
 9968W        W78362  38.756  41.090   4.958
 9969W        W78363  27.696   1.935   3.702
 9970W        W78364  10.909  25.611  11.562
 9971W        W78365   0.303  40.823   1.321
 9972W        W78366  20.596  20.739  13.394
 9973W        W78367  28.425  14.580  12.526
 9974W        W78368  14.648  44.785  10.762
 9975W        W78369  43.191   4.673   1.693
 9976W        W78370  13.518  10.052   2.657
 9977W        W78371  21.579   9.932   3.863
 9978W        W78372  40.665  29.008  13.968
 9979W        W78373   5.541  44.292   3.043
 9980W        W78374  29.603   5.149  12.573
 9981W        W78375  10.207  21.582   0.387
 9982W        W78376  18.555   3.765   2.381
 9983W        W78377  26.015  31.105  11.536
 9984W        W78378  16.774  16.114  13.393
 9985W        W78379  29.697  28.575   2.600
 9986W        W78380  38.801  16.185   4.520
 9987W        W78381  31.448  32.861   3.623
 9988W        W78382  14.757   0.449  14.624
 9989W        W78383   4.378  13.250   0.810
 9990W        W78384  23.674   7.485  14.362
 9991W        W78385   1.985   6.780  10.789
 9992W        W78386   6.419  40.775  11.445
 9993W        W78387  17.047  42.880   3.154
 9994W        W78388  30.262  37.403  13.767
 9995W        W78389  31.898  36.705  14.377
 9996W        W78390  16.611  21.732  11.091
 9997W        W78391   6.263   2.199   2.365
 9998W        W78392  14.053  16.636  10.942
 9999W        W78393  29.961   1.352   1.942
10000W        W78394   8.451   8.129   3.166
10001W        W78395  35.354  33.736  12.027
10002W        W78396  36.194  12.248  13.383
10003W        W78397  33.861   8.899  12.031
10004W        W78398   5.268   8.149   3.793
10005W        W78399   1.947  31.080  14.818
10006W        W78400  19.752  23.501   4.559
10007W        W78401  22.255   3.602  14.229
10008W        W78402  34.546   9.609  12.529
10009W        W78403  20.693  42.779   3.243
10010W        W78404   8.810   4.521   9.746
10011W        W78405  38.765  17.473   4.203
10012W        W78406   1.568  17.272   1.866
10013W        W78407  29.894   4.735   2.792
10014W        W78408  36.607  35.991  14.638
10015W        W78409  14.224  20.346   1.457
10016W        W78410  17.307  30.478  11.735
10017W        W78411  36.924   9.340   2.437
10018W        W78412   6.794  43.346   2.432
10019W        W78413  43.180   9.934   5.296
10020W        W78414  29.021   8.837  12.003
10021W        W78415   1.246  13.679  13.150
10022W        W78416  38.430  36.542   4.030
10023W        W78417  41.939  33.603  10.705
10024W        W78418  12.613   1.309  13.015
10025W        W78419  14.719  35.531  10.632
10026W        W78420  31.187   3.434   3.210
10027W        W78421  44.932  44.241   4.973
10028W        W78422  40.052  44.012   4.220
10029W        W78423  25.097  17.797  13.224
10030W        W78424   9.227   5.046  12.361
10031W        W78425  37.518  13.885  14.861
10032W        W78426   1.294  31.185  11.408
10033W        W78427  39.696  12.236   3.335
10034W        W78428  17.775  40.976   1.132
10035W        W78429  32.418  16.648  13.956
10036W        W78430  39.108  10.659  11.523
10037W        W78431   8.828  17.559  14.615
10038W        W78432   8.406  22.922   4.739
10039W        W78433   9.894  23.204  11.076
10040W        W78434  34.595   0.450   0.705
10041W        W78435  35.618  44.356  12.955
10042W        W78436  34.359  34.556  12.847
10043W        W78437  34.361  27.303   0.790
10044W        W78438   8.705  32.480  10.787
10045W        W78439  39.469  12.193  10.825
10046W        W78440  33.659   8.882   1.318
10047W        W78441  24.844  40.945   2.858
10048W        W78442  43.215  28.132  13.597
10049W        W78443  36.631  17.572   0.829
10050W        W78444  30.604  26.123   3.137
10051W        W78445  17.242  41.456   3.966
10052W        W78446   3.825  25.066  10.482
10053W        W78447  33.768  22.374   0.221
10054W        W78448  26.471  42.342   0.464
10055W        W78449   5.004  18.094  11.692
10056W        W78450   9.014  17.350  11.611
10057W        W78451  36.488  17.013  13.461
10058W        W78452  11.213  31.866   1.405
10059W        W78453   3.301  10.480   3.824
10060W        W78454  27.949  29.956  13.804
10061W        W78455  20.207  36.508  13.287
10062W        W78456  22.230  13.093  11.349
10063W        W78457  40.801  18.823  12.817
10064W        W78458  12.588  41.438   0.384
10065W        W78459   2.791  31.098  11.190
10066W        W78460  17.134  11.402   0.314
10067W        W78461  32.814  38.772  11.672
10068W        W78462  16.071  36.882  12.404
10069W        W78463   4.218  24.220  11.274
10070W        W78464  21.208  28.558   1.703
10071W        W78465   8.794  24.082  10.348
10072W        W78466   8.886  11.785   4.628
10073W        W78467  41.025  19.607  12.125
10074W        W78468  21.921   1.417  11.501
10075W        W78469  13.821  24.711  11.727
10076W        W78470  31.053  29.430  11.522
10077W        W78471  39.028  17.955   5.053
10078W        W78472  29.127  35.562   3.176
10079W        W78473  28.136  27.526   4.663
10080W        W78474  10.430  38.847   5.017
10081W        W78475  14.098  30.026   3.301
10082W        W78476  38.855   4.213  14.775
10083W        W78477   0.837  40.557  10.985
10084W        W78478  41.083   4.263  13.622
10085W        W78479  12.301   9.620  11.859
10086W        W78480   6.735  14.017  12.099
10087W        W78481  16.151   2.191   0.028
10088W        W78482   1.316  38.852   4.657
10089W        W78483  29.746   4.322  13.422
10090W        W78484  38.408   2.837  14.520
10091W        W78485  13.652   2.514  13.689
10092W        W78486  16.892  32.641  12.957
10093W        W78487  12.865   1.492  13.456
10094W        W78488  25.596  34.063  11.623
10095W        W78489  41.522  33.521  12.998
10096W        W78490   1.874  35.353  12.556
10097W        W78491  13.213  35.596   1.800
10098W        W78492   8.116  22.776  12.868
10099W        W78493  38.794  24.985  11.618
10100W        W78494  10.265  29.090   1.808
10101W        W78495   6.453   8.220  14.555
10102W        W78496   8.127  30.345  13.602
10103W        W78497  15.262  19.139   4.869
10104W        W78498   9.558   6.524   2.243
10105W        W78499  31.996  13.412   0.266
10106W        W78500   3.774  40.057   4.753
10107W        W78501  10.653  14.123   2.897
10108W        W78502  21.061  10.758  13.374
10109W        W78503  29.283  41.288  11.051
10110W        W78504  32.501   2.721   1.990
10111W        W78505  25.413   0.469  11.609
10112W        W78506  42.749  18.751  10.640
10113W        W78507  29.023  19.879   2.329
10114W        W78508  12.908  14.289  10.675
10115W        W78509   5.129  33.646  11.648
10116W        W78510  43.233  20.183   3.696
10117W        W78511  21.656  40.103   3.354
10118W        W78512  28.770  42.903  10.217
10119W        W78513  28.152  10.920  14.407
10120W        W78514  36.293  42.278  13.113
10121W        W78515  28.286   1.870   2.693
10122W        W78516   5.467  25.086   1.740
10123W        W78517  33.395  17.393  11.707
10124W        W78518   3.281  27.035   4.428
10125W        W78519  12.826  14.749  11.533
10126W        W78520   4.629  44.409   0.373
10127W        W78521   1.465  31.859   0.847
10128W        W78522   1.281  30.477   2.824
10129W        W78523  23.392  36.197  12.999
10130W        W78524   9.381  33.341   0.927
10131W        W78525  15.094  12.132  14.514
10132W        W78526  19.062  15.978  12.313
10133W        W78527   5.310  34.040   2.602
10134W        W78528  15.775  40.659   1.874
10135W        W78529  11.461   7.212  14.949
10136W        W78530  36.039  43.228   3.832
10137W        W78531  37.028  22.945  14.339
10138W        W78532  10.289  18.987   2.791
10139W        W78533   1.307  22.736  13.031
10140W        W78534   8.662  25.590  10.698
10141W        W78535  29.160   3.688  10.858
10142W        W78536  32.862  13.132  13.801
10143W        W78537   5.713  32.432  14.409
10144W        W78538  11.073  31.048  11.632
10145W        W78539  14.858  16.356  12.365
10146W        W78540  14.584  15.722  13.571
10147W        W78541  29.122  15.255   1.732
10148W        W78542  10.712  12.293   2.384
10149W        W78543  44.530  31.042   2.276
10150W        W78544  14.573  36.098   5.001
10151W        W78545  15.356  13.815  12.164
10152W        W78546  12.842  31.507  12.458
10153W        W78547  17.035   1.194   4.081
10154W        W78548  37.042   7.269  11.926
10155W        W78549  38.797  23.581   2.688
10156W        W78550  34.701   8.176  13.810
10157W        W78551   7.317  13.253   2.611
10158W        W78552  35.887  23.586  13.464
10159W        W78553  32.888  26.521   1.761
10160W        W78554   1.481  31.139  13.891
10161W        W78555   2.969  30.055  12.052
10162W        W78556  16.011  34.532  12.657
10163W        W78557  34.968  19.500  14.009
10164W        W78558  28.556   1.307  14.033
10165W        W78559  11.440  40.427   4.075
10166W        W78560  13.745  41.699   0.390
10167W        W78561  27.858  36.566   4.584
10168W        W78562   7.436  26.460  11.999
10169W        W78563  39.502  17.694   2.007
10170W        W78564  26.492   6.758  10.657
10171W        W78565  25.995  21.803   1.637
10172W        W78566   9.692  44.474  11.901
10173W        W78567  37.331  32.865   0.803
10174W        W78568  25.539  24.430  13.425
10175W        W78569   5.665  26.586  12.357
10176W        W78570  29.140  41.767   3.623
10177W        W78571   4.801  34.365   0.956
10178W        W78572  37.836  43.879  12.289
10179W        W78573   2.927   6.907   1.908
10180W        W78574  42.535  14.377   1.736
10181W        W78575   2.379  42.819  11.954
10182W        W78576  38.486  36.545  10.958
10183W        W78577  20.596   1.852   0.598
10184W        W78578  29.209  30.089   4.559
10185W        W78579  37.413  42.538  10.662
10186W        W78580  20.187  27.559  13.489
10187W        W78581  14.307  42.525  11.528
10188W        W78582  14.282   4.397  14.869
10189W        W78583  40.261  28.007   3.463
10190W        W78584  27.742   5.359   3.125
10191W        W78585  41.738  15.878   0.851
10192W        W78586   6.908  10.186   2.414
10193W        W78587   9.375  14.349  14.898
10194W        W78588  15.181   0.439   0.478
10195W        W78589  38.954  28.069  12.263
10196W        W78590  14.888  24.620   0.230
10197W        W78591  44.907  23.328  13.946
10198W        W78592  26.902   5.643  11.121
10199W        W78593  27.069   5.477   4.499
10200W        W78594  21.635  26.504   4.875
10201W        W78595  35.983  26.713   0.312
10202W        W78596  37.403  10.695  11.571
10203W        W78597  17.246  25.158   1.445
10204W        W78598  25.561  24.248   3.678
10205W        W78599  28.458  18.054   2.765
10206W        W78600  11.663  39.040  12.554
10207W        W78601  40.661   2.510   4.535
10208W        W78602  37.429  23.195   1.912
10209W        W78603  44.493  12.021   4.181
10210W        W78604  24.326  28.506   1.942
10211W        W78605  20.370  10.133   1.343
10212W        W78606  16.695   4.415  13.760
10213W        W78607  39.118   5.138   2.847
10214W        W78608   6.768  29.643  14.264
10215W        W78609  18.341  33.479   3.662
10216W        W78610  44.186  14.901   3.862
10217W        W78611  10.167  35.832   2.380
10218W        W78612  32.412  23.979   1.918
10219W        W78613  39.175  18.424   4.191
10220W        W78614   4.064  43.485  14.771
10221W        W78615  13.531  43.184  10.423
10222W        W78616  18.332   4.402  12.027
10223W        W78617  33.429  21.732   0.892
10224W        W78618  39.036   0.329  11.187
10225W        W78619  17.679  19.085  14.998
10226W        W78620   6.611  21.007   2.794
10227W        W78621  42.845   5.388  14.442
10228W        W78622   0.654  28.909   2.468
10229W        W78623  18.553   7.828  12.339
10230W        W78624  21.287  15.830   1.244
10231W        W78625  42.901  41.297   0.525
10232W        W78626  12.587  30.762   3.661
10233W        W78627  23.138   6.974  10.885
10234W        W78628   9.697  38.539  11.850
10235W        W78629  35.842  26.959  14.469
10236W        W78630  11.053   1.361   0.372
10237W        W78631  35.121  15.677  11.082
10238W        W78632  44.263   9.160  14.791
10239W        W78633  37.695  16.038   0.496
10240W        W78634  33.954   4.943  13.781
10241W        W78635  40.044   0.542   1.329
10242W        W78636  18.839  33.393   3.453
10243W        W78637  27.614  11.896  14.861
10244W        W78638   4.488  18.350   3.624
10245W        W78639  44.705  29.578   4.113
10246W        W78640  38.742  19.618  14.843
10247W        W78641  35.774  37.431  13.929
10248W        W78642  25.457   2.967   3.391
10249W        W78643   2.441  20.627   4.285
10250W        W78644  16.057  12.162  13.092
10251W        W78645   3.317  26.034  14.475
10252W        W78646  15.283   8.933   3.539
10253W        W78647  34.477  12.380   3.668
10254W        W78648  41.358  39.973  13.006
10255W        W78649  27.414  13.703   2.434
10256W        W78650  21.673  11.150  10.929
10257W        W78651  41.415   3.858  13.736
10258W        W78652   4.543  38.490   1.692
10259W        W78653  31.580  15.035   1.286
10260W        W78654  39.781  24.936   0.922
10261W        W78655  31.589  41.958   0.398
10262W        W78656  21.053   3.667   2.155
10263W        W78657  26.646  27.896  14.378
10264W        W78658   9.353  33.149  13.319
10265W        W78659  30.938  31.987  13.400
10266W        W78660  11.114  42.836  12.884
10267W        W78661  12.563  26.770   4.201
10268W        W78662  15.621  11.130   3.757
10269W        W78663   5.222   3.001   4.065
10270W        W78664  14.119  32.180  11.572
10271W        W78665  28.389  38.057  11.119
10272W        W78666   9.424   3.294  12.981
10273W        W78667   0.862  27.213   1.238
10274W        W78668  22.438  22.535   2.913
10275W        W78669  10.238  34.176  11.253
10276W        W78670  38.862  22.632   2.014
10277W        W78671  12.071  29.025   2.759
10278W        W78672  43.094   8.692   3.683
10279W        W78673   3.036   8.718  10.220
10280W        W78674  22.343  40.790  14.834
10281W        W78675   3.651  13.656   1.786
10282W        W78676   8.417  34.557   1.267
10283W        W78677   7.645  36.599   4.938
10284W        W78678  31.068   9.428  14.801
10285W        W78679  34.746  25.216   4.162
10286W        W78680   4.264  11.008   3.857
10287W        W78681  14.765   3.382  13.784
10288W        W78682   9.035  27.787   9.993
10289W        W78683  10.716  35.959  11.505
10290W        W78684  43.203  39.309   4.285
10291W        W78685  16.802  44.831  12.224
10292W        W78686  31.438   7.054  11.581
10293W        W78687   3.714  15.730  11.991
10294W        W78688  34.513  13.244   1.962
10295W        W78689  12.100   0.488   0.917
10296W        W78690  18.150   2.003   4.415
10297W        W78691  12.251   1.299   2.030
10298W        W78692  39.636  22.985   0.873
10299W        W78693  28.428  21.892   3.208
10300W        W78694  39.159   8.972   1.002
10301W        W78695  10.290  23.083  11.858
10302W        W78696  24.764  10.066  14.675
10303W        W78697   0.553  40.334   4.550
10304W        W78698   0.293  25.512  11.262
10305W        W78699   1.981  19.177  14.416
10306W        W78700  21.741  23.915   4.696
10307W        W78701  10.214  38.946  11.747
10308W        W78702  31.130   8.606   1.183
10309W        W78703  11.770  30.795   3.218
10310W        W78704  41.827  44.255  11.172
10311W        W78705   7.862   5.304  12.824
10312W        W78706  24.489   5.157   2.826
10313W        W78707  41.996   5.654   4.241
10314W        W78708   1.496  40.439  11.453
10315W        W78709  32.047  27.510  14.933
10316W        W78710   5.508  12.336  13.435
10317W        W78711  19.729  44.771   2.655
10318W        W78712  16.196  31.429  12.522
10319W        W78713   3.933  16.851   2.819
10320W        W78714   5.157  20.251  12.033
10321W        W78715  41.142  43.845   1.984
10322W        W78716  35.996  44.836  10.952
10323W        W78717   8.407  13.707   3.710
10324W        W78718  13.692  40.898  12.501
10325W        W78719  39.816  38.501   5.423
10326W        W78720  26.684   2.439   3.004
10327W        W78721  22.733  33.062   1.096
10328W        W78722  31.053  20.454   4.152
10329W        W78723  43.304  43.239   1.315
10330W        W78724  24.445  27.012  13.462
10331W        W78725  12.851   1.558   0.492
10332W        W78726  28.660  17.563   2.703
10333W        W78727  13.959  22.278  11.784
10334W        W78728  41.777   2.813   4.233
10335W        W78729  26.996   5.639   1.974
10336W        W78730  34.515   2.541   2.250
10337W        W78731  31.328   3.212   4.173
10338W        W78732   3.173   8.797   4.407
10339W        W78733  42.728   7.772   1.360
10340W        W78734  33.937  15.328  13.458
10341W        W78735   4.001  15.559   0.368
10342W        W78736  28.138  24.285   1.296
10343W        W78737  40.836   2.160   1.411
10344W        W78738   0.900   4.524   5.407
10345W        W78739   7.634  23.707   2.253
10346W        W78740  33.323  40.502  14.591
10347W        W78741   1.702  31.083   3.655
10348W        W78742  16.253  37.789   1.938
10349W        W78743  44.942  41.761   4.743
10350W        W78744  35.656   6.856   1.309
10351W        W78745   1.513  29.379   2.682
10352W        W78746  42.338  36.880   1.521
10353W        W78747   7.693  10.750  12.436
10354W        W78748  39.759  22.206  13.462
10355W        W78749  15.990  26.115  13.503
10356W        W78750  24.819  33.662   1.755
10357W        W78751  18.073  31.058  13.366
10358W        W78752  36.808  28.496   0.173
10359W        W78753  14.625  20.140   1.721
10360W        W78754  10.888  23.023   1.667
10361W        W78755  13.016   4.436  14.922
10362W        W78756  24.914  39.753  11.107
10363W        W78757   3.153  36.355  13.894
10364W        W78758  21.784  32.053  11.974
10365W        W78759  39.310  27.422   0.942
10366W        W78760  30.714   8.451  11.658
10367W        W78761   6.068   3.204   1.285
10368W        W78762  24.953  24.917  11.240
10369W        W78763  18.283  39.972   3.744
10370W        W78764  34.358   6.827  11.698
10371W        W78765  14.402  17.259   3.182
10372W        W78766  23.268  24.003   1.773
10373W        W78767  14.966  32.919  11.599
10374W        W78768  30.462  27.797   0.457
10375W        W78769   6.847  26.989  15.000
10376W        W78770   7.484   9.328   4.902
10377W        W78771   9.879  12.212   2.758
10378W        W78772  39.379  42.390   1.916
10379W        W78773  34.137  24.626  14.948
10380W        W78774   8.356  39.988  12.408
10381W        W78775  35.590   2.202  12.025
10382W        W78776  33.207  15.019  11.132
10383W        W78777  31.480  16.701  13.489
10384W        W78778  39.268  31.461   0.419
10385W        W78779  23.152  30.353  11.142
10386W        W78780   2.362  23.514  14.417
10387W        W78781   1.332  37.541   4.294
10388W        W78782  10.630  39.550   2.767
10389W        W78783   5.675  17.906  13.879
10390W        W78784  24.041  38.958  11.142
10391W        W78785  38.847  11.878   3.306
10392W        W78786   8.676  27.173  14.814
10393W        W78787  19.734  14.780   4.065
10394W        W78788  10.196  14.785   0.920
10395W        W78789  14.123  44.576  11.166
10396W        W78790  22.478   2.261  12.929
10397W        W78791   4.681  21.422  12.033
10398W        W78792   1.677  23.232  11.208
10399W        W78793  12.033   0.757  11.579
10400W        W78794  41.016  44.323   1.032
10401W        W78795  24.087  41.902  12.193
10402W        W78796  10.866   2.364  13.343
10403W        W78797  34.506  10.231  10.491
10404W        W78798  17.998   9.758   1.861
10405W        W78799  14.249  23.791   4.526
10406W        W78800   9.827   5.787  10.677
10407W        W78801  36.107   2.255   3.637
10408W        W78802  33.353  30.501   2.919
10409W        W78803  18.770  25.562   1.904
10410W        W78804  13.650  24.395  12.952
10411W        W78805  10.702  20.591  12.131
10412W        W78806  27.053  30.058   2.168
10413W        W78807   7.376  21.024  11.590
10414W        W78808  19.244  14.764   2.688
10415W        W78809  14.779  17.064  13.430
10416W        W78810   4.983  29.046  13.470
10417W        W78811  17.755  21.663   3.789
10418W        W78812  23.227   2.194   0.798
10419W        W78813   3.936   1.406   0.730
10420W        W78814  25.228   0.980  12.986
10421W        W78815  41.259  16.136  11.105
10422W        W78816  34.770   7.177   3.721
10423W        W78817  20.058  37.582   1.414
10424W        W78818  16.720  13.809  13.946
10425W        W78819  20.158   8.209   1.626
10426W        W78820  41.908  38.446  11.471
10427W        W78821  18.938  27.580  11.283
10428W        W78822   8.391   0.105  12.695
10429W        W78823  44.263   6.454   1.781
10430W        W78824  35.093  29.201   0.173
10431W        W78825  25.996  25.244  11.526
10432W        W78826  31.266  35.465  12.599
10433W        W78827  11.675  44.931   4.192
10434W        W78828  16.293   9.223   2.281
10435W        W78829  16.115  13.902  11.621
10436W        W78830   0.300   5.448   3.726
10437W        W78831   1.371  17.023  13.801
10438W        W78832  17.454  34.927   1.292
10439W        W78833  26.178  14.814  14.091
10440W        W78834  26.362  30.553   4.628
10441W        W78835  13.092  25.999   3.782
10442W        W78836  17.872  42.847  11.833
10443W        W78837  22.616  39.758   4.269
10444W        W78838  24.099  34.564   3.544
10445W        W78839  21.669  25.494  13.082
10446W        W78840  10.161  44.486   0.454
10447W        W78841   4.376  16.367   3.669
10448W        W78842  18.700  41.997  13.800
10449W        W78843  39.275  27.950  10.706
10450W        W78844  10.241   5.954   0.891
10451W        W78845  15.452   2.357  13.584
10452W        W78846   0.419  17.059  13.438
10453W        W78847  28.656  37.195  10.826
10454W        W78848  16.107   9.649   0.098
10455W        W78849  38.007  34.476  14.027
10456W        W78850  27.755  22.816   2.223
10457W        W78851  26.216  33.864  13.461
10458W        W78852  13.097   1.748  10.999
10459W        W78853  22.542  23.283  14.812
10460W        W78854   6.862  34.959   1.046
10461W        W78855  44.713   5.705  13.671
10462W        W78856   4.022  22.123  12.061
10463W        W78857  36.849  10.198   4.534
10464W        W78858  14.608  32.638   4.512
10465W        W78859  33.520   9.863   0.769
10466W        W78860  30.442  14.548  13.410
10467W        W78861  24.741  34.643   1.246
10468W        W78862  32.659  40.331   4.675
10469W        W78863  21.851  37.597   1.866
10470W        W78864   7.489  11.629  14.275
10471W        W78865  33.415  35.329   3.238
10472W        W78866  13.333   8.616   2.728
10473W        W78867  24.056  35.378  13.987
10474W        W78868  25.223  12.758   4.689
10475W        W78869  39.528  21.630   0.426
10476W        W78870  13.166  31.157   1.703
10477W        W78871   7.625  29.002   2.576
10478W        W78872  31.544  10.397  12.319
10479W        W78873   6.798  13.567  14.847
10480W        W78874   4.733  36.025   4.748
10481W        W78875  31.447  44.918  12.023
10482W        W78876  43.077   5.024   1.341
10483W        W78877  42.381  35.629   0.233
10484W        W78878  44.202   7.400   4.264
10485W        W78879  14.616  39.469   1.328
10486W        W78880  13.259  11.239   4.741
10487W        W78881  27.924  37.904  10.425
10488W        W78882  20.704  27.714   4.123
10489W        W78883  16.665  16.327   3.753
10490W        W78884   4.051  11.382   4.166
10491W        W78885  19.154   8.679   3.484
10492W        W78886  32.903  15.299   1.152
10493W        W78887  15.779  24.710   1.775
10494W        W78888  32.393   5.470   0.328
10495W        W78889  27.615  33.108   2.779
10496W        W78890   1.596  15.719   3.906
10497W        W78891  40.043  42.177   0.441
10498W        W78892  19.435  20.507   1.888
10499W        W78893  22.409   2.727  13.700
10500W        W78894  44.008   0.878   4.634
10501W        W78895  21.778  30.690  13.362
10502W        W78896   2.750   9.911   3.216
10503W        W78897  34.543  12.630   3.147
10504W        W78898  12.670   6.310  12.998
10505W        W78899  31.633  39.476   4.797
10506W        W78900  18.765  34.621   0.396
10507W        W78901   7.060  27.168   2.275
10508W        W78902  29.950   8.615   1.873
10509W        W78903  21.381  37.425   1.698
10510W        W78904  44.732  11.523   0.953
10511W        W78905  10.659   7.680  12.944
10512W        W78906  32.946   0.840  11.833
10513W        W78907   3.853  28.861  14.984
10514W        W78908   7.374  21.665  11.911
10515W        W78909   6.372  14.572  12.420
10516W        W78910  40.861  31.236  14.783
10517W        W78911   1.411  26.925  12.151
10518W        W78912  28.944  13.872  10.414
10519W        W78913  25.600  35.687   4.528
10520W        W78914  40.402  12.170  13.433
10521W        W78915  34.538  39.026   4.184
10522W        W78916  37.571   7.419  10.238
10523W        W78917  13.370  13.181   0.787
10524W        W78918   5.566  27.944  11.832
10525W        W78919  19.269  10.282   2.715
10526W        W78920  37.543  32.850  13.421
10527W        W78921  28.107  36.065  13.932
10528W        W78922  29.398  25.242  11.119
10529W        W78923  14.835  10.619  14.351
10530W        W78924   9.629  40.041   4.631
10531W        W78925  37.589   9.716   3.751
10532W        W78926  20.251  11.273   0.671
10533W        W78927   8.332   8.826   3.712
10534W        W78928   4.336  32.276   0.711
10535W        W78929  43.422   7.059   2.976
10536W        W78930   1.938  24.942   0.284
10537W        W78931   4.935  28.167   2.496
10538W        W78932   3.270  41.818  13.860
10539W        W78933   1.813  28.692  13.392
10540W        W78934  27.449  23.597   0.212
10541W        W78935  36.098   7.150  11.058
10542W        W78936  43.035   3.538   4.473
10543W        W78937  16.519  34.152  11.295
10544W        W78938  16.321  10.505  13.979
10545W        W78939  39.582  38.425   0.216
10546W        W78940  32.208  15.671   1.663
10547W        W78941  30.566  15.253   2.404
10548W        W78942  19.992   6.064   2.663
10549W        W78943  20.112   4.902   3.468
10550W        W78944   0.890  43.043  12.076
10551W        W78945  38.924  24.696  11.203
10552W        W78946  19.016  32.078   1.956
10553W        W78947   8.746  24.994  12.001
10554W        W78948  31.579  32.198   2.281
10555W        W78949  28.493  15.916   1.648
10556W        W78950  44.377  28.466  13.025
10557W        W78951  20.098   3.033   4.566
10558W        W78952  25.210   1.534   4.118
10559W        W78953  40.477  17.249   2.354
10560W        W78954  19.193  25.477   4.899
10561W        W78955  30.353   8.842   1.015
10562W        W78956  24.731  13.058  11.731
10563W        W78957  39.853  23.703   4.298
10564W        W78958   5.223  34.550   0.130
10565W        W78959  27.526  36.592   4.995
10566W        W78960  27.826  32.901  11.616
10567W        W78961  32.594  19.509   4.676
10568W        W78962  44.856  25.014   2.608
10569W        W78963  27.200  37.632   1.162
10570W        W78964  44.353  21.099   3.517
10571W        W78965   1.014  14.171  13.089
10572W        W78966   5.722  32.426  12.383
10573W        W78967  16.075  10.392   0.833
10574W        W78968  36.389   1.193  14.826
10575W        W78969  32.211  24.281   0.783
10576W        W78970  13.051  44.928  10.442
10577W        W78971  23.078   0.288   1.485
10578W        W78972   1.309  15.382  11.916
10579W        W78973  23.966  16.088   3.764
10580W        W78974   7.762  15.812  13.042
10581W        W78975  29.697  37.578   2.265
10582W        W78976   8.942  37.113   3.634
10583W        W78977  23.026  35.968  10.851
10584W        W78978  38.050   8.839   2.318
10585W        W78979  21.061  25.529  12.220
10586W        W78980   0.426  14.522   3.304
10587W        W78981  22.448  34.084   2.680
10588W        W78982   1.700   1.873   1.401
10589W        W78983  37.049  11.218  13.247
10590W        W78984  22.770  21.185   2.633
10591W        W78985   4.370   9.079  12.572
10592W        W78986  29.374  20.216  11.013
10593W        W78987  25.351  40.033   1.271
10594W        W78988  31.671  15.368  10.727
10595W        W78989   7.693  24.187  14.507
10596W        W78990   9.399  13.685   4.434
10597W        W78991  17.692  33.400  12.037
10598W        W78992  41.759  40.755  11.885
10599W        W78993   7.811  10.174   1.409
10600W        W78994  17.723  36.913  11.388
10601W        W78995  21.492  39.318  11.136
10602W        W78996  28.194   7.345   2.289
10603W        W78997  29.691  29.920   4.667
10604W        W78998   3.319   7.286   4.897
10605W        W78999   3.738  31.378   2.491
10606W        W79000  28.925  14.272  14.982
10607W        W79001  11.402  28.631   0.006
10608W        W79002  22.000  33.003  12.691
10609W        W79003  34.776  44.770  11.998
10610W        W79004  39.286  25.884  12.478
10611W        W79005  39.454  15.537   3.304
10612W        W79006  32.717  31.027  12.518
10613W        W79007  42.455  17.303  11.690
10614W        W79008  28.184   4.282   2.361
10615W        W79009  36.862  14.259   1.955
10616W        W79010   7.802  10.178  13.391
10617W        W79011   5.218  28.117   1.627
10618W        W79012  28.517  32.909  12.104
10619W        W79013  26.260   4.603   2.573
10620W        W79014  21.009  41.466   2.886
10621W        W79015  41.711   4.793  10.011
10622W        W79016  18.013  26.067   1.679
10623W        W79017  32.476  18.010   4.667
10624W        W79018   2.419   4.860   1.172
10625W        W79019  42.572  42.956  14.945
10626W        W79020  40.321  35.314  12.887
10627W        W79021  28.525  23.230  13.906
10628W        W79022  28.266  39.567  13.529
10629W        W79023  12.531  31.067   0.038
10630W        W79024  12.294  36.470  11.622
10631W        W79025   0.453  12.784   1.673
10632W        W79026  42.235  36.329  12.768
10633W        W79027  29.073   7.336   3.780
10634W        W79028   5.809  39.231   3.988
10635W        W79029  13.364  19.784  11.459
10636W        W79030  15.068  33.901   0.880
10637W        W79031   1.705  32.983   3.249
10638W        W79032  34.698  19.828  11.172
10639W        W79033  38.279  14.654   0.948
10640W        W79034  42.529   6.857   2.884
10641W        W79035   0.325  43.787   1.813
10642W        W79036  35.151  11.898   2.788
10643W        W79037  15.797  27.892   4.723
10644W        W79038  23.730  27.059  14.787
10645W        W79039  12.389  33.550   1.835
10646W        W79040  23.980  39.976  13.877
10647W        W79041   2.243  31.447   0.932
10648W        W79042  12.743  28.896   3.662
10649W        W79043  23.118  42.602  11.673
10650W        W79044   0.046  24.684  12.845
10651W        W79045  38.333   4.201  11.168
10652W        W79046  13.401  30.126   2.553
10653W        W79047  28.390  29.506  11.614
10654W        W79048  35.927  36.310  10.529
10655W        W79049  23.112   0.146  13.382
10656W        W79050  15.667  32.182  11.160
10657W        W79051   6.180  18.330  13.523
10658W        W79052  25.010  42.106  11.528
10659W        W79053  35.952  21.131   1.929
10660W        W79054   7.352   2.894   1.326
10661W        W79055   1.573  35.340   1.302
10662W        W79056  38.100  42.567  10.620
10663W        W79057   5.926  10.844  12.537
10664W        W79058  33.336  44.060   2.834
10665W        W79059  29.199   5.476   1.880
10666W        W79060   0.380  24.399  11.052
10667W        W79061  23.087  12.259   4.649
10668W        W79062  29.201  39.701   0.509
10669W        W79063  14.174  41.101   0.800
10670W        W79064   3.961   9.840  11.954
10671W        W79065   2.715   5.506  10.777
10672W        W79066   5.537  36.828  14.356
10673W        W79067  16.236  40.101   4.137
10674W        W79068  20.728  29.017  14.331
10675W        W79069  42.832  38.610   0.923
10676W        W79070  29.129   4.984  12.710
10677W        W79071   2.335   1.506   0.294
10678W        W79072  18.094  27.157  13.569
10679W        W79073  42.940  14.057  13.144
10680W        W79074  32.491   5.228  14.062
10681W        W79075   3.960  42.782   4.974
10682W        W79076  12.200  10.236  10.585
10683W        W79077  20.254  37.932   2.827
10684W        W79078  33.447  33.926   0.880
10685W        W79079  32.819  36.227  14.356
10686W        W79080  23.282  33.898  12.044
10687W        W79081  23.505  26.069  14.799
10688W        W79082   5.212  30.397   0.270
10689W        W79083  24.364   4.217   2.748
10690W        W79084  24.325  31.825  11.603
10691W        W79085   3.906  26.269   0.870
10692W        W79086  24.431  10.174   2.391
10693W        W79087  14.324  16.079  10.675
10694W        W79088   9.808  23.198  14.758
10695W        W79089  30.179  38.674  13.550
10696W        W79090  13.727   9.791   0.363
10697W        W79091  35.179  35.023  14.367
10698W        W79092   7.753  38.245   1.940
10699W        W79093  18.525   6.374   0.266
10700W        W79094  16.383   2.361  13.690
10701W        W79095  23.714  41.590   2.407
10702W        W79096  12.167  36.993   2.817
10703W        W79097   6.930  25.742   5.075
10704W        W79098  27.545  32.808   4.262
10705W        W79099  23.445  27.520   3.224
10706W        W79100  33.119  37.945   2.869
10707W        W79101   6.251  38.068   2.561
10708W        W79102  40.337  36.527   4.423
10709W        W79103   6.685  38.111  10.426
10710W        W79104  15.503   6.951  12.138
10711W        W79105  27.428  42.314  10.650
10712W        W79106  21.645   1.336  12.501
10713W        W79107  16.703   9.951   4.925
10714W        W79108  29.991  30.924  11.408
10715W        W79109  44.909  42.031  12.182
10716W        W79110  19.036  40.397   1.741
10717W        W79111   7.551   3.233   3.220
10718W        W79112   5.262   2.288   3.342
10719W        W79113  11.358   8.371   1.877
10720W        W79114  15.276   1.283   3.802
10721W        W79115  38.336  30.646   1.807
10722W        W79116  11.643  39.012  14.083
10723W        W79117  10.856   4.827   0.664
10724W        W79118  27.489  15.282   0.474
10725W        W79119  34.776  42.339   3.828
10726W        W79120  16.752  34.508  12.063
10727W        W79121  34.037  32.089  11.860
10728W        W79122  44.299  26.180  12.320
10729W        W79123  38.880  21.234  10.105
10730W        W79124  32.891  17.979   3.711
10731W        W79125  22.635  31.519   4.839
10732W        W79126  43.277  44.566  11.180
10733W        W79127  22.457  30.998   3.386
10734W        W79128   3.297  11.231  14.387
10735W        W79129  22.130  25.124  14.812
10736W        W79130   7.410  27.222  12.424
10737W        W79131  25.114  38.192  11.921
10738W        W79132  32.944  15.159  10.688
10739W        W79133  26.285  20.828   3.696
10740W        W79134  42.959   8.079   0.981
10741W        W79135  37.766  14.051  12.685
10742W        W79136   6.493   5.158  11.168
10743W        W79137  15.034  33.431   3.616
10744W        W79138  19.142  23.494   2.137
10745W        W79139   6.798  22.960   5.604
10746W        W79140  25.746  16.615   3.146
10747W        W79141  26.152  13.256   2.735
10748W        W79142  19.022  12.858  11.580
10749W        W79143  44.328  15.996  12.395
10750W        W79144  12.851  28.268  12.429
10751W        W79145  38.477   5.630  12.515
10752W        W79146   7.447  23.477   2.959
10753W        W79147  29.493  10.712  12.967
10754W        W79148  35.361   0.338   3.065
10755W        W79149  40.934  42.312  12.472
10756W        W79150  21.691  24.135  12.652
10757W        W79151  35.560  37.899   3.130
10758W        W79152  31.727  13.218  12.432
10759W        W79153  26.120  12.106   2.532
10760W        W79154  40.659  36.522   3.526
10761W        W79155   9.301  36.081   1.722
10762W        W79156  17.947  25.723  10.972
10763W        W79157  23.997  39.224  14.438
10764W        W79158  24.924   3.328  11.619
10765W        W79159  43.341  29.514   3.589
10766W        W79160  35.103  14.790   0.008
10767W        W79161   0.062  25.970  11.178
10768W        W79162  44.508   4.727  14.914
10769W        W79163  28.551  27.083  12.207
10770W        W79164  43.535  33.907   0.755
10771W        W79165  13.196  27.273   4.581
10772W        W79166  30.446   8.883   1.868
10773W        W79167   2.299  10.248  12.050
10774W        W79168  42.137  22.741  13.660
10775W        W79169   3.832  11.518   1.798
10776W        W79170  14.045  36.770  14.288
10777W        W79171  28.018  41.759  14.827
10778W        W79172   2.258  17.671   3.850
10779W        W79173   5.173   4.244   0.388
10780W        W79174  20.049  36.816  11.428
10781W        W79175  18.709  14.158  11.119
10782W        W79176  38.287  32.668  11.619
10783W        W79177  25.026  16.062   4.680
10784W        W79178   4.287   1.305  12.994
10785W        W79179  42.936   0.423  14.732
10786W        W79180   3.824  24.779  10.912
10787W        W79181  16.690  36.810  13.817
10788W        W79182  14.989  36.045  14.102
10789W        W79183  20.638   9.736   3.878
10790W        W79184  41.060   1.147  13.576
10791W        W79185   4.338  23.082   0.952
10792W        W79186  15.066  31.604   0.845
10793W        W79187  27.247   4.791   2.560
10794W        W79188   7.277  25.903  12.868
10795W        W79189   6.779  20.352   0.223
10796W        W79190  41.491  21.263   3.863
10797W        W79191  44.516  39.101  11.503
10798W        W79192  24.029  41.756  11.163
10799W        W79193   2.819  27.001   1.103
10800W        W79194  42.362  13.605  14.934
10801W        W79195  27.022  19.214   3.853
10802W        W79196   9.397  31.491   0.748
10803W        W79197  25.519  31.987  12.094
10804W        W79198   4.551  28.718  10.460
10805W        W79199   7.954   7.263   3.602
10806W        W79200   8.014  14.555   2.671
10807W        W79201   8.372  33.847  11.685
10808W        W79202   1.478  20.161  13.592
10809W        W79203  14.737  44.302  11.846
10810W        W79204  23.984  22.745   2.386
10811W        W79205  13.637  29.398  14.416
10812W        W79206  37.036   6.528  11.467
10813W        W79207  14.162  15.352   4.401
10814W        W79208  31.506  36.394   3.209
10815W        W79209   5.097  25.980   3.274
10816W        W79210  11.792  18.986  12.544
10817W        W79211  37.551  23.585  14.191
10818W        W79212  27.980  24.025   1.743
10819W        W79213  32.989  44.437  11.173
10820W        W79214   6.225  11.375   3.722
10821W        W79215  24.054  20.692  11.130
10822W        W79216   1.248  43.246  14.480
10823W        W79217  28.120   4.017   1.757
10824W        W79218  26.878  24.739  13.697
10825W        W79219  27.518   7.663   3.387
10826W        W79220  39.436  28.370  11.014
10827W        W79221  38.328  14.315  11.044
10828W        W79222  14.284  35.404   4.284
10829W        W79223   1.768  13.790   3.127
10830W        W79224  38.367  42.731  12.393
10831W        W79225  27.412  12.131   3.725
10832W        W79226   4.534  37.423   4.627
10833W        W79227   6.100   4.612   4.153
10834W        W79228   3.424  25.000   0.613
10835W        W79229  42.947   8.230   5.055
10836W        W79230  30.181  31.823   3.689
10837W        W79231  28.991   4.652   1.143
10838W        W79232  37.412   3.705  11.190
10839W        W79233   4.891  27.819   1.305
10840W        W79234  41.884  19.948   2.860
10841W        W79235  40.822  39.203   3.275
10842W        W79236  30.507  20.631  12.912
10843W        W79237  27.440  40.544   0.330
10844W        W79238  36.480  31.164  11.126
10845W        W79239  16.298  28.122   4.065
10846W        W79240  29.535  26.642  14.598
10847W        W79241  24.697  29.990   0.903
10848W        W79242  19.236   5.426  11.934
10849W        W79243  11.767  18.032   1.256
10850W        W79244  36.766  13.039  13.406
10851W        W79245  27.988  39.474   2.415
10852W        W79246  35.595  35.118  13.027
10853W        W79247   6.887  30.194   1.055
10854W        W79248  23.690  26.932   4.781
10855W        W79249  39.932  32.379  12.814
10856W        W79250   7.923  22.722  11.358
10857W        W79251  21.556  22.345   1.255
10858W        W79252  17.831  16.727   3.595
10859W        W79253  33.869  36.457  11.968
10860W        W79254  44.895  42.996   3.254
10861W        W79255  15.416   7.232   5.519
10862W        W79256  39.750   4.806   3.555
10863W        W79257  21.772  17.654  11.582
10864W        W79258  17.031   0.757   2.756
10865W        W79259   2.640   3.442  10.672
10866W        W79260  17.150  27.098  11.444
10867W        W79261   7.340  24.176   3.624
10868W        W79262  33.513  38.382  10.648
10869W        W79263   5.168  10.167   0.026
10870W        W79264  16.363   9.866  11.144
10871W        W79265  35.284   2.821   1.772
10872W        W79266  13.825  35.333   4.060
10873W        W79267  27.697  15.202  12.220
10874W        W79268   3.862  17.807  13.784
10875W        W79269  34.342  13.788   0.300
10876W        W79270  22.732  34.372   1.409
10877W        W79271  19.625  18.298  13.508
10878W        W79272  42.813  24.065   3.297
10879W        W79273   4.264  27.494   2.977
10880W        W79274  11.192  10.875  10.657
10881W        W79275  21.350  15.627  12.031
10882W        W79276  32.576  44.752   4.080
10883W        W79277  36.320  32.350   2.246
10884W        W79278   3.734  24.210   3.146
10885W        W79279  14.946  40.917  14.472
10886W        W79280   0.669  36.970   2.713
10887W        W79281  15.116   0.204   2.824
10888W        W79282   5.015  38.529   1.950
10889W        W79283  25.614   5.108   9.855
10890W        W79284  13.507  37.708   2.256
10891W        W79285  13.260  26.035   2.477
10892W        W79286  39.736  18.286   0.295
10893W        W79287  41.537   2.254  12.990
10894W        W79288   4.304  38.378  13.452
10895W        W79289  32.646  12.098  14.438
10896W        W79290  33.924  23.297  14.040
10897W        W79291  41.955  44.900  13.623
10898W        W79292   5.919   8.191  12.836
10899W        W79293  15.203   7.136   4.129
10900W        W79294  41.292  34.021   0.766
10901W        W79295  37.497  18.429   4.519
10902W        W79296  23.443  33.071  10.754
10903W        W79297  27.617   2.730  13.758
10904W        W79298  43.731  20.710   0.096
10905W        W79299  18.735  20.226  10.624
10906W        W79300  40.775  25.812  12.109
10907W        W79301   6.188  43.356   3.615
10908W        W79302  42.182  40.944   0.007
10909W        W79303  23.696  12.439  12.611
10910W        W79304  33.465  25.750   0.511
10911W        W79305  44.002   4.905  11.362
10912W        W79306  29.649  21.529  11.645
10913W        W79307   7.650  30.058  14.145
10914W        W79308  39.475  44.789   4.002
10915W        W79309  23.043  14.845  10.643
10916W        W79310  37.879  36.197   1.423
10917W        W79311   5.729  12.865  14.377
10918W        W79312  11.178  33.390  12.918
10919W        W79313  43.705   0.351   2.473
10920W        W79314  28.526  40.488   1.526
10921W        W79315  12.994  41.581  13.351
10922W        W79316  33.006  31.053   0.786
10923W        W79317  38.884  24.229  10.718
10924W        W79318  31.549  26.765  13.109
10925W        W79319  22.662  30.990   9.999
10926W        W79320  33.127  26.065   1.912
10927W        W79321  23.085   9.913  14.287
10928W        W79322  35.179  21.258  14.875
10929W        W79323  11.342  38.423   0.261
10930W        W79324   5.257  24.631  12.071
10931W        W79325  41.152  28.808   3.020
10932W        W79326  17.049  21.465  11.141
10933W        W79327  14.472  42.295  11.953
10934W        W79328  44.959  42.624  11.753
10935W        W79329  26.814   9.363   1.672
10936W        W79330  40.912   6.326   4.801
10937W        W79331  28.008  21.121  10.608
10938W        W79332  34.967  40.717   1.028
10939W        W79333   3.264   9.412   0.752
10940W        W79334  44.880  16.353  13.229
10941W        W79335  42.321  20.496  11.564
10942W        W79336  36.587  26.943  10.695
10943W        W79337   1.910  21.369  12.990
10944W        W79338  28.045  27.123  11.443
10945W        W79339  29.976  42.358   4.499
10946W        W79340   3.630  18.795   4.630
10947W        W79341  26.586  12.050   2.757
10948W        W79342   8.285  16.557  14.807
10949W        W79343   8.485   6.328  12.397
10950W        W79344   7.323  33.947  10.797
10951W        W79345  23.431  42.879   1.160
10952W        W79346   2.350  14.811   0.902
10953W        W79347  25.136  33.809  11.592
10954W        W79348  14.334  10.197   2.201
10955W        W79349  15.253   2.934  13.551
10956W        W79350  25.758   0.761  10.848
10957W        W79351  38.981  10.111  13.330
10958W        W79352  40.904  44.043  11.240
10959W        W79353  24.962  26.809  12.533
10960W        W79354  29.658   1.393  13.169
10961W        W79355  41.908  24.214  14.334
10962W        W79356  17.717  41.850   0.188
10963W        W79357  10.158  34.024   1.294
10964W        W79358  24.244   8.894   5.554
10965W        W79359  15.798  34.624   4.712
10966W        W79360  22.428  34.468   0.413
10967W        W79361  31.309  15.265   3.105
10968W        W79362   0.038   6.366   3.591
10969W        W79363   9.140   9.516  11.641
10970W        W79364  29.690  29.978  10.708
10971W        W79365  23.947  11.376  13.061
10972W        W79366  37.980   6.297   1.328
10973W        W79367   8.648  29.523  13.011
10974W        W79368  10.765   1.993  12.969
10975W        W79369  39.274  21.025   1.215
10976W        W79370  18.720  33.795   1.844
10977W        W79371   1.194  21.811  14.325
10978W        W79372  44.709  37.397  12.638
10979W        W79373  38.490  18.175  13.311
10980W        W79374  18.397  15.312  13.423
10981W        W79375  24.827  35.909  11.625
10982W        W79376  44.000  19.082   2.579
10983W        W79377   4.911   2.768  12.945
10984W        W79378   1.261  44.799   2.111
10985W        W79379   4.141  35.806  10.916
10986W        W79380   9.482  28.630   0.468
10987W        W79381   2.033  32.649  13.580
10988W        W79382  11.130  22.595   1.793
10989W        W79383  39.448  14.078  13.099
10990W        W79384  28.673  39.121   2.759
10991W        W79385  27.175  31.279  11.649
10992W        W79386  24.715   1.237   3.151
10993W        W79387   5.836  19.514  12.112
10994W        W79388  34.099  26.578  14.022
10995W        W79389  40.470  29.655   0.409
10996W        W79390  12.515  13.020   3.340
10997W        W79391  11.712  13.608  11.207
10998W        W79392   2.879   9.299   4.416
10999W        W79393  20.125   8.583   2.405
11000W        W79394  18.219  32.329   0.918
11001W        W79395  14.553  36.864  14.305
11002W        W79396  18.317  32.644  12.854
11003W        W79397   3.393  22.154  11.176
11004W        W79398  16.916  27.490  13.011
11005W        W79399  34.617  15.155  14.290
11006W        W79400  25.010  39.410  13.153
11007W        W79401   1.535  23.534  14.797
11008W        W79402  41.203  42.617   3.804
11009W        W79403  37.818  12.113   1.751
11010W        W79404  17.026  23.658  11.540
11011W        W79405   7.420  43.810  14.869
11012W        W79406  32.843   2.852   1.094
11013W        W79407  23.935  31.968  12.540
11014W        W79408  35.007  11.079  11.943
11015W        W79409  23.339  20.288   3.090
11016W        W79410  36.392  11.340   4.541
11017W        W79411  43.336  36.467   0.664
11018W        W79412  38.641  27.262  11.621
11019W        W79413   8.449  39.494   0.022
11020W        W79414  39.285  41.950   3.745
11021W        W79415  44.578  40.760  14.531
11022W        W79416  11.521  15.574  10.185
11023W        W79417  37.544  37.409  12.517
11024W        W79418  38.904  12.601  12.109
11025W        W79419  39.738  37.028   1.921
11026W        W79420  11.467   5.869   3.106
11027W        W79421  27.642  15.643  12.473
11028W        W79422  29.537  12.208   4.710
11029W        W79423   6.570  14.550   4.109
11030W        W79424  10.313  43.634   2.463
11031W        W79425  30.964  21.034   3.191
11032W        W79426  25.757  28.102   4.233
11033W        W79427  25.928  33.502  10.642
11034W        W79428  39.542  40.009  11.535
11035W        W79429  32.926   7.336  11.915
11036W        W79430  20.438   1.980  14.354
11037W        W79431  32.907  29.993  10.683
11038W        W79432  26.668  37.864  13.378
11039W        W79433   6.704  14.806  12.737
11040W        W79434   7.192  21.007   3.759
11041W        W79435  29.942  17.422   4.572
11042W        W79436   8.665  21.733  13.338
11043W        W79437  17.361   8.279  12.094
11044W        W79438  19.030   5.194   4.909
11045W        W79439   2.939  23.655   3.523
11046W        W79440  16.854  26.474  13.945
11047W        W79441  28.257  15.626   0.307
11048W        W79442  29.593  17.931   2.317
11049W        W79443   0.950  37.670   2.266
11050W        W79444  24.536  33.077   2.877
11051W        W79445  25.132  31.185  11.664
11052W        W79446  31.022  31.370   0.893
11053W        W79447   4.280  14.375  12.045
11054W        W79448  27.590  41.422   3.852
11055W        W79449  43.412   6.959  13.951
11056W        W79450  22.834   1.712  10.262
11057W        W79451   5.768  33.684  12.926
11058W        W79452  23.134  31.949   4.241
11059W        W79453  23.145  26.449   3.719
11060W        W79454  36.521  18.610  10.347
11061W        W79455  28.679  32.081  12.007
11062W        W79456  43.361   5.139  10.952
11063W        W79457   8.131  43.327  10.650
11064W        W79458  30.589  30.567  11.984
11065W        W79459  44.243   0.636  10.636
11066W        W79460  33.862  42.426  13.455
11067W        W79461  31.591   5.467   4.111
11068W        W79462  33.454  30.150  12.753
11069W        W79463  42.790  21.722  11.648
11070W        W79464  22.054  39.053  11.976
11071W        W79465  17.528  44.223   2.451
11072W        W79466  24.533   8.726   4.287
11073W        W79467  24.589  10.881  11.020
11074W        W79468   0.903  17.211  13.983
11075W        W79469  33.393  21.259  11.607
11076W        W79470  38.798  15.547   2.533
11077W        W79471  27.181  27.531   1.929
11078W        W79472  23.632  16.479  11.128
11079W        W79473  16.901  24.710   0.255
11080W        W79474  36.529  24.119   4.713
11081W        W79475  30.109  29.096  14.899
11082W        W79476  24.759  20.514  10.667
11083W        W79477  16.798  12.118   0.678
11084W        W79478  15.594  30.722   4.662
11085W        W79479   3.242  22.627  10.912
11086W        W79480  38.190  17.587  13.796
11087W        W79481   9.499  19.985   9.954
11088W        W79482   8.105  12.474   0.992
11089W        W79483  41.933  23.105  14.092
11090W        W79484  13.600  34.955  10.573
11091W        W79485  38.525  21.387  10.641
11092W        W79486  19.289  25.715   2.764
11093W        W79487  23.149  41.858  11.218
11094W        W79488  12.853  17.593  12.041
11095W        W79489  41.562  27.994   1.921
11096W        W79490  26.542   3.353   2.279
11097W        W79491  12.444  42.007  10.727
11098W        W79492  44.976  39.817   3.086
11099W        W79493  10.455   3.684   0.478
11100W        W79494   4.849   2.086  10.688
11101W        W79495   4.304  40.180   4.577
11102W        W79496   4.775  33.882  13.419
11103W        W79497  34.995  28.316   1.806
11104W        W79498  41.708  13.138  11.163
11105W        W79499  33.909   7.880   3.285
11106W        W79500  32.185  26.639   1.442
11107W        W79501   4.460  23.655   3.182
11108W        W79502   9.060  22.138   2.306
11109W        W79503  38.164  36.432   4.449
11110W        W79504   8.583   7.301  13.512
11111W        W79505  21.569  21.603   4.153
11112W        W79506  28.497   9.671   2.744
11113W        W79507  18.707  13.735   4.279
11114W        W79508   4.160  25.443   1.751
11115W        W79509  18.726  20.763   5.001
11116W        W79510  13.985  30.355  12.216
11117W        W79511  29.091  42.809   5.197
11118W        W79512  21.037   7.239  12.385
11119W        W79513  30.944   4.773   4.491
11120W        W79514  27.323  30.505   3.384
11121W        W79515   7.179  27.481  10.174
11122W        W79516  35.705   9.395   4.191
11123W        W79517   3.267  34.418  11.158
11124W        W79518  12.634   3.021   3.304
11125W        W79519   8.630  20.772   0.827
11126W        W79520   9.866  44.442   1.738
11127W        W79521  24.795   6.260  11.336
11128W        W79522  39.246  10.381   2.683
11129W        W79523  42.653  13.487  14.527
11130W        W79524  26.160  23.088   0.217
11131W        W79525   7.630   8.146   3.662
11132W        W79526  44.237  28.142   3.251
11133W        W79527  25.454  30.224   1.386
11134W        W79528  28.493  43.638  12.655
11135W        W79529   0.532  33.616  13.884
11136W        W79530   8.775  23.198  11.644
11137W        W79531   0.794   7.591  12.580
11138W        W79532  34.386  30.412   1.051
11139W        W79533  24.160  26.174  13.894
11140W        W79534  41.393  27.328  14.374
11141W        W79535  19.958  18.606  12.430
11142W        W79536  36.578   4.329   0.022
11143W        W79537  12.274  42.561  12.424
11144W        W79538  32.854  32.207  10.985
11145W        W79539  42.952  25.161  14.860
11146W        W79540  41.795   1.155   3.764
11147W        W79541  31.238  10.066   0.718
11148W        W79542  10.222  13.770   0.760
11149W        W79543  22.097  30.959  10.781
11150W        W79544  10.108  25.070   0.582
11151W        W79545   4.272  38.499  10.729
11152W        W79546  43.965  39.326   1.178
11153W        W79547  40.184  30.331   4.180
11154W        W79548  37.519  41.499  14.989
11155W        W79549  34.666  12.656   2.202
11156W        W79550  12.223   2.353  12.093
11157W        W79551  44.892   3.397   5.007
11158W        W79552  44.572   0.726   1.535
11159W        W79553  28.242   7.701  11.546
11160W        W79554  40.154   8.234  11.639
11161W        W79555  27.966  41.033   4.372
11162W        W79556   1.245  33.943   1.469
11163W        W79557  35.759  43.371   0.816
11164W        W79558  44.235  36.625  14.707
11165W        W79559  20.108  20.955   4.617
11166W        W79560  42.035  34.351  12.127
11167W        W79561  20.068   4.363   4.402
11168W        W79562  24.317   5.843   3.688
11169W        W79563  31.618   9.313  11.967
11170W        W79564  36.068  41.040   4.309
11171W        W79565   3.695  26.487  13.417
11172W        W79566  16.157  28.228   1.163
11173W        W79567  38.590  41.356   1.071
11174W        W79568  43.795  14.011  12.890
11175W        W79569  19.620  12.536   1.262
11176W        W79570  27.526  34.657  11.617
11177W        W79571  11.529   9.928  11.953
11178W        W79572  23.646   7.706   0.807
11179W        W79573   5.657  37.562  13.930
11180W        W79574  26.235   6.986   0.797
11181W        W79575  15.644  32.021  13.844
11182W        W79576  37.046  27.569  14.464
11183W        W79577  11.193  41.344   0.839
11184W        W79578  35.187  27.297  11.916
11185W        W79579   5.770  31.871   0.230
11186W        W79580  39.751  27.897  10.926
11187W        W79581  28.580  38.863   1.369
11188W        W79582  30.530  39.784  10.777
11189W        W79583  11.470  12.329   1.992
11190W        W79584  36.293  38.983   0.361
11191W        W79585  22.998  27.045  11.092
11192W        W79586  25.489  31.563  11.028
11193W        W79587  16.505   7.456   4.549
11194W        W79588  37.087  37.974  10.523
11195W        W79589  35.400  30.171  11.172
11196W        W79590  27.595  15.617   1.717
11197W        W79591  12.106  23.630   3.642
11198W        W79592  16.527   5.717   4.502
11199W        W79593   1.762  40.717  13.055
11200W        W79594  12.534   8.686   3.980
11201W        W79595   1.444  25.094  11.683
11202W        W79596  26.615  31.358   0.897
11203W        W79597  38.091  12.686  12.443
11204W        W79598  38.011   8.179  12.039
11205W        W79599  31.589  18.166   1.444
11206W        W79600  29.452  25.972  11.386
11207W        W79601  25.914  40.511  12.964
11208W        W79602   6.935  17.635  13.444
11209W        W79603  40.760  12.727   2.776
11210W        W79604  40.296  37.455   4.974
11211W        W79605  43.799  15.269  12.434
11212W        W79606   6.907  28.747   4.749
11213W        W79607  10.781  40.770   2.330
11214W        W79608  17.679  17.791   1.966
11215W        W79609  39.168   8.049   0.084
11216W        W79610  16.345  29.579  12.121
11217W        W79611   2.066  27.903  14.845
11218W        W79612  17.805  33.055   0.700
11219W        W79613  13.131  43.996   0.781
11220W        W79614  20.685  30.673   4.107
11221W        W79615  18.503  44.743   0.364
11222W        W79616  12.687  15.409   1.782
11223W        W79617  16.683  21.136   0.073
11224W        W79618   8.390   5.691  14.368
11225W        W79619   0.889  31.449   3.116
11226W        W79620   7.677  27.216  14.603
11227W        W79621  26.513  32.027   1.207
11228W        W79622  19.710  15.784  12.882
11229W        W79623  35.111  36.899  12.959
11230W        W79624  31.610   1.394  10.959
11231W        W79625  23.028  40.802  13.839
11232W        W79626  34.819  39.404   2.757
11233W        W79627   7.612  27.181   3.212
11234W        W79628  12.857  14.734   0.024
11235W        W79629  23.237  44.941  11.215
11236W        W79630   9.103   3.259   1.502
11237W        W79631  39.282  14.705  13.445
11238W        W79632  10.864  37.434  11.047
11239W        W79633  11.150  26.674  11.830
11240W        W79634  42.549  42.497  11.978
11241W        W79635  44.814  24.395   0.823
11242W        W79636  27.932  20.492  12.441
11243W        W79637  19.216  35.376   0.209
11244W        W79638   2.188  28.484  13.675
11245W        W79639   8.913   7.299  12.916
11246W        W79640  26.597   3.953  12.108
11247W        W79641  15.262   8.108  13.878
11248W        W79642  20.185  25.566  14.788
11249W        W79643  21.963  28.527   9.743
11250W        W79644   5.326  20.834   4.531
11251W        W79645  41.364  37.258  12.536
11252W        W79646  44.315  17.097  11.459
11253W        W79647  39.747  20.182   2.625
11254W        W79648   5.655  25.191  14.276
11255W        W79649  20.324   1.053  11.028
11256W        W79650  43.007  39.781   4.183
11257W        W79651  39.478   3.730   0.182
11258W        W79652  24.362  12.387   2.548
11259W        W79653  15.918  42.003   1.726
11260W        W79654  21.411  10.275   4.802
11261W        W79655  18.856   1.451   3.797
11262W        W79656  23.713  22.225   1.349
11263W        W79657   3.459  26.959  10.362
11264W        W79658  31.732  18.314  10.751
11265W        W79659  21.688  13.943   0.229
11266W        W79660  32.048  28.708   2.083
11267W        W79661   4.436   7.671  14.569
11268W        W79662  16.040  26.507  11.098
11269W        W79663  21.166   6.740   1.939
11270W        W79664  32.638  10.290  12.814
11271W        W79665   4.649  28.485  11.680
11272W        W79666  37.002  24.733  11.139
11273W        W79667  10.157  37.019   1.919
11274W        W79668  18.971  22.589  13.874
11275W        W79669  19.367  13.045  13.354
11276W        W79670   7.840  23.666  12.891
11277W        W79671  22.568  16.094  10.893
11278W        W79672  41.071  26.515   3.658
11279W        W79673  12.956  41.327  12.062
11280W        W79674  10.330  25.931   2.789
11281W        W79675  41.527  20.802   3.604
11282W        W79676  30.096  11.563   0.034
11283W        W79677  12.722   3.666  12.124
11284W        W79678  27.056  19.717   2.751
11285W        W79679  19.558   7.510  12.794
11286W        W79680  40.446  42.465  12.566
11287W        W79681   3.868  38.767   2.630
11288W        W79682  29.554  13.649  14.161
11289W        W79683  43.449  25.537  13.825
11290W        W79684  12.371  43.117  10.733
11291W        W79685  41.766  20.258   2.444
11292W        W79686  37.372   2.354   4.548
11293W        W79687  23.306  14.805   3.295
11294W        W79688  21.303   5.185   1.402
11295W        W79689  25.934  21.708   0.013
11296W        W79690   4.490   4.416  11.632
11297W        W79691  28.154  44.490  12.362
11298W        W79692  35.358  22.780   3.113
11299W        W79693  42.314  17.539  13.959
11300W        W79694  16.315  22.548  13.758
11301W        W79695   6.139   9.615  11.052
11302W        W79696  26.271  29.365   4.135
11303W        W79697  31.951  29.616   4.012
11304W        W79698  15.665  32.637   2.422
11305W        W79699  26.682  23.445   3.208
11306W        W79700  40.899  16.198  12.353
11307W        W79701  19.919  38.424   4.535
11308W        W79702   4.460  30.453  13.380
11309W        W79703  28.191  12.689  12.408
11310W        W79704  33.463   6.480  12.139
11311W        W79705  34.683  32.975  12.000
11312W        W79706  21.478   7.225   2.812
11313W        W79707  40.957  35.478  12.083
11314W        W79708  31.836   5.788  12.003
11315W        W79709   7.867  36.186   4.246
11316W        W79710  17.290  16.478  12.454
11317W        W79711  21.642  28.352   0.541
11318W        W79712  36.420  26.198   3.889
11319W        W79713  31.885  10.197   0.022
11320W        W79714  19.536  15.850  14.783
11321W        W79715   3.347  42.567   3.018
11322W        W79716  44.765   9.334   4.857
11323W        W79717   2.397   7.736  12.962
11324W        W79718  27.194  24.763   1.513
11325W        W79719  12.125   1.387  11.028
11326W        W79720   0.519  18.184  12.069
11327W        W79721  15.199  10.404  14.884
11328W        W79722  25.084  12.931   2.320
11329W        W79723  30.974   2.980   1.196
11330W        W79724  15.636  11.920   3.293
11331W        W79725  26.695  22.122  12.589
11332W        W79726  43.301  22.181  11.541
11333W        W79727  26.507  13.724  13.459
11334W        W79728   7.841  35.182  13.452
11335W        W79729  44.364  30.950   1.178
11336W        W79730  34.135  32.948   2.263
11337W        W79731  31.345   3.838  10.595
11338W        W79732   6.740   1.331  14.474
11339W        W79733  15.412   1.668  12.553
11340W        W79734  34.651  17.613   1.378
11341W        W79735  34.631   6.593  12.570
11342W        W79736   4.785  43.128   2.594
11343W        W79737  41.485  22.429  14.418
11344W        W79738   3.758  32.524  14.415
11345W        W79739  44.530  30.531   2.325
11346W        W79740  28.077  23.930   2.238
11347W        W79741   7.840  28.060   1.213
11348W        W79742  25.198   7.168  13.188
11349W        W79743  23.807   4.384   3.562
11350W        W79744   9.173  21.529   2.884
11351W        W79745  35.633  21.614  14.219
11352W        W79746  24.768  22.034   4.459
11353W        W79747  10.540  17.257  12.021
11354W        W79748  25.698   9.462   2.787
11355W        W79749  44.239   3.511  12.466
11356W        W79750  12.687   1.176  12.082
11357W        W79751  34.419  24.636  11.254
11358W        W79752   6.155  31.982  14.315
11359W        W79753  26.196   6.165   1.296
11360W        W79754   1.897  23.018   2.839
11361W        W79755  42.417  40.220   1.883
11362W        W79756  23.445  36.092  11.128
11363W        W79757  35.879  19.251   0.396
11364W        W79758  25.326  19.265   0.526
11365W        W79759  39.091  40.051   1.402
11366W        W79760   8.665  18.154   0.369
11367W        W79761  22.568  11.773  12.983
11368W        W79762  36.331  41.992   1.896
11369W        W79763  16.629  26.341  12.163
11370W        W79764  31.697  11.320   3.877
11371W        W79765  37.121  28.005  11.625
11372W        W79766  33.011  35.602   2.338
11373W        W79767  32.891   5.184  14.479
11374W        W79768   5.414  41.561   1.409
11375W        W79769  41.734  19.279   4.161
11376W        W79770  15.545  23.079   3.171
11377W        W79771   9.087  16.159   0.855
11378W        W79772  41.650  43.846   1.998
11379W        W79773  26.802  32.445  12.452
11380W        W79774  37.134  38.445   2.829
11381W        W79775  39.741  12.799   4.533
11382W        W79776  22.879   9.189   0.264
11383W        W79777  16.196  18.121  11.112
11384W        W79778  43.394  11.551  14.962
11385W        W79779  44.373  44.250   2.737
11386W        W79780  33.962   4.820  14.462
11387W        W79781  14.912  28.165   3.465
11388W        W79782  16.309  18.646   3.611
11389W        W79783  20.612  35.622   0.649
11390W        W79784   5.869  12.824  11.491
11391W        W79785  28.599  44.519   2.414
11392W        W79786  34.247  37.589  12.367
11393W        W79787  14.310  43.432  10.588
11394W        W79788  40.099  19.183  14.914
11395W        W79789  20.684  34.679  14.237
11396W        W79790  24.197  23.085   1.592
11397W        W79791   8.843  18.663  13.822
11398W        W79792  15.679  30.535   4.181
11399W        W79793   9.549  26.344   0.768
11400W        W79794  33.872  44.151  12.695
11401W        W79795  34.840  44.397   3.221
11402W        W79796  40.510   6.257  13.049
11403W        W79797  31.597   8.774   1.335
11404W        W79798  43.061  39.380  10.698
11405W        W79799  24.997  23.422   3.061
11406W        W79800  17.011  13.938   2.798
11407W        W79801  20.725  12.212  11.696
11408W        W79802  10.822  44.496  11.573
11409W        W79803  44.205  33.570  14.305
11410W        W79804  12.302  41.029   1.869
11411W        W79805  30.571  28.896  12.411
11412W        W79806  39.525  15.063   0.808
11413W        W79807  40.947  29.503   0.391
11414W        W79808  33.952  34.348  13.142
11415W        W79809  40.636  18.629  14.389
11416W        W79810   4.686   5.539   4.537
11417W        W79811  31.559  18.816   4.548
11418W        W79812  24.725  40.124   4.600
11419W        W79813  12.658  20.684   0.844
11420W        W79814   4.142  12.646  12.137
11421W        W79815  30.869  36.479  12.536
11422W        W79816  35.305  20.958  11.594
11423W        W79817  18.836  10.221  11.133
11424W        W79818  40.764  22.675  13.864
11425W        W79819  31.358  43.789  11.194
11426W        W79820  17.737   3.536   0.303
11427W        W79821   1.647   8.605  12.126
11428W        W79822  44.000  23.179  13.388
11429W        W79823   8.200  41.741   1.633
11430W        W79824   3.874  29.683  11.644
11431W        W79825  17.322  13.368  13.684
11432W        W79826  23.402  28.923   4.247
11433W        W79827   1.554   8.279  13.762
11434W        W79828   8.923  25.696  12.572
11435W        W79829  33.501  19.988   3.876
11436W        W79830   0.653  39.823   9.949
11437W        W79831  41.043  17.086  14.950
11438W        W79832  32.844  26.144   0.438
11439W        W79833  35.770  23.550  14.331
11440W        W79834  40.039  39.316   2.656
11441W        W79835  24.039  42.422  13.093
11442W        W79836  24.152  43.755   4.053
11443W        W79837  20.046  13.182  14.135
11444W        W79838   4.757   6.160  14.877
11445W        W79839  11.660   8.222  11.179
11446W        W79840   2.790  11.689   1.802
11447W        W79841  11.321  20.155   3.609
11448W        W79842  21.190  41.274  14.363
11449W        W79843  13.075  44.741   3.897
11450W        W79844  19.931  25.247  12.053
11451W        W79845  33.194  12.760  12.034
11452W        W79846   7.773  12.141  12.500
11453W        W79847  26.630   6.316   1.030
11454W        W79848  11.915  28.928   5.093
11455W        W79849  14.081  17.484   0.317
11456W        W79850   5.191  43.819   0.969
11457W        W79851  30.046  14.823   1.659
11458W        W79852   0.419  41.485   4.355
11459W        W79853   3.081   6.908   3.360
11460W        W79854  23.453  11.092  12.959
11461W        W79855  29.047   5.576   0.486
11462W        W79856   0.020  14.202   2.011
11463W        W79857  30.023  37.877  13.860
11464W        W79858  13.451  12.460  12.034
11465W        W79859  17.437  43.178  14.052
11466W        W79860  43.010  23.628   1.158
11467W        W79861   7.338  39.615   2.903
11468W        W79862  31.880  22.128  13.952
11469W        W79863  32.328  43.309   2.218
11470W        W79864  23.604  32.911  13.332
11471W        W79865  33.944  22.424   1.211
11472W        W79866  27.572  35.487  10.666
11473W        W79867   5.224  25.000  11.036
11474W        W79868  31.598  22.182  14.911
11475W        W79869   7.874  26.334  12.259
11476W        W79870  44.512  14.299   1.842
11477W        W79871  14.403  41.962  13.113
11478W        W79872  28.117  26.213   1.316
11479W        W79873  18.123   0.785   0.445
11480W        W79874  42.096  29.480  14.513
11481W        W79875  23.095  38.587   4.638
11482W        W79876  25.413   1.855  13.342
11483W        W79877  40.319   2.706  13.338
11484W        W79878  24.715  29.764   4.767
11485W        W79879  21.524  29.615   1.237
11486W        W79880  13.225  35.303   3.662
11487W        W79881  11.744  14.158   4.063
11488W        W79882  41.463  32.993  10.699
11489W        W79883   8.862  38.623  14.251
11490W        W79884  32.333   9.502  11.829
11491W        W79885   8.184  44.246   1.271
11492W        W79886  21.979  30.537   4.692
11493W        W79887  24.153   1.359  10.636
11494W        W79888  25.246   4.780   4.626
11495W        W79889  22.813  22.217   2.696
11496W        W79890   4.168  38.124  14.317
11497W        W79891   2.846  26.340   2.323
11498W        W79892  43.355  26.741  12.466
11499W        W79893  21.963  10.403  11.529
11500W        W79894  10.730  11.924   1.688
11501W        W79895  41.096  33.133   1.997
11502W        W79896  31.983   6.417   1.873
11503W        W79897  40.357  37.786  11.235
11504W        W79898  34.008  36.075   1.365
11505W        W79899  36.376   9.276  13.142
11506W        W79900   5.510  15.992  13.865
11507W        W79901  20.040  40.932  12.093
11508W        W79902  25.878  23.825  11.142
11509W        W79903  37.450  16.347  14.906
11510W        W79904   9.363  21.930   1.907
11511W        W79905  19.966  27.167  14.467
11512W        W79906  23.707  38.433   3.248
11513W        W79907  34.069  15.823  13.350
11514W        W79908   1.796  32.930   4.325
11515W        W79909  34.839  33.030  14.057
11516W        W79910   3.818  37.483   2.273
11517W        W79911  13.366   1.387  10.739
11518W        W79912  31.174  31.208  11.894
11519W        W79913   8.043  23.546  11.567
11520W        W79914  42.238   4.444  11.989
11521W        W79915   2.428  18.158  11.111
11522W        W79916  43.412   9.805  13.746
11523W        W79917   1.687   5.187   1.452
11524W        W79918  31.974   4.908  11.942
11525W        W79919  15.297  20.721  13.458
11526W        W79920  15.483  38.803  14.836
11527W        W79921  36.569  39.583   1.453
11528W        W79922  41.327  36.738   9.769
11529W        W79923  23.685  15.723  13.909
11530W        W79924  11.194  28.548  11.664
11531W        W79925  15.026  35.029   1.887
11532W        W79926   5.816  38.267   2.765
11533W        W79927  29.470  38.339   1.116
11534W        W79928   2.933  40.638   0.329
11535W        W79929  37.397   2.686  11.162
11536W        W79930   8.659  11.682   2.862
11537W        W79931  16.262  34.641   2.814
11538W        W79932  13.452   8.649  14.861
11539W        W79933  26.146  18.778   0.046
11540W        W79934  43.312  20.297  11.070
11541W        W79935   6.337  18.016  11.686
11542W        W79936  34.620  40.888   3.721
11543W        W79937  27.133  26.118   0.694
11544W        W79938  34.362  40.080   4.135
11545W        W79939   0.522   7.702  11.098
11546W        W79940   1.702   9.854   1.310
11547W        W79941  44.468  16.902   9.774
11548W        W79942  26.103  32.162  12.835
11549W        W79943  14.527  41.589  12.392
11550W        W79944  17.750  36.310   2.696
11551W        W79945  13.401   3.928  12.451
11552W        W79946  44.624  42.045   1.389
11553W        W79947  11.600  43.571  13.807
11554W        W79948  38.034  10.246  13.018
11555W        W79949  34.327   9.650  11.214
11556W        W79950  24.214  31.411   0.484
11557W        W79951  14.994   5.876   3.733
11558W        W79952  42.959   5.933   4.248
11559W        W79953  26.098  12.270   4.500
11560W        W79954  40.875  36.831  10.391
11561W        W79955  20.661  42.349   2.944
11562W        W79956  16.671  19.193  13.829
11563W        W79957   1.428   6.975  14.818
11564W        W79958   6.756  27.463   0.219
11565W        W79959  10.843  11.894   2.688
11566W        W79960  17.079  35.077  10.965
11567W        W79961   6.929  27.281  11.082
11568W        W79962  31.503  26.929   3.856
11569W        W79963   6.126  43.858   3.675
11570W        W79964   5.409   4.440   3.099
11571W        W79965  28.698  43.927   1.827
11572W        W79966  37.008  12.096  12.959
11573W        W79967  23.022  34.959   1.188
11574W        W79968  23.054  18.165   2.616
11575W        W79969  35.382  28.816   2.713
11576W        W79970  18.993  28.649  13.914
11577W        W79971  13.743  11.815  11.196
11578W        W79972  33.116  21.262   3.758
11579W        W79973  27.049   6.139   2.715
11580W        W79974  27.410  35.379  11.861
11581W        W79975  32.266  12.864   1.717
11582W        W79976  15.675   9.634  13.460
11583W        W79977  41.536  34.362  11.825
11584W        W79978  14.403  18.583  13.409
11585W        W79979  44.894  21.087   0.914
11586W        W79980   0.785  27.683   2.337
11587W        W79981  34.936   9.587   3.654
11588W        W79982  25.762  30.656  13.617
11589W        W79983  19.620  15.677   2.327
11590W        W79984   7.513  42.577   2.859
11591W        W79985   1.712  31.935  11.165
11592W        W79986  33.991  13.601  12.933
11593W        W79987  39.518  35.376  11.442
11594W        W79988  23.974  11.628   0.418
11595W        W79989   1.688  40.977  10.825
11596W        W79990   9.034  43.400  10.978
11597W        W79991  27.429  11.164  14.837
11598W        W79992  36.783  41.612   2.515
11599W        W79993  34.854   6.149   4.537
11600W        W79994  23.626  13.393   3.128
11601W        W79995   7.931  31.316   3.835
11602W        W79996  36.280  25.159   1.760
11603W        W79997  41.018  34.933   3.211
11604W        W79998  21.262  23.166  13.106
11605W        W79999  42.955  31.633  12.111
11606W        W80000  30.136   5.742  12.909
11607W        W80001  33.429   5.694   1.739
11608W        W80002   0.325   7.871   3.908
11609W        W80003  19.221  35.849  14.946
11610W        W80004  27.992  17.049  10.391
11611W        W80005  19.084  14.403   2.157
11612W        W80006  21.612  27.504   4.555
11613W        W80007  19.556  42.044  12.232
11614W        W80008  34.119  42.305   3.147
11615W        W80009  44.278  25.661   0.632
11616W        W80010   5.308  34.406   0.640
11617W        W80011   0.548  38.362   3.111
11618W        W80012  35.502   8.923   3.263
11619W        W80013  13.883  42.010   1.320
11620W        W80014  33.885  13.222   3.705
11621W        W80015  16.535   8.326   1.800
11622W        W80016  16.146   8.816  10.632
11623W        W80017  26.456  40.062  10.522
11624W        W80018  34.915  30.442   2.770
11625W        W80019   8.214   5.219  13.453
11626W        W80020   3.957  23.236   0.114
11627W        W80021  26.513  19.705   1.476
11628W        W80022  38.849  34.086   4.564
11629W        W80023  10.552  11.785  12.839
11630W        W80024  39.715  30.459   2.734
11631W        W80025  27.423  26.431  12.939
11632W        W80026  39.461  31.854  14.969
11633W        W80027   1.517  10.389  11.609
11634W        W80028  37.088  25.057  10.742
11635W        W80029  11.604  28.904  13.260
11636W        W80030  12.498  17.693   4.186
11637W        W80031  12.151   7.591  13.447
11638W        W80032   6.208   3.472  14.099
11639W        W80033  31.346  20.392  11.163
11640W        W80034  23.619  38.109  12.068
11641W        W80035  41.806  30.272  10.375
11642W        W80036   5.027   6.362  13.358
11643W        W80037   1.778  43.039   0.369
11644W        W80038  42.977  22.978  12.042
11645W        W80039  41.966  17.264   2.738
11646W        W80040  26.644   4.636  13.914
11647W        W80041  16.520  17.594  14.477
11648W        W80042  27.222  24.514  14.654
11649W        W80043   8.240  29.377   3.579
11650W        W80044  20.546  25.739  13.968
11651W        W80045   2.706   2.299   1.754
11652W        W80046  29.401  20.027  14.325
11653W        W80047  23.602  37.854   2.470
11654W        W80048  33.976  41.791  12.924
11655W        W80049  15.711  14.714   5.171
11656W        W80050   8.656  31.788   4.130
11657W        W80051  24.202   6.327   1.400
11658W        W80052  10.795  43.479   1.836
11659W        W80053  15.817  39.983  12.153
11660W        W80054   7.442  44.882  12.504
11661W        W80055  38.440  29.780   0.307
11662W        W80056  40.725  31.950  10.240
11663W        W80057  44.284  26.585   3.823
11664W        W80058  10.366  23.971   5.053
11665W        W80059  40.179   9.305  10.599
11666W        W80060  41.571  17.735   3.565
11667W        W80061  42.807  33.600   2.846
11668W        W80062  11.161  37.965  11.739
11669W        W80063  43.272   5.711   4.615
11670W        W80064  15.636   5.200  11.210
11671W        W80065  11.645  25.479   1.332
11672W        W80066  19.797  44.136   4.548
11673W        W80067  41.316  33.884  11.933
11674W        W80068   2.709  44.723   3.137
11675W        W80069  12.535  44.254   4.112
11676W        W80070  21.942  32.915   0.894
11677W        W80071  19.082  17.378  13.317
11678W        W80072  11.668  40.437   3.596
11679W        W80073  10.163  16.303   0.814
11680W        W80074  20.155  16.462   4.465
11681W        W80075  31.937  39.459  14.543
11682W        W80076  38.331   9.970   3.134
11683W        W80077  19.403  26.102   2.377
11684W        W80078  35.886  30.847  13.119
11685W        W80079  35.048  27.071  10.647
11686W        W80080   1.417   2.732   1.890
11687W        W80081   4.686  22.632   4.139
11688W        W80082  30.375  18.727   4.101
11689W        W80083  24.978  35.922  14.099
11690W        W80084  34.203  12.681  11.904
11691W        W80085  36.682  28.023   0.330
11692W        W80086  15.391  10.746   1.658
11693W        W80087   3.240   0.697  10.625
11694W        W80088  32.878  36.147   3.240
11695W        W80089  26.633  20.174  13.996
11696W        W80090  36.206  39.496  13.534
11697W        W80091  13.598  23.432   2.777
11698W        W80092   3.263   8.847   2.892
11699W        W80093  31.437  15.635   3.513
11700W        W80094  22.579  13.465   2.851
11701W        W80095   3.245   2.425   0.792
11702W        W80096  14.573  43.293  11.102
11703W        W80097   7.155  34.139  12.066
11704W        W80098  23.238  17.100  13.595
11705W        W80099  41.039  37.501   1.290
11706W        W80100  22.303   7.902  11.440
11707W        W80101  38.352  38.830  12.094
11708W        W80102  44.368   8.937   4.137
11709W        W80103   1.109  41.457   5.149
11710W        W80104  32.019  18.436  13.954
11711W        W80105  26.955  36.420   4.196
11712W        W80106  16.120  36.063   2.458
11713W        W80107  31.431  18.617   1.729
11714W        W80108   8.659  38.916  11.700
11715W        W80109  33.369   9.168  14.415
11716W        W80110  43.111  17.289  12.288
11717W        W80111   0.889  33.260   4.299
11718W        W80112  20.286  30.691   3.755
11719W        W80113  17.352  42.268  11.587
11720W        W80114   2.315  35.854   1.615
11721W        W80115  31.875  12.619  14.320
11722W        W80116  31.107  41.834   4.308
11723W        W80117  10.908  13.673  12.046
11724W        W80118  24.664  28.280   3.345
11725W        W80119   9.851  32.157  13.774
11726W        W80120  43.343  23.216   3.315
11727W        W80121  24.673  24.583   1.514
11728W        W80122  26.646  26.087   1.451
11729W        W80123  35.919   1.586   3.985
11730W        W80124  30.635  17.738  11.728
11731W        W80125  33.417  21.547  12.028
11732W        W80126  26.657  39.374  11.000
11733W        W80127  42.519  11.050   0.070
11734W        W80128  28.978  13.108  12.560
11735W        W80129  14.836  38.993   1.353
11736W        W80130  17.455   6.140  14.316
11737W        W80131   9.015  31.440  11.627
11738W        W80132   3.864  19.879  13.022
11739W        W80133  34.794   9.382  14.450
11740W        W80134  23.215   0.511  12.030
11741W        W80135  21.767  44.693  12.370
11742W        W80136   3.498   0.198  11.426
11743W        W80137   6.716  34.907  14.971
11744W        W80138   2.132   3.179   3.186
11745W        W80139   8.678  12.961  13.523
11746W        W80140  41.010  40.970   2.866
11747W        W80141  37.846   5.300   2.815
11748W        W80142  42.266  37.363  12.127
11749W        W80143  18.733  11.648   1.551
11750W        W80144   7.372  26.201   3.782
11751W        W80145  27.133   1.912   5.151
11752W        W80146   0.318  42.074  12.510
11753W        W80147   5.834  24.070  13.091
11754W        W80148  18.198  34.306  11.599
11755W        W80149  14.357  28.617   4.508
11756W        W80150  12.189   3.814   3.316
11757W        W80151  36.862   6.814  13.821
11758W        W80152   5.399  32.377  10.747
11759W        W80153  22.281   4.116  14.380
11760W        W80154   2.818  10.428  12.397
11761W        W80155  19.719  35.980   0.719
11762W        W80156  33.527  24.646  12.875
11763W        W80157   3.419  37.584   1.933
11764W        W80158  35.193  26.065   3.226
11765W        W80159  11.402  40.344  14.466
11766W        W80160  10.405  41.892  10.547
11767W        W80161  39.342   9.707   0.466
11768W        W80162  25.000  33.696   1.249
11769W        W80163  30.873  21.222   3.713
11770W        W80164   1.466   5.650   1.338
11771W        W80165  22.842  16.027  14.454
11772W        W80166   1.449  38.945  10.560
11773W        W80167   7.562  16.026  11.600
11774W        W80168  32.110  27.804  10.217
11775W        W80169  26.447  43.386  12.142
11776W        W80170  13.997  16.383  13.490
11777W        W80171  31.071  42.459  10.457
11778W        W80172  36.946   1.457  11.005
11779W        W80173  10.794   3.275   3.857
11780W        W80174  35.875   7.193  13.713
11781W        W80175  16.231  24.991  14.962
11782W        W80176  10.281  10.919   0.894
11783W        W80177   9.365  31.435  13.904
11784W        W80178  26.279  21.540  10.603
11785W        W80179  40.065   1.821  14.928
11786W        W80180   6.813  39.993  14.294
11787W        W80181   0.193  36.599  14.286
11788W        W80182  14.059  17.128   2.156
11789W        W80183  26.483  13.753  12.040
11790W        W80184   9.535   5.010  10.245
11791W        W80185  42.016  37.880   1.735
11792W        W80186   8.720  21.244  13.549
11793W        W80187  33.473   9.618  12.541
11794W        W80188   5.756  40.094  10.406
11795W        W80189   7.862  11.372   4.474
11796W        W80190  14.003  18.763   0.304
11797W        W80191  20.048  41.745   4.601
11798W        W80192  16.129  20.611  12.925
11799W        W80193  17.088  11.417  12.706
11800W        W80194  20.613  42.199  14.765
11801W        W80195  36.045   6.112   2.251
11802W        W80196  21.184  27.748  14.861
11803W        W80197  10.255  33.026   1.262
11804W        W80198  16.037  28.494   3.617
11805W        W80199  40.961  35.937   4.715
11806W        W80200  34.411   7.659   0.381
11807W        W80201  29.729  34.953   4.957
11808W        W80202  14.340  31.842  11.143
11809W        W80203  18.598   2.719   0.459
11810W        W80204  14.266  30.357  13.012
11811W        W80205   1.776  11.447  14.829
11812W        W80206   9.877   5.285  13.386
11813W        W80207  28.980  33.399   0.914
11814W        W80208  24.692  31.504  12.548
11815W        W80209  18.417  33.866   4.368
11816W        W80210  18.733  44.854  11.688
11817W        W80211  24.106  18.014   1.908
11818W        W80212   5.935  13.746  11.733
11819W        W80213  18.143  22.628   2.857
11820W        W80214  12.736   6.738  13.859
11821W        W80215  13.240  15.885  11.174
11822W        W80216   2.411  32.928   0.484
11823W        W80217   1.216   4.958  11.664
11824W        W80218  15.945  29.959   3.140
11825W        W80219  39.408  35.574   0.831
11826W        W80220   1.016   5.895   2.756
11827W        W80221  25.553  13.004   9.756
11828W        W80222   3.306  10.378  13.973
11829W        W80223  15.828   9.257  14.873
11830W        W80224   0.457  32.191   4.079
11831W        W80225  22.318  40.035  13.041
11832W        W80226  35.413   4.725  11.849
11833W        W80227  30.408   0.864  14.988
11834W        W80228  24.588  35.894   3.068
11835W        W80229  21.578  35.414   2.815
11836W        W80230  36.434  22.443  14.047
11837W        W80231   1.555  27.981   2.562
11838W        W80232   7.743  26.600  11.195
11839W        W80233   6.829  24.095  12.167
11840W        W80234   9.430  25.565  12.553
11841W        W80235  42.466   9.443  12.966
11842W        W80236  23.236  25.450  10.991
11843W        W80237   6.001  39.413   4.462
11844W        W80238  11.667  16.819   4.933
11845W        W80239  26.697   9.837   1.940
11846W        W80240   6.816  31.673   1.652
11847W        W80241  25.586  39.530  12.039
11848W        W80242   2.715   4.563   2.691
11849W        W80243  43.659  39.614   2.634
11850W        W80244  24.202  24.941  10.508
11851W        W80245  25.441  21.550   4.335
11852W        W80246  43.457  42.017  13.969
11853W        W80247  20.124   2.270  13.252
11854W        W80248  39.918  28.637  13.756
11855W        W80249   3.648   4.299  14.027
11856W        W80250  24.569  25.424   0.278
11857W        W80251   7.596  25.197  14.356
11858W        W80252  26.888   8.154  13.766
11859W        W80253  35.106  23.973   4.871
11860W        W80254  19.125  41.205  13.481
11861W        W80255  27.685   3.347   1.277
11862W        W80256   0.581  10.013   4.100
11863W        W80257  28.457  27.590   3.314
11864W        W80258  39.524  23.000   2.293
11865W        W80259  43.281  38.742  14.430
11866W        W80260  20.873  19.116  10.165
11867W        W80261  30.961  19.322   1.854
11868W        W80262  17.823  42.967  13.314
11869W        W80263  40.731  30.105  11.222
11870W        W80264   6.194  29.538  12.074
11871W        W80265   4.628  40.503   3.114
11872W        W80266  25.080  36.282   2.324
11873W        W80267  37.516  43.644  12.751
11874W        W80268  22.758  40.438   5.238
11875W        W80269  10.658  28.887  14.942
11876W        W80270   8.774   9.350   1.235
11877W        W80271  15.871  17.019   3.186
11878W        W80272  20.232  22.623   1.769
11879W        W80273   0.036   6.857   2.699
11880W        W80274  32.328  26.088   0.378
11881W        W80275  33.345  36.023   4.009
11882W        W80276  32.840   6.616  11.183
11883W        W80277  31.639  41.575  12.492
11884W        W80278  36.521  17.757   0.266
11885W        W80279   1.555  34.542  14.054
11886W        W80280   0.805   8.793  13.956
11887W        W80281  21.175  13.469  10.717
11888W        W80282   5.023  27.997  12.141
11889W        W80283   3.669  16.611   2.448
11890W        W80284  23.929  20.720   3.771
11891W        W80285   4.762  14.279   2.165
11892W        W80286  32.541  26.487  11.346
11893W        W80287   2.139  43.817   0.546
11894W        W80288  14.102  31.020   3.816
11895W        W80289  40.510  18.769   2.142
11896W        W80290   9.817  25.072   1.182
11897W        W80291  37.400  26.558   3.629
11898W        W80292  14.679   6.882   3.538
11899W        W80293  25.064  38.755  11.088
11900W        W80294  16.229  42.149  12.978
11901W        W80295   1.350  19.570   1.787
11902W        W80296  16.027  20.655   0.241
11903W        W80297  41.513  37.762  12.413
11904W        W80298  11.836  12.107   2.903
11905W        W80299  17.045  29.722   0.207
11906W        W80300  21.677   8.910   3.958
11907W        W80301  30.160  41.189  13.285
11908W        W80302  24.736  38.084   4.112
11909W        W80303  33.033   2.755  12.396
11910W        W80304  10.333   8.581   2.362
11911W        W80305   9.119  38.640   1.846
11912W        W80306   7.000  37.554  11.614
11913W        W80307  13.347  31.348  12.468
11914W        W80308  29.078  14.422   2.154
11915W        W80309   9.230  39.998   0.405
11916W        W80310  17.772  40.456   1.065
11917W        W80311  23.270   9.948   3.644
11918W        W80312  22.491  22.567   4.202
11919W        W80313   5.262  34.055  13.501
11920W        W80314  15.094  28.160  12.827
11921W        W80315  31.194  16.510   1.272
11922W        W80316  39.072  39.045   4.173
11923W        W80317  26.995  11.665   1.708
11924W        W80318  40.469   3.788   0.188
11925W        W80319   6.142  39.453   3.588
11926W        W80320  29.558  36.952   3.960
11927W        W80321  21.174  41.814  14.397
11928W        W80322  10.641  26.129  13.787
11929W        W80323  38.368  39.906   1.911
11930W        W80324   3.043  31.174   0.587
11931W        W80325   3.883  33.533  10.722
11932W        W80326  31.040   4.757  11.145
11933W        W80327  27.406  36.024  13.341
11934W        W80328  43.269   9.904   3.185
11935W        W80329  25.570  32.975   1.295
11936W        W80330  30.086  30.874   0.810
11937W        W80331  30.239  42.814   4.530
11938W        W80332  35.332  14.334  13.872
11939W        W80333  16.132  25.165  10.747
11940W        W80334  42.967  10.166  14.533
11941W        W80335  24.207  40.025   4.617
11942W        W80336  36.099  35.294  11.971
11943W        W80337  33.151  15.541  11.293
11944W        W80338   9.677  17.672  13.077
11945W        W80339  17.345  28.963   2.370
11946W        W80340  27.911   7.319  11.606
11947W        W80341  21.925  31.644  11.573
11948W        W80342  26.027   3.475   4.529
11949W        W80343   9.676  18.097   0.652
11950W        W80344   6.250   5.617  13.377
11951W        W80345  18.304  37.353   4.470
11952W        W80346  23.268  43.791  13.846
11953W        W80347  12.099  16.358  13.170
11954W        W80348  20.040  30.755  14.847
11955W        W80349   2.185  28.987  13.654
11956W        W80350  39.903   4.686  10.518
11957W        W80351  25.164  34.994  12.625
11958W        W80352  38.312   7.693  14.296
11959W        W80353   4.618  15.725  10.304
11960W        W80354  33.910  28.883  13.912
11961W        W80355  28.670  10.127   1.860
11962W        W80356  40.099  30.983  11.574
11963W        W80357  31.167  32.849  12.063
11964W        W80358  24.450  33.916   3.437
11965W        W80359  20.197  15.610   2.863
11966W        W80360  42.650   4.223  12.196
11967W        W80361  44.298  44.559   3.172
11968W        W80362  34.061  30.231  11.546
11969W        W80363   6.170  30.305  10.818
11970W        W80364   6.515  32.029   1.382
11971W        W80365  41.423  21.389  10.772
11972W        W80366   2.261  11.278   2.581
11973W        W80367  43.446   3.484   0.891
11974W        W80368  42.244  23.589   3.150
11975W        W80369   5.379  12.185   4.191
11976W        W80370  18.598  29.907   0.170
11977W        W80371  22.248   4.454  13.992
11978W        W80372  31.867   6.734   2.437
11979W        W80373   0.863  41.511   3.502
11980W        W80374  33.713  35.532  11.963
11981W        W80375  41.992  23.047  11.344
11982W        W80376  29.929  36.102  14.304
11983W        W80377   0.171  31.264  13.529
11984W        W80378  14.752   5.756   0.481
11985W        W80379  28.112  37.437   3.586
11986W        W80380   6.682   5.409   0.886
11987W        W80381   1.888  41.885  13.446
11988W        W80382  44.380  30.883   1.786
11989W        W80383  39.835  24.530  10.721
11990W        W80384  21.074  43.426   2.760
11991W        W80385  32.442   5.297  12.667
11992W        W80386  43.786  11.783  12.514
11993W        W80387  23.806   4.673  12.961
11994W        W80388  37.595  37.148   3.084
11995W        W80389  43.291  32.339  14.985
11996W        W80390   0.308   6.015   0.904
11997W        W80391  17.304  40.824  13.809
11998W        W80392  21.471   2.922  11.590
11999W        W80393  32.249  22.619  11.159
12000W        W80394  15.318  17.720   2.288
12001W        W80395   5.155   0.199  12.038
12002W        W80396  16.907  14.052   2.294
12003W        W80397   6.876   7.482   1.885
12004W        W80398  42.366  32.602  12.827
12005W        W80399  37.948   3.466   2.304
12006W        W80400  24.655  41.248   1.963
12007W        W80401  43.268  35.055   5.538
12008W        W80402   3.735  19.773   3.188
12009W        W80403  43.522  20.731  12.601
12010W        W80404  19.035  24.479  14.391
12011W        W80405   8.934  14.130  14.498
12012W        W80406  43.099  42.592  13.072
12013W        W80407  37.845  20.723   3.793
12014W        W80408  13.270  16.027  10.672
12015W        W80409  35.540  33.913  14.554
12016W        W80410  25.909  39.553  12.894
12017W        W80411  16.864   1.724  12.569
12018W        W80412  10.880  33.055  13.971
12019W        W80413  27.288  30.139   0.774
12020W        W80414  28.760  14.858  12.200
12021W        W80415  25.761  23.485   0.974
12022W        W80416  44.717  13.794   2.101
12023W        W80417  36.301   3.328  11.234
12024W        W80418  19.103  14.587  10.673
12025W        W80419   0.364  21.253  11.455
12026W        W80420   3.337  34.328  13.841
12027W        W80421  44.995  34.561  14.503
12028W        W80422  25.148  29.708   0.959
12029W        W80423  30.552  37.888   3.807
12030W        W80424  17.022  11.582  11.899
12031W        W80425  22.959  42.859  12.085
12032W        W80426  40.691  30.917   0.724
12033W        W80427  42.600  29.959   5.042
12034W        W80428  17.667  32.495  13.512
12035W        W80429  38.967   6.369  12.203
12036W        W80430  30.132  32.904  12.123
12037W        W80431  10.619  27.633  12.595
12038W        W80432  28.189  27.158   3.112
12039W        W80433  23.800  41.363  13.909
12040W        W80434  13.176  25.283   1.544
12041W        W80435  40.494  35.985   4.491
12042W        W80436  38.417   4.167   3.766
12043W        W80437  24.126  18.415  11.965
12044W        W80438  16.245  33.038   1.087
12045W        W80439   2.246  38.038   4.538
12046W        W80440  24.252  19.658  14.887
12047W        W80441  33.625   2.495  10.699
12048W        W80442  16.203  43.073  14.787
12049W        W80443  24.647  37.407   0.029
12050W        W80444  34.795  30.694  14.320
12051W        W80445  44.799  41.963  13.550
12052W        W80446  24.192   5.905  11.461
12053W        W80447   4.523  36.333   4.348
12054W        W80448  18.318   4.906   3.671
12055W        W80449  17.237   7.594  13.826
12056W        W80450  32.030  24.520   1.310
12057W        W80451  41.308  37.052  11.179
12058W        W80452  18.246   5.292  12.017
12059W        W80453  10.810  22.096  13.798
12060W        W80454  31.407  29.102  10.703
12061W        W80455  35.554   6.147  13.014
12062W        W80456   6.720  35.965   4.285
12063W        W80457  17.568  30.874   0.001
12064W        W80458  15.220  18.002   0.236
12065W        W80459  41.841   8.641  12.571
12066W        W80460  20.067  11.190   2.862
12067W        W80461  15.776  22.455   0.486
12068W        W80462  14.224  27.760  12.450
12069W        W80463  12.093  39.932  10.804
12070W        W80464   5.593  10.478   3.522
12071W        W80465  10.410  41.334  11.582
12072W        W80466  31.003  36.369  11.666
12073W        W80467   3.275  18.090   4.125
12074W        W80468  31.871  21.310  12.590
12075W        W80469   9.713  32.507   0.868
12076W        W80470  35.631  10.849  12.529
12077W        W80471  44.268  34.864   1.029
12078W        W80472  10.863  37.485   0.032
12079W        W80473  16.411  41.995  12.149
12080W        W80474  14.546  22.971   4.227
12081W        W80475  11.220  27.049  11.121
12082W        W80476  27.729  40.776  11.518
12083W        W80477  11.538  12.178  11.624
12084W        W80478  38.516  27.649   4.839
12085W        W80479  38.592  12.654  10.799
12086W        W80480  36.372  23.772  13.563
12087W        W80481  14.610  41.559  11.533
12088W        W80482  24.864   6.660   4.855
12089W        W80483  27.627  41.028   3.520
12090W        W80484  19.650   0.511   2.252
12091W        W80485  18.714  37.137  14.826
12092W        W80486  37.886   5.481  11.673
12093W        W80487  29.906  26.138   3.036
12094W        W80488  35.336  24.874   3.760
12095W        W80489  22.527   1.694   3.343
12096W        W80490  30.482  11.872   4.541
12097W        W80491   4.179  32.329   2.236
12098W        W80492  43.034  36.519  12.587
12099W        W80493  31.048  12.375   1.269
12100W        W80494  21.219  18.734  11.102
12101W        W80495  35.520  30.984   2.304
12102W        W80496  26.863  36.775  12.065
12103W        W80497  42.927  42.070   4.647
12104W        W80498   1.377  13.543   3.342
12105W        W80499  34.984  42.849  10.129
12106W        W80500   5.919  39.299   2.703
12107W        W80501   9.384  30.981   4.315
12108W        W80502   5.214  23.487  13.377
12109W        W80503   9.180   1.879  14.949
12110W        W80504  14.050   9.730   0.794
12111W        W80505  39.703  11.886  11.682
12112W        W80506  23.996   8.762  11.498
12113W        W80507  36.375  19.425   0.203
12114W        W80508   6.696  18.596   1.587
12115W        W80509  27.456  18.588   1.295
12116W        W80510  29.109  32.015   0.946
12117W        W80511   8.250  24.686  13.062
12118W        W80512  22.061  26.225   5.514
12119W        W80513  31.487  19.457   1.162
12120W        W80514  35.661  37.016   0.020
12121W        W80515  26.737  12.978  12.766
12122W        W80516  26.950  33.827   0.439
12123W        W80517  26.594  40.869  11.102
12124W        W80518  12.485   2.310  11.553
12125W        W80519  15.346  37.984   2.155
12126W        W80520  19.382  31.943   1.606
12127W        W80521  25.180  17.967  12.744
12128W        W80522  34.022  30.650  13.316
12129W        W80523  44.815  16.284  13.796
12130W        W80524  36.541   0.867   0.651
12131W        W80525  18.489  17.131  11.495
12132W        W80526  32.360  40.034  12.339
12133W        W80527  39.407  31.191   3.795
12134W        W80528  22.694  18.538   2.651
12135W        W80529   6.344  21.844  12.368
12136W        W80530  15.571   3.759  14.022
12137W        W80531  36.138   3.284   0.604
12138W        W80532  28.532  42.791  12.918
12139W        W80533  32.063  23.756   0.972
12140W        W80534   2.343   5.318   0.874
12141W        W80535   4.118  30.095   2.322
12142W        W80536  11.889   2.275  14.851
12143W        W80537  25.752  41.147  13.495
12144W        W80538  27.579   7.186  11.222
12145W        W80539   5.667  17.417  12.194
12146W        W80540  24.217   7.137   3.296
12147W        W80541  23.176  10.155   0.895
12148W        W80542  42.734  40.026  11.047
12149W        W80543  24.027   5.755   3.270
12150W        W80544  42.227  34.010  13.188
12151W        W80545  41.646  34.594  10.700
12152W        W80546  17.097  34.722  13.952
12153W        W80547  29.072  15.117   2.543
12154W        W80548  39.281  20.965   2.102
12155W        W80549  21.836   3.297  10.235
12156W        W80550  35.793   5.814  12.406
12157W        W80551  27.865  29.609  11.650
12158W        W80552   5.324  42.417   5.052
12159W        W80553  16.028  42.794  12.474
12160W        W80554  18.768   3.513  12.961
12161W        W80555  34.340  40.378  14.435
12162W        W80556  37.429   7.423   1.963
12163W        W80557  29.889  31.870  11.591
12164W        W80558   8.496   1.940   3.627
12165W        W80559  44.078  14.672  14.495
12166W        W80560  22.178   6.283   3.112
12167W        W80561  25.143  42.462   0.094
12168W        W80562  25.121  11.135  13.869
12169W        W80563   9.806  14.612   1.244
12170W        W80564  12.748  29.068   4.684
12171W        W80565  18.515   2.316   2.891
12172W        W80566  21.727  37.088   0.389
12173W        W80567  36.032  37.912   2.770
12174W        W80568  23.307  21.393  13.913
12175W        W80569  34.953  19.018   2.836
12176W        W80570  26.502  19.256   3.839
12177W        W80571   9.165  28.034  13.906
12178W        W80572  17.320   5.877  13.377
12179W        W80573   9.403   6.695  12.653
12180W        W80574  13.976  14.574  12.808
12181W        W80575  27.120  21.989  11.987
12182W        W80576  17.361  26.329  11.399
12183W        W80577  11.720  37.539  13.917
12184W        W80578  42.359  32.889   3.594
12185W        W80579  21.637  10.368   1.729
12186W        W80580  37.957   8.161   3.134
12187W        W80581  16.290  34.544  14.516
12188W        W80582  12.654  14.533   2.617
12189W        W80583   7.832  33.290   4.851
12190W        W80584  35.145   8.781   0.071
12191W        W80585   5.863  30.128   3.585
12192W        W80586   5.174  41.836   3.607
12193W        W80587   6.307  32.730   2.388
12194W        W80588  14.233   7.906  10.233
12195W        W80589  11.353  14.624   4.186
12196W        W80590  44.268  11.054  12.603
12197W        W80591   2.367  23.002   2.501
12198W        W80592  38.622   5.290   3.840
12199W        W80593   3.726  11.642   3.830
12200W        W80594  10.979  10.614  12.710
12201W        W80595  25.403   8.413   4.618
12202W        W80596  13.031  23.992  13.553
12203W        W80597   6.261  31.690  11.536
12204W        W80598   1.193   0.472  13.483
12205W        W80599  14.247  23.925  13.941
12206W        W80600  20.987  44.861  10.498
12207W        W80601  21.251  13.351  14.921
12208W        W80602  32.548  33.126  10.781
12209W        W80603   3.494  23.678   3.622
12210W        W80604  30.388  14.146   0.227
12211W        W80605   4.990   8.899   4.834
12212W        W80606  40.882  38.718  14.413
12213W        W80607   4.326  39.581  13.713
12214W        W80608  42.801  12.375  11.558
12215W        W80609  22.645  40.669   2.244
12216W        W80610  19.264  30.841   3.788
12217W        W80611  29.383  33.024   3.211
12218W        W80612  20.420  11.825   2.600
12219W        W80613  37.702  13.297  10.741
12220W        W80614  43.985   9.519  12.933
12221W        W80615  23.931   2.341   2.619
12222W        W80616  24.151   9.250  11.521
12223W        W80617   3.951   3.696  14.300
12224W        W80618   3.684   8.758   1.433
12225W        W80619   6.907  32.615  11.645
12226W        W80620   2.560  34.185   3.651
12227W        W80621  26.531   4.215  11.658
12228W        W80622   8.559  40.843   3.115
12229W        W80623   0.791  38.277  10.616
12230W        W80624  23.110   2.000   4.605
12231W        W80625  23.862  37.520   1.647
12232W        W80626  28.146  42.414   3.261
12233W        W80627  25.727   1.854  13.777
12234W        W80628  13.949   9.360  12.427
12235W        W80629  18.743  38.885   1.836
12236W        W80630  34.756  29.237   4.577
12237W        W80631   0.563   9.778   1.045
12238W        W80632  27.921  37.979  10.933
12239W        W80633   0.374  16.633   1.320
12240W        W80634  29.554  43.052  11.286
12241W        W80635   6.441   9.926  14.959
12242W        W80636   3.524   3.689   1.485
12243W        W80637   0.844  22.318  13.757
12244W        W80638  34.167   0.474   3.723
12245W        W80639  38.820  28.124   2.374
12246W        W80640   1.761  13.832  12.442
12247W        W80641  14.196  35.286   2.097
12248W        W80642   9.597   1.847   1.401
12249W        W80643   2.975  23.163  10.780
12250W        W80644  36.854  12.838  12.917
12251W        W80645   7.359  27.210  13.343
12252W        W80646  27.285  29.804  10.924
12253W        W80647  13.353  12.019   4.534
12254W        W80648  35.334  15.346  10.721
12255W        W80649  30.614  10.485   0.571
12256W        W80650  43.332   2.902  12.306
12257W        W80651  10.030  15.070  11.502
12258W        W80652  29.218  27.169   3.174
12259W        W80653  18.370   4.922   9.861
12260W        W80654   3.965   6.934  11.236
12261W        W80655  37.586  42.952   4.090
12262W        W80656  20.304   1.366  13.732
12263W        W80657  36.119  43.017   2.930
12264W        W80658  42.441   3.209   1.474
12265W        W80659  10.636   4.952  12.015
12266W        W80660  32.401  38.833  13.929
12267W        W80661   2.256  26.159   0.877
12268W        W80662  20.610  22.490  13.050
12269W        W80663  41.705  18.520   1.460
12270W        W80664   1.212  33.281  11.588
12271W        W80665  25.647  25.546   3.639
12272W        W80666   5.134  15.252   2.267
12273W        W80667  27.547  42.667  12.466
12274W        W80668  14.394  15.302   3.397
12275W        W80669  11.668  30.376  14.980
12276W        W80670  43.287   5.407   2.186
12277W        W80671   1.820  41.003   4.521
12278W        W80672  17.898   1.360  10.924
12279W        W80673   6.403  17.785  12.984
12280W        W80674   4.238  15.363  12.843
12281W        W80675  14.832  10.675   4.802
12282W        W80676   4.712   9.719   4.163
12283W        W80677  37.445  27.156   1.158
12284W        W80678  35.361  16.854   3.927
12285W        W80679  30.724  26.751  11.733
12286W        W80680   8.741  37.532  10.845
12287W        W80681   8.792  12.141  10.633
12288W        W80682  19.021  26.073  12.506
12289W        W80683  26.034  20.773   3.265
12290W        W80684  16.609  21.259  13.588
12291W        W80685  37.615  13.602  11.204
12292W        W80686  13.695  27.252  14.093
12293W        W80687  34.541  26.710   2.187
12294W        W80688  33.579  35.104  11.675
12295W        W80689  21.089  28.213   0.790
12296W        W80690  22.335  10.294   4.554
12297W        W80691  13.853  11.683   3.722
12298W        W80692  25.321  10.126  14.629
12299W        W80693   3.467  38.967   4.200
12300W        W80694  42.982  38.841  10.705
12301W        W80695  24.965  22.001  12.101
12302W        W80696  12.216  33.886   2.691
12303W        W80697  28.668   0.392  13.030
12304W        W80698  32.909  25.165   1.712
12305W        W80699  44.324   5.441   1.201
12306W        W80700  25.907   3.341  10.572
12307W        W80701  29.372  28.867  10.276
12308W        W80702  23.709   6.179  13.938
12309W        W80703  10.985  35.874   2.544
12310W        W80704  28.631  38.548   3.704
12311W        W80705   7.344   8.933   3.601
12312W        W80706   0.114  42.496   0.681
12313W        W80707  13.634  43.028   2.348
12314W        W80708   1.929   1.903  14.134
12315W        W80709  31.309  34.508   1.202
12316W        W80710   4.244  40.917  14.755
12317W        W80711  29.694  11.202  12.987
12318W        W80712  16.036  43.882  10.815
12319W        W80713  24.217  17.326  13.481
12320W        W80714  32.034  34.855   4.697
12321W        W80715  23.110  18.303   0.695
12322W        W80716  14.286  39.441   4.500
12323W        W80717  32.532  33.685  13.392
12324W        W80718  40.088  13.319   1.776
12325W        W80719  13.282  42.777   2.682
12326W        W80720  39.374  35.998  12.164
12327W        W80721   7.075   8.902   2.809
12328W        W80722  21.594  37.330   3.253
12329W        W80723  35.099  34.119  13.478
12330W        W80724   8.347   8.849  13.138
12331W        W80725  39.069  25.585   0.484
12332W        W80726  36.809  15.108  13.882
12333W        W80727  33.714  31.478   3.627
12334W        W80728  31.949  21.013  11.926
12335W        W80729  10.327  33.445   4.104
12336W        W80730  36.560  39.152  13.442
12337W        W80731  14.138  25.660   3.790
12338W        W80732  10.235  20.724   2.777
12339W        W80733  44.908  14.720   1.243
12340W        W80734   2.151   5.869   1.930
12341W        W80735  11.079  16.786   1.937
12342W        W80736  21.237   7.005  13.418
12343W        W80737  29.114   8.303   4.292
12344W        W80738  13.518  41.403  14.970
12345W        W80739  20.573   7.237  12.835
12346W        W80740  32.385  19.270   2.017
12347W        W80741  15.699   8.098  11.470
12348W        W80742  32.528  25.183   0.459
12349W        W80743  30.263  28.000   4.145
12350W        W80744  38.004  38.113   1.341
12351W        W80745  32.909  11.293   1.012
12352W        W80746  44.955  18.664  13.364
12353W        W80747  14.389   3.431  13.052
12354W        W80748  12.376   2.280  14.554
12355W        W80749   7.213   8.882   4.965
12356W        W80750  27.397  24.541  11.648
12357W        W80751   3.568  14.752   0.442
12358W        W80752  24.989  16.371  12.796
12359W        W80753  16.219  35.910  12.366
12360W        W80754   9.756  16.961   3.155
12361W        W80755  10.807  43.084  14.100
12362W        W80756  14.871  11.224   0.366
12363W        W80757   2.283  28.529  13.173
12364W        W80758  30.189   7.639  14.897
12365W        W80759  22.958  43.328  12.954
12366W        W80760  37.100  19.298   4.204
12367W        W80761  19.979  21.673   0.398
12368W        W80762  18.225   0.579   4.229
12369W        W80763  44.478   7.421  13.595
12370W        W80764  31.662  36.779  12.375
12371W        W80765  24.369  16.738  12.879
12372W        W80766  12.544  32.080  11.230
12373W        W80767  10.182   6.039   4.079
12374W        W80768  38.429  24.997  12.397
12375W        W80769   4.717  21.499   2.330
12376W        W80770   6.901   8.897   4.553
12377W        W80771  38.270  43.509   3.780
12378W        W80772  39.148   5.908  12.065
12379W        W80773  10.734  38.479  12.118
12380W        W80774  20.776  38.030   3.736
12381W        W80775  17.222  18.566  13.398
12382W        W80776  13.258  39.519   3.003
12383W        W80777  41.941  38.451   2.618
12384W        W80778  11.173  37.505  10.628
12385W        W80779  43.317  14.194  14.035
12386W        W80780  28.968  40.487  12.134
12387W        W80781  16.057  13.760   3.907
12388W        W80782  14.740  42.026   2.276
12389W        W80783  43.712  39.613  14.455
12390W        W80784  22.102  24.631   2.216
12391W        W80785  11.509  22.477   1.004
12392W        W80786  13.896   7.748  14.502
12393W        W80787  16.399  26.010  11.694
12394W        W80788   5.673  37.918   1.047
12395W        W80789  12.085   8.869  13.841
12396W        W80790   1.552  39.514  13.401
12397W        W80791  20.996  20.796  10.993
12398W        W80792  28.844  30.490  10.979
12399W        W80793   8.250  44.810  13.091
12400W        W80794  15.309  25.677  14.920
12401W        W80795  15.306  28.899   0.533
12402W        W80796  10.896  35.537  14.611
12403W        W80797  39.331  41.557   4.572
12404W        W80798   1.424  14.106  11.447
12405W        W80799  23.119  32.647   1.937
12406W        W80800   3.377  17.662  13.965
12407W        W80801   2.356  24.440   2.051
12408W        W80802   3.660  35.188  14.893
12409W        W80803   2.615  36.438  11.213
12410W        W80804  10.855   6.938   2.658
12411W        W80805  21.758   0.486   0.666
12412W        W80806  17.281   5.712  14.490
12413W        W80807  18.236   9.699  12.538
12414W        W80808  11.608  29.539   0.483
12415W        W80809  31.467  26.599   3.120
12416W        W80810   8.131  34.666   0.848
12417W        W80811  22.009  17.837   3.862
12418W        W80812  10.902  36.318   1.580
12419W        W80813  42.513  22.188   3.720
12420W        W80814   4.360  32.340  13.838
12421W        W80815  23.170  13.355   0.579
12422W        W80816  42.861   6.315  11.246
12423W        W80817  31.414   0.873   2.795
12424W        W80818   5.891  15.605   4.366
12425W        W80819   3.092  37.279   4.073
12426W        W80820  14.167   7.158   0.884
12427W        W80821  10.397  11.779   3.568
12428W        W80822  17.516  31.710   1.204
12429W        W80823  10.094  21.006   4.569
12430W        W80824   0.522  27.390  11.742
12431W        W80825  28.420  28.496   4.138
12432W        W80826  28.649  18.897  14.391
12433W        W80827  28.577   4.093   3.805
12434W        W80828  42.899  27.747  13.854
12435W        W80829  17.306  32.013  12.613
12436W        W80830  21.624  25.205   0.914
12437W        W80831  13.367  44.490  13.798
12438W        W80832  15.690   4.894  12.497
12439W        W80833  20.751   8.838  12.373
12440W        W80834   2.416  23.897  10.322
12441W        W80835  36.177  42.503   1.793
12442W        W80836  39.788   0.981   0.389
12443W        W80837  23.261  10.849   1.404
12444W        W80838  37.248   4.872   1.789
12445W        W80839  11.885  31.346   1.993
12446W        W80840   8.606  18.521   0.713
12447W        W80841  18.134  22.071  11.430
12448W        W80842  40.382  23.083  14.997
12449W        W80843  15.374  39.569   2.575
12450W        W80844  24.036  33.957  10.706
12451W        W80845  44.835  23.359   1.968
12452W        W80846   8.333  12.908   1.158
12453W        W80847  25.995  29.942   0.342
12454W        W80848  23.929   9.544  11.941
12455W        W80849  14.092   8.349   4.573
12456W        W80850  38.955  40.102   0.798
12457W        W80851  29.117  23.106   4.111
12458W        W80852  21.177  10.506   5.201
12459W        W80853   0.378  11.173   1.240
12460W        W80854  35.352  12.067  11.942
12461W        W80855  32.569  42.469  14.245
12462W        W80856  20.230  35.306   1.449
12463W        W80857  31.752  43.705  12.535
12464W        W80858   7.780  21.610   2.673
12465W        W80859  25.184   9.651  13.821
12466W        W80860   8.473  17.155   2.620
12467W        W80861  44.392   7.098  11.625
12468W        W80862   5.224  37.004   3.229
12469W        W80863   8.995  25.987  14.402
12470W        W80864  11.546  15.225  14.883
12471W        W80865  29.038  37.957   2.239
12472W        W80866   0.752  35.066  11.243
12473W        W80867  32.677  11.263   3.367
12474W        W80868  21.499  26.938   1.655
12475W        W80869   8.357   1.019   3.576
12476W        W80870   6.188  16.551  13.892
12477W        W80871  32.115  16.631   0.710
12478W        W80872   6.985  26.794  11.210
12479W        W80873  35.072   3.798  13.907
12480W        W80874  44.246  34.370  13.084
12481W        W80875  39.056  42.052   1.717
12482W        W80876  32.909  44.689   3.278
12483W        W80877  30.800  28.990  14.646
12484W        W80878  36.151  37.640   0.482
12485W        W80879  36.871   7.375   0.855
12486W        W80880  19.768  14.738  14.818
12487W        W80881  15.999   2.508   1.780
12488W        W80882  23.834  10.532  12.580
12489W        W80883  23.556   0.747  10.982
12490W        W80884   1.893   8.849   2.354
12491W        W80885   8.239  35.458   4.980
12492W        W80886  40.301  16.689   3.920
12493W        W80887   3.372  33.648  10.642
12494W        W80888   2.759  31.580   2.366
12495W        W80889  28.434  26.707   3.253
12496W        W80890   2.824  40.614  13.809
12497W        W80891  18.641  15.550   1.467
12498W        W80892   2.776   7.630   0.888
12499W        W80893  33.305  35.771   0.648
12500W        W80894  24.469   8.424   5.595
12501W        W80895  40.501  15.601   4.623
12502W        W80896  41.496  14.360  10.945
12503W        W80897  20.630  36.597  14.039
12504W        W80898   1.869  43.930  14.481
12505W        W80899  13.488  24.406  12.028
12506W        W80900  40.125  16.084   3.463
12507W        W80901  23.463  18.452  12.551
12508W        W80902  31.921  41.076   0.911
12509W        W80903  44.487  23.127  14.824
12510W        W80904   6.287  39.486   2.139
12511W        W80905   9.366   3.930   1.885
12512W        W80906  21.149   3.395   1.723
12513W        W80907  42.956  27.042   2.317
12514W        W80908  42.150  18.282   4.060
12515W        W80909  22.462  24.383   3.789
12516W        W80910  27.649  26.626  10.698
12517W        W80911  31.580   6.084  12.939
12518W        W80912  15.250  38.932   3.796
12519W        W80913  20.516  34.317   1.921
12520W        W80914   2.239  39.074   1.717
12521W        W80915  18.892   0.356   1.756
12522W        W80916   8.159  34.527  13.370
12523W        W80917   1.352  25.230   2.597
12524W        W80918  13.490  21.126  12.593
12525W        W80919   0.836   6.032   3.204
12526W        W80920  39.945   4.444  13.491
12527W        W80921  19.292  19.245   4.369
12528W        W80922  14.199   7.785  11.612
12529W        W80923  38.356  41.432   3.567
12530W        W80924   0.078  35.836   0.363
12531W        W80925  44.037  14.949   1.266
12532W        W80926  15.489  29.010   4.141
12533W        W80927  33.743  20.218   4.271
12534W        W80928  30.455  35.551   4.440
12535W        W80929  13.597  33.592  13.717
12536W        W80930  34.492  11.085   4.401
12537W        W80931  35.406  26.752  14.321
12538W        W80932   0.438  44.658  10.647
12539W        W80933  27.971  43.437   1.169
12540W        W80934  36.650   9.153  11.255
12541W        W80935  38.414  12.218   1.098
12542W        W80936  41.549  22.492   4.766
12543W        W80937  31.061  26.519  13.894
12544W        W80938  10.828   1.095   1.353
12545W        W80939  34.038  35.787  11.105
12546W        W80940  37.099  12.852  12.474
12547W        W80941  13.585  14.110   1.759
12548W        W80942  32.591  16.727   1.017
12549W        W80943  44.241  21.375   2.551
12550W        W80944  29.123  27.352  14.078
12551W        W80945  20.767  22.931  13.956
12552W        W80946  27.655  41.482  11.972
12553W        W80947  11.853   1.354  14.830
12554W        W80948   7.169  17.114   4.560
12555W        W80949  23.588  12.646  13.075
12556W        W80950  33.852  40.942  11.189
12557W        W80951  29.516   7.803  12.885
12558W        W80952  35.458  24.555  10.265
12559W        W80953  12.567  40.985   4.561
12560W        W80954  36.691  17.763  13.801
12561W        W80955  16.831   1.084  13.521
12562W        W80956  41.208  32.960   3.272
12563W        W80957  24.214   1.871  13.119
12564W        W80958   0.849  35.624   3.702
12565W        W80959  19.318  31.572   1.996
12566W        W80960  12.518  24.004  11.326
12567W        W80961  43.949  13.132  14.383
12568W        W80962  39.643  29.503   3.154
12569W        W80963  12.337  37.348   1.220
12570W        W80964  28.397  28.725   0.309
12571W        W80965  38.486  44.405   4.340
12572W        W80966  42.359  20.312  11.018
12573W        W80967  25.557  43.477   1.920
12574W        W80968  37.749   2.709   1.848
12575W        W80969  20.486  23.139  13.570
12576W        W80970  30.392  20.956  13.782
12577W        W80971  32.070   7.137   5.007
12578W        W80972  23.231  26.677   1.345
12579W        W80973  18.586  42.018   2.198
12580W        W80974  26.005  16.319   2.742
12581W        W80975  10.272  32.865  10.587
12582W        W80976  42.954  22.613   4.945
12583W        W80977   9.863  18.206   4.820
12584W        W80978   4.521   5.932  12.570
12585W        W80979  37.045  36.828   3.216
12586W        W80980  14.247  20.561   3.778
12587W        W80981  27.928  44.917  14.708
12588W        W80982  28.446  28.150  13.164
12589W        W80983  11.519   9.428   4.899
12590W        W80984  19.987  39.025   2.247
12591W        W80985   9.277  23.431  10.709
12592W        W80986  10.154  39.050  14.391
12593W        W80987   1.878  27.766  12.897
12594W        W80988  25.161  20.196   3.566
12595W        W80989   4.681  24.969   3.177
12596W        W80990   5.696  17.657   4.607
12597W        W80991  26.970  43.293  13.039
12598W        W80992  16.737   1.365  12.928
12599W        W80993   1.788  14.831   3.180
12600W        W80994  18.429  32.972  13.973
12601W        W80995   2.380  36.000   0.728
12602W        W80996   3.437   3.417  13.465
12603W        W80997  12.088  15.832   2.873
12604W        W80998   7.232  24.298  12.448
12605W        W80999  39.849  24.252   1.784
12606W        W81000  29.474  22.978   0.032
12607W        W81001  26.966  41.859  13.196
12608W        W81002  23.711  24.645  13.993
12609W        W81003   1.908  17.533  10.665
12610W        W81004  39.111  20.041   1.857
12611W        W81005  40.852   5.259   2.637
12612W        W81006  24.702  14.555  11.969
12613W        W81007   0.929  20.990  14.525
12614W        W81008   6.695   0.233   1.330
12615W        W81009  21.497  31.506  12.469
12616W        W81010   0.476   0.734  13.583
12617W        W81011  33.152  26.556  11.913
12618W        W81012  12.145  22.986   5.007
12619W        W81013   9.410  18.191  14.413
12620W        W81014  43.678  15.073   3.981
12621W        W81015  17.675  38.963  11.535
12622W        W81016  15.129  32.011  13.941
12623W        W81017  12.681  31.672  13.066
12624W        W81018  40.311  28.721  11.254
12625W        W81019   1.085  22.824   3.470
12626W        W81020  37.496  23.199  14.532
12627W        W81021  10.151   4.976  10.596
12628W        W81022   4.251  43.047  13.007
12629W        W81023  12.356  10.656  12.307
12630W        W81024  37.272  29.953  11.489
12631W        W81025   1.199  39.527  14.822
12632W        W81026  27.739  28.012   3.097
12633W        W81027   0.048  20.259  11.175
12634W        W81028   4.467  38.017   0.371
12635W        W81029   4.411  24.186  13.181
12636W        W81030  26.944  40.593  11.349
12637W        W81031  22.731   1.871  13.165
12638W        W81032  42.765   2.922  12.119
12639W        W81033  12.551  14.398  11.906
12640W        W81034  19.246  22.494   2.204
12641W        W81035  21.531   5.664  11.503
12642W        W81036   6.840  33.971  14.517
12643W        W81037  39.985  23.430   3.626
12644W        W81038  32.721   7.078   1.432
12645W        W81039   2.320  13.105   4.182
12646W        W81040   4.008   4.187  12.050
12647W        W81041  37.142  22.714  11.550
12648W        W81042   8.156  10.621   1.338
12649W        W81043   7.820   0.358   0.053
12650W        W81044  21.677  33.924   0.750
12651W        W81045  30.068  19.253   2.650
12652W        W81046  29.026  31.130  13.632
12653W        W81047  26.501  10.877  13.476
12654W        W81048  37.993  16.169   0.950
12655W        W81049  17.656   8.974   4.541
12656W        W81050  31.146  15.155   3.590
12657W        W81051  32.545  37.556  12.416
12658W        W81052  17.932  22.795   0.884
12659W        W81053   3.954  33.461   3.233
12660W        W81054   4.236  42.170   3.698
12661W        W81055  24.681  16.848   0.404
12662W        W81056  20.231  15.286   0.355
12663W        W81057   4.372  12.872   3.286
12664W        W81058  41.956  29.347  14.029
12665W        W81059  12.687  10.158  13.297
12666W        W81060  44.010   5.047   1.970
12667W        W81061  13.947  18.762  14.274
12668W        W81062  38.077  28.185  11.366
12669W        W81063  27.202  37.047  14.284
12670W        W81064  14.251  38.137  10.241
12671W        W81065  14.186  24.281   3.613
12672W        W81066   5.157  42.946   1.237
12673W        W81067  35.141   3.952   1.013
12674W        W81068  42.600  38.792  11.590
12675W        W81069  33.818  40.440  14.459
12676W        W81070  14.327  29.524   0.976
12677W        W81071  40.816   4.728   0.382
12678W        W81072   3.639  21.140  13.473
12679W        W81073  32.695  27.768   2.757
12680W        W81074   6.463   9.854   1.287
12681W        W81075  35.096  44.985   2.764
12682W        W81076  11.623  19.997   4.150
12683W        W81077  36.061  19.211  13.913
12684W        W81078  31.140  39.801  10.775
12685W        W81079  12.063   5.918   4.189
12686W        W81080  22.687  41.803   4.142
12687W        W81081   2.274  34.507   1.656
12688W        W81082  31.349  38.804  11.006
12689W        W81083   6.699  24.580  14.313
12690W        W81084   0.045   8.363  11.758
12691W        W81085  19.739  44.684  14.264
12692W        W81086  26.825  23.507   0.965
12693W        W81087  41.599   2.033  13.717
12694W        W81088   3.774  17.129   1.459
12695W        W81089  24.517  15.116  13.793
12696W        W81090   9.832  41.499  14.761
12697W        W81091  41.021   6.318  13.028
12698W        W81092  32.913   6.339  12.894
12699W        W81093   3.843  12.576   9.914
12700W        W81094  28.072  27.039   0.683
12701W        W81095  18.320  15.247  10.688
12702W        W81096  37.497  24.029  10.677
12703W        W81097  33.549  33.644  11.931
12704W        W81098  27.720  43.704   2.768
12705W        W81099  32.203  31.367  11.565
12706W        W81100  29.403   1.526  13.627
12707W        W81101  25.528  27.405   0.777
12708W        W81102   3.364  34.762  10.765
12709W        W81103   7.226   1.955  14.887
12710W        W81104  17.100  40.586  12.955
12711W        W81105  22.904  25.657  10.165
12712W        W81106   7.039   5.082  11.226
12713W        W81107  10.857  21.378   4.108
12714W        W81108  23.680  44.716  12.134
12715W        W81109  32.108  29.298  13.655
12716W        W81110  28.779  18.076   4.466
12717W        W81111  44.031  32.313   1.735
12718W        W81112  37.351  30.168  10.604
12719W        W81113  37.892  19.325  12.397
12720W        W81114   6.699  16.849   2.745
12721W        W81115  39.932   1.418   3.190
12722W        W81116   8.750  40.905  11.418
12723W        W81117  40.317  14.316   1.301
12724W        W81118  34.070  28.545   3.910
12725W        W81119  16.858  22.695   4.302
12726W        W81120  36.271  23.678  11.973
12727W        W81121  16.500  20.670   0.660
12728W        W81122   4.480  21.704   2.755
12729W        W81123  16.532  26.247   4.158
12730W        W81124  33.697  30.364  14.598
12731W        W81125  30.622  28.115   0.843
12732W        W81126  23.004  30.864  12.033
12733W        W81127  36.484   6.291   3.430
12734W        W81128  37.617  23.610  11.542
12735W        W81129  35.972  15.054   4.845
12736W        W81130   4.179  19.249   1.723
12737W        W81131  28.668   8.619   3.488
12738W        W81132   8.713  32.056  10.507
12739W        W81133  28.246  34.336   4.537
12740W        W81134  32.496  18.117   1.288
12741W        W81135  40.647   3.304   0.188
12742W        W81136  38.748  21.652  13.861
12743W        W81137  41.526  42.102  12.841
12744W        W81138  10.818  37.061  14.248
12745W        W81139  27.101  38.571   0.887
12746W        W81140  43.231   5.757   3.076
12747W        W81141  11.245  21.128  13.831
12748W        W81142  19.181  17.184  14.699
12749W        W81143  30.938  25.156   3.968
12750W        W81144  30.748  29.009   2.153
12751W        W81145   5.807  36.974   4.645
12752W        W81146  40.465  30.663   0.342
12753W        W81147  44.573  14.725  11.932
12754W        W81148  10.970  34.538   4.495
12755W        W81149   2.956   3.910  12.838
12756W        W81150   6.839  24.312   3.039
12757W        W81151  16.626  22.336   4.596
12758W        W81152  22.910  38.298   4.226
12759W        W81153  31.993  41.255   3.205
12760W        W81154  26.000   1.193   0.751
12761W        W81155  34.024  40.058   4.607
12762W        W81156  13.111  33.667  11.649
12763W        W81157  25.564  27.042   0.297
12764W        W81158  20.217  30.852   5.261
12765W        W81159  34.450   0.428   2.286
12766W        W81160   4.107   2.211  14.616
12767W        W81161   8.804   1.435  11.169
12768W        W81162   8.642  41.267  12.344
12769W        W81163   0.631  29.056  12.981
12770W        W81164   6.937  36.954   2.708
12771W        W81165  26.642  41.316   4.868
12772W        W81166  36.856   4.813  14.369
12773W        W81167  21.567  40.586  13.044
12774W        W81168  28.511  36.143   2.212
12775W        W81169   5.976  30.226   2.730
12776W        W81170  34.015   4.392  14.774
12777W        W81171  33.359  10.332   4.507
12778W        W81172   5.243  27.801  11.032
12779W        W81173   2.805  10.380  11.144
12780W        W81174  10.727  15.474   4.252
12781W        W81175   4.953  18.611   3.680
12782W        W81176  15.338  44.711  12.831
12783W        W81177  30.737   0.408   4.487
12784W        W81178  28.631  15.310  14.408
12785W        W81179   8.314  10.864   3.390
12786W        W81180  29.931  32.783   0.361
12787W        W81181  28.502   7.887  11.988
12788W        W81182  20.733   6.628  11.727
12789W        W81183  10.164  33.266   0.365
12790W        W81184  43.372  43.421   1.789
12791W        W81185   1.783   4.229   3.700
12792W        W81186   8.757  44.925  10.960
12793W        W81187  26.369  16.318   3.664
12794W        W81188  31.528  33.693  13.182
12795W        W81189  18.353  21.311   0.880
12796W        W81190   9.415  33.848   0.825
12797W        W81191  14.743   7.368  12.585
12798W        W81192  43.571  43.036   3.630
12799W        W81193  22.551  24.000  10.735
12800W        W81194   4.333  12.911  13.084
12801W        W81195  16.724   7.508  12.093
12802W        W81196   3.593  28.086  14.368
12803W        W81197  37.410   9.288   4.012
12804W        W81198  14.974  30.154  11.202
12805W        W81199  19.280  23.724  13.487
12806W        W81200  10.095  30.485   4.552
12807W        W81201  35.902   1.637   0.733
12808W        W81202  25.333   9.025  14.266
12809W        W81203  29.593   3.280  12.987
12810W        W81204  22.514  35.342  12.917
12811W        W81205   3.722  11.752   3.342
12812W        W81206  13.108  41.999   3.660
12813W        W81207   4.020  10.353   1.342
12814W        W81208  16.035   6.843  11.839
12815W        W81209  10.855   3.485   3.379
12816W        W81210   9.191  25.650  11.713
12817W        W81211  11.774  11.271  12.164
12818W        W81212  13.504   9.828   4.802
12819W        W81213  19.055  18.655  12.897
12820W        W81214   7.590  42.769   4.197
12821W        W81215  27.183   9.260  12.167
12822W        W81216  43.059   5.274   4.785
12823W        W81217   0.955  35.650  14.353
12824W        W81218  26.975  27.691   0.985
12825W        W81219  25.062  29.191  14.965
12826W        W81220  19.271  32.143   0.280
12827W        W81221  44.348   8.653   4.564
12828W        W81222  34.366   2.387  11.560
12829W        W81223  32.942  10.295   0.523
12830W        W81224  37.571  43.678   2.338
12831W        W81225  43.869   9.861  11.943
12832W        W81226  24.164  32.424  12.225
12833W        W81227  25.221  38.521  10.655
12834W        W81228  42.508   2.317   4.672
12835W        W81229  29.659  30.460   0.360
12836W        W81230  12.139   5.091   1.303
12837W        W81231  35.023  29.446  12.923
12838W        W81232   4.618  29.958  11.086
12839W        W81233   1.200  43.550   1.696
12840W        W81234  30.677  43.079  12.842
12841W        W81235   2.981   0.762   1.749
12842W        W81236   4.299  35.265   0.707
12843W        W81237  41.263  40.745  11.771
12844W        W81238   2.487  10.307   0.376
12845W        W81239  20.949  14.929  12.554
12846W        W81240   1.075  39.904  11.694
12847W        W81241  33.575  27.400   2.722
12848W        W81242   5.226  25.741   2.328
12849W        W81243  27.527  20.097  13.750
12850W        W81244  28.504   3.444  12.348
12851W        W81245  14.642  16.123   3.818
12852W        W81246  39.076  44.378  12.279
12853W        W81247  39.441  31.416  11.134
12854W        W81248   1.756  31.578   4.358
12855W        W81249  14.035  17.602   1.928
12856W        W81250  11.705   4.023  11.594
12857W        W81251  10.439  30.880   4.640
12858W        W81252   5.716   3.996  10.958
12859W        W81253  44.920  27.662  13.188
12860W        W81254  14.755  40.445   2.212
12861W        W81255  44.708  29.203  12.968
12862W        W81256  20.670  40.171  10.851
12863W        W81257  14.364  15.768   3.123
12864W        W81258  24.979  29.469  12.100
12865W        W81259  30.808   7.142   1.416
12866W        W81260  40.067  16.114   0.350
12867W        W81261  10.344  32.562   4.657
12868W        W81262  43.467  16.201  10.781
12869W        W81263  14.370  26.100   4.328
12870W        W81264  20.443  35.073   2.902
12871W        W81265  40.282  17.400   3.236
12872W        W81266  29.878   8.347   0.606
12873W        W81267  18.078   4.758  14.815
12874W        W81268  11.440  38.706   5.041
12875W        W81269   7.387  39.896  11.114
12876W        W81270  27.724  15.139   1.870
12877W        W81271   6.432   1.268   0.010
12878W        W81272  25.163  39.816   2.270
12879W        W81273  18.838  34.818   2.246
12880W        W81274  30.423  12.325  11.097
12881W        W81275   8.028  32.113  10.127
12882W        W81276  34.673  34.934  13.031
12883W        W81277  42.195  36.096  11.589
12884W        W81278  30.444  11.619   1.162
12885W        W81279  40.817  36.742   9.879
12886W        W81280   7.894  36.640  11.139
12887W        W81281  31.357  18.690   2.638
12888W        W81282  16.940  30.463  12.086
12889W        W81283   6.172  36.877   1.264
12890W        W81284  21.281  45.000   4.352
12891W        W81285   2.955  21.563  14.746
12892W        W81286  18.678  25.444   5.422
12893W        W81287  35.303  34.005  11.610
12894W        W81288  21.538  24.010   4.198
12895W        W81289  18.728   9.087  14.812
12896W        W81290  17.812  15.107   3.459
12897W        W81291  41.314   4.237  12.394
12898W        W81292  14.081   9.676   1.789
12899W        W81293  31.875  20.022  13.909
12900W        W81294  36.646  16.514   0.640
12901W        W81295  28.651  31.665  14.518
12902W        W81296  27.120  33.016   4.498
12903W        W81297  44.850  33.775  13.425
12904W        W81298   4.165  26.024   4.700
12905W        W81299  43.935   9.936   4.825
12906W        W81300  31.103  13.889   2.372
12907W        W81301   6.852  15.082   0.489
12908W        W81302  39.283  15.620  14.404
12909W        W81303   4.221   2.699  10.169
12910W        W81304  26.599  15.969  14.510
12911W        W81305  18.442  31.956   3.774
12912W        W81306  10.737   3.482   4.749
12913W        W81307  10.057  12.612   0.377
12914W        W81308  12.667  18.898  12.270
12915W        W81309  16.519  26.541   3.710
12916W        W81310  35.093  11.217   2.323
12917W        W81311  40.830  33.146   0.793
12918W        W81312  14.657   0.425   2.762
12919W        W81313  34.096  11.053  11.006
12920W        W81314  27.031  25.777  11.869
12921W        W81315  32.025  31.109  12.074
12922W        W81316  11.430  28.074  12.396
12923W        W81317  15.298  16.904  13.509
12924W        W81318  23.448  36.137   2.341
12925W        W81319  29.042  40.785  13.448
12926W        W81320  19.044   5.134  14.475
12927W        W81321  25.974   6.994  10.720
12928W        W81322  40.206  22.758  10.388
12929W        W81323  24.433  40.550  12.797
12930W        W81324   3.770  31.180  14.353
12931W        W81325  18.422   8.250  11.508
12932W        W81326  30.222  24.022  13.311
12933W        W81327  42.243   9.206  14.181
12934W        W81328  19.116  43.822  12.009
12935W        W81329  31.878   0.522  13.501
12936W        W81330  19.603  14.358   1.740
12937W        W81331  10.215  13.322   1.197
12938W        W81332  32.747  19.074  11.169
12939W        W81333  14.122  35.085   1.372
12940W        W81334   7.398  34.455   1.306
12941W        W81335   0.626   8.729  10.475
12942W        W81336  21.027  11.107  14.384
12943W        W81337  39.549  34.417   4.335
12944W        W81338  28.647   8.129   0.569
12945W        W81339  21.043  20.709  11.476
12946W        W81340  33.883  25.990   3.602
12947W        W81341  25.399  10.238   0.523
12948W        W81342  36.314  21.282   3.278
12949W        W81343  25.503  25.655  14.494
12950W        W81344   7.632  35.488  13.079
12951W        W81345  43.312  10.092   0.862
12952W        W81346   4.655  34.701   3.570
12953W        W81347  31.083  24.570  12.427
12954W        W81348  10.080  43.304   1.208
12955W        W81349  37.190  37.290  14.191
12956W        W81350  33.055  22.912   1.389
12957W        W81351  28.181  15.030  12.176
12958W        W81352  25.678  37.018  14.464
12959W        W81353  30.118  11.887  11.564
12960W        W81354   2.236   8.603   4.346
12961W        W81355  40.068   8.379  10.718
12962W        W81356  10.908  39.640  12.177
12963W        W81357  20.807  27.059  11.674
12964W        W81358  41.909  40.914  13.390
12965W        W81359  25.106   6.294  13.347
12966W        W81360  30.512  39.490   0.765
12967W        W81361  38.936  11.255  14.935
12968W        W81362  10.383  38.337  12.503
12969W        W81363   5.384   4.955   0.029
12970W        W81364  39.631  17.574   2.526
12971W        W81365   8.327   7.879   4.168
12972W        W81366  22.232  24.161  12.512
12973W        W81367  28.822   5.445  12.128
12974W        W81368  12.709   2.000   3.869
12975W        W81369  16.710  31.447   2.318
12976W        W81370  28.342  33.023  11.643
12977W        W81371  25.193  10.237   3.694
12978W        W81372  40.046  12.597  11.584
12979W        W81373  14.530   7.875  12.587
12980W        W81374  36.807   9.984  13.975
12981W        W81375  24.538   3.779  14.538
12982W        W81376  25.630  32.803  14.405
12983W        W81377   9.495   0.346  13.641
12984W        W81378  27.232   7.244  13.552
12985W        W81379  22.939  17.392   0.508
12986W        W81380  41.082   9.810  11.612
12987W        W81381  34.635   1.679   4.105
12988W        W81382  22.575  19.025   4.155
12989W        W81383  39.871  19.472   0.860
12990W        W81384  11.876  21.718  12.821
12991W        W81385  19.525  13.523  14.416
12992W        W81386  26.398  39.422   3.529
12993W        W81387   1.329   3.266  10.546
12994W        W81388  28.714   5.260  14.409
12995W        W81389  41.286  20.683  11.868
12996W        W81390  14.505   9.938   5.082
12997W        W81391   1.402  22.441   3.589
12998W        W81392   0.494  34.366  14.546
12999W        W81393  23.043  13.192   2.792
13000W        W81394  15.511  22.018   0.415
13001W        W81395  26.922  31.273  11.197
13002W        W81396  16.097  33.642   2.740
13003W        W81397  21.341  26.403  14.113
13004W        W81398  34.870  13.645  11.012
13005W        W81399  38.006  37.823   0.517
13006W        W81400  30.130  19.064   3.748
13007W        W81401   7.837  36.430  11.600
13008W        W81402  39.457  42.224  12.454
13009W        W81403   8.007   1.932   3.359
13010W        W81404  39.497  27.170   0.534
13011W        W81405  24.469  35.285   3.625
13012W        W81406  14.843  14.366  11.554
13013W        W81407  11.158  33.316   2.171
13014W        W81408  20.261  13.243   2.855
13015W        W81409  37.379  39.896  11.151
13016W        W81410  37.917  41.172  11.132
13017W        W81411  37.904  10.515   0.708
13018W        W81412  36.887  19.557  13.003
13019W        W81413   3.898   0.774  11.958
13020W        W81414  27.133   1.236  12.924
13021W        W81415  37.951  37.994   3.326
13022W        W81416  42.145  41.730   4.176
13023W        W81417  22.788  31.471  14.419
13024W        W81418  39.503  30.376  13.571
13025W        W81419  32.437  41.504   3.118
13026W        W81420  28.508   8.669  14.332
13027W        W81421   2.696  40.654  10.874
13028W        W81422  33.156   0.713   2.320
13029W        W81423  25.078  25.553   1.362
13030W        W81424   1.863  15.809   0.333
13031W        W81425  35.441  28.099  12.940
13032W        W81426   7.024   0.276   4.209
13033W        W81427   1.320  22.341   4.573
13034W        W81428  34.888  41.442   1.193
13035W        W81429  25.587   9.799  11.612
13036W        W81430  37.916  23.580   3.789
13037W        W81431   0.009  42.910  11.085
13038W        W81432  14.267  23.950   3.226
13039W        W81433  29.056   3.994  12.965
13040W        W81434  22.265  38.735  13.317
13041W        W81435   4.653  16.825  11.260
13042W        W81436  39.963  25.928   0.850
13043W        W81437  36.886   1.796   2.146
13044W        W81438   3.231  44.266   1.295
13045W        W81439  42.779  26.149  11.575
13046W        W81440  41.961   1.600  12.775
13047W        W81441  43.776  22.687  14.567
13048W        W81442  31.707  14.667   4.463
13049W        W81443   1.397  36.476   3.694
13050W        W81444   6.496   1.464  12.021
13051W        W81445  20.632  44.448  12.784
13052W        W81446  19.290  44.909  13.432
13053W        W81447  39.638  30.854  13.771
13054W        W81448  36.867  29.662   3.640
13055W        W81449   1.384  26.245   1.410
13056W        W81450  36.285  13.733   2.393
13057W        W81451   7.165  27.376   1.788
13058W        W81452   1.027   0.218   3.680
13059W        W81453  36.228  15.129  12.323
13060W        W81454  40.620   1.448  11.212
13061W        W81455   7.339  38.755   1.494
13062W        W81456  41.364  24.731  12.487
13063W        W81457  34.721  25.513  14.637
13064W        W81458  28.113  31.091   4.303
13065W        W81459  29.016  42.420  14.102
13066W        W81460  14.108  42.724  14.148
13067W        W81461   2.106  41.253  10.665
13068W        W81462  32.527   5.789   0.786
13069W        W81463  32.593  24.631   0.762
13070W        W81464  28.392   5.854   4.575
13071W        W81465  18.209  26.260   3.820
13072W        W81466  21.028  11.510  14.031
13073W        W81467  12.177  22.147  10.659
13074W        W81468  38.996   1.357  11.146
13075W        W81469  31.138  30.123  13.957
13076W        W81470  39.488  27.672  14.604
13077W        W81471   5.341  23.573   2.647
13078W        W81472   4.006  42.759   0.724
13079W        W81473   9.883  19.271  11.628
13080W        W81474  29.944  42.628  12.581
13081W        W81475   4.386   1.224  11.094
13082W        W81476   4.736  42.287   4.223
13083W        W81477  30.471   1.294   1.878
13084W        W81478  33.930  39.937  12.827
13085W        W81479  29.137  33.446  14.042
13086W        W81480   9.168  35.368  12.082
13087W        W81481  44.097   8.410  12.008
13088W        W81482  29.500  41.395  14.425
13089W        W81483  21.821  12.902  12.062
13090W        W81484   8.306   8.311   4.534
13091W        W81485   7.341  31.680  10.719
13092W        W81486  41.775   6.802   1.227
13093W        W81487  36.297  13.274   4.089
13094W        W81488  22.147  29.690  12.148
13095W        W81489   4.667  42.323  12.685
13096W        W81490  34.541  40.308  11.107
13097W        W81491   3.475   2.876   3.573
13098W        W81492   0.027  25.776  11.645
13099W        W81493  35.913   8.866  12.447
13100W        W81494  28.436  25.390   4.125
13101W        W81495  34.894  25.110  13.933
13102W        W81496  18.781   0.859  14.985
13103W        W81497   6.403  33.858  10.585
13104W        W81498  26.157   4.174   1.277
13105W        W81499   4.689  36.203   0.506
13106W        W81500  10.692  30.106   1.678
13107W        W81501  41.808  34.753  12.956
13108W        W81502   9.548  27.950   3.819
13109W        W81503  34.106   2.246   1.494
13110W        W81504  33.391  29.888   4.199
13111W        W81505  18.192   8.435  11.078
13112W        W81506  26.548  25.548  14.208
13113W        W81507  39.907   3.439  13.544
13114W        W81508  39.882  38.562   2.144
13115W        W81509   8.388  18.755  11.085
13116W        W81510   0.117   9.678  14.050
13117W        W81511  35.971  35.816  11.090
13118W        W81512  17.322  13.774   1.970
13119W        W81513  20.187  25.798  10.705
13120W        W81514  12.937   1.752  13.893
13121W        W81515  41.144  19.212  12.794
13122W        W81516  44.832  15.886  13.424
13123W        W81517   2.245  42.391  13.512
13124W        W81518  12.573  10.601  10.738
13125W        W81519  11.341  11.929  13.946
13126W        W81520   7.646  28.166  13.803
13127W        W81521  19.995  44.437  14.656
13128W        W81522   7.460  18.241  13.274
13129W        W81523  41.502  38.399   2.878
13130W        W81524  26.904  11.697  11.954
13131W        W81525  40.535  38.331   3.307
13132W        W81526   9.163  33.977  12.999
13133W        W81527  28.672   1.715   2.364
13134W        W81528   6.203  12.434  13.300
13135W        W81529   2.432  41.300   1.437
13136W        W81530   7.516   5.763   2.350
13137W        W81531  43.046  25.798  12.469
13138W        W81532  15.534  15.451  13.163
13139W        W81533  28.765  26.719  14.609
13140W        W81534  28.668  35.220  11.845
13141W        W81535   3.629  24.587   3.954
13142W        W81536  36.675   3.736  12.859
13143W        W81537   8.936   1.602  12.914
13144W        W81538  39.896  39.825   1.765
13145W        W81539  41.542  27.027  13.524
13146W        W81540   8.555   7.349  11.517
13147W        W81541  23.757  21.863  10.735
13148W        W81542   6.503  32.018   4.015
13149W        W81543   0.966  17.027  14.485
13150W        W81544  23.503  26.921   0.477
13151W        W81545  18.515  16.613  13.015
13152W        W81546  26.014   7.585  13.604
13153W        W81547  24.959  40.829  11.105
13154W        W81548  13.224  17.684   2.324
13155W        W81549   9.714  14.203  11.424
13156W        W81550  36.501   3.244  12.113
13157W        W81551  35.986  44.249   2.241
13158W        W81552   8.248  27.452   4.567
13159W        W81553   8.884   2.338  10.606
13160W        W81554   2.601  40.662   4.106
13161W        W81555   6.678  41.381   0.852
13162W        W81556  43.196  17.034   4.219
13163W        W81557  33.979  28.358  13.958
13164W        W81558  27.320   1.954   2.755
13165W        W81559  38.038  31.021   0.738
13166W        W81560  26.150  28.636  11.693
13167W        W81561  22.103  33.671  12.449
13168W        W81562  26.173   3.165   2.665
13169W        W81563  24.511  42.072   2.273
13170W        W81564  14.395  30.635  14.979
13171W        W81565  17.082   7.506  12.494
13172W        W81566  13.010  36.595   2.681
13173W        W81567   6.048  20.478   3.186
13174W        W81568  34.398  35.051   2.549
13175W        W81569  15.766  13.167  12.565
13176W        W81570   0.631   2.266   4.178
13177W        W81571  32.655  28.047   4.471
13178W        W81572   6.125   9.348  10.626
13179W        W81573   5.308  12.440   1.423
13180W        W81574   0.336  22.673  12.956
13181W        W81575   5.540  21.729  12.126
13182W        W81576  17.805   0.287   1.773
13183W        W81577  17.800   3.577   1.678
13184W        W81578  14.715  36.574   2.151
13185W        W81579  37.803  36.070  10.681
13186W        W81580  32.147   5.389  12.044
13187W        W81581  31.950  20.240  14.402
13188W        W81582  33.009  18.231   1.421
13189W        W81583  19.187  42.170  13.959
13190W        W81584  29.240  10.689   2.832
13191W        W81585  18.242  24.515  12.489
13192W        W81586  40.465  35.031  14.639
13193W        W81587  20.663   4.807  12.123
13194W        W81588  40.072  27.467   1.364
13195W        W81589  15.688  10.104   5.449
13196W        W81590  36.996  13.086  14.864
13197W        W81591  42.239  29.489   3.999
13198W        W81592  21.496  31.344   0.590
13199W        W81593  19.244  28.717  10.318
13200W        W81594  32.662  23.425  12.334
13201W        W81595   7.570  10.993   0.826
13202W        W81596  39.465   9.654   4.001
13203W        W81597  18.699  25.979  14.935
13204W        W81598  14.565  35.288  14.207
13205W        W81599  13.669   0.998  14.717
13206W        W81600  18.096  36.895   4.555
13207W        W81601  18.678  43.205  14.467
13208W        W81602   3.155  14.364  11.249
13209W        W81603  17.415  44.792  14.407
13210W        W81604   3.766  28.144  10.269
13211W        W81605  13.655  30.179   4.716
13212W        W81606   0.857  22.636   1.911
13213W        W81607  37.797  34.013  11.468
13214W        W81608  13.440   7.925   1.349
13215W        W81609  29.664  43.830   4.666
13216W        W81610  29.447  22.034  13.389
13217W        W81611   3.126  36.412  11.148
13218W        W81612  32.675  17.711   4.166
13219W        W81613  38.266   8.655  11.713
13220W        W81614  35.094  18.616  13.109
13221W        W81615  40.141  26.394   0.724
13222W        W81616  31.030  37.840   4.418
13223W        W81617   4.825  43.008   0.384
13224W        W81618  13.217  37.808   4.087
13225W        W81619  43.823   2.686   0.662
13226W        W81620  36.915  26.507  12.751
13227W        W81621   4.724   2.185   2.298
13228W        W81622   5.860  37.094  14.002
13229W        W81623   0.171  32.690   0.438
13230W        W81624  30.327  30.519   4.466
13231W        W81625  44.961  24.248   3.699
13232W        W81626  18.974   8.512  12.891
13233W        W81627   8.815  30.017   2.375
13234W        W81628  26.241  21.289  14.956
13235W        W81629   7.811  28.527   3.809
13236W        W81630  34.005  28.907   1.535
13237W        W81631  13.045  24.614  11.183
13238W        W81632  30.836   1.701   0.741
13239W        W81633  21.759  29.386  11.964
13240W        W81634  12.279   2.244   3.615
13241W        W81635  27.285  34.580   0.027
13242W        W81636  31.791   2.933  10.395
13243W        W81637   7.719  33.943  13.767
13244W        W81638  27.591  30.863   3.631
13245W        W81639   2.021  35.593   1.263
13246W        W81640  35.377  36.582   0.028
13247W        W81641  17.406   5.654   3.681
13248W        W81642  37.823  42.042   3.681
13249W        W81643  14.826  12.206   0.406
13250W        W81644  30.062  12.202  14.385
13251W        W81645  15.361   1.183  12.945
13252W        W81646  43.491  12.730  12.796
13253W        W81647  11.436  26.105  14.828
13254W        W81648  19.046   7.891   2.288
13255W        W81649  30.054   5.970   3.659
13256W        W81650  40.601  29.125   4.729
13257W        W81651  44.722  37.321   0.870
13258W        W81652  12.163  17.556  10.838
13259W        W81653  30.621  12.688   1.284
13260W        W81654   6.297  43.458   2.699
13261W        W81655  44.820  42.001   2.888
13262W        W81656   4.161  32.830  12.059
13263W        W81657   2.939  41.294   2.327
13264W        W81658  26.553  38.831  14.786
13265W        W81659  43.500  21.948  11.123
13266W        W81660   4.620  12.811   5.546
13267W        W81661  17.292  39.482   9.887
13268W        W81662  37.509  20.734   2.571
13269W        W81663   0.358  32.095  11.443
13270W        W81664  34.180  19.063  12.428
13271W        W81665  43.333  26.291  14.850
13272W        W81666   0.852  10.595   2.835
13273W        W81667   9.482  14.972  11.550
13274W        W81668  30.136  15.563  13.485
13275W        W81669  24.202  29.444   0.549
13276W        W81670   5.178  43.306  12.513
13277W        W81671   7.007  22.783   2.287
13278W        W81672  27.389   4.636  14.845
13279W        W81673  19.718   4.198   1.787
13280W        W81674  11.252  28.861  14.054
13281W        W81675  41.551   6.228  13.910
13282W        W81676   1.021  38.364   5.182
13283W        W81677  39.847  28.477   1.384
13284W        W81678  44.760  28.010   3.348
13285W        W81679   8.362  19.833  13.136
13286W        W81680  34.536  13.128   1.426
13287W        W81681  33.411   7.987   1.320
13288W        W81682  39.962  34.161  13.839
13289W        W81683  26.689  21.571  11.185
13290W        W81684  15.275  24.557   2.226
13291W        W81685  36.806  28.532   1.665
13292W        W81686  39.508  36.959  14.049
13293W        W81687  10.897  19.879  14.504
13294W        W81688  44.385   5.664  11.978
13295W        W81689  31.900  31.580  12.903
13296W        W81690  36.005   3.836  13.496
13297W        W81691  23.545   4.823   3.688
13298W        W81692  20.912  36.061   4.109
13299W        W81693  31.687  24.017  12.870
13300W        W81694  17.650  18.523  13.073
13301W        W81695   6.450  38.610  10.405
13302W        W81696  37.941  13.648  11.942
13303W        W81697  44.439   3.717  10.744
13304W        W81698  33.567  14.072   4.725
13305W        W81699  20.702   3.650  14.064
13306W        W81700   1.174  35.012   2.895
13307W        W81701   5.887  14.800   1.382
13308W        W81702  40.488  25.326   3.609
13309W        W81703  28.518  15.737   2.134
13310W        W81704  39.813  32.079  13.274
13311W        W81705  28.030  42.863   4.516
13312W        W81706  33.407  40.454  11.758
13313W        W81707  16.881  41.781  12.262
13314W        W81708  36.877  16.853   1.296
13315W        W81709  18.604  42.181  10.978
13316W        W81710  35.157  27.913  12.540
13317W        W81711  17.058  31.895  13.052
13318W        W81712  34.213  43.534   4.587
13319W        W81713  20.811  13.903   4.073
13320W        W81714  11.376   7.059   2.229
13321W        W81715  36.510  16.652   3.260
13322W        W81716  16.217  29.087   9.753
13323W        W81717  19.265   8.733  14.069
13324W        W81718   3.435  24.628   1.450
13325W        W81719  39.332  43.763  10.649
13326W        W81720   7.376  16.652  14.341
13327W        W81721  30.241   1.219  11.336
13328W        W81722   5.958  27.869  14.353
13329W        W81723  41.569  12.724   3.313
13330W        W81724  24.045  12.714   4.833
13331W        W81725   5.711   4.355  14.107
13332W        W81726  25.568   1.330  10.709
13333W        W81727  21.530  24.558  12.905
13334W        W81728  19.128  38.899   0.205
13335W        W81729  22.084  18.007   2.666
13336W        W81730  32.230  37.742  10.735
13337W        W81731  18.290  28.900   3.648
13338W        W81732  35.777  27.875   3.603
13339W        W81733  24.558   7.418   0.854
13340W        W81734  30.502  38.367   0.299
13341W        W81735  19.050  20.713   2.287
13342W        W81736   1.546  22.136   1.798
13343W        W81737   1.506  35.650  13.436
13344W        W81738  31.473  14.360   2.248
13345W        W81739   8.419   5.815  12.453
13346W        W81740   6.476  33.027  14.383
13347W        W81741  35.626  22.699   1.304
13348W        W81742  28.181  29.971   1.843
13349W        W81743  25.685  41.468   3.320
13350W        W81744  23.501   2.656   1.722
13351W        W81745   1.537  20.170   4.184
13352W        W81746  33.843  20.763   4.074
13353W        W81747  36.597  37.050   3.084
13354W        W81748  20.960  19.696  14.305
13355W        W81749  36.388  18.305  12.918
13356W        W81750  41.672  40.097   4.784
13357W        W81751  25.403  14.246   3.427
13358W        W81752  37.397   0.456   3.220
13359W        W81753  11.461   2.354  14.085
13360W        W81754  28.560  37.344  13.440
13361W        W81755   0.381  29.879  12.029
13362W        W81756  38.866  10.855  11.970
13363W        W81757   8.692  20.237  13.483
13364W        W81758   9.838  15.921  14.422
13365W        W81759   3.811   7.800   0.750
13366W        W81760  13.822  27.921  13.542
13367W        W81761  11.246  32.439  14.240
13368W        W81762  43.456  24.646   2.913
13369W        W81763  21.710  35.802   1.853
13370W        W81764   3.116  39.307   4.075
13371W        W81765  21.655  31.381   0.114
13372W        W81766  44.426   0.149  13.654
13373W        W81767  44.639  10.649  13.235
13374W        W81768  25.167  23.642  11.922
13375W        W81769  39.452  36.197  12.629
13376W        W81770  33.596   6.204   4.220
13377W        W81771  32.583  14.829   3.692
13378W        W81772  32.552  18.106  10.262
13379W        W81773  41.621  40.304  13.304
13380W        W81774  30.065  32.323   0.551
13381W        W81775  25.930  30.166   3.801
13382W        W81776   9.713  34.119   3.589
13383W        W81777  15.746  28.128  14.036
13384W        W81778  10.948  10.800   3.275
13385W        W81779  34.938  40.677   4.518
13386W        W81780  27.076  12.191  11.868
13387W        W81781  17.755  24.229   3.575
13388W        W81782  14.292   4.153  10.739
13389W        W81783  29.403  28.241   2.325
13390W        W81784  17.537  14.667   0.761
13391W        W81785  44.629  27.445   2.255
13392W        W81786  15.172  22.244  10.638
13393W        W81787   2.250  10.870   3.328
13394W        W81788  34.022  31.846  13.866
13395W        W81789   1.483  13.710  13.613
13396W        W81790  29.581  39.918  14.843
13397W        W81791  42.980  41.201   2.312
13398W        W81792  22.027   6.953  13.172
13399W        W81793   4.231  38.669   3.551
13400W        W81794   9.797  43.297  12.648
13401W        W81795  27.931  41.847   1.138
13402W        W81796  12.727  28.681   4.341
13403W        W81797   8.457   9.677  14.616
13404W        W81798  37.438  42.284   4.719
13405W        W81799  19.304  42.139  10.692
13406W        W81800  34.003   0.152  12.561
13407W        W81801  18.272   3.816   2.815
13408W        W81802   0.088  36.863   5.414
13409W        W81803  34.338   8.690  14.439
13410W        W81804  28.333  34.827   4.674
13411W        W81805  33.540  40.337   3.592
13412W        W81806  38.480   6.186   1.333
13413W        W81807  12.027  11.722   4.222
13414W        W81808  30.157  17.153  14.531
13415W        W81809  39.903  42.882   0.960
13416W        W81810  13.395  15.869  13.118
13417W        W81811  28.218  22.975   3.647
13418W        W81812  37.006  18.900   0.778
13419W        W81813  21.978  43.872  11.980
13420W        W81814  34.780  13.603   2.227
13421W        W81815   2.894   4.711  14.382
13422W        W81816  39.943  27.964   1.415
13423W        W81817  10.034  14.676   3.628
13424W        W81818  32.248   0.308  12.056
13425W        W81819  34.947  18.230  14.050
13426W        W81820  24.527  29.167  12.106
13427W        W81821  17.598  36.388  14.465
13428W        W81822  38.282  18.598   1.123
13429W        W81823  39.377   2.365   1.434
13430W        W81824  11.787  40.386   0.849
13431W        W81825   8.513  32.827  14.574
13432W        W81826  26.210   7.468  11.906
13433W        W81827  43.845  20.981   3.327
13434W        W81828   1.838  38.986   3.761
13435W        W81829  38.535   9.739   2.699
13436W        W81830   5.350  10.352  13.047
13437W        W81831   1.038   5.628   0.495
13438W        W81832   2.877  10.119  14.752
13439W        W81833   8.186  42.536   4.818
13440W        W81834  22.767  23.687   3.225
13441W        W81835   2.008  33.478   4.043
13442W        W81836  38.013   1.854   4.810
13443W        W81837  42.010   4.715  12.436
13444W        W81838  43.283  26.024   2.363
13445W        W81839  14.442  37.945  11.529
13446W        W81840   2.753  35.443   0.833
13447W        W81841  37.029  28.683   4.678
13448W        W81842  28.392   1.507   0.458
13449W        W81843  26.586  16.326   0.402
13450W        W81844  24.747  32.055   0.831
13451W        W81845   4.203  43.932   2.386
13452W        W81846  24.231  19.415   2.705
13453W        W81847   0.333  36.397  10.672
13454W        W81848   1.454  37.346   2.907
13455W        W81849   4.433  36.034  14.621
13456W        W81850  30.627   8.444   1.149
13457W        W81851  32.065  14.575  13.165
13458W        W81852  23.577  25.692  12.084
13459W        W81853  23.461  23.457  11.598
13460W        W81854  22.182  38.100   2.847
13461W        W81855  13.169  26.203  13.888
13462W        W81856  28.526  22.515  10.638
13463W        W81857  25.129  26.114  13.455
13464W        W81858  22.550  10.057  14.055
13465W        W81859  20.090   9.221  14.520
13466W        W81860  19.593  16.779   2.347
13467W        W81861   1.926  23.594  12.593
13468W        W81862   1.287  42.282   2.170
13469W        W81863   7.520  33.543  13.494
13470W        W81864  16.161  21.941   2.459
13471W        W81865   1.139  41.798   1.207
13472W        W81866  26.206  44.235   0.420
13473W        W81867  28.403  17.167   2.289
13474W        W81868   7.781  28.879  13.442
13475W        W81869   7.582  21.336   3.701
13476W        W81870  25.607   9.831   0.248
13477W        W81871  11.148  25.565  12.049
13478W        W81872  28.037  24.213   3.285
13479W        W81873   3.850  11.294  11.159
13480W        W81874   0.760  19.132  13.336
13481W        W81875  18.362  27.979  13.991
13482W        W81876   8.828   7.282  12.087
13483W        W81877  18.308  31.479   1.794
13484W        W81878  26.950  19.670  12.508
13485W        W81879   9.907  24.050  11.858
13486W        W81880   0.294  26.449  13.440
13487W        W81881  12.194  13.068   2.875
13488W        W81882  24.621  20.698   1.447
13489W        W81883  42.729  18.062   3.100
13490W        W81884  35.930   6.284   4.570
13491W        W81885  11.148   3.665   2.302
13492W        W81886  36.248  15.079   2.575
13493W        W81887  32.579  27.180  10.761
13494W        W81888  42.466  13.299  10.746
13495W        W81889  21.029  27.275   2.787
13496W        W81890  37.902  22.989   0.723
13497W        W81891  21.532  38.376   1.781
13498W        W81892   3.380  41.438   1.393
13499W        W81893  11.737   3.983  13.457
13500W        W81894  39.303   6.291   2.530
13501W        W81895   1.880  15.790  12.544
13502W        W81896   8.282  23.186   3.336
13503W        W81897  20.183  36.144   4.031
13504W        W81898  27.608  22.201  13.893
13505W        W81899  20.510  17.214   3.391
13506W        W81900  43.853   3.475   1.199
13507W        W81901   5.140  44.005  12.068
13508W        W81902  27.204  43.733  12.881
13509W        W81903  23.986   4.453   1.480
13510W        W81904  36.415  23.532   3.167
13511W        W81905   9.748  34.690  14.245
13512W        W81906  38.017  12.844   5.090
13513W        W81907  42.973  14.174   2.198
13514W        W81908  43.281  14.578   2.296
13515W        W81909   8.319  42.259  10.759
13516W        W81910   4.198  10.868  10.451
13517W        W81911   0.925  32.178  12.062
13518W        W81912   8.796  10.160   2.604
13519W        W81913  35.931  29.982  14.889
13520W        W81914  44.348  12.358   3.821
13521W        W81915  15.781  19.706  11.539
13522W        W81916  37.049   1.987  11.669
13523W        W81917  11.352  11.360  10.390
13524W        W81918   9.603  31.459  14.445
13525W        W81919  21.625  26.955   3.306
13526W        W81920  28.024  28.189   2.193
13527W        W81921  41.920  39.734   0.247
13528W        W81922  43.406  38.613  13.630
13529W        W81923   2.175  38.504   3.822
13530W        W81924  41.802   0.954   0.740
13531W        W81925   2.200  44.601   4.182
13532W        W81926   5.021  40.157  14.835
13533W        W81927  20.546   2.375  12.399
13534W        W81928  36.957  36.971   1.823
13535W        W81929  41.493  33.876   3.634
13536W        W81930   7.862  44.814  11.446
13537W        W81931  16.525  12.228  12.894
13538W        W81932  22.479   9.415   2.823
13539W        W81933  44.784  31.700  10.466
13540W        W81934  38.973   8.078  11.714
13541W        W81935   5.434   1.519  13.445
13542W        W81936  14.742  36.975  12.288
13543W        W81937  11.686  36.657  12.475
13544W        W81938  15.730  12.335   1.449
13545W        W81939  27.198  29.228   4.857
13546W        W81940   2.121   8.771  12.114
13547W        W81941  43.416  13.554   2.215
13548W        W81942  18.760   4.385  14.825
13549W        W81943  16.532  25.638   3.687
13550W        W81944   3.427  38.444  11.730
13551W        W81945  29.134   0.936   2.745
13552W        W81946  19.811  42.856   3.108
13553W        W81947  43.380  26.854  13.917
13554W        W81948  27.261  13.650  14.891
13555W        W81949  27.647   9.362  11.976
13556W        W81950  16.293  32.005   0.222
13557W        W81951  43.223  12.908  13.243
13558W        W81952   4.905  24.312  13.422
13559W        W81953  22.022  19.334   2.536
13560W        W81954   4.502  11.289   1.320
13561W        W81955  32.058   9.639   4.644
13562W        W81956  19.299  14.251   4.741
13563W        W81957   3.867   9.350   4.605
13564W        W81958  43.290   1.082  13.771
13565W        W81959  18.225  26.002   3.296
13566W        W81960  19.784   9.236   1.905
13567W        W81961   0.567  31.989  13.015
13568W        W81962  40.567   4.030   3.777
13569W        W81963  23.175  15.748  10.786
13570W        W81964   4.227  33.003   3.305
13571W        W81965  40.793  39.720   3.314
13572W        W81966  37.893  35.291  11.128
13573W        W81967  30.660   8.912  13.866
13574W        W81968   0.865   4.391  13.816
13575W        W81969   6.844  22.449  11.916
13576W        W81970  21.149  28.197   3.210
13577W        W81971   4.619   4.440   2.682
13578W        W81972   6.860   1.117  13.603
13579W        W81973  21.181   8.315  10.392
13580W        W81974  44.290  25.577   3.594
13581W        W81975  11.074   8.813   1.928
13582W        W81976  15.771   9.022   3.653
13583W        W81977  44.729  23.691  12.567
13584W        W81978  11.132  18.045   0.209
13585W        W81979  34.550   6.462   3.344
13586W        W81980   6.457   8.329  11.742
13587W        W81981  13.869  26.792  14.989
13588W        W81982  30.094  32.818   3.681
13589W        W81983  37.772  39.202   4.151
13590W        W81984  42.855  20.053   3.116
13591W        W81985  13.964  12.057   0.836
13592W        W81986  19.499   7.835  13.301
13593W        W81987  42.213  37.402   0.315
13594W        W81988  21.510  27.982   2.250
13595W        W81989  10.144  13.118  10.979
13596W        W81990  20.132  18.842   5.041
13597W        W81991  43.005  42.382  12.180
13598W        W81992  30.279  10.381  11.782
13599W        W81993  22.948   9.256   2.676
13600W        W81994   1.005  26.194  14.294
13601W        W81995   4.854   7.794   2.146
13602W        W81996  22.744   8.326  10.333
13603W        W81997   9.273  29.390  13.830
13604W        W81998  30.116  11.862   1.473
13605W        W81999   5.756  43.855   4.252
13606W        W82000  13.318  39.487   1.763
13607W        W82001  14.600  39.838  14.927
13608W        W82002  41.723  16.984   3.269
13609W        W82003  41.361  26.982   2.852
13610W        W82004  36.448  42.960   1.884
13611W        W82005  16.968   2.093   4.103
13612W        W82006  35.131  27.652   1.255
13613W        W82007  13.905  43.982  14.073
13614W        W82008   6.461   5.363   4.115
13615W        W82009  17.457  32.936  12.404
13616W        W82010  23.582  43.939   1.351
13617W        W82011   1.277  41.682  12.406
13618W        W82012  33.864  30.423   4.666
13619W        W82013   2.470  37.772   3.230
13620W        W82014  15.059   6.417   2.421
13621W        W82015   6.406  40.825  12.449
13622W        W82016  23.358   8.289   1.344
13623W        W82017   0.382  43.973   4.098
13624W        W82018  10.493  38.703  11.361
13625W        W82019  44.801  10.038   3.623
13626W        W82020   9.888  41.058   2.304
13627W        W82021  25.448  23.274  10.722
13628W        W82022  12.131   7.908  14.855
13629W        W82023   3.576  27.758   4.858
13630W        W82024  30.135  41.496  12.871
13631W        W82025  25.510  27.973   0.294
13632W        W82026   2.170  21.093   4.424
13633W        W82027   0.978  10.320   4.196
13634W        W82028   3.190  15.339  12.917
13635W        W82029  13.351  14.540  11.567
13636W        W82030  34.471  36.440  11.536
13637W        W82031   3.432   0.467   2.703
13638W        W82032  34.985   1.260   0.490
13639W        W82033   4.840  11.678   1.317
13640W        W82034  14.739  23.410  13.359
13641W        W82035  15.637   0.879  10.531
13642W        W82036  44.702  14.860   3.800
13643W        W82037  43.841  35.862  10.899
13644W        W82038  11.876  18.913   1.381
13645W        W82039  42.915   2.987  12.615
13646W        W82040  19.336  38.566  13.388
13647W        W82041  41.292  11.441   3.128
13648W        W82042  34.465  14.847   2.657
13649W        W82043   1.385  12.024   2.868
13650W        W82044  37.172  26.957   4.596
13651W        W82045  33.506  44.944  11.688
13652W        W82046   4.773  13.621  13.255
13653W        W82047  28.212  37.888   1.759
13654W        W82048  35.863   7.380   4.614
13655W        W82049  42.913   8.047   4.532
13656W        W82050  22.973  32.437  14.540
13657W        W82051   5.423  35.016   0.011
13658W        W82052  23.794   0.987  11.401
13659W        W82053  18.819  19.365   5.374
13660W        W82054  29.011   0.218   0.774
13661W        W82055  32.036  36.896  14.879
13662W        W82056   0.135  15.882  12.444
13663W        W82057  22.762  14.259   1.393
13664W        W82058  37.662   8.396  11.038
13665W        W82059  35.766  39.924   1.135
13666W        W82060  11.806   8.388  12.863
13667W        W82061  36.514  38.830  14.886
13668W        W82062  37.640  41.736   2.826
13669W        W82063  24.517  31.638   2.209
13670W        W82064  19.091  44.980  12.471
13671W        W82065  32.115  17.482   0.458
13672W        W82066  21.260  35.483   1.306
13673W        W82067  35.540  41.431   0.140
13674W        W82068   9.655  44.953  13.362
13675W        W82069  40.076  20.833  12.608
13676W        W82070  32.834  18.795  10.709
13677W        W82071   6.729  25.467  13.309
13678W        W82072  37.872  11.258   2.630
13679W        W82073   5.258  20.503  12.490
13680W        W82074  41.060   7.136   2.619
13681W        W82075   8.402  20.329  13.053
13682W        W82076  22.926  21.639  11.176
13683W        W82077   8.758  28.537   3.749
13684W        W82078  27.305  11.362   5.432
13685W        W82079  16.849   7.967   0.261
13686W        W82080  32.949  17.030   3.518
13687W        W82081  24.873  19.731   0.715
13688W        W82082  14.599  35.505   2.923
13689W        W82083  15.758  35.114  14.439
13690W        W82084  43.065  14.002  13.637
13691W        W82085   9.117  33.961   1.258
13692W        W82086   6.845  30.808   3.342
13693W        W82087  39.564  11.169  13.950
13694W        W82088  35.587  19.683  12.218
13695W        W82089   8.760  21.187  12.609
13696W        W82090  44.070  27.122  13.542
13697W        W82091  44.514  41.114   0.928
13698W        W82092   1.292   1.300   0.754
13699W        W82093  33.091  35.526   4.177
13700W        W82094  19.290  12.145   1.205
13701W        W82095  14.463  31.354   0.039
13702W        W82096   5.669  25.753   0.860
13703W        W82097  10.796   2.118   1.800
13704W        W82098  18.163  42.286  10.674
13705W        W82099  24.175  34.869  11.003
13706W        W82100  26.181   9.823   2.091
13707W        W82101  31.864   4.573   5.142
13708W        W82102   0.962  39.237   0.456
13709W        W82103  28.519   4.966   0.932
13710W        W82104  22.320  14.776   3.641
13711W        W82105  18.846  38.052   1.448
13712W        W82106  17.747   4.856  14.454
13713W        W82107   3.897  24.085   0.279
13714W        W82108  14.195   2.441  11.396
13715W        W82109  32.876  43.352   3.170
13716W        W82110  30.018  21.218  14.462
13717W        W82111   8.782  21.665  13.831
13718W        W82112  20.717  15.370   2.841
13719W        W82113   1.796  39.077   1.420
13720W        W82114   0.725   5.722   0.909
13721W        W82115  10.176   9.297  10.741
13722W        W82116  35.176  34.469  10.776
13723W        W82117  18.656   9.346   3.390
13724W        W82118  19.682   7.317  11.044
13725W        W82119  31.676  24.668  13.837
13726W        W82120  36.220  29.495  11.296
13727W        W82121  34.083  21.813   3.242
13728W        W82122  27.999  15.078   3.180
13729W        W82123  12.225   5.640  14.402
13730W        W82124  39.557  21.977  11.162
13731W        W82125   4.238  12.249  11.200
13732W        W82126  25.186  26.107  14.531
13733W        W82127  33.049  34.680   4.504
13734W        W82128  27.628  11.866  12.368
13735W        W82129   8.730  41.885   1.453
13736W        W82130   7.458  32.182   1.214
13737W        W82131  25.432   8.219  10.661
13738W        W82132   6.592  19.213  12.167
13739W        W82133  36.152  23.228  14.290
13740W        W82134  41.719  35.857  10.746
13741W        W82135  35.856  44.460  12.473
13742W        W82136   7.704  44.842  13.856
13743W        W82137  32.855  36.496   0.666
13744W        W82138  37.832   1.397  11.149
13745W        W82139  31.602  17.331   4.584
13746W        W82140  25.075  16.992   4.664
13747W        W82141  13.541  39.422  12.838
13748W        W82142   1.448  20.238   2.321
13749W        W82143  38.577  33.288   4.607
13750W        W82144  35.838  30.698   3.945
13751W        W82145  15.737  44.879  13.825
13752W        W82146  42.466  43.060   5.041
13753W        W82147  41.490  20.790   3.091
13754W        W82148  28.007  32.382  13.170
13755W        W82149  28.350  44.916   2.886
13756W        W82150  23.980   8.057  11.928
13757W        W82151   2.886  20.368   4.070
13758W        W82152  20.906  38.501   3.992
13759W        W82153  33.289   3.401  11.639
13760W        W82154  24.669  20.707  13.735
13761W        W82155  21.220  26.052  10.412
13762W        W82156  25.105   9.678   4.989
13763W        W82157   1.762  16.881  13.509
13764W        W82158  20.122  19.171  14.073
13765W        W82159   5.725  30.675   3.638
13766W        W82160   4.663  40.590  14.837
13767W        W82161   4.990  23.773  14.876
13768W        W82162   6.190  28.884  10.388
13769W        W82163   0.279  39.246  11.705
13770W        W82164  40.872  10.817   0.394
13771W        W82165   4.738  22.168   0.651
13772W        W82166  44.041  23.044   0.400
13773W        W82167  44.467  29.509   0.919
13774W        W82168  37.528  10.894   2.433
13775W        W82169   6.829  27.062  14.498
13776W        W82170  36.377  29.492  14.435
13777W        W82171   5.966  40.036   3.353
13778W        W82172  31.966  30.673  11.009
13779W        W82173  33.704  21.957  11.898
13780W        W82174  31.120   3.352  11.198
13781W        W82175  20.652  38.000  13.357
13782W        W82176  41.911   6.520   1.772
13783W        W82177  31.130   0.184  14.539
13784W        W82178   4.847   7.785  12.721
13785W        W82179  24.150   9.081   4.294
13786W        W82180  39.480  32.118  14.480
13787W        W82181  11.823   8.347  13.898
13788W        W82182  14.142  25.751  11.125
13789W        W82183  19.999   7.900  13.384
13790W        W82184   2.955  40.105  13.871
13791W        W82185   9.194  37.994   1.453
13792W        W82186   2.038  10.133   3.502
13793W        W82187  29.015  15.539   1.319
13794W        W82188  19.661  22.274  14.802
13795W        W82189   2.866  32.050   0.269
13796W        W82190  17.034  15.611  14.189
13797W        W82191  14.714   3.886  12.391
13798W        W82192  32.330   2.793   2.926
13799W        W82193  37.031   9.807   1.776
13800W        W82194  18.158   7.626  12.064
13801W        W82195  35.976  29.099  14.602
13802W        W82196  31.673  18.743   0.214
13803W        W82197  14.127   5.245   0.497
13804W        W82198  16.265  41.901   1.308
13805W        W82199  36.775  23.485   2.724
13806W        W82200  34.633  21.774   1.307
13807W        W82201  35.649  31.193   0.266
13808W        W82202   6.614  24.059   0.372
13809W        W82203  12.144  22.743  13.942
13810W        W82204  34.576  35.678   0.755
13811W        W82205  21.070   3.942  13.803
13812W        W82206  26.357   4.165   4.109
13813W        W82207  36.804  34.909  11.119
13814W        W82208  21.030  16.993  12.419
13815W        W82209  21.506  36.288  14.784
13816W        W82210  41.543  33.935  14.315
13817W        W82211  36.900   5.998   2.632
13818W        W82212  42.858  32.680  11.930
13819W        W82213  41.467  11.204  13.436
13820W        W82214  13.619  14.081  14.291
13821W        W82215  26.512  39.859   1.753
13822W        W82216   0.826  15.363  10.253
13823W        W82217  25.563  26.169  13.736
13824W        W82218  39.446  36.586   4.621
13825W        W82219  15.271  29.719  10.415
13826W        W82220  16.263  15.582  13.840
13827W        W82221  39.911   7.344   0.935
13828W        W82222  21.146  15.317  11.588
13829W        W82223   0.936  23.246   0.489
13830W        W82224  18.832  30.058   1.145
13831W        W82225  20.561   2.983   2.233
13832W        W82226  24.245  20.736   2.454
13833W        W82227  33.459  34.081   2.754
13834W        W82228  37.145  11.984   0.856
13835W        W82229   3.178  43.001   0.402
13836W        W82230  15.572  31.987   3.765
13837W        W82231  28.394  41.763  11.578
13838W        W82232   3.836  23.110   1.809
13839W        W82233  21.928  35.169  12.142
13840W        W82234   5.783  20.337  13.326
13841W        W82235  11.739  32.425  13.647
13842W        W82236   7.305  14.495  10.980
13843W        W82237  31.385  32.098  12.499
13844W        W82238  19.517  40.849  13.495
13845W        W82239  39.130  43.032  13.860
13846W        W82240  43.409  30.708   1.921
13847W        W82241   5.988  40.567  12.627
13848W        W82242   2.308  32.238   1.318
13849W        W82243  24.439  41.534   0.215
13850W        W82244  28.421  12.539   3.705
13851W        W82245  36.037  42.957   1.556
13852W        W82246  27.018  40.225  10.978
13853W        W82247  34.427  44.384   2.454
13854W        W82248  16.716   6.795   2.457
13855W        W82249  32.510  28.564  13.454
13856W        W82250   8.326  17.698  12.838
13857W        W82251   5.225  23.789   0.349
13858W        W82252  33.006   9.322  11.736
13859W        W82253  37.336  27.942  11.172
13860W        W82254  23.427  14.643   0.968
13861W        W82255  20.733   7.151  14.287
13862W        W82256  36.897   0.751  14.389
13863W        W82257  17.363  35.976   0.526
13864W        W82258  40.103   6.449   2.126
13865W        W82259   2.020  35.024   4.556
13866W        W82260  29.472   5.185  14.933
13867W        W82261  37.976  25.701  11.097
13868W        W82262  33.415  17.371   2.248
13869W        W82263  28.476   0.428  10.329
13870W        W82264  38.983  40.835  13.029
13871W        W82265  42.002   4.745  11.393
13872W        W82266  14.505  12.454  12.856
13873W        W82267   0.360  26.432  11.359
13874W        W82268  33.664  19.241  13.407
13875W        W82269   4.172  25.954   1.831
13876W        W82270  32.058  32.052   1.378
13877W        W82271  32.445  17.181   2.805
13878W        W82272  25.142  35.506  12.427
13879W        W82273  35.943  34.251  13.799
13880W        W82274  12.897  34.347  13.944
13881W        W82275  35.769   3.326  13.882
13882W        W82276  15.100   7.096   1.864
13883W        W82277   1.959   2.752  14.505
13884W        W82278  29.633  29.483   1.131
13885W        W82279  29.191   0.718   9.890
13886W        W82280  10.862   0.804   3.180
13887W        W82281  25.947  18.319   2.785
13888W        W82282   8.267  21.056  13.372
13889W        W82283  11.938  42.044  10.752
13890W        W82284  13.703  17.569   2.776
13891W        W82285  15.646   8.238   3.633
13892W        W82286  14.237  38.551  12.902
13893W        W82287  40.829  20.709  14.435
13894W        W82288  20.543  32.869  11.535
13895W        W82289   8.868  21.256   3.211
13896W        W82290  35.518  44.780  13.239
13897W        W82291  20.783   4.335   3.776
13898W        W82292   9.946  42.698   1.231
13899W        W82293  38.069   6.261  11.576
13900W        W82294  11.651  13.379  12.944
13901W        W82295  22.648  30.666  13.923
13902W        W82296  23.438  15.167   3.659
13903W        W82297  14.553  17.993  14.290
13904W        W82298  15.025  17.611   4.923
13905W        W82299  24.043   1.851  10.422
13906W        W82300  39.271  11.188   1.187
13907W        W82301  38.127  29.499  11.589
13908W        W82302  16.537  35.381   1.501
13909W        W82303   5.056  21.729   4.536
13910W        W82304  39.579  34.335  11.558
13911W        W82305  16.390  16.834   0.435
13912W        W82306  32.060  37.990   2.700
13913W        W82307  38.702  22.217  14.695
13914W        W82308  42.462  26.771   3.729
13915W        W82309  36.571  17.611   2.939
13916W        W82310   8.688  13.051  10.917
13917W        W82311   0.335  10.964  11.122
13918W        W82312  31.817  41.315  13.302
13919W        W82313  32.593  43.259   1.307
13920W        W82314  33.932  29.242  11.455
13921W        W82315  21.335  21.253  14.918
13922W        W82316   3.411  14.287   0.261
13923W        W82317   7.884   5.344  10.364
13924W        W82318   9.883  22.753  11.894
13925W        W82319  20.102  24.165  14.335
13926W        W82320  10.070  18.542   5.167
13927W        W82321  19.009  23.593   3.214
13928W        W82322  11.179  39.764   1.488
13929W        W82323  34.605  10.348   1.824
13930W        W82324  23.279  14.031  12.099
13931W        W82325   8.675   8.795   3.275
13932W        W82326  11.901  34.761  11.184
13933W        W82327  43.162   5.043   2.582
13934W        W82328  16.115   0.166   0.468
13935W        W82329  11.707  32.682  14.996
13936W        W82330  31.030  22.490   2.378
13937W        W82331   5.508   9.305  14.391
13938W        W82332  28.008  41.470   0.398
13939W        W82333  14.783  40.713  12.568
13940W        W82334  30.127  27.910   2.799
13941W        W82335   6.773   9.831  12.909
13942W        W82336  25.363  13.149   1.657
13943W        W82337  30.776   2.576   0.246
13944W        W82338  38.345   7.375   3.801
13945W        W82339  27.066  22.155   1.977
13946W        W82340  40.707   1.096   1.188
13947W        W82341   3.680   5.260  11.628
13948W        W82342  38.260  10.097  14.922
13949W        W82343  30.977  44.015  12.002
13950W        W82344   3.341  33.158   0.698
13951W        W82345  42.460  28.617  11.211
13952W        W82346  26.785  13.393  11.597
13953W        W82347   6.380  18.309   0.841
13954W        W82348  16.510  25.789  11.218
13955W        W82349  34.493  40.669  13.312
13956W        W82350  26.356  12.985  12.427
13957W        W82351  43.233  40.058   4.547
13958W        W82352  32.485  25.672  13.482
13959W        W82353   6.243  12.572  11.168
13960W        W82354  27.955  16.642  12.999
13961W        W82355  42.361   4.726   0.705
13962W        W82356  17.536  19.287  12.524
13963W        W82357  44.956   7.614   3.125
13964W        W82358  18.238   7.630   4.104
13965W        W82359   1.407  10.247   3.887
13966W        W82360  34.901  33.947   3.742
13967W        W82361  11.664  28.989  13.749
13968W        W82362  14.261  12.614   0.430
13969W        W82363  27.478  12.842   1.491
13970W        W82364  44.096  31.916  10.713
13971W        W82365  25.201   1.435   0.018
13972W        W82366  31.437  31.319   3.840
13973W        W82367  41.353  33.923  13.293
13974W        W82368  30.102  39.883  12.459
13975W        W82369  29.455  30.939  11.466
13976W        W82370   2.436  11.370  11.462
13977W        W82371  15.784  17.155  13.597
13978W        W82372   1.404   4.789   3.238
13979W        W82373  14.852  19.213   0.926
13980W        W82374  43.027  38.944   0.543
13981W        W82375  31.513  11.622   2.142
13982W        W82376  33.312  40.932  12.970
13983W        W82377  16.640  20.626   1.177
13984W        W82378  43.927  18.007   1.849
13985W        W82379  10.236  40.471  13.568
13986W        W82380  24.608   4.883   1.930
13987W        W82381  19.666  37.432   0.352
13988W        W82382  29.014  22.599  10.490
13989W        W82383  34.053   1.415  12.815
13990W        W82384  18.795  32.359   3.576
13991W        W82385  23.873   1.044  12.108
13992W        W82386  20.254  39.572  13.758
13993W        W82387  39.283  30.168   2.708
13994W        W82388  20.225   3.335  11.470
13995W        W82389  20.529   2.963   4.227
13996W        W82390  26.546   5.955   3.306
13997W        W82391   7.221  39.760   0.452
13998W        W82392  33.903   4.404  12.329
13999W        W82393  21.874  10.370   9.865
14000W        W82394  15.348  34.425   3.173
14001W        W82395   3.749   6.260  13.072
14002W        W82396   7.680   4.136   0.259
14003W        W82397  21.195  43.758   4.715
14004W        W82398  22.547  38.298  14.073
14005W        W82399   6.254  31.831  13.271
14006W        W82400  42.203  26.530  11.101
14007W        W82401  14.543   6.388  14.125
14008W        W82402  14.246  39.782   0.421
14009W        W82403  22.990  30.107   3.386
14010W        W82404  18.775  30.249  10.413
14011W        W82405  18.653  10.547   4.549
14012W        W82406  36.656  26.568  13.517
14013W        W82407   7.680   5.882  11.083
14014W        W82408  12.660  30.121  11.816
14015W        W82409   8.945  17.289  13.815
14016W        W82410  10.064   9.778   2.210
14017W        W82411   0.882  41.899  14.227
14018W        W82412  19.797  27.003   3.559
14019W        W82413   3.385  13.880  13.018
14020W        W82414  41.600  25.003   0.665
14021W        W82415  25.943  28.022  10.719
14022W        W82416  24.165  19.116   4.601
14023W        W82417  27.940  38.872   1.904
14024W        W82418   6.769  34.848  13.012
14025W        W82419   3.934  37.477   0.818
14026W        W82420  29.512  38.532   3.318
14027W        W82421  33.651   5.599   3.130
14028W        W82422  34.107  44.907  14.513
14029W        W82423  33.902  13.403   4.205
14030W        W82424  40.049  14.187  13.870
14031W        W82425  33.018  25.407   3.878
14032W        W82426  43.933  42.811  14.077
14033W        W82427  31.911  37.584   0.771
14034W        W82428  23.671  43.998  14.100
14035W        W82429  42.347   4.773  13.693
14036W        W82430  39.147  23.872  14.623
14037W        W82431  41.071  26.944   2.424
14038W        W82432   9.240   0.979   0.949
14039W        W82433  20.688  23.641   2.161
14040W        W82434   0.828  26.459  11.610
14041W        W82435  25.345  29.875  12.206
14042W        W82436  24.521  18.623   0.449
14043W        W82437  11.930  11.306  13.008
14044W        W82438  17.332   9.867   2.663
14045W        W82439  16.740  33.699  11.553
14046W        W82440  27.639  36.427   0.828
14047W        W82441  31.384  26.140  14.694
14048W        W82442  36.621   9.110   4.616
14049W        W82443   6.700  32.149   1.895
14050W        W82444  36.863  36.439  12.622
14051W        W82445  38.118  42.038  10.746
14052W        W82446  24.599  16.165  13.029
14053W        W82447  32.575   8.124  10.727
14054W        W82448   9.246  25.207   0.466
14055W        W82449  11.957  24.292  12.501
14056W        W82450  29.194  34.507  13.392
14057W        W82451  20.581  30.989   0.239
14058W        W82452  22.039  34.079   4.605
14059W        W82453  38.867  11.922   4.210
14060W        W82454  36.583  38.368  11.872
14061W        W82455  27.457  33.594   2.934
14062W        W82456   0.476  19.132  12.060
14063W        W82457  29.640  19.208  13.341
14064W        W82458   9.591  26.030   1.193
14065W        W82459  13.054  35.416  14.768
14066W        W82460   4.402   8.468   0.846
14067W        W82461   2.830  22.018  11.959
14068W        W82462  31.142  28.522   2.196
14069W        W82463  23.205   5.309   2.610
14070W        W82464  39.932  43.959  10.716
14071W        W82465  19.371   4.008  11.429
14072W        W82466  42.713  33.060  11.134
14073W        W82467  16.508  26.133  13.476
14074W        W82468   1.341  41.943   3.644
14075W        W82469  22.645  31.921  11.541
14076W        W82470   1.508  41.345   4.273
14077W        W82471  37.923  30.067   3.882
14078W        W82472   6.135  41.362  10.248
14079W        W82473  34.525  18.012  13.201
14080W        W82474  42.511  23.699   3.662
14081W        W82475  12.602   8.204  14.934
14082W        W82476  19.746  12.849  13.061
14083W        W82477  34.407  26.410  14.425
14084W        W82478  40.055  10.579   4.323
14085W        W82479   2.361  33.943  14.530
14086W        W82480  35.489   4.339   1.024
14087W        W82481  24.052  29.375  11.970
14088W        W82482  12.230   6.472   2.078
14089W        W82483  14.945  39.313   2.781
14090W        W82484  37.088  33.177  12.492
14091W        W82485   3.199  31.947   1.348
14092W        W82486  29.569   3.904  13.690
14093W        W82487  42.968   6.261   4.673
14094W        W82488  19.144  13.767   4.604
14095W        W82489   5.704  18.587  13.079
14096W        W82490  39.714  20.563   4.651
14097W        W82491  20.260  11.433   3.712
14098W        W82492  40.854  21.474   3.362
14099W        W82493  15.305  17.627   1.372
14100W        W82494  17.398  14.795  14.205
14101W        W82495  29.050  26.923  11.146
14102W        W82496  13.058  10.650  11.578
14103W        W82497  24.915  11.229  11.279
14104W        W82498   8.894  36.805   4.048
14105W        W82499  24.506  42.001  13.506
14106W        W82500  24.047  29.012   1.950
14107W        W82501  28.222  12.667  11.885
14108W        W82502   4.856   3.381  14.736
14109W        W82503   2.410  17.279   1.369
14110W        W82504  39.154   8.491   3.656
14111W        W82505   3.231  24.059  10.962
14112W        W82506   9.264  39.014  13.416
14113W        W82507  14.011  35.365  13.488
14114W        W82508  42.527  37.325  14.349
14115W        W82509  22.985  12.401  14.321
14116W        W82510  42.882  34.919   2.783
14117W        W82511   5.813  15.779  11.338
14118W        W82512  40.432  43.275  14.211
14119W        W82513  30.059  36.468   2.992
14120W        W82514   9.752  42.008  14.606
14121W        W82515   0.205  20.511  14.849
14122W        W82516  31.467  26.532  13.568
14123W        W82517  34.317  15.690  10.582
14124W        W82518  42.828  26.079   0.364
14125W        W82519  26.847  27.071  12.693
14126W        W82520  26.661  12.553  13.949
14127W        W82521  28.832  30.719  14.942
14128W        W82522   1.978   8.006  12.889
14129W        W82523  28.388  10.195   1.421
14130W        W82524  36.400  44.411  10.611
14131W        W82525   3.390  34.967   0.258
14132W        W82526  22.819  11.738  10.647
14133W        W82527   5.351  27.106  11.182
14134W        W82528  20.944  38.533   5.101
14135W        W82529  35.966  13.110  13.078
14136W        W82530  30.298  42.885  10.198
14137W        W82531  27.519  24.268   2.598
14138W        W82532  15.843  29.662   5.080
14139W        W82533  29.967  36.539  11.646
14140W        W82534  11.183  11.074  12.879
14141W        W82535  25.347  31.053  11.218
14142W        W82536  16.760  35.398   3.717
14143W        W82537  42.275  44.545   0.786
14144W        W82538  20.072  13.549   1.855
14145W        W82539  18.739  25.706   4.983
14146W        W82540  20.264  12.698  10.261
14147W        W82541  30.924  31.343   3.795
14148W        W82542   2.881  44.395   1.649
14149W        W82543  35.244   7.229  14.492
14150W        W82544  36.628  21.346  13.242
14151W        W82545  21.072  19.254  14.969
14152W        W82546  32.407  43.902   4.694
14153W        W82547  30.426  33.624  11.604
14154W        W82548   5.159  37.882  13.505
14155W        W82549   1.563  25.362  12.486
14156W        W82550  39.101  10.380  11.956
14157W        W82551   5.510  37.210  12.378
14158W        W82552  32.810  16.123   2.176
14159W        W82553   6.509  41.002   3.219
14160W        W82554  32.151  10.541   0.804
14161W        W82555  40.407   4.725   0.726
14162W        W82556   9.441  38.569  14.864
14163W        W82557  23.705  43.453  14.010
14164W        W82558   0.217  43.058  11.653
14165W        W82559  27.071  40.993  11.688
14166W        W82560  12.167  38.455  14.898
14167W        W82561  41.981  12.358  13.387
14168W        W82562  36.798  32.058  12.373
14169W        W82563  28.738  39.433  14.351
14170W        W82564  14.577   8.192  13.399
14171W        W82565  15.058   0.379  12.622
14172W        W82566  10.959  40.141  12.343
14173W        W82567   3.490  35.451  11.933
14174W        W82568  36.931   1.102   0.392
14175W        W82569  24.508  37.022   0.609
14176W        W82570  12.893  17.721   3.067
14177W        W82571  35.193  21.025  13.813
14178W        W82572   6.370  35.394   4.219
14179W        W82573   6.908  17.615  12.934
14180W        W82574   1.102  27.684   1.206
14181W        W82575  35.583  42.519   1.834
14182W        W82576  39.417  15.793  12.847
14183W        W82577   7.239  14.601   1.130
14184W        W82578  36.837  32.710  12.457
14185W        W82579  39.964   5.709   2.719
14186W        W82580   9.723  11.432   4.160
14187W        W82581  27.534  15.658   0.847
14188W        W82582  21.640   7.680  14.484
14189W        W82583  17.318  23.523   4.819
14190W        W82584  13.428  18.737   2.294
14191W        W82585  15.169  14.837   0.695
14192W        W82586  42.800  39.505  11.111
14193W        W82587  15.805   9.351  10.103
14194W        W82588  30.699  43.489   2.747
14195W        W82589  13.649   9.769  12.596
14196W        W82590  22.765  37.421   2.522
14197W        W82591  15.778   4.895  10.654
14198W        W82592  12.518  39.731   1.029
14199W        W82593  23.875  19.704  10.356
14200W        W82594  22.248  14.801  11.049
14201W        W82595  18.186  29.169   1.757
14202W        W82596  19.879  43.337   4.799
14203W        W82597  22.042  10.212  14.961
14204W        W82598  41.475  27.529  10.979
14205W        W82599   2.993  32.370   1.594
14206W        W82600  37.845  20.955   0.428
14207W        W82601  28.961  14.613   4.153
14208W        W82602  44.034  16.585   1.729
14209W        W82603   6.847   7.663  11.802
14210W        W82604  40.152  29.079  14.020
14211W        W82605  26.547  13.612  12.840
14212W        W82606  23.152  39.929  10.950
14213W        W82607  14.613  41.371   2.942
14214W        W82608  30.591   1.709   1.229
14215W        W82609   1.860   6.743   2.142
14216W        W82610  31.585  16.132   2.821
14217W        W82611  44.129   5.846  14.355
14218W        W82612  21.665  34.936   0.220
14219W        W82613  33.454  42.395   1.399
14220W        W82614  36.177  44.316  14.029
14221W        W82615  40.954  28.670  14.702
14222W        W82616  37.156  34.616  14.850
14223W        W82617  40.071  40.769  13.503
14224W        W82618  24.439  34.206   0.485
14225W        W82619  18.306  15.652   2.772
14226W        W82620  16.563  23.547   4.095
14227W        W82621   5.262  37.154   5.067
14228W        W82622  23.650   0.336   3.124
14229W        W82623  32.679  15.095   0.267
14230W        W82624  37.903  20.560   3.310
14231W        W82625   4.852  43.701  10.415
14232W        W82626  12.356  13.783   4.609
14233W        W82627  29.976   8.252   4.399
14234W        W82628  12.167  13.784   3.635
14235W        W82629   2.018  36.810  13.460
14236W        W82630  26.992  37.417  14.638
14237W        W82631  31.518  32.062   1.257
14238W        W82632  28.184  41.406   3.363
14239W        W82633  25.396  27.057  13.813
14240W        W82634  29.100   6.992   0.429
14241W        W82635  28.125  20.958  14.806
14242W        W82636  35.892  35.306   3.679
14243W        W82637  40.322   4.583  10.847
14244W        W82638  26.505  28.552   1.304
14245W        W82639  35.322  30.692  11.221
14246W        W82640  10.489  42.721  13.956
14247W        W82641  26.174   8.566   1.280
14248W        W82642  13.821  41.227  14.558
14249W        W82643  31.919  29.655  11.008
14250W        W82644  31.691  40.488  13.468
14251W        W82645  20.552  34.563  10.586
14252W        W82646  30.449  41.610  13.990
14253W        W82647   7.292  44.005  10.626
14254W        W82648  30.048   4.290   2.535
14255W        W82649  24.959  44.476  12.084
14256W        W82650   5.730  38.327  12.376
14257W        W82651   9.238   0.823   0.437
14258W        W82652  35.507  26.194   4.882
14259W        W82653  42.509  28.673  13.859
14260W        W82654  36.056  20.583   1.823
14261W        W82655   6.267  42.416  12.705
14262W        W82656  29.566  22.908   2.272
14263W        W82657   2.891  31.538   2.874
14264W        W82658  17.790  17.774   1.035
14265W        W82659  38.922   9.900  11.942
14266W        W82660  30.784  24.244   0.966
14267W        W82661   4.450  37.351   3.068
14268W        W82662   1.725   8.243   0.379
14269W        W82663  16.273  44.404   4.452
14270W        W82664  16.331  24.078   4.097
14271W        W82665  10.925  26.084  14.761
14272W        W82666  15.705  41.574   0.489
14273W        W82667   0.147  37.886  11.715
14274W        W82668   9.306  40.276  13.939
14275W        W82669  34.573   8.523  10.535
14276W        W82670  37.598  34.446  12.895
14277W        W82671   0.239  19.280  11.622
14278W        W82672  18.539  26.413   3.480
14279W        W82673  37.461   8.726  13.706
14280W        W82674   4.603  26.842  10.736
14281W        W82675  17.337  26.597  12.614
14282W        W82676  26.850  28.055  12.250
14283W        W82677  16.629  27.267   3.238
14284W        W82678  43.548   6.753   2.158
14285W        W82679  39.471  21.765   1.833
14286W        W82680   7.127   6.247   4.084
14287W        W82681  14.127  12.374  14.982
14288W        W82682   4.423  25.031   0.811
14289W        W82683   0.763   1.236  13.385
14290W        W82684  41.445   1.505   4.527
14291W        W82685  14.856   4.166   4.323
14292W        W82686  30.511   6.668   0.140
14293W        W82687  27.219  26.529   1.437
14294W        W82688  11.328   6.227   0.350
14295W        W82689  22.223  22.111   0.506
14296W        W82690  39.328  26.854  11.536
14297W        W82691  24.485   6.834   2.186
14298W        W82692  21.290   0.369   2.803
14299W        W82693  42.597  12.646   2.289
14300W        W82694  23.582   3.247  12.764
14301W        W82695  21.411   6.163  13.917
14302W        W82696  41.813  36.127   2.224
14303W        W82697  28.444  23.539   0.733
14304W        W82698   4.655  10.632   3.154
14305W        W82699   1.971  21.973  11.206
14306W        W82700  21.084  21.540  10.652
14307W        W82701  20.831  28.212   2.816
14308W        W82702   7.663  20.633  14.295
14309W        W82703  42.426  24.747   3.736
14310W        W82704   7.463  22.603   2.468
14311W        W82705  25.041  20.768  12.422
14312W        W82706   5.732   8.466   3.789
14313W        W82707  20.377  16.376  10.535
14314W        W82708  14.242  31.858  14.972
14315W        W82709  25.890  38.652   0.864
14316W        W82710  29.631  12.194   3.723
14317W        W82711  28.027  20.854   1.879
14318W        W82712  34.048  43.201  13.036
14319W        W82713  11.940  22.459   2.099
14320W        W82714  33.860  32.701   1.649
14321W        W82715   3.773   7.793  11.221
14322W        W82716  30.979  30.029   3.865
14323W        W82717  11.186  36.001   4.411
14324W        W82718   2.930  31.510  12.002
14325W        W82719  35.336  25.751  10.706
14326W        W82720  17.477  16.999  11.565
14327W        W82721  17.570  40.076   0.756
14328W        W82722  19.743  43.284   3.381
14329W        W82723  22.553  23.163   2.149
14330W        W82724   3.847  28.648   4.185
14331W        W82725   9.913  24.153   0.893
14332W        W82726  22.972  32.016  11.133
14333W        W82727  40.998  37.830  12.545
14334W        W82728  43.848   4.462  11.596
14335W        W82729  43.359  25.710   2.802
14336W        W82730  30.891  25.717  10.972
14337W        W82731   5.269  29.561  14.940
14338W        W82732  43.189  38.008  11.023
14339W        W82733  39.383  39.652   1.725
14340W        W82734  40.814  22.115  13.363
14341W        W82735  32.180   6.300   4.918
14342W        W82736  43.433  35.153   4.619
14343W        W82737  23.852   2.186   3.109
14344W        W82738  17.573  35.526  10.682
14345W        W82739   0.072  14.132   3.108
14346W        W82740   0.948  28.665  13.538
14347W        W82741  21.419  41.819   4.955
14348W        W82742  14.450  34.107   3.794
14349W        W82743  17.346  39.844   1.820
14350W        W82744  10.965   1.415   2.362
14351W        W82745  42.508  11.682  13.496
14352W        W82746  27.962  34.898  12.442
14353W        W82747  38.846   7.741   4.223
14354W        W82748   1.036  40.930   0.787
14355W        W82749   7.888  36.937   2.683
14356W        W82750  23.179  43.323  14.758
14357W        W82751  37.094  41.531  11.521
14358W        W82752  26.948  44.926   3.251
14359W        W82753  14.378   7.880   0.383
14360W        W82754  25.052  19.765   1.431
14361W        W82755  10.587  23.182  14.708
14362W        W82756  32.240  19.667  13.301
14363W        W82757  30.605  10.322  13.607
14364W        W82758  29.317  44.595  10.587
14365W        W82759  27.906  14.617   3.381
14366W        W82760  40.461  34.172   4.267
14367W        W82761  21.577   3.895  13.291
14368W        W82762  23.960  40.470   4.477
14369W        W82763  36.646  12.748  12.199
14370W        W82764  20.307  35.328   0.945
14371W        W82765  24.385  15.236   1.327
14372W        W82766  33.407   0.429  14.014
14373W        W82767  16.748  38.418   0.890
14374W        W82768  38.792  36.036  13.815
14375W        W82769  16.663  25.966  14.762
14376W        W82770  29.345  34.646   4.142
14377W        W82771  22.935   6.025  12.104
14378W        W82772  11.160   7.006  10.709
14379W        W82773  12.780  36.203  13.469
14380W        W82774   4.400  28.191   3.705
14381W        W82775  17.568   3.223   3.677
14382W        W82776  13.730  44.938   1.931
14383W        W82777   2.427  22.539   1.931
14384W        W82778   5.390  19.229  11.004
14385W        W82779   6.993   8.135   4.052
14386W        W82780  34.137  13.283  10.583
14387W        W82781  31.662  19.955   4.827
14388W        W82782  34.947  11.069   3.713
14389W        W82783  43.046  15.820  12.147
14390W        W82784  34.025  32.291  14.890
14391W        W82785  21.754  14.304   2.814
14392W        W82786  38.200   0.289  12.986
14393W        W82787   6.983  43.872   2.622
14394W        W82788  16.339  13.365  11.633
14395W        W82789  32.668  32.490   2.864
14396W        W82790   9.829   4.720   2.003
14397W        W82791  15.366  27.969   1.683
14398W        W82792   0.045  23.070   0.291
14399W        W82793  30.101  23.681  11.099
14400W        W82794  20.311  31.558   2.177
14401W        W82795  38.427  22.128   4.578
14402W        W82796  16.015  16.118  11.201
14403W        W82797  42.931   4.858  11.016
14404W        W82798  35.532   6.739  11.473
14405W        W82799   0.563   5.409   0.478
14406W        W82800  44.846   8.726  12.077
14407W        W82801  31.148  43.112   3.642
14408W        W82802  18.521  39.613   3.250
14409W        W82803  44.422  35.617  14.380
14410W        W82804  36.594  21.957  13.893
14411W        W82805  44.041  19.650   3.343
14412W        W82806  43.396  33.056  10.580
14413W        W82807   9.122  27.625   3.857
14414W        W82808   0.358  39.016   5.063
14415W        W82809  40.753   1.776   3.420
14416W        W82810  20.245  25.628  12.810
14417W        W82811  31.175  35.396   0.725
14418W        W82812  16.590  11.284  13.008
14419W        W82813  32.538  28.476  14.475
14420W        W82814  16.836  24.595  10.730
14421W        W82815  41.212  37.473   3.072
14422W        W82816  10.218   1.665   3.723
14423W        W82817   0.835  27.136  14.404
14424W        W82818   6.429  35.686  12.028
14425W        W82819   1.136  34.565  14.855
14426W        W82820  39.833   6.866   2.241
14427W        W82821  39.754  29.177  10.666
14428W        W82822   0.553  15.315  12.400
14429W        W82823  40.061   1.829  11.922
14430W        W82824  31.121  21.495   3.350
14431W        W82825  11.901   2.455  14.369
14432W        W82826  38.349  13.161   3.116
14433W        W82827   2.050  18.421  14.074
14434W        W82828  27.564   4.020   3.127
14435W        W82829   6.978   0.970   3.472
14436W        W82830  30.539   3.820  10.768
14437W        W82831  21.701  35.313  14.410
14438W        W82832  43.261  10.107  14.959
14439W        W82833  31.445  40.334  11.546
14440W        W82834  37.515  31.885   5.013
14441W        W82835  38.083  33.641  11.655
14442W        W82836   8.115   2.041   2.841
14443W        W82837  40.462  39.853   0.270
14444W        W82838  32.794  44.002   2.955
14445W        W82839  38.600  12.096  13.969
14446W        W82840  41.819  15.151  11.847
14447W        W82841   7.087  19.245  14.979
14448W        W82842  28.001   9.314   4.360
14449W        W82843  15.325  17.176   1.672
14450W        W82844  27.280  15.248   2.757
14451W        W82845  41.593  34.628  13.422
14452W        W82846  32.517  33.512   1.784
14453W        W82847  24.997  17.541  11.513
14454W        W82848  38.057  29.432  10.799
14455W        W82849  23.259  10.766  11.755
14456W        W82850  29.744  41.611   3.270
14457W        W82851  40.548  31.852  12.012
14458W        W82852   7.398   5.189  10.264
14459W        W82853  17.536  42.866   1.388
14460W        W82854  30.498  31.417   4.586
14461W        W82855   3.474  13.906  13.887
14462W        W82856   6.346  19.224   2.734
14463W        W82857  27.440  42.780  13.799
14464W        W82858  41.026  36.051   3.035
14465W        W82859  21.796  30.920  14.857
14466W        W82860   5.873  18.607   2.658
14467W        W82861   1.852  12.061  11.215
14468W        W82862  15.823  35.868   0.858
14469W        W82863  17.244   1.650   4.144
14470W        W82864  38.327  10.687  10.574
14471W        W82865  36.611  28.164   4.046
14472W        W82866  17.044   0.947   0.958
14473W        W82867  17.495   6.641   1.761
14474W        W82868  42.873   4.363  10.732
14475W        W82869  29.093  44.171   0.863
14476W        W82870   2.982  32.826   1.845
14477W        W82871  34.041  10.202  11.952
14478W        W82872  31.159  37.282   1.713
14479W        W82873  27.396  30.594   4.452
14480W        W82874  40.529  33.411   2.611
14481W        W82875  27.136  23.709   1.439
14482W        W82876  22.401  37.605   0.940
14483W        W82877  37.056  44.349   4.349
14484W        W82878  38.621  10.923  11.534
14485W        W82879  24.848  26.239  11.095
14486W        W82880  33.048  16.637   0.750
14487W        W82881   8.926  18.216  13.510
14488W        W82882  15.254  37.590  12.242
14489W        W82883  14.779   4.718   3.334
14490W        W82884  16.413  34.364  13.627
14491W        W82885  29.698  23.310   0.972
14492W        W82886  40.813  12.371   4.105
14493W        W82887  22.741  34.974  10.227
14494W        W82888  33.351  41.717   3.587
14495W        W82889  27.364  44.279  12.206
14496W        W82890   2.781  41.794  13.595
14497W        W82891  36.657  15.658   3.344
14498W        W82892  21.074  39.905  14.472
14499W        W82893  38.511  14.276  14.879
14500W        W82894  40.321  42.927   3.683
14501W        W82895   5.666  10.791  13.019
14502W        W82896  13.065  37.174  13.799
14503W        W82897  39.892  44.502   4.627
14504W        W82898  25.235  30.968   2.301
14505W        W82899  33.059  27.125  11.003
14506W        W82900  17.617  23.102  14.468
14507W        W82901   2.978  11.295   3.104
14508W        W82902  16.642  34.687   3.163
14509W        W82903  31.555  27.992  13.828
14510W        W82904   8.880   1.973   3.243
14511W        W82905  31.898  17.170   4.182
14512W        W82906  43.774   4.240   1.696
14513W        W82907  17.772  12.097  11.329
14514W        W82908  30.553  25.947  10.623
14515W        W82909  22.475  17.662   3.744
14516W        W82910   3.249   0.242  10.339
14517W        W82911  11.358  32.452  12.000
14518W        W82912   5.960  39.039   0.304
14519W        W82913   8.126   8.380   5.033
14520W        W82914  11.048  36.128  12.603
14521W        W82915   6.460   4.370  12.020
14522W        W82916  18.252   3.386  13.045
14523W        W82917   1.151   2.221   2.720
14524W        W82918   1.295  43.796   2.163
14525W        W82919  37.422  20.281   1.274
14526W        W82920  28.626  17.241   0.483
14527W        W82921  24.157  39.700  14.341
14528W        W82922  30.362  27.498  12.671
14529W        W82923  18.078  35.478  12.484
14530W        W82924  24.707  42.740  13.015
14531W        W82925   5.914  29.703  10.831
14532W        W82926  44.254  16.991  14.212
14533W        W82927   3.625  17.620   1.424
14534W        W82928  42.476  27.653   4.145
14535W        W82929  11.218  15.026   2.102
14536W        W82930  16.999  44.001  12.086
14537W        W82931  16.391  24.675   0.415
14538W        W82932  31.626  34.125   4.118
14539W        W82933   0.740  13.516   0.188
14540W        W82934  30.584  12.109   1.371
14541W        W82935  36.800  14.334   2.495
14542W        W82936  34.431  38.978   3.317
14543W        W82937  35.945  16.362   4.601
14544W        W82938  39.540   3.055  10.748
14545W        W82939  30.867  38.588   2.226
14546W        W82940  13.781   4.750  11.113
14547W        W82941   3.169  11.711   4.603
14548W        W82942  34.530  37.467   0.358
14549W        W82943  43.510  13.382   0.465
14550W        W82944  14.195  31.579  12.607
14551W        W82945   3.337  22.586  10.398
14552W        W82946  24.609   7.192   3.607
14553W        W82947  30.660  18.475  11.153
14554W        W82948  26.457  42.527   2.289
14555W        W82949   4.938   7.150  14.973
14556W        W82950   7.781  26.283  13.564
14557W        W82951  43.665  28.542  12.455
14558W        W82952  20.197  19.707   3.162
14559W        W82953  38.503  29.096   2.669
14560W        W82954  17.582  35.034  10.868
14561W        W82955  42.044  39.772   3.397
14562W        W82956  21.512  10.134  10.782
14563W        W82957  37.373  22.149  12.445
14564W        W82958  29.644  43.579   4.209
14565W        W82959   5.876  39.359   0.827
14566W        W82960  13.462  23.020  10.746
14567W        W82961   2.300   3.971   2.865
14568W        W82962  24.620  19.201  12.925
14569W        W82963  21.422  20.399  11.566
14570W        W82964  20.788  39.807   4.891
14571W        W82965  34.830  14.588   2.334
14572W        W82966   2.638   7.222  11.185
14573W        W82967  32.144  14.747  14.162
14574W        W82968  22.246  15.742   1.305
14575W        W82969  24.112   5.956  14.569
14576W        W82970  20.081  27.017   1.299
14577W        W82971  20.975  18.156  10.520
14578W        W82972  10.847  43.339   4.594
14579W        W82973  27.304  10.219   4.993
14580W        W82974  42.227  27.968   0.846
14581W        W82975  38.402  19.327  11.089
14582W        W82976  40.419  15.584  14.435
14583W        W82977  30.329  38.253  12.571
14584W        W82978   9.345  14.552   1.978
14585W        W82979  16.078  32.609  13.388
14586W        W82980  40.418  39.583  10.555
14587W        W82981  29.964  15.377  12.444
14588W        W82982  13.035  32.825   1.737
14589W        W82983   0.259  30.353   2.809
14590W        W82984  11.915  19.012   4.068
14591W        W82985  19.069  14.872  13.616
14592W        W82986  39.357  44.463  12.705
14593W        W82987   2.700  32.715   3.290
14594W        W82988  38.600  40.865  13.391
14595W        W82989  29.220  14.296   0.847
14596W        W82990  21.007  15.247  14.959
14597W        W82991  11.407  15.078  13.480
14598W        W82992  36.818   0.530  12.407
14599W        W82993   8.747  26.463   0.289
14600W        W82994  36.394  33.350  11.222
14601W        W82995  23.763  33.492  10.724
14602W        W82996  17.268  30.863  12.113
14603W        W82997  42.536   7.235  13.119
14604W        W82998   1.783  30.660   2.835
14605W        W82999  25.422  27.077  10.707
14606W        W83000  23.004   6.920   3.040
14607W        W83001  15.073  13.573  14.949
14608W        W83002  10.396  13.129   2.220
14609W        W83003  17.304  33.673  14.746
14610W        W83004  38.233  40.220  11.101
14611W        W83005  15.483  25.176   4.227
14612W        W83006  29.038  19.806   1.795
14613W        W83007  16.363  37.108   4.296
14614W        W83008  20.157  10.681  14.375
14615W        W83009  38.535  24.473  14.827
14616W        W83010  26.465  18.306  12.948
14617W        W83011  30.952  37.676  13.039
14618W        W83012  43.800   9.870   2.967
14619W        W83013  41.871  29.204   0.252
14620W        W83014  41.364  31.700   4.323
14621W        W83015  31.299  35.552  11.705
14622W        W83016  44.288  28.578   3.932
14623W        W83017  23.165  30.910  12.967
14624W        W83018  24.759  20.228  13.514
14625W        W83019  38.903  26.125   2.018
14626W        W83020  12.682   3.714   1.253
14627W        W83021  42.035  24.769   0.428
14628W        W83022  30.135  12.253   4.649
14629W        W83023  15.958   5.374   0.517
14630W        W83024   7.168   4.734  12.893
14631W        W83025   4.369  19.928  13.166
14632W        W83026  33.805  41.101   4.016
14633W        W83027  14.873  20.042  13.623
14634W        W83028  18.835  43.525   2.370
14635W        W83029  17.322  17.387   1.258
14636W        W83030  37.276   1.797   1.792
14637W        W83031   3.371  23.035  12.871
14638W        W83032  29.639  29.460   2.176
14639W        W83033   4.250   7.275  13.949
14640W        W83034  37.758   8.176   1.750
14641W        W83035  31.498   8.472  14.966
14642W        W83036  34.525  14.672   0.731
14643W        W83037  39.940  25.052  13.241
14644W        W83038  37.478  13.418  11.962
14645W        W83039  33.458  31.138  13.564
14646W        W83040  25.952  27.648   2.287
14647W        W83041  13.552   0.888   0.793
14648W        W83042  39.044  29.627  12.583
14649W        W83043  35.798  23.549  11.854
14650W        W83044  26.669  40.774  13.415
14651W        W83045  22.425  16.105  11.386
14652W        W83046  17.298  13.099   1.395
14653W        W83047  10.185   2.315   3.170
14654W        W83048  19.979  23.958   1.381
14655W        W83049  23.003  14.384   3.173
14656W        W83050  16.036   7.212   2.790
14657W        W83051  31.503  19.981   1.859
14658W        W83052  12.099  39.894   1.941
14659W        W83053   9.148  39.541  13.423
14660W        W83054  18.576  44.195  13.460
14661W        W83055  40.424  43.426   3.471
14662W        W83056   9.187  37.844   0.033
14663W        W83057   8.471  18.099   3.300
14664W        W83058  19.002  15.397   2.241
14665W        W83059  22.111  17.851   1.326
14666W        W83060   6.809  41.860   2.436
14667W        W83061  21.924  41.994  13.935
14668W        W83062  40.398  33.959   0.680
14669W        W83063  29.621  27.097  14.837
14670W        W83064   9.381  39.696   0.815
14671W        W83065  27.584  23.658   0.854
14672W        W83066  28.205  38.853  13.086
14673W        W83067  37.075  18.801  14.558
14674W        W83068  35.450  38.921  10.747
14675W        W83069  23.002  19.237  13.576
14676W        W83070  38.398  41.396   4.120
14677W        W83071  15.273   9.165  11.733
14678W        W83072  38.095  18.581   2.857
14679W        W83073  22.086  11.812   4.030
14680W        W83074  36.370   8.684   0.887
14681W        W83075  42.295  41.805   3.225
14682W        W83076   6.611  25.785   3.745
14683W        W83077  11.363  33.436  11.196
14684W        W83078  35.023  22.590  10.497
14685W        W83079  19.147  32.905  11.737
14686W        W83080  40.465  40.538   4.646
14687W        W83081  31.219   3.782   1.814
14688W        W83082  12.926  35.072  12.809
14689W        W83083  38.040  30.302  11.113
14690W        W83084   7.733  26.545   0.328
14691W        W83085  41.703  18.718   2.842
14692W        W83086   4.077  31.828  10.826
14693W        W83087  37.785   0.119   0.498
14694W        W83088  14.594  38.840  12.650
14695W        W83089  21.737  22.829  11.286
14696W        W83090  23.467   1.832  12.262
14697W        W83091  41.457  17.299   1.431
14698W        W83092  38.455  26.709   1.275
14699W        W83093  44.449   0.888  13.083
14700W        W83094  15.706  28.894  13.072
14701W        W83095  14.590  24.969  14.974
14702W        W83096  14.650  31.181   4.831
14703W        W83097   9.875  42.093   3.147
14704W        W83098  25.190  28.558  10.751
14705W        W83099  19.688   3.265  14.776
14706W        W83100  20.578  40.845  14.971
14707W        W83101  13.753  14.362   0.428
14708W        W83102  16.114   0.212   3.897
14709W        W83103  30.948   9.612   3.166
14710W        W83104  26.469  38.072  12.073
14711W        W83105  37.841  13.150   0.940
14712W        W83106  38.433  36.157   2.839
14713W        W83107   5.110   4.939   2.285
14714W        W83108  10.403  39.595  12.843
14715W        W83109  23.312  40.386  14.313
14716W        W83110  40.556   5.922  14.314
14717W        W83111   0.179  27.940   3.036
14718W        W83112  42.906  42.006  11.175
14719W        W83113  43.399  13.632   0.927
14720W        W83114   3.101  35.926  11.265
14721W        W83115  16.863  36.011   4.638
14722W        W83116  28.813  12.856   4.654
14723W        W83117   7.171  43.667   4.870
14724W        W83118  35.148  30.219  12.017
14725W        W83119   1.614  20.512   1.300
14726W        W83120  36.494  31.436   3.206
14727W        W83121  42.999  41.287  10.695
14728W        W83122  21.533  26.508  11.461
14729W        W83123   5.773   0.298  12.858
14730W        W83124  40.402   7.932   4.156
14731W        W83125   6.432  31.990  11.167
14732W        W83126  39.529   0.510   1.286
14733W        W83127  16.430  40.709   2.411
14734W        W83128  38.411  26.760  14.484
14735W        W83129  39.447   5.734  10.724
14736W        W83130  26.324  32.784   2.974
14737W        W83131  30.532  10.788   3.849
14738W        W83132   6.357   8.121  13.562
14739W        W83133   4.208  30.095   3.342
14740W        W83134  10.719  18.679   2.655
14741W        W83135  22.656  19.547  12.854
14742W        W83136  20.787  28.791   2.103
14743W        W83137  24.890  24.473  13.315
14744W        W83138  32.434  22.714   3.331
14745W        W83139   5.958  15.707   2.800
14746W        W83140  14.987  41.081  13.109
14747W        W83141   2.804  17.662   4.683
14748W        W83142  24.111  11.832  14.022
14749W        W83143  14.565  16.957   3.770
14750W        W83144  14.395  32.897  14.814
14751W        W83145  20.255  18.282   1.864
14752W        W83146  19.001   8.073   0.568
14753W        W83147   0.079  19.076   2.541
14754W        W83148  40.958  19.769   2.866
14755W        W83149  26.096   3.902  11.449
14756W        W83150  15.739  11.640   3.769
14757W        W83151  13.739  37.935   3.936
14758W        W83152  18.538   7.777   3.673
14759W        W83153   7.655  33.884   1.624
14760W        W83154  23.697   6.622  11.186
14761W        W83155  18.508  20.288  11.086
14762W        W83156  17.549  23.295   2.678
14763W        W83157  42.553   9.153   3.151
14764W        W83158   6.832  44.835   2.444
14765W        W83159   2.511  12.192   3.166
14766W        W83160  33.059  26.666  14.779
14767W        W83161  26.926  40.593   0.394
14768W        W83162  36.589  35.447   4.750
14769W        W83163  17.760  37.279   0.367
14770W        W83164  30.389  13.873  14.741
14771W        W83165  36.553  17.980   4.494
14772W        W83166  35.542  13.069  10.809
14773W        W83167  37.383  40.331   2.282
14774W        W83168  41.346  21.911  10.863
14775W        W83169  17.580  18.693   1.649
14776W        W83170   2.678  15.794  13.551
14777W        W83171  38.634  30.504  10.136
14778W        W83172  28.536  39.020  11.597
14779W        W83173   1.869  39.856  13.626
14780W        W83174  23.655  31.120  12.115
14781W        W83175  37.851  24.619   0.745
14782W        W83176  28.853  35.409  11.184
14783W        W83177  35.470  27.884  14.941
14784W        W83178  22.116  41.908  12.880
14785W        W83179   3.336   6.677   2.158
14786W        W83180  14.217   4.468  12.169
14787W        W83181  27.234   0.958  12.480
14788W        W83182  16.149  15.665  10.515
14789W        W83183   1.497  29.254  11.265
14790W        W83184   1.363  30.951  11.921
14791W        W83185  21.339  40.014  12.710
14792W        W83186  41.982  16.857   0.915
14793W        W83187  31.291  29.171  12.872
14794W        W83188  27.019  11.851   1.221
14795W        W83189   1.316  22.796  12.040
14796W        W83190   0.363  13.872   0.339
14797W        W83191  17.892  19.169  10.635
14798W        W83192  34.456  31.054   3.301
14799W        W83193  26.220  13.852   3.557
14800W        W83194  20.213  17.111  11.046
14801W        W83195  21.190  27.339  13.327
14802W        W83196   8.768  37.300   4.088
14803W        W83197  15.836  14.661   4.659
14804W        W83198  32.474  40.881   3.855
14805W        W83199   1.487  42.548   3.617
14806W        W83200  29.760  41.807  10.740
14807W        W83201  27.904  26.477  14.430
14808W        W83202  43.508  36.118  13.890
14809W        W83203  41.723  23.481  13.819
14810W        W83204   1.336  19.625   2.639
14811W        W83205  41.473   8.671  13.976
14812W        W83206  19.728  35.130   4.537
14813W        W83207  36.847  16.400  12.862
14814W        W83208   0.605  43.573   3.556
14815W        W83209  14.046  36.529  13.090
14816W        W83210   3.708  27.951   2.051
14817W        W83211  37.968  16.100  13.801
14818W        W83212  43.388  12.173  12.641
14819W        W83213  22.279   2.172   1.165
14820W        W83214   5.775  23.247   3.742
14821W        W83215   7.792  17.403   5.121
14822W        W83216  35.761  25.235   4.778
14823W        W83217  17.202   5.396  13.370
14824W        W83218  10.294   6.766  12.468
14825W        W83219  26.208  17.767   0.310
14826W        W83220  19.725  19.712   1.514
14827W        W83221  38.730  17.281  11.978
14828W        W83222  18.817  39.350  10.456
14829W        W83223  31.140   5.289  11.037
14830W        W83224  40.294   4.787   0.220
14831W        W83225  11.273  17.665   0.528
14832W        W83226   0.831  34.404  12.400
14833W        W83227  42.777  11.075  11.685
14834W        W83228  18.790  24.797  11.224
14835W        W83229  29.505   2.350  10.675
14836W        W83230  42.113  28.393  14.099
14837W        W83231   7.800  36.353  10.702
14838W        W83232  22.008  29.097   1.442
14839W        W83233  15.300  25.211  12.914
14840W        W83234  18.534  19.741  14.269
14841W        W83235   5.939  17.777  11.899
14842W        W83236  42.860  14.183  11.112
14843W        W83237  37.356  25.509  14.100
14844W        W83238  19.684  43.910   3.040
14845W        W83239  40.263   0.736   2.612
14846W        W83240  20.723  18.707  13.544
14847W        W83241  43.448   4.914   2.134
14848W        W83242  26.375  39.263   4.837
14849W        W83243  34.681   7.851  12.063
14850W        W83244   5.840  26.987   2.743
14851W        W83245   9.639  19.980   1.712
14852W        W83246  42.744   3.118   3.131
14853W        W83247   3.302  21.683   3.802
14854W        W83248  23.188  17.124   4.126
14855W        W83249  28.252  14.012   2.639
14856W        W83250  28.060   0.277   3.169
14857W        W83251  26.504  13.272   2.198
14858W        W83252  22.720  38.838  12.967
14859W        W83253   0.470  14.694  11.893
14860W        W83254   4.962  34.115   4.105
14861W        W83255  15.640  30.554   0.394
14862W        W83256  37.948  36.305  13.810
14863W        W83257  19.691  41.792   4.172
14864W        W83258  42.712   5.661   3.865
14865W        W83259  11.198  34.535   0.909
14866W        W83260  14.217  25.345  14.828
14867W        W83261  29.190  18.785  14.986
14868W        W83262   5.188  34.441  14.244
14869W        W83263  41.284  38.931  13.038
14870W        W83264  15.296  32.415   3.907
14871W        W83265  42.651  27.218   1.454
14872W        W83266  15.823  43.256   1.386
14873W        W83267  40.977  18.488   1.933
14874W        W83268  25.558   9.528   0.701
14875W        W83269  39.784  22.815  11.110
14876W        W83270  34.576  18.079  12.151
14877W        W83271  38.778  32.664   4.214
14878W        W83272  17.329  40.758  11.439
14879W        W83273  12.351  19.107   4.695
14880W        W83274  17.695  39.813   5.351
14881W        W83275   1.309  21.320   4.946
14882W        W83276  20.222  11.851  11.549
14883W        W83277   8.098  29.919   0.334
14884W        W83278   1.665   4.316   2.727
14885W        W83279  16.116  29.486  10.181
14886W        W83280   6.587  41.243   1.817
14887W        W83281  12.924  33.409  12.515
14888W        W83282  22.282  13.597  13.487
14889W        W83283  26.501   3.689  11.673
14890W        W83284  36.794   6.864   0.218
14891W        W83285  32.547  23.262  13.607
14892W        W83286  25.500  27.940  12.180
14893W        W83287  40.253  25.935   4.306
14894W        W83288  11.658  39.932   0.618
14895W        W83289  20.048  15.318   2.442
14896W        W83290  14.555  25.193   2.263
14897W        W83291  26.165  33.715  14.875
14898W        W83292   5.406  42.189  10.368
14899W        W83293  23.831  10.370   3.223
14900W        W83294  24.067   4.772  12.503
14901W        W83295  42.329  35.395  14.771
14902W        W83296  31.538  34.982  14.028
14903W        W83297  36.722  41.469   1.767
14904W        W83298  17.520  36.523   4.569
14905W        W83299   2.495  12.740  12.829
14906W        W83300  38.310  40.109   3.184
14907W        W83301  36.658  37.875   0.282
14908W        W83302   9.503   1.481  14.261
14909W        W83303   4.851  27.684  12.513
14910W        W83304  43.911   0.321   2.950
14911W        W83305  27.925  17.976  13.037
14912W        W83306  18.711  21.082  10.655
14913W        W83307  36.039  35.346  14.564
14914W        W83308  24.274   1.193   4.989
14915W        W83309  32.474  39.841  10.696
14916W        W83310  25.649  10.115  12.002
14917W        W83311  18.013  10.152   3.282
14918W        W83312  40.031  40.040   0.004
14919W        W83313  20.005  42.628  14.313
14920W        W83314  11.198  17.055   4.834
14921W        W83315  22.636  25.452   1.362
14922W        W83316  42.604  17.801   3.522
14923W        W83317  44.847   3.086   9.979
14924W        W83318   5.426  44.376  14.059
14925W        W83319  44.917  35.533  12.931
14926W        W83320  18.162  28.399   3.637
14927W        W83321  41.435  13.644  14.829
14928W        W83322   1.420  44.009  13.335
14929W        W83323  43.971  11.790   2.827
14930W        W83324  18.419  30.284   1.392
14931W        W83325  42.430  36.809  14.565
14932W        W83326  14.003  31.277   3.205
14933W        W83327   6.373  43.008  10.789
14934W        W83328  15.673  27.617   1.905
14935W        W83329  44.171   7.214  11.181
14936W        W83330  13.309   2.836   3.546
14937W        W83331  11.891  12.033  14.264
14938W        W83332  20.528   2.587  13.369
14939W        W83333  40.382  37.737  13.902
14940W        W83334  14.243  18.565   2.832
14941W        W83335  29.644  12.111   2.753
14942W        W83336   0.868  20.536  11.467
14943W        W83337  42.831  20.607  13.248
14944W        W83338  24.565  11.696  11.879
14945W        W83339   1.299  22.494  11.637
14946W        W83340  26.795  34.668   0.252
14947W        W83341  35.895  12.054  12.969
14948W        W83342  17.775  20.170  12.410
14949W        W83343  43.401  27.989   2.159
14950W        W83344  29.117  32.193   1.457
14951W        W83345  27.884  19.990   4.473
14952W        W83346  43.681   1.646   1.368
14953W        W83347   9.175  31.597  13.427
14954W        W83348  39.177   9.754   4.917
14955W        W83349  16.179  10.144  14.956
14956W        W83350  10.531   7.332   2.656
14957W        W83351  21.580  36.064  11.020
14958W        W83352  33.435  37.561  12.292
14959W        W83353  44.033  16.182  10.780
14960W        W83354  32.409  12.666   4.323
14961W        W83355  23.981  37.284   0.622
14962W        W83356   3.919  33.933  14.286
14963W        W83357   9.115  38.500  13.324
14964W        W83358   0.585   3.938   2.186
14965W        W83359  39.107  34.920   9.972
14966W        W83360  32.371  11.273  14.012
14967W        W83361  16.044   3.099  12.567
14968W        W83362  18.656  18.470  11.645
14969W        W83363  24.624  37.489   3.443
14970W        W83364   7.754  33.066   3.568
14971W        W83365  24.993  16.065   1.550
14972W        W83366  37.813  24.912  13.471
14973W        W83367  13.761  35.184  12.486
14974W        W83368  16.926  27.026  13.264
14975W        W83369  41.956  22.760  10.817
14976W        W83370  19.675  27.892   0.961
14977W        W83371  19.373  18.319   4.110
14978W        W83372   0.872  44.409   4.989
14979W        W83373   6.459  25.682  12.429
14980W        W83374  18.686  32.499   1.134
14981W        W83375   1.816  33.863   0.247
14982W        W83376   4.708  34.553  14.992
14983W        W83377  12.562  42.966   3.800
14984W        W83378  17.002  24.913   2.520
14985W        W83379  38.487  25.155  14.470
14986W        W83380   3.975  22.292   0.173
14987W        W83381  15.257  41.876   2.207
14988W        W83382  10.659  12.717  12.833
14989W        W83383  43.118  16.743   3.285
14990W        W83384  18.081  10.612   1.367
14991W        W83385  44.766  36.767  11.234
14992W        W83386  25.570  13.584   0.268
14993W        W83387  12.924  36.537  11.181
14994W        W83388  30.998  27.924  11.655
14995W        W83389  43.249  22.246  13.313
14996W        W83390   5.939  26.937  13.460
14997W        W83391   4.863  26.738  14.518
14998W        W83392  37.236  29.710   5.126
14999W        W83393  31.593   9.838  11.867
15000W        W83394  43.093  26.520   1.014
15001W        W83395  35.286  24.018   4.005
15002W        W83396  33.757   5.180   2.815
15003W        W83397  33.769  21.902  14.366
15004W        W83398   1.291   7.425  13.437
15005W        W83399   1.991  30.100   0.258
15006W        W83400  35.404  41.477  13.148
15007W        W83401  28.470   1.896   0.788
15008W        W83402   0.504  38.829   2.169
15009W        W83403  10.879  29.441   0.794
15010W        W83404  40.408  18.011  11.045
15011W        W83405  44.407  25.396  11.070
15012W        W83406  40.118  42.318  13.551
15013W        W83407   3.148  43.463   4.181
15014W        W83408  28.746   8.241  13.054
15015W        W83409  22.679  24.793  11.146
15016W        W83410  27.972  14.239   1.297
15017W        W83411   6.207  38.637   4.488
15018W        W83412   4.023  24.539  11.882
15019W        W83413   1.386  44.445   4.853
15020W        W83414   6.685  18.727   1.084
15021W        W83415   1.924   5.237   3.896
15022W        W83416  28.730  14.724   0.188
15023W        W83417  29.038  42.559   9.929
15024W        W83418  31.085  16.624   2.233
15025W        W83419  26.456  44.832   1.576
15026W        W83420   4.009   1.327  14.726
15027W        W83421  20.285  15.899  10.676
15028W        W83422  42.817  41.872  12.548
15029W        W83423  26.473  36.852  14.858
15030W        W83424  35.274  11.844   1.263
15031W        W83425  15.476  14.097   0.843
15032W        W83426   6.953  33.073  14.654
15033W        W83427   0.883   9.639  11.421
15034W        W83428   5.147  28.999  12.984
15035W        W83429  14.906  27.392   0.222
15036W        W83430  16.401  36.487   9.916
15037W        W83431  19.647  23.250  14.485
15038W        W83432  18.199  11.242   2.443
15039W        W83433  11.856  32.282   2.715
15040W        W83434   6.703  35.178   1.507
15041W        W83435   6.659   0.741   1.472
15042W        W83436  29.332  25.240   0.828
15043W        W83437  20.659  43.217   2.975
15044W        W83438  32.997  14.617   0.088
15045W        W83439  42.607  33.814  13.953
15046W        W83440  12.345  36.390  14.524
15047W        W83441   9.618  17.365  10.670
15048W        W83442  38.864  35.691  14.621
15049W        W83443   9.029  11.566  10.623
15050W        W83444  40.411   5.439   3.680
15051W        W83445  26.077  17.342   2.859
15052W        W83446  38.453  12.185  14.474
15053W        W83447  34.305  11.856  14.458
15054W        W83448  43.710   9.499   2.181
15055W        W83449  42.654  17.983  11.162
15056W        W83450  37.074  16.973   3.622
15057W        W83451  35.553  16.697  12.540
15058W        W83452  36.816  30.150   2.326
15059W        W83453  28.502   2.736   0.215
15060W        W83454  43.935   7.233  14.399
15061W        W83455   1.165  25.950   1.791
15062W        W83456  12.818  36.104   1.469
15063W        W83457  37.918  42.822  13.848
15064W        W83458  38.460  29.487  11.175
15065W        W83459   8.044   8.093  12.985
15066W        W83460   0.288  43.962   3.595
15067W        W83461  21.709  12.943  10.186
15068W        W83462   7.463  10.798  10.725
15069W        W83463  43.446  11.029   0.916
15070W        W83464  17.483  31.160  12.502
15071W        W83465  36.155  19.417  11.645
15072W        W83466  20.257  43.874   3.694
15073W        W83467  41.830  12.900  12.470
15074W        W83468  44.709   7.416   4.092
15075W        W83469  14.103  20.296   3.345
15076W        W83470   6.485  32.894  13.866
15077W        W83471  32.796  43.698   1.531
15078W        W83472   0.954  42.824   3.674
15079W        W83473  10.295   9.871  10.198
15080W        W83474  44.845   1.392   0.522
15081W        W83475  29.082   0.250   3.228
15082W        W83476   3.346  10.271   3.369
15083W        W83477  21.696  12.339  13.931
15084W        W83478  35.070  14.682  11.097
15085W        W83479  32.875   6.143   4.446
15086W        W83480  10.187  24.879   1.535
15087W        W83481  18.458  12.009   4.755
15088W        W83482  15.611  15.037  10.120
15089W        W83483  11.912  42.061  11.556
15090W        W83484  34.462  23.087   3.749
15091W        W83485  28.624  25.110  13.958
15092W        W83486  41.970  22.270  14.444
15093W        W83487  28.082  25.392   1.914
15094W        W83488  42.069  40.881   4.223
15095W        W83489  44.323   8.667  14.260
15096W        W83490  33.063  17.702  11.396
15097W        W83491   1.863   8.174   3.750
15098W        W83492  22.262  32.991   1.316
15099W        W83493  18.349  34.382   2.762
15100W        W83494  37.493   9.224  12.501
15101W        W83495  19.352   5.241  14.045
15102W        W83496  35.984  38.793  10.917
15103W        W83497   7.482  36.340  11.151
15104W        W83498  20.542  22.395  10.585
15105W        W83499  33.034  42.331   4.531
15106W        W83500  43.859  42.689   0.499
15107W        W83501  27.020  39.759  12.130
15108W        W83502  25.703  14.322  10.392
15109W        W83503  12.385  26.479  12.042
15110W        W83504  33.641  33.063   0.286
15111W        W83505   8.569  38.299  13.936
15112W        W83506  33.959  42.839  10.321
15113W        W83507  21.683  26.967   5.144
15114W        W83508  36.831  44.968   4.883
15115W        W83509  44.806  20.192   3.652
15116W        W83510  25.040   7.144   4.845
15117W        W83511  33.963   9.302   1.350
15118W        W83512  19.897  39.482  13.378
15119W        W83513  40.798   6.856  10.551
15120W        W83514  29.593  35.638  10.825
15121W        W83515  23.190  36.832   1.271
15122W        W83516   2.347  20.615  13.806
15123W        W83517  43.062  13.178  14.557
15124W        W83518  26.780   9.947   0.898
15125W        W83519   7.141  34.338   2.667
15126W        W83520   6.339  13.608   2.788
15127W        W83521  33.390  24.236   1.284
15128W        W83522   9.772   8.915  11.458
15129W        W83523  30.466  24.034  10.995
15130W        W83524  18.859   3.837  11.446
15131W        W83525  22.788   3.836   0.755
15132W        W83526  36.279  39.991   1.245
15133W        W83527  19.195  15.706  13.763
15134W        W83528   7.437  37.893   4.918
15135W        W83529  30.494  24.760   2.472
15136W        W83530   2.557   6.028  14.155
15137W        W83531  19.646  23.138   0.003
15138W        W83532   6.756  36.708  11.580
15139W        W83533  43.410  39.614  10.390
15140W        W83534  15.182   5.983  12.058
15141W        W83535  11.771  17.948   1.764
15142W        W83536  12.847  32.710   2.793
15143W        W83537  11.642  28.542  10.906
15144W        W83538  37.585  38.910  13.885
15145W        W83539  19.018  18.872  13.363
15146W        W83540  24.918  40.949   3.774
15147W        W83541   6.365   0.335   1.712
15148W        W83542  44.265  30.606   2.784
15149W        W83543   7.959  28.204   4.200
15150W        W83544  20.117  43.756  11.642
15151W        W83545  11.503  41.108  12.108
15152W        W83546  36.053  34.678  13.500
15153W        W83547  40.233  41.623  12.517
15154W        W83548  13.279  12.658   0.320
15155W        W83549  34.591  11.802  12.532
15156W        W83550  42.286  42.427  11.513
15157W        W83551  23.713   8.668  11.071
15158W        W83552  36.465  15.379   3.742
15159W        W83553  40.391  17.323   1.835
15160W        W83554   2.837  36.030   1.623
15161W        W83555   3.864  25.038   3.785
15162W        W83556  13.294  12.982   3.701
15163W        W83557  30.467  11.808   0.687
15164W        W83558  38.063  16.710  13.296
15165W        W83559  12.036  15.053   0.821
15166W        W83560  28.985  28.597   4.115
15167W        W83561   9.830  16.595  11.243
15168W        W83562  29.601  21.027  13.344
15169W        W83563   4.601   7.959  11.562
15170W        W83564  13.747  41.438   0.867
15171W        W83565  24.003   7.086  10.856
15172W        W83566   7.257  25.674  13.355
15173W        W83567  41.165   6.370   4.207
15174W        W83568  31.385  16.635   2.694
15175W        W83569  29.197  14.748   1.748
15176W        W83570  43.297   3.249  14.473
15177W        W83571  38.953  43.114  14.360
15178W        W83572  23.283   7.121   0.057
15179W        W83573  12.351  39.514  10.947
15180W        W83574   8.426  37.582   2.680
15181W        W83575  20.841  15.009   1.369
15182W        W83576  28.512  25.841   2.181
15183W        W83577  16.669  35.212   3.240
15184W        W83578  28.091  20.527   2.287
15185W        W83579  35.625   1.641   1.519
15186W        W83580  43.292  25.522   1.061
15187W        W83581  42.623  19.326   2.257
15188W        W83582   5.504   5.371   3.151
15189W        W83583  23.249  29.459  11.665
15190W        W83584  12.266  23.458   0.431
15191W        W83585  36.676  41.069   1.413
15192W        W83586   3.015   7.328   4.092
15193W        W83587   2.199  35.676   2.108
15194W        W83588  32.049  22.620  14.468
15195W        W83589   5.050   9.147  10.178
15196W        W83590  24.274   6.365  14.918
15197W        W83591  40.777   9.369   3.681
15198W        W83592   3.848  31.105  13.411
15199W        W83593  10.816   1.514  13.205
15200W        W83594  36.071  22.029  10.646
15201W        W83595  19.526  16.622   5.435
15202W        W83596  10.815  34.077   4.277
15203W        W83597  40.103  22.478  12.817
15204W        W83598  28.452  19.956   0.949
15205W        W83599   7.750  20.461  11.266
15206W        W83600  12.868  25.216  10.605
15207W        W83601  12.612  39.800   0.024
15208W        W83602  11.854  25.676  13.369
15209W        W83603  41.919  36.050  13.057
15210W        W83604  25.035   9.668   4.483
15211W        W83605  30.971  31.200  10.341
15212W        W83606  34.056  41.553   1.381
15213W        W83607  39.369  27.949   0.020
15214W        W83608  35.082   5.740  13.964
15215W        W83609   3.934   9.238   1.790
15216W        W83610  33.370  18.319  14.558
15217W        W83611  39.963  32.472  10.881
15218W        W83612  31.093  33.243   3.729
15219W        W83613  13.540  24.645  11.116
15220W        W83614   0.889  28.265  12.701
15221W        W83615   1.991   4.512  11.643
15222W        W83616  33.545   0.869   1.141
15223W        W83617  17.777  23.005  10.720
15224W        W83618  11.846  26.481  13.012
15225W        W83619   3.871   1.278   1.772
15226W        W83620  11.690  25.586   3.893
15227W        W83621  40.004  41.945  14.406
15228W        W83622  28.604   3.824   0.891
15229W        W83623  24.508   7.157   0.403
15230W        W83624  17.560   4.047   0.259
15231W        W83625  22.765  35.070   4.076
15232W        W83626  31.643  27.916   3.802
15233W        W83627  19.608  21.244  13.052
15234W        W83628  20.643  17.840   4.424
15235W        W83629  36.490  12.082   1.649
15236W        W83630   9.832  24.236  14.894
15237W        W83631  41.863  15.982   0.289
15238W        W83632  19.198   0.986   2.554
15239W        W83633   9.612  34.111   1.231
15240W        W83634  20.114  26.422  14.957
15241W        W83635  17.608  24.861   4.135
15242W        W83636   2.387  29.197   2.212
15243W        W83637  38.473   0.591   2.625
15244W        W83638  41.492  30.898   1.950
15245W        W83639  11.794   0.814   1.541
15246W        W83640  39.971  14.640   0.149
15247W        W83641  13.360   3.950  10.307
15248W        W83642   2.001   4.856  13.022
15249W        W83643  28.436  27.066  12.708
15250W        W83644  18.691  29.491  13.447
15251W        W83645   4.683  13.679   0.934
15252W        W83646  12.006   5.700  12.946
15253W        W83647  34.633  37.365   4.492
15254W        W83648   4.834  22.230   3.857
15255W        W83649  20.959  12.250   1.911
15256W        W83650  37.376  28.347  14.387
15257W        W83651  16.254  20.565  14.761
15258W        W83652  30.296  32.761  11.537
15259W        W83653  12.414   5.292   2.273
15260W        W83654   6.964  29.074   3.650
15261W        W83655  24.385  39.495  13.796
15262W        W83656  26.709  34.139   3.605
15263W        W83657  32.150  27.229   0.774
15264W        W83658  40.510  32.208  10.669
15265W        W83659  21.552  19.726   2.456
15266W        W83660   2.874   6.855  13.673
15267W        W83661  23.679   6.823   4.087
15268W        W83662  17.653  29.744   1.314
15269W        W83663  33.026  20.844   2.723
15270W        W83664  22.043   2.389  14.741
15271W        W83665  40.235  11.802  14.938
15272W        W83666  39.255  20.710  14.457
15273W        W83667  17.046   1.471  13.813
15274W        W83668  42.333  18.694  11.935
15275W        W83669  43.037   0.276   4.099
15276W        W83670   6.924   4.389  12.201
15277W        W83671  17.251  41.026  10.487
15278W        W83672   8.432  34.856   3.844
15279W        W83673  19.000   1.786   4.183
15280W        W83674   2.209  26.352  11.641
15281W        W83675   2.697  30.554  12.130
15282W        W83676  33.355   7.716   3.890
15283W        W83677  35.786   1.989   2.711
15284W        W83678  38.442  43.460   3.266
15285W        W83679  40.779  20.227   3.582
15286W        W83680  32.828  35.366   3.639
15287W        W83681  26.454  17.936   0.980
15288W        W83682  19.809  23.159   2.324
15289W        W83683  38.832  35.769  10.973
15290W        W83684  44.030  41.945   3.206
15291W        W83685  14.674  20.875  13.047
15292W        W83686  32.414   4.674  11.988
15293W        W83687   7.683  28.206  14.710
15294W        W83688  44.214  15.506  12.621
15295W        W83689  31.832  29.941   4.808
15296W        W83690  11.829  42.598  14.395
15297W        W83691  39.650  11.737  12.503
15298W        W83692  24.219  21.505   0.829
15299W        W83693   4.276   1.104  13.483
15300W        W83694  36.019  37.868  12.440
15301W        W83695  18.631  25.068  12.616
15302W        W83696  25.553   2.573   2.499
15303W        W83697  16.193  30.408  12.580
15304W        W83698  43.647  24.438   3.343
15305W        W83699  26.178  22.624  14.965
15306W        W83700  44.323  34.345   2.282
15307W        W83701   8.927  23.061  13.426
15308W        W83702  21.652  26.706   2.527
15309W        W83703  29.060  18.123  14.331
15310W        W83704   3.330  40.204  12.897
15311W        W83705  43.241  37.869  11.543
15312W        W83706  35.616   6.327  13.502
15313W        W83707  39.880  42.574  12.451
15314W        W83708  32.157   4.519   1.854
15315W        W83709  30.413  44.788  13.557
15316W        W83710  20.863   4.506   0.457
15317W        W83711  36.821  22.754  12.800
15318W        W83712  22.706  34.575   4.310
15319W        W83713  29.804  32.433   2.944
15320W        W83714   5.096  11.735   3.473
15321W        W83715  38.546  15.622   1.390
15322W        W83716  33.087   5.212   4.635
15323W        W83717  18.271  23.448   0.407
15324W        W83718  43.587  36.468  13.466
15325W        W83719  39.106  21.274  10.951
15326W        W83720  37.079  32.723  13.761
15327W        W83721  17.779  38.582   3.859
15328W        W83722  21.047  23.355  14.974
15329W        W83723  37.875  19.314   4.580
15330W        W83724  14.873  19.158  13.096
15331W        W83725  20.540  15.091  10.745
15332W        W83726  12.280   7.143   2.357
15333W        W83727  33.960  37.889   4.811
15334W        W83728  20.215  42.306  13.929
15335W        W83729   4.497  35.164   2.663
15336W        W83730  39.473  13.264   2.604
15337W        W83731   9.600  28.560  12.552
15338W        W83732  13.713   1.343   4.339
15339W        W83733  19.700  40.563  11.921
15340W        W83734  19.984  21.288  11.202
15341W        W83735   9.338   2.057  11.476
15342W        W83736   6.716  16.487   4.029
15343W        W83737   9.613  42.947  12.233
15344W        W83738   6.608  22.628   0.029
15345W        W83739   3.468  16.014   3.588
15346W        W83740  15.953   7.727  14.275
15347W        W83741  12.258   6.919  13.827
15348W        W83742  42.274  35.537   1.255
15349W        W83743  18.199  15.759  12.000
15350W        W83744  31.695   3.380   4.547
15351W        W83745  27.123   5.209   2.846
15352W        W83746  18.747  39.474  14.833
15353W        W83747  15.099  19.123   3.335
15354W        W83748  36.537  17.272  11.390
15355W        W83749   5.094  26.628  11.041
15356W        W83750  39.754  29.254   3.968
15357W        W83751   8.882   8.474  10.905
15358W        W83752  33.809  32.522   0.332
15359W        W83753  34.160  40.051   0.703
15360W        W83754  13.753  25.382  11.159
15361W        W83755   7.701  13.177  10.711
15362W        W83756   2.364  13.685  11.975
15363W        W83757  28.974  24.779   3.180
15364W        W83758   4.695   5.333  13.347
15365W        W83759  32.575  34.586  13.341
15366W        W83760  34.326  30.672   4.685
15367W        W83761   3.730  41.861  11.648
15368W        W83762  20.013  32.038  13.414
15369W        W83763  43.084  37.301   1.309
15370W        W83764  38.905  23.932  13.620
15371W        W83765  29.638  38.499  13.494
15372W        W83766  13.883  18.558   4.693
15373W        W83767  10.320   5.500   2.581
15374W        W83768  39.648   1.296   3.601
15375W        W83769   4.464  15.248   5.440
15376W        W83770  16.517  12.913   4.091
15377W        W83771  29.408  20.797   0.248
15378W        W83772  37.546  29.141  13.578
15379W        W83773  43.671  12.679  13.395
15380W        W83774   0.111  26.205   1.869
15381W        W83775  16.684   2.691   3.640
15382W        W83776  18.510   6.321   2.283
15383W        W83777   1.507  44.805   0.703
15384W        W83778  37.537  22.669   1.818
15385W        W83779  22.984   7.733  13.574
15386W        W83780  19.120  41.785   0.419
15387W        W83781  18.741  25.138  13.109
15388W        W83782  28.121  24.148   0.440
15389W        W83783  20.709  32.976   2.345
15390W        W83784   9.426  37.207   3.608
15391W        W83785  11.237  44.331   4.178
15392W        W83786  37.431   8.196  13.600
15393W        W83787  36.310  25.488  11.816
15394W        W83788  42.851  26.506   4.844
15395W        W83789  40.836  18.473  13.921
15396W        W83790  23.540  38.512  13.796
15397W        W83791  22.317  25.043   1.336
15398W        W83792  15.846   3.152  13.060
15399W        W83793  23.110  41.745  12.865
15400W        W83794  23.662  17.953   4.749
15401W        W83795  14.121   9.766  10.596
15402W        W83796   0.824  39.236  12.980
15403W        W83797  14.661   8.142   1.260
15404W        W83798   3.723   8.335   1.750
15405W        W83799  33.629   7.131   0.355
15406W        W83800   1.389  17.385  12.425
15407W        W83801  38.806  11.317  12.574
15408W        W83802   3.822  22.007   2.945
15409W        W83803  15.548  38.271   0.480
15410W        W83804  28.986   9.300  13.537
15411W        W83805  42.411  35.013   2.559
15412W        W83806  25.172  13.952   1.501
15413W        W83807  25.678  33.440   1.912
15414W        W83808   4.476  33.373  13.851
15415W        W83809  28.004   7.888   2.219
15416W        W83810   8.692  20.117   3.192
15417W        W83811  15.194  35.809   1.442
15418W        W83812  26.597  20.604   0.665
15419W        W83813  34.976  28.020   4.040
15420W        W83814  33.453  30.137   1.601
15421W        W83815  25.794  17.530  10.226
15422W        W83816  29.468   3.217   3.483
15423W        W83817  42.756   6.756  10.937
15424W        W83818  30.622  38.404  12.113
15425W        W83819  22.344  31.675  13.283
15426W        W83820   3.501   8.699  11.641
15427W        W83821  32.956  30.929   3.125
15428W        W83822  13.644  18.608  10.652
15429W        W83823  16.632  39.592   1.721
15430W        W83824  32.415  39.905  12.874
15431W        W83825  28.937  25.620   2.363
15432W        W83826  17.308  25.707  13.431
15433W        W83827  26.929  20.268   3.504
15434W        W83828   9.313  43.275   2.374
15435W        W83829  25.025  28.763   1.340
15436W        W83830  19.104  12.665  12.073
15437W        W83831  28.862  28.207   1.184
15438W        W83832  27.661  10.407   1.005
15439W        W83833  37.791   9.688   1.322
15440W        W83834   5.771   8.838   1.381
15441W        W83835  43.874   4.816  12.876
15442W        W83836  22.090  16.627   0.537
15443W        W83837  40.589  17.661   1.226
15444W        W83838  44.238  41.578  11.081
15445W        W83839  23.547  24.208   3.230
15446W        W83840  20.787  40.360   5.113
15447W        W83841   1.489  33.109   0.418
15448W        W83842  15.860   2.443   0.641
15449W        W83843   9.260  44.018  13.129
15450W        W83844   2.207  24.165  14.909
15451W        W83845  22.782  11.897  13.448
15452W        W83846  23.032  31.174  13.379
15453W        W83847   2.800  18.510   1.779
15454W        W83848  43.603  42.844  12.396
15455W        W83849  40.037  19.622  12.000
15456W        W83850  44.284  15.511  13.525
15457W        W83851   5.962  24.576  14.791
15458W        W83852   5.766  42.408  12.574
15459W        W83853   8.350  21.135   4.976
15460W        W83854  20.619  42.274   3.446
15461W        W83855  26.138  26.629   3.619
15462W        W83856  38.790  22.439   4.341
15463W        W83857  12.187   5.875  11.631
15464W        W83858  31.061  13.016  14.064
15465W        W83859  33.338   3.368   4.856
15466W        W83860  41.261  33.361  11.134
15467W        W83861  44.952   4.890  11.171
15468W        W83862  24.274  21.007  11.983
15469W        W83863  18.554  36.922  11.428
15470W        W83864   4.482  17.875   0.313
15471W        W83865  29.400  27.959   1.877
15472W        W83866  33.230  15.320   3.179
15473W        W83867  29.156  16.713   4.770
15474W        W83868  39.976  16.621   0.996
15475W        W83869   4.894  42.350   2.856
15476W        W83870   6.731  44.295   2.439
15477W        W83871  14.988   6.978  12.047
15478W        W83872  38.780  31.542  12.294
15479W        W83873  40.762  30.391  11.648
15480W        W83874  43.285  27.502   2.338
15481W        W83875  12.816  19.316   3.946
15482W        W83876  29.170  39.215  14.570
15483W        W83877  25.161  40.880  12.813
15484W        W83878  15.827  14.865  13.988
15485W        W83879  31.594   0.796   3.757
15486W        W83880  40.642  26.467   0.701
15487W        W83881  32.494  44.440   3.087
15488W        W83882  33.410  33.436   3.290
15489W        W83883  37.257  27.959   2.286
15490W        W83884  13.831  30.738   2.145
15491W        W83885  19.537  30.934  11.558
15492W        W83886   0.719  30.842   3.667
15493W        W83887  10.841   7.963  13.349
15494W        W83888  44.539  29.192   1.333
15495W        W83889  13.712  13.767  11.748
15496W        W83890  15.925  30.412  11.187
15497W        W83891  37.879  44.080  14.436
15498W        W83892  40.358  17.503  11.931
15499W        W83893   5.335   7.582  13.516
15500W        W83894  40.539  19.077  11.176
15501W        W83895  37.404  14.932   4.191
15502W        W83896  28.744  10.536  10.731
15503W        W83897   7.187  30.516  14.074
15504W        W83898  43.799   4.035   1.191
15505W        W83899  43.894  24.737  11.547
15506W        W83900  18.065  15.494   0.297
15507W        W83901  43.043  10.704   0.869
15508W        W83902   0.010  43.039   3.747
15509W        W83903  16.290   2.313  12.687
15510W        W83904  15.218  29.074  12.952
15511W        W83905  44.445   7.186  14.496
15512W        W83906  44.964   5.914   2.662
15513W        W83907  11.300   6.276  12.637
15514W        W83908  17.098  19.689   3.909
15515W        W83909  33.579  14.953   0.681
15516W        W83910  32.696  28.488   3.089
15517W        W83911  27.902   4.360   3.329
15518W        W83912  43.337   9.650  12.822
15519W        W83913  32.097   0.900  14.397
15520W        W83914  41.349  41.028   3.257
15521W        W83915   1.682  19.787  11.573
15522W        W83916  11.465  23.724   1.308
15523W        W83917  26.712   2.737  11.692
15524W        W83918  25.624  30.644  12.169
15525W        W83919  25.267  33.682   3.919
15526W        W83920  32.925  40.065   4.305
15527W        W83921  11.803  11.313   3.339
15528W        W83922  35.954  32.164  11.687
15529W        W83923  30.098  37.101   4.191
15530W        W83924  31.918  39.454   0.061
15531W        W83925  40.802   5.419  14.308
15532W        W83926   9.031  31.366   3.400
15533W        W83927  43.363   9.208  12.337
15534W        W83928  13.745  16.345   3.341
15535W        W83929  36.846  34.621   0.739
15536W        W83930  14.074  22.419  11.287
15537W        W83931  12.399  22.598   0.539
15538W        W83932  15.471   2.000   4.402
15539W        W83933  40.825  34.023   0.982
15540W        W83934   2.094  25.032  12.944
15541W        W83935  17.728  21.539   0.888
15542W        W83936  20.308  18.187  13.063
15543W        W83937  26.906  32.360  14.395
15544W        W83938  18.628  37.542  13.743
15545W        W83939  15.817  25.669   2.618
15546W        W83940  14.530   7.884  12.014
15547W        W83941  20.125  21.199  12.609
15548W        W83942  39.984  25.401  13.632
15549W        W83943  42.299  31.767   2.795
15550W        W83944  34.090   4.686   0.767
15551W        W83945   4.758  20.693  13.127
15552W        W83946  10.299  31.430   1.039
15553W        W83947   7.145  22.228   0.791
15554W        W83948   8.192   9.832   4.650
15555W        W83949  36.573  23.074   2.994
15556W        W83950  32.416   8.320  11.173
15557W        W83951  33.146  38.970   3.575
15558W        W83952  22.017  17.609   1.774
15559W        W83953  41.733   3.444   4.596
15560W        W83954  20.753  29.055   4.098
15561W        W83955  27.686  43.932  11.958
15562W        W83956  14.615  43.081   2.368
15563W        W83957  20.918  30.647   1.744
15564W        W83958  38.393   1.208   3.102
15565W        W83959   2.527  37.336  14.522
15566W        W83960  24.604  28.760   3.144
15567W        W83961  32.993  39.881  13.564
15568W        W83962  20.201  21.028  12.137
15569W        W83963  34.165   8.419   1.911
15570W        W83964  11.130  32.077   2.350
15571W        W83965  35.857  24.299  12.861
15572W        W83966  30.428  31.835  11.536
15573W        W83967  27.922  38.283   1.358
15574W        W83968  33.724  34.397   3.727
15575W        W83969   7.337  28.196   2.123
15576W        W83970  12.407  19.218  11.514
15577W        W83971  33.949  10.095   5.214
15578W        W83972   9.043  41.482   4.138
15579W        W83973  15.794  29.377   1.440
15580W        W83974  11.407  27.604   2.144
15581W        W83975  19.282   3.938   1.943
15582W        W83976  33.919  42.108   4.176
15583W        W83977  37.273   5.231   4.002
15584W        W83978   0.928  15.008  14.954
15585W        W83979  44.951   6.238  10.833
15586W        W83980  33.464   8.393  11.149
15587W        W83981   7.729  41.007   0.185
15588W        W83982  27.622  37.943   4.795
15589W        W83983  19.806   4.307  10.766
15590W        W83984   6.016  17.843  13.344
15591W        W83985  26.051  10.376  14.951
15592W        W83986  34.414  32.432   0.237
15593W        W83987  29.936  13.091   4.342
15594W        W83988  36.871  44.604   0.409
15595W        W83989  39.509   8.307   4.352
15596W        W83990  40.044  31.526   0.839
15597W        W83991  28.156  33.399  14.947
15598W        W83992   1.428  19.105   0.713
15599W        W83993  29.709  44.397   2.263
15600W        W83994  39.938  43.297   3.754
15601W        W83995  25.949  12.917   3.750
15602W        W83996  43.702   9.341   1.283
15603W        W83997  23.489  33.658  13.984
15604W        W83998  17.645  10.101   1.711
15605W        W83999  12.307  32.973   4.903
15606W        W84000  15.783  42.774  14.788
15607W        W84001  30.865  23.561   0.417
15608W        W84002  16.171  44.315  10.516
15609W        W84003  15.356   5.159  10.785
15610W        W84004  11.539  11.654  14.335
15611W        W84005  23.561  14.263  11.720
15612W        W84006  31.885  35.176   1.755
15613W        W84007   5.036  42.305  14.394
15614W        W84008   6.757  30.930  12.953
15615W        W84009   8.678  23.522   4.073
15616W        W84010  14.483  12.118  11.148
15617W        W84011   6.370   0.973   5.093
15618W        W84012  20.839  13.880   2.838
15619W        W84013  11.657  26.939   2.192
15620W        W84014  37.379  31.315  11.401
15621W        W84015  24.326  17.650  10.818
15622W        W84016   6.274  21.605   0.083
15623W        W84017  28.366   5.704  13.529
15624W        W84018  31.133  34.034   1.711
15625W        W84019  42.061  30.978  12.937
15626W        W84020   6.471  26.141  14.058
15627W        W84021  33.907  19.303   0.399
15628W        W84022  41.217  36.461   3.285
15629W        W84023  20.246  36.548   0.299
15630W        W84024  28.408  22.080  10.901
15631W        W84025  10.358   3.304  11.649
15632W        W84026  11.233  37.774  11.056
15633W        W84027  30.130  29.712   1.692
15634W        W84028  34.202   6.824   1.547
15635W        W84029  41.029   5.583  11.621
15636W        W84030  35.857  10.170   2.839
15637W        W84031  13.235  37.343  13.128
15638W        W84032  43.973   5.967   2.373
15639W        W84033  10.749   0.986  14.967
15640W        W84034  35.321  21.792   0.726
15641W        W84035   8.700  20.153   2.207
15642W        W84036  17.672  12.161  10.812
15643W        W84037   2.964  16.705  11.499
15644W        W84038  41.556   9.692  12.518
15645W        W84039  17.024  37.131  12.633
15646W        W84040  15.466  42.532   3.399
15647W        W84041  10.807   2.189  11.638
15648W        W84042  37.615  15.054  14.412
15649W        W84043  19.199  37.859   1.801
15650W        W84044   7.899  18.085  14.498
15651W        W84045  40.244  41.835   5.019
15652W        W84046   0.465   9.056  10.843
15653W        W84047  20.349  17.245  12.988
15654W        W84048  12.163  30.927   1.797
15655W        W84049  31.082   5.782   0.201
15656W        W84050  11.956   6.166  13.573
15657W        W84051   5.587   8.993   3.685
15658W        W84052   6.226  28.239   0.054
15659W        W84053  42.764   5.975   2.800
15660W        W84054  35.653  34.215   4.152
15661W        W84055  10.089  35.389  12.984
15662W        W84056  31.487  31.386  10.975
15663W        W84057   7.224  27.213  11.544
15664W        W84058   2.007  22.461   5.544
15665W        W84059  44.463  42.636  11.701
15666W        W84060   9.636  25.803  14.884
15667W        W84061  10.232   3.401   1.773
15668W        W84062  29.005  20.622  11.154
15669W        W84063   6.663  13.370  11.821
15670W        W84064  27.332  13.153  13.433
15671W        W84065  30.851  17.562  12.175
15672W        W84066   9.873  32.975   2.294
15673W        W84067  29.187  41.281   3.731
15674W        W84068  38.040  30.319  12.810
15675W        W84069  42.857  25.265  11.573
15676W        W84070  39.948  32.205   3.157
15677W        W84071  34.219  32.327   1.546
15678W        W84072   3.487  23.423  14.892
15679W        W84073  16.325   5.109  13.288
15680W        W84074   0.045  37.426  13.402
15681W        W84075  16.726   7.945  11.203
15682W        W84076  23.565  33.392  11.190
15683W        W84077  42.297  38.333   4.175
15684W        W84078  38.779  32.961   2.697
15685W        W84079  15.376  42.275   2.949
15686W        W84080  41.335  20.852  13.155
15687W        W84081  26.107  35.578   4.742
15688W        W84082  25.575   0.826   4.049
15689W        W84083  34.873   3.171  14.395
15690W        W84084  38.373  23.568  14.922
15691W        W84085   1.244  26.326  12.333
15692W        W84086  37.951  24.005  11.593
15693W        W84087   6.705  33.780  13.517
15694W        W84088   8.697   6.743   2.608
15695W        W84089  15.613  22.492  11.603
15696W        W84090  27.209  42.057   4.547
15697W        W84091  14.707  41.745   4.048
15698W        W84092  34.029   0.739   2.307
15699W        W84093  18.700  28.910   1.417
15700W        W84094  25.682  41.435   0.944
15701W        W84095  22.228   6.887  13.651
15702W        W84096  33.446  11.102  12.455
15703W        W84097   7.150  44.496  12.675
15704W        W84098  21.087  10.288  10.521
15705W        W84099   5.993   2.597   1.772
15706W        W84100  27.653  44.820   0.657
15707W        W84101  26.679  14.777   0.373
15708W        W84102  42.441   7.972  13.833
15709W        W84103   2.875  32.868  11.709
15710W        W84104  32.978   3.208   2.476
15711W        W84105  23.133   8.914  14.548
15712W        W84106  25.146  22.924   3.791
15713W        W84107  21.958  35.138   4.630
15714W        W84108  26.702  22.788   2.726
15715W        W84109  25.159  12.147   0.444
15716W        W84110   6.691   2.131   0.069
15717W        W84111  25.951  24.028   1.698
15718W        W84112  42.516  25.445  10.714
15719W        W84113   1.951  35.859  12.628
15720W        W84114  12.608  36.598   2.335
15721W        W84115  30.452  44.284  12.852
15722W        W84116  24.059  22.998   4.548
15723W        W84117  15.545   5.519   2.208
15724W        W84118  32.895  24.947  10.605
15725W        W84119  44.845  29.609   0.567
15726W        W84120  18.501  39.107   2.256
15727W        W84121  30.281  41.938   4.328
15728W        W84122  24.441   7.866  13.962
15729W        W84123   5.734  16.089  10.937
15730W        W84124   1.013  32.433  11.038
15731W        W84125   6.950  29.600   1.457
15732W        W84126  39.316  32.615  14.396
15733W        W84127  14.155  11.634   1.565
15734W        W84128  32.669  41.014  14.695
15735W        W84129   5.640  32.366  13.544
15736W        W84130  14.389  42.169   1.718
15737W        W84131  14.662   3.547   0.675
15738W        W84132  40.857   9.424  14.510
15739W        W84133  16.712  44.538   4.206
15740W        W84134  21.978  10.286   1.327
15741W        W84135  24.519  19.064   2.398
15742W        W84136  38.547  44.707   2.131
15743W        W84137  40.935  10.972   2.956
15744W        W84138  17.368   1.777  11.574
15745W        W84139  37.895  18.177  13.921
15746W        W84140  20.285  32.090   0.505
15747W        W84141  13.132  41.262  11.592
15748W        W84142  20.570  24.934  13.596
15749W        W84143  34.234  22.276   3.387
15750W        W84144  30.159  44.268   2.562
15751W        W84145  24.483   0.504  11.415
15752W        W84146   5.302  24.133   3.039
15753W        W84147  27.268   9.346   4.833
15754W        W84148  22.463  23.479  11.620
15755W        W84149  12.313   2.819   3.651
15756W        W84150   7.445  23.707   0.333
15757W        W84151  26.188  41.906   0.398
15758W        W84152  11.158  11.687  12.152
15759W        W84153  17.015  41.641   0.747
15760W        W84154  33.393  16.656  13.788
15761W        W84155  24.768  31.657  14.009
15762W        W84156  23.712  43.365   1.901
15763W        W84157  25.513  31.068   4.391
15764W        W84158  35.539  35.161  14.734
15765W        W84159  22.689  34.515   4.826
15766W        W84160  38.058  24.160  13.021
15767W        W84161  14.837  38.113  10.223
15768W        W84162   2.383  11.812  10.659
15769W        W84163  38.309  12.205  10.762
15770W        W84164   4.350  12.736   3.774
15771W        W84165   9.281  21.307  12.517
15772W        W84166  37.981  19.513   3.790
15773W        W84167  15.835  20.736  12.385
15774W        W84168  27.967  22.086  11.208
15775W        W84169   0.764  40.080  12.680
15776W        W84170  27.094  16.057  14.659
15777W        W84171  20.452  42.581  13.528
15778W        W84172  20.717   2.425  11.128
15779W        W84173  39.394  35.551  13.883
15780W        W84174  11.339  30.979   4.352
15781W        W84175   4.588  44.182  12.555
15782W        W84176   5.937  41.026   2.721
15783W        W84177  21.802  36.944   4.085
15784W        W84178  37.024  21.042  14.953
15785W        W84179  42.346  36.017   3.258
15786W        W84180   3.814  22.605  12.264
15787W        W84181  42.357  44.443  11.066
15788W        W84182  30.185   6.419  14.272
15789W        W84183   1.054   5.286   2.245
15790W        W84184  17.249  42.610   0.782
15791W        W84185  26.913  29.599   2.359
15792W        W84186  23.171  21.749   0.386
15793W        W84187   6.254   0.474  13.012
15794W        W84188  26.586  41.064   2.309
15795W        W84189  44.794  42.998  10.595
15796W        W84190   6.761  25.510  14.769
15797W        W84191  14.901  31.538   2.871
15798W        W84192   2.538  31.034   3.989
15799W        W84193  14.208  44.262   4.566
15800W        W84194  26.985  13.661  12.026
15801W        W84195  39.860  24.953  13.847
15802W        W84196  23.394  44.305  12.988
15803W        W84197  27.934  27.144   1.211
15804W        W84198  15.625   0.687  11.004
15805W        W84199   0.813  41.038   3.333
15806W        W84200  27.981  28.381  13.239
15807W        W84201  25.099  34.101   0.926
15808W        W84202  29.251  10.092   4.367
15809W        W84203  20.341  19.087   4.332
15810W        W84204   5.918  40.001  10.915
15811W        W84205  18.570  28.197   3.933
15812W        W84206  36.818   9.724   1.290
15813W        W84207  21.624  34.714  13.235
15814W        W84208  25.748  41.041  10.614
15815W        W84209   3.796   3.200  11.016
15816W        W84210  21.002  42.537  14.714
15817W        W84211  10.041   2.313  13.881
15818W        W84212  30.739  43.934   0.406
15819W        W84213  24.570   2.471   2.389
15820W        W84214  40.282   7.724  12.872
15821W        W84215  32.609  42.297  11.170
15822W        W84216  26.146  16.094   3.176
15823W        W84217  17.354  17.727   0.297
15824W        W84218  20.778   9.337  13.472
15825W        W84219  23.050   1.563  12.413
15826W        W84220  25.860  39.388   1.334
15827W        W84221  39.483  18.708  12.096
15828W        W84222  15.677   0.503   4.031
15829W        W84223  25.173   6.960   3.892
15830W        W84224  23.404   6.706  11.638
15831W        W84225  37.629  41.051   2.823
15832W        W84226  26.876  31.524  14.967
15833W        W84227  42.866  11.738   4.599
15834W        W84228  17.673  38.136   2.295
15835W        W84229  36.610  31.321   3.700
15836W        W84230  35.425  22.233   4.565
15837W        W84231   0.768  29.942   3.717
15838W        W84232  44.330   5.719   0.731
15839W        W84233  27.011   4.747   3.567
15840W        W84234  39.554  38.322  13.953
15841W        W84235   1.546  43.033   4.464
15842W        W84236  14.677  43.556  13.967
15843W        W84237  40.364  32.735  10.687
15844W        W84238  44.554  36.423   5.124
15845W        W84239  15.890   9.781  11.966
15846W        W84240  30.839   8.960  11.607
15847W        W84241  29.081  15.340  11.646
15848W        W84242  29.227   0.407  10.736
15849W        W84243  17.238  33.917  12.457
15850W        W84244  41.474  41.768   1.806
15851W        W84245  36.421   2.784   2.985
15852W        W84246   6.297  21.659  14.563
15853W        W84247  27.252  13.551  12.476
15854W        W84248   4.382  37.770   0.835
15855W        W84249  34.080   9.652   2.334
15856W        W84250  20.934  16.224   1.326
15857W        W84251  15.606  29.359   3.774
15858W        W84252   4.498   6.869   4.729
15859W        W84253  14.609   8.441  10.572
15860W        W84254  36.515   9.933   2.209
15861W        W84255   3.540  17.729  14.447
15862W        W84256  19.734  41.340  10.526
15863W        W84257  26.493  14.688  13.579
15864W        W84258  41.897  29.877   3.091
15865W        W84259  14.723  30.372   2.089
15866W        W84260  25.285  24.214  14.470
15867W        W84261  41.776  29.639  14.941
15868W        W84262  25.551  29.680   0.322
15869W        W84263  35.337  32.145   3.050
15870W        W84264  29.606  33.926  10.890
15871W        W84265  15.862   1.274  14.451
15872W        W84266  27.664  40.070  14.247
15873W        W84267  15.627  28.655   4.561
15874W        W84268  12.049  36.694   3.634
15875W        W84269  17.279  18.952  11.300
15876W        W84270  36.695  11.609   2.773
15877W        W84271  14.356   9.398  14.772
15878W        W84272  10.090   3.592   1.303
15879W        W84273  32.006  10.598  12.420
15880W        W84274   1.880  40.026   3.688
15881W        W84275  13.325  24.025   0.858
15882W        W84276  43.037  26.557  10.706
15883W        W84277  22.573  29.467   0.433
15884W        W84278  37.500  15.234  11.421
15885W        W84279   7.728  11.546  13.046
15886W        W84280  30.405  43.822  13.538
15887W        W84281  43.815   4.930   4.671
15888W        W84282   8.342   4.522  14.758
15889W        W84283  39.662  41.000  10.878
15890W        W84284  23.082  37.190  14.038
15891W        W84285  10.660  42.312  13.059
15892W        W84286   7.726  14.738  13.879
15893W        W84287  32.391  24.562  13.012
15894W        W84288  34.267   8.886  13.528
15895W        W84289  26.991  34.296   2.335
15896W        W84290  36.730  34.191   3.366
15897W        W84291  17.825  25.549  11.445
15898W        W84292  34.435  30.428  13.511
15899W        W84293  28.867  42.195  12.353
15900W        W84294  37.996  25.903   1.143
15901W        W84295  25.929   3.314  14.010
15902W        W84296  30.101  33.583   1.274
15903W        W84297  25.109   5.610  12.312
15904W        W84298   6.993   3.408  13.495
15905W        W84299   4.206   9.875   4.182
15906W        W84300  38.630  44.397  10.374
15907W        W84301  18.782  27.225  11.994
15908W        W84302  26.022   2.726   4.141
15909W        W84303  18.044   0.798   3.004
15910W        W84304   9.627  26.252   3.260
15911W        W84305   3.010  35.069  12.384
15912W        W84306   4.378  33.895  12.895
15913W        W84307  14.298   3.462   3.881
15914W        W84308  11.563  33.851   3.936
15915W        W84309  35.947  44.283   1.734
15916W        W84310  29.202  33.917   0.320
15917W        W84311  42.765  41.990  14.735
15918W        W84312  14.291  33.613  12.089
15919W        W84313  39.560  26.010  10.681
15920W        W84314   8.118   6.708   0.347
15921W        W84315  21.246  10.000  12.663
15922W        W84316  21.526  21.108   4.922
15923W        W84317  18.528  25.608   4.540
15924W        W84318  43.860  10.709   1.242
15925W        W84319  42.023  43.953   2.932
15926W        W84320   7.715   2.471  14.033
15927W        W84321  13.747   0.445  13.512
15928W        W84322  39.040  22.810  10.118
15929W        W84323  17.597  25.145   3.281
15930W        W84324   5.672  32.260   4.365
15931W        W84325  22.959  20.688   0.391
15932W        W84326  42.041   4.200   4.106
15933W        W84327   0.179  34.200  11.255
15934W        W84328  27.369  22.130   9.931
15935W        W84329  29.710   3.141  11.158
15936W        W84330  42.305  33.453   4.459
15937W        W84331  39.906   8.259   4.690
15938W        W84332  19.201  10.146   0.356
15939W        W84333  38.828   5.464  11.727
15940W        W84334  21.535  22.985   3.911
15941W        W84335  17.776  13.239   0.038
15942W        W84336  17.267  15.868  11.886
15943W        W84337  35.519  20.802   0.756
15944W        W84338   9.754   9.951   4.447
15945W        W84339   3.419   0.383  14.021
15946W        W84340  29.202   5.625  13.808
15947W        W84341   7.689  35.343   1.193
15948W        W84342  12.302  29.834   4.637
15949W        W84343  32.647   8.183   0.358
15950W        W84344  41.603   8.203  11.656
15951W        W84345  19.072  30.897   0.799
15952W        W84346  32.943  39.574   0.465
15953W        W84347  16.067  35.240   3.960
15954W        W84348  21.831  20.178   2.333
15955W        W84349  44.825   4.071  10.684
15956W        W84350  16.605  38.296  13.719
15957W        W84351   1.198   2.474   0.734
15958W        W84352  40.756  25.022  11.661
15959W        W84353  31.559  40.021  14.791
15960W        W84354   1.775  44.404  13.381
15961W        W84355  27.172   6.623   1.790
15962W        W84356  12.791  16.432   1.673
15963W        W84357  14.713  36.950   3.087
15964W        W84358  29.507  33.967   2.414
15965W        W84359  23.092  17.990  13.024
15966W        W84360  22.452  16.526  14.848
15967W        W84361   0.348  22.618   1.782
15968W        W84362  44.690  31.516   4.052
15969W        W84363   5.792  18.161   2.927
15970W        W84364  42.418   9.312   0.667
15971W        W84365   4.864  25.048  13.833
15972W        W84366  12.216  24.097   3.842
15973W        W84367  40.598   9.221  10.938
15974W        W84368   7.564   0.543  12.503
15975W        W84369  30.398  41.755  11.649
15976W        W84370  18.632  27.575   3.682
15977W        W84371  27.241   9.937  13.089
15978W        W84372   5.511  22.759   4.456
15979W        W84373   1.154  40.611  11.799
15980W        W84374  34.095  27.899  14.239
15981W        W84375  44.986  31.399  11.485
15982W        W84376  24.569  34.552  13.140
15983W        W84377   2.914  43.055   3.739
15984W        W84378   1.075  17.095   1.747
15985W        W84379  39.108  30.989  14.017
15986W        W84380  28.961  11.726  12.021
15987W        W84381  34.212   6.936   4.113
15988W        W84382  28.682  43.479  11.680
15989W        W84383  17.345  30.890   2.693
15990W        W84384  43.027  21.702  13.500
15991W        W84385   3.311  15.360  10.505
15992W        W84386  15.604  13.635   3.635
15993W        W84387  17.158  20.642  13.023
15994W        W84388  12.237  10.381  13.951
15995W        W84389  22.876  39.617   2.277
15996W        W84390  43.420  35.708   0.270
15997W        W84391   2.759  15.627   4.068
15998W        W84392   1.462  25.142   0.474
15999W        W84393  43.971  40.879   3.727
16000W        W84394  16.779  44.434  11.830
16001W        W84395  32.000  38.567  13.739
16002W        W84396   6.698  17.656  11.703
16003W        W84397  33.557  40.290   4.636
16004W        W84398  24.110  44.262   3.425
16005W        W84399   3.732  18.974  14.137
16006W        W84400  41.370   0.875  11.039
16007W        W84401  17.222   2.174  12.711
16008W        W84402  29.634  18.209   1.865
16009W        W84403   5.419   9.245   1.282
16010W        W84404  33.875  16.275  13.590
16011W        W84405  43.836  24.983  12.101
16012W        W84406  40.733  14.608  13.498
16013W        W84407  38.575  36.599  11.906
16014W        W84408  14.349   9.572   2.721
16015W        W84409  26.158  24.452  13.039
16016W        W84410  29.998  10.167   2.772
16017W        W84411  41.260  41.370  12.467
16018W        W84412   3.977   7.409  11.466
16019W        W84413  35.965   1.070   4.025
16020W        W84414  43.877   8.953  13.089
16021W        W84415  27.395  11.446   1.242
16022W        W84416  17.530  20.541  14.785
16023W        W84417  30.465  44.744   1.747
16024W        W84418   5.755  42.927   5.018
16025W        W84419  12.035  36.707  12.015
16026W        W84420  32.966  27.716  12.471
16027W        W84421  35.516  10.683   4.634
16028W        W84422  22.687  32.153  13.832
16029W        W84423  18.620  37.822   1.847
16030W        W84424  30.611  29.727  10.848
16031W        W84425   3.729  19.731  10.677
16032W        W84426   4.108  19.754   3.806
16033W        W84427  30.892  22.111   1.612
16034W        W84428  16.625   2.109   0.300
16035W        W84429   1.269  31.660  11.630
16036W        W84430   4.901  18.162   1.006
16037W        W84431   1.057  32.827   0.871
16038W        W84432  35.474  14.420   0.584
16039W        W84433  11.726  11.093   2.876
16040W        W84434  15.705  16.318  10.237
16041W        W84435  42.287  17.645  13.055
16042W        W84436   9.316  39.897  11.401
16043W        W84437   0.421   8.946   1.439
16044W        W84438  38.426  14.820  11.096
16045W        W84439   8.341  19.058   3.668
16046W        W84440  12.656   1.858  12.803
16047W        W84441  15.845  18.561   3.398
16048W        W84442   9.727  12.865   4.108
16049W        W84443  24.356  18.160   3.181
16050W        W84444  43.271  24.164   3.559
16051W        W84445   6.380  26.713   0.605
16052W        W84446   6.220  13.382   1.803
16053W        W84447  22.434   8.858   1.964
16054W        W84448  31.004  18.806  13.246
16055W        W84449  16.879  10.115   1.675
16056W        W84450   2.141  25.263   3.056
16057W        W84451  20.425  29.414   2.391
16058W        W84452  41.327  18.630   4.102
16059W        W84453  25.974  33.819  12.551
16060W        W84454   9.694  23.033  11.523
16061W        W84455  38.457   3.423   4.328
16062W        W84456  38.440  41.549   3.064
16063W        W84457  21.056  25.821  14.539
16064W        W84458  42.549  27.689  11.274
16065W        W84459  38.922  26.159   3.738
16066W        W84460  19.855  17.160   4.592
16067W        W84461  28.390  40.188   1.956
16068W        W84462   2.838   9.551   2.836
16069W        W84463  38.853  12.337  11.636
16070W        W84464  29.451  30.885  13.452
16071W        W84465  19.830  30.833   1.847
16072W        W84466   0.421  40.971  14.740
16073W        W84467  38.600   6.390  10.946
16074W        W84468  21.482  23.973   2.143
16075W        W84469  16.120  36.190   4.219
16076W        W84470   9.482  31.830  12.927
16077W        W84471  18.059  15.262  12.085
16078W        W84472  30.646  26.190  11.061
16079W        W84473  16.876  36.911  11.575
16080W        W84474   5.810  35.178  10.756
16081W        W84475   8.327  25.200  13.083
16082W        W84476   8.947  25.571   3.708
16083W        W84477   5.829  32.690   2.688
16084W        W84478  20.020  18.563  14.483
16085W        W84479  39.154  19.482  13.396
16086W        W84480   3.234   1.924   0.454
16087W        W84481  10.813  16.683   0.794
16088W        W84482  27.156  34.079   0.038
16089W        W84483  30.436  24.422   4.108
16090W        W84484  43.189  27.605  11.475
16091W        W84485  10.740  39.559   0.329
16092W        W84486   5.128  37.622   2.538
16093W        W84487  13.621   4.443  11.496
16094W        W84488  33.496  14.862   3.186
16095W        W84489  27.463  11.739   2.269
16096W        W84490   6.720  25.820   4.541
16097W        W84491   5.653  10.911   3.234
16098W        W84492  40.877  42.233  14.982
16099W        W84493  44.353  14.304   4.636
16100W        W84494  30.757  11.586  10.740
16101W        W84495   2.735   2.408  13.490
16102W        W84496  32.204   9.406   3.873
16103W        W84497  36.097  20.329  12.175
16104W        W84498  19.209  26.134   0.786
16105W        W84499  10.224  30.953  12.885
16106W        W84500  18.483  31.697   2.472
16107W        W84501  21.726  36.559   0.208
16108W        W84502  14.714  43.718   0.858
16109W        W84503  19.152  42.663  14.015
16110W        W84504  18.102   3.353   3.714
16111W        W84505  10.424  33.692  14.977
16112W        W84506  19.438  44.414  12.585
16113W        W84507  22.940   1.347   2.531
16114W        W84508  43.857  41.352  13.047
16115W        W84509   2.485  40.982   1.975
16116W        W84510   8.303  29.383   1.402
16117W        W84511  34.357  34.135  10.617
16118W        W84512   2.062  22.764   3.295
16119W        W84513  19.687  21.280   4.654
16120W        W84514  31.637   6.704  12.011
16121W        W84515  39.938  15.598   0.357
16122W        W84516  12.883  38.639  13.135
16123W        W84517   7.966   8.219   4.058
16124W        W84518  43.185  33.888   3.058
16125W        W84519  37.981  10.607  11.037
16126W        W84520  25.685  22.773   2.693
16127W        W84521  26.394  27.889  12.371
16128W        W84522  19.607  33.348  14.516
16129W        W84523  23.482  23.134   1.485
16130W        W84524  27.283  26.711  12.506
16131W        W84525  44.872  25.694  13.780
16132W        W84526  43.430  17.483  14.323
16133W        W84527  39.576  18.984   1.344
16134W        W84528  19.826   0.873  14.982
16135W        W84529  31.717  25.499   3.967
16136W        W84530  29.614  10.127  14.895
16137W        W84531   9.988  38.732   2.570
16138W        W84532  33.526  13.656  12.691
16139W        W84533  15.666  12.455  13.413
16140W        W84534  10.122  27.569  11.289
16141W        W84535  20.202  25.158   4.682
16142W        W84536   0.935  41.818  10.695
16143W        W84537  23.168  17.299  12.214
16144W        W84538  21.586  11.405  10.510
16145W        W84539  11.599  44.061   3.179
16146W        W84540  26.786  42.377   2.709
16147W        W84541  23.792  21.251   5.208
16148W        W84542  14.478  34.454  12.905
16149W        W84543  21.928   9.438   1.286
16150W        W84544   6.609  29.157  14.981
16151W        W84545  25.240  23.770  12.430
16152W        W84546  10.245  15.434   9.954
16153W        W84547  24.033  23.133  10.799
16154W        W84548  22.440   1.855  12.100
16155W        W84549  13.796  14.372   1.290
16156W        W84550  28.786  18.007   3.621
16157W        W84551  31.905  11.492   1.819
16158W        W84552   8.717   4.854   0.457
16159W        W84553  32.750  22.619  11.117
16160W        W84554  33.623  10.092   4.130
16161W        W84555  23.741  25.921  12.950
16162W        W84556  12.532  33.003  14.362
16163W        W84557  14.362  40.620   0.839
16164W        W84558   7.644  40.035  10.664
16165W        W84559  12.870  30.859   0.398
16166W        W84560  27.946  27.576   3.294
16167W        W84561   1.948  32.849  11.861
16168W        W84562  18.582  23.892   1.237
16169W        W84563  20.528  42.007  10.986
16170W        W84564  44.099  15.716  14.020
16171W        W84565  33.597  36.518   0.321
16172W        W84566   7.283  18.662   3.544
16173W        W84567  19.554  14.147  11.492
16174W        W84568   2.826  24.316   2.232
16175W        W84569  28.110  26.901  13.705
16176W        W84570  38.842  10.027   5.304
16177W        W84571  10.957   5.813   0.426
16178W        W84572  13.381  17.057  13.340
16179W        W84573  19.223   5.885   1.259
16180W        W84574   7.798  16.512   2.664
16181W        W84575   2.398  39.904   4.388
16182W        W84576  34.956  39.599   4.759
16183W        W84577  27.431  31.327  11.120
16184W        W84578  28.166  37.754   2.663
16185W        W84579  30.661   6.898   3.126
16186W        W84580  15.673  19.950   3.211
16187W        W84581  14.304  34.824   4.302
16188W        W84582  24.521  19.997  11.698
16189W        W84583  25.516   4.055   1.360
16190W        W84584  15.592  40.350  11.870
16191W        W84585  27.612  16.220   4.191
16192W        W84586  43.731  22.085   0.846
16193W        W84587  41.527   7.913  10.563
16194W        W84588  30.105   6.458  12.252
16195W        W84589  37.231   3.745  12.006
16196W        W84590  19.344  20.544  13.065
16197W        W84591  37.601  35.831  11.522
16198W        W84592  18.063  14.696   2.970
16199W        W84593  30.525   3.152  14.284
16200W        W84594  32.459  23.244   3.371
16201W        W84595   1.333  14.571   3.197
16202W        W84596  44.379  22.517   1.265
16203W        W84597  31.340  15.053  12.605
16204W        W84598  27.753  39.410  12.505
16205W        W84599  30.624  41.822  14.953
16206W        W84600  27.515  42.154  12.530
16207W        W84601  16.100  15.737  12.399
16208W        W84602  21.593  14.156   1.856
16209W        W84603  36.508  20.991   0.284
16210W        W84604  31.344  38.488   4.115
16211W        W84605  32.186  37.793   0.361
16212W        W84606  44.507   0.505   2.904
16213W        W84607  39.606   2.936   2.774
16214W        W84608   2.779  28.923   1.102
16215W        W84609  14.236  16.771   0.735
16216W        W84610  43.547  19.572  14.923
16217W        W84611  12.228  16.704   4.331
16218W        W84612  36.601  27.778   1.236
16219W        W84613  12.801   5.395   0.060
16220W        W84614  38.061  41.836  12.049
16221W        W84615  42.397  23.291   0.871
16222W        W84616  38.876  21.820   2.637
16223W        W84617   6.775  39.259  11.909
16224W        W84618  44.307  19.539  13.886
16225W        W84619   1.973  11.326   1.262
16226W        W84620  40.428  40.362   0.131
16227W        W84621  27.497  24.132  12.007
16228W        W84622  14.667  21.520   3.251
16229W        W84623   7.097  35.450  14.004
16230W        W84624  29.959   9.363   0.423
16231W        W84625  14.138  10.801  11.893
16232W        W84626  16.092  12.617  14.995
16233W        W84627   5.363  32.116  11.517
16234W        W84628  24.341  12.735   1.196
16235W        W84629  20.148  10.001   0.250
16236W        W84630  20.052   0.465   4.642
16237W        W84631  10.447  13.262   1.690
16238W        W84632  13.623  28.001   4.647
16239W        W84633  27.805  13.320  14.398
16240W        W84634  29.605  28.593  11.596
16241W        W84635  39.984   1.045   2.276
16242W        W84636  26.698   8.229   4.422
16243W        W84637   1.334  25.604  11.417
16244W        W84638  12.791  22.584  13.684
16245W        W84639  35.083  42.281   3.410
16246W        W84640  30.639  26.514  13.168
16247W        W84641   6.978  38.044   1.653
16248W        W84642   8.448  39.441  10.704
16249W        W84643  15.083  36.992  14.074
16250W        W84644   9.682  22.708  14.855
16251W        W84645  44.212   2.036  11.692
16252W        W84646  14.683  34.536  11.926
16253W        W84647   8.669  30.566   3.908
16254W        W84648   1.048  18.732  12.597
16255W        W84649  31.009   2.200  14.970
16256W        W84650  19.204  16.381   1.380
16257W        W84651  37.354  35.393   0.912
16258W        W84652   3.951  29.729   2.673
16259W        W84653   4.718  44.505  14.406
16260W        W84654  29.599   4.231  11.607
16261W        W84655  12.787  24.257   1.737
16262W        W84656  42.727  44.067  14.412
16263W        W84657  10.303  22.816  12.668
16264W        W84658  36.043   5.982   4.124
16265W        W84659   6.688   9.725   3.158
16266W        W84660  22.966  31.708   0.455
16267W        W84661  23.026  20.751  14.054
16268W        W84662  36.862  17.101  14.991
16269W        W84663  38.784  25.679  12.444
16270W        W84664   7.194  43.564   3.216
16271W        W84665  18.269  44.422   1.697
16272W        W84666   6.818  23.723  14.007
16273W        W84667  22.783  26.186   4.975
16274W        W84668  44.359  26.614  12.567
16275W        W84669  24.052  38.234   0.984
16276W        W84670  10.634  17.394   1.326
16277W        W84671   7.746  34.451   3.779
16278W        W84672  30.588  30.886   1.356
16279W        W84673  44.359  16.272   1.988
16280W        W84674  15.362  31.360  13.423
16281W        W84675   8.163  14.649  12.910
16282W        W84676   2.969   8.270   4.355
16283W        W84677  39.866   3.739  12.142
16284W        W84678  29.556   4.172  14.652
16285W        W84679  20.241   1.915   2.919
16286W        W84680   2.313   8.878  14.806
16287W        W84681   6.279   2.732   2.606
16288W        W84682  14.845   9.789  10.756
16289W        W84683  25.554  11.854  10.656
16290W        W84684   2.394  33.125   1.506
16291W        W84685  37.354  38.767  11.023
16292W        W84686  31.002   8.868   1.953
16293W        W84687  38.767  18.147  12.198
16294W        W84688  34.505  11.368  14.378
16295W        W84689  43.084  29.161  12.665
16296W        W84690  34.112  39.433  13.492
16297W        W84691  41.035  32.375  11.207
16298W        W84692   9.197  26.690   0.414
16299W        W84693  30.497  40.705  11.663
16300W        W84694  15.703   7.790   4.266
16301W        W84695  35.877  17.252   2.986
16302W        W84696  43.611  15.845  14.910
16303W        W84697  20.692  12.450  14.646
16304W        W84698  22.511  44.701  11.108
16305W        W84699   9.806   7.928   1.211
16306W        W84700  23.976  35.739  12.155
16307W        W84701  42.805   3.595  13.529
16308W        W84702  19.120  19.958   0.818
16309W        W84703   2.855  41.112   0.159
16310W        W84704  34.335  15.352   0.123
16311W        W84705  41.450   9.172   0.733
16312W        W84706  33.965  29.099   5.087
16313W        W84707  41.706   2.300  10.665
16314W        W84708  19.383  28.000   3.704
16315W        W84709   4.703  43.286  11.329
16316W        W84710  14.317  23.708  13.451
16317W        W84711  37.026  42.922  11.526
16318W        W84712   3.965  20.995   1.419
16319W        W84713  39.353   8.315  11.426
16320W        W84714  43.549  28.684   2.232
16321W        W84715  33.138   0.327  11.605
16322W        W84716   8.969   8.832   3.680
16323W        W84717  25.090  11.769   2.847
16324W        W84718  24.100   8.159   5.350
16325W        W84719  42.146  33.238  12.255
16326W        W84720  18.308  21.290  13.099
16327W        W84721  24.104  22.180  14.766
16328W        W84722  44.449  35.933   0.370
16329W        W84723  39.124   3.954   0.471
16330W        W84724  16.703  43.354  12.583
16331W        W84725  32.750  15.165   3.296
16332W        W84726  15.030   6.563   3.259
16333W        W84727  23.067  44.078  13.449
16334W        W84728  38.713   6.719  11.885
16335W        W84729  20.544  24.954  13.019
16336W        W84730  18.221  21.550   2.161
16337W        W84731  26.117  10.603   4.127
16338W        W84732  26.509  20.492  14.373
16339W        W84733  33.872  42.267   0.874
16340W        W84734  13.434  44.416  12.921
16341W        W84735  28.283  37.624  10.749
16342W        W84736  36.496  30.773  14.789
16343W        W84737   0.890   4.109  11.128
16344W        W84738  22.934  10.899  13.134
16345W        W84739   3.867  15.966  10.673
16346W        W84740  26.113  44.911  11.749
16347W        W84741  32.180  14.437   4.852
16348W        W84742  43.865  10.413  13.006
16349W        W84743  44.174  44.846   0.065
16350W        W84744  43.218   6.450   4.236
16351W        W84745  36.013  12.560  13.001
16352W        W84746  25.020  32.909  10.691
16353W        W84747  18.509   9.889  13.771
16354W        W84748  26.985  26.012   3.702
16355W        W84749   0.340  35.158   2.615
16356W        W84750  15.757  16.856  14.929
16357W        W84751  43.789  22.536  12.634
16358W        W84752  23.455  37.539   3.592
16359W        W84753   6.399  35.175  13.175
16360W        W84754  27.737   7.235  13.630
16361W        W84755  24.034  13.254  14.439
16362W        W84756  21.539   6.801   0.244
16363W        W84757  44.334  35.051   4.154
16364W        W84758  41.653   1.322  11.195
16365W        W84759  22.570  24.554   3.280
16366W        W84760  23.249   8.462  11.188
16367W        W84761  35.327  19.911   1.585
16368W        W84762  21.780  20.265   4.262
16369W        W84763   5.378  37.419  13.521
16370W        W84764   6.396  12.195  14.295
16371W        W84765  44.474  34.824   3.713
16372W        W84766  24.085  35.951   0.511
16373W        W84767  19.633  40.478  13.853
16374W        W84768  42.602  19.127   2.781
16375W        W84769  29.170   6.282   2.272
16376W        W84770  39.354  21.116   0.274
16377W        W84771  35.525  10.422   4.193
16378W        W84772   8.220  31.625   1.380
16379W        W84773   9.130  23.699   0.796
16380W        W84774   0.417  37.806   1.263
16381W        W84775   4.047  20.742   0.957
16382W        W84776  21.508   2.502  14.012
16383W        W84777  44.921  35.072  14.386
16384W        W84778   2.161  21.232  11.750
16385W        W84779   7.299  22.509  14.512
16386W        W84780  27.028   2.159   4.695
16387W        W84781  23.192   0.136  11.681
16388W        W84782   9.124   3.385   3.248
16389W        W84783  18.265  25.879   5.110
16390W        W84784   6.321  11.413  10.733
16391W        W84785  31.039  25.813   1.645
16392W        W84786   1.779  40.304   1.943
16393W        W84787  26.848  13.853  12.512
16394W        W84788  14.182  19.286  12.338
16395W        W84789  43.858   9.115   0.839
16396W        W84790  38.862  16.790  11.997
16397W        W84791  30.053  13.327  12.594
16398W        W84792   4.221   7.989  14.916
16399W        W84793  28.550  22.218  13.793
16400W        W84794  25.837  39.888   1.218
16401W        W84795  35.372   9.375   0.257
16402W        W84796   1.711  42.479  14.302
16403W        W84797  27.428  14.776  13.605
16404W        W84798  14.608  15.839   1.818
16405W        W84799  15.151  43.700   2.023
16406W        W84800  29.364  23.161   0.602
16407W        W84801  26.703  27.397  10.941
16408W        W84802  34.478  14.348  10.674
16409W        W84803   8.925   7.770   4.949
16410W        W84804   4.985  18.870   0.353
16411W        W84805  41.413  27.457  13.821
16412W        W84806  37.709   6.840  12.229
16413W        W84807   8.526  35.879  14.167
16414W        W84808  44.398  23.971   1.233
16415W        W84809   4.450  30.802   4.114
16416W        W84810  33.959  29.006   3.696
16417W        W84811  42.846  41.568  13.007
16418W        W84812  26.999  32.220   2.779
16419W        W84813  30.584   6.234  13.534
16420W        W84814   7.456   7.443   2.761
16421W        W84815  36.005  15.112   0.161
16422W        W84816   8.798  24.579   3.573
16423W        W84817  41.267  43.787   3.834
16424W        W84818  13.747   9.323  13.560
16425W        W84819  18.586  37.450   4.052
16426W        W84820   8.731  29.433  14.387
16427W        W84821  20.108   7.483  12.104
16428W        W84822  23.966  13.354  14.968
16429W        W84823  16.514  25.229   0.800
16430W        W84824  27.568   5.784  11.615
16431W        W84825  37.030   1.991   4.606
16432W        W84826  23.527  23.740  13.654
16433W        W84827  43.841  19.607   2.330
16434W        W84828  10.641  35.523   4.011
16435W        W84829  11.116  20.681  13.328
16436W        W84830  38.285  20.568  13.332
16437W        W84831  15.259  27.141  13.876
16438W        W84832  30.976  43.473  14.802
16439W        W84833  29.045  25.597   4.559
16440W        W84834  10.456   5.647  11.478
16441W        W84835  37.444  17.649   2.371
16442W        W84836   5.810  34.540   0.720
16443W        W84837  16.521  18.063  12.453
16444W        W84838  28.547  30.180   4.125
16445W        W84839  18.706  23.112  12.964
16446W        W84840   5.542  39.943   0.563
16447W        W84841  18.580   1.808  13.766
16448W        W84842  17.525  26.770   0.350
16449W        W84843  33.980   6.763   0.524
16450W        W84844  16.364  14.477   0.496
16451W        W84845   3.960  33.987   2.695
16452W        W84846   1.865  29.245   4.187
16453W        W84847   5.165  44.279   3.839
16454W        W84848  15.060  12.655  14.778
16455W        W84849  20.986  12.789   0.636
16456W        W84850  29.374  20.236  10.503
16457W        W84851  37.492  22.687  14.405
16458W        W84852  32.984  29.016   2.452
16459W        W84853  14.565  24.143   0.369
16460W        W84854  16.321  14.437  12.371
16461W        W84855   1.742  14.146  14.263
16462W        W84856   6.271  43.934  10.816
16463W        W84857   4.136   6.964   0.791
16464W        W84858   4.776  32.014  14.946
16465W        W84859  31.083  10.396  10.155
16466W        W84860   2.440  12.091   0.729
16467W        W84861  41.027  31.421   3.183
16468W        W84862   9.976   2.581  14.592
16469W        W84863  12.074  40.838   3.552
16470W        W84864  36.110   2.824   3.738
16471W        W84865  19.532  32.939  11.407
16472W        W84866   4.589  23.516   4.352
16473W        W84867  33.084  11.071  12.046
16474W        W84868  33.550  35.348   0.912
16475W        W84869  29.562  41.505   2.354
16476W        W84870  30.190  11.372   3.464
16477W        W84871   7.309  11.545  13.377
16478W        W84872   1.818  25.254  14.300
16479W        W84873   0.480  14.520  11.412
16480W        W84874  25.715  12.148   1.716
16481W        W84875  24.708  11.197  13.514
16482W        W84876   7.397  11.139  14.517
16483W        W84877   1.439  15.640  11.492
16484W        W84878  39.580  39.172   4.214
16485W        W84879  29.522  26.564   1.884
16486W        W84880  40.335  29.092  12.078
16487W        W84881  21.987  23.958  13.084
16488W        W84882  40.506  24.203   0.675
16489W        W84883  35.382  16.126   0.903
16490W        W84884   3.318  43.734   2.359
16491W        W84885  22.613  36.545  11.657
16492W        W84886  29.187  42.382   2.323
16493W        W84887   6.167  27.015   4.628
16494W        W84888   5.530  29.768  13.534
16495W        W84889  20.204  34.903  14.265
16496W        W84890   5.777  24.633   0.406
16497W        W84891  37.444   2.706  12.053
16498W        W84892  19.836   2.493   1.404
16499W        W84893  26.517  38.563  13.968
16500W        W84894  37.293   1.430   2.174
16501W        W84895  44.275  28.994   0.888
16502W        W84896   6.924   7.170   3.201
16503W        W84897  16.393  10.132   1.164
16504W        W84898  13.499  36.084   0.401
16505W        W84899  34.471  27.048   1.756
16506W        W84900  28.469  35.976   0.854
16507W        W84901  43.226  36.499   3.022
16508W        W84902   8.262   1.487  13.860
16509W        W84903  15.673  33.008   0.453
16510W        W84904   8.147  21.142   1.922
16511W        W84905  41.586  31.105   4.977
16512W        W84906  23.540  26.126   1.760
16513W        W84907  31.551  24.124  12.369
16514W        W84908  19.282  33.513  14.111
16515W        W84909  39.488  20.264  12.810
16516W        W84910  18.853  27.157   1.402
16517W        W84911  23.886  44.991   0.010
16518W        W84912   1.260  39.819  12.989
16519W        W84913  41.999   2.890   2.738
16520W        W84914  28.577  16.366  14.422
16521W        W84915  24.916  13.189   0.784
16522W        W84916  44.632  32.028  12.135
16523W        W84917  15.141  41.367   3.079
16524W        W84918   8.756  29.624  11.994
16525W        W84919  35.363  22.716   4.760
16526W        W84920  39.362   3.770  11.509
16527W        W84921   9.082  18.069   4.253
16528W        W84922  39.654  41.853   0.314
16529W        W84923  16.083  36.207   5.025
16530W        W84924  18.240  20.597   4.228
16531W        W84925  11.117   1.762  14.900
16532W        W84926  15.365   5.131   3.367
16533W        W84927  21.725  36.180  11.958
16534W        W84928  16.008   5.581  11.519
16535W        W84929   4.722   6.758  10.059
16536W        W84930  13.661  38.470   0.956
16537W        W84931   4.208  40.735   2.216
16538W        W84932  24.397  35.994   2.290
16539W        W84933  39.877  39.543   2.216
16540W        W84934  14.177  13.370  13.983
16541W        W84935  39.324  14.583  12.919
16542W        W84936  22.245  15.642  11.158
16543W        W84937   0.371   8.778  11.689
16544W        W84938  28.016  43.519  13.784
16545W        W84939  21.344  26.222  11.948
16546W        W84940  28.538  11.805   2.271
16547W        W84941  29.437  42.517  12.438
16548W        W84942  31.557  29.488  12.520
16549W        W84943  24.764  10.282  11.181
16550W        W84944   9.277  42.018   0.837
16551W        W84945  26.156  41.164   1.109
16552W        W84946  30.884  28.117   9.902
16553W        W84947   2.009   2.107  10.598
16554W        W84948   6.216   6.341  12.940
16555W        W84949  38.936  22.501   1.520
16556W        W84950  41.000  25.993  13.845
16557W        W84951  24.193  19.089  12.666
16558W        W84952   3.297  19.093   2.359
16559W        W84953   9.812  30.062   0.324
16560W        W84954   8.104  44.996   1.867
16561W        W84955  13.611  10.307  12.715
16562W        W84956  19.169  37.728  12.965
16563W        W84957  23.115  40.466   2.416
16564W        W84958  34.100  20.011   2.812
16565W        W84959   8.592  38.842   0.847
16566W        W84960  28.735  11.332  13.866
16567W        W84961  24.540  43.682   1.734
16568W        W84962  25.512   7.552  12.884
16569W        W84963   1.216   4.674   1.878
16570W        W84964  33.686  26.880  10.662
16571W        W84965  37.443  30.669  14.537
16572W        W84966  18.870  19.498   4.548
16573W        W84967   7.739  43.501  11.534
16574W        W84968  15.728  21.757   3.656
16575W        W84969  27.026  20.454  14.284
16576W        W84970   2.648  34.856   2.357
16577W        W84971  27.494  21.604   4.609
16578W        W84972  36.679  39.765   0.706
16579W        W84973  21.931  44.833   3.197
16580W        W84974  44.926  25.487   2.398
16581W        W84975  15.676  18.183   0.344
16582W        W84976  15.142  30.476   4.469
16583W        W84977  39.594  19.418   2.201
16584W        W84978  26.704  18.630   0.050
16585W        W84979  22.003  37.059  12.325
16586W        W84980  34.383  23.239  14.534
16587W        W84981  27.691  14.840   0.296
16588W        W84982   3.848  41.212   1.395
16589W        W84983   9.987  36.161  13.049
16590W        W84984  43.744  13.096  13.051
16591W        W84985  23.173  37.788  14.147
16592W        W84986  23.748  18.079  14.873
16593W        W84987   9.178  37.467   1.504
16594W        W84988  17.757  41.904   1.106
16595W        W84989  12.484  40.454  11.550
16596W        W84990  27.836  39.088  11.134
16597W        W84991  18.903  19.609  12.565
16598W        W84992  43.540  20.772   4.601
16599W        W84993   0.308   2.437  12.335
16600W        W84994  38.545  12.101   0.494
16601W        W84995  25.200  21.112   3.134
16602W        W84996  30.100  19.576   3.047
16603W        W84997   6.092  44.345   0.130
16604W        W84998  40.837  42.995   1.909
16605W        W84999  21.055   2.039   0.476
16606W        W85000  36.758  26.399   2.969
16607W        W85001  38.783  24.896   2.337
16608W        W85002  18.835  19.667   9.989
16609W        W85003  18.518  15.260   2.384
16610W        W85004  44.820  21.335   0.095
16611W        W85005  41.819   5.448  14.456
16612W        W85006   5.373  23.279   4.606
16613W        W85007   2.987  19.659  13.082
16614W        W85008  38.350  43.526  12.022
16615W        W85009  17.540  31.235   0.389
16616W        W85010  11.173  36.582  12.366
16617W        W85011  42.969   2.662   3.087
16618W        W85012   9.402  26.056  11.976
16619W        W85013  34.470  28.988   2.818
16620W        W85014  39.096  10.542   3.143
16621W        W85015  17.207  21.730  11.552
16622W        W85016   9.380  26.153  14.089
16623W        W85017  11.519  21.511  10.960
16624W        W85018  33.514  36.922   3.362
16625W        W85019   8.865   4.890   4.600
16626W        W85020  33.932   6.214  10.491
16627W        W85021  38.757  35.466   2.877
16628W        W85022  27.977   3.545  13.824
16629W        W85023  22.978   1.995  13.627
16630W        W85024  34.881  29.669  14.270
16631W        W85025   4.588  23.795   9.786
16632W        W85026   7.207  32.495   3.419
16633W        W85027  18.567   4.930  11.097
16634W        W85028  43.975  12.279   2.661
16635W        W85029  10.322  30.532  13.962
16636W        W85030  20.278  35.914  14.907
16637W        W85031   5.419  32.938  12.823
16638W        W85032  36.520  21.823  14.861
16639W        W85033  32.182  32.194   4.053
16640W        W85034  23.297  11.175  13.968
16641W        W85035   4.485  33.025  14.255
16642W        W85036   1.420   5.414   0.782
16643W        W85037  31.567  28.701   4.257
16644W        W85038  29.423  20.084  12.519
16645W        W85039  37.549  22.197  14.238
16646W        W85040  15.531   6.309  14.392
16647W        W85041   4.686  19.090   1.832
16648W        W85042  10.777  38.598   4.286
16649W        W85043  44.821  16.753  14.826
16650W        W85044   2.695  36.130   0.288
16651W        W85045  16.809  17.571   3.225
16652W        W85046  34.673  15.024   0.352
16653W        W85047   7.326  17.967   4.868
16654W        W85048  13.295  28.519   0.552
16655W        W85049  17.393   0.292   2.768
16656W        W85050  41.342  26.563  11.016
16657W        W85051  41.330  23.762   3.164
16658W        W85052  29.555  28.028  12.969
16659W        W85053  39.828   9.095  12.482
16660W        W85054  14.288  28.599   1.454
16661W        W85055   1.157   1.550  13.476
16662W        W85056   9.687   8.187  14.766
16663W        W85057  18.681   6.494  12.468
16664W        W85058   7.834  27.149   3.692
16665W        W85059  13.909  18.774   2.060
16666W        W85060   8.724  19.571  11.121
16667W        W85061  14.566  23.854   2.018
16668W        W85062  18.734   3.205   0.240
16669W        W85063  24.565  10.128  10.727
16670W        W85064   0.278  22.619   2.332
16671W        W85065  25.567  30.302  10.339
16672W        W85066  12.798   3.180  11.980
16673W        W85067  21.669   5.702  11.024
16674W        W85068  19.207  44.264  13.035
16675W        W85069  12.158  27.014   2.413
16676W        W85070  24.119  16.763   2.549
16677W        W85071   1.587  18.327   4.665
16678W        W85072   9.346  36.596   1.808
16679W        W85073  18.033   7.357   1.466
16680W        W85074  41.195  16.875   3.172
16681W        W85075  19.735  39.017   2.737
16682W        W85076  44.942  15.046   3.069
16683W        W85077  37.609  40.414   4.633
16684W        W85078  23.568  38.316   2.768
16685W        W85079  29.113  22.263   4.799
16686W        W85080  38.489   5.696   1.402
16687W        W85081  10.810  34.576   4.012
16688W        W85082  37.583  12.335  12.150
16689W        W85083  40.552  23.456  10.876
16690W        W85084   7.857  35.116  11.540
16691W        W85085  22.430   0.117  10.720
16692W        W85086   7.165  32.447   0.872
16693W        W85087  41.455  37.938   3.124
16694W        W85088   3.010  19.194  14.537
16695W        W85089   0.272  28.697   4.174
16696W        W85090  17.054  14.624   1.328
16697W        W85091  10.297  34.577   2.808
16698W        W85092  23.984   1.912  12.170
16699W        W85093  43.654  29.855   3.887
16700W        W85094  16.076   4.480  12.936
16701W        W85095  23.497  13.578  14.371
16702W        W85096  38.020  14.816   2.187
16703W        W85097  25.607   7.884  13.419
16704W        W85098   2.200  16.229   4.772
16705W        W85099  40.390  12.883  13.966
16706W        W85100  41.387  10.151   1.956
16707W        W85101  13.199   3.754   1.282
16708W        W85102  36.525  34.398   1.729
16709W        W85103  22.683   1.801   2.466
16710W        W85104  10.186   5.287   3.246
16711W        W85105   9.785  38.765   1.228
16712W        W85106  15.654   5.713  11.158
16713W        W85107  28.930   0.429   2.770
16714W        W85108  35.993  11.154  14.385
16715W        W85109  29.512  44.957  12.931
16716W        W85110   2.457  13.208   2.150
16717W        W85111  43.822  36.348  11.197
16718W        W85112  14.113   2.921   4.698
16719W        W85113  19.201  24.050   1.839
16720W        W85114  21.751  26.042  11.663
16721W        W85115  31.208  17.364  14.456
16722W        W85116  34.943  34.485   4.880
16723W        W85117  17.122  32.425   1.726
16724W        W85118  31.019  18.306  14.984
16725W        W85119  17.734  39.351  11.101
16726W        W85120  34.590   8.550   1.647
16727W        W85121  16.273   4.324   2.262
16728W        W85122  44.282  26.435  14.170
16729W        W85123  21.332  24.541  12.425
16730W        W85124  32.501  42.244   0.953
16731W        W85125   0.989  41.320   4.331
16732W        W85126  25.070  42.716  10.259
16733W        W85127   3.749  10.382  14.730
16734W        W85128  21.698  18.784   0.950
16735W        W85129  43.049  24.700   2.602
16736W        W85130  35.614  17.807   0.939
16737W        W85131  17.186  17.512  12.442
16738W        W85132   2.717  14.617  11.056
16739W        W85133  24.457  22.196   4.838
16740W        W85134  31.620  23.137   0.256
16741W        W85135  27.707  15.210  10.663
16742W        W85136  35.393  43.706  12.946
16743W        W85137  31.546  44.689  12.479
16744W        W85138  43.986  41.846   0.717
16745W        W85139   5.220  28.019  11.481
16746W        W85140  27.526  27.745   4.546
16747W        W85141   6.208   3.738  13.631
16748W        W85142  10.651   8.373   1.231
16749W        W85143  12.356  34.963  14.599
16750W        W85144   1.051  34.048   0.963
16751W        W85145  36.613  28.062  11.670
16752W        W85146  37.846  35.879   2.623
16753W        W85147  41.545  18.739   4.565
16754W        W85148  24.702  30.535   2.698
16755W        W85149  28.044   7.376   1.449
16756W        W85150  40.129  12.599  13.627
16757W        W85151   0.990   7.280   0.767
16758W        W85152   5.337  23.061   1.753
16759W        W85153  18.272   4.826  12.420
16760W        W85154  34.288  17.642  12.918
16761W        W85155  31.574   6.321  11.441
16762W        W85156   3.897   2.708  10.899
16763W        W85157  24.235  17.650   0.208
16764W        W85158  35.407  17.049   2.874
16765W        W85159   1.394  26.628   2.336
16766W        W85160  22.626  16.987  14.368
16767W        W85161  32.070   5.318   4.465
16768W        W85162  42.295   0.449  10.712
16769W        W85163  19.929  43.427   4.279
16770W        W85164   1.424  33.819  14.670
16771W        W85165   5.265  18.526  13.517
16772W        W85166  19.405   6.174   4.620
16773W        W85167  24.205  35.068   2.428
16774W        W85168   2.394  25.533  14.543
16775W        W85169  33.230   5.280   1.968
16776W        W85170  14.074  20.031   3.831
16777W        W85171  23.125  18.241  13.475
16778W        W85172  17.308  28.957  11.917
16779W        W85173  32.694  22.855  13.301
16780W        W85174   0.643  31.935  13.751
16781W        W85175  26.132  42.272  12.751
16782W        W85176  24.930  32.903   4.917
16783W        W85177   8.819   7.990   3.877
16784W        W85178  14.671  32.926  12.950
16785W        W85179  38.562  23.428  12.601
16786W        W85180   5.959  34.900   2.205
16787W        W85181  34.004  40.850   2.084
16788W        W85182   7.140  39.110   5.071
16789W        W85183  26.628  31.041  10.854
16790W        W85184  34.412   5.062  14.283
16791W        W85185  25.848  13.477   0.949
16792W        W85186  10.735  16.812  12.183
16793W        W85187  35.404  34.577   3.128
16794W        W85188   1.528  39.871   0.066
16795W        W85189  32.536  15.228   4.136
16796W        W85190  29.969  25.130   1.975
16797W        W85191  28.426  21.876   0.198
16798W        W85192  17.240  13.326  10.713
16799W        W85193  43.481  29.407   2.613
16800W        W85194  26.149  22.049  10.595
16801W        W85195  11.312  22.822   1.368
16802W        W85196  29.058  35.638   3.758
16803W        W85197  26.458  19.499   4.286
16804W        W85198  10.628  37.670   1.071
16805W        W85199  12.224  42.506  10.739
16806W        W85200  26.019  31.196   3.753
16807W        W85201   9.694   4.747  10.667
16808W        W85202  38.614   9.205  13.278
16809W        W85203   1.104  16.257  13.167
16810W        W85204  17.528  29.666  11.164
16811W        W85205  19.219   9.596   0.460
16812W        W85206  10.627   0.413   3.435
16813W        W85207   3.469  20.113   1.311
16814W        W85208  17.642  43.943   4.533
16815W        W85209  41.030  29.982   0.615
16816W        W85210  32.960   5.830  12.778
16817W        W85211  13.429   4.837  10.737
16818W        W85212  30.060  34.728   2.005
16819W        W85213  30.941  32.390   4.197
16820W        W85214   6.218  38.823  13.556
16821W        W85215  17.264  37.969   3.405
16822W        W85216  39.224  40.587   2.327
16823W        W85217  10.500  35.571  14.276
16824W        W85218  36.418  28.063  13.923
16825W        W85219  44.782   5.703   4.108
16826W        W85220  24.566   2.335   0.212
16827W        W85221  36.530  35.091  10.718
16828W        W85222   5.182  23.798  10.277
16829W        W85223  23.957  35.476   3.976
16830W        W85224  27.605   9.800  13.940
16831W        W85225   7.933  18.514   2.779
16832W        W85226  38.067  38.387  11.997
16833W        W85227  17.305  42.558   1.747
16834W        W85228  12.889  19.588  13.970
16835W        W85229  37.783  39.051  14.363
16836W        W85230   7.371   2.404   2.303
16837W        W85231  24.449  28.413  11.221
16838W        W85232  43.757  41.009  11.986
16839W        W85233   4.979   9.745  12.018
16840W        W85234  41.725  33.580   1.304
16841W        W85235   6.407   0.363   2.732
16842W        W85236  34.670  27.803  11.064
16843W        W85237  21.227  34.986   3.464
16844W        W85238  17.333  27.937  12.823
16845W        W85239  29.483  35.311   0.317
16846W        W85240  20.438   2.460   1.015
16847W        W85241   6.238  22.087   3.771
16848W        W85242  44.894  16.820   3.202
16849W        W85243  20.746  23.031  13.117
16850W        W85244  25.273   4.994   3.243
16851W        W85245  27.363  27.925   3.641
16852W        W85246   1.305  33.914  13.121
16853W        W85247  26.626  32.150   3.129
16854W        W85248  38.602  33.748   4.932
16855W        W85249  26.402  22.808  10.961
16856W        W85250   7.005  42.414   2.666
16857W        W85251  31.909  21.685  13.660
16858W        W85252  17.545  38.407   3.442
16859W        W85253  29.384  27.084   1.813
16860W        W85254   6.870  25.732  10.332
16861W        W85255  22.740  29.156  11.881
16862W        W85256   7.540  11.712  12.278
16863W        W85257  33.058   2.822   2.104
16864W        W85258  11.072  15.722  12.932
16865W        W85259  32.673  29.043  11.259
16866W        W85260  37.710  11.206  14.036
16867W        W85261  10.394  16.067   5.033
16868W        W85262  34.938  33.990  14.353
16869W        W85263   3.176  43.668   0.086
16870W        W85264  28.464  10.871  13.966
16871W        W85265  10.244  23.207   1.563
16872W        W85266  23.172   1.984   2.169
16873W        W85267  41.509  10.132   2.825
16874W        W85268  41.981   4.652  13.334
16875W        W85269   8.846  38.412   0.700
16876W        W85270  43.604  25.936  14.123
16877W        W85271  11.269  23.711  11.625
16878W        W85272  21.984  32.268  11.056
16879W        W85273   9.880  32.023   4.569
16880W        W85274  23.741  13.056   2.252
16881W        W85275  11.123  34.553   3.610
16882W        W85276  20.302  44.795   4.685
16883W        W85277  29.149  26.545   2.791
16884W        W85278  17.860  17.813  11.304
16885W        W85279  43.332  35.470   2.380
16886W        W85280  13.670  38.075   1.321
16887W        W85281  35.517  44.283   2.448
16888W        W85282  16.374  24.689   3.154
16889W        W85283   5.688  20.467   2.272
16890W        W85284  13.719  19.725   2.445
16891W        W85285  28.626  43.393  13.553
16892W        W85286  19.816   3.314   4.153
16893W        W85287  30.508  21.949  12.614
16894W        W85288  40.767  17.534  14.844
16895W        W85289  18.763  11.835  11.981
16896W        W85290  20.070  31.563   4.529
16897W        W85291  26.513  31.822   4.956
16898W        W85292  25.984  34.564   4.110
16899W        W85293  34.598  39.308   0.714
16900W        W85294  41.379   4.201  11.478
16901W        W85295   8.654  20.058  11.256
16902W        W85296   9.322  20.831  12.932
16903W        W85297   8.043  36.384  14.256
16904W        W85298  18.158  26.736  14.805
16905W        W85299   2.667  42.103   2.768
16906W        W85300  16.321   9.377   3.254
16907W        W85301  23.456   9.452   1.419
16908W        W85302  24.748  13.835   0.283
16909W        W85303   0.368  29.070  14.301
16910W        W85304  12.095   8.894   2.671
16911W        W85305  34.735  32.631  11.603
16912W        W85306  12.079  33.234  14.434
16913W        W85307  23.877  34.120  12.835
16914W        W85308  27.682  20.502  11.177
16915W        W85309  20.101  36.606  14.305
16916W        W85310   3.154   9.825   1.451
16917W        W85311  17.324  36.821  10.699
16918W        W85312  17.709   6.071   5.007
16919W        W85313   9.230  42.194  14.798
16920W        W85314   3.662   5.575  14.992
16921W        W85315  43.942   5.280  12.626
16922W        W85316   9.829  36.472  13.459
16923W        W85317   5.724   2.902  12.490
16924W        W85318  29.947  26.680   3.206
16925W        W85319  39.789  43.565  12.767
16926W        W85320  22.070   5.351   4.642
16927W        W85321  12.590   6.429   0.854
16928W        W85322  21.886  10.916   9.752
16929W        W85323  17.616  39.281   5.383
16930W        W85324  28.116   0.984  11.931
16931W        W85325  19.180  20.841  10.587
16932W        W85326   4.179   5.016  12.458
16933W        W85327  41.294   9.891   4.413
16934W        W85328  31.615   9.730   2.383
16935W        W85329  43.732  17.368  11.081
16936W        W85330  19.789  40.988  13.064
16937W        W85331  15.630  20.748   3.690
16938W        W85332  15.029  43.896  10.680
16939W        W85333  26.011  16.093  11.429
16940W        W85334  18.768   2.254   4.841
16941W        W85335  34.592  13.767   2.685
16942W        W85336  43.152  36.989   1.767
16943W        W85337  14.539   9.207   3.601
16944W        W85338  25.086  37.731  10.987
16945W        W85339  20.950  26.996   1.591
16946W        W85340  22.628  42.445   1.952
16947W        W85341  23.535  42.923   4.090
16948W        W85342  10.997   8.088   3.205
16949W        W85343   6.601   8.767  11.072
16950W        W85344  13.291  38.559   1.917
16951W        W85345  35.503   0.744  14.881
16952W        W85346  38.378  15.758   2.319
16953W        W85347  19.946  39.375   1.831
16954W        W85348  19.508  15.239  12.152
16955W        W85349   3.945  38.377  11.146
16956W        W85350  35.487  12.740   0.751
16957W        W85351  39.261  31.066   1.733
16958W        W85352   2.817  38.848  13.644
16959W        W85353  37.132  29.691  11.945
16960W        W85354  13.664  21.342  10.764
16961W        W85355  35.348  26.351   4.012
16962W        W85356  12.075  31.008   0.956
16963W        W85357   0.474   8.324   4.133
16964W        W85358  28.008  24.679   0.554
16965W        W85359  21.617   5.175   1.903
16966W        W85360  20.215  39.542  10.165
16967W        W85361   3.352   3.012  11.243
16968W        W85362  41.934  11.897   3.397
16969W        W85363   2.370  19.591   3.359
16970W        W85364   8.365  20.159   3.619
16971W        W85365  16.350   5.984   2.149
16972W        W85366  18.259  44.308   3.711
16973W        W85367   6.140  37.259  11.700
16974W        W85368  36.390  41.549  10.522
16975W        W85369  39.081  10.721   1.324
16976W        W85370  32.426  11.058  14.891
16977W        W85371  23.101   1.526   4.742
16978W        W85372  33.795  24.938   5.061
16979W        W85373  25.883  11.097   2.738
16980W        W85374   6.128  29.504   3.610
16981W        W85375  20.531  18.237  13.999
16982W        W85376  17.437  42.950  12.083
16983W        W85377  37.867   7.838   4.049
16984W        W85378  31.750  10.202   0.802
16985W        W85379  40.498  16.076   3.840
16986W        W85380  26.729   6.378   4.167
16987W        W85381   4.477  16.683   0.863
16988W        W85382  30.725   9.381   5.029
16989W        W85383  38.482  15.148   1.136
16990W        W85384  25.844  16.168  12.275
16991W        W85385  43.855  32.372  14.479
16992W        W85386  20.524  37.515  14.040
16993W        W85387  20.018  17.503   1.350
16994W        W85388  25.668   4.790  10.695
16995W        W85389  21.264  21.665  11.504
16996W        W85390   6.654  27.108  10.689
16997W        W85391  13.423  43.273  14.555
16998W        W85392  26.647  14.314   4.163
16999W        W85393  36.447   9.172  11.757
17000W        W85394  20.500  16.266   0.962
17001W        W85395  17.283  41.292   2.153
17002W        W85396  40.540  40.083  13.447
17003W        W85397  20.554  35.124  13.942
17004W        W85398  14.161  34.561  12.000
17005W        W85399  36.687  11.878  11.135
17006W        W85400  37.269  26.781  10.703
17007W        W85401  12.818  36.568  12.518
17008W        W85402   7.943  31.596   1.828
17009W        W85403  43.596   8.165   0.763
17010W        W85404  15.699  29.438  14.999
17011W        W85405  35.407  14.820  12.420
17012W        W85406   3.387   4.269  10.679
17013W        W85407  21.927   3.757   2.537
17014W        W85408  10.911  38.430  14.347
17015W        W85409  10.793  37.522   2.902
17016W        W85410  40.961  14.556   4.595
17017W        W85411  20.337  26.024  10.273
17018W        W85412  43.790  31.610   4.576
17019W        W85413  34.859  15.607   0.228
17020W        W85414  40.348   5.169  13.309
17021W        W85415  12.381  20.686   1.808
17022W        W85416   4.927  33.720   2.785
17023W        W85417   3.986  44.537  13.944
17024W        W85418  13.217  34.180  13.525
17025W        W85419  18.063  29.896  11.674
17026W        W85420  12.386   3.225  13.590
17027W        W85421  33.618  34.750   4.986
17028W        W85422  32.285   8.646  14.447
17029W        W85423  39.336   4.725  14.439
17030W        W85424   1.869   3.029   2.089
17031W        W85425   3.416  42.891  14.956
17032W        W85426  30.358   6.807  12.963
17033W        W85427   2.214  14.663  12.359
17034W        W85428  16.844  36.547   0.897
17035W        W85429  22.154  12.703  10.236
17036W        W85430  27.972  17.286   3.535
17037W        W85431  28.589  18.137  14.987
17038W        W85432  25.097   8.228   0.808
17039W        W85433  32.338   7.661   1.297
17040W        W85434  31.493  13.115  11.502
17041W        W85435   3.004  37.028   2.064
17042W        W85436   4.857  14.078  13.955
17043W        W85437  11.560  15.241   2.407
17044W        W85438  40.806  44.322   3.724
17045W        W85439  32.207  26.825  11.480
17046W        W85440  22.724   0.220  11.220
17047W        W85441  36.563  20.039  12.137
17048W        W85442  21.482  13.474   3.318
17049W        W85443   0.426  43.883  13.441
17050W        W85444  21.713  28.818  12.802
17051W        W85445   7.994  17.066   4.124
17052W        W85446  23.434  24.127   1.301
17053W        W85447  32.525   3.271  13.773
17054W        W85448  23.014  11.175   0.400
17055W        W85449  34.449  36.459  10.620
17056W        W85450  43.578  27.934   2.738
17057W        W85451  20.766  20.800   2.835
17058W        W85452  36.255  41.544  11.794
17059W        W85453  33.508  41.301   4.804
17060W        W85454  12.683   6.736  10.580
17061W        W85455  27.234  12.352  10.227
17062W        W85456  40.249  15.940   4.935
17063W        W85457  28.385  39.806  11.895
17064W        W85458  41.125  20.788   0.837
17065W        W85459  43.535  12.356  12.112
17066W        W85460  13.617  16.201  11.911
17067W        W85461  26.301  37.982   0.345
17068W        W85462   0.311  25.622  12.931
17069W        W85463  30.493  27.951  12.926
17070W        W85464   8.341  15.587  11.852
17071W        W85465   1.629  29.659  12.961
17072W        W85466   0.758  16.585   3.966
17073W        W85467  31.331  16.959   0.347
17074W        W85468  36.783  18.311  12.428
17075W        W85469  30.597  40.987  11.252
17076W        W85470  34.836  31.560   4.850
17077W        W85471  17.120  31.511   3.282
17078W        W85472  20.581  44.494   2.337
17079W        W85473  23.683  36.572  10.566
17080W        W85474  37.953  43.439  12.538
17081W        W85475  39.519  19.707   3.807
17082W        W85476   1.830   6.282   0.607
17083W        W85477  39.003  39.818   4.663
17084W        W85478  38.825  10.689   2.728
17085W        W85479  33.290   5.445   4.189
17086W        W85480  28.176  16.193   3.301
17087W        W85481   6.669  36.043   1.367
17088W        W85482  35.940   1.025  13.957
17089W        W85483  27.500  28.486  14.602
17090W        W85484  27.313  43.631  13.502
17091W        W85485  44.211  32.396   4.084
17092W        W85486  18.411  44.042   3.275
17093W        W85487  24.268  44.791   2.697
17094W        W85488   0.914  36.634   2.332
17095W        W85489  23.629   6.190   0.808
17096W        W85490  35.842  23.107   0.488
17097W        W85491  44.201  14.986  12.178
17098W        W85492   5.498  44.852   3.727
17099W        W85493  40.170   3.482   3.796
17100W        W85494  30.165  39.413  10.761
17101W        W85495  29.416   0.054  11.671
17102W        W85496  24.264  33.901   0.074
17103W        W85497   1.704  15.052   2.718
17104W        W85498  35.014  26.474  14.156
17105W        W85499  23.528  31.041  14.497
17106W        W85500  18.959   8.724  13.393
17107W        W85501  36.251  16.886   3.729
17108W        W85502  33.430   2.161   0.057
17109W        W85503  12.188   5.750  10.137
17110W        W85504  28.092   8.176  12.339
17111W        W85505   0.692   2.821  12.579
17112W        W85506   0.684   9.269  14.250
17113W        W85507  39.024  21.412  12.368
17114W        W85508  10.367  24.945   4.107
17115W        W85509  38.261  26.506  12.227
17116W        W85510  16.437  42.758  11.580
17117W        W85511  35.588  34.873   3.564
17118W        W85512  30.359  15.822   3.601
17119W        W85513  37.006  12.770   3.260
17120W        W85514  26.047   9.103   2.818
17121W        W85515  15.705  18.919  12.111
17122W        W85516  29.660   9.355  11.173
17123W        W85517  18.351   7.879   1.689
17124W        W85518  36.194   6.391  13.305
17125W        W85519   4.982  43.499   5.455
17126W        W85520  31.558  17.758   2.243
17127W        W85521  34.951  17.028   2.098
17128W        W85522  23.640  35.027  13.801
17129W        W85523   6.409  12.707   3.675
17130W        W85524   7.734  31.068   3.385
17131W        W85525  11.919  22.964  13.322
17132W        W85526   3.331  36.413   4.067
17133W        W85527  40.128  22.715  14.151
17134W        W85528  27.519  27.820  14.372
17135W        W85529  28.131  30.869  14.046
17136W        W85530   6.939  42.707  13.431
17137W        W85531  29.173  44.450   2.272
17138W        W85532  18.682  24.211   0.398
17139W        W85533   7.449  12.686  10.679
17140W        W85534  34.777  34.243  12.727
17141W        W85535  13.796  38.898  11.111
17142W        W85536  15.161  22.238   4.414
17143W        W85537  20.257  13.173  12.423
17144W        W85538   8.386  37.229  10.646
17145W        W85539   6.342  10.561  12.017
17146W        W85540  43.429  28.656   0.357
17147W        W85541   7.241  10.632   4.342
17148W        W85542  40.334  27.082   0.418
17149W        W85543  19.574  15.090   4.624
17150W        W85544  30.379  25.732  11.070
17151W        W85545  36.653  33.290   3.685
17152W        W85546  13.892  17.309   3.184
17153W        W85547  15.488   6.403  11.180
17154W        W85548  44.693  18.329  12.458
17155W        W85549   4.502   9.772   0.067
17156W        W85550  12.328  37.299   1.762
17157W        W85551  30.476  43.080   3.206
17158W        W85552  37.154  14.020   2.714
17159W        W85553   5.850  37.915   2.264
17160W        W85554   2.164  43.511   1.799
17161W        W85555   4.344  13.366  13.961
17162W        W85556  19.716  10.160  11.162
17163W        W85557  30.685  29.181   0.124
17164W        W85558   5.429   1.427   1.335
17165W        W85559  40.200  29.905   1.282
17166W        W85560   9.376  23.226  12.388
17167W        W85561  26.674  39.052   2.325
17168W        W85562   4.636  41.909   2.889
17169W        W85563  41.457  14.620   1.797
17170W        W85564  39.367  24.978  13.994
17171W        W85565  39.460  18.556  12.604
17172W        W85566  27.262  20.957  14.269
17173W        W85567  34.191  10.681  12.066
17174W        W85568  20.703  36.447  13.508
17175W        W85569  43.819  43.190   1.955
17176W        W85570  10.404  17.215   3.713
17177W        W85571   3.258  16.635  13.147
17178W        W85572   8.405  26.040   1.688
17179W        W85573   0.802  14.581   1.207
17180W        W85574  15.680  44.958   0.889
17181W        W85575  36.442  22.707  11.125
17182W        W85576  44.695  25.478   9.987
17183W        W85577  11.241   9.187  11.574
17184W        W85578  18.369  21.748  12.114
17185W        W85579  44.470  14.764   1.510
17186W        W85580  13.018  11.590  14.468
17187W        W85581  22.438  26.411   4.654
17188W        W85582  24.505  26.945  14.298
17189W        W85583  29.454  36.928  13.207
17190W        W85584  32.994  14.829   2.895
17191W        W85585   1.140  19.820   2.200
17192W        W85586  37.451  13.633   2.894
17193W        W85587  32.555  25.306   2.166
17194W        W85588  10.328  14.594  13.463
17195W        W85589  35.510  41.116  14.021
17196W        W85590   8.886  19.753   4.978
17197W        W85591   5.344  36.600  10.689
17198W        W85592   5.257  42.989  14.013
17199W        W85593   4.783  25.887   1.094
17200W        W85594  38.774  32.835  11.900
17201W        W85595   6.185  26.604  12.341
17202W        W85596   4.221  15.770  12.093
17203W        W85597  39.074  28.475  11.949
17204W        W85598  17.643  12.177  11.824
17205W        W85599  10.906   3.123   4.349
17206W        W85600  40.355  36.587  12.549
17207W        W85601  29.832  18.695   1.850
17208W        W85602  16.867  38.012  13.343
17209W        W85603   9.187   2.417  14.168
17210W        W85604   9.335   6.795  10.809
17211W        W85605  19.678  10.381  13.569
17212W        W85606   5.833   6.718  10.743
17213W        W85607  12.092  35.568   1.386
17214W        W85608  30.974   4.361   0.458
17215W        W85609  22.359   0.901   4.406
17216W        W85610  41.065   0.967   0.009
17217W        W85611  14.171  43.844   3.629
17218W        W85612  10.752   7.247   4.207
17219W        W85613  19.597  13.508  13.395
17220W        W85614  32.585  37.681  11.110
17221W        W85615  18.746  41.036   0.041
17222W        W85616  40.723  35.530   4.936
17223W        W85617  42.532  11.379   4.437
17224W        W85618  40.311  13.348   2.245
17225W        W85619  29.409  27.613   1.429
17226W        W85620  18.973  18.740   0.420
17227W        W85621  26.904  34.025   3.154
17228W        W85622  42.128  35.398   5.006
17229W        W85623   7.633  23.199  10.188
17230W        W85624  17.763  37.573   0.815
17231W        W85625  21.969  20.407   3.790
17232W        W85626  18.151  17.240   4.551
17233W        W85627  29.812   5.104   3.278
17234W        W85628  13.313   6.131  13.573
17235W        W85629  41.237  39.017   1.184
17236W        W85630   4.295  20.451   2.675
17237W        W85631  26.545  32.980   1.370
17238W        W85632  38.903  12.230  13.462
17239W        W85633  12.832  23.260  11.814
17240W        W85634  15.439  40.379   1.591
17241W        W85635  37.075  32.133  10.464
17242W        W85636   4.114  13.082  10.577
17243W        W85637  39.389  13.203  11.650
17244W        W85638  14.616  21.157   5.318
17245W        W85639   4.082  17.627   2.421
17246W        W85640  13.462  33.465   0.770
17247W        W85641  18.614  10.540  11.514
17248W        W85642  43.826  26.121   0.013
17249W        W85643  13.424  35.975   2.406
17250W        W85644   2.400  41.639   2.777
17251W        W85645   0.969  34.146  10.828
17252W        W85646  21.829  43.450   2.223
17253W        W85647  19.765  27.625  12.504
17254W        W85648  18.650  30.674  13.954
17255W        W85649  17.112  36.145   2.150
17256W        W85650  23.979  19.712  11.764
17257W        W85651  28.638  26.474   2.827
17258W        W85652   6.615  13.912  13.475
17259W        W85653  36.982  17.214  14.056
17260W        W85654  34.255  21.175   0.573
17261W        W85655  33.394  20.520   4.050
17262W        W85656  33.873  44.712   2.335
17263W        W85657   4.883  24.629  11.727
17264W        W85658  15.839  42.396   3.744
17265W        W85659  21.727  27.821   2.703
17266W        W85660  21.685  24.906  12.490
17267W        W85661   8.929   5.913  12.377
17268W        W85662  21.691   4.770   0.699
17269W        W85663  24.921   5.774  11.073
17270W        W85664  24.108  20.722   4.651
17271W        W85665  10.636  17.029   0.443
17272W        W85666  18.952  24.708   2.724
17273W        W85667  32.639   6.515   4.116
17274W        W85668   2.287  26.293   4.516
17275W        W85669   0.240  11.689   2.191
17276W        W85670   2.426  36.841   1.382
17277W        W85671   7.281  15.028   1.670
17278W        W85672  13.819  30.852   0.374
17279W        W85673  14.208  15.275   3.889
17280W        W85674   9.106  38.612   4.521
17281W        W85675  30.297  17.619  12.783
17282W        W85676   5.432  28.089   4.050
17283W        W85677  11.329  24.571   1.760
17284W        W85678  17.194  33.146   3.810
17285W        W85679   0.782  41.002  13.009
17286W        W85680   7.317  28.473   4.939
17287W        W85681   5.925   1.874   1.579
17288W        W85682  43.695  15.733  10.637
17289W        W85683   0.206  36.878  11.939
17290W        W85684  23.448  38.968  10.541
17291W        W85685  37.977  18.220   4.663
17292W        W85686   2.732  43.888  11.211
17293W        W85687  17.720   8.328  14.408
17294W        W85688  44.889  44.973  13.544
17295W        W85689  24.801   0.902  11.183
17296W        W85690  41.867  12.768   1.630
17297W        W85691  17.255  42.516   2.622
17298W        W85692  17.384  41.528  12.722
17299W        W85693  15.654  44.985   3.907
17300W        W85694   6.916  28.740  14.907
17301W        W85695  25.741   9.757   2.356
17302W        W85696  18.620  26.703   1.324
17303W        W85697  32.547   9.796  13.757
17304W        W85698  20.988  14.209  12.618
17305W        W85699  14.243   9.969  14.761
17306W        W85700   5.163   9.502   0.768
17307W        W85701  20.182  19.473  14.483
17308W        W85702  40.443  11.125  13.582
17309W        W85703  11.085  29.456  12.101
17310W        W85704  21.178  36.706   4.708
17311W        W85705  24.490  19.019  10.673
17312W        W85706  32.702  13.770   3.317
17313W        W85707  27.200  32.671  11.106
17314W        W85708  20.271  33.907  13.360
17315W        W85709  12.277  38.833   2.784
17316W        W85710  11.126  33.495  10.717
17317W        W85711  38.556  27.608  13.599
17318W        W85712  38.923   8.771   2.333
17319W        W85713   8.197   4.981  12.093
17320W        W85714  37.734   3.829   1.972
17321W        W85715  27.723  23.575   4.048
17322W        W85716   2.989  39.525   1.682
17323W        W85717   1.889  37.439   4.965
17324W        W85718  18.944  39.528  14.357
17325W        W85719  18.662  10.739  13.410
17326W        W85720   2.078  38.426   0.367
17327W        W85721   2.510   0.339  14.519
17328W        W85722  25.077  37.542  12.424
17329W        W85723   9.277  15.102  10.425
17330W        W85724  35.360   6.704  12.982
17331W        W85725  29.756  23.279  11.651
17332W        W85726  16.725  34.681   1.855
17333W        W85727  34.995  14.237   0.772
17334W        W85728   0.352  14.522   4.295
17335W        W85729  24.593  17.954   3.846
17336W        W85730  33.870  13.220   4.709
17337W        W85731  29.190  21.207   4.619
17338W        W85732  16.796  40.491  13.395
17339W        W85733  36.385  41.951   2.402
17340W        W85734  22.244   1.772   2.766
17341W        W85735  27.188  42.256  14.882
17342W        W85736  41.072  29.316  13.854
17343W        W85737  24.138  14.800   2.741
17344W        W85738  22.010   2.060  13.287
17345W        W85739  21.742   3.105  12.913
17346W        W85740  32.084  26.888   2.718
17347W        W85741   2.816  36.413  13.478
17348W        W85742  32.522  22.760   0.372
17349W        W85743  41.853  15.362   3.626
17350W        W85744   6.827  39.761  13.276
17351W        W85745   6.530   5.679   9.891
17352W        W85746  23.999  40.642  13.444
17353W        W85747  36.604  13.086   3.216
17354W        W85748  26.000  23.237   4.272
17355W        W85749  20.380  44.835   3.946
17356W        W85750  40.299  38.059   4.176
17357W        W85751  10.495  34.607   0.270
17358W        W85752  36.432   9.436  14.998
17359W        W85753   3.561  40.772   2.749
17360W        W85754  12.973   2.902  14.085
17361W        W85755  43.275  41.376   4.214
17362W        W85756   1.391  27.014  12.988
17363W        W85757  22.314  19.597  11.952
17364W        W85758  14.821   7.757  11.117
17365W        W85759  35.808  13.012  14.397
17366W        W85760  44.982   3.413   2.389
17367W        W85761  44.886  40.063  13.104
17368W        W85762  36.485  33.751  10.261
17369W        W85763  44.786  19.728  12.487
17370W        W85764  19.497  42.929   2.665
17371W        W85765  25.943  25.541  14.742
17372W        W85766  27.962   2.465  11.402
17373W        W85767  43.846   7.337  12.069
17374W        W85768   5.682  10.025  12.622
17375W        W85769  24.212  30.562  12.483
17376W        W85770  38.821   1.383   4.583
17377W        W85771  18.767   2.548  12.089
17378W        W85772   4.627  42.488   3.732
17379W        W85773   2.821  44.732  12.838
17380W        W85774  37.192   9.232  11.207
17381W        W85775  24.233   3.672   3.296
17382W        W85776   5.464  34.947   3.064
17383W        W85777  15.825   1.948  12.594
17384W        W85778  23.535  25.673   2.315
17385W        W85779  28.925  41.548  14.532
17386W        W85780   0.738  17.851   3.945
17387W        W85781  26.959  43.131  11.294
17388W        W85782   2.713   7.885   4.743
17389W        W85783  42.924  44.431  14.736
17390W        W85784  43.633  43.856   1.604
17391W        W85785  39.030  12.052   1.753
17392W        W85786  12.375  19.088  14.291
17393W        W85787  21.405  15.363  11.135
17394W        W85788  22.517  37.074  12.414
17395W        W85789  27.499   6.380   2.933
17396W        W85790  19.697  29.101   4.045
17397W        W85791  32.994  12.103   4.967
17398W        W85792   3.262   6.113  11.584
17399W        W85793   7.868   1.155  12.127
17400W        W85794   0.194  33.632   4.785
17401W        W85795  33.587  16.102  10.512
17402W        W85796  15.719  36.497   0.039
17403W        W85797  14.676  13.184  13.020
17404W        W85798   6.115  16.104  12.503
17405W        W85799  35.524   6.841  13.876
17406W        W85800   4.028  22.452   0.675
17407W        W85801  25.975  12.397   4.984
17408W        W85802   5.964  25.235   2.498
17409W        W85803  44.804  25.147  13.599
17410W        W85804   1.696  10.150  14.412
17411W        W85805  30.663  41.761  10.794
17412W        W85806  10.135  43.648  12.918
17413W        W85807  24.174  12.711  11.161
17414W        W85808  21.966  10.721  10.226
17415W        W85809  18.978  24.001  11.027
17416W        W85810  23.046  20.723  13.541
17417W        W85811  29.622  30.948   1.597
17418W        W85812   5.704  32.791  11.992
17419W        W85813  18.279  23.060   2.121
17420W        W85814  14.833  25.271   2.689
17421W        W85815  40.791  25.925  11.154
17422W        W85816   1.832  25.118  14.807
17423W        W85817  26.117  32.072   5.160
17424W        W85818   1.264  22.171  13.426
17425W        W85819   7.165   2.946  13.041
17426W        W85820   7.684  28.998   3.078
17427W        W85821  38.235  24.703   2.928
17428W        W85822  26.103  28.149  11.554
17429W        W85823   2.161  16.378   2.405
17430W        W85824  36.442  27.477  12.572
17431W        W85825   6.872  19.938  13.039
17432W        W85826  35.787  26.116   1.505
17433W        W85827  43.207   0.628   3.365
17434W        W85828   1.349  36.089  11.437
17435W        W85829  10.888  23.257  11.160
17436W        W85830  37.861  24.362   4.549
17437W        W85831  31.083  38.462  14.912
17438W        W85832   9.731  42.813  10.634
17439W        W85833  22.120  23.073  11.538
17440W        W85834  30.491  35.081  10.781
17441W        W85835   7.981  14.374  11.633
17442W        W85836  44.481   7.881   5.012
17443W        W85837   3.317  39.479  10.718
17444W        W85838  42.057  30.814   1.912
17445W        W85839  15.129  19.023   1.338
17446W        W85840  33.998  25.578   4.381
17447W        W85841  40.521   6.352  14.003
17448W        W85842  37.973  14.351   2.544
17449W        W85843  39.448  37.925  14.566
17450W        W85844  36.623   4.294  11.127
17451W        W85845  42.903   2.218  11.951
17452W        W85846   5.624  28.979   3.163
17453W        W85847  22.024  25.246   2.783
17454W        W85848  27.203  27.582   2.786
17455W        W85849  37.221  28.856   2.391
17456W        W85850   6.396  38.754   3.237
17457W        W85851   3.481   6.616   5.104
17458W        W85852  20.095  27.185   0.364
17459W        W85853  19.383   7.436   4.597
17460W        W85854  18.788  39.988   4.639
17461W        W85855  36.399  43.495  11.455
17462W        W85856  44.262  11.311  11.726
17463W        W85857  27.735  42.441   3.837
17464W        W85858  25.710  10.378  12.434
17465W        W85859   5.723  13.646   0.599
17466W        W85860  24.146  18.260  13.867
17467W        W85861  11.767  11.625   3.747
17468W        W85862  28.703   8.669  10.652
17469W        W85863   5.282  13.059  14.843
17470W        W85864  18.836  27.073  11.223
17471W        W85865  40.013  18.392  10.861
17472W        W85866  20.100  22.235  13.950
17473W        W85867  42.059  10.513   9.963
17474W        W85868  30.518  39.436   2.082
17475W        W85869  33.955  41.838  11.100
17476W        W85870  26.999  40.107   3.644
17477W        W85871  22.235   0.819  10.859
17478W        W85872  24.993  26.678   4.748
17479W        W85873  27.002   0.545   0.890
17480W        W85874  40.812  20.622  12.081
17481W        W85875  10.990  34.561  12.036
17482W        W85876  33.493   5.121  13.982
17483W        W85877  25.992   0.402   3.231
17484W        W85878  34.930  26.669   3.763
17485W        W85879  25.277  27.493   0.338
17486W        W85880  36.540  13.088  10.711
17487W        W85881  32.848   4.733   4.539
17488W        W85882  33.780   4.634  11.510
17489W        W85883  15.309   9.845   1.414
17490W        W85884  38.415  17.566   1.302
17491W        W85885  31.059  39.612  12.049
17492W        W85886  24.641   2.411  13.769
17493W        W85887  20.206   0.310  14.718
17494W        W85888  10.242  20.361  12.537
17495W        W85889  24.739  18.615   1.781
17496W        W85890   8.138   0.926   1.871
17497W        W85891   1.884   6.412   4.818
17498W        W85892  11.699  15.524   1.962
17499W        W85893   2.518  17.053   1.845
17500W        W85894  26.047  33.886  11.489
17501W        W85895  19.218  36.442  14.298
17502W        W85896   8.640   7.320  14.852
17503W        W85897  17.839  24.397  14.952
17504W        W85898   7.853  34.049   2.345
17505W        W85899  16.209  13.432  12.525
17506W        W85900   2.309  16.793  14.356
17507W        W85901   9.979  28.178   3.599
17508W        W85902   6.078  20.690   0.948
17509W        W85903   6.722  38.986   2.482
17510W        W85904  24.924   7.503   1.551
17511W        W85905  27.722  32.507   0.030
17512W        W85906   6.954  43.983   1.774
17513W        W85907  27.793  17.516  11.661
17514W        W85908  28.826  14.757  13.858
17515W        W85909  37.590  15.768  13.849
17516W        W85910  22.888  41.234  14.104
17517W        W85911   0.837  14.298   4.642
17518W        W85912  41.577  28.360   0.743
17519W        W85913   5.966  29.194   2.754
17520W        W85914  35.865  42.741   3.838
17521W        W85915  15.323  17.208   0.773
17522W        W85916   0.696  40.893  14.323
17523W        W85917  12.493  11.675  10.784
17524W        W85918  33.083  31.739   4.214
17525W        W85919   6.763  34.738   1.794
17526W        W85920  10.961  30.866   4.755
17527W        W85921  27.995   6.865   2.292
17528W        W85922  24.081  23.988  11.243
17529W        W85923   6.954  19.094  13.626
17530W        W85924  30.042  42.443   3.084
17531W        W85925  20.075  36.435   3.616
17532W        W85926  41.923  44.840   4.144
17533W        W85927   4.527  36.067  11.530
17534W        W85928  15.211  30.686   2.980
17535W        W85929  33.406  11.019   3.223
17536W        W85930  14.192  17.881  12.474
17537W        W85931  27.124   9.565  14.065
17538W        W85932  10.985  28.738   2.495
17539W        W85933  17.738  13.381  10.625
17540W        W85934  17.303   8.061  14.016
17541W        W85935  21.517  20.177   4.713
17542W        W85936  43.347  39.999   2.743
17543W        W85937  23.158   5.642   3.484
17544W        W85938  22.123  30.724   1.451
17545W        W85939  24.628  29.808   3.193
17546W        W85940  43.073  29.544   2.893
17547W        W85941  31.705  34.253   2.425
17548W        W85942  44.331  21.283  12.908
17549W        W85943  40.720  25.915  13.412
17550W        W85944  18.819  20.684  13.932
17551W        W85945  20.496  34.311  11.436
17552W        W85946  41.504  30.680  13.967
17553W        W85947  42.398  39.541  13.896
17554W        W85948  39.782  33.946  11.879
17555W        W85949  29.273  24.779   1.168
17556W        W85950  11.651  21.976  13.597
17557W        W85951   9.206  40.971   1.371
17558W        W85952  14.691  24.619  12.739
17559W        W85953  33.029   8.400   1.801
17560W        W85954  40.684  42.034   0.523
17561W        W85955   3.162  21.545  13.462
17562W        W85956  36.786  38.519  14.053
17563W        W85957   0.915  18.524  11.650
17564W        W85958  27.465  28.504  12.515
17565W        W85959   4.274  36.580   1.378
17566W        W85960  31.019  40.121  12.051
17567W        W85961  41.898  38.523  14.364
17568W        W85962  18.196   8.701  11.546
17569W        W85963  36.886  19.468  10.895
17570W        W85964  37.088  29.699  14.565
17571W        W85965  27.781  41.010   0.272
17572W        W85966  20.099   8.763   3.815
17573W        W85967  42.400   3.882   1.222
17574W        W85968  16.316  31.675  12.944
17575W        W85969   8.960  44.705   4.151
17576W        W85970  18.558   5.139   2.772
17577W        W85971  33.691   3.868   4.567
17578W        W85972  34.870   8.518   2.732
17579W        W85973  22.746   6.006   2.782
17580W        W85974  28.468  23.890  14.672
17581W        W85975  21.397  12.331   5.475
17582W        W85976  33.996  21.699  14.808
17583W        W85977  22.968  15.576   3.723
17584W        W85978   3.121   7.379  11.935
17585W        W85979  11.827   1.764   3.797
17586W        W85980  31.387  10.676  10.635
17587W        W85981   8.334  19.029  14.842
17588W        W85982  34.991  42.828   1.208
17589W        W85983   8.652  20.735  14.311
17590W        W85984  23.232  34.735   0.250
17591W        W85985  10.650  19.447   4.954
17592W        W85986  36.580   5.244   0.449
17593W        W85987  36.305  23.153   3.890
17594W        W85988  10.460  40.345  11.612
17595W        W85989  33.254  29.594   0.731
17596W        W85990  15.357   7.435   0.298
17597W        W85991   1.211  44.135   1.662
17598W        W85992  21.075  37.675  13.385
17599W        W85993   5.769  24.377   2.723
17600W        W85994  12.180  21.576   1.664
17601W        W85995   7.187  12.504  11.079
17602W        W85996  29.496  34.002  14.871
17603W        W85997  10.418   6.183  13.348
17604W        W85998  14.759   5.496  13.744
17605W        W85999  31.329  37.577  10.725
17606W        W86000  43.399  41.340  13.349
17607W        W86001   9.005   3.827   0.421
17608W        W86002  13.770  15.721  11.827
17609W        W86003  37.342  33.736  13.811
17610W        W86004   9.619  15.753  10.694
17611W        W86005  42.114   0.030   0.909
17612W        W86006  41.334  20.372  12.272
17613W        W86007  12.701  41.064   1.342
17614W        W86008  15.738  31.142  12.578
17615W        W86009  14.726  40.869  14.949
17616W        W86010  44.474  42.749  14.883
17617W        W86011  11.886  31.740   2.787
17618W        W86012  25.996   6.139   1.778
17619W        W86013  36.965   4.895   0.382
17620W        W86014  22.013  18.757   3.161
17621W        W86015  41.400  27.502   2.883
17622W        W86016   5.132  13.491   4.305
17623W        W86017   6.742  18.708  12.352
17624W        W86018  38.783  15.686  14.375
17625W        W86019  40.157  24.736   2.371
17626W        W86020  30.671   0.318   1.138
17627W        W86021   8.634  23.071   2.960
17628W        W86022   7.432  15.636  14.062
17629W        W86023  33.647  12.854  13.104
17630W        W86024  43.875   9.009   2.286
17631W        W86025   0.507  34.847  11.633
17632W        W86026  13.171  20.733  12.635
17633W        W86027  27.686  23.527   3.222
17634W        W86028  12.235   2.426   0.584
17635W        W86029   5.432  39.006   0.277
17636W        W86030   8.124  39.741   4.064
17637W        W86031  17.423  36.868   0.408
17638W        W86032  21.638  14.536  14.515
17639W        W86033   2.507  20.162  14.704
17640W        W86034  17.634  35.917  13.867
17641W        W86035  22.140  20.957  12.260
17642W        W86036  14.343  37.674  14.963
17643W        W86037   9.208   7.851   0.279
17644W        W86038  29.663  39.793   1.297
17645W        W86039   5.320  20.302   4.516
17646W        W86040   5.844  21.815  14.378
17647W        W86041   1.236  17.685   0.881
17648W        W86042  18.544  38.951  12.568
17649W        W86043   4.084  13.270   3.140
17650W        W86044  16.724  30.865   4.776
17651W        W86045  29.224  20.321   4.127
17652W        W86046  26.195   1.385   0.319
17653W        W86047  41.979  16.065   1.309
17654W        W86048  32.886  31.516  14.814
17655W        W86049  39.460  34.325  13.926
17656W        W86050  36.532  15.355   0.228
17657W        W86051  22.178  39.302   1.270
17658W        W86052  37.035  43.387  12.135
17659W        W86053   4.051  28.693   4.668
17660W        W86054  22.408  25.118  12.863
17661W        W86055  13.866  23.571  12.471
17662W        W86056  28.410  43.355  14.404
17663W        W86057   5.289  11.614  11.651
17664W        W86058  22.565   2.283   0.437
17665W        W86059   8.470  14.170  14.766
17666W        W86060   3.948  15.790  13.015
17667W        W86061   0.277  21.125   3.436
17668W        W86062   7.952  26.742   4.101
17669W        W86063  36.050  22.369  14.411
17670W        W86064  35.351  29.980  13.347
17671W        W86065  21.190  42.442   0.723
17672W        W86066  27.988  26.044   0.221
17673W        W86067   6.155  29.124  13.176
17674W        W86068  27.734  35.000  11.963
17675W        W86069  14.063  42.073  11.699
17676W        W86070  41.120  29.928   4.922
17677W        W86071  10.737  23.926   1.982
17678W        W86072  41.860   8.361   4.614
17679W        W86073  35.089   2.059  12.227
17680W        W86074  22.561  14.896   0.809
17681W        W86075  14.216  21.290   3.142
17682W        W86076   3.029  28.149  12.177
17683W        W86077  16.713  16.774   9.936
17684W        W86078   3.326  44.821  10.638
17685W        W86079  38.389  24.061  11.348
17686W        W86080  21.028   7.762  12.150
17687W        W86081  18.656  13.489   3.239
17688W        W86082  26.118   4.009  11.931
17689W        W86083  27.999  40.335  10.665
17690W        W86084  20.975  15.736  14.266
17691W        W86085   5.533  32.135   3.881
17692W        W86086   2.891  12.248  14.592
17693W        W86087  32.078  15.516   5.001
17694W        W86088   7.446  43.131  13.724
17695W        W86089  24.184  33.313   0.885
17696W        W86090  24.606  31.748  11.162
17697W        W86091   6.164  20.171  10.674
17698W        W86092   5.384   9.689  12.933
17699W        W86093  14.320  39.272   0.470
17700W        W86094   5.752  30.294  11.562
17701W        W86095   4.245  13.543   1.292
17702W        W86096  38.111  24.074   0.717
17703W        W86097  24.913   4.546   4.227
17704W        W86098   8.365  36.070   4.117
17705W        W86099  15.150  24.685   2.760
17706W        W86100  21.946  37.945   4.267
17707W        W86101   7.623  10.122   1.887
17708W        W86102  33.027  14.313  13.758
17709W        W86103  32.879  16.046  11.181
17710W        W86104   7.137  26.667   3.659
17711W        W86105  15.146  38.633  12.024
17712W        W86106   1.948   0.442   4.027
17713W        W86107   4.872  12.038   3.134
17714W        W86108  23.250  11.460   3.466
17715W        W86109   2.763  39.883  14.711
17716W        W86110   7.272   5.421  12.142
17717W        W86111  15.295   7.298  14.802
17718W        W86112  34.153  33.324   3.834
17719W        W86113  24.946  16.385  12.295
17720W        W86114  41.533  38.437  10.715
17721W        W86115  30.377  42.463   4.119
17722W        W86116  41.580  38.792  11.704
17723W        W86117  23.181  28.575  10.527
17724W        W86118  32.120  38.549  10.531
17725W        W86119  22.605  17.774   3.265
17726W        W86120  40.771  13.833  10.438
17727W        W86121  33.994  33.640   4.229
17728W        W86122  22.707  18.110  11.607
17729W        W86123  39.861  44.460  13.569
17730W        W86124   6.013  11.704   4.038
17731W        W86125  16.741   3.404  11.115
17732W        W86126  37.652  21.974  10.753
17733W        W86127  11.803  39.419   2.029
17734W        W86128  12.838  26.229  10.716
17735W        W86129   6.585  44.781  11.657
17736W        W86130  17.254  20.048   1.068
17737W        W86131  17.565  11.112  11.032
17738W        W86132  25.226  40.119  12.523
17739W        W86133  39.551   8.210   3.859
17740W        W86134  20.121  40.075   4.161
17741W        W86135   3.924   8.301   0.832
17742W        W86136  22.702  41.678   5.004
17743W        W86137  21.094  18.284   2.720
17744W        W86138  21.576   2.166   4.165
17745W        W86139  29.477  18.664   4.264
17746W        W86140  18.777   5.862  11.336
17747W        W86141   2.208  37.055  14.778
17748W        W86142  37.643   3.244  13.535
17749W        W86143  14.721  44.056  12.341
17750W        W86144  26.855   7.956   3.418
17751W        W86145  20.234  20.450  12.836
17752W        W86146  30.009  40.619  14.716
17753W        W86147  23.855  26.104  10.897
17754W        W86148  22.287   0.248  13.682
17755W        W86149  22.288  27.934  12.894
17756W        W86150  43.730  19.594  12.903
17757W        W86151   8.119  40.585   2.980
17758W        W86152  31.147  19.376  11.158
17759W        W86153  19.482  33.274  11.028
17760W        W86154  25.534  31.459  10.528
17761W        W86155  19.282  31.972  10.692
17762W        W86156  25.213  35.333   4.580
17763W        W86157  20.491  17.737  13.284
17764W        W86158   9.164   3.925   4.349
17765W        W86159  29.435  38.456  14.766
17766W        W86160  26.906  33.536  12.571
17767W        W86161   3.987  36.719  12.064
17768W        W86162  42.421  39.555   3.674
17769W        W86163  27.581   2.193  12.158
17770W        W86164   4.355  31.995   0.267
17771W        W86165  17.935  28.804   0.874
17772W        W86166   4.876   9.851  10.570
17773W        W86167   6.124   9.037  12.759
17774W        W86168  17.659  20.161   1.384
17775W        W86169  43.297  39.203   5.097
17776W        W86170  41.376  39.877   0.814
17777W        W86171  15.080   7.319  14.324
17778W        W86172  42.468  31.282   1.238
17779W        W86173  14.268  29.431   3.679
17780W        W86174  20.029   3.388  14.385
17781W        W86175  44.921  28.597   4.557
17782W        W86176   1.361  20.808   4.757
17783W        W86177  33.006  20.833  13.355
17784W        W86178   1.473  44.610   1.653
17785W        W86179  10.676  23.488  12.754
17786W        W86180  17.096  19.695  10.762
17787W        W86181  40.077   7.719  11.870
17788W        W86182  28.498   2.969  14.234
17789W        W86183  13.216   7.367  14.190
17790W        W86184   0.293  43.205  10.782
17791W        W86185  23.987  44.300   0.347
17792W        W86186  26.310  31.353   1.820
17793W        W86187   9.764  43.234  14.069
17794W        W86188  40.310  14.171  14.333
17795W        W86189  13.694  31.458  14.876
17796W        W86190  17.707   6.087  11.435
17797W        W86191   2.004  13.144  12.932
17798W        W86192  10.106   7.281  12.631
17799W        W86193   5.832  42.292  14.560
17800W        W86194  17.753  22.934   1.382
17801W        W86195  13.475  11.518   0.027
17802W        W86196  26.184   2.516  12.480
17803W        W86197  37.204  35.834   1.898
17804W        W86198   1.874  14.553   3.600
17805W        W86199  27.824  26.763  11.162
17806W        W86200  19.800  43.354   1.385
17807W        W86201  22.705  38.040   2.691
17808W        W86202  32.946   8.622  14.904
17809W        W86203  13.879  39.334  11.414
17810W        W86204  14.717  29.571   3.909
17811W        W86205  29.507  40.776  13.752
17812W        W86206  31.170   8.286  12.567
17813W        W86207  27.670  43.856   1.657
17814W        W86208  14.558  38.882  10.749
17815W        W86209  29.990  39.999   0.820
17816W        W86210  31.932   0.601   1.707
17817W        W86211  42.357   5.942   3.607
17818W        W86212  23.044  30.616  11.567
17819W        W86213  16.396   0.647  14.345
17820W        W86214   1.948  33.923   2.850
17821W        W86215  12.639  38.317  10.706
17822W        W86216   5.108  18.796   3.198
17823W        W86217   0.925  10.090   2.754
17824W        W86218  44.068  42.855  12.612
17825W        W86219  25.733  40.303  12.509
17826W        W86220  12.635  31.513  13.573
17827W        W86221  36.013  17.148   0.395
17828W        W86222   1.648  29.887   0.611
17829W        W86223  38.313  12.441  11.651
17830W        W86224  18.732  22.097   1.725
17831W        W86225   4.667  32.011   4.175
17832W        W86226   2.018  18.673   1.263
17833W        W86227   4.007  22.583  13.367
17834W        W86228  33.954  39.963  13.333
17835W        W86229   5.959  35.214   2.598
17836W        W86230  31.625  43.817  14.008
17837W        W86231   7.644  20.155  14.061
17838W        W86232   0.305  12.845  14.917
17839W        W86233   9.251  21.188   1.235
17840W        W86234  24.201  37.140   4.143
17841W        W86235  32.465  25.441  14.460
17842W        W86236  30.025   8.692  13.350
17843W        W86237  20.050  12.354   0.406
17844W        W86238  26.739   1.204  11.980
17845W        W86239  20.350   6.894   2.176
17846W        W86240  43.966  16.508  13.427
17847W        W86241   8.829  10.673  14.025
17848W        W86242  30.657  37.849   4.791
17849W        W86243  41.984   3.419  11.271
17850W        W86244  37.325   5.292   2.710
17851W        W86245  20.188  37.665  11.496
17852W        W86246  18.554  18.812  14.729
17853W        W86247  25.026  43.909   3.290
17854W        W86248  39.823  31.175  13.369
17855W        W86249   5.353  38.937  11.262
17856W        W86250  35.601   2.446   1.910
17857W        W86251  21.110  40.541   3.749
17858W        W86252   0.039  37.791   5.418
17859W        W86253   1.992   9.223   4.534
17860W        W86254   4.975   2.729  11.998
17861W        W86255  12.003  15.210  10.882
17862W        W86256   0.988  26.259   3.352
17863W        W86257  15.112  25.345   3.924
17864W        W86258   3.546  16.298   1.606
17865W        W86259   2.796  12.872   4.218
17866W        W86260  29.437  32.067   2.809
17867W        W86261   1.387  23.082  11.620
17868W        W86262  14.018  41.560  11.980
17869W        W86263  34.665   5.891   1.476
17870W        W86264  42.749  41.722   0.217
17871W        W86265  33.455  41.592  11.679
17872W        W86266   8.894  24.470  13.889
17873W        W86267  29.881  11.232  13.918
17874W        W86268  35.982  43.383   1.276
17875W        W86269  43.007  10.825   4.676
17876W        W86270  26.197  44.975   0.188
17877W        W86271  33.881  26.997  14.269
17878W        W86272  24.229   7.897  12.528
17879W        W86273  19.103  24.767  14.854
17880W        W86274  26.845  11.040   5.395
17881W        W86275  10.838  33.355  11.140
17882W        W86276   7.145  27.917   3.440
17883W        W86277  12.231  37.028  11.603
17884W        W86278   7.713  41.846  12.469
17885W        W86279  26.293  22.280   4.199
17886W        W86280  30.438  17.865   1.735
17887W        W86281   6.788  23.454  12.972
17888W        W86282   6.201  43.267  13.355
17889W        W86283   1.035  39.407  13.413
17890W        W86284  44.409  41.261   1.428
17891W        W86285   0.413  20.716   3.123
17892W        W86286  31.194  14.856  14.320
17893W        W86287  34.478  26.194   2.145
17894W        W86288   6.257  44.469   1.480
17895W        W86289  14.036  38.347   4.213
17896W        W86290  15.832  17.474  12.753
17897W        W86291   8.310   0.462   2.809
17898W        W86292  35.863  37.912  14.835
17899W        W86293  44.899  39.345  14.923
17900W        W86294  18.696  33.992   2.856
17901W        W86295  21.499   0.763   3.698
17902W        W86296  40.015  21.684  12.570
17903W        W86297  37.882   7.452  10.660
17904W        W86298   8.245   2.698  10.667
17905W        W86299   8.252  41.251  10.776
17906W        W86300  25.229  19.506   4.898
17907W        W86301  13.363  10.760   4.569
17908W        W86302  25.332  26.435   0.924
17909W        W86303  23.507   6.117  12.555
17910W        W86304  17.787  15.711   2.715
17911W        W86305  22.590  29.492  12.851
17912W        W86306  24.018  16.715   1.618
17913W        W86307   7.825  40.935  10.967
17914W        W86308   0.330  37.623  14.632
17915W        W86309  26.952  22.465   3.228
17916W        W86310  38.058  12.113   0.734
17917W        W86311  36.403  37.346   4.343
17918W        W86312  35.045  32.994  14.530
17919W        W86313  44.632  16.809  13.882
17920W        W86314  32.690  19.448  13.413
17921W        W86315  18.799   6.941   4.271
17922W        W86316   2.738  44.379  11.044
17923W        W86317   3.992  40.832   4.085
17924W        W86318  12.954   8.043  10.239
17925W        W86319   8.364  28.119   0.777
17926W        W86320  10.358  15.671   2.685
17927W        W86321  24.088  26.927  10.533
17928W        W86322  27.517  44.176   2.824
17929W        W86323  14.137  20.985  14.047
17930W        W86324  19.055  18.816  14.911
17931W        W86325  28.796  39.391  14.860
17932W        W86326  32.627  20.020   4.134
17933W        W86327  15.827  11.416   2.052
17934W        W86328  15.573  13.177  11.657
17935W        W86329  27.453  35.142  14.766
17936W        W86330  26.951  12.908   1.629
17937W        W86331  25.878  31.900  10.946
17938W        W86332  22.957   5.522  13.002
17939W        W86333  22.181   6.297   4.772
17940W        W86334   0.385  29.923   1.997
17941W        W86335  44.522  33.011   0.745
17942W        W86336  29.715  30.347   1.278
17943W        W86337  44.028   5.343  14.444
17944W        W86338  21.514  28.756   2.800
17945W        W86339   7.443  15.488   2.797
17946W        W86340   9.177  39.409  11.200
17947W        W86341  32.450   5.451  14.531
17948W        W86342  34.708   0.868   1.003
17949W        W86343  26.541  12.009  12.542
17950W        W86344  16.230  10.223   4.989
17951W        W86345  25.157  39.232  13.592
17952W        W86346   4.692  34.195   3.671
17953W        W86347   9.405  37.131   1.862
17954W        W86348  11.295  28.534  12.178
17955W        W86349  38.781  43.113  10.373
17956W        W86350  20.126  37.934   4.497
17957W        W86351  14.634  23.903  12.051
17958W        W86352  38.843  18.550  11.893
17959W        W86353   1.194   1.420  11.151
17960W        W86354  11.204   0.212  10.946
17961W        W86355  41.511  31.182  12.894
17962W        W86356   8.159  33.384   3.757
17963W        W86357  31.430  35.873   3.193
17964W        W86358   0.549  39.971  14.868
17965W        W86359  33.807  20.924  11.665
17966W        W86360  20.656   2.342  14.070
17967W        W86361  22.577  22.747  14.889
17968W        W86362  10.146  26.881   4.115
17969W        W86363  35.015   9.624   2.697
17970W        W86364  26.708  18.877   3.571
17971W        W86365  40.442  39.076  10.660
17972W        W86366  28.050  19.527   2.411
17973W        W86367  37.528  38.798  14.890
17974W        W86368  19.033   0.803  10.455
17975W        W86369  18.042  44.066   2.437
17976W        W86370  25.986  14.546   1.706
17977W        W86371   7.661  40.337   0.868
17978W        W86372  18.144  26.939   2.403
17979W        W86373   2.278  12.120   4.976
17980W        W86374  27.746   8.922   3.162
17981W        W86375   3.773  10.849   9.892
17982W        W86376  31.819  34.458   1.203
17983W        W86377   0.418  43.462   2.214
17984W        W86378  41.406   9.506   5.151
17985W        W86379   3.071   4.825   5.146
17986W        W86380   0.927  27.265  12.092
17987W        W86381   8.729  36.583  11.130
17988W        W86382   7.268  35.903  14.913
17989W        W86383  25.079  21.519  12.014
17990W        W86384   6.367  39.061   1.288
17991W        W86385  39.605  36.003  14.453
17992W        W86386  17.986  19.354   4.788
17993W        W86387  34.137  28.967   2.420
17994W        W86388  15.119  32.487   3.171
17995W        W86389  12.795  23.049   3.200
17996W        W86390   0.019  10.860   4.078
17997W        W86391  40.021  36.996  14.519
17998W        W86392  12.733  21.607   4.344
17999W        W86393   4.970  32.970  14.396
18000W        W86394  38.081  39.888  13.369
18001W        W86395   8.355  20.564   4.396
18002W        W86396  32.316   4.837  12.890
18003W        W86397  29.107  20.653   1.293
18004W        W86398  22.904  10.381  12.963
18005W        W86399  27.894  21.155   1.007
18006W        W86400  19.359   9.639  13.102
18007W        W86401  17.232  29.471   2.417
18008W        W86402  22.947  36.289   3.343
18009W        W86403  39.595   1.306  10.430
18010W        W86404  38.317  35.380   1.329
18011W        W86405  19.465  37.841  14.330
18012W        W86406  42.548   2.683  10.770
18013W        W86407  19.009   6.920  11.999
18014W        W86408   5.340   0.000   4.203
18015W        W86409  26.053   5.993  14.932
18016W        W86410  43.357  39.278   3.317
18017W        W86411  21.023  21.956   1.380
18018W        W86412  23.277  44.319  13.977
18019W        W86413   0.699   0.033  11.539
18020W        W86414  39.377  17.329   4.688
18021W        W86415  11.857  14.271  14.813
18022W        W86416   0.758  44.011   3.307
18023W        W86417  31.518  41.026  13.672
18024W        W86418  21.494  19.410  14.743
18025W        W86419  17.583   3.857  11.983
18026W        W86420   9.307   7.769   1.149
18027W        W86421  37.786   9.393   2.966
18028W        W86422  40.402   6.366   4.998
18029W        W86423  36.997  42.041  12.592
18030W        W86424  21.755  26.886  11.149
18031W        W86425  19.639  36.823   4.181
18032W        W86426  23.544  28.792   2.198
18033W        W86427  17.923  28.723   4.430
18034W        W86428   8.860  36.095  11.042
18035W        W86429  29.355   6.396  11.201
18036W        W86430  15.734  17.336   9.888
18037W        W86431  18.215  37.697  13.427
18038W        W86432  34.802  15.056  13.680
18039W        W86433  42.407  15.092   1.016
18040W        W86434  41.989  24.795  10.343
18041W        W86435  25.927  44.571  13.917
18042W        W86436  12.911   2.275  14.485
18043W        W86437  13.909  14.745   4.321
18044W        W86438  44.594  44.226  11.456
18045W        W86439  33.016   9.906   4.314
18046W        W86440  28.692   2.808  10.505
18047W        W86441  25.679   7.786   0.283
18048W        W86442  34.456  35.352  14.453
18049W        W86443   4.463  12.940   2.367
18050W        W86444  12.293   5.948  10.608
18051W        W86445  40.835  31.680  12.423
18052W        W86446  20.256  31.671  13.716
18053W        W86447  37.406  44.482  13.411
18054W        W86448   3.871  21.277   0.448
18055W        W86449  38.334  36.359  14.526
18056W        W86450   1.743  13.134   3.697
18057W        W86451  22.236  10.220   1.776
18058W        W86452   4.702   5.140  10.229
18059W        W86453   4.796  35.195   4.271
18060W        W86454  41.222  36.419   0.309
18061W        W86455  29.866  15.407   0.178
18062W        W86456  20.264   3.210   3.832
18063W        W86457  35.020  44.248   2.276
18064W        W86458  22.296  32.470  10.699
18065W        W86459  33.684  26.145  13.995
18066W        W86460  18.762  30.102   3.187
18067W        W86461  18.153  16.582  14.132
18068W        W86462  37.338   3.001  10.227
18069W        W86463  23.515  12.185   1.180
18070W        W86464  36.441  32.727  11.935
18071W        W86465  44.541   7.224   2.220
18072W        W86466   3.790  38.263   3.660
18073W        W86467  40.543  14.370  13.922
18074W        W86468  18.315  37.950  13.874
18075W        W86469  27.494  20.838   4.120
18076W        W86470  26.857  38.927  11.148
18077W        W86471  28.069  36.882   3.639
18078W        W86472   8.129  27.064  14.316
18079W        W86473  44.372  33.638  13.618
18080W        W86474  43.447   0.252  12.548
18081W        W86475  27.593  38.501  10.816
18082W        W86476  36.026  20.005  14.805
18083W        W86477  18.021  24.438  14.446
18084W        W86478  17.609  23.971   1.280
18085W        W86479  27.230  33.375   1.298
18086W        W86480   3.271  30.718   1.674
18087W        W86481  27.710  13.167  12.922
18088W        W86482  21.680  27.440  13.953
18089W        W86483  19.033   9.950  14.425
18090W        W86484  19.776  13.076   0.395
18091W        W86485  39.549  14.119  14.046
18092W        W86486  18.378   9.282  13.092
18093W        W86487  30.029  24.078  14.192
18094W        W86488  28.939   6.408   2.825
18095W        W86489   8.797  24.741   1.140
18096W        W86490  34.351   5.861   4.623
18097W        W86491  18.436  35.133   2.192
18098W        W86492   6.173   7.463   2.947
18099W        W86493  12.673  43.940  12.964
18100W        W86494  19.951  28.999   2.113
18101W        W86495   1.232  15.306   2.689
18102W        W86496  25.647  18.717  13.921
18103W        W86497  16.679  42.193  13.926
18104W        W86498   2.531  41.183   4.044
18105W        W86499  42.611   2.840   0.286
18106W        W86500  16.763  19.038   1.757
18107W        W86501  24.988  14.789   4.630
18108W        W86502  35.297   4.055  10.793
18109W        W86503  20.928  28.308  10.349
18110W        W86504   9.571  30.549   4.524
18111W        W86505  33.481  29.273  10.245
18112W        W86506  31.713   3.533   4.049
18113W        W86507  29.406  31.047  13.963
18114W        W86508  31.067  18.021  11.491
18115W        W86509  15.800   0.423   9.982
18116W        W86510  40.469  36.917   3.173
18117W        W86511  28.158  11.838  12.439
18118W        W86512  28.655  13.820  14.283
18119W        W86513  20.375   2.005  14.841
18120W        W86514  39.594  40.399  12.062
18121W        W86515  22.608  18.729  14.868
18122W        W86516  13.409  21.231   1.445
18123W        W86517  29.930  44.771  13.340
18124W        W86518  12.170   9.376  13.923
18125W        W86519  44.247   6.591   2.635
18126W        W86520  29.940  35.803  13.026
18127W        W86521  20.536  19.446   2.222
18128W        W86522  17.163  20.323   1.509
18129W        W86523  29.625  25.054   4.994
18130W        W86524  21.819  14.875  14.870
18131W        W86525  42.818  20.298  14.800
18132W        W86526  31.637  40.283  12.024
18133W        W86527   7.694   9.138   2.361
18134W        W86528  25.027  15.819  11.200
18135W        W86529  24.614  32.609   4.165
18136W        W86530  22.072  29.326   3.742
18137W        W86531  22.046  42.757   0.305
18138W        W86532  39.301  26.041   1.138
18139W        W86533  44.133  19.388  10.429
18140W        W86534  30.192  18.569  14.969
18141W        W86535  21.414  42.258  14.559
18142W        W86536  12.203   4.384   0.375
18143W        W86537  33.570  12.281   3.224
18144W        W86538  18.731  15.565  11.302
18145W        W86539  20.328   0.981   4.714
18146W        W86540  24.981  41.274  11.909
18147W        W86541  36.495   2.896  12.953
18148W        W86542  17.799   6.537  10.144
18149W        W86543   5.569  22.380   1.171
18150W        W86544   4.680  10.221  14.877
18151W        W86545  39.748  21.236  12.653
18152W        W86546  39.283   4.454   4.247
18153W        W86547  38.076  32.968   3.896
18154W        W86548   9.692   9.255   4.595
18155W        W86549  35.475   8.186   4.468
18156W        W86550  24.736  33.147   1.874
18157W        W86551  19.529   0.436  10.971
18158W        W86552  40.897  37.836  13.439
18159W        W86553  40.751  22.618   2.325
18160W        W86554  31.500  34.437   1.687
18161W        W86555   5.112  40.081   9.937
18162W        W86556   6.509  42.865   1.894
18163W        W86557   0.539  15.831  10.716
18164W        W86558  40.897  19.707   4.392
18165W        W86559  32.578   8.520  11.636
18166W        W86560  42.332   7.286   0.956
18167W        W86561  34.912  43.296  13.409
18168W        W86562   1.840  10.165   0.927
18169W        W86563  29.069   4.355   1.823
18170W        W86564  16.803  30.066   0.503
18171W        W86565   1.442   9.360   3.736
18172W        W86566   4.030  40.385   1.815
18173W        W86567   6.375  37.859   3.448
18174W        W86568   7.518  31.558   3.471
18175W        W86569   7.770  11.029  12.979
18176W        W86570  17.568  24.587  11.547
18177W        W86571  30.361   7.375  11.188
18178W        W86572   5.219  30.195  10.843
18179W        W86573  16.714  39.385   2.181
18180W        W86574  23.551  37.151   1.473
18181W        W86575  42.400  29.731   3.138
18182W        W86576  14.128  13.343   1.723
18183W        W86577  15.992   6.287  11.161
18184W        W86578   2.993  21.216   4.114
18185W        W86579  17.583  22.517  13.008
18186W        W86580   7.439  26.998   2.735
18187W        W86581  33.983  33.350  10.592
18188W        W86582  15.092  32.207  11.476
18189W        W86583  10.929  29.694  14.434
18190W        W86584   6.270  21.714   2.321
18191W        W86585  15.103  12.925   3.403
18192W        W86586  15.899  11.735  14.611
18193W        W86587  21.874   6.259   4.060
18194W        W86588  18.647  43.092  10.012
18195W        W86589  42.891   8.975  10.694
18196W        W86590  34.835  18.601   1.780
18197W        W86591  10.468  14.047   2.341
18198W        W86592  22.551  20.678   3.283
18199W        W86593  43.703   2.388   1.744
18200W        W86594  16.827  18.240  12.836
18201W        W86595  36.000   0.541  13.807
18202W        W86596  25.997  19.805  13.965
18203W        W86597  29.696  11.684   1.236
18204W        W86598  23.799   3.817   4.476
18205W        W86599  17.773  22.413   1.447
18206W        W86600  37.387  38.588   0.782
18207W        W86601  12.061  34.529   0.189
18208W        W86602   6.185   8.436  10.337
18209W        W86603  17.192  27.059   3.976
18210W        W86604  19.115  22.149   3.824
18211W        W86605  32.589  37.614   4.569
18212W        W86606   6.862  26.280  11.211
18213W        W86607  18.656  34.079  11.637
18214W        W86608   3.732   0.373   4.887
18215W        W86609  37.553  10.911  14.434
18216W        W86610  27.472  22.417  11.154
18217W        W86611   9.804  27.972   2.627
18218W        W86612  23.723  34.508  14.129
18219W        W86613  19.088  40.113   3.238
18220W        W86614  25.543  27.199   4.260
18221W        W86615  18.175  27.004   4.237
18222W        W86616  24.337  30.530  13.373
18223W        W86617  37.083  19.185  12.712
18224W        W86618   0.054  38.524   3.163
18225W        W86619  22.481   4.968  14.773
18226W        W86620   8.708  13.654  12.457
18227W        W86621  34.722  16.297  13.853
18228W        W86622   5.204  25.646   4.112
18229W        W86623  34.497  32.514  10.618
18230W        W86624  21.052  26.170   3.393
18231W        W86625  23.728  18.696  13.374
18232W        W86626  32.028  15.293   4.108
18233W        W86627   4.979  16.687   0.707
18234W        W86628  11.506  35.272   4.973
18235W        W86629  17.457  41.712  13.799
18236W        W86630  40.852   6.333   3.661
18237W        W86631   0.908   7.392  13.057
18238W        W86632   5.825  26.704  10.484
18239W        W86633  40.903  20.213   1.425
18240W        W86634  16.716  26.806   5.018
18241W        W86635  26.331  44.482  14.950
18242W        W86636  32.954   9.227  10.766
18243W        W86637   8.796   5.427  12.328
18244W        W86638  20.998   0.377  11.636
18245W        W86639  39.279  23.629  12.654
18246W        W86640   3.751  39.313  14.301
18247W        W86641  20.754  40.543  11.275
18248W        W86642  15.319  41.850   3.221
18249W        W86643  11.477  15.044   1.254
18250W        W86644  12.785  17.552   2.552
18251W        W86645  40.808  30.671  13.527
18252W        W86646  41.816  18.168   0.506
18253W        W86647  18.154   7.644   0.117
18254W        W86648  42.472  25.638  14.152
18255W        W86649  24.447  44.196   1.697
18256W        W86650  24.078  23.284  14.352
18257W        W86651   0.047  25.422   2.890
18258W        W86652   3.399  40.935   0.382
18259W        W86653   3.553  44.165  13.184
18260W        W86654  40.948  27.363  14.068
18261W        W86655  28.593   0.486   0.965
18262W        W86656   0.948  11.286   3.161
18263W        W86657  38.153   1.968   5.289
18264W        W86658  33.086   2.251  12.927
18265W        W86659  13.114  24.433   2.118
18266W        W86660  25.850   8.897  11.727
18267W        W86661  35.425  27.085  11.503
18268W        W86662  25.396  22.473  13.320
18269W        W86663  27.436   1.256  11.108
18270W        W86664  41.585   2.274   3.149
18271W        W86665  39.891  14.778  12.233
18272W        W86666  25.882   3.397   1.822
18273W        W86667  19.363  41.490   1.720
18274W        W86668  29.478  16.062  13.399
18275W        W86669  19.711  15.330   5.080
18276W        W86670  23.962  36.837   1.439
18277W        W86671  10.129  33.015   4.865
18278W        W86672  13.210  22.942  11.626
18279W        W86673  22.001  28.383  12.690
18280W        W86674  25.190   0.510  13.811
18281W        W86675  19.070   0.390   1.257
18282W        W86676  38.977  32.582  10.526
18283W        W86677   5.816  21.514  14.811
18284W        W86678  41.765  18.066  13.616
18285W        W86679  27.016  27.605  11.593
18286W        W86680  16.991  18.021   0.054
18287W        W86681  40.612  14.235   1.710
18288W        W86682   6.865  20.716  14.846
18289W        W86683  17.550  14.353   3.401
18290W        W86684   6.628  40.243   4.543
18291W        W86685  32.323   9.182   2.379
18292W        W86686  40.521  19.420  12.055
18293W        W86687  25.490  22.015  14.987
18294W        W86688  28.223  41.488   0.884
18295W        W86689  34.507  10.320   3.143
18296W        W86690   3.229  29.163   1.168
18297W        W86691  34.971  30.169  11.515
18298W        W86692  11.786  28.568   3.625
18299W        W86693  34.947  19.223  13.585
18300W        W86694  24.052  36.432   3.704
18301W        W86695  39.222  43.742   0.043
18302W        W86696  35.551   5.421   1.298
18303W        W86697  13.220   0.758  14.938
18304W        W86698  43.267  14.271   1.216
18305W        W86699  16.506  15.951   1.721
18306W        W86700  27.970  31.604   2.295
18307W        W86701  31.523  35.944  14.232
18308W        W86702   0.018   5.691  10.645
18309W        W86703  37.976  26.153  13.905
18310W        W86704  17.163  28.667   0.368
18311W        W86705  43.559  42.845  12.906
18312W        W86706  19.425  18.696  14.524
18313W        W86707  24.079  17.831  14.341
18314W        W86708   7.959  19.167   0.771
18315W        W86709  43.492  32.037   3.700
18316W        W86710   5.233  12.084  13.910
18317W        W86711  33.054   8.868   4.380
18318W        W86712  11.243  10.959   0.718
18319W        W86713   3.468  27.948   0.246
18320W        W86714  25.199  41.400  14.739
18321W        W86715  40.418  28.226   4.878
18322W        W86716   1.456   4.718   1.408
18323W        W86717   3.302  20.125   4.818
18324W        W86718   8.179  21.507   1.234
18325W        W86719  29.082  44.733   1.663
18326W        W86720   9.455  12.770  12.012
18327W        W86721  37.917  18.757   4.546
18328W        W86722  24.530  10.043   1.000
18329W        W86723  21.898   5.773   1.166
18330W        W86724  13.030   2.403   1.411
18331W        W86725  43.447   2.962   0.887
18332W        W86726  28.004  27.660   2.379
18333W        W86727  15.535   5.226   4.497
18334W        W86728  13.877  23.196   4.850
18335W        W86729   5.916   7.019   9.756
18336W        W86730   6.307  27.754   3.975
18337W        W86731   3.577  35.388   1.836
18338W        W86732  14.997  27.919   1.309
18339W        W86733  35.039  12.775   3.026
18340W        W86734  20.855   9.462   1.792
18341W        W86735  26.427  33.332  13.440
18342W        W86736  10.152  21.679  10.605
18343W        W86737  38.884  14.592  11.911
18344W        W86738  15.268  42.097  11.166
18345W        W86739   3.826  20.748  12.902
18346W        W86740  44.035   9.254   0.334
18347W        W86741   7.268  16.984  13.921
18348W        W86742   2.755  41.214   4.715
18349W        W86743  10.234  26.091   2.294
18350W        W86744  28.896   6.344  10.666
18351W        W86745  24.129   2.073   0.873
18352W        W86746  28.946  35.018  12.631
18353W        W86747  31.182  18.938  12.507
18354W        W86748  31.478  35.320  10.739
18355W        W86749  29.684  15.340  11.997
18356W        W86750  31.397  30.416   2.845
18357W        W86751   8.614  34.561  14.844
18358W        W86752   0.695  28.644   1.946
18359W        W86753  12.584  10.534  11.433
18360W        W86754  14.876   7.756   0.231
18361W        W86755  13.429  33.230   1.678
18362W        W86756  33.648  40.883   3.462
18363W        W86757  31.689  18.794  12.475
18364W        W86758  30.396  19.332   3.407
18365W        W86759   6.275  43.776   4.980
18366W        W86760  43.342   8.224  14.323
18367W        W86761  13.220  12.447  13.979
18368W        W86762   3.873  31.671   2.904
18369W        W86763  38.774   2.804   4.622
18370W        W86764  41.181  37.269   0.336
18371W        W86765  14.377  33.986   4.692
18372W        W86766  39.606  23.564   1.370
18373W        W86767  12.173   0.987  10.696
18374W        W86768  13.298  16.059  14.000
18375W        W86769  33.385  38.773   0.945
18376W        W86770   4.661  19.284   4.176
18377W        W86771  11.649  22.696   1.747
18378W        W86772   1.826  20.100   3.714
18379W        W86773  29.445  32.887  14.538
18380W        W86774  24.435  22.739   3.313
18381W        W86775   6.270  39.827  12.567
18382W        W86776  43.979  20.019   1.652
18383W        W86777  32.410  20.120  14.085
18384W        W86778  44.878   1.225  14.416
18385W        W86779  17.604  23.945  13.013
18386W        W86780  33.324  13.053  13.485
18387W        W86781  21.303  19.330  14.085
18388W        W86782   4.247  16.668   3.275
18389W        W86783   6.295   2.611   5.362
18390W        W86784  43.277  11.280   1.367
18391W        W86785  17.712  23.628  13.399
18392W        W86786  18.554   9.806  11.238
18393W        W86787  30.360   3.535   4.206
18394W        W86788  23.048  22.514  14.786
18395W        W86789   9.636   0.404  14.968
18396W        W86790  35.636   0.172  11.152
18397W        W86791  10.109  39.867  13.188
18398W        W86792  22.552  38.869  12.086
18399W        W86793   3.812  22.978  13.657
18400W        W86794  14.119  43.021   1.538
18401W        W86795  24.358  18.999  11.187
18402W        W86796  41.527   9.660   1.773
18403W        W86797  35.907  32.615  10.742
18404W        W86798  40.398  18.175  13.922
18405W        W86799   4.435  34.863   0.326
18406W        W86800  22.053   2.843   2.818
18407W        W86801  10.811  31.571   0.219
18408W        W86802   4.420  41.342   3.393
18409W        W86803   5.709  43.528   2.802
18410W        W86804  22.658  21.382   1.022
18411W        W86805  28.308  36.018  13.461
18412W        W86806  27.163  37.286  10.248
18413W        W86807  10.722  40.057   1.673
18414W        W86808  44.456  14.593  10.924
18415W        W86809   4.742  15.789  13.518
18416W        W86810  38.392  22.707   4.612
18417W        W86811  31.050  15.699   3.173
18418W        W86812  29.601  37.013   4.466
18419W        W86813  44.310  33.856   3.131
18420W        W86814  27.410  17.318   2.390
18421W        W86815  28.967  19.751  13.449
18422W        W86816  17.680  41.226  10.895
18423W        W86817  12.767   4.833  11.198
18424W        W86818  28.423  33.080   2.260
18425W        W86819  41.828   4.268  11.211
18426W        W86820   1.333  33.539  10.751
18427W        W86821  25.479  22.268  12.823
18428W        W86822  12.761  11.383   4.796
18429W        W86823   6.988  31.643   3.595
18430W        W86824  10.123  15.741   4.702
18431W        W86825  23.081  11.715   0.417
18432W        W86826  23.940  42.875  14.695
18433W        W86827  38.895  38.930  11.250
18434W        W86828  23.521  12.585   0.858
18435W        W86829   6.788  18.196  11.504
18436W        W86830  40.878  13.707  10.928
18437W        W86831  26.569  41.523   3.285
18438W        W86832  17.141  25.395   2.417
18439W        W86833  36.123  43.065  13.447
18440W        W86834  33.338  44.836  11.218
18441W        W86835  34.307  37.892  11.957
18442W        W86836  21.221  13.095   2.666
18443W        W86837  32.587   4.901   2.256
18444W        W86838   0.273  17.261  11.652
18445W        W86839  35.300  26.046   1.347
18446W        W86840  32.507  30.563   1.259
18447W        W86841  13.349  28.728  11.514
18448W        W86842   3.479   6.349   4.114
18449W        W86843  25.661  25.648  11.152
18450W        W86844  35.214   8.287   4.921
18451W        W86845  37.674  39.301   0.520
18452W        W86846   1.330  28.905   2.947
18453W        W86847  25.993  18.410   2.238
18454W        W86848  25.424   1.441  13.040
18455W        W86849  14.631  20.214   3.691
18456W        W86850  17.649  35.007  11.749
18457W        W86851  44.269  41.879  13.483
18458W        W86852  14.224  37.858   4.116
18459W        W86853  43.130  14.812  10.733
18460W        W86854  37.456  38.347   2.445
18461W        W86855  17.577  40.650   1.513
18462W        W86856  33.832   6.031  13.150
18463W        W86857  19.664   0.701  12.384
18464W        W86858  40.701  31.448   4.045
18465W        W86859  12.831  20.602  13.045
18466W        W86860  14.307   0.448  10.756
18467W        W86861  34.369   4.737  12.960
18468W        W86862  29.126  25.218   0.015
18469W        W86863  29.851  35.540  14.448
18470W        W86864  19.654  14.089   3.504
18471W        W86865  44.000  35.978   2.736
18472W        W86866  12.311  40.940  13.796
18473W        W86867  33.003   6.492  10.568
18474W        W86868  21.574  43.352   4.055
18475W        W86869  19.267  39.625  10.408
18476W        W86870  33.092  32.606   4.847
18477W        W86871   7.811   3.781   0.977
18478W        W86872  36.267   7.765  11.201
18479W        W86873  10.243  29.177   1.244
18480W        W86874  13.578  18.589  14.587
18481W        W86875  32.800   3.848  10.875
18482W        W86876  18.291  21.244  11.980
18483W        W86877  23.448   1.496   3.765
18484W        W86878  38.638  27.530  14.102
18485W        W86879  16.806   6.145   4.372
18486W        W86880  13.138  13.706   2.031
18487W        W86881  13.896  19.229  14.498
18488W        W86882  15.809  28.581   4.091
18489W        W86883  35.461   9.430   1.230
18490W        W86884   4.409  22.963   1.484
18491W        W86885  36.430  15.458  11.121
18492W        W86886  32.897   9.475   1.324
18493W        W86887  26.186  31.109  14.702
18494W        W86888  15.387  42.253  14.286
18495W        W86889   7.148  36.672  13.099
18496W        W86890   6.804   6.790  13.370
18497W        W86891   8.815  12.151   2.638
18498W        W86892  14.771  35.882  11.670
18499W        W86893  10.708  43.334  12.336
18500W        W86894  38.533  13.783   1.336
18501W        W86895  24.724  30.974   1.571
18502W        W86896  42.523  24.107  12.112
18503W        W86897  13.577  16.719   2.286
18504W        W86898  24.465  40.923  13.560
18505W        W86899  44.970  29.695  12.255
18506W        W86900  15.658  28.969   3.128
18507W        W86901  18.682  35.151   0.393
18508W        W86902   5.668  21.044   1.700
18509W        W86903  10.928  22.494  14.488
18510W        W86904  39.550  28.245  11.517
18511W        W86905  25.073  36.986   1.739
18512W        W86906  34.601  11.137   2.168
18513W        W86907  20.742  44.976   3.176
18514W        W86908   6.143   4.090   4.094
18515W        W86909   8.437  19.120   1.230
18516W        W86910  18.592  30.515   1.866
18517W        W86911  30.038  35.060   2.831
18518W        W86912  10.353  41.954  14.491
18519W        W86913  16.257  14.208  13.217
18520W        W86914   7.826  16.175   4.629
18521W        W86915  44.867   9.830   2.623
18522W        W86916  23.442  20.667   0.204
18523W        W86917  27.228  21.134  10.657
18524W        W86918  29.007  20.716   3.332
18525W        W86919   0.402  22.272   4.754
18526W        W86920  43.378  33.748  11.643
18527W        W86921  28.718   1.197   3.172
18528W        W86922  32.748  31.451  11.637
18529W        W86923  44.549  17.600   0.474
18530W        W86924  23.771  42.875  13.059
18531W        W86925  36.229  28.467   4.193
18532W        W86926  41.939   8.922  12.135
18533W        W86927  20.980  26.682  13.172
18534W        W86928  20.011  37.287   1.855
18535W        W86929  21.068  14.522   1.038
18536W        W86930   6.729   8.015   4.494
18537W        W86931  44.501  17.595  11.466
18538W        W86932  15.049  25.510   2.269
18539W        W86933   3.844  30.455  12.062
18540W        W86934   1.482  35.876   2.669
18541W        W86935   1.574   5.277   3.159
18542W        W86936   2.753  31.660   4.433
18543W        W86937  30.496  13.023  12.777
18544W        W86938   0.618  34.204  13.706
18545W        W86939  18.681  17.991  14.414
18546W        W86940  16.826  40.384   3.084
18547W        W86941  23.527   6.430   3.685
18548W        W86942  30.325  33.102  13.013
18549W        W86943  43.386   2.486  12.018
18550W        W86944   5.137  37.522  12.539
18551W        W86945  19.338  14.192   3.888
18552W        W86946  38.084  32.068   0.833
18553W        W86947  23.570   3.697   1.929
18554W        W86948  31.914  38.721  13.237
18555W        W86949  36.497   5.019  10.606
18556W        W86950  34.443   0.161  12.089
18557W        W86951  43.301   5.181  10.407
18558W        W86952  26.643  30.835   0.821
18559W        W86953  37.318  18.475   3.184
18560W        W86954  42.804   4.849   3.256
18561W        W86955   6.932   8.206   0.306
18562W        W86956  33.672  27.814  10.092
18563W        W86957  44.022  42.444   4.142
18564W        W86958   8.294  41.999  12.580
18565W        W86959  35.170   1.144   0.957
18566W        W86960   6.282   2.036   4.152
18567W        W86961  12.393  19.829  12.494
18568W        W86962   2.966  35.508  11.521
18569W        W86963   3.902  36.257  10.779
18570W        W86964  18.564  16.704   2.292
18571W        W86965   9.302  38.133   4.365
18572W        W86966  36.513   7.264   2.797
18573W        W86967  36.797  19.033  13.138
18574W        W86968  34.050   1.341  10.703
18575W        W86969  20.459  18.264   0.516
18576W        W86970  33.426  22.734   0.422
18577W        W86971  18.253  13.136   3.313
18578W        W86972  33.137  19.423  12.090
18579W        W86973  42.909  25.956   1.896
18580W        W86974  23.271  23.760   3.154
18581W        W86975  13.657  31.130   0.806
18582W        W86976  38.120  32.463   2.214
18583W        W86977   4.492  24.625  14.953
18584W        W86978  32.770  27.311   1.385
18585W        W86979   1.593  39.930  14.046
18586W        W86980  17.701   6.977   4.790
18587W        W86981  21.203   8.840  10.997
18588W        W86982  25.621  35.607  11.095
18589W        W86983   7.319   8.388  14.487
18590W        W86984   5.036  11.599   4.963
18591W        W86985  32.798   3.893  13.383
18592W        W86986  22.393  27.553  13.641
18593W        W86987  44.292  25.262  11.977
18594W        W86988  14.745  12.125  13.802
18595W        W86989  10.679  23.025  12.970
18596W        W86990  18.077  29.913   2.351
18597W        W86991   9.835  31.819  11.210
18598W        W86992  17.044  24.660  14.735
18599W        W86993  20.166  12.247   2.326
18600W        W86994  11.408   8.010  11.993
18601W        W86995  44.986  15.782   3.120
18602W        W86996  23.745  13.409  13.400
18603W        W86997  26.179  16.252   0.708
18604W        W86998   5.394  22.931  12.544
18605W        W86999   2.070  26.952  13.909
18606W        W87000   0.963  21.685   2.289
18607W        W87001  43.422  26.775   0.703
18608W        W87002  43.050  40.379   2.893
18609W        W87003  30.309  18.250   3.042
18610W        W87004   1.871   1.390  13.853
18611W        W87005   9.397  30.149  10.572
18612W        W87006  22.321  25.226  11.051
18613W        W87007  14.298  14.854   0.804
18614W        W87008  13.152  39.854  10.626
18615W        W87009  21.622  15.874  14.878
18616W        W87010  12.845  20.224  10.638
18617W        W87011   9.163  32.379   2.279
18618W        W87012  39.446   7.246   0.439
18619W        W87013   1.365  21.427  13.942
18620W        W87014  26.076  39.376  13.616
18621W        W87015   8.348  30.920  10.734
18622W        W87016  21.796   3.453  14.042
18623W        W87017  39.643  42.991  13.817
18624W        W87018   9.364  31.134   1.719
18625W        W87019  39.559  21.445   1.280
18626W        W87020   3.282  18.325   1.866
18627W        W87021  13.632  32.034  11.565
18628W        W87022  10.037  19.623  14.022
18629W        W87023  17.908  37.283   1.398
18630W        W87024  31.100  23.107   0.303
18631W        W87025  36.461   1.824  14.009
18632W        W87026   8.589  37.573   0.699
18633W        W87027  32.693  19.371   3.680
18634W        W87028   5.190  41.236  14.954
18635W        W87029  19.485  18.758   0.333
18636W        W87030   5.240  28.650   3.289
18637W        W87031   7.654  28.864   4.740
18638W        W87032   5.265  23.263   1.240
18639W        W87033  10.093  38.825  12.576
18640W        W87034  15.991  29.072   4.069
18641W        W87035  14.683  44.529   3.220
18642W        W87036  36.028  32.597  12.872
18643W        W87037  29.036  41.103   1.299
18644W        W87038  39.377   5.248  14.467
18645W        W87039  26.056  16.834   2.813
18646W        W87040  32.305  29.220  14.736
18647W        W87041  37.610   2.352  13.632
18648W        W87042  10.187  29.458   3.518
18649W        W87043  16.176   3.261  13.454
18650W        W87044   9.601  21.189   4.624
18651W        W87045   5.601  19.179  12.430
18652W        W87046  20.036   7.224   0.789
18653W        W87047  38.573  40.529  13.818
18654W        W87048  32.600   3.253   4.309
18655W        W87049  20.920  15.656   4.971
18656W        W87050   6.178  10.066   0.401
18657W        W87051  39.804  13.664   4.555
18658W        W87052  35.692  44.419  13.896
18659W        W87053  34.011  13.809  10.554
18660W        W87054  44.989  30.759   2.422
18661W        W87055  39.492  40.810   0.943
18662W        W87056  23.467  41.277  12.057
18663W        W87057  18.008   3.379   4.568
18664W        W87058  19.527   5.697   3.701
18665W        W87059   2.920  11.461   1.355
18666W        W87060   3.977  41.312  13.409
18667W        W87061  41.973   6.753  11.709
18668W        W87062  37.380  14.221   1.734
18669W        W87063  12.627  41.950   4.706
18670W        W87064   7.329   7.102   2.263
18671W        W87065  38.313  13.437   4.103
18672W        W87066  31.113   3.424  10.152
18673W        W87067  25.128   9.546  11.548
18674W        W87068   9.797   5.320   3.787
18675W        W87069   1.783  18.140  14.451
18676W        W87070  44.503  19.779  12.932
18677W        W87071  13.695  41.027   2.234
18678W        W87072  19.974  13.031   1.954
18679W        W87073   5.289  17.085  12.321
18680W        W87074  10.520   1.446   0.479
18681W        W87075   7.314  14.295   4.758
18682W        W87076  38.347  26.029  13.438
18683W        W87077  30.441  24.517  10.747
18684W        W87078  24.251  39.955  11.882
18685W        W87079   1.502  10.761   3.774
18686W        W87080   4.210   5.294  11.633
18687W        W87081  18.597  31.378  13.548
18688W        W87082  37.359  17.075  10.393
18689W        W87083  37.027  36.931  12.614
18690W        W87084  36.706  10.931   1.971
18691W        W87085  29.826   7.996   3.122
18692W        W87086  11.996  34.078   3.778
18693W        W87087  22.070  32.349   3.801
18694W        W87088   1.745  23.756  11.197
18695W        W87089  40.258  33.059  12.825
18696W        W87090  11.734  44.970   3.664
18697W        W87091   7.860  25.141   2.671
18698W        W87092   5.706  42.428   2.197
18699W        W87093  32.989   1.990  13.923
18700W        W87094  18.688  16.384  13.491
18701W        W87095  29.639  12.184   1.151
18702W        W87096  40.503  44.320  10.448
18703W        W87097   7.124   5.396   0.596
18704W        W87098  27.412  13.775   3.237
18705W        W87099  42.145  28.657  11.612
18706W        W87100  12.844  14.680   0.916
18707W        W87101  36.098  27.485   3.690
18708W        W87102  15.065  12.614  10.643
18709W        W87103  31.461  26.012   0.645
18710W        W87104  22.700  14.072   3.559
18711W        W87105  12.919  25.059  12.988
18712W        W87106  27.978  22.165   3.803
18713W        W87107  12.730  10.910  12.536
18714W        W87108  17.106   6.806   3.152
18715W        W87109  12.606  38.952  11.551
18716W        W87110  18.221  43.750   2.811
18717W        W87111  10.369  38.493  10.425
18718W        W87112   2.825  33.973  10.745
18719W        W87113   6.516  17.262  12.948
18720W        W87114  41.513   7.139   3.388
18721W        W87115   8.044  42.305  11.556
18722W        W87116  13.671  36.397  11.973
18723W        W87117   7.432  35.135   3.258
18724W        W87118  28.576  33.339   1.818
18725W        W87119  26.144  15.186   4.573
18726W        W87120  26.203  35.029   4.295
18727W        W87121  33.446  18.782  11.571
18728W        W87122   7.487  13.692  11.532
18729W        W87123  31.439  21.260  14.794
18730W        W87124  13.880  22.557  14.905
18731W        W87125  42.389  21.077   0.261
18732W        W87126   6.016  44.935  12.120
18733W        W87127  37.003   5.571  11.169
18734W        W87128   3.240  24.524   0.444
18735W        W87129  10.759  26.593   2.475
18736W        W87130  37.181  44.998  13.555
18737W        W87131   6.735  30.695  13.844
18738W        W87132   9.317  19.502  13.519
18739W        W87133   8.855  41.103  12.796
18740W        W87134  13.117   9.134  12.990
18741W        W87135  39.159  37.225  13.362
18742W        W87136  18.426  37.061   0.258
18743W        W87137  44.296  34.947   4.654
18744W        W87138  19.183  44.798  11.967
18745W        W87139   6.929  15.952  11.480
18746W        W87140   5.621   0.639   3.529
18747W        W87141  26.159  19.837   0.824
18748W        W87142   1.232  20.775  11.185
18749W        W87143  31.190   1.336   0.853
18750W        W87144  15.757  11.607  11.578
18751W        W87145   1.479  18.630  14.895
18752W        W87146  36.054  26.121   4.884
18753W        W87147  40.183  42.966  13.817
18754W        W87148   8.899   8.674   4.573
18755W        W87149  35.552  40.087   2.437
18756W        W87150  23.045  20.669  11.524
18757W        W87151  10.209  41.521  12.043
18758W        W87152  37.043  11.142  11.047
18759W        W87153  18.333   7.338  13.358
18760W        W87154  42.406  13.078  14.932
18761W        W87155  39.313  31.968   1.974
18762W        W87156   5.591   7.243  13.154
18763W        W87157   3.020  17.957   3.701
18764W        W87158  10.874  18.813  12.396
18765W        W87159   7.288  35.951   0.518
18766W        W87160  44.423  16.805   3.405
18767W        W87161  11.905  15.983  12.869
18768W        W87162  38.008  23.426  13.422
18769W        W87163  42.735  35.714   4.972
18770W        W87164   2.883   3.744   4.290
18771W        W87165  15.100  40.841   2.328
18772W        W87166  21.256  22.687   9.785
18773W        W87167   6.797  23.259  11.498
18774W        W87168  25.724  12.516  13.908
18775W        W87169   5.539   7.542  12.656
18776W        W87170  26.143  40.343  10.830
18777W        W87171  43.059   0.900   2.485
18778W        W87172  22.214  42.661  14.821
18779W        W87173  29.987  10.436   2.340
18780W        W87174   0.306  24.751   4.142
18781W        W87175   7.121  32.556  12.343
18782W        W87176  31.408  26.578  14.429
18783W        W87177  28.483  11.333   4.710
18784W        W87178  15.352  13.362   3.239
18785W        W87179   1.786   3.506  14.008
18786W        W87180  30.763  29.914  12.390
18787W        W87181  35.076  18.821  11.155
18788W        W87182   1.334  29.911   1.866
18789W        W87183  18.807  39.832  10.613
18790W        W87184  35.911   8.835  10.645
18791W        W87185  28.524  31.915  12.508
18792W        W87186  26.178  29.065  14.030
18793W        W87187  18.228  37.410   1.017
18794W        W87188   7.225  32.967   3.596
18795W        W87189  18.374  39.258  13.406
18796W        W87190   9.595   9.854   0.329
18797W        W87191  22.715   8.446  14.854
18798W        W87192   0.852  28.120  11.625
18799W        W87193  32.524  19.110   4.095
18800W        W87194   3.308  31.771  11.152
18801W        W87195  38.642  36.995  10.730
18802W        W87196  35.424  28.005   4.522
18803W        W87197  33.970  43.350  11.553
18804W        W87198  34.371  33.202  12.830
18805W        W87199  25.952   4.373  10.583
18806W        W87200   5.175  21.147  10.226
18807W        W87201  34.315   9.165   4.333
18808W        W87202   4.945  33.637  10.754
18809W        W87203  27.561  34.171  11.448
18810W        W87204  44.749  25.488  12.901
18811W        W87205  10.316  26.488  13.982
18812W        W87206  43.224  32.443   3.938
18813W        W87207   1.436  18.379   2.898
18814W        W87208  41.149   5.637  12.601
18815W        W87209   8.440   9.703  13.026
18816W        W87210  30.812  13.880   0.032
18817W        W87211   4.366  10.759   4.781
18818W        W87212  22.591   0.452   4.198
18819W        W87213  15.208  15.733  11.069
18820W        W87214  32.648  15.722   0.960
18821W        W87215  29.880   3.961  11.280
18822W        W87216  11.418   4.392  13.430
18823W        W87217   2.220   2.961  12.868
18824W        W87218  35.831   7.724   1.424
18825W        W87219  14.321  20.496  13.156
18826W        W87220  35.034  41.198  12.888
18827W        W87221  10.252   7.362   2.219
18828W        W87222  34.140   5.511   0.500
18829W        W87223   3.108  10.308   1.255
18830W        W87224  15.272  19.625  12.774
18831W        W87225  15.036  15.791  14.478
18832W        W87226  21.253  36.871  12.994
18833W        W87227  19.311  36.782  13.027
18834W        W87228  26.639  31.515  10.652
18835W        W87229  16.544  30.968   2.274
18836W        W87230   0.507  26.757   4.144
18837W        W87231  15.635   4.824   4.856
18838W        W87232  27.376  25.424   0.218
18839W        W87233  36.843   1.710  13.151
18840W        W87234  22.653  37.263  11.031
18841W        W87235  43.327  31.870   4.711
18842W        W87236  35.362   3.348   1.259
18843W        W87237  25.150  35.771   2.305
18844W        W87238  41.978  40.741  11.225
18845W        W87239  23.078   7.272   4.210
18846W        W87240   2.190  44.717  13.975
18847W        W87241  19.241  34.145  13.443
18848W        W87242  30.496   2.145   2.349
18849W        W87243  18.167  25.935  13.570
18850W        W87244  12.555  34.593   0.969
18851W        W87245  24.903  22.831  12.446
18852W        W87246  33.869   6.479   1.750
18853W        W87247  25.502   7.772  14.767
18854W        W87248  37.697  11.345   1.231
18855W        W87249  32.185  35.516   0.781
18856W        W87250  11.746  40.488  10.647
18857W        W87251  31.107  36.747   4.085
18858W        W87252  37.600   4.900   1.405
18859W        W87253   1.230  37.009   0.772
18860W        W87254  22.057  12.483   1.246
18861W        W87255  27.729  33.456   1.440
18862W        W87256  38.564  29.454  12.527
18863W        W87257   4.676  18.655   0.760
18864W        W87258  35.591  25.606  14.743
18865W        W87259  39.162  34.768   5.013
18866W        W87260  43.830  38.605   5.197
18867W        W87261  32.440  44.011   1.722
18868W        W87262  12.179  44.775   3.455
18869W        W87263  19.657  28.863  11.195
18870W        W87264  18.204  39.897  10.992
18871W        W87265  41.979   9.455   5.028
18872W        W87266  42.181  32.001   3.258
18873W        W87267   1.092  19.275   3.916
18874W        W87268  14.159  17.253   3.644
18875W        W87269  25.193  37.493  10.546
18876W        W87270  22.009  44.121   4.145
18877W        W87271  10.675  12.667  13.859
18878W        W87272  11.832  39.164  10.222
18879W        W87273  29.187  27.265   0.925
18880W        W87274  43.337  38.901   5.535
18881W        W87275   0.949  12.915  11.879
18882W        W87276  44.578  30.220   3.194
18883W        W87277  20.007   3.391   0.711
18884W        W87278   5.281  44.957   0.426
18885W        W87279  23.549  30.927   1.462
18886W        W87280  33.422  27.212  14.160
18887W        W87281  39.107  20.611  11.558
18888W        W87282  23.492  15.708   4.062
18889W        W87283  35.018   6.722   1.977
18890W        W87284  11.921  22.036   2.890
18891W        W87285  11.963  19.577   0.399
18892W        W87286  19.279   7.108   2.683
18893W        W87287  37.565  36.323  12.026
18894W        W87288  35.975  19.319  11.165
18895W        W87289  28.392  28.466  11.929
18896W        W87290  17.801  41.804  12.900
18897W        W87291  21.155  31.896   0.808
18898W        W87292  12.178   4.716  14.583
18899W        W87293  29.658  15.695   2.898
18900W        W87294   3.366  38.610   2.782
18901W        W87295  26.091  30.377   1.399
18902W        W87296  29.034   6.912  13.610
18903W        W87297  32.881  26.104  12.580
18904W        W87298   4.846  12.407  14.699
18905W        W87299  32.019   0.752  11.899
18906W        W87300  15.567  12.602  10.776
18907W        W87301  26.605  24.589  14.570
18908W        W87302  42.527  11.372   2.800
18909W        W87303  14.894  26.192  12.026
18910W        W87304  30.100  22.152   3.976
18911W        W87305  44.602  14.119  13.283
18912W        W87306  19.268  38.370   0.304
18913W        W87307  14.322  36.841   4.184
18914W        W87308  26.103   8.275  14.314
18915W        W87309  32.202  12.775   0.797
18916W        W87310  28.122   0.352   2.257
18917W        W87311  11.201  42.571   2.161
18918W        W87312  30.552  34.545   0.677
18919W        W87313   0.526  34.553  13.304
18920W        W87314  31.051  20.433   2.796
18921W        W87315  44.264  43.897   0.408
18922W        W87316  28.961  17.156  11.170
18923W        W87317  10.715   9.585  14.116
18924W        W87318   8.183  21.579   2.199
18925W        W87319  37.353  19.741  12.876
18926W        W87320  21.971   5.205  12.945
18927W        W87321  39.281  27.050  13.359
18928W        W87322  12.315  34.188  14.301
18929W        W87323   5.187   0.926   0.407
18930W        W87324  17.213  34.813   1.847
18931W        W87325  36.047  22.235   1.685
18932W        W87326  19.370  27.800  13.825
18933W        W87327  43.829  29.941   3.234
18934W        W87328  17.634  40.924  12.244
18935W        W87329  39.027  33.998  12.573
18936W        W87330  21.632  29.378  11.080
18937W        W87331  34.903   9.321  13.338
18938W        W87332  18.506  38.346   2.678
18939W        W87333  35.878   6.042   2.766
18940W        W87334  19.500  37.136   0.837
18941W        W87335   0.367  33.483   3.255
18942W        W87336   6.323  40.023  13.560
18943W        W87337  33.558  31.153  12.666
18944W        W87338  18.606   5.432  13.550
18945W        W87339  26.127  36.873   0.688
18946W        W87340   6.707  27.543   5.141
18947W        W87341  21.415  30.967  13.973
18948W        W87342  27.438  30.204   4.767
18949W        W87343   1.448   9.672   4.588
18950W        W87344   0.942   6.757   2.394
18951W        W87345  33.425  37.369  13.738
18952W        W87346  20.831  20.961  10.515
18953W        W87347   7.787  15.092   2.995
18954W        W87348   8.015   1.896   3.885
18955W        W87349   4.138  19.661   2.377
18956W        W87350  31.996  18.383  12.300
18957W        W87351  16.418   7.457   1.880
18958W        W87352  43.012  41.546   4.663
18959W        W87353  18.663  27.688   2.252
18960W        W87354   3.180  41.459   1.883
18961W        W87355   8.733  11.204  13.943
18962W        W87356   8.141  11.660   2.692
18963W        W87357   8.819  42.355  11.206
18964W        W87358  24.957  10.941  11.709
18965W        W87359  30.954  44.354   4.139
18966W        W87360   4.758  10.562  10.608
18967W        W87361  34.235  34.342   3.836
18968W        W87362   0.424   7.753  12.266
18969W        W87363  30.226   6.230  11.443
18970W        W87364   1.262  35.763   2.184
18971W        W87365  15.733   6.328   1.850
18972W        W87366  23.740  37.389  11.635
18973W        W87367  12.159  29.897   3.238
18974W        W87368  19.576   7.277   1.615
18975W        W87369  32.909  10.245   0.015
18976W        W87370  21.403  16.485  10.494
18977W        W87371  32.346  28.233   2.763
18978W        W87372  16.825  12.859  14.836
18979W        W87373   9.239  15.333  11.864
18980W        W87374  10.131  18.594  12.534
18981W        W87375  29.197  34.713  13.903
18982W        W87376  11.701  29.004  10.188
18983W        W87377  31.032  40.848  10.698
18984W        W87378  28.824   2.716  11.869
18985W        W87379  39.184  38.820  11.655
18986W        W87380  10.460  13.487   3.228
18987W        W87381  10.362  26.704  10.776
18988W        W87382   5.516  25.332   2.204
18989W        W87383  33.583   2.200  11.117
18990W        W87384  38.550   5.115  13.458
18991W        W87385  11.325   6.698  13.479
18992W        W87386  42.902  31.854  11.638
18993W        W87387   3.784  18.266  13.130
18994W        W87388  30.638  10.551   4.289
18995W        W87389  20.727  11.287   4.716
18996W        W87390  42.819  16.678   4.249
18997W        W87391  17.656  41.090   1.802
18998W        W87392  34.530  20.205   1.307
18999W        W87393  19.038  24.743  12.952
19000W        W87394  17.692  36.817  13.391
19001W        W87395  37.929  10.675   1.220
19002W        W87396   7.772   6.687  10.505
19003W        W87397  12.763   4.673  14.476
19004W        W87398  14.781  12.929  11.965
19005W        W87399   4.202  16.225  12.910
19006W        W87400   3.920   9.844  13.984
19007W        W87401   8.599  40.531  11.097
19008W        W87402  19.732   6.668  11.535
19009W        W87403  39.126  40.365  12.306
19010W        W87404  33.847  29.574  14.452
19011W        W87405   9.793  41.108  13.344
19012W        W87406  24.551  37.579   0.499
19013W        W87407  38.799  33.510   4.172
19014W        W87408  32.112   5.783   3.253
19015W        W87409  35.481  22.614  12.066
19016W        W87410  20.517   4.821   4.821
19017W        W87411  21.173  16.239  10.960
19018W        W87412  32.559  34.417  10.501
19019W        W87413  35.024  32.145  11.437
19020W        W87414   6.936  25.910  12.030
19021W        W87415  14.347  44.204  13.912
19022W        W87416  39.538  10.520  10.258
19023W        W87417  13.887  12.059  11.880
19024W        W87418  23.647  33.825   2.190
19025W        W87419   6.163  29.138   1.018
19026W        W87420   7.579   8.362  13.089
19027W        W87421  17.362  22.299  12.583
19028W        W87422  31.873  20.473   4.104
19029W        W87423  27.090  10.666   2.708
19030W        W87424  29.109   5.978   0.182
19031W        W87425   4.483  34.571   1.331
19032W        W87426  14.524  35.082   4.699
19033W        W87427   3.536   9.086  14.414
19034W        W87428  10.204   9.429   0.992
19035W        W87429  19.062  33.920  12.006
19036W        W87430  33.861  13.128  13.492
19037W        W87431  28.792  29.740  13.886
19038W        W87432  22.097   8.316  13.985
19039W        W87433  10.887  24.422   1.983
19040W        W87434  26.622  36.009   3.042
19041W        W87435  42.473  32.092  12.982
19042W        W87436  22.140  39.833   3.074
19043W        W87437  13.135  33.675  13.491
19044W        W87438  16.809  21.090   4.084
19045W        W87439   7.898  16.875   0.606
19046W        W87440  38.052  30.549   3.617
19047W        W87441  41.540   4.307   2.323
19048W        W87442  19.231  39.150   0.657
19049W        W87443  38.181  11.144   0.372
19050W        W87444  35.968  19.461  14.858
19051W        W87445  20.208  43.013   1.536
19052W        W87446   3.547   1.337  13.917
19053W        W87447   7.852  33.149  13.583
19054W        W87448  43.716  39.562   2.148
19055W        W87449  29.260   1.460  11.593
19056W        W87450  35.561  22.586  14.272
19057W        W87451   8.235  29.513  11.960
19058W        W87452  13.826   3.033  10.627
19059W        W87453  11.115  17.170  12.088
19060W        W87454  38.131  41.044   1.107
19061W        W87455   4.160  34.641  13.274
19062W        W87456  32.671  10.894   2.953
19063W        W87457  28.967  22.658  11.880
19064W        W87458  31.683  20.811  12.612
19065W        W87459  43.509  22.875   1.293
19066W        W87460  36.364  29.881  11.586
19067W        W87461  11.131  13.727   0.260
19068W        W87462   3.765  27.583   3.164
19069W        W87463   7.459  26.159   4.363
19070W        W87464  43.211  36.478  13.082
19071W        W87465   6.007   9.761   4.095
19072W        W87466  32.315  22.900   1.916
19073W        W87467   6.518   6.548   0.186
19074W        W87468  33.086   5.955   1.395
19075W        W87469  23.520  39.881  12.584
19076W        W87470  11.369  28.546   4.398
19077W        W87471  20.815  33.356   3.120
19078W        W87472  32.562  30.310  12.088
19079W        W87473  30.670   2.892  14.794
19080W        W87474  13.979  12.243  11.062
19081W        W87475  32.027  30.912   3.217
19082W        W87476  13.097   7.419  11.872
19083W        W87477  13.759  21.456   4.525
19084W        W87478   2.989  29.629   0.453
19085W        W87479  20.733  37.640  11.856
19086W        W87480  36.306  32.140  12.537
19087W        W87481  16.860  10.790   0.724
19088W        W87482  15.309  27.078  11.101
19089W        W87483  43.244  39.166  10.228
19090W        W87484   2.295  44.730   1.220
19091W        W87485  21.721  38.061  14.295
19092W        W87486   6.497  17.794   4.869
19093W        W87487   9.247  27.651   1.910
19094W        W87488  16.522  33.972   4.162
19095W        W87489  43.102  18.636   0.063
19096W        W87490  24.073  38.866  11.866
19097W        W87491  24.211   6.259   4.302
19098W        W87492   5.704  13.119  12.954
19099W        W87493  40.367  40.155  14.290
19100W        W87494  20.310  17.750   2.732
19101W        W87495  44.514  13.685  12.047
19102W        W87496   7.363  25.196   2.889
19103W        W87497  26.249  29.626  11.542
19104W        W87498  24.029  15.381  11.913
19105W        W87499  35.054  18.249   2.963
19106W        W87500  11.945  38.445  14.412
19107W        W87501  14.094  12.430  11.576
19108W        W87502  24.171  13.234   0.411
19109W        W87503   3.272  20.244  11.420
19110W        W87504  20.556   7.725   2.276
19111W        W87505  42.856  35.220  10.222
19112W        W87506  39.003  24.114  13.159
19113W        W87507  28.006  41.387  10.712
19114W        W87508  17.792  36.012   2.253
19115W        W87509  41.285  33.214  12.621
19116W        W87510  39.813  24.311  14.616
19117W        W87511  17.289   9.868  13.463
19118W        W87512   0.176  24.624   2.226
19119W        W87513  35.867  41.701   0.900
19120W        W87514  35.426  42.650  12.685
19121W        W87515  21.971  43.693  10.957
19122W        W87516  31.247   8.229   0.377
19123W        W87517  13.005   8.796   2.329
19124W        W87518  39.348  44.750   2.446
19125W        W87519  40.375  41.919  13.852
19126W        W87520   7.210  23.839  12.669
19127W        W87521  11.176  10.351  10.347
19128W        W87522   4.695  26.936   0.946
19129W        W87523  14.695  19.231   4.160
19130W        W87524  37.803   8.414  11.578
19131W        W87525  11.706  17.750   3.868
19132W        W87526  13.403  36.431  11.065
19133W        W87527  14.915  21.494   4.566
19134W        W87528   7.706  11.343   3.840
19135W        W87529  34.960   4.678  11.605
19136W        W87530  27.462  16.047  13.184
19137W        W87531  41.826   5.773   3.222
19138W        W87532  21.148  10.697  10.816
19139W        W87533  23.754  41.346   0.005
19140W        W87534  43.535  40.297  11.049
19141W        W87535  27.665   2.775   3.274
19142W        W87536  40.064  38.025   2.231
19143W        W87537  42.241  13.804  11.648
19144W        W87538  11.520  38.739   3.708
19145W        W87539   7.688  22.291  10.262
19146W        W87540   5.517  19.178  14.337
19147W        W87541  37.057  19.279   0.385
19148W        W87542  13.794  36.844   1.828
19149W        W87543  16.342  22.649   1.410
19150W        W87544  24.002   3.285   5.141
19151W        W87545  13.878  26.781   0.901
19152W        W87546  28.362  33.336  12.358
19153W        W87547  21.219  28.065   5.027
19154W        W87548  29.727  38.946   4.668
19155W        W87549   3.826  42.724  11.263
19156W        W87550  35.622  37.371   2.292
19157W        W87551  42.957  15.121  14.367
19158W        W87552   0.036  37.113   3.557
19159W        W87553  39.272   8.923  10.764
19160W        W87554  12.710  44.549  14.574
19161W        W87555  24.546  15.819  14.866
19162W        W87556  37.331  12.740   0.042
19163W        W87557  34.073  19.237   4.294
19164W        W87558   2.930   6.852  10.533
19165W        W87559  13.554   1.839   0.813
19166W        W87560  25.883  22.163  11.894
19167W        W87561   3.984  12.131   2.097
19168W        W87562  24.712  13.248  10.845
19169W        W87563  10.768  19.577  14.067
19170W        W87564  24.528  32.722   3.291
19171W        W87565  40.912  34.388  11.209
19172W        W87566  36.871  19.173   4.655
19173W        W87567  31.699  37.015   1.967
19174W        W87568   3.332  26.493   0.355
19175W        W87569  26.399  32.384  14.465
19176W        W87570  11.229   3.912  13.312
19177W        W87571   8.402  16.612  11.951
19178W        W87572  38.440  14.649  14.176
19179W        W87573  33.598  41.485   4.316
19180W        W87574  22.651  26.669   5.053
19181W        W87575  39.911   0.890   3.299
19182W        W87576  25.156  29.993  13.382
19183W        W87577  22.256   5.182  14.319
19184W        W87578  29.890  21.141  13.920
19185W        W87579   5.909  27.549  10.569
19186W        W87580  41.849  26.761  13.024
19187W        W87581   0.628  44.257  14.501
19188W        W87582  19.819  23.880  11.424
19189W        W87583  40.861  43.317  13.362
19190W        W87584  36.098  28.924  13.304
19191W        W87585  26.256   5.030   4.531
19192W        W87586   1.714  12.835  13.335
19193W        W87587  32.655   5.921   3.269
19194W        W87588  20.806   6.308  13.055
19195W        W87589  17.123  18.698   1.885
19196W        W87590   8.431  32.427   0.322
19197W        W87591  44.518  20.827  13.106
19198W        W87592  35.842  29.660   3.077
19199W        W87593  28.880   6.127   4.106
19200W        W87594  27.247  20.094  14.618
19201W        W87595  11.743   0.362  11.229
19202W        W87596   1.248  23.661   4.625
19203W        W87597  17.323   6.959   5.446
19204W        W87598  13.649  20.216  13.851
19205W        W87599  11.225  35.845  11.653
19206W        W87600  36.612  20.965  14.012
19207W        W87601  35.445  15.230  13.039
19208W        W87602  21.126  16.417   2.286
19209W        W87603  11.452  32.170   3.752
19210W        W87604  28.190  35.391   3.623
19211W        W87605  32.523   3.909  11.990
19212W        W87606  26.489  16.225   1.321
19213W        W87607  23.778  23.032  12.991
19214W        W87608   8.622  21.092   4.539
19215W        W87609   1.445  44.411  12.960
19216W        W87610  16.118  28.571  14.608
19217W        W87611  30.067   5.475   4.489
19218W        W87612   6.558   5.418   4.598
19219W        W87613   1.039  16.558   1.759
19220W        W87614  23.176  17.752   0.198
19221W        W87615  41.415  11.811   3.485
19222W        W87616  23.971   3.440   2.284
19223W        W87617  15.501  27.423   2.353
19224W        W87618  23.991  22.282  12.477
19225W        W87619  21.559  39.451  13.909
19226W        W87620  43.480  23.257  10.721
19227W        W87621  16.872  39.099   0.055
19228W        W87622  25.537  25.279   4.798
19229W        W87623  34.033  14.802   4.555
19230W        W87624   7.705   0.671  10.274
19231W        W87625  35.598   4.583   5.023
19232W        W87626  38.590  44.519   0.958
19233W        W87627   3.321   0.722   4.150
19234W        W87628  13.340  17.556   4.551
19235W        W87629  25.430  11.382   2.829
19236W        W87630  36.010  13.272  10.770
19237W        W87631  32.399  17.700   2.852
19238W        W87632  14.564  36.590  12.977
19239W        W87633  36.083  20.519   0.699
19240W        W87634  14.944  21.017  10.381
19241W        W87635  15.107  32.772   4.613
19242W        W87636  14.590  19.796  13.960
19243W        W87637  34.348   4.243   0.767
19244W        W87638  29.192  24.460  14.429
19245W        W87639   3.330  38.493   0.889
19246W        W87640  37.888  34.445   3.752
19247W        W87641  38.485   1.897  13.419
19248W        W87642   3.994  35.563  14.940
19249W        W87643   5.640  14.912  14.558
19250W        W87644  21.676  28.123  11.734
19251W        W87645  41.529  36.144   4.147
19252W        W87646  44.863  14.030  11.884
19253W        W87647  21.609   7.130   4.565
19254W        W87648  30.864  10.060   2.264
19255W        W87649   9.194  37.472   3.239
19256W        W87650  13.720  31.682  12.431
19257W        W87651  32.691   0.254   4.147
19258W        W87652  32.808   8.904  13.567
19259W        W87653  22.735   3.719  14.342
19260W        W87654   8.323  44.766  11.658
19261W        W87655  41.073   3.498  14.973
19262W        W87656  33.702  12.156  14.318
19263W        W87657  37.858  13.425  14.310
19264W        W87658  39.949  18.304   3.663
19265W        W87659  21.173   3.317   2.741
19266W        W87660  43.776  43.884  11.443
19267W        W87661  37.976   9.460  13.757
19268W        W87662  16.263  10.813  12.546
19269W        W87663  30.856  35.457  14.381
19270W        W87664  12.249   3.370  14.602
19271W        W87665  18.200  17.166   0.763
19272W        W87666  12.578   1.259   2.888
19273W        W87667  15.650  37.779   4.134
19274W        W87668   0.926  23.338  12.538
19275W        W87669  38.601  39.491   4.580
19276W        W87670   8.644  30.205   1.376
19277W        W87671   1.018  14.172   1.899
19278W        W87672  11.948  20.116   4.558
19279W        W87673  36.407  40.994   2.250
19280W        W87674  19.671  40.950   2.864
19281W        W87675  29.072  31.231  10.715
19282W        W87676  18.192  18.882   4.860
19283W        W87677  10.564  22.452  14.088
19284W        W87678  37.334  26.021   1.228
19285W        W87679  12.373   5.655  12.580
19286W        W87680  10.227  41.814   4.752
19287W        W87681   8.489  41.733  13.497
19288W        W87682  16.609  19.592   4.108
19289W        W87683  17.695  42.798   2.436
19290W        W87684  44.521  23.467   1.296
19291W        W87685  20.707  43.603  11.673
19292W        W87686   5.241  30.340  12.832
19293W        W87687  42.855   3.971   0.014
19294W        W87688  36.880  31.510   2.472
19295W        W87689   2.929  41.731   0.964
19296W        W87690   5.962   7.254   3.407
19297W        W87691  30.377  33.888  13.950
19298W        W87692   1.287  11.687   3.245
19299W        W87693  34.147  32.534  10.997
19300W        W87694  16.582  36.379   4.403
19301W        W87695  17.923  39.965   4.926
19302W        W87696  20.761   0.591  14.273
19303W        W87697  31.745  41.693   1.539
19304W        W87698  42.824  10.853   1.310
19305W        W87699   7.252  10.431   2.101
19306W        W87700  15.535  25.684  12.801
19307W        W87701  20.767  37.208   2.178
19308W        W87702   8.688  25.575  11.612
19309W        W87703  10.744  35.479  13.497
19310W        W87704  35.695   4.266   3.601
19311W        W87705  20.569  21.713   3.800
19312W        W87706  21.655  16.578   2.400
19313W        W87707   9.950  41.564   3.189
19314W        W87708  16.281  43.176  12.815
19315W        W87709   4.789  24.360   9.694
19316W        W87710  41.473  10.543   1.054
19317W        W87711  11.653  13.628   0.260
19318W        W87712  33.329  28.564   1.138
19319W        W87713  42.158  25.529   0.062
19320W        W87714  13.393  24.926  12.087
19321W        W87715  21.937   2.346   1.522
19322W        W87716   1.634  34.175  11.374
19323W        W87717  38.099  14.365   3.043
19324W        W87718   9.666   1.472   1.736
19325W        W87719  44.485  36.448  13.174
19326W        W87720  20.279  11.876   1.253
19327W        W87721  35.106  30.147   4.816
19328W        W87722  17.223   6.315   0.846
19329W        W87723   5.819  20.585   4.578
19330W        W87724  18.522  21.978   2.180
19331W        W87725  36.434  28.518   3.714
19332W        W87726   3.394   2.056   4.639
19333W        W87727  32.028   1.847   4.290
19334W        W87728  44.589  39.388  11.073
19335W        W87729  10.785   3.957  13.928
19336W        W87730  42.053  44.791   2.114
19337W        W87731   3.447  36.776   3.671
19338W        W87732  26.058  34.388  11.537
19339W        W87733  19.166  25.379   4.070
19340W        W87734  25.279  43.254   2.700
19341W        W87735  15.769  20.242  13.590
19342W        W87736  18.394  41.603  10.232
19343W        W87737  18.167  15.258  14.799
19344W        W87738  10.162   2.900  10.139
19345W        W87739  20.135   4.279   1.487
19346W        W87740   5.891  21.277  14.349
19347W        W87741  41.004  20.524  11.083
19348W        W87742   6.334  33.013  12.889
19349W        W87743  27.143  12.111   1.905
19350W        W87744  43.071  24.558  10.790
19351W        W87745  10.132   9.691   4.159
19352W        W87746  26.870  31.497   4.598
19353W        W87747   3.418   3.880  10.344
19354W        W87748  40.903  15.935   3.424
19355W        W87749  13.610  28.144   0.808
19356W        W87750   0.833  39.051   0.913
19357W        W87751  19.969  11.679   0.839
19358W        W87752  24.343   9.047   3.105
19359W        W87753  19.221  36.878  14.886
19360W        W87754  28.486  34.826   0.623
19361W        W87755  18.092   0.293   3.824
19362W        W87756  25.215  39.851  14.244
19363W        W87757  41.525  11.464   1.899
19364W        W87758   5.988  17.176   2.718
19365W        W87759  35.053   3.961   2.744
19366W        W87760  24.453  31.965  12.443
19367W        W87761  40.353  38.516  12.441
19368W        W87762  36.508  28.973   1.658
19369W        W87763  43.192  30.378   5.090
19370W        W87764  32.066  44.207   2.826
19371W        W87765  36.543  24.991  12.160
19372W        W87766   5.257   6.877  14.679
19373W        W87767  10.187  25.534   0.793
19374W        W87768  31.417  29.475   2.363
19375W        W87769  21.398  15.892  13.330
19376W        W87770  42.889  43.519   3.696
19377W        W87771  41.952  41.532  11.656
19378W        W87772  14.320  24.578   4.122
19379W        W87773   4.362  22.996  11.100
19380W        W87774  25.118   2.856   1.265
19381W        W87775  25.497  29.223  11.205
19382W        W87776  31.115  34.813   4.724
19383W        W87777  18.250  35.359  14.444
19384W        W87778  15.131  13.820   3.409
19385W        W87779  37.676  32.239   2.402
19386W        W87780  43.955   8.408   3.034
19387W        W87781  20.233   9.906   4.209
19388W        W87782  14.038  41.321  14.104
19389W        W87783  21.575  39.499  14.466
19390W        W87784   0.760  21.566   2.772
19391W        W87785  16.691   3.704   2.724
19392W        W87786  10.642  26.282   0.508
19393W        W87787  12.934   4.744  12.992
19394W        W87788  42.714  27.440  11.680
19395W        W87789  21.180  37.355   1.198
19396W        W87790   8.389   7.853   2.695
19397W        W87791  37.035  25.556   3.608
19398W        W87792  18.678  22.549   0.433
19399W        W87793   1.378  20.515  11.603
19400W        W87794  14.114  25.169  11.675
19401W        W87795  15.001   8.817  13.043
19402W        W87796  33.883  22.683  14.829
19403W        W87797  44.909  33.787  11.736
19404W        W87798   9.545  41.788   1.934
19405W        W87799   8.915  39.601  11.604
19406W        W87800  22.959  13.692   2.109
19407W        W87801   4.175  26.857  13.990
19408W        W87802  12.741   9.640   4.434
19409W        W87803  12.251   0.769   1.315
19410W        W87804  27.421  38.846   3.406
19411W        W87805   5.992  11.315   3.274
19412W        W87806  29.602  10.365  11.086
19413W        W87807  12.460   2.887  13.962
19414W        W87808  37.451   9.900  14.550
19415W        W87809  30.584  16.595   4.594
19416W        W87810   2.800  18.279   0.816
19417W        W87811  30.634  36.743  11.600
19418W        W87812  22.228   8.580  11.068
19419W        W87813  27.459  19.274  10.999
19420W        W87814   0.858  18.988   2.375
19421W        W87815  40.583   7.758  13.852
19422W        W87816  41.381  40.201  11.628
19423W        W87817  11.087  16.210   3.786
19424W        W87818   1.163  10.399   4.700
19425W        W87819  19.256  10.251  13.854
19426W        W87820   4.510  34.347   3.203
19427W        W87821   3.928   3.005  12.727
19428W        W87822   4.933  25.557  13.738
19429W        W87823  21.033  14.351  11.199
19430W        W87824   5.478  39.109  13.077
19431W        W87825  35.860  11.767  10.640
19432W        W87826   3.975  11.596  12.911
19433W        W87827   7.745  34.979  10.001
19434W        W87828  44.260  12.336  13.160
19435W        W87829  39.366  27.421   1.816
19436W        W87830  34.603  15.222  12.787
19437W        W87831  10.471  41.710   5.207
19438W        W87832   5.476  21.767   4.866
19439W        W87833  33.596   3.666  11.260
19440W        W87834  41.043  34.141  12.445
19441W        W87835   0.617  16.795  13.844
19442W        W87836  29.252  35.021  14.926
19443W        W87837  12.400  33.448  12.468
19444W        W87838  25.859  36.050  11.213
19445W        W87839   1.405  39.976   0.569
19446W        W87840   9.045  38.502  12.533
19447W        W87841   7.918  23.731   2.719
19448W        W87842  36.817  16.325   2.887
19449W        W87843  16.306  40.015   2.822
19450W        W87844  30.531  23.128   2.133
19451W        W87845   3.964  40.540   4.719
19452W        W87846  17.880  14.762  14.044
19453W        W87847   8.192  10.687   2.324
19454W        W87848  33.855   0.936  13.512
19455W        W87849  24.475   4.247   4.208
19456W        W87850  10.935  14.398  10.634
19457W        W87851  19.225  41.447  14.378
19458W        W87852   8.884  40.963  13.418
19459W        W87853   2.797  30.990   1.720
19460W        W87854   6.992  39.513   1.704
19461W        W87855  38.311  39.695  14.053
19462W        W87856  22.415  34.662  14.917
19463W        W87857  17.699  37.258   1.899
19464W        W87858  12.337  30.416   3.321
19465W        W87859  32.394  23.565   2.730
19466W        W87860   3.161   9.973   4.923
19467W        W87861  31.459  44.402  12.007
19468W        W87862   2.578  11.356   4.519
19469W        W87863  18.413  12.770   2.974
19470W        W87864  29.400   4.405   4.115
19471W        W87865  33.882  19.674  10.728
19472W        W87866  35.370  36.435   2.259
19473W        W87867  30.663  12.697  12.021
19474W        W87868   4.978   6.180  10.673
19475W        W87869   7.977   8.179   2.740
19476W        W87870  23.810   9.648  14.754
19477W        W87871  13.259  19.443  10.655
19478W        W87872  14.196   7.810  13.459
19479W        W87873   6.342  22.826   3.088
19480W        W87874  43.692  33.908  13.035
19481W        W87875   2.238  21.089   1.045
19482W        W87876   3.189  18.497   3.220
19483W        W87877  36.479   1.413   2.776
19484W        W87878  43.315  41.802   1.241
19485W        W87879  20.180   9.069   2.235
19486W        W87880  42.905   0.124  13.807
19487W        W87881   2.968   6.801   4.211
19488W        W87882  41.281  38.064  10.991
19489W        W87883  19.646   1.805   4.600
19490W        W87884   6.254  21.655   4.074
19491W        W87885   4.479  19.431  13.152
19492W        W87886  34.880   3.730  10.796
19493W        W87887  27.984  34.929   3.448
19494W        W87888  33.630  41.375  12.113
19495W        W87889  10.409   0.361   4.814
19496W        W87890  40.763  21.168  12.413
19497W        W87891  12.920  12.200   4.842
19498W        W87892   3.503  25.420   3.716
19499W        W87893  10.804  26.702   4.743
19500W        W87894  15.704   4.754   3.096
19501W        W87895  15.137   8.409  12.279
19502W        W87896  37.398  15.993   3.678
19503W        W87897   0.697  20.084   1.393
19504W        W87898  32.695  32.830   1.084
19505W        W87899  22.603   2.296  11.896
19506W        W87900   6.635  24.332   4.441
19507W        W87901   8.447  38.095   0.388
19508W        W87902  20.077   6.201  14.896
19509W        W87903  14.875  16.578  13.538
19510W        W87904  38.864   1.930   2.696
19511W        W87905  35.876  23.436  11.171
19512W        W87906  19.603  13.117   3.146
19513W        W87907  31.116   3.298  11.709
19514W        W87908  17.426  35.794   1.878
19515W        W87909  39.046  23.568   3.134
19516W        W87910  16.749  21.500  11.612
19517W        W87911  15.980  42.697   3.372
19518W        W87912   3.681   9.399   3.341
19519W        W87913  15.537  42.949  13.873
19520W        W87914  34.874  13.460   4.449
19521W        W87915  21.303   0.899  11.469
19522W        W87916  36.056  30.782   0.364
19523W        W87917  22.367  12.295   4.980
19524W        W87918  16.143  12.504  13.596
19525W        W87919  43.953  40.127   4.331
19526W        W87920  28.976   8.051  11.810
19527W        W87921  25.396  37.327  11.079
19528W        W87922  35.101  37.412   3.564
19529W        W87923  20.377   5.402   3.432
19530W        W87924  14.204  23.890   0.042
19531W        W87925   4.741  20.341   2.886
19532W        W87926  35.350  43.024  13.992
19533W        W87927  26.716  34.525   3.208
19534W        W87928  13.391  38.677   0.452
19535W        W87929  30.170   8.896  14.139
19536W        W87930   4.647  29.430  11.046
19537W        W87931  18.771  21.784  14.379
19538W        W87932   0.676  11.595  12.509
19539W        W87933  44.531  36.450   4.253
19540W        W87934  42.911   6.002  12.639
19541W        W87935  34.750  39.390  13.037
19542W        W87936  17.143  28.119   0.787
19543W        W87937  23.117  22.756   0.246
19544W        W87938   7.358  37.466   3.075
19545W        W87939   9.061  25.989   2.602
19546W        W87940  26.767  18.888  11.154
19547W        W87941   4.671  38.773  13.414
19548W        W87942  12.355   0.446  13.417
19549W        W87943  16.720   0.817   3.249
19550W        W87944  10.725  41.535  11.933
19551W        W87945  37.791  24.475   2.836
19552W        W87946   1.151  25.371   1.758
19553W        W87947  44.206  18.869  11.942
19554W        W87948   6.762  20.163  13.495
19555W        W87949  44.312  37.009  14.342
19556W        W87950  11.561   2.181   3.699
19557W        W87951   8.469  13.787   2.355
19558W        W87952  34.425  43.706   0.330
19559W        W87953  18.247  27.230   3.786
19560W        W87954  42.446  34.497   2.509
19561W        W87955   1.397  17.322  11.922
19562W        W87956  32.398  19.813   3.716
19563W        W87957  28.540  41.051   2.610
19564W        W87958  15.148   3.287   4.164
19565W        W87959  12.338  35.455   4.057
19566W        W87960  30.085  15.359  13.013
19567W        W87961  24.752   0.241   1.775
19568W        W87962  26.528   8.524   0.873
19569W        W87963  32.649  14.401   1.630
19570W        W87964  19.131  35.599   3.805
19571W        W87965  25.772  40.812  12.520
19572W        W87966  17.541  18.464   3.659
19573W        W87967  10.703  22.118   0.786
19574W        W87968  35.862  17.581  10.792
19575W        W87969  25.148   4.727  13.787
19576W        W87970  42.367  16.115   0.195
19577W        W87971  10.368  20.124  10.542
19578W        W87972  39.772  32.481   3.543
19579W        W87973  43.148  28.513  12.391
19580W        W87974   6.111  27.849   1.478
19581W        W87975  25.615  33.599  14.853
19582W        W87976  34.365   6.378   4.581
19583W        W87977  18.927  37.024   0.305
19584W        W87978   0.278  34.346   0.841
19585W        W87979   3.822   2.293  11.505
19586W        W87980  40.747  18.655   0.258
19587W        W87981  44.345  18.585   2.412
19588W        W87982  22.220  31.955  10.659
19589W        W87983  32.029  10.829   3.971
19590W        W87984  30.813  17.673   0.579
19591W        W87985  40.842   0.798   1.817
19592W        W87986  13.140  12.669   4.104
19593W        W87987   4.828  11.225  11.233
19594W        W87988   9.436  42.081  13.393
19595W        W87989   3.960   6.437   0.874
19596W        W87990  25.791  10.461   2.935
19597W        W87991  18.679  43.839  13.840
19598W        W87992  32.580  11.636   0.696
19599W        W87993   9.704  26.927   3.800
19600W        W87994  20.321   0.843  14.846
19601W        W87995   9.464   3.177  11.898
19602W        W87996   6.644  35.594  14.351
19603W        W87997   8.712  26.153   3.340
19604W        W87998  25.510  18.646  14.457
19605W        W87999  20.921   0.364   0.887
19606W        W88000   4.499  33.803   4.290
19607W        W88001  32.198  10.565  11.949
19608W        W88002  44.383  32.147  11.622
19609W        W88003  38.977   2.422   1.778
19610W        W88004  13.177  42.615  11.238
19611W        W88005  34.866  14.476   4.255
19612W        W88006  19.974   8.832  13.502
19613W        W88007  10.842  11.302   3.262
19614W        W88008  44.292  18.049  11.596
19615W        W88009  28.999  40.592   1.320
19616W        W88010  20.633  43.178   3.646
19617W        W88011   5.519  11.176  11.786
19618W        W88012  27.551  18.752   2.135
19619W        W88013   0.219   2.798  13.459
19620W        W88014  27.218   2.034   3.559
19621W        W88015   5.530  10.151  14.262
19622W        W88016  36.362  35.528   3.662
19623W        W88017  41.593  21.885  14.442
19624W        W88018   0.525  27.973  14.849
19625W        W88019  35.920  17.087  12.474
19626W        W88020   5.981   5.568   4.062
19627W        W88021  15.820  15.407  14.055
19628W        W88022  37.908  43.448   4.598
19629W        W88023  17.459  38.418  13.822
19630W        W88024  24.205   1.927   2.288
19631W        W88025   5.360  13.256  12.027
19632W        W88026   8.648  41.527   1.842
19633W        W88027  14.315   5.223  12.450
19634W        W88028  22.891  33.358  12.615
19635W        W88029  33.047  12.213   3.964
19636W        W88030  26.253  27.912   4.177
19637W        W88031  26.575   7.393   4.289
19638W        W88032  42.645   1.595   1.490
19639W        W88033  23.779  21.585  14.075
19640W        W88034   2.466  13.329  11.100
19641W        W88035  35.022  38.637   2.348
19642W        W88036  15.522  19.827  11.970
19643W        W88037  24.211  38.295   2.416
19644W        W88038  25.582  39.365   4.191
19645W        W88039  26.387  23.813  13.464
19646W        W88040  34.852  27.536   3.905
19647W        W88041  43.829  17.784  14.565
19648W        W88042  18.720  42.528   4.459
19649W        W88043  37.851   2.830  13.315
19650W        W88044   3.806  12.382  13.329
19651W        W88045  22.311   5.485   1.404
19652W        W88046  25.188  38.787  13.869
19653W        W88047  28.706   5.621   4.212
19654W        W88048  25.378   1.030   1.884
19655W        W88049  28.693  30.993   0.949
19656W        W88050  15.877  35.842  10.951
19657W        W88051   4.646   9.307  11.945
19658W        W88052  28.251  15.064  13.547
19659W        W88053  12.468  37.605   0.306
19660W        W88054  23.371  13.308  11.407
19661W        W88055  15.061  17.559  12.955
19662W        W88056  33.016  24.509   2.346
19663W        W88057  39.756   2.747   0.866
19664W        W88058   6.676   9.893  11.609
19665W        W88059  27.644  31.787   3.245
19666W        W88060  41.789  17.625  14.831
19667W        W88061   6.161  25.105   3.294
19668W        W88062  38.559  44.994  11.165
19669W        W88063   4.761  28.189  12.553
19670W        W88064   7.918   8.696   4.214
19671W        W88065  44.509  30.540  13.957
19672W        W88066   7.295   2.824  12.142
19673W        W88067  36.317  32.495   4.654
19674W        W88068  38.965  26.845   2.659
19675W        W88069  11.793  14.267  10.216
19676W        W88070  38.372  43.037   4.505
19677W        W88071  23.213  25.498   2.715
19678W        W88072  30.597  15.669   4.539
19679W        W88073  31.882  31.526  12.390
19680W        W88074  25.300  13.425   2.359
19681W        W88075  32.911  10.857   1.310
19682W        W88076  14.107  37.865   0.417
19683W        W88077  38.389  39.770  12.095
19684W        W88078  19.222  29.407   0.222
19685W        W88079  22.729   1.862  11.643
19686W        W88080  18.107  38.516   0.877
19687W        W88081  29.533  24.966   4.063
19688W        W88082  17.309  14.195  12.565
19689W        W88083  19.429  19.241  11.258
19690W        W88084  17.151  33.653   4.653
19691W        W88085   4.656  12.711  12.364
19692W        W88086  38.950  37.311   3.719
19693W        W88087  29.703  33.140   0.691
19694W        W88088   0.085  19.019   4.235
19695W        W88089  14.428  13.298  14.902
19696W        W88090  42.463  13.333  11.610
19697W        W88091  25.371  41.255  10.323
19698W        W88092  26.911   4.382  14.932
19699W        W88093  38.072  30.881   3.062
19700W        W88094   8.657  22.051  11.646
19701W        W88095  17.935  14.764  11.313
19702W        W88096  22.949  21.646   2.289
19703W        W88097   4.532  14.194  12.515
19704W        W88098  22.083  26.517  13.010
19705W        W88099   3.971  39.817   4.349
19706W        W88100  36.581  21.094  12.145
19707W        W88101  17.502   5.762   9.706
19708W        W88102  36.893  21.518   0.760
19709W        W88103   8.275  41.749  10.743
19710W        W88104  17.622  20.700  12.846
19711W        W88105  17.694  16.003   9.704
19712W        W88106  15.599  14.146  11.079
19713W        W88107   6.363  28.037  14.062
19714W        W88108  21.134  39.911   2.610
19715W        W88109  29.066  21.990   0.078
19716W        W88110   6.448   5.740   3.351
19717W        W88111  10.232   9.776  14.651
19718W        W88112  32.395  33.393   1.268
19719W        W88113  36.530  11.324   3.189
19720W        W88114  28.742  31.611   4.302
19721W        W88115  14.950  42.109  12.071
19722W        W88116  41.844  16.646   2.853
19723W        W88117  22.022  34.302  14.845
19724W        W88118   2.354   4.884   2.900
19725W        W88119  32.933   4.275   2.220
19726W        W88120  33.112   4.104   0.276
19727W        W88121  15.555   0.544   2.713
19728W        W88122  22.103  27.452   2.609
19729W        W88123  27.333  32.625   2.825
19730W        W88124   7.801  39.955   3.604
19731W        W88125   0.315   6.372  10.469
19732W        W88126   1.341  24.648  11.142
19733W        W88127  43.071  23.952  14.816
19734W        W88128  33.187  26.130   2.943
19735W        W88129   8.701  29.121  11.118
19736W        W88130  21.927  24.080   1.292
19737W        W88131  44.815  10.277   4.879
19738W        W88132  32.065  30.001   1.992
19739W        W88133  11.789   7.166  12.012
19740W        W88134   9.243  36.201  13.495
19741W        W88135  35.497  35.772   0.373
19742W        W88136  15.904   4.187   2.608
19743W        W88137  10.538   6.775  12.996
19744W        W88138  11.190  37.772   2.328
19745W        W88139   1.303   1.759   3.901
19746W        W88140  37.731  19.989   0.012
19747W        W88141  17.874  16.076  11.715
19748W        W88142  41.091  41.538  13.547
19749W        W88143  42.832   8.775   0.680
19750W        W88144  33.202  10.418   1.372
19751W        W88145  43.868   8.575  14.034
19752W        W88146  18.541   4.420  13.463
19753W        W88147   1.212   7.790  13.873
19754W        W88148  44.839  16.737   1.287
19755W        W88149  12.472  11.140   1.315
19756W        W88150  20.652  39.795  12.352
19757W        W88151   3.862  44.058   1.223
19758W        W88152  33.569  34.327  11.474
19759W        W88153   5.333  20.758   1.321
19760W        W88154  24.527   4.331  13.414
19761W        W88155  42.200   1.931   4.899
19762W        W88156   5.596  22.532   2.607
19763W        W88157  20.938  12.029   3.356
19764W        W88158   1.458  36.092  12.622
19765W        W88159  12.919  12.194   4.318
19766W        W88160  43.755  18.778   3.713
19767W        W88161  43.430  15.084   2.352
19768W        W88162  39.796  22.188  12.508
19769W        W88163  40.284  23.780  10.581
19770W        W88164  30.379  28.368  12.640
19771W        W88165  23.178  40.604   4.686
19772W        W88166  42.294  33.410  14.050
19773W        W88167   4.347   1.690  10.242
19774W        W88168  39.396  27.599  12.089
19775W        W88169  15.635  21.990  10.708
19776W        W88170  29.208   3.294  13.365
19777W        W88171  36.960  22.839   1.309
19778W        W88172   8.407  35.078   0.706
19779W        W88173  17.306   5.936  11.699
19780W        W88174  12.391  13.558   2.835
19781W        W88175  35.176   9.127   1.970
19782W        W88176  21.894  14.100   4.119
19783W        W88177  16.176  40.371  14.566
19784W        W88178  39.774  23.801   4.797
19785W        W88179  16.660  17.107  11.217
19786W        W88180  23.147   5.160  14.323
19787W        W88181  33.960  25.163  13.377
19788W        W88182  12.313  44.872   2.941
19789W        W88183  40.433  11.864  12.637
19790W        W88184   3.954  40.492  12.319
19791W        W88185  12.338   5.831   4.698
19792W        W88186  15.330   1.857  14.796
19793W        W88187  35.086  39.949   2.248
19794W        W88188   3.027  22.922   2.408
19795W        W88189   5.200  41.008  13.111
19796W        W88190   7.186   5.392  14.576
19797W        W88191   7.788  29.876   3.166
19798W        W88192  41.928   5.946  14.953
19799W        W88193  31.501  33.637   0.694
19800W        W88194   3.788   7.127  12.697
19801W        W88195  16.111   5.500   2.227
19802W        W88196   6.344  14.781   3.713
19803W        W88197  21.861   4.248   0.476
19804W        W88198  39.946  24.187   4.083
19805W        W88199  12.718  42.162   2.705
19806W        W88200   8.458   9.681   0.955
19807W        W88201  30.985  20.035   3.157
19808W        W88202  40.511  40.673  12.821
19809W        W88203  36.357  30.818  12.046
19810W        W88204  31.914  40.856  14.005
19811W        W88205  27.787  36.763   2.889
19812W        W88206   0.272  34.563  14.954
19813W        W88207   8.573  43.284   2.587
19814W        W88208  29.002   7.158   1.445
19815W        W88209   7.404   7.169   0.015
19816W        W88210  39.539  34.516  13.064
19817W        W88211  39.370  27.141   4.852
19818W        W88212  13.291  34.025   4.163
19819W        W88213   5.754  28.423  10.989
19820W        W88214  41.320  13.609   2.641
19821W        W88215  31.756   1.608   3.328
19822W        W88216  21.616  30.259   2.900
19823W        W88217   3.104  27.747  13.020
19824W        W88218  23.529  25.959  11.657
19825W        W88219  41.859   1.652  14.442
19826W        W88220  36.056   6.148  12.826
19827W        W88221  25.886  37.597   4.783
19828W        W88222  27.609  19.830  14.357
19829W        W88223  25.058  31.209  13.927
19830W        W88224  41.964  19.337  12.453
19831W        W88225  19.505  18.846  12.637
19832W        W88226  26.470   2.389   2.072
19833W        W88227  29.885  30.581  14.907
19834W        W88228  31.473  34.093   0.951
19835W        W88229   4.088   8.468   1.289
19836W        W88230  16.157  36.530   4.641
19837W        W88231  25.136  10.664   0.738
19838W        W88232  20.223  37.886   0.072
19839W        W88233  16.807   6.546   0.098
19840W        W88234  13.071  11.619   4.443
19841W        W88235  27.226   9.976  10.233
19842W        W88236  18.660  23.410  13.455
19843W        W88237  42.588   3.998  10.941
19844W        W88238  29.763  15.872  12.397
19845W        W88239  29.075   3.653   0.772
19846W        W88240   7.282  27.847  13.026
19847W        W88241  28.454  34.828   2.766
19848W        W88242  41.755  39.101  13.040
19849W        W88243  27.465   7.421   1.588
19850W        W88244   9.142  17.517   3.434
19851W        W88245  19.568  17.514   3.618
19852W        W88246  33.651   1.800  11.651
19853W        W88247   7.102   3.507   3.238
19854W        W88248  32.542   3.456   3.747
19855W        W88249  22.791  33.497   0.825
19856W        W88250  37.071  44.341  13.027
19857W        W88251  34.014  30.945  12.871
19858W        W88252  32.483  39.811   0.806
19859W        W88253  24.977  12.310   4.721
19860W        W88254  16.425   8.825   1.266
19861W        W88255  38.861  24.008   4.753
19862W        W88256  11.983  27.434  12.946
19863W        W88257   0.719  31.986  14.250
19864W        W88258  44.366  20.304  14.524
19865W        W88259  32.111   0.106   1.592
19866W        W88260  31.491  39.979   4.577
19867W        W88261  23.993  31.036  14.745
19868W        W88262  43.040  12.092  10.880
19869W        W88263  26.257  26.585  10.808
19870W        W88264  35.817   0.162   2.235
19871W        W88265  40.912  41.620   1.446
19872W        W88266  17.719  27.172   3.673
19873W        W88267  39.349  44.299   3.901
19874W        W88268   2.837  27.290   0.133
19875W        W88269  14.643  34.144  11.001
19876W        W88270  15.807  25.561  11.530
19877W        W88271  43.152  29.715  12.653
19878W        W88272   2.250   6.335   3.038
19879W        W88273  26.187   4.895  11.536
19880W        W88274  14.775  41.085  10.658
19881W        W88275   4.313  31.577   3.627
19882W        W88276   8.725   1.290   3.008
19883W        W88277  20.801   5.090   1.296
19884W        W88278  35.897  26.893  11.592
19885W        W88279  26.000   9.230   3.325
19886W        W88280  42.797  28.679   3.748
19887W        W88281  42.078   3.959  10.872
19888W        W88282   9.296  43.456   1.382
19889W        W88283  41.307  35.987  11.600
19890W        W88284  11.131  19.269  12.054
19891W        W88285  44.069  10.229   1.210
19892W        W88286   9.108   7.979   2.187
19893W        W88287   0.026  28.727  14.518
19894W        W88288  36.373  43.994   1.880
19895W        W88289  39.031  26.103   4.238
19896W        W88290  17.884   8.398   5.036
19897W        W88291  28.962  44.003  10.528
19898W        W88292   2.976  18.799  14.930
19899W        W88293  14.010   3.130   1.903
19900W        W88294  21.631  11.208   0.206
19901W        W88295  14.672  38.570  13.568
19902W        W88296  28.245  28.498  14.086
19903W        W88297   7.568  39.203  10.351
19904W        W88298  35.709   3.795   4.436
19905W        W88299   4.116  24.591   2.847
19906W        W88300  19.614   4.547   4.548
19907W        W88301  12.230  11.297  13.432
19908W        W88302  14.590  40.220  12.446
19909W        W88303   0.127  36.841  13.838
19910W        W88304   8.342  15.526   3.720
19911W        W88305  43.250  31.759   5.214
19912W        W88306  10.297  21.263   4.152
19913W        W88307  17.536  16.588  12.926
19914W        W88308   5.445   8.929   3.149
19915W        W88309  26.993  35.803   1.412
19916W        W88310   9.366  24.015   1.831
19917W        W88311  19.220  33.071   3.065
19918W        W88312  22.230  40.942   1.763
19919W        W88313  39.643  16.951  11.681
19920W        W88314  44.684  19.032   3.866
19921W        W88315  14.123  40.301   1.313
19922W        W88316  16.339  25.691   2.441
19923W        W88317  36.059  16.775  13.313
19924W        W88318  26.410   0.313  11.618
19925W        W88319  24.626  17.874   2.849
19926W        W88320  38.881  44.668   2.670
19927W        W88321  37.200   0.685  12.112
19928W        W88322  30.895   3.866  10.380
19929W        W88323  29.555   6.205   0.387
19930W        W88324  39.914  40.561  13.957
19931W        W88325  38.214   6.688  10.768
19932W        W88326   0.637  43.901   0.834
19933W        W88327  34.369  32.094  10.226
19934W        W88328  37.876  39.798  12.024
19935W        W88329  39.560   9.291   0.744
19936W        W88330  21.557  35.928   3.177
19937W        W88331   9.302   6.662   1.802
19938W        W88332   2.648  10.836  11.398
19939W        W88333  18.043  30.833  10.575
19940W        W88334   2.739   5.883  14.655
19941W        W88335  11.951  16.306   4.064
19942W        W88336   2.331  17.255   0.421
19943W        W88337  21.683  35.033   3.199
19944W        W88338   9.710  20.476  14.713
19945W        W88339  38.772  27.125  12.617
19946W        W88340  17.966   6.469   1.630
19947W        W88341   4.960  43.579  13.225
19948W        W88342   0.989  19.061  14.288
19949W        W88343  10.004  38.443  14.979
19950W        W88344  23.014  23.051  14.821
19951W        W88345  12.364  17.412  12.382
19952W        W88346  35.909  39.824   0.280
19953W        W88347  18.851  27.807  13.080
19954W        W88348   6.298  11.449  13.068
19955W        W88349  21.777  22.446   2.290
19956W        W88350  35.261  33.129  13.131
19957W        W88351  40.532   1.298   3.355
19958W        W88352  32.451   0.590  11.575
19959W        W88353  30.394  42.877  12.432
19960W        W88354  26.218  15.793   0.408
19961W        W88355   4.410  11.323  11.563
19962W        W88356   0.898  13.668   4.074
19963W        W88357  33.450   8.642  12.181
19964W        W88358  35.391  26.573   5.225
19965W        W88359   7.755  30.447  12.318
19966W        W88360   8.403  40.057   0.803
19967W        W88361  18.202   5.886  10.625
19968W        W88362  40.261  24.089  14.769
19969W        W88363  39.462  23.984  12.980
19970W        W88364   8.865  15.777   1.176
19971W        W88365  40.524  20.161   1.770
19972W        W88366  19.983  10.156  14.531
19973W        W88367  21.168  15.238   2.584
19974W        W88368  11.401   3.624   0.131
19975W        W88369  17.837  24.450   2.291
19976W        W88370   6.612  44.921  13.860
19977W        W88371  37.371  38.113   0.980
19978W        W88372  26.578  18.140   0.506
19979W        W88373  20.265   2.298  13.741
19980W        W88374  44.428  39.067   4.129
19981W        W88375  10.773  30.698   3.764
19982W        W88376  16.166  23.644  12.008
19983W        W88377  24.028  25.731   2.393
19984W        W88378  14.600  29.250  13.542
19985W        W88379  37.864  13.004   2.559
19986W        W88380  15.275   2.675  11.848
19987W        W88381  15.134  37.437   2.768
19988W        W88382  29.389  39.403   2.348
19989W        W88383  37.952  38.845   2.811
19990W        W88384  15.840  20.300   1.440
19991W        W88385   3.240   0.753  14.367
19992W        W88386  44.761  35.917   4.464
19993W        W88387  27.722  16.080  11.660
19994W        W88388  13.872  22.289   3.920
19995W        W88389  40.506  14.719   1.913
19996W        W88390  22.270  30.615  14.525
19997W        W88391  40.151  12.106  11.532
19998W        W88392   9.337  10.299  14.528
19999W        W88393   2.825  35.790   3.223
20000W        W88394  43.047  20.660   2.238
20001W        W88395  30.511  14.044   4.497
20002W        W88396  16.151  30.899  12.449
20003W        W88397   7.176  43.063  13.160
20004W        W88398   7.431  11.260  11.613
20005W        W88399  22.056  35.396   2.386
20006W        W88400  44.705  38.344   1.341
20007W        W88401  15.681  33.301  10.237
20008W        W88402  27.956   3.860  14.461
20009W        W88403   2.966   1.319   1.661
20010W        W88404  22.892   4.765   3.636
20011W        W88405  33.165  26.767  10.588
20012W        W88406  24.664  36.627   3.695
20013W        W88407  35.153  35.407   1.658
20014W        W88408  30.003  27.658   2.354
20015W        W88409  41.728  42.744  14.774
20016W        W88410  26.901  43.317   2.719
20017W        W88411   3.980  21.280   4.231
20018W        W88412   6.702  22.227  10.690
20019W        W88413  25.130  40.419   0.006
20020W        W88414  26.243  35.563  14.672
20021W        W88415  22.233   4.359  11.687
20022W        W88416  31.713  19.309   4.692
20023W        W88417   6.452  39.832   3.390
20024W        W88418  29.910  31.446  14.007
20025W        W88419  39.307   2.360  14.696
20026W        W88420  14.839  36.808  11.830
20027W        W88421  12.139   3.342   5.056
20028W        W88422  39.567   4.984  12.091
20029W        W88423  20.717  18.530  13.040
20030W        W88424  38.477   7.475  11.946
20031W        W88425   0.236  17.643  14.851
20032W        W88426  43.736   3.623   0.420
20033W        W88427  17.149  31.442   2.039
20034W        W88428  43.543   0.272  11.503
20035W        W88429  34.594  18.375   3.151
20036W        W88430  19.618  19.268   1.262
20037W        W88431  37.026  38.834  12.491
20038W        W88432  18.870  34.526  14.389
20039W        W88433  23.971  11.128   2.299
20040W        W88434  33.500  14.237  12.751
20041W        W88435  16.174  35.128  13.864
20042W        W88436   7.023   2.205   2.662
20043W        W88437  42.365   7.755  14.895
20044W        W88438  26.141  14.460   4.088
20045W        W88439  19.769  26.642  13.532
20046W        W88440  27.198  37.050  11.546
20047W        W88441   7.872   3.555  13.140
20048W        W88442  17.029  33.840   4.194
20049W        W88443  13.144  18.035  13.530
20050W        W88444   3.295  19.600   4.900
20051W        W88445  30.989  21.097   0.825
20052W        W88446  13.588  20.256   0.715
20053W        W88447  21.730  22.242   0.212
20054W        W88448  35.043  22.224  14.969
20055W        W88449  23.767  27.089  12.406
20056W        W88450   0.936  36.853   3.227
20057W        W88451  34.595   8.082   1.862
20058W        W88452  20.760  33.864   4.138
20059W        W88453  19.311  25.882   4.117
20060W        W88454  31.967  26.295   1.753
20061W        W88455  13.133  23.332   3.493
20062W        W88456  38.310   9.475  12.095
20063W        W88457  13.870  43.422   3.651
20064W        W88458  26.642   8.429   3.405
20065W        W88459   6.622   4.275   4.260
20066W        W88460  41.787  37.420  13.545
20067W        W88461  31.161  40.985  14.093
20068W        W88462  42.880  24.614  14.353
20069W        W88463  14.121  29.399   4.528
20070W        W88464  40.730  35.741   2.648
20071W        W88465  38.789   3.328  11.178
20072W        W88466  20.485  39.718   2.699
20073W        W88467  31.390   7.356   0.953
20074W        W88468  25.578   3.502   4.285
20075W        W88469  35.835  38.868   3.764
20076W        W88470   4.418  25.972  14.598
20077W        W88471  44.316  10.593  12.837
20078W        W88472  35.371  32.153  13.329
20079W        W88473  10.199  30.963  14.261
20080W        W88474  32.512  31.725   5.027
20081W        W88475   5.203  42.908  12.074
20082W        W88476  20.530  40.360   0.613
20083W        W88477  13.416   0.456  10.753
20084W        W88478  21.667   8.668   3.493
20085W        W88479  39.853  34.658  13.888
20086W        W88480  38.731  24.574   2.773
20087W        W88481  15.722  41.387  12.665
20088W        W88482   4.476   5.694  10.507
20089W        W88483  13.377  25.663  11.415
20090W        W88484  37.477  43.985  11.497
20091W        W88485  32.901  20.669   3.209
20092W        W88486  40.798  44.819  14.789
20093W        W88487  30.554  21.565   2.267
20094W        W88488  39.049  12.228   5.035
20095W        W88489   5.712  20.171  11.575
20096W        W88490   1.732  22.545   0.038
20097W        W88491  43.990  40.733  12.377
20098W        W88492   7.148  23.623  11.678
20099W        W88493  22.465  11.763  12.087
20100W        W88494  10.203  17.633  14.724
20101W        W88495  11.318  43.343   3.883
20102W        W88496  16.760  30.931  13.234
20103W        W88497  21.208   2.931  10.822
20104W        W88498   8.419  24.722  13.961
20105W        W88499  40.046  42.723  11.965
20106W        W88500  15.740  24.936   0.116
20107W        W88501   4.308  30.414  11.836
20108W        W88502  26.519   5.152  14.823
20109W        W88503  43.402   5.769  12.657
20110W        W88504  19.281  30.439  11.978
20111W        W88505  20.611  19.595  10.333
20112W        W88506   7.799  37.608   3.311
20113W        W88507  28.014  39.755   2.867
20114W        W88508  21.243  11.239   4.693
20115W        W88509   3.711  29.588  13.016
20116W        W88510   0.303  32.549   2.914
20117W        W88511  25.985  12.979   0.782
20118W        W88512  43.351  41.003  14.855
20119W        W88513  43.940  18.240  10.917
20120W        W88514   0.699   7.583   3.065
20121W        W88515  19.675  34.612   0.308
20122W        W88516   8.392  11.285   1.997
20123W        W88517  11.052  27.580   4.863
20124W        W88518  16.466  20.264  13.836
20125W        W88519  34.354  12.338  14.853
20126W        W88520  19.614   1.953  10.970
20127W        W88521  37.742  17.538   4.076
20128W        W88522   2.444  18.264  12.620
20129W        W88523   6.273  28.755   4.191
20130W        W88524  29.501  33.505  13.156
20131W        W88525   9.824  33.458   4.941
20132W        W88526  36.079  20.222  13.080
20133W        W88527  37.503  14.329  11.908
20134W        W88528   9.360  41.832  13.853
20135W        W88529  42.985  11.278   0.941
20136W        W88530  19.570  11.320  11.995
20137W        W88531   7.279   7.449  13.694
20138W        W88532  44.954  26.283   0.264
20139W        W88533   3.413  25.637  14.790
20140W        W88534  41.330  38.960   3.207
20141W        W88535   1.872  19.798   0.286
20142W        W88536  12.657   4.118   4.583
20143W        W88537  16.075  26.009   4.217
20144W        W88538  21.524  15.773   3.797
20145W        W88539  42.462  28.135   4.370
20146W        W88540  13.308   2.368  14.833
20147W        W88541   7.795  40.913  11.980
20148W        W88542   8.574   9.420   4.158
20149W        W88543   1.178  32.952  12.965
20150W        W88544  11.305  37.185  14.102
20151W        W88545  44.528  18.452  14.575
20152W        W88546  11.821   2.479  12.911
20153W        W88547   0.579  39.283  11.275
20154W        W88548  35.046   7.507   4.229
20155W        W88549  30.299   4.254   4.574
20156W        W88550  38.109  42.481  14.480
20157W        W88551  31.653   1.013   2.132
20158W        W88552   3.877  33.350  12.577
20159W        W88553  23.533  38.877   4.583
20160W        W88554  13.123   8.387   0.473
20161W        W88555  44.703  22.666   0.045
20162W        W88556  21.133   2.496  14.812
20163W        W88557  33.894  21.342   3.235
20164W        W88558   4.403  22.184   4.156
20165W        W88559  22.501   3.437  11.019
20166W        W88560   7.801   3.436   1.912
20167W        W88561  24.658  38.864   1.812
20168W        W88562  35.121  13.876  14.976
20169W        W88563  36.617  14.119  12.908
20170W        W88564  41.420  20.245  13.925
20171W        W88565  42.512  18.152   1.763
20172W        W88566   1.641   5.210  14.428
20173W        W88567  34.527  19.035  13.378
20174W        W88568   7.426  37.559  10.772
20175W        W88569   8.073  11.482  11.067
20176W        W88570  11.808  21.297   0.175
20177W        W88571  40.034  19.698   3.877
20178W        W88572  31.500  22.745  12.890
20179W        W88573  28.039  26.668   2.215
20180W        W88574  35.318  20.589   4.754
20181W        W88575  13.251  35.204   0.593
20182W        W88576  10.046  19.629   1.226
20183W        W88577  31.452  44.985   3.554
20184W        W88578   6.862  13.395   0.843
20185W        W88579  41.566  22.595   2.677
20186W        W88580  27.717  37.014  14.248
20187W        W88581  13.302   1.443  13.111
20188W        W88582  21.606  33.772   1.235
20189W        W88583   2.329   5.275   0.363
20190W        W88584  28.400  10.015   4.055
20191W        W88585  38.084  30.450  13.313
20192W        W88586  25.995  37.319  12.978
20193W        W88587  42.357  13.242  13.403
20194W        W88588   3.785  41.729   1.406
20195W        W88589  21.599   5.446   4.857
20196W        W88590   5.444  11.320  13.423
20197W        W88591   4.524  37.029   0.286
20198W        W88592  20.200  43.401   0.177
20199W        W88593  41.575   6.678   4.342
20200W        W88594  13.781   0.427   2.112
20201W        W88595  10.777   8.654  14.319
20202W        W88596  25.616  16.108   0.535
20203W        W88597  11.327  39.783  11.888
20204W        W88598  41.088  36.057  11.113
20205W        W88599   7.536  13.260   1.347
20206W        W88600  10.618  25.450  12.840
20207W        W88601  44.089  20.707   3.719
20208W        W88602  19.991   1.121  14.525
20209W        W88603  23.283  15.860   2.688
20210W        W88604  43.557  13.147   1.924
20211W        W88605  17.763  16.636   2.672
20212W        W88606  34.912  43.122   3.165
20213W        W88607  31.079  10.644  12.022
20214W        W88608   4.296  35.714  14.243
20215W        W88609  27.561  43.815  13.927
20216W        W88610  32.061   0.970  12.352
20217W        W88611  25.571  32.847   2.770
20218W        W88612  43.424   5.192  13.416
20219W        W88613  41.451  42.927   5.079
20220W        W88614  43.193  34.029  12.942
20221W        W88615  33.976  31.539  13.051
20222W        W88616  22.266  19.487   4.502
20223W        W88617  28.011  15.815   2.956
20224W        W88618  24.285   8.295  14.263
20225W        W88619  39.665  35.027   2.153
20226W        W88620  11.632  29.289   2.872
20227W        W88621   9.827  23.037   1.306
20228W        W88622  22.744  28.428   1.465
20229W        W88623   7.197  37.967   2.890
20230W        W88624  40.285   2.256  13.532
20231W        W88625  30.579  16.752   2.238
20232W        W88626   7.241  13.981  12.454
20233W        W88627   8.175  11.188   2.451
20234W        W88628  41.012   4.010  10.656
20235W        W88629  20.292   4.274  10.581
20236W        W88630  43.757   2.111  13.321
20237W        W88631  40.471  41.154  10.709
20238W        W88632  12.353  32.478   2.823
20239W        W88633  39.918  32.257  11.855
20240W        W88634  27.339   6.599   0.390
20241W        W88635  23.851  14.030   4.957
20242W        W88636   0.817  12.100  12.640
20243W        W88637  14.877  29.407   2.892
20244W        W88638  13.651   2.882  11.105
20245W        W88639  21.834  11.765  11.604
20246W        W88640   8.322  27.959   2.862
20247W        W88641  38.181  44.170   0.888
20248W        W88642   0.678  16.379   4.467
20249W        W88643  29.726  15.055  13.277
20250W        W88644  33.731  32.532  11.323
20251W        W88645   2.815  27.904   1.171
20252W        W88646  39.568  40.264  14.830
20253W        W88647   9.746  39.798   0.308
20254W        W88648  14.722   8.274   2.676
20255W        W88649  18.705  14.916  13.999
20256W        W88650  35.016  36.389   3.589
20257W        W88651  19.642  11.860  11.844
20258W        W88652  29.348   4.784   0.741
20259W        W88653   4.289  15.142  11.424
20260W        W88654  24.266   3.684  13.294
20261W        W88655   4.438  27.304  14.832
20262W        W88656  10.173   4.496   2.837
20263W        W88657  32.603  15.579   0.463
20264W        W88658  41.369  39.451  13.026
20265W        W88659  37.411   8.586  12.710
20266W        W88660  30.416   8.038  13.572
20267W        W88661   3.405  39.408  12.471
20268W        W88662  28.192  38.625  14.379
20269W        W88663  44.002  32.352  13.990
20270W        W88664   9.510  15.321   1.760
20271W        W88665   9.275  38.014  10.729
20272W        W88666   6.279   2.842  11.009
20273W        W88667  23.198  14.032   1.802
20274W        W88668  29.497  21.509   1.280
20275W        W88669  31.381  18.704  10.722
20276W        W88670  39.436  42.794   0.183
20277W        W88671  28.668  33.453  14.959
20278W        W88672  43.048  16.643  13.439
20279W        W88673  42.076  37.854   0.875
20280W        W88674   7.686  20.201  13.548
20281W        W88675   2.798  13.456  13.485
20282W        W88676  36.296  37.312  14.674
20283W        W88677   7.247   6.524   9.778
20284W        W88678  41.468  10.733   3.671
20285W        W88679   5.754  21.522   1.509
20286W        W88680  30.369  19.225   4.221
20287W        W88681  32.425   4.390   2.274
20288W        W88682  38.419   4.869   0.795
20289W        W88683  35.802  41.472  13.491
20290W        W88684   2.708  38.540   3.689
20291W        W88685  17.000   7.817  11.622
20292W        W88686  37.519  42.022   3.224
20293W        W88687  18.048  29.545   4.385
20294W        W88688  36.490   8.468  14.908
20295W        W88689  14.827  29.321   5.085
20296W        W88690  31.868   9.007  14.365
20297W        W88691  22.200  41.429   0.929
20298W        W88692   8.838  26.307  12.542
20299W        W88693  42.415  25.253   3.770
20300W        W88694   5.050   3.517  11.456
20301W        W88695  33.326  23.447   4.888
20302W        W88696   0.391  32.511  14.524
20303W        W88697  18.775  22.467   2.678
20304W        W88698   6.496   4.211  13.573
20305W        W88699  12.350   3.294   0.551
20306W        W88700   6.496  34.747  13.955
20307W        W88701  30.438  19.607   3.841
20308W        W88702  16.816   7.973   5.125
20309W        W88703  20.968  33.284   4.801
20310W        W88704  44.487  22.593   2.865
20311W        W88705  28.000  27.544  11.160
20312W        W88706  11.583  35.060   2.323
20313W        W88707  23.809  33.133  12.918
20314W        W88708  20.587  37.954   1.771
20315W        W88709  14.605   1.868   0.904
20316W        W88710  34.865  12.098  11.275
20317W        W88711  38.979  44.811   3.238
20318W        W88712  11.081   9.950   3.081
20319W        W88713  25.242  19.519   1.013
20320W        W88714  40.368   1.257  11.613
20321W        W88715  35.020   1.673  13.664
20322W        W88716  26.006  30.781   0.054
20323W        W88717   7.327  28.901  14.129
20324W        W88718  36.429  11.762  11.578
20325W        W88719  12.846  28.323   2.795
20326W        W88720  12.302  27.003  14.489
20327W        W88721  31.917  10.300  11.006
20328W        W88722  16.866   8.641   2.611
20329W        W88723   5.716  36.996  11.591
20330W        W88724  14.846  20.689  12.594
20331W        W88725  40.406  10.202  13.097
20332W        W88726  22.472  11.185   0.386
20333W        W88727  23.501  35.809  11.556
20334W        W88728  19.164   6.621  13.318
20335W        W88729   3.663  12.901  12.456
20336W        W88730  43.423  24.475  12.611
20337W        W88731  32.041  41.842   3.165
20338W        W88732  17.476  21.092  14.034
20339W        W88733   0.899  21.403  14.204
20340W        W88734  26.688  43.803   2.771
20341W        W88735  43.823  44.992   4.300
20342W        W88736  33.671  27.945  10.936
20343W        W88737  33.804  24.087   2.638
20344W        W88738  16.800  43.350   4.601
20345W        W88739   5.831  31.923   1.392
20346W        W88740   3.975  11.905   1.493
20347W        W88741  21.725  21.736  13.537
20348W        W88742  18.934  25.034  14.463
20349W        W88743  42.916  10.621  11.914
20350W        W88744  44.773   0.309   2.180
20351W        W88745  30.138  43.947   3.948
20352W        W88746  34.814  30.623  11.278
20353W        W88747  38.103   9.795   0.851
20354W        W88748  20.936   3.405  13.373
20355W        W88749  37.803  29.606   3.629
20356W        W88750  38.523   2.272  13.059
20357W        W88751  19.167  13.331   3.337
20358W        W88752  19.662  34.168  14.891
20359W        W88753  24.964  42.279   4.144
20360W        W88754  13.204   9.766   3.646
20361W        W88755  29.836  17.689  14.298
20362W        W88756   8.866  11.008  11.644
20363W        W88757  15.642  44.390   3.142
20364W        W88758   4.952  40.822   4.485
20365W        W88759  15.315  31.903  12.569
20366W        W88760  43.754  39.492   3.104
20367W        W88761   0.414  30.204   1.159
20368W        W88762   0.377  41.274  12.149
20369W        W88763  29.197  19.508   1.364
20370W        W88764  44.157  23.721  13.827
20371W        W88765  28.919  18.700  13.992
20372W        W88766  16.671  14.007  12.984
20373W        W88767   6.189  36.705  14.008
20374W        W88768  41.566   6.935  11.457
20375W        W88769  39.674  11.493  14.381
20376W        W88770  20.589  22.427  13.866
20377W        W88771   9.952  27.401  12.985
20378W        W88772  19.215  30.280   0.041
20379W        W88773  16.906  38.843  12.957
20380W        W88774  11.154   8.762   0.444
20381W        W88775  42.099  29.168  11.697
20382W        W88776  29.428  30.509  13.879
20383W        W88777   4.448  37.604  11.635
20384W        W88778  29.200  38.949   2.195
20385W        W88779  29.559  44.558  11.052
20386W        W88780   4.561  27.541   1.649
20387W        W88781  26.109   4.593  14.052
20388W        W88782  33.524  40.785   4.831
20389W        W88783  13.292  26.120  14.892
20390W        W88784  33.098   4.382   1.725
20391W        W88785   0.736  18.685  12.099
20392W        W88786  41.000  43.417  14.859
20393W        W88787  39.004  15.917  11.719
20394W        W88788  13.701  19.189   1.840
20395W        W88789  16.937   0.220  11.950
20396W        W88790  35.937  21.841   3.862
20397W        W88791  31.489  10.404   0.405
20398W        W88792  19.726  23.755  14.357
20399W        W88793  30.453   9.198   0.607
20400W        W88794  33.955  28.002  12.026
20401W        W88795  35.673  41.285   4.685
20402W        W88796  42.310  10.376   4.677
20403W        W88797  22.799  39.071  12.499
20404W        W88798  33.927   9.231  14.816
20405W        W88799   3.651   6.393   3.332
20406W        W88800  39.311  33.667  12.000
20407W        W88801  19.218  33.828   1.729
20408W        W88802  19.306   1.455  14.025
20409W        W88803  41.252  29.296   3.193
20410W        W88804  29.609   9.767  13.582
20411W        W88805   9.571  40.441  12.582
20412W        W88806  31.914  35.703  14.445
20413W        W88807  21.681  38.638  11.923
20414W        W88808  20.659   1.747   3.657
20415W        W88809   8.551  23.339  12.101
20416W        W88810  21.420  24.058   1.246
20417W        W88811  39.782  38.353   3.530
20418W        W88812  34.182  34.405  11.038
20419W        W88813   4.858   2.448   0.680
20420W        W88814  30.013  22.920  12.513
20421W        W88815   0.459  27.040  12.131
20422W        W88816  38.399  25.575   2.785
20423W        W88817  26.421  18.631   0.480
20424W        W88818  41.240  29.594  11.034
20425W        W88819  32.081  36.434   4.037
20426W        W88820   4.816  41.417   2.700
20427W        W88821  26.964  19.268   3.344
20428W        W88822  12.188   9.875   2.815
20429W        W88823  32.854  25.050   3.492
20430W        W88824  14.568  14.530   1.860
20431W        W88825   6.864  39.034   1.475
20432W        W88826  15.874  24.698  10.836
20433W        W88827  10.408  43.538  10.902
20434W        W88828  33.165   5.941   4.051
20435W        W88829  13.756   4.033  12.823
20436W        W88830  44.698   4.828   0.396
20437W        W88831  22.167   2.669   0.279
20438W        W88832  13.058   6.662  13.008
20439W        W88833  38.591  33.128   0.426
20440W        W88834  17.175  31.006   1.247
20441W        W88835  18.173  10.149  12.869
20442W        W88836  39.349  14.583  10.975
20443W        W88837  35.962  36.925  11.731
20444W        W88838  27.067  42.167   1.864
20445W        W88839   8.917  26.923   2.723
20446W        W88840   5.175  39.762   3.680
20447W        W88841  33.999  31.171  12.404
20448W        W88842  33.945   8.909   1.824
20449W        W88843  36.262  34.010  12.897
20450W        W88844   5.781   2.160  12.335
20451W        W88845   9.452  31.579   1.943
20452W        W88846  32.702  26.797   1.322
20453W        W88847  12.767  14.093   0.356
20454W        W88848  36.459  34.349  13.894
20455W        W88849  30.434  12.594   1.769
20456W        W88850  28.965  40.834   2.394
20457W        W88851  33.717   3.367   0.158
20458W        W88852  43.369   6.922   1.691
20459W        W88853  42.801  28.889  12.315
20460W        W88854   8.587  23.039   4.229
20461W        W88855   6.833  31.583  10.767
20462W        W88856  23.704  39.326   3.036
20463W        W88857  24.795   9.231   0.669
20464W        W88858  39.450  41.495   2.310
20465W        W88859  25.458   7.597  11.976
20466W        W88860  30.623   6.218  10.664
20467W        W88861  36.105  44.393   2.800
20468W        W88862  17.179  30.946  12.899
20469W        W88863  33.967  13.741   4.789
20470W        W88864  41.463  41.351   3.678
20471W        W88865  23.055   9.315  12.333
20472W        W88866  14.601  26.052   3.832
20473W        W88867  33.110  43.812   3.305
20474W        W88868  38.954  26.600  13.435
20475W        W88869  34.010   2.972  14.900
20476W        W88870  41.497   3.774  13.225
20477W        W88871   6.527  13.666  10.312
20478W        W88872  31.029  15.078  11.425
20479W        W88873  36.792  13.708  12.619
20480W        W88874  35.540  28.223  11.028
20481W        W88875  27.392  22.563  13.576
20482W        W88876  18.933   7.414   4.899
20483W        W88877  31.551  29.216   4.248
20484W        W88878  29.600  37.577  11.082
20485W        W88879  10.417  27.176  11.520
20486W        W88880   4.372  30.946   2.812
20487W        W88881  28.966   7.436   1.862
20488W        W88882  20.366  29.605  10.873
20489W        W88883   1.503  33.618  13.788
20490W        W88884   6.341  43.974  14.767
20491W        W88885  13.697  15.021  14.448
20492W        W88886  12.859  16.180   2.135
20493W        W88887   6.245   1.461   3.300
20494W        W88888  32.054  26.130   3.383
20495W        W88889  35.147  35.264  11.044
20496W        W88890  42.995  12.792   2.661
20497W        W88891   8.714  41.055  11.894
20498W        W88892   8.486  11.720   3.784
20499W        W88893  42.758   5.233  13.018
20500W        W88894  35.163  18.149  10.787
20501W        W88895   7.426   5.822  14.355
20502W        W88896   6.395  14.160   0.688
20503W        W88897  22.070  38.327   4.595
20504W        W88898  29.196   3.253   4.829
20505W        W88899  30.348  30.673  12.595
20506W        W88900  35.836  17.695   2.213
20507W        W88901  14.712  12.279   1.376
20508W        W88902  23.924  30.148  12.392
20509W        W88903  14.021  31.152  13.923
20510W        W88904  20.681  14.548   2.247
20511W        W88905  41.978  37.628  13.094
20512W        W88906  41.604  23.344  11.538
20513W        W88907  40.795   2.219  13.462
20514W        W88908  13.293   8.873  14.404
20515W        W88909  34.840  20.785   4.878
20516W        W88910  17.787  41.997  11.508
20517W        W88911   1.655  40.145   3.230
20518W        W88912  33.259  35.015   2.804
20519W        W88913  30.606  38.327  13.461
20520W        W88914  12.311  35.761   0.180
20521W        W88915  43.891  17.495   1.798
20522W        W88916  15.803   7.739  13.016
20523W        W88917   9.022  33.483  13.024
20524W        W88918  39.997   8.066  13.997
20525W        W88919  44.733  13.601  14.032
20526W        W88920  23.127  27.460  14.742
20527W        W88921   8.890  10.929  14.981
20528W        W88922  35.537  23.479  14.763
20529W        W88923  15.137  14.505  13.346
20530W        W88924  44.126  39.724   2.807
20531W        W88925  12.208  16.252  10.394
20532W        W88926   4.697  44.861  11.075
20533W        W88927  28.842   7.760  12.371
20534W        W88928  28.528  16.169   3.825
20535W        W88929  15.183  40.164   5.026
20536W        W88930   2.480   1.374   2.425
20537W        W88931  33.204   3.708   3.156
20538W        W88932  32.083  16.317   2.893
20539W        W88933  29.096  24.987  14.536
20540W        W88934  37.796  24.385  13.495
20541W        W88935  40.064  22.552   0.468
20542W        W88936  37.037  33.718  12.536
20543W        W88937  26.917  21.132  11.100
20544W        W88938  44.841   2.368  10.642
20545W        W88939  20.676  23.376  10.316
20546W        W88940  17.302  16.625  11.069
20547W        W88941  32.110  34.096   3.220
20548W        W88942  12.801  11.126  13.809
20549W        W88943  27.731  20.809  14.042
20550W        W88944  44.723  35.893  14.927
20551W        W88945  22.928  16.303  12.335
20552W        W88946  20.803   7.010   0.778
20553W        W88947  10.684  37.912   4.649
20554W        W88948  39.838  32.474  14.311
20555W        W88949   0.452  37.115  14.666
20556W        W88950  22.712  15.308   2.796
20557W        W88951  32.672  13.182   1.353
20558W        W88952  14.330  33.916   2.374
20559W        W88953  24.614  32.603  13.803
20560W        W88954  14.678  10.560   4.312
20561W        W88955  30.586   3.240   4.602
20562W        W88956  43.163  10.617  14.352
20563W        W88957   3.794  21.331   4.980
20564W        W88958  15.684  26.189  10.874
20565W        W88959   0.027  27.785  10.973
20566W        W88960  11.829  12.199   2.359
20567W        W88961  41.673   2.473   2.628
20568W        W88962   7.462  25.022  12.034
20569W        W88963   4.934  12.440   5.397
20570W        W88964  26.447  42.363  11.256
20571W        W88965  36.590  39.783  11.047
20572W        W88966  41.312  40.976   1.266
20573W        W88967  30.109  17.358  10.435
20574W        W88968  25.507  30.231   4.626
20575W        W88969  24.987  28.990  11.908
20576W        W88970  39.777  18.286  12.149
20577W        W88971  28.543  41.252  11.450
20578W        W88972  33.660  28.185   0.851
20579W        W88973  16.858  17.595  11.161
20580W        W88974  41.924  10.101  14.039
20581W        W88975  24.315  20.699  14.935
20582W        W88976  42.355  27.634   2.168
20583W        W88977  18.759  43.490  10.348
20584W        W88978   9.375  30.103  11.448
20585W        W88979  12.693  19.679  13.502
20586W        W88980  20.487  16.813   0.870
20587W        W88981  41.009  11.066   3.557
20588W        W88982  14.918  18.939  10.313
20589W        W88983  18.534   1.961   4.086
20590W        W88984  14.101  38.878  11.540
20591W        W88985  42.334  13.786   2.620
20592W        W88986  23.002   8.505  13.888
20593W        W88987  44.253  18.584   3.815
20594W        W88988  12.929  44.213  13.820
20595W        W88989  44.321   0.971   2.730
20596W        W88990  17.790  13.536   2.223
20597W        W88991   7.615   3.616   0.365
20598W        W88992  19.968   1.784  14.565
20599W        W88993  22.101  14.742  14.449
20600W        W88994  11.002  42.227   4.085
20601W        W88995   0.794  25.519   4.473
20602W        W88996  44.314  22.143  11.502
20603W        W88997  33.104   3.122  12.032
20604W        W88998   1.477  21.025  10.744
20605W        W88999   4.454  27.491  14.340
20606W        W89000  23.016  37.063  12.568
20607W        W89001   7.324  21.406  13.262
20608W        W89002   4.787  38.417  10.733
20609W        W89003  28.195  12.213  11.163
20610W        W89004  22.028  11.267  10.292
20611W        W89005  22.487  10.110   4.086
20612W        W89006  29.740  29.131  12.483
20613W        W89007  21.638  19.950  12.344
20614W        W89008  13.205  22.092  12.178
20615W        W89009  21.808   9.388  11.491
20616W        W89010  41.233  38.983  11.338
20617W        W89011  26.879   2.359   0.821
20618W        W89012  29.580   4.328   0.689
20619W        W89013   5.730  21.579  11.194
20620W        W89014  34.812  36.398   1.690
20621W        W89015  34.140  35.993  13.092
20622W        W89016   4.778  20.680  12.611
20623W        W89017  23.580   8.703   2.681
20624W        W89018   1.222   2.858  12.440
20625W        W89019  14.825  36.470  14.545
20626W        W89020  30.109   5.314   1.822
20627W        W89021  25.531  40.062   3.492
20628W        W89022   9.598  38.570   4.624
20629W        W89023   5.137   5.796  14.925
20630W        W89024  18.425   9.509  10.779
20631W        W89025  13.948  14.701  11.389
20632W        W89026  23.056   1.787  14.472
20633W        W89027  27.857  18.276  13.466
20634W        W89028  13.534  37.719   4.941
20635W        W89029  35.240  22.240   3.125
20636W        W89030  26.514  16.095  13.007
20637W        W89031   8.580   7.382  12.524
20638W        W89032  29.562   3.788   4.985
20639W        W89033  32.131  15.241  14.400
20640W        W89034  35.935  24.489  13.388
20641W        W89035  33.347  20.728   1.253
20642W        W89036   3.900   0.387  14.882
20643W        W89037  36.418  21.704   4.084
20644W        W89038  37.325  34.062  11.691
20645W        W89039  30.701  20.600  10.555
20646W        W89040  34.995   7.640   3.720
20647W        W89041  13.621  22.597  14.448
20648W        W89042  22.337   7.226   3.211
20649W        W89043  17.272   8.741  12.328
20650W        W89044  35.328   4.467  11.183
20651W        W89045  21.673  25.967   2.221
20652W        W89046  10.910  39.538   1.869
20653W        W89047   3.663  40.726   1.351
20654W        W89048  18.644   5.616   3.534
20655W        W89049   0.909  14.040  12.606
20656W        W89050  37.471  42.534   3.159
20657W        W89051  17.839  28.587  10.695
20658W        W89052   8.618  38.988   4.128
20659W        W89053  32.497  26.515   4.050
20660W        W89054  19.083  32.359   0.718
20661W        W89055  36.819  28.522  11.611
20662W        W89056  23.905  16.642   3.570
20663W        W89057  44.696  12.839  13.686
20664W        W89058  31.107  21.036  13.445
20665W        W89059  20.530  14.459  13.917
20666W        W89060  12.619  32.097  14.343
20667W        W89061  15.583  17.649  10.752
20668W        W89062   8.943   3.578  11.140
20669W        W89063  16.703  11.111  12.519
20670W        W89064  11.640  33.455  10.742
20671W        W89065  22.093  42.263   0.425
20672W        W89066  41.358  11.780  11.239
20673W        W89067  36.072  35.859  12.826
20674W        W89068  11.792  31.726  13.075
20675W        W89069  10.830   7.276  12.091
20676W        W89070   9.776  12.155  13.849
20677W        W89071  17.779   3.359   1.207
20678W        W89072  37.198  18.263  12.715
20679W        W89073   0.084  36.291  11.116
20680W        W89074  17.946  13.827   2.814
20681W        W89075  37.262   9.316   0.337
20682W        W89076  10.702  20.788   0.541
20683W        W89077  18.061  31.419  10.364
20684W        W89078  20.760  35.402   1.188
20685W        W89079  43.000  17.830   2.689
20686W        W89080  22.481  23.654   2.792
20687W        W89081   7.291  31.430   1.658
20688W        W89082  43.831   1.303  12.270
20689W        W89083  44.708  13.172   3.615
20690W        W89084  37.294  19.323  13.195
20691W        W89085  33.828  14.283   2.918
20692W        W89086  24.523  22.724   1.326
20693W        W89087  33.699  11.493   0.265
20694W        W89088   2.501   8.324  13.985
20695W        W89089  11.092  10.812  14.410
20696W        W89090  30.131  32.849   0.847
20697W        W89091  44.353  33.705  11.434
20698W        W89092   5.463   1.490  14.400
20699W        W89093  43.225  33.069  11.066
20700W        W89094  31.820  30.248   3.768
20701W        W89095  43.550  34.494  10.209
20702W        W89096  38.988   1.223  14.237
20703W        W89097  33.745  36.116  10.822
20704W        W89098  31.284  11.609  10.652
20705W        W89099  44.826  26.395  12.680
20706W        W89100   6.665   3.782   4.101
20707W        W89101  36.507  40.791   2.723
20708W        W89102  39.296  10.914   2.732
20709W        W89103  33.509  16.188   2.927
20710W        W89104  31.207  37.717  12.318
20711W        W89105  39.051  24.493  13.969
20712W        W89106  35.482  24.620  11.517
20713W        W89107  18.565  18.711   2.273
20714W        W89108  20.391  37.910   0.551
20715W        W89109  27.705   6.648  11.059
20716W        W89110  11.315   6.766  12.510
20717W        W89111  33.525  11.760  11.495
20718W        W89112  17.577  14.144   0.837
20719W        W89113  32.398  11.810  13.416
20720W        W89114  29.882  42.824   2.734
20721W        W89115  27.196  17.127  13.882
20722W        W89116   7.637  14.203  14.610
20723W        W89117   7.739  38.837   2.830
20724W        W89118   5.322   5.169   3.599
20725W        W89119  33.114  22.147   0.775
20726W        W89120  29.356  39.530  11.310
20727W        W89121  29.521  20.142   1.797
20728W        W89122   5.238   0.295   3.729
20729W        W89123  30.189  16.209   2.226
20730W        W89124  34.332  19.528  14.301
20731W        W89125   2.955   7.817  10.754
20732W        W89126  42.505  14.935  12.914
20733W        W89127  44.023   5.271   2.834
20734W        W89128   4.779  11.628  12.906
20735W        W89129  27.361   8.339   1.769
20736W        W89130  44.740  18.290   0.920
20737W        W89131  27.333  25.025   4.540
20738W        W89132   5.330  17.051  13.809
20739W        W89133  23.593  15.697   1.774
20740W        W89134   1.535  36.155   3.230
20741W        W89135  26.164   1.842   5.017
20742W        W89136  36.060  32.587   0.708
20743W        W89137  40.609   1.708  12.574
20744W        W89138   5.251   5.202   0.792
20745W        W89139  28.632  43.409  10.226
20746W        W89140  14.756  30.096   0.713
20747W        W89141  22.295  21.857   2.840
20748W        W89142  11.408   4.807  13.877
20749W        W89143   4.477  43.440  13.297
20750W        W89144   0.718  18.281   2.582
20751W        W89145   4.531  10.755   2.671
20752W        W89146  23.786  16.736   4.079
20753W        W89147  20.261  20.814   2.837
20754W        W89148   2.124  15.687  14.908
20755W        W89149  18.686  16.278   1.971
20756W        W89150  44.494   4.923   1.643
20757W        W89151  32.534   9.854   1.273
20758W        W89152  31.819  12.372  12.973
20759W        W89153  42.372  37.799   4.111
20760W        W89154   7.871  31.678  11.774
20761W        W89155  13.702  25.770   0.890
20762W        W89156   5.767  28.890  10.705
20763W        W89157  36.560   2.394   2.196
20764W        W89158   1.226   0.882   4.008
20765W        W89159  21.153  40.286   0.902
20766W        W89160  25.972  21.510  14.533
20767W        W89161  30.125   2.798   0.680
20768W        W89162  34.003  34.417   4.759
20769W        W89163  36.981   6.585  14.282
20770W        W89164  14.349  22.501   3.861
20771W        W89165  37.891   5.322  11.171
20772W        W89166  22.001  26.640   4.535
20773W        W89167   0.238  26.011  14.890
20774W        W89168  31.122  32.234   4.743
20775W        W89169  37.572  38.954  12.472
20776W        W89170  34.109  26.247   1.749
20777W        W89171  36.786  39.402   2.804
20778W        W89172  19.958  25.945   0.115
20779W        W89173  18.583   6.286  11.138
20780W        W89174  33.127  35.017   4.090
20781W        W89175   5.438   6.056   3.656
20782W        W89176  39.075  27.600   3.199
20783W        W89177  11.320  37.400  13.609
20784W        W89178  29.155  43.221  14.552
20785W        W89179  12.655  27.593  11.758
20786W        W89180  15.062   2.635   0.434
20787W        W89181  12.846   3.487  11.361
20788W        W89182   2.810  27.907   3.371
20789W        W89183  41.964  11.418  14.855
20790W        W89184   9.304  23.227  13.872
20791W        W89185   8.368  13.553  11.573
20792W        W89186  10.283   3.573  13.346
20793W        W89187   9.706  16.054   4.733
20794W        W89188  30.159   6.120   4.200
20795W        W89189  44.524  43.300   2.726
20796W        W89190  40.055  10.500   0.509
20797W        W89191  11.783  37.570  11.595
20798W        W89192  15.640   2.712  13.260
20799W        W89193  17.103   4.132   1.932
20800W        W89194   1.792  43.416  10.727
20801W        W89195  27.792  42.356   2.869
20802W        W89196  32.126  44.080  12.675
20803W        W89197  12.590   7.334  13.334
20804W        W89198   5.531  39.617   2.627
20805W        W89199  43.795  21.315  14.203
20806W        W89200   0.430  15.061   3.278
20807W        W89201   4.778  36.383  11.214
20808W        W89202  14.880  27.573  10.616
20809W        W89203  11.809  38.003   1.353
20810W        W89204  19.758  17.550  13.802
20811W        W89205  14.003  12.639  14.478
20812W        W89206  14.955  39.456  10.342
20813W        W89207  34.497   3.245  14.911
20814W        W89208  18.438  25.752  11.163
20815W        W89209  16.572  14.591  11.162
20816W        W89210   8.954  23.978  13.764
20817W        W89211  13.212  39.787   1.245
20818W        W89212  29.045  18.253  13.712
20819W        W89213  34.111  26.106  13.741
20820W        W89214  32.822   7.577   0.008
20821W        W89215  18.979   6.648  11.076
20822W        W89216  39.574  19.996  11.318
20823W        W89217  33.050  12.758   1.312
20824W        W89218  18.564  39.314  14.052
20825W        W89219  29.538  38.556   0.657
20826W        W89220  35.759  36.013   3.117
20827W        W89221  39.943  27.660  14.355
20828W        W89222  12.235  36.837  14.283
20829W        W89223   5.999   5.939   3.661
20830W        W89224  34.119  11.946  10.751
20831W        W89225  27.620  37.275  12.519
20832W        W89226  43.379  31.263   0.991
20833W        W89227   9.589  36.500  14.444
20834W        W89228  11.507  23.935  11.227
20835W        W89229  20.090   5.673  12.421
20836W        W89230  19.986  37.646   4.063
20837W        W89231  20.566  21.296   2.844
20838W        W89232  39.346  39.102  12.027
20839W        W89233   7.347  23.074   3.341
20840W        W89234   0.077  26.130  13.961
20841W        W89235  30.220  36.920   3.676
20842W        W89236  31.117  40.855   2.956
20843W        W89237  12.870  38.264  14.575
20844W        W89238  12.326   1.441  13.450
20845W        W89239  18.107  33.437  13.972
20846W        W89240  10.875   6.676  11.638
20847W        W89241  12.243  18.723  11.667
20848W        W89242  12.594  14.064   4.226
20849W        W89243  33.821   9.316   4.333
20850W        W89244  42.700   7.309  12.625
20851W        W89245   5.431  24.351  14.038
20852W        W89246  21.025   1.846  12.031
20853W        W89247  34.038  15.099   4.118
20854W        W89248  15.204  26.384  14.392
20855W        W89249  10.777   7.825  14.717
20856W        W89250   9.368  14.521   1.485
20857W        W89251  36.593  37.471   0.651
20858W        W89252  14.293   7.783  11.103
20859W        W89253  13.294  11.440  11.982
20860W        W89254  23.240  12.263   3.698
20861W        W89255  40.939  18.056  12.307
20862W        W89256  11.120  15.209   0.227
20863W        W89257  38.664  15.219   3.785
20864W        W89258   1.413  10.982   2.002
20865W        W89259  42.786  41.777  10.724
20866W        W89260  35.578  19.658   4.308
20867W        W89261  30.041  31.125  13.608
20868W        W89262   3.797   3.489  12.508
20869W        W89263  18.764  20.178  10.102
20870W        W89264  23.930  19.204  10.530
20871W        W89265  33.406  36.337  11.145
20872W        W89266   5.675  26.637   4.089
20873W        W89267   0.705  15.020   0.439
20874W        W89268  44.265  40.945  11.991
20875W        W89269  27.262  42.806   0.601
20876W        W89270   4.743  44.452   4.116
20877W        W89271  41.025   2.631   1.262
20878W        W89272  32.787  15.561   4.457
20879W        W89273  15.065   4.525  13.599
20880W        W89274   2.126  28.899   3.913
20881W        W89275  11.355  22.936  11.238
20882W        W89276  26.231  41.110   0.588
20883W        W89277   4.449  20.566  14.473
20884W        W89278  15.654  34.070   4.524
20885W        W89279  35.182  15.126  14.579
20886W        W89280  32.644  44.978   0.486
20887W        W89281  19.640   2.718  12.585
20888W        W89282  32.515  15.800  10.554
20889W        W89283  18.722  43.935  11.673
20890W        W89284  44.197  41.042  11.024
20891W        W89285  34.592  14.587  13.526
20892W        W89286  25.786  44.114   0.143
20893W        W89287  14.776  11.463  12.808
20894W        W89288  28.191  14.241   0.763
20895W        W89289  29.572  31.377  13.577
20896W        W89290  13.248  28.581  14.563
20897W        W89291  22.759  12.739  13.326
20898W        W89292   2.132  11.166   0.781
20899W        W89293   6.753  40.817   0.970
20900W        W89294  19.307   5.153  11.111
20901W        W89295  22.520  10.288  12.181
20902W        W89296  12.192  31.324  13.805
20903W        W89297  15.126  39.955   0.568
20904W        W89298  19.357   2.960   2.817
20905W        W89299   0.929  25.701   3.304
20906W        W89300  14.175   1.369   4.574
20907W        W89301  27.456  14.318   1.386
20908W        W89302  29.925  38.508  14.580
20909W        W89303   0.812  26.017   4.815
20910W        W89304   7.262  32.967   0.070
20911W        W89305  12.481   9.246   2.736
20912W        W89306  28.841  21.195   3.132
20913W        W89307  37.977  40.045  14.271
20914W        W89308  44.786  31.524   2.311
20915W        W89309   8.372   1.762   0.238
20916W        W89310  31.120  37.711   3.940
20917W        W89311  29.294  36.849   3.244
20918W        W89312  44.198  32.168  12.527
20919W        W89313  27.138  20.044   0.532
20920W        W89314  28.025  27.431  14.866
20921W        W89315   2.344  18.054   0.907
20922W        W89316  37.583   7.502   4.293
20923W        W89317  26.459  29.678   0.350
20924W        W89318  14.168  29.022  13.360
20925W        W89319  40.990   9.820   0.792
20926W        W89320  18.875  38.003   0.387
20927W        W89321  18.545  43.581   1.338
20928W        W89322  34.923   0.857  14.022
20929W        W89323  11.111   5.308   4.649
20930W        W89324  11.377   0.827   3.675
20931W        W89325  25.479  24.780   1.771
20932W        W89326  37.953   9.827  12.007
20933W        W89327  30.693  30.353  11.533
20934W        W89328  26.944  26.934   3.680
20935W        W89329  18.206  38.552  12.473
20936W        W89330  28.505   0.888  13.336
20937W        W89331  40.831  13.626  11.922
20938W        W89332   5.426  39.789  14.602
20939W        W89333  42.269   9.338  14.683
20940W        W89334   8.349  14.674  14.675
20941W        W89335  31.147  21.658  14.360
20942W        W89336   7.224   0.473  11.699
20943W        W89337   9.374  18.582   2.587
20944W        W89338   6.511   2.289  13.468
20945W        W89339  35.581  23.613   4.217
20946W        W89340  43.577  11.402   1.773
20947W        W89341  38.021  30.807  11.088
20948W        W89342   6.226  25.279  13.322
20949W        W89343  13.362   0.309   0.242
20950W        W89344  42.907  23.056  13.896
20951W        W89345   5.477  18.388  11.179
20952W        W89346  26.185   1.018   2.260
20953W        W89347  14.353  43.298  12.489
20954W        W89348  24.416  36.358   1.820
20955W        W89349   5.861  28.876  11.207
20956W        W89350  26.626  32.438  12.936
20957W        W89351  29.403  10.607  14.755
20958W        W89352  41.485   5.213   0.270
20959W        W89353  32.088   0.537  14.764
20960W        W89354  24.952   6.776  13.474
20961W        W89355  24.513  34.020   2.896
20962W        W89356  44.539  22.106   0.481
20963W        W89357  40.775  14.677   2.890
20964W        W89358  15.892  31.048   4.260
20965W        W89359  10.701  21.740   3.762
20966W        W89360  41.302   2.876  11.101
20967W        W89361  34.381   9.060   1.566
20968W        W89362  20.711  34.198  14.404
20969W        W89363   3.372  26.256   2.227
20970W        W89364  23.059  17.722  11.036
20971W        W89365  18.236  10.928  14.522
20972W        W89366   8.619  18.348   2.300
20973W        W89367  21.972  38.854  14.878
20974W        W89368  36.477   9.593  13.952
20975W        W89369  30.925  25.566  12.608
20976W        W89370   1.863   5.455   1.012
20977W        W89371   9.558   9.614  13.524
20978W        W89372  36.892   8.202  11.126
20979W        W89373  31.139  14.205   3.212
20980W        W89374  11.589  37.995   0.110
20981W        W89375   6.241   7.881  11.551
20982W        W89376   6.908  12.082   4.228
20983W        W89377   1.529  30.750   2.396
20984W        W89378   7.392  19.382  11.068
20985W        W89379  44.401   1.360   0.185
20986W        W89380  18.914  17.166  13.785
20987W        W89381  16.810  26.458   2.522
20988W        W89382  18.190  41.954  11.169
20989W        W89383   4.420   6.181  10.648
20990W        W89384  32.973  23.006   0.391
20991W        W89385  42.348  15.241  14.056
20992W        W89386  18.764  15.218   4.480
20993W        W89387   2.443  25.222   0.828
20994W        W89388  33.468   5.632  13.922
20995W        W89389  43.151  37.090  14.740
20996W        W89390   6.199   2.002  12.833
20997W        W89391   8.023   7.530   5.098
20998W        W89392  22.711  24.673   0.498
20999W        W89393  12.448  16.274   4.068
21000W        W89394  21.115  23.210   2.147
21001W        W89395  18.419  44.028   4.126
21002W        W89396  13.905  44.513  11.660
21003W        W89397   3.735  15.962   1.931
21004W        W89398  28.016  13.653  12.094
21005W        W89399  23.630  21.733  13.574
21006W        W89400  42.026  17.622  13.494
21007W        W89401  24.958  41.424  13.877
21008W        W89402   6.175  25.587  12.846
21009W        W89403  40.458  35.490   1.042
21010W        W89404   0.630  34.459  11.940
21011W        W89405  25.523   7.862  12.456
21012W        W89406  12.765  38.468   4.733
21013W        W89407  42.496  41.261  10.587
21014W        W89408   9.684   4.983  12.941
21015W        W89409  26.569  24.281   4.511
21016W        W89410  35.620   6.353   3.287
21017W        W89411  36.412   3.636   1.750
21018W        W89412  18.581   6.494   4.094
21019W        W89413  21.564  32.036   9.774
21020W        W89414  33.606  32.128  13.880
21021W        W89415  28.769  37.961  12.963
21022W        W89416  30.564  10.779  11.939
21023W        W89417  17.044  30.505   2.823
21024W        W89418  15.416  29.540  12.323
21025W        W89419  10.231  41.249  13.042
21026W        W89420  27.459  40.000   0.987
21027W        W89421  39.498  10.031   3.660
21028W        W89422  22.180  17.858  13.391
21029W        W89423  31.852  11.283  14.052
21030W        W89424  24.615  12.880  10.259
21031W        W89425  27.408  32.335  13.369
21032W        W89426  21.176  26.055   1.246
21033W        W89427   3.451  16.214  13.367
21034W        W89428  22.079  44.795  11.926
21035W        W89429   8.196  26.669   2.730
21036W        W89430  39.857  35.650   4.869
21037W        W89431  24.128  13.400   3.819
21038W        W89432  44.882  41.695  14.494
21039W        W89433   5.085  42.295   3.803
21040W        W89434  42.783  37.405  12.961
21041W        W89435  12.642  44.245   2.432
21042W        W89436  32.600  28.623   1.765
21043W        W89437  27.753  13.416  11.605
21044W        W89438   2.782   5.424   2.517
21045W        W89439  22.086  12.025   0.237
21046W        W89440  44.236  26.736   3.286
21047W        W89441   2.427  20.822  11.905
21048W        W89442   3.637  43.671  12.966
21049W        W89443   7.390  32.559  10.908
21050W        W89444  24.680  23.752   3.430
21051W        W89445  13.672   3.875   2.182
21052W        W89446  26.142  36.137   0.297
21053W        W89447  11.140   2.197  11.217
21054W        W89448  20.324  27.187   0.876
21055W        W89449  36.608  38.091  14.281
21056W        W89450  13.831  28.075  10.298
21057W        W89451  33.622  20.555   0.339
21058W        W89452   2.418  26.130   3.251
21059W        W89453  14.129  26.487   3.025
21060W        W89454  23.313   5.443  10.845
21061W        W89455   8.339  37.467   1.830
21062W        W89456   2.339  44.844  14.491
21063W        W89457   7.298  22.647   0.431
21064W        W89458  17.037  40.002  13.444
21065W        W89459   2.005  42.315   4.626
21066W        W89460  31.911   7.889   1.446
21067W        W89461  35.397  26.156  11.682
21068W        W89462  27.401   3.991  13.570
21069W        W89463  32.448  18.053  14.199
21070W        W89464  37.202  17.259   2.119
21071W        W89465   0.152  35.878  13.847
21072W        W89466   3.915  21.288   2.349
21073W        W89467  35.549  22.058  12.007
21074W        W89468  18.692  33.914  13.369
21075W        W89469  20.700  19.772   1.874
21076W        W89470  23.796  17.669   0.721
21077W        W89471  33.933  16.782  12.909
21078W        W89472  20.275  17.721  12.821
21079W        W89473   0.746  27.039   0.309
21080W        W89474  41.610   2.868   0.388
21081W        W89475  24.596  21.295   4.076
21082W        W89476  41.693  33.142   1.916
21083W        W89477   6.205  32.463  11.145
21084W        W89478  13.847   1.228   1.975
21085W        W89479  35.870  17.267  14.050
21086W        W89480  35.629   3.380   3.411
21087W        W89481  16.533  16.158  11.158
21088W        W89482  28.247  13.070  10.615
21089W        W89483  11.776  21.452   1.961
21090W        W89484  35.032  35.612  13.367
21091W        W89485  23.079  27.952  14.557
21092W        W89486  26.915  20.045   1.444
21093W        W89487  20.795  21.255  14.516
21094W        W89488   8.698  44.483   2.663
21095W        W89489  22.963  21.530   1.436
21096W        W89490  19.101  44.731   1.267
21097W        W89491  43.973  43.669   1.937
21098W        W89492   1.394   3.193   1.630
21099W        W89493  32.263  14.465   1.302
21100W        W89494  42.961  13.087  12.490
21101W        W89495  26.805  15.827  11.421
21102W        W89496  23.690   8.745  10.218
21103W        W89497  23.764  10.817   1.540
21104W        W89498  32.074  25.315   0.706
21105W        W89499  14.747  19.154   1.818
21106W        W89500  21.551   9.831   0.511
21107W        W89501  19.209  34.943   4.466
21108W        W89502   9.938   8.679  13.461
21109W        W89503   0.025  19.694   4.542
21110W        W89504  31.866  34.017   0.143
21111W        W89505  44.011  31.921   2.275
21112W        W89506  12.899  28.058   2.357
21113W        W89507  41.016   8.216   0.113
21114W        W89508  27.779  34.563   2.218
21115W        W89509  17.598  43.377  13.080
21116W        W89510  37.849   6.271   3.117
21117W        W89511  28.816  14.380   1.710
21118W        W89512  13.786   5.794   3.609
21119W        W89513  39.072  22.641  12.893
21120W        W89514   5.764  14.496   0.938
21121W        W89515  20.835  43.076  10.410
21122W        W89516  19.586  25.739   5.106
21123W        W89517  27.689   5.006   2.718
21124W        W89518  33.642  42.902  13.471
21125W        W89519  23.690  25.255  11.154
21126W        W89520  22.456   8.233   0.299
21127W        W89521   4.983  39.545  13.527
21128W        W89522  30.550  22.535  11.269
21129W        W89523   0.808   4.184   0.153
21130W        W89524  29.169  32.403   0.553
21131W        W89525  11.209  33.419  11.685
21132W        W89526   8.712  41.958  10.441
21133W        W89527  25.142  21.296  12.459
21134W        W89528   0.825  28.398  14.987
21135W        W89529   6.340  15.403  12.944
21136W        W89530  30.481  22.972   4.305
21137W        W89531  32.651   5.416   2.248
21138W        W89532  22.533  30.251  13.607
21139W        W89533   7.686  44.287   2.686
21140W        W89534   5.773  28.477   3.313
21141W        W89535   1.758  25.914  13.170
21142W        W89536   7.613  23.135   0.769
21143W        W89537   4.573  12.608  11.865
21144W        W89538  23.006   8.299  10.780
21145W        W89539  15.093  11.892   1.277
21146W        W89540   3.480  39.657   1.789
21147W        W89541   4.336  29.804   4.158
21148W        W89542  23.800   0.974   4.988
21149W        W89543  27.736  21.590  11.359
21150W        W89544  30.958   1.847   2.537
21151W        W89545  40.722  40.836   3.774
21152W        W89546   6.883  26.862  12.918
21153W        W89547   7.246  38.236  11.172
21154W        W89548  41.948  16.061   4.495
21155W        W89549  37.864  17.214   2.882
21156W        W89550  15.860  12.641   4.659
21157W        W89551   7.280   1.372   3.488
21158W        W89552  13.795  24.709  13.908
21159W        W89553  17.845  29.352  11.477
21160W        W89554   3.282  23.750   4.101
21161W        W89555  24.562  28.138  13.579
21162W        W89556  26.397  22.703   1.898
21163W        W89557  40.469  43.931   3.340
21164W        W89558   7.611  24.401  11.241
21165W        W89559  25.117   4.204  14.085
21166W        W89560  16.364  30.684  12.991
21167W        W89561   8.188  20.154   4.134
21168W        W89562  30.330  16.246  11.191
21169W        W89563  34.889   9.702  12.998
21170W        W89564  24.585  36.542   0.880
21171W        W89565  31.043  33.397   0.874
21172W        W89566   1.517  32.505  11.170
21173W        W89567  11.257  32.112  13.284
21174W        W89568  22.991   9.511  13.436
21175W        W89569  29.680  19.366  14.340
21176W        W89570  25.474  43.101   3.155
21177W        W89571  12.746   7.829   4.291
21178W        W89572   6.966  38.020   4.723
21179W        W89573   6.568  42.413   1.150
21180W        W89574  24.800  13.319   2.458
21181W        W89575  11.694  23.248  10.833
21182W        W89576  27.663  30.083  10.692
21183W        W89577  41.354  32.605   1.321
21184W        W89578  29.595  42.839   1.708
21185W        W89579   8.676  43.272   2.093
21186W        W89580   5.134   3.362  12.539
21187W        W89581  10.921  41.786  11.546
21188W        W89582  18.691  17.328   0.858
21189W        W89583   9.952  38.009   2.820
21190W        W89584   5.424   9.147   4.528
21191W        W89585   6.304  20.811   4.490
21192W        W89586  24.989  22.270   2.394
21193W        W89587   9.185   9.203   0.060
21194W        W89588  18.797  14.622   4.146
21195W        W89589  21.855  21.673   0.898
21196W        W89590  17.774   1.347  11.413
21197W        W89591  38.717  20.743   5.234
21198W        W89592  22.761  13.160  11.444
21199W        W89593   4.610  39.108   0.835
21200W        W89594  18.091  22.282  14.120
21201W        W89595  20.925  13.619  11.555
21202W        W89596   7.329   7.467  10.921
21203W        W89597  16.889  12.397   1.910
21204W        W89598   7.650  15.351  12.392
21205W        W89599  27.271  13.171   3.709
21206W        W89600  10.635  14.609  13.867
21207W        W89601  13.074  15.717   1.946
21208W        W89602   2.724  19.279  14.976
21209W        W89603  44.332  24.986   0.319
21210W        W89604  38.787  33.813  11.720
21211W        W89605  32.656  36.445   0.028
21212W        W89606   9.369   7.171   1.712
21213W        W89607   8.593  13.355   1.129
21214W        W89608   9.096  35.430   4.148
21215W        W89609  28.471  27.060  11.706
21216W        W89610  35.970  27.052   3.436
21217W        W89611  10.158  17.286   3.278
21218W        W89612   0.015  24.752   3.663
21219W        W89613  30.603  21.239  10.749
21220W        W89614  44.370  29.378  13.330
21221W        W89615  27.164   6.944   3.666
21222W        W89616  36.144  28.489  14.003
21223W        W89617  29.443  35.885   9.922
21224W        W89618   2.172  23.388  11.196
21225W        W89619   2.245  15.011  12.844
21226W        W89620  43.342  31.304  11.218
21227W        W89621  30.720  26.538   3.616
21228W        W89622  30.176  44.473  14.740
21229W        W89623  18.270  18.111   5.133
21230W        W89624  33.442   5.730  11.548
21231W        W89625  15.426  32.444   0.974
21232W        W89626  23.240  39.097   2.631
21233W        W89627  23.742  44.304   1.672
21234W        W89628   8.402   7.158   0.341
21235W        W89629  25.099  16.545   0.035
21236W        W89630  38.911  24.889  14.283
21237W        W89631  43.536   1.250  14.506
21238W        W89632  27.798  19.170   1.177
21239W        W89633  33.177  36.024  11.571
21240W        W89634  37.776  28.002   2.420
21241W        W89635  33.852  20.215   1.864
21242W        W89636  11.201   9.215   0.095
21243W        W89637  26.584  44.304   4.415
21244W        W89638  29.645  40.069  10.321
21245W        W89639  30.182  36.448  10.652
21246W        W89640   3.883  25.502   0.021
21247W        W89641  22.635   6.225   3.352
21248W        W89642  41.643   9.574  11.406
21249W        W89643  11.540  37.988  11.405
21250W        W89644  35.855  35.836   2.193
21251W        W89645  13.789  41.181   0.425
21252W        W89646  11.459  30.571  13.373
21253W        W89647  31.144   0.740  12.460
21254W        W89648  10.846  30.441  13.881
21255W        W89649   9.221  22.408  11.243
21256W        W89650  17.616  38.484  11.312
21257W        W89651  40.940  20.114  12.014
21258W        W89652  22.731  13.298   2.384
21259W        W89653  13.182  20.113   3.875
21260W        W89654  18.248  44.893  12.109
21261W        W89655  30.249  40.999  11.990
21262W        W89656  25.667  28.419   0.934
21263W        W89657  18.223   4.884   1.814
21264W        W89658  17.560  15.260   3.877
21265W        W89659  31.959  12.757  12.517
21266W        W89660  35.132  23.080  13.576
21267W        W89661  15.914   0.313   3.036
21268W        W89662   9.951  11.194   4.551
21269W        W89663  16.490   0.788  11.267
21270W        W89664   2.233   0.949   2.221
21271W        W89665  18.984  23.232  12.072
21272W        W89666  22.748  24.237   2.407
21273W        W89667  44.357   6.092  13.683
21274W        W89668  20.094  10.647  11.590
21275W        W89669  31.124  26.579  14.855
21276W        W89670  12.260  24.358   1.772
21277W        W89671  15.996  18.263  11.564
21278W        W89672  37.072  40.762  13.931
21279W        W89673  29.205   4.468   4.587
21280W        W89674  17.538  39.818   3.240
21281W        W89675  36.455  33.244  11.842
21282W        W89676  16.075  17.854  13.735
21283W        W89677  34.959  21.613   3.403
21284W        W89678  22.740  12.099  13.938
21285W        W89679  34.264  33.679  14.905
21286W        W89680  44.327  18.811  13.153
21287W        W89681  29.158  38.283  11.587
21288W        W89682   1.379  35.669   0.942
21289W        W89683  20.229  35.348  11.580
21290W        W89684  17.376  20.759   9.797
21291W        W89685   4.406  17.164  13.338
21292W        W89686  39.328  31.690   2.421
21293W        W89687  36.372  13.353   1.499
21294W        W89688  23.263   9.127   0.879
21295W        W89689  40.290  28.204  12.528
21296W        W89690  20.597  13.576  13.764
21297W        W89691  16.577   5.849   4.000
21298W        W89692  43.515  12.855   0.442
21299W        W89693  43.787  30.147   0.129
21300W        W89694  41.489  31.283   3.397
21301W        W89695  44.154  19.195   2.088
21302W        W89696  17.247  40.352   1.812
21303W        W89697  27.183   5.615   4.013
21304W        W89698  20.038  25.187  12.996
21305W        W89699   6.760  33.161   0.145
21306W        W89700   3.175  42.205  14.264
21307W        W89701  15.551  34.491  10.735
21308W        W89702  33.522   2.024  14.067
21309W        W89703  21.319  41.795  11.612
21310W        W89704   9.295  19.992  13.398
21311W        W89705  16.000  41.719   0.910
21312W        W89706  41.162  35.083   1.818
21313W        W89707  24.022   6.529   0.860
21314W        W89708  12.680  15.375  13.525
21315W        W89709  29.956  11.279   4.342
21316W        W89710  10.132  25.236  13.084
21317W        W89711  30.366  32.360   1.522
21318W        W89712  27.919  10.407  13.528
21319W        W89713  26.608  10.691  12.621
21320W        W89714   1.830  41.031   3.680
21321W        W89715   4.895  34.240   2.848
21322W        W89716  34.087  20.313  12.926
21323W        W89717  29.471  18.017   2.818
21324W        W89718  21.195  43.326  11.145
21325W        W89719   4.421  44.438  13.649
21326W        W89720  37.495   5.915  12.060
21327W        W89721   4.773  16.698  12.187
21328W        W89722  20.539  25.463   2.379
21329W        W89723  40.875  14.317   3.749
21330W        W89724  30.816  13.269  12.161
21331W        W89725  11.833  16.610  10.697
21332W        W89726   4.940  22.708   1.752
21333W        W89727   0.144   7.316   1.298
21334W        W89728  41.575  15.712   4.555
21335W        W89729  43.407   7.357  11.752
21336W        W89730  24.966  35.344  12.943
21337W        W89731  26.462  20.141  14.840
21338W        W89732  12.863   2.665  10.669
21339W        W89733   2.505  13.904  13.576
21340W        W89734   9.501   1.264   0.540
21341W        W89735  39.485  21.724  12.578
21342W        W89736  39.906   8.681   4.378
21343W        W89737   4.264  22.253  14.764
21344W        W89738  43.254   0.045  12.993
21345W        W89739   7.855  18.817  14.775
21346W        W89740  23.584  19.848   4.263
21347W        W89741  18.568  13.088  14.302
21348W        W89742  35.352  17.262   2.370
21349W        W89743  30.107  12.335   2.748
21350W        W89744  33.449  16.360  14.505
21351W        W89745  26.599  34.345  12.524
21352W        W89746  37.807   8.664  14.748
21353W        W89747  21.205   7.908   3.350
21354W        W89748  23.365  44.926  10.704
21355W        W89749   3.676  16.535   0.263
21356W        W89750   4.853  17.749  10.610
21357W        W89751  18.929  42.288   3.204
21358W        W89752  32.590  14.201  12.015
21359W        W89753  40.289  15.344  11.497
21360W        W89754  15.707   9.297  12.062
21361W        W89755   2.844   9.128   3.937
21362W        W89756  17.030   7.212   2.671
21363W        W89757  43.922   1.674   0.836
21364W        W89758  10.451  11.318   4.428
21365W        W89759  28.519  25.740  12.413
21366W        W89760  42.779  43.788  11.702
21367W        W89761  36.617  44.857  11.671
21368W        W89762  22.954  30.460  12.848
21369W        W89763   8.750  43.754   1.816
21370W        W89764  26.737  19.086   0.327
21371W        W89765   7.107  39.752   3.773
21372W        W89766  32.089  34.373   4.525
21373W        W89767  21.164  34.572  12.200
21374W        W89768  16.591   5.351  14.142
21375W        W89769  32.103  43.652  13.967
21376W        W89770  19.682  13.844  11.107
21377W        W89771  35.435  42.349  13.105
21378W        W89772  22.772  42.266  11.953
21379W        W89773   7.868   2.850   4.348
21380W        W89774  41.581  37.523  11.585
21381W        W89775  35.981  38.347  14.603
21382W        W89776  40.466  39.983   1.326
21383W        W89777  32.991  36.486  11.395
21384W        W89778  17.515  34.134   3.151
21385W        W89779  12.899  19.215  13.460
21386W        W89780  13.207  27.457  14.186
21387W        W89781   6.643   0.973   2.466
21388W        W89782  25.469  42.352   2.367
21389W        W89783  17.207  25.449   4.190
21390W        W89784  24.888   7.807   3.075
21391W        W89785   1.504  32.319   2.315
21392W        W89786  36.586  22.117   4.935
21393W        W89787   1.448  37.327   2.358
21394W        W89788  21.482  35.989  10.493
21395W        W89789  37.565  14.429   0.744
21396W        W89790  29.020  13.815  10.905
21397W        W89791  23.263  41.724   1.015
21398W        W89792  42.118  13.682  13.518
21399W        W89793   9.855  37.273  12.013
21400W        W89794  23.996   1.041   4.145
21401W        W89795  10.562  31.829  12.041
21402W        W89796  33.529   5.159  14.868
21403W        W89797   5.059  15.346   3.282
21404W        W89798  32.160  33.383  11.514
21405W        W89799  18.536  26.156   2.273
21406W        W89800  34.768   3.354  13.878
21407W        W89801  13.155  14.822   2.816
21408W        W89802  30.731  41.774   3.511
21409W        W89803  12.709  40.450   2.471
21410W        W89804  43.723   0.448   4.585
21411W        W89805  43.932  41.003   2.791
21412W        W89806  38.443  44.219   1.371
21413W        W89807  23.696  17.075   2.781
21414W        W89808  23.594   4.304  10.947
21415W        W89809  30.027   9.691   2.961
21416W        W89810  13.386  18.050  12.103
21417W        W89811  37.832  39.024   3.653
21418W        W89812  10.828  14.827  14.286
21419W        W89813  19.382  43.286  13.472
21420W        W89814  40.424  33.247  10.743
21421W        W89815  20.772  27.712   2.784
21422W        W89816  18.231  24.771  14.083
21423W        W89817  40.432   9.755  10.653
21424W        W89818   1.552  28.065   3.057
21425W        W89819   9.157  29.625   1.999
21426W        W89820  33.986  37.451  11.945
21427W        W89821  27.015  23.781  11.151
21428W        W89822  18.953  26.413  14.208
21429W        W89823   5.343  42.874   2.303
21430W        W89824  23.118  36.302   0.409
21431W        W89825  26.039   1.696  10.227
21432W        W89826  18.822  22.802   2.151
21433W        W89827  19.202  25.499   1.612
21434W        W89828   0.073  38.603   5.307
21435W        W89829  17.220   5.301   5.112
21436W        W89830  35.562  42.381   2.351
21437W        W89831  23.579  26.720   2.290
21438W        W89832  42.333   3.310  13.451
21439W        W89833  14.433   1.601  11.236
21440W        W89834  39.117  31.052   4.651
21441W        W89835  35.283  11.564  12.089
21442W        W89836  35.741  34.039  12.183
21443W        W89837   9.147  12.302  11.040
21444W        W89838  28.109   8.920   2.272
21445W        W89839  32.623  37.361   3.231
21446W        W89840   2.097  31.051  10.777
21447W        W89841  40.455   8.205   0.010
21448W        W89842   5.831  35.598  12.940
21449W        W89843  18.143  37.594   2.703
21450W        W89844  30.994  17.491  13.445
21451W        W89845  39.485  35.490  10.945
21452W        W89846  30.672  35.427   0.761
21453W        W89847   2.852  24.919   1.302
21454W        W89848  30.052  12.386  11.584
21455W        W89849   4.017  27.768  14.361
21456W        W89850   0.639  21.254  10.478
21457W        W89851  42.368  22.513   0.250
21458W        W89852  38.764  21.861  13.345
21459W        W89853  42.373  36.386   0.871
21460W        W89854  25.148   4.714  12.801
21461W        W89855  20.059  42.712  12.534
21462W        W89856   1.228  11.598   4.181
21463W        W89857  41.995  16.818  14.878
21464W        W89858   8.071  11.717  10.602
21465W        W89859  30.429  13.434   4.542
21466W        W89860  18.030  18.913  11.957
21467W        W89861  25.184  26.175  12.927
21468W        W89862  25.264  15.587  12.513
21469W        W89863  38.237  40.273  12.028
21470W        W89864  34.443  26.452   2.622
21471W        W89865  13.821  10.883   1.791
21472W        W89866  33.347  43.043  12.136
21473W        W89867  11.736   1.270   1.786
21474W        W89868  20.407  18.776   0.384
21475W        W89869  42.084  30.139  11.760
21476W        W89870  13.051  23.399  14.285
21477W        W89871   3.319   8.828   3.400
21478W        W89872  24.706  34.054   2.339
21479W        W89873  15.210  42.922  10.714
21480W        W89874  19.631  12.307   0.768
21481W        W89875  33.161  16.629  13.330
21482W        W89876  30.830  21.140   1.352
21483W        W89877  20.569  36.356   3.754
21484W        W89878  43.055   3.869   1.783
21485W        W89879  15.603   0.991  11.439
21486W        W89880  22.088  15.709  14.707
21487W        W89881  27.131  35.248  14.029
21488W        W89882  23.267   9.934   1.363
21489W        W89883  11.043  37.879   3.663
21490W        W89884  12.771   3.106  13.289
21491W        W89885  22.357   4.713   3.603
21492W        W89886   5.231  20.754   2.192
21493W        W89887  28.975  10.897  14.018
21494W        W89888  44.575  22.729   3.737
21495W        W89889  44.681  13.628  14.799
21496W        W89890  19.234  19.373   4.895
21497W        W89891  16.745   8.888  13.150
21498W        W89892  35.333  41.982   1.699
21499W        W89893  13.991  17.070  11.197
21500W        W89894   0.428  14.967   2.777
21501W        W89895  27.332  35.247  12.815
21502W        W89896  20.371  28.347  13.968
21503W        W89897   1.713  23.226  12.074
21504W        W89898   0.753   9.837  11.879
21505W        W89899  43.360  20.860  10.360
21506W        W89900  20.309  37.868  11.042
21507W        W89901  38.989  35.433   4.353
21508W        W89902  15.124   5.417   0.778
21509W        W89903   9.804  13.260  14.237
21510W        W89904   7.986   7.927   3.329
21511W        W89905  12.152   8.931  13.030
21512W        W89906  17.112  18.584   0.852
21513W        W89907  25.103   5.642   1.923
21514W        W89908  44.782  41.000   2.656
21515W        W89909   4.535  25.590  13.363
21516W        W89910  43.949  29.395  13.620
21517W        W89911  38.587  19.087  13.467
21518W        W89912  13.640  42.809  14.424
21519W        W89913  24.146  17.872  13.497
21520W        W89914  35.878  32.103  13.038
21521W        W89915   3.768  12.346  14.722
21522W        W89916   7.347  17.621   4.453
21523W        W89917  21.737  38.336  14.822
21524W        W89918   1.359  31.732  14.356
21525W        W89919   3.338  42.082  14.748
21526W        W89920  25.454  11.559  11.952
21527W        W89921  14.552  20.054   1.170
21528W        W89922  29.754  37.469   1.338
21529W        W89923  19.909  28.724   0.649
21530W        W89924  12.516  32.907  10.827
21531W        W89925  16.759  19.076  14.521
21532W        W89926   7.324  40.617  13.579
21533W        W89927  35.963   3.097  14.810
21534W        W89928  37.532  26.754  10.022
21535W        W89929  11.400  14.082   2.386
21536W        W89930  27.517  20.951   3.171
21537W        W89931  29.593  22.484  14.554
21538W        W89932  31.352   1.894  12.955
21539W        W89933  37.558  39.931  10.152
21540W        W89934  29.037  19.228   0.948
21541W        W89935   4.235  33.529   0.256
21542W        W89936  42.419   4.359  13.345
21543W        W89937  11.385  32.010   1.882
21544W        W89938  20.631  36.568  12.986
21545W        W89939  11.674  35.351  12.905
21546W        W89940  27.440   0.980   3.662
21547W        W89941  27.527   8.813  12.062
21548W        W89942  22.068  24.396   3.177
21549W        W89943  22.298  40.285   2.215
21550W        W89944  15.278  33.477   4.601
21551W        W89945  18.717  27.207   4.064
21552W        W89946  17.404  28.249   1.323
21553W        W89947   3.763  21.720   4.057
21554W        W89948  25.039   2.923   0.209
21555W        W89949  36.318  32.664  12.437
21556W        W89950  42.842  33.883   0.227
21557W        W89951  23.784  33.321   1.779
21558W        W89952  40.774  40.406   1.338
21559W        W89953  34.965  20.800   0.079
21560W        W89954  33.109   1.694   3.933
21561W        W89955   8.171  22.091   2.174
21562W        W89956  39.000   8.453   0.425
21563W        W89957  41.593  42.868   0.818
21564W        W89958  42.042  31.174  11.612
21565W        W89959  38.569   9.939  11.233
21566W        W89960  14.856  18.659   1.629
21567W        W89961  43.599   2.632  11.566
21568W        W89962   9.201  17.117   4.122
21569W        W89963  36.046  23.808  12.758
21570W        W89964   5.199  20.217   3.056
21571W        W89965  41.408  33.504  10.652
21572W        W89966   1.167  29.772  12.646
21573W        W89967  29.571   9.136   0.686
21574W        W89968  30.066  41.058  11.508
21575W        W89969   5.723  32.164  13.075
21576W        W89970  43.529  21.987   1.330
21577W        W89971   6.240  16.241   1.318
21578W        W89972  35.516  22.655  11.222
21579W        W89973  15.742  12.412   3.312
21580W        W89974  26.212  40.965  12.285
21581W        W89975  13.353   1.924  10.585
21582W        W89976  17.750   5.926  13.112
21583W        W89977  21.967   0.375  10.732
21584W        W89978   1.014  20.156  11.155
21585W        W89979   5.284  22.993  14.734
21586W        W89980  33.610  13.916  10.882
21587W        W89981  15.608   3.873  12.542
21588W        W89982  30.101   3.612  10.579
21589W        W89983   5.465  29.056  11.487
21590W        W89984   7.954  13.751   2.316
21591W        W89985  28.014  11.748  11.034
21592W        W89986  38.033   5.168  12.922
21593W        W89987  41.403   5.661   0.812
21594W        W89988  16.150  30.194  10.549
21595W        W89989   2.341  24.139   2.457
21596W        W89990   6.968   2.610   3.624
21597W        W89991  44.349  37.658   3.244
21598W        W89992   6.025  16.071  11.678
21599W        W89993   3.509   6.346  14.384
21600W        W89994  30.446  42.227  14.114
21601W        W89995  36.896  39.391   0.325
21602W        W89996   2.610  30.236   4.233
21603W        W89997   7.237  26.149  12.388
21604W        W89998   5.786  42.531  13.903
21605W        W89999  26.736  17.158  12.137
21606W        W90000   7.786  16.078   0.885
21607W        W90001  35.203   2.552  12.026
21608W        W90002  16.449  37.692   3.721
21609W        W90003  33.565  10.251   1.681
21610W        W90004  44.938  15.010   2.569
21611W        W90005  23.782  30.158  13.997
21612W        W90006  38.954  28.731  11.070
21613W        W90007  34.398  23.254  10.740
21614W        W90008  38.854  30.218  14.345
21615W        W90009  33.812  10.074   2.426
21616W        W90010  32.160   5.215   3.364
21617W        W90011  43.885  23.715  11.498
21618W        W90012  22.322   0.885   4.931
21619W        W90013   8.006  12.603   2.749
21620W        W90014  11.753  17.702  10.574
21621W        W90015  37.693  41.238   1.476
21622W        W90016  27.515  12.952   2.812
21623W        W90017  12.224   7.854   3.111
21624W        W90018  43.988  13.687   0.279
21625W        W90019  15.660   6.223  12.080
21626W        W90020  29.446  42.022   3.250
21627W        W90021   4.325   8.996  11.502
21628W        W90022  32.835  44.179  14.440
21629W        W90023   8.273  11.661  14.719
21630W        W90024  31.019  37.983  10.532
21631W        W90025  21.546  18.859  14.106
21632W        W90026   5.245  27.102   0.310
21633W        W90027  14.556  34.527  10.662
21634W        W90028  22.062  12.732  14.835
21635W        W90029   9.181  37.057  12.427
21636W        W90030  34.932  16.489  12.964
21637W        W90031  19.106  17.271   3.583
21638W        W90032  14.500   2.846  12.397
21639W        W90033  31.492  27.706   3.332
21640W        W90034  22.999  33.429   1.369
21641W        W90035  25.531  19.436   4.199
21642W        W90036  42.870  44.884   4.831
21643W        W90037  24.943  12.292  11.167
21644W        W90038   2.216  17.384  12.946
21645W        W90039  37.535  40.857  10.688
21646W        W90040  26.868  17.984  12.919
21647W        W90041  31.033   6.276  13.297
21648W        W90042  25.964  37.740  11.550
21649W        W90043  19.229  13.331  14.857
21650W        W90044  33.208  35.369  13.125
21651W        W90045  33.346  17.505  12.221
21652W        W90046  27.437  28.870   3.839
21653W        W90047   5.683   1.163  12.334
21654W        W90048  12.737  18.156   4.094
21655W        W90049  11.823  36.151  10.683
21656W        W90050  23.676  21.713   1.568
21657W        W90051  31.098  40.002   0.049
21658W        W90052   6.904  23.921   1.652
21659W        W90053  24.547   8.362  10.153
21660W        W90054  41.421  25.942   4.918
21661W        W90055  38.089  12.107  13.922
21662W        W90056  22.740  43.281   3.509
21663W        W90057  36.502  32.320   0.908
21664W        W90058  21.813  32.127   4.425
21665W        W90059  23.823  43.509   2.377
21666W        W90060  36.350   2.165  14.957
21667W        W90061  36.547  22.147   3.841
21668W        W90062  40.226  32.417   4.264
21669W        W90063  20.091   3.601  10.997
21670W        W90064  40.651  38.478  12.046
21671W        W90065  31.339  30.393   3.690
21672W        W90066  15.694  35.952   9.822
21673W        W90067  27.965  19.553   4.164
21674W        W90068   7.205  43.056   1.041
21675W        W90069  20.377   8.298   1.147
21676W        W90070   6.616  12.450  11.510
21677W        W90071   2.057  10.346  10.747
21678W        W90072   2.846  29.847   1.775
21679W        W90073   6.179  42.709  11.718
21680W        W90074  31.283  13.411  11.135
21681W        W90075  25.208   4.738   0.947
21682W        W90076   3.998   1.775   1.825
21683W        W90077  23.134  10.202   2.717
21684W        W90078  27.769  14.120  14.309
21685W        W90079  27.709   3.512  12.018
21686W        W90080  26.926  14.748  10.847
21687W        W90081  23.237  25.077  11.385
21688W        W90082  27.137  15.866   3.341
21689W        W90083   5.492  24.574  14.965
21690W        W90084  15.793  24.284  11.205
21691W        W90085   9.390  21.140   2.611
21692W        W90086  12.865  21.372  14.062
21693W        W90087  32.457  15.584  13.971
21694W        W90088  24.918  43.754  14.867
21695W        W90089   4.345  28.178  10.992
21696W        W90090  40.837  24.636   5.057
21697W        W90091  14.387   6.197  14.592
21698W        W90092   6.160   5.498  10.218
21699W        W90093   9.134  40.351   3.823
21700W        W90094   7.431  26.495   3.240
21701W        W90095  19.226  27.735  11.713
21702W        W90096  13.678  30.942   4.166
21703W        W90097   5.135   4.003   3.203
21704W        W90098  27.167  10.684   4.628
21705W        W90099  29.601  11.390  14.385
21706W        W90100  22.908   4.732   1.425
21707W        W90101  24.220   2.312   4.046
21708W        W90102  14.169  19.754  11.116
21709W        W90103  17.125  38.488  11.162
21710W        W90104  36.529  39.557   1.970
21711W        W90105  35.261  14.128  13.390
21712W        W90106  24.151  22.506   3.703
21713W        W90107  38.538  15.193   4.458
21714W        W90108  39.270   1.325   3.274
21715W        W90109  12.683  18.155  13.834
21716W        W90110  25.054  20.651   3.310
21717W        W90111  42.520   4.224  13.877
21718W        W90112  32.875   9.418  13.470
21719W        W90113  19.722  16.279  14.368
21720W        W90114  19.937   9.682  14.337
21721W        W90115   9.300  19.098   3.807
21722W        W90116  17.174   5.504  12.440
21723W        W90117   1.945  32.080   4.642
21724W        W90118   2.368  37.239   5.049
21725W        W90119  16.323  43.245  14.311
21726W        W90120  35.897  33.028  13.141
21727W        W90121  32.271   9.378  12.549
21728W        W90122  31.004  30.875  13.445
21729W        W90123  21.997  18.185  10.556
21730W        W90124   6.469  20.262  13.978
21731W        W90125  23.718  15.571   4.975
21732W        W90126  13.771  20.027  13.393
21733W        W90127   9.470  33.307  12.833
21734W        W90128  15.327   7.948  13.028
21735W        W90129  27.019   5.929  13.875
21736W        W90130  38.587  16.789  13.381
21737W        W90131   0.918  15.237   4.336
21738W        W90132  29.336  34.143  13.894
21739W        W90133  12.409  30.088   2.817
21740W        W90134  31.007  40.992  14.582
21741W        W90135  40.544   9.798  11.693
21742W        W90136  16.172  42.350   0.363
21743W        W90137  12.786  39.522   1.419
21744W        W90138  22.313   6.673   1.396
21745W        W90139  20.687  38.499  13.517
21746W        W90140   2.480  37.575  11.573
21747W        W90141  27.207  35.061  10.720
21748W        W90142  27.634  16.160   3.117
21749W        W90143   8.199  31.069   4.481
21750W        W90144  36.007  40.991   2.809
21751W        W90145   1.727   2.272  11.938
21752W        W90146  30.815  28.935  11.513
21753W        W90147   1.483  28.649   1.218
21754W        W90148  33.209  32.520  11.208
21755W        W90149  24.566  18.410   2.784
21756W        W90150  13.909  27.954  14.218
21757W        W90151   8.786   8.513  12.506
21758W        W90152  43.912  15.340  11.934
21759W        W90153  13.134  11.220  12.444
21760W        W90154  15.556  37.588  10.191
21761W        W90155  14.153  20.168  11.533
21762W        W90156  27.741  39.496   3.277
21763W        W90157   7.270   8.375  12.104
21764W        W90158  20.593  34.192   4.593
21765W        W90159   7.983  33.076   2.270
21766W        W90160  30.611  14.323   0.939
21767W        W90161  43.705  35.551   2.788
21768W        W90162  41.408  26.976  14.767
21769W        W90163   1.095  14.277   2.853
21770W        W90164  40.935   6.231   1.523
21771W        W90165  19.703  13.535  11.536
21772W        W90166  33.595  16.459  11.472
21773W        W90167  34.885  31.438  13.080
21774W        W90168  35.889  31.443  12.178
21775W        W90169  16.104   8.286  12.575
21776W        W90170  14.141  19.843   1.399
21777W        W90171  30.393  15.629   1.078
21778W        W90172   7.749  32.043  10.582
21779W        W90173  19.817   9.886  12.960
21780W        W90174  27.865  32.436  12.400
21781W        W90175   8.253  34.823  11.827
21782W        W90176  20.821  22.451  14.707
21783W        W90177  42.951  41.019  13.283
21784W        W90178  29.611  31.926  12.359
21785W        W90179  41.073   7.789  14.771
21786W        W90180  44.500  37.958   1.683
21787W        W90181  14.179   3.888   0.105
21788W        W90182  30.603   2.040   0.256
21789W        W90183  24.684  24.335   0.287
21790W        W90184  28.105  18.806  14.870
21791W        W90185   7.376  30.146  13.033
21792W        W90186  43.775  34.658   1.117
21793W        W90187  27.476   9.594  13.454
21794W        W90188  31.992  37.030   2.756
21795W        W90189  28.223   8.932   4.682
21796W        W90190  18.966   1.218  13.111
21797W        W90191  26.699  36.618  13.989
21798W        W90192   9.662  27.415  14.745
21799W        W90193  38.689  30.251  12.564
21800W        W90194  35.404   2.407  12.516
21801W        W90195  36.903  42.027  11.729
21802W        W90196  43.254  22.110   2.293
21803W        W90197  30.892  20.222   1.038
21804W        W90198  33.856   7.899  12.016
21805W        W90199  18.396  36.341  13.110
21806W        W90200  44.596   0.678  11.644
21807W        W90201   5.342   1.887  12.379
21808W        W90202  31.773  24.152   1.042
21809W        W90203   0.021   7.457   2.194
21810W        W90204   9.225  32.220  14.310
21811W        W90205  44.391  14.802   0.484
21812W        W90206  27.361   4.082   1.879
21813W        W90207  41.554  39.782  13.465
21814W        W90208  44.968  21.750  14.654
21815W        W90209  40.863   1.283   1.665
21816W        W90210  36.083  32.395   1.428
21817W        W90211  43.814  14.236   3.122
21818W        W90212  10.732   9.389   1.240
21819W        W90213   3.161  44.345  10.104
21820W        W90214  15.072   8.751   5.129
21821W        W90215  27.373   3.563   1.953
21822W        W90216  40.291  42.918  12.373
21823W        W90217  11.695  15.424   0.937
21824W        W90218  18.648  26.436   2.714
21825W        W90219  32.512   6.595  10.783
21826W        W90220   0.651   4.776  11.983
21827W        W90221  23.176  14.556   1.861
21828W        W90222  37.417   3.443   2.405
21829W        W90223  12.257  38.065   3.370
21830W        W90224  15.638  22.193  13.512
21831W        W90225  33.132  37.667   3.354
21832W        W90226   9.981   9.928   0.692
21833W        W90227   7.112   5.780   5.379
21834W        W90228  44.321  37.944   0.147
21835W        W90229  19.682  40.045   1.732
21836W        W90230  24.253  26.730  13.866
21837W        W90231  12.788   6.960   2.209
21838W        W90232  44.969   8.146   4.898
21839W        W90233  32.417  41.774  12.102
21840W        W90234  43.881  38.251  14.611
21841W        W90235   9.308  11.999  10.677
21842W        W90236  42.873  22.479  14.550
21843W        W90237  29.414   5.898  12.308
21844W        W90238  15.617   1.701   1.199
21845W        W90239  26.967  13.178  14.876
21846W        W90240   1.828  27.445  14.683
21847W        W90241  14.206  12.858   3.601
21848W        W90242   7.957   7.050  12.915
21849W        W90243  12.281  30.614   4.178
21850W        W90244  25.237  17.647  12.368
21851W        W90245  19.826  20.765  12.972
21852W        W90246  41.290  17.078   4.114
21853W        W90247  12.568  31.560   4.240
21854W        W90248  29.858  14.529  11.225
21855W        W90249   7.316  41.140  13.481
21856W        W90250  24.293  13.958  13.829
21857W        W90251  33.472  29.941  14.362
21858W        W90252  36.966  23.308   1.088
21859W        W90253  40.461  36.734   0.653
21860W        W90254  31.372  21.688   4.637
21861W        W90255  28.620  26.736  13.350
21862W        W90256  25.092   1.259   4.553
21863W        W90257   5.791   2.049  10.204
21864W        W90258  36.430  11.661  13.471
21865W        W90259  19.769   3.521  13.094
21866W        W90260  17.091  12.885   0.422
21867W        W90261  24.198  27.431   2.759
21868W        W90262   5.678   9.828  11.127
21869W        W90263  39.775  31.931   1.767
21870W        W90264  38.613  32.666   2.153
21871W        W90265   3.238  44.249  12.385
21872W        W90266  27.264  13.559  11.547
21873W        W90267  35.330  30.541   4.538
21874W        W90268   6.895  19.617  14.380
21875W        W90269  11.473  28.214   2.696
21876W        W90270  27.105   1.738  13.069
21877W        W90271  42.241  10.596   4.211
21878W        W90272   8.338  31.145   1.190
21879W        W90273  35.013  40.110  13.921
21880W        W90274   5.698  10.986  14.337
21881W        W90275  32.177  21.659  14.655
21882W        W90276   4.215  31.874   1.542
21883W        W90277  39.494   0.280   4.132
21884W        W90278   5.829  34.735   2.726
21885W        W90279  33.043  28.478  14.339
21886W        W90280   3.844  38.072  10.734
21887W        W90281   3.894  32.658   3.655
21888W        W90282  42.043  38.274   0.352
21889W        W90283  39.434   0.552   2.754
21890W        W90284  33.922  33.203   1.773
21891W        W90285  15.482   0.293   4.620
21892W        W90286  22.478   3.906  11.595
21893W        W90287  16.700  29.910  10.738
21894W        W90288  14.099  16.553  13.008
21895W        W90289  25.848  18.638  12.516
21896W        W90290  36.989  19.236  12.169
21897W        W90291  18.757  43.026  11.503
21898W        W90292   9.748  28.682  14.140
21899W        W90293  32.885  15.512  14.982
21900W        W90294  18.189   7.582  13.817
21901W        W90295  16.706   9.667  14.057
21902W        W90296  28.206  24.725  10.139
21903W        W90297  28.962   7.183  14.538
21904W        W90298  43.801   8.171   2.027
21905W        W90299  36.478  23.063   1.431
21906W        W90300  13.408  15.832   4.133
21907W        W90301  41.345   5.762  13.920
21908W        W90302  37.583  29.203  12.578
21909W        W90303  42.409  31.948   2.307
21910W        W90304   0.898  22.035   4.737
21911W        W90305  21.587  28.526  13.197
21912W        W90306  44.273  24.669   4.339
21913W        W90307  37.483   2.732   3.673
21914W        W90308   0.508   4.338  11.423
21915W        W90309   0.436  11.934   1.163
21916W        W90310  26.019  28.705  12.511
21917W        W90311  29.739  32.939  13.587
21918W        W90312   1.531  30.382   4.543
21919W        W90313  21.478  22.517   3.556
21920W        W90314  11.793  15.643  12.457
21921W        W90315  30.714  16.675   4.112
21922W        W90316  24.386   4.785   1.465
21923W        W90317   5.778   8.766  12.451
21924W        W90318  42.448  16.085  11.139
21925W        W90319  41.083  44.765  12.542
21926W        W90320  10.485  19.553   1.513
21927W        W90321   8.675  37.298   1.461
21928W        W90322  30.978  41.517  13.802
21929W        W90323  13.747  44.089  12.641
21930W        W90324  34.245   2.827   2.878
21931W        W90325  11.665  10.139  10.286
21932W        W90326   4.712   8.408   2.805
21933W        W90327  42.405  19.300  14.672
21934W        W90328  36.430   1.766   2.395
21935W        W90329  43.563  19.207  14.550
21936W        W90330  12.642   5.146   1.454
21937W        W90331  44.818  16.676  12.812
21938W        W90332  28.023  21.444   4.506
21939W        W90333   9.952  16.118  13.660
21940W        W90334   0.880  31.588  14.496
21941W        W90335  11.181  14.112  11.933
21942W        W90336  24.064  43.110  14.209
21943W        W90337  18.373  40.938  11.171
21944W        W90338  38.982  25.626   0.990
21945W        W90339  42.887   5.216   0.492
21946W        W90340  29.200  42.528  14.577
21947W        W90341  25.680  16.882   4.775
21948W        W90342   3.597  32.670   2.878
21949W        W90343  21.327  10.675  14.386
21950W        W90344  33.092  44.241   2.398
21951W        W90345  12.586  41.513  10.765
21952W        W90346  43.962  18.061   4.067
21953W        W90347  11.240  38.426   0.751
21954W        W90348  22.173  26.965  10.864
21955W        W90349  37.826  10.606   1.734
21956W        W90350  25.130  16.780   4.191
21957W        W90351  39.774   2.872   1.815
21958W        W90352  31.522   0.588  11.573
21959W        W90353  26.253  13.482  12.424
21960W        W90354  40.792  23.472   3.154
21961W        W90355  26.560   9.833  11.083
21962W        W90356  29.884  17.497   0.355
21963W        W90357  23.015  22.758  13.249
21964W        W90358  18.197  15.880   3.991
21965W        W90359   4.054  23.974  13.522
21966W        W90360  43.530  19.168   1.252
21967W        W90361   9.856  29.661   0.845
21968W        W90362   6.146  17.082   5.065
21969W        W90363   7.390  29.052  10.736
21970W        W90364  26.067  28.637   0.687
21971W        W90365   2.098  26.217   1.978
21972W        W90366  30.652  17.587  10.852
21973W        W90367  43.758  43.412  11.211
21974W        W90368   5.978  44.233  11.158
21975W        W90369  40.283   8.749   4.755
21976W        W90370  11.256  12.240  10.302
21977W        W90371   2.731   7.847   1.788
21978W        W90372  28.212  35.517   1.745
21979W        W90373  34.857  38.393  12.337
21980W        W90374  36.762  44.565   1.327
21981W        W90375   4.682  22.455  11.344
21982W        W90376  31.407   4.822  14.855
21983W        W90377  32.665   4.648   1.821
21984W        W90378  37.048  44.952  14.871
21985W        W90379  10.164  37.092  13.857
21986W        W90380  37.118   0.003   2.283
21987W        W90381  23.782  29.312   3.376
21988W        W90382   0.482  13.548   3.112
21989W        W90383   9.130   7.833  11.992
21990W        W90384  22.960  37.042  14.861
21991W        W90385  32.165  35.381  14.805
21992W        W90386  28.620  39.843   4.351
21993W        W90387  13.320  26.151   0.976
21994W        W90388  23.150  14.713   4.286
21995W        W90389  15.170  37.155   3.242
21996W        W90390   5.839   3.709   1.783
21997W        W90391  12.586  10.252   1.759
21998W        W90392  16.133  21.454  11.049
21999W        W90393  16.694   3.492  13.446
22000W        W90394  35.997  36.431   2.869
22001W        W90395  36.653  35.983   3.540
22002W        W90396   0.039  44.238   4.429
22003W        W90397  44.335  12.093  13.982
22004W        W90398  21.558  37.930  13.387
22005W        W90399   7.401  24.480  14.861
22006W        W90400  16.567  32.089  11.995
22007W        W90401  40.020   3.002  11.569
22008W        W90402  33.574   2.775  11.526
22009W        W90403   2.443  15.731  13.112
22010W        W90404  37.895  40.479  11.672
22011W        W90405  21.774  41.501   3.262
22012W        W90406  36.576  26.601  11.129
22013W        W90407  40.859   4.727  13.599
22014W        W90408  33.104  29.097   0.996
22015W        W90409  35.307   4.165   1.490
22016W        W90410  24.196   4.330  13.971
22017W        W90411  14.138  26.557   4.203
22018W        W90412   5.917  41.819   3.277
22019W        W90413  42.432  33.120   4.065
22020W        W90414   2.801  12.340   0.991
22021W        W90415  10.035  15.364   3.379
22022W        W90416  44.609  43.442  10.254
22023W        W90417  39.753  20.772   2.146
22024W        W90418  43.895  22.669   1.985
22025W        W90419  32.381  17.145  13.783
22026W        W90420  42.331   6.512   0.333
22027W        W90421   1.830  28.673   2.896
22028W        W90422   7.864   6.002   1.374
22029W        W90423  31.868   6.928  12.899
22030W        W90424  30.886  39.555  14.806
22031W        W90425  31.647  37.854   1.319
22032W        W90426  16.864  24.567   1.365
22033W        W90427  24.639  37.173   3.867
22034W        W90428  37.265  38.472  13.886
22035W        W90429  13.262   7.559  13.717
22036W        W90430  33.924  29.322   0.407
22037W        W90431  20.019  35.668   4.080
22038W        W90432  16.147  17.702   5.339
22039W        W90433   2.468  27.468  11.906
22040W        W90434  40.078   3.191   5.101
22041W        W90435  16.198  23.431   2.876
22042W        W90436  42.694   0.051  11.598
22043W        W90437  33.289   8.663  14.473
22044W        W90438   6.168  34.951  11.936
22045W        W90439  33.971  38.171   3.098
22046W        W90440  38.376  21.549   3.885
22047W        W90441  16.250   0.640   0.242
22048W        W90442   6.156   3.024  11.485
22049W        W90443  16.893  16.732   1.348
22050W        W90444  43.858  19.242  12.060
22051W        W90445  15.019   1.683   1.871
22052W        W90446   9.669   1.411  11.940
22053W        W90447  42.306  10.783   1.293
22054W        W90448  30.425  12.108   4.100
22055W        W90449  40.549  27.833  13.383
22056W        W90450   7.651   0.687  13.712
22057W        W90451  17.829  37.640   3.649
22058W        W90452  12.671  29.520   4.456
22059W        W90453  32.632  31.577   2.823
22060W        W90454  35.878  22.882  14.559
22061W        W90455   9.186  23.202   2.326
22062W        W90456   4.093  12.125   9.853
22063W        W90457   0.960  36.405  10.000
22064W        W90458  27.535  34.863   4.199
22065W        W90459  31.656   6.115  10.592
22066W        W90460  18.155  25.297   1.260
22067W        W90461  29.596  10.624   0.744
22068W        W90462  20.062  16.160  13.995
22069W        W90463  23.558  41.555  11.121
22070W        W90464  37.258  26.038   3.611
22071W        W90465  39.383   6.957   4.499
22072W        W90466  15.932  11.759  14.038
22073W        W90467  14.702   3.025  14.741
22074W        W90468  42.936  16.117   0.358
22075W        W90469  34.047   9.189   2.729
22076W        W90470  12.904  17.214   4.938
22077W        W90471   2.909  36.645   2.805
22078W        W90472  40.876  37.637   2.262
22079W        W90473  38.415   6.783  14.080
22080W        W90474   3.484  44.215   0.850
22081W        W90475  18.145   6.585  11.859
22082W        W90476  16.840  41.852  10.873
22083W        W90477   6.424  16.535  14.364
22084W        W90478  43.554   8.647   2.088
22085W        W90479  44.507   0.935   4.475
22086W        W90480  18.362   5.268   1.434
22087W        W90481  30.417  25.319  14.835
22088W        W90482  40.401   9.686  13.060
22089W        W90483  32.562  37.797   2.098
22090W        W90484  41.415  37.558  11.094
22091W        W90485  13.608   0.866  11.870
22092W        W90486  32.273   4.131   4.348
22093W        W90487  20.409  14.716   0.471
22094W        W90488   2.785   9.148   3.424
22095W        W90489  40.928   9.550  12.900
22096W        W90490  36.351   7.633  12.973
22097W        W90491  34.553  23.777  10.741
22098W        W90492  39.323  30.564   4.697
22099W        W90493  39.637  40.927  11.941
22100W        W90494  17.627  12.106  13.332
22101W        W90495  39.078  18.967  13.328
22102W        W90496  38.827  18.069  11.690
22103W        W90497   8.219   2.003   1.729
22104W        W90498  40.243   0.665  12.865
22105W        W90499  41.223  35.943  10.642
22106W        W90500   9.386  40.457   1.325
22107W        W90501  16.016  17.804   4.512
22108W        W90502  14.856  19.126  11.838
22109W        W90503  10.822  18.641  13.749
22110W        W90504  35.450  17.384   3.282
22111W        W90505  27.925  13.903  10.797
22112W        W90506  20.030  16.621  11.017
22113W        W90507  18.576  22.186  12.881
22114W        W90508  12.087   0.308   2.747
22115W        W90509  23.107  31.232   0.210
22116W        W90510  42.832   1.746  10.894
22117W        W90511   7.824   7.404   4.598
22118W        W90512   9.629  39.004   3.237
22119W        W90513  24.656  43.456  10.765
22120W        W90514  22.556  37.703   3.509
22121W        W90515  41.379   9.390   4.607
22122W        W90516  39.416   5.372   0.953
22123W        W90517  25.143  23.505   2.148
22124W        W90518  44.069  18.671  14.737
22125W        W90519  18.640  24.443  10.208
22126W        W90520   8.315  24.745  12.179
22127W        W90521   1.240  18.953  11.650
22128W        W90522   8.211  37.828   3.092
22129W        W90523  24.224  34.990  13.057
22130W        W90524   9.167  32.841  14.656
22131W        W90525  18.955   6.617   1.926
22132W        W90526  19.267   1.226  10.700
22133W        W90527  38.104  19.806   4.723
22134W        W90528  27.865   6.702   4.698
22135W        W90529  36.321  31.617  12.945
22136W        W90530   0.793  29.158   1.930
22137W        W90531  31.090  27.867   2.879
22138W        W90532   1.873  42.694  13.842
22139W        W90533  29.442   7.643   4.082
22140W        W90534   5.247  28.315  11.065
22141W        W90535  42.474  44.097   0.932
22142W        W90536  14.566  39.934   3.289
22143W        W90537  41.545  23.265   0.440
22144W        W90538  42.988   4.800  11.554
22145W        W90539  19.250  29.040   5.124
22146W        W90540  31.117  21.715   2.886
22147W        W90541   5.350  28.996  13.826
22148W        W90542  20.035  25.983   5.048
22149W        W90543  13.714  39.576  10.446
22150W        W90544  18.920  42.427  13.594
22151W        W90545   3.183  24.712  14.402
22152W        W90546  44.107  32.029  13.024
22153W        W90547   6.204  21.487   0.578
22154W        W90548  22.568  38.710  10.358
22155W        W90549  30.030  39.760  14.533
22156W        W90550   5.663  16.275  11.408
22157W        W90551  16.828  10.843  11.967
22158W        W90552  37.439  27.585   3.673
22159W        W90553   7.469  34.968  12.532
22160W        W90554  23.099  31.597   1.948
22161W        W90555  40.542  25.804   3.883
22162W        W90556  27.679  10.420   3.628
22163W        W90557  31.095  28.922  12.451
22164W        W90558  38.124  27.427   0.381
22165W        W90559  24.066  24.444   3.421
22166W        W90560   0.527  38.518   5.089
22167W        W90561  18.976  17.770   2.288
22168W        W90562  10.395   5.284  13.428
22169W        W90563  38.930  22.044   4.658
22170W        W90564  17.918  25.240   3.672
22171W        W90565  41.018  12.276   2.852
22172W        W90566   9.081  15.392  14.888
22173W        W90567  41.283  37.861  11.965
22174W        W90568  36.918   9.674  14.455
22175W        W90569   3.040  28.807   1.535
22176W        W90570  13.172   6.433   3.647
22177W        W90571  39.859  38.390   2.613
22178W        W90572  16.721  24.287   1.776
22179W        W90573  25.206  30.360   2.551
22180W        W90574  43.976  36.882  13.936
22181W        W90575  31.927  13.831  11.143
22182W        W90576  41.989  35.138   2.274
22183W        W90577  32.067  30.543   4.591
22184W        W90578  16.711   6.832   3.804
22185W        W90579  11.239  25.773   1.468
22186W        W90580  31.815  35.092   4.294
22187W        W90581   1.693  11.238  10.694
22188W        W90582   5.438  15.066   1.294
22189W        W90583   4.282   7.311   3.615
22190W        W90584  28.778  25.311  11.627
22191W        W90585  26.178  39.797  12.216
22192W        W90586   0.296  36.237   1.351
22193W        W90587  39.876  32.309   1.438
22194W        W90588  26.184  30.119  13.391
22195W        W90589   7.369  18.890  13.844
22196W        W90590  39.466  22.714  11.964
22197W        W90591  27.602  29.895  13.421
22198W        W90592   3.454   0.148   0.010
22199W        W90593  32.604  37.826  12.868
22200W        W90594  35.206  10.722   0.733
22201W        W90595  17.535  41.949  10.231
22202W        W90596   8.356  38.444  14.923
22203W        W90597  44.275  29.256   0.436
22204W        W90598   7.727  31.048   1.826
22205W        W90599  19.490  21.652   1.295
22206W        W90600  11.747  14.820  11.956
22207W        W90601  16.392   3.540  13.877
22208W        W90602   9.717  34.625   4.123
22209W        W90603   9.740  37.963   4.592
22210W        W90604  20.072  11.648  13.215
22211W        W90605  21.567  15.723  12.493
22212W        W90606  23.524  44.897   0.372
22213W        W90607  34.643  24.547  14.926
22214W        W90608  43.035   1.141   3.348
22215W        W90609  28.879  23.655  14.888
22216W        W90610  17.507  22.658   1.840
22217W        W90611  43.999  26.956   1.812
22218W        W90612  15.398  18.691  10.134
22219W        W90613  43.522  41.926  11.959
22220W        W90614  23.501  34.902   1.323
22221W        W90615   4.208  39.560  13.174
22222W        W90616   3.744  37.345   1.309
22223W        W90617  31.924   5.920   1.993
22224W        W90618   4.956  10.355   2.834
22225W        W90619  30.362  20.058   1.482
22226W        W90620  20.088   4.641  11.034
22227W        W90621  20.919  34.316  12.839
22228W        W90622  44.079  35.257  14.627
22229W        W90623  16.877  26.981  10.279
22230W        W90624  37.028  22.151  14.140
22231W        W90625  36.032   6.708  13.675
22232W        W90626  25.415  31.093  12.296
22233W        W90627  23.155  32.848  10.367
22234W        W90628  41.000  24.154   3.289
22235W        W90629  37.253   9.201  12.056
22236W        W90630  40.853   2.272   1.936
22237W        W90631  30.018  13.399   3.693
22238W        W90632  38.585  39.959   0.455
22239W        W90633   8.337   3.752   0.838
22240W        W90634  26.506  25.039  11.587
22241W        W90635  38.774  19.659  12.522
22242W        W90636  12.752  31.852  13.927
22243W        W90637  37.858  30.569   0.902
22244W        W90638  35.611   8.909   0.217
22245W        W90639  44.006  15.827   0.980
22246W        W90640  34.527  25.687   3.641
22247W        W90641  20.553  11.911   4.270
22248W        W90642  41.300   2.487   0.302
22249W        W90643  31.649   8.470  10.771
22250W        W90644  18.398   3.709   4.662
22251W        W90645   2.343  19.732   0.555
22252W        W90646  15.330  16.514  14.764
22253W        W90647  29.836  15.068  11.172
22254W        W90648  26.727  15.932   2.224
22255W        W90649  38.421  32.108   3.732
22256W        W90650  22.639  33.814  11.250
22257W        W90651  28.892  27.616  14.509
22258W        W90652  26.597  10.809  11.118
22259W        W90653   2.923  22.752   0.854
22260W        W90654  14.126  40.273  14.511
22261W        W90655  29.453  31.559  14.877
22262W        W90656   9.748   2.362   3.462
22263W        W90657   0.832   6.407  10.657
22264W        W90658  17.127  16.516   0.865
22265W        W90659   6.807  14.785  13.229
22266W        W90660  24.827  36.696  10.729
22267W        W90661  24.169  39.795   0.819
22268W        W90662  36.474   0.786   2.408
22269W        W90663  41.568   0.504  13.892
22270W        W90664  24.234  42.818  12.827
22271W        W90665  16.239  40.801  14.859
22272W        W90666   7.201   0.490  14.416
22273W        W90667  10.732   2.987  13.961
22274W        W90668  31.143  13.172   0.381
22275W        W90669  39.439   3.439   4.304
22276W        W90670  19.375  16.236   4.116
22277W        W90671  24.995  35.996   1.458
22278W        W90672  35.978  21.706  13.072
22279W        W90673  18.763  40.361   0.339
22280W        W90674   2.454  11.257   3.065
22281W        W90675  14.865   0.197  12.062
22282W        W90676  29.860   4.726   4.226
22283W        W90677  13.606  33.855  11.952
22284W        W90678  24.008  21.066   3.378
22285W        W90679  22.597   4.789  11.201
22286W        W90680  36.925  23.938  11.068
22287W        W90681  44.926  33.203   4.896
22288W        W90682   6.267  29.744   2.252
22289W        W90683  11.399  31.678  14.938
22290W        W90684  17.476  40.970   3.213
22291W        W90685  44.173  28.066  14.383
22292W        W90686   2.979  44.958   0.122
22293W        W90687  13.164  30.944  13.652
22294W        W90688  21.609   9.714   2.937
22295W        W90689  23.695  14.977  14.528
22296W        W90690   8.673   5.793  11.192
22297W        W90691  42.383  25.385  12.042
22298W        W90692  13.244   8.340   2.288
22299W        W90693   9.854  27.589   1.266
22300W        W90694  26.664  21.868  10.768
22301W        W90695  44.932   4.792   1.353
22302W        W90696  19.140  42.567   2.799
22303W        W90697   6.420  20.347   1.837
22304W        W90698  23.148   3.984   3.251
22305W        W90699  19.342   4.446  13.036
22306W        W90700  21.731  44.820   4.586
22307W        W90701  41.122  24.671  12.012
22308W        W90702  34.564  20.228  11.769
22309W        W90703  37.406  25.030   0.780
22310W        W90704  37.223  11.259  14.232
22311W        W90705  32.759   2.681   0.567
22312W        W90706  24.951  17.255   4.223
22313W        W90707   2.763  28.034   2.102
22314W        W90708  11.653  16.719  14.792
22315W        W90709  21.895  13.834   0.695
22316W        W90710  34.092  36.023   3.637
22317W        W90711  15.152   7.735  10.701
22318W        W90712   8.645   3.927   2.686
22319W        W90713  31.878   1.343  12.681
22320W        W90714  22.013  41.310   3.687
22321W        W90715   4.830   3.050   3.257
22322W        W90716   0.216  21.011  14.966
22323W        W90717   4.671  32.298   5.316
22324W        W90718   8.441  10.742  14.773
22325W        W90719   0.181  25.635   0.214
22326W        W90720  15.330  26.762  10.698
22327W        W90721  28.822  36.050  11.473
22328W        W90722   5.787  32.753   4.258
22329W        W90723  44.305   5.923   4.067
22330W        W90724  23.927   3.378  13.583
22331W        W90725   4.956  12.788   2.428
22332W        W90726  27.659  16.037   2.609
22333W        W90727  23.658  44.989  14.527
22334W        W90728   5.167   2.897  11.538
22335W        W90729  11.730  14.509  11.525
22336W        W90730  26.181  30.951  11.077
22337W        W90731  29.257  37.692   3.246
22338W        W90732  18.545  31.086   4.142
22339W        W90733  39.157  13.720  13.354
22340W        W90734   8.492  29.659  14.941
22341W        W90735  12.308   2.198   1.025
22342W        W90736  20.035  29.529   2.895
22343W        W90737  26.267  33.678   5.008
22344W        W90738  41.974  15.597  12.133
22345W        W90739   3.439  11.770   0.263
22346W        W90740  30.574   8.403  14.810
22347W        W90741  26.685  19.666  12.058
22348W        W90742  31.353  21.277   3.954
22349W        W90743  43.741  33.163  11.073
22350W        W90744  21.245   5.262   5.209
22351W        W90745   4.460  23.510   3.699
22352W        W90746  29.745   7.809   1.772
22353W        W90747  11.227  24.175   1.407
22354W        W90748  31.855   1.975   0.852
22355W        W90749   6.849  22.641  14.166
22356W        W90750   9.103  20.267  12.566
22357W        W90751  44.434  23.098   2.785
22358W        W90752  44.294  10.028  14.946
22359W        W90753  27.579  19.295  12.970
22360W        W90754  39.779   4.389  14.443
22361W        W90755  23.628  30.105  13.079
22362W        W90756  34.906  35.594   2.099
22363W        W90757  44.498  30.917  10.706
22364W        W90758  31.631  20.310   1.428
22365W        W90759  27.661  33.061   1.790
22366W        W90760  36.078  13.634  14.379
22367W        W90761  34.408  27.745   4.699
22368W        W90762  12.241  14.833  14.474
22369W        W90763   7.191   9.388  14.978
22370W        W90764  44.908   0.182   4.627
22371W        W90765  35.396  23.514   0.234
22372W        W90766   0.468  34.147   1.743
22373W        W90767  25.478  40.174  13.370
22374W        W90768  27.883  43.648  11.170
22375W        W90769  37.484  23.470  12.408
22376W        W90770  24.998  42.048   2.985
22377W        W90771   5.983   1.337   5.468
22378W        W90772   2.484   2.747  11.594
22379W        W90773  26.590   2.646  10.368
22380W        W90774  38.441  14.764  12.150
22381W        W90775  43.387  11.110   2.551
22382W        W90776  26.171   8.225  12.919
22383W        W90777  12.166  18.804  13.861
22384W        W90778  20.899  12.634   2.690
22385W        W90779  10.692  44.960  12.859
22386W        W90780  35.114  44.859   3.264
22387W        W90781   4.664  25.452   1.853
22388W        W90782   5.407  21.816   1.270
22389W        W90783   6.371   5.071  14.937
22390W        W90784  39.740  18.800   0.343
22391W        W90785  25.461  44.076  13.319
22392W        W90786  37.923  23.207   1.194
22393W        W90787   0.444  39.338   0.415
22394W        W90788  34.373   7.562   3.629
22395W        W90789  24.690  38.114  14.489
22396W        W90790  28.668   4.552   4.515
22397W        W90791  43.961   4.792  14.863
22398W        W90792  33.934   3.015  10.770
22399W        W90793  29.971  10.804   4.605
22400W        W90794  23.830  25.727   1.893
22401W        W90795  12.915   8.569  10.295
22402W        W90796  33.433  38.269   3.744
22403W        W90797  21.136   4.991  11.924
22404W        W90798  39.636  39.257  13.030
22405W        W90799  39.401  36.056   1.363
22406W        W90800  14.257  39.454  14.980
22407W        W90801   1.561  30.549   3.707
22408W        W90802   3.876   4.883  12.876
22409W        W90803  36.850  44.127  14.401
22410W        W90804  15.781  36.503  14.435
22411W        W90805  21.440   4.569   2.180
22412W        W90806   7.149  35.940   2.318
22413W        W90807   3.520  34.987   0.744
22414W        W90808  32.038  14.733   5.333
22415W        W90809  15.187  25.037   2.376
22416W        W90810  13.861  24.634   2.810
22417W        W90811  40.437  44.587  11.962
22418W        W90812  10.359  41.816  13.976
22419W        W90813  33.410  43.876   3.772
22420W        W90814  13.762  35.560   4.506
22421W        W90815   4.476   9.806  11.948
22422W        W90816  37.694  26.657  10.988
22423W        W90817  22.971  15.092   2.374
22424W        W90818  15.073  17.621   0.907
22425W        W90819  33.102  29.492   2.623
22426W        W90820  19.815  44.048  11.342
22427W        W90821  33.174   8.732   0.427
22428W        W90822  30.032   3.264   0.461
22429W        W90823  40.730  10.567  12.885
22430W        W90824  41.671   1.892   1.880
22431W        W90825  14.806  16.645   1.488
22432W        W90826  15.084  10.135   0.805
22433W        W90827  15.708  18.844   4.878
22434W        W90828  40.396   8.705   3.178
22435W        W90829  28.028  35.408  13.322
22436W        W90830  30.526   9.312   1.137
22437W        W90831  31.115   2.183  10.653
22438W        W90832  26.936  35.861   2.085
22439W        W90833  30.992  23.983  14.965
22440W        W90834   2.851  22.575   4.641
22441W        W90835   3.135   3.440  12.995
22442W        W90836  23.516   4.881  11.644
22443W        W90837   4.852  24.159   2.753
22444W        W90838  22.041  25.105  11.536
22445W        W90839  33.869  10.889   4.166
22446W        W90840  38.702  19.015  10.785
22447W        W90841  20.036  21.678   3.732
22448W        W90842  21.672  12.421  12.103
22449W        W90843  18.785  29.174   0.983
22450W        W90844   1.930  44.472   0.752
22451W        W90845  43.494  12.982   2.878
22452W        W90846  24.069  36.402   0.778
22453W        W90847  25.523  33.902  13.986
22454W        W90848  20.309   9.457   3.243
22455W        W90849  42.499  33.113  12.608
22456W        W90850  36.627  21.453  13.789
22457W        W90851  25.600  17.809  13.132
22458W        W90852  18.015  43.820  10.612
22459W        W90853  39.660  25.029  10.672
22460W        W90854   2.352  23.275  11.665
22461W        W90855  40.326   6.710   3.264
22462W        W90856   1.250  41.204   1.181
22463W        W90857  13.783  16.805  10.544
22464W        W90858  32.090   5.365  14.884
22465W        W90859   6.525   0.006  12.101
22466W        W90860  20.066  26.048  14.612
22467W        W90861  43.007  20.698  11.113
22468W        W90862   8.697  28.909   4.111
22469W        W90863  28.853  25.509   1.427
22470W        W90864  16.068  32.365   3.253
22471W        W90865  24.415   6.629   2.727
22472W        W90866  37.206   5.748  13.989
22473W        W90867  28.210  12.133   0.487
22474W        W90868   1.256   5.156   1.735
22475W        W90869   0.778  29.210   0.893
22476W        W90870  38.390  25.227   1.366
22477W        W90871   0.519   2.830   2.823
22478W        W90872  21.225   0.459  11.185
22479W        W90873  16.025   3.875   4.848
22480W        W90874  44.890  19.277  11.066
22481W        W90875  27.820  44.328   0.496
22482W        W90876  16.191  28.001   3.555
22483W        W90877  31.752  44.969   0.241
22484W        W90878  37.121   0.338   3.994
22485W        W90879  27.396  17.673  12.563
22486W        W90880  38.813  27.964  10.940
22487W        W90881  34.610  33.560  11.365
22488W        W90882  37.755   4.282   2.270
22489W        W90883  32.426  30.391   0.761
22490W        W90884  12.794  24.211  12.766
22491W        W90885  29.133  19.585   3.077
22492W        W90886   7.680   4.891  14.580
22493W        W90887  18.466   7.198  10.651
22494W        W90888  19.608   2.214  13.416
22495W        W90889  33.687   1.332   2.680
22496W        W90890   1.932   9.263  10.463
22497W        W90891   0.931   7.138  14.791
22498W        W90892  21.365  41.018  14.810
22499W        W90893  34.509  32.057   1.916
22500W        W90894  35.016   7.330  14.962
22501W        W90895   5.646   9.301  13.863
22502W        W90896  20.195  29.135  14.326
22503W        W90897  13.366  16.039   2.254
22504W        W90898  25.557  35.048   0.439
22505W        W90899  29.499  22.156   0.409
22506W        W90900   2.279  41.915  14.247
22507W        W90901  16.691  43.297   1.639
22508W        W90902   9.548   4.382   1.000
22509W        W90903   0.012  15.380   3.442
22510W        W90904  41.197  34.860  14.046
22511W        W90905   7.817  13.814  14.299
22512W        W90906  12.433  42.990   1.126
22513W        W90907  40.905  44.049   2.399
22514W        W90908  20.184  37.454   0.382
22515W        W90909  44.845  25.264   0.359
22516W        W90910   7.846  25.549   1.348
22517W        W90911  34.103  32.383   3.083
22518W        W90912  41.355   2.992  11.844
22519W        W90913   0.754  21.047   4.600
22520W        W90914  29.142  33.141   4.642
22521W        W90915   9.263  19.105   3.296
22522W        W90916   6.699  25.718  14.293
22523W        W90917   3.653   6.497  11.568
22524W        W90918  44.229  15.515   1.382
22525W        W90919  44.996  31.476   0.300
22526W        W90920  24.485  43.103   4.210
22527W        W90921  10.291  25.909   4.137
22528W        W90922  34.849   6.252   2.759
22529W        W90923   3.403  16.289   3.164
22530W        W90924  28.174  36.968   0.413
22531W        W90925  10.337  31.449  12.830
22532W        W90926   3.825  29.343   2.996
22533W        W90927  31.097  39.105  14.969
22534W        W90928  26.365   3.259  10.757
22535W        W90929  20.586  31.530  11.623
22536W        W90930  40.589  11.647   0.963
22537W        W90931  14.681  15.238   2.965
22538W        W90932  14.876  27.081  10.788
22539W        W90933  42.636  16.596   3.330
22540W        W90934  12.627   8.353   2.305
22541W        W90935   9.647   3.523   4.982
22542W        W90936  33.407   2.423   0.488
22543W        W90937  38.007   9.635  14.866
22544W        W90938  30.538  40.787   2.874
22545W        W90939  40.135  17.318   1.318
22546W        W90940  35.138   6.390  11.775
22547W        W90941   7.702  44.448   2.175
22548W        W90942   5.938  29.310   0.512
22549W        W90943  33.394   5.582  12.893
22550W        W90944  34.748   2.823   2.707
22551W        W90945  25.621  31.986   1.705
22552W        W90946  21.780  19.257  13.816
22553W        W90947  31.733  17.583   1.770
22554W        W90948  33.052  21.473  14.563
22555W        W90949   0.735  41.027  11.112
22556W        W90950  19.644  36.600  11.671
22557W        W90951  39.246  17.022  14.352
22558W        W90952  13.358  11.394   1.259
22559W        W90953  24.130   4.221  11.088
22560W        W90954  35.937  11.217   0.463
22561W        W90955  42.839  17.714  12.183
22562W        W90956  11.620   9.333   2.353
22563W        W90957  10.469   4.476  13.085
22564W        W90958  16.557  18.006   2.671
22565W        W90959  24.193   8.351   2.682
22566W        W90960  20.215  30.980  11.159
22567W        W90961  36.823   0.108   0.318
22568W        W90962  27.538  30.725   1.638
22569W        W90963   3.936  39.262   0.221
22570W        W90964  43.469  35.475   3.230
22571W        W90965  41.319  30.940   2.443
22572W        W90966  11.919   7.965   2.686
22573W        W90967  18.542  31.826  11.354
22574W        W90968  11.843  33.648   4.933
22575W        W90969   8.588   7.183   2.841
22576W        W90970   9.014  38.752   2.809
22577W        W90971   9.258  31.090   3.791
22578W        W90972   4.184  30.207  14.911
22579W        W90973   6.756  15.032   9.929
22580W        W90974  19.967  41.447   2.891
22581W        W90975  23.733  12.219   3.859
22582W        W90976  40.991  27.707   0.380
22583W        W90977  12.686  18.091  12.851
22584W        W90978  33.940  18.153   2.835
22585W        W90979  14.732  39.291  11.865
22586W        W90980   6.683  10.612   4.148
22587W        W90981  43.124  25.082   4.387
22588W        W90982   5.495  11.851   3.776
22589W        W90983  25.153  39.053   1.772
22590W        W90984   5.849   4.445  11.724
22591W        W90985  18.257  20.280  11.568
22592W        W90986  35.674  19.598   0.763
22593W        W90987  40.359  16.876  14.282
22594W        W90988  36.094  36.215   4.328
22595W        W90989  25.960  13.544   3.936
22596W        W90990  44.920  42.780   4.549
22597W        W90991   3.126   7.130  11.470
22598W        W90992  29.926  14.820  14.942
22599W        W90993   9.744  39.279   0.287
22600W        W90994  24.768  24.055  14.433
22601W        W90995  25.675   8.705   1.264
22602W        W90996  34.967  32.436  12.975
22603W        W90997   9.696  37.861   4.086
22604W        W90998  41.883  13.853   0.780
22605W        W90999  14.015  44.998  11.540
22606W        W91000  32.496  39.340  10.467
22607W        W91001   4.385  39.473   0.042
22608W        W91002  30.169  35.431   1.115
22609W        W91003  13.592  28.952  14.747
22610W        W91004  40.292  28.657   4.502
22611W        W91005  20.595   2.922  11.053
22612W        W91006  27.481   4.294  10.820
22613W        W91007  41.331  14.991   4.124
22614W        W91008  40.776  30.731  12.056
22615W        W91009  20.104  26.006   1.383
22616W        W91010  17.746   1.082  13.372
22617W        W91011  35.211  32.539   0.716
22618W        W91012  36.955  42.743   1.705
22619W        W91013  25.677   9.164  12.152
22620W        W91014  41.879  10.442   3.020
22621W        W91015  32.927  37.528   1.619
22622W        W91016  12.088   4.379  10.659
22623W        W91017  22.194   7.832   3.569
22624W        W91018  39.897   2.103   3.497
22625W        W91019  38.259   4.928  13.863
22626W        W91020  31.860  24.759  11.538
22627W        W91021   5.207  36.504   3.812
22628W        W91022  10.257  10.189   4.034
22629W        W91023  10.795  32.113   4.952
22630W        W91024  36.500  37.378   0.155
22631W        W91025   2.060  14.542  14.050
22632W        W91026   7.378  21.315   2.393
22633W        W91027  31.591  34.492  13.848
22634W        W91028  28.160  36.844  11.681
22635W        W91029  32.686  44.266   3.956
22636W        W91030  27.116  27.158  11.826
22637W        W91031  32.583   7.997  11.549
22638W        W91032  35.054  24.255   3.195
22639W        W91033  24.196  26.017   3.901
22640W        W91034  42.868  24.742  11.584
22641W        W91035  22.565  25.758   4.096
22642W        W91036  28.026  37.593  12.567
22643W        W91037  43.295   0.055   2.628
22644W        W91038  36.817  37.519  13.907
22645W        W91039  34.311  40.407   1.854
22646W        W91040  23.062  10.769  12.224
22647W        W91041  32.916  26.302  10.587
22648W        W91042   9.398   2.112  12.367
22649W        W91043  32.906  12.799  11.621
22650W        W91044  12.733  27.013  11.119
22651W        W91045  31.918  43.884  13.544
22652W        W91046  37.687  28.898   2.144
22653W        W91047  29.924  38.898  13.951
22654W        W91048  28.054  33.807  13.385
22655W        W91049  42.594  21.547  14.332
22656W        W91050   2.372  41.446  11.537
22657W        W91051  35.991   5.173  10.726
22658W        W91052   8.255  31.948  12.075
22659W        W91053  16.058  24.938   2.829
22660W        W91054  10.244  15.745   3.712
22661W        W91055  37.637  26.735   4.516
22662W        W91056   8.490  10.647   0.911
22663W        W91057  41.512   3.821  14.250
22664W        W91058  19.512   2.510   0.740
22665W        W91059  27.105   2.066  10.057
22666W        W91060  27.257  34.314  11.883
22667W        W91061  35.920   9.770  14.220
22668W        W91062  35.116  22.962  12.160
22669W        W91063  44.346  38.764   3.652
22670W        W91064   2.275  14.916  11.038
22671W        W91065  33.829   0.768  13.997
22672W        W91066  34.446  30.414   4.215
22673W        W91067  38.859  21.076  11.552
22674W        W91068   5.344   5.245   2.670
22675W        W91069  35.608  22.913   2.695
22676W        W91070  19.095   7.257  14.505
22677W        W91071  38.139  36.118  12.501
22678W        W91072  37.056   2.332  10.868
22679W        W91073   0.078  38.086   3.872
22680W        W91074  34.837  38.871   0.379
22681W        W91075  24.962  11.084  14.755
22682W        W91076  30.129   7.780   4.583
22683W        W91077  33.904  12.340  10.972
22684W        W91078  42.095  43.450   0.425
22685W        W91079  20.668  37.253   1.277
22686W        W91080  39.020  31.959  14.224
22687W        W91081  14.553  15.418  10.670
22688W        W91082  34.792  34.327  12.221
22689W        W91083   3.913  32.384  13.522
22690W        W91084  44.939  30.228  13.847
22691W        W91085  14.676  25.608   1.951
22692W        W91086   2.320  28.507   4.207
22693W        W91087  22.697  32.664  13.781
22694W        W91088  22.250   3.483  14.908
22695W        W91089  29.967  29.046   5.274
22696W        W91090   1.213  28.641   3.690
22697W        W91091   6.834  29.616   0.039
22698W        W91092   5.392  22.940  11.618
22699W        W91093  20.363  31.120   0.943
22700W        W91094  42.436  31.891   4.616
22701W        W91095  40.393   2.733   3.052
22702W        W91096  17.732  23.028  13.140
22703W        W91097  18.550  23.247  11.132
22704W        W91098  31.858  39.001  10.540
22705W        W91099  22.683  33.107  11.980
22706W        W91100  31.625   7.596   3.768
22707W        W91101   3.803   4.289  11.546
22708W        W91102  15.350  21.760   4.499
22709W        W91103  29.984   9.228   4.100
22710W        W91104   8.454  40.893   0.753
22711W        W91105  33.502  25.207   1.354
22712W        W91106  28.852  34.364  13.770
22713W        W91107  27.140  36.082   2.911
22714W        W91108   6.389  15.409  12.052
22715W        W91109  41.973  36.674  12.105
22716W        W91110   8.830  31.516   0.375
22717W        W91111  23.191  31.679   5.079
22718W        W91112  18.621   7.304   3.405
22719W        W91113  23.522  35.313  10.631
22720W        W91114  38.263  14.224   1.259
22721W        W91115  44.002  31.639   2.729
22722W        W91116  39.344  39.481   2.216
22723W        W91117  19.648  17.912  11.568
22724W        W91118   2.576  22.631  12.039
22725W        W91119  28.432  40.327  11.984
22726W        W91120  18.953  20.098  14.475
22727W        W91121  16.216  35.640  13.853
22728W        W91122  30.972  39.593  13.274
22729W        W91123  29.009  17.595  14.376
22730W        W91124  16.152  38.858  11.702
22731W        W91125   9.699  44.991  11.842
22732W        W91126  36.686  12.079   0.593
22733W        W91127  29.096  12.586  10.900
22734W        W91128  14.275  27.688   3.058
22735W        W91129  10.113  26.119  13.104
22736W        W91130  22.439  11.407   4.057
22737W        W91131  20.451  34.831  11.550
22738W        W91132  24.173  41.504  14.778
22739W        W91133   2.572  24.676  12.118
22740W        W91134  42.483  44.838  13.883
22741W        W91135  11.725  11.571  10.932
22742W        W91136  43.026  44.928   0.977
22743W        W91137  37.463  19.020  12.399
22744W        W91138  17.903  27.878  10.197
22745W        W91139   4.923  38.059  13.928
22746W        W91140  29.355   9.757  11.864
22747W        W91141  11.143  33.310   4.580
22748W        W91142   8.653   4.736  13.059
22749W        W91143  21.547  44.208   0.283
22750W        W91144  25.810   9.452  13.442
22751W        W91145  12.035   9.131   2.143
22752W        W91146  11.629  14.010  11.707
22753W        W91147   1.982  20.721  12.824
22754W        W91148  20.365  24.264   0.532
22755W        W91149  12.294   3.782  11.128
22756W        W91150   2.382  32.711   3.777
22757W        W91151  32.071   3.187   4.221
22758W        W91152  27.514  23.721   2.756
22759W        W91153   1.083   1.737  11.553
22760W        W91154  33.612  39.304  13.633
22761W        W91155  35.422  44.456   0.461
22762W        W91156  32.754  40.910  13.819
22763W        W91157  41.814  30.132   2.580
22764W        W91158  10.158  44.418  10.345
22765W        W91159  37.507   5.463   3.176
22766W        W91160   1.201   0.831  10.651
22767W        W91161  33.028  26.753  11.442
22768W        W91162   4.739  24.699  14.469
22769W        W91163  24.624   2.905  13.946
22770W        W91164   6.438  42.435   0.634
22771W        W91165  16.889  23.223  13.744
22772W        W91166  17.060   7.462  14.291
22773W        W91167  41.207  43.249  11.561
22774W        W91168  28.210  21.477  14.933
22775W        W91169  23.219  11.727  12.536
22776W        W91170  35.010   3.082   4.959
22777W        W91171   5.322  20.689  14.962
22778W        W91172   1.773  38.901  12.500
22779W        W91173   3.413  37.984   3.904
22780W        W91174  35.009  41.793   0.791
22781W        W91175  26.466  37.849  11.609
22782W        W91176  19.632  12.378   3.718
22783W        W91177   2.350  42.229   1.156
22784W        W91178  41.269  28.031   1.485
22785W        W91179  32.497  27.012   1.753
22786W        W91180   5.393  39.869  13.623
22787W        W91181  27.534  24.505   1.200
22788W        W91182  22.023  17.308  10.564
22789W        W91183  44.783   8.762  13.942
22790W        W91184  36.821  35.553   0.729
22791W        W91185   3.445  17.593  13.454
22792W        W91186  32.345  24.471   1.724
22793W        W91187  39.125  23.027   4.713
22794W        W91188   1.474  44.060  14.851
22795W        W91189  30.432  44.434   4.901
22796W        W91190  38.895  36.395   2.785
22797W        W91191  25.343   6.298   1.418
22798W        W91192   8.399   2.566   0.292
22799W        W91193   1.923  31.852  12.112
22800W        W91194  27.408  12.249  12.919
22801W        W91195  26.897   5.097   1.119
22802W        W91196  37.884  14.055  11.128
22803W        W91197   4.790  37.123  13.875
22804W        W91198  24.244   9.969   1.801
22805W        W91199  42.991   9.777   2.754
22806W        W91200  11.251  22.032   0.956
22807W        W91201  35.399  13.336   2.773
22808W        W91202   8.926   8.495  14.449
22809W        W91203   4.152  19.322   3.469
22810W        W91204  28.160  34.998  11.090
22811W        W91205  40.326  20.095   3.345
22812W        W91206  20.486  13.400   1.146
22813W        W91207  10.222  26.907   1.225
22814W        W91208  44.833   7.841   1.888
22815W        W91209   1.365  19.078   1.695
22816W        W91210  41.294  10.903  13.042
22817W        W91211  27.097  27.140   0.254
22818W        W91212   8.688  35.099   4.222
22819W        W91213  41.202  30.107  14.350
22820W        W91214   6.878   6.713  10.383
22821W        W91215  28.028   8.863  10.664
22822W        W91216  42.967  25.213   1.332
22823W        W91217  23.356  32.878  14.147
22824W        W91218  29.054   3.175   3.867
22825W        W91219  17.195  32.598  12.082
22826W        W91220  30.743  27.419   3.667
22827W        W91221  14.522  19.005   2.279
22828W        W91222  36.022  42.590  11.135
22829W        W91223  23.695   8.553   4.888
22830W        W91224  35.941  19.954   4.055
22831W        W91225   2.672  14.934   3.258
22832W        W91226   8.763  15.532  14.343
22833W        W91227  31.498  44.523   0.286
22834W        W91228  12.885   8.745  11.165
22835W        W91229  26.201  20.068  12.892
22836W        W91230  29.353   9.021  12.372
22837W        W91231  13.222  32.124   4.139
22838W        W91232  25.363   0.629  12.452
22839W        W91233   1.021  22.237   0.281
22840W        W91234  11.409  29.985   0.378
22841W        W91235  14.752  12.412  11.994
22842W        W91236  11.400  13.813   2.849
22843W        W91237  41.973   0.481  14.865
22844W        W91238  25.739   0.920   1.521
22845W        W91239  30.698  44.931  11.542
22846W        W91240   1.442   1.998  13.423
22847W        W91241  14.587   7.874  13.831
22848W        W91242  22.825  25.586   1.821
22849W        W91243  25.913  34.597  11.978
22850W        W91244  43.395  22.282  10.681
22851W        W91245  40.768  24.200   1.938
22852W        W91246  16.560  21.133   2.808
22853W        W91247  44.872  43.265   4.728
22854W        W91248  32.932  30.373  11.559
22855W        W91249  40.407  26.699  12.357
22856W        W91250  15.210   6.251   4.048
22857W        W91251  18.908  28.639  10.730
22858W        W91252  38.552   9.640  14.950
22859W        W91253  27.149  43.796   0.266
22860W        W91254  30.017  19.141   1.705
22861W        W91255  40.650  25.761   3.383
22862W        W91256   0.658  12.274   1.687
22863W        W91257  42.147  19.641   4.183
22864W        W91258  38.347  23.831   1.890
22865W        W91259  40.945   1.731   0.398
22866W        W91260  20.649  30.126   1.552
22867W        W91261   3.218  13.865   0.015
22868W        W91262  24.908   5.441  14.899
22869W        W91263   1.398   1.749   1.007
22870W        W91264  11.073  33.340  12.163
22871W        W91265  35.089  35.079  13.307
22872W        W91266   9.300  30.485   0.930
22873W        W91267  39.514  33.440  12.999
22874W        W91268   9.483  23.296  10.262
22875W        W91269  15.574   7.212  13.431
22876W        W91270  11.153  42.875   0.489
22877W        W91271  36.002  10.307  11.523
22878W        W91272  44.207  42.816   2.842
22879W        W91273  35.643  36.109  14.990
22880W        W91274  19.300  36.481  12.066
22881W        W91275  23.463  36.995  10.831
22882W        W91276   3.904  31.559  14.712
22883W        W91277  24.029  14.591   2.283
22884W        W91278  20.346  41.818   2.779
22885W        W91279  17.964  36.814   0.296
22886W        W91280  38.913  44.210   4.604
22887W        W91281  26.248   7.686  14.045
22888W        W91282   3.408  44.686  14.791
22889W        W91283   4.809  41.367  10.725
22890W        W91284  11.356  40.093   2.584
22891W        W91285  32.890  32.407  14.737
22892W        W91286  16.770  28.456   3.661
22893W        W91287  35.852   5.410   0.062
22894W        W91288  17.397  24.575   4.493
22895W        W91289  24.032  30.702  13.800
22896W        W91290  35.163  19.777   0.773
22897W        W91291   4.363  36.610   0.505
22898W        W91292  41.737  13.829  11.338
22899W        W91293  41.591  38.769  13.437
22900W        W91294  28.809   0.872   1.215
22901W        W91295   2.541  11.845   3.822
22902W        W91296  39.965  42.311   4.885
22903W        W91297   4.772  11.834   2.675
22904W        W91298  36.813   8.628  14.173
22905W        W91299  19.088  14.622   3.715
22906W        W91300   7.407   5.697  10.673
22907W        W91301  11.125   3.744  12.808
22908W        W91302  32.380  36.389   0.466
22909W        W91303  44.556   0.973   3.203
22910W        W91304  17.716  18.958   3.640
22911W        W91305  28.603  20.702   1.388
22912W        W91306  37.769  19.495   2.219
22913W        W91307  29.283  39.936  10.741
22914W        W91308  31.938   6.923   1.926
22915W        W91309  23.101  39.844  11.972
22916W        W91310  37.609  11.463   3.566
22917W        W91311  14.634  26.683   3.382
22918W        W91312  25.699  20.014   2.267
22919W        W91313  29.662  29.454   1.645
22920W        W91314  18.195  21.315  14.988
22921W        W91315   0.209  35.340   5.372
22922W        W91316  15.219   0.980  13.934
22923W        W91317  44.951  30.448   4.537
22924W        W91318  40.305  34.542  14.543
22925W        W91319   2.887   6.370  11.894
22926W        W91320  14.200   2.278   2.792
22927W        W91321  24.053  32.635   3.611
22928W        W91322  18.103  21.253   4.534
22929W        W91323   1.338  36.393  11.004
22930W        W91324  35.383   3.444   4.948
22931W        W91325  37.261   3.941  14.034
22932W        W91326   0.232  25.755   0.698
22933W        W91327  10.218  19.656   0.733
22934W        W91328   7.649  40.632  14.821
22935W        W91329  38.901   2.491  13.869
22936W        W91330  18.029  39.031  12.564
22937W        W91331   5.883  23.370  13.831
22938W        W91332  25.933  36.198  13.329
22939W        W91333   2.786   1.472  12.454
22940W        W91334  21.161  43.112  13.893
22941W        W91335  16.486  26.765   3.256
22942W        W91336   1.892  16.273   3.330
22943W        W91337  36.096   6.007   3.232
22944W        W91338  20.131  40.646  12.515
22945W        W91339  32.544  43.303  10.993
22946W        W91340   6.408  19.751  13.355
22947W        W91341  18.565   5.272   3.941
22948W        W91342  27.178  10.133   1.884
22949W        W91343   7.712  36.159  14.844
22950W        W91344   5.437  30.606   3.219
22951W        W91345   6.405  20.563  11.956
22952W        W91346  18.786  32.536  11.578
22953W        W91347  35.111  12.365  13.235
22954W        W91348  36.575  30.938   1.036
22955W        W91349   3.786  30.018   0.811
22956W        W91350  36.578  29.003   3.562
22957W        W91351  16.717  22.113   0.746
22958W        W91352  40.100  14.750   1.103
22959W        W91353  10.591  42.578  10.410
22960W        W91354   3.710  19.394   2.257
22961W        W91355  27.997  28.677   2.358
22962W        W91356  23.920  27.368  11.938
22963W        W91357  31.569  26.098   3.219
22964W        W91358  38.949   7.229  13.024
22965W        W91359  30.873  15.795  10.816
22966W        W91360  19.573  42.649   4.554
22967W        W91361   9.263  44.839   2.322
22968W        W91362  36.010  33.591  11.992
22969W        W91363  31.467   8.172   1.382
22970W        W91364  16.144  25.143   3.296
22971W        W91365  11.588  22.758  10.792
22972W        W91366  12.258  34.460  14.718
22973W        W91367  39.794   9.599  12.463
22974W        W91368  26.165  25.118  10.621
22975W        W91369   3.999   2.868   1.809
22976W        W91370  33.269  38.935  13.863
22977W        W91371  40.374  39.991   3.087
22978W        W91372  43.280   1.343  13.323
22979W        W91373  33.921  15.238  14.758
22980W        W91374  41.053  38.810  12.576
22981W        W91375  15.678   3.915   4.104
22982W        W91376  15.709  41.229   5.029
22983W        W91377  37.411  31.003   1.491
22984W        W91378   8.103   6.311   5.126
22985W        W91379  31.881  44.529   2.450
22986W        W91380   0.406  39.787   3.630
22987W        W91381  30.073  24.020   0.902
22988W        W91382  24.443  22.548   2.242
22989W        W91383  25.967  40.156  10.367
22990W        W91384  43.495  12.410   3.570
22991W        W91385  28.912   5.881   2.778
22992W        W91386  41.693   5.358  13.011
22993W        W91387  31.929  36.352   4.522
22994W        W91388  37.204  18.002   3.444
22995W        W91389  22.180  31.601  13.766
22996W        W91390  30.610  41.365  13.034
22997W        W91391  43.482   1.554   3.718
22998W        W91392   9.614  11.198   0.417
22999W        W91393   3.920  28.965   2.029
23000W        W91394  35.314  18.825   1.722
23001W        W91395  28.397  20.148   1.462
23002W        W91396   0.763  31.914   3.279
23003W        W91397  17.253  25.178  12.680
23004W        W91398   2.070  37.194  14.293
23005W        W91399  38.207  31.845  13.717
23006W        W91400  18.113  44.091  11.045
23007W        W91401  25.933  14.589  14.487
23008W        W91402  22.214  18.476  10.172
23009W        W91403   4.975   7.847  14.384
23010W        W91404  34.945  31.163  11.974
23011W        W91405  21.626  14.190  13.514
23012W        W91406  33.999  29.894  10.888
23013W        W91407  39.420  21.080  12.209
23014W        W91408   5.949  33.886  14.388
23015W        W91409  15.265  34.083  12.467
23016W        W91410  14.253  28.566  10.536
23017W        W91411  41.373   4.148  14.997
23018W        W91412  34.963  29.472   3.101
23019W        W91413  39.570  21.596  10.762
23020W        W91414  34.243  39.281  12.976
23021W        W91415  14.121   0.305  12.253
23022W        W91416  34.441  20.325  10.836
23023W        W91417   9.823   0.748   3.723
23024W        W91418  25.140   7.837   4.069
23025W        W91419  15.891   5.391  10.803
23026W        W91420  30.764   9.307   1.985
23027W        W91421  28.071  17.059  10.893
23028W        W91422  42.275   1.692   1.894
23029W        W91423  11.080  22.149  10.752
23030W        W91424  39.993  12.493  12.110
23031W        W91425   1.980  16.369  14.269
23032W        W91426  28.721   9.206   2.084
23033W        W91427  16.629   0.702  10.768
23034W        W91428  21.497  30.087  14.585
23035W        W91429  28.069  10.459   2.260
23036W        W91430  12.235  18.311  12.658
23037W        W91431  36.872   3.728  10.619
23038W        W91432   0.785  42.686   4.977
23039W        W91433  27.386  15.091   2.272
23040W        W91434   4.010  16.216  11.941
23041W        W91435  25.488   7.793   1.256
23042W        W91436  16.017  26.694   3.041
23043W        W91437   9.125  11.282  14.576
23044W        W91438  25.693  32.895  12.273
23045W        W91439  26.046  21.908   4.761
23046W        W91440  15.181  35.859   3.724
23047W        W91441  44.809  13.101  11.944
23048W        W91442   9.499  42.982   4.550
23049W        W91443  38.618  34.871  13.617
23050W        W91444   7.798   1.293   1.957
23051W        W91445   8.457  44.072   0.824
23052W        W91446  27.522  32.360   4.547
23053W        W91447   1.245  26.649   3.709
23054W        W91448   7.665   8.082   2.305
23055W        W91449   8.873  16.801   1.268
23056W        W91450  24.473  40.453   1.233
23057W        W91451  25.788  16.184   1.015
23058W        W91452  43.769   3.280   1.675
23059W        W91453  24.229  34.846  14.850
23060W        W91454  23.083   4.123  14.257
23061W        W91455  32.087  45.000   0.667
23062W        W91456  30.745  29.719  14.070
23063W        W91457   4.736  29.396   1.905
23064W        W91458   3.808  32.605  11.160
23065W        W91459  13.903   8.851  11.233
23066W        W91460  37.318   3.471   1.343
23067W        W91461  10.281  10.646   1.373
23068W        W91462  22.724  20.222  11.465
23069W        W91463  40.198  35.341   1.470
23070W        W91464  43.748  42.539   2.268
23071W        W91465   8.235   7.214   0.984
23072W        W91466  17.349  44.887  13.546
23073W        W91467  20.545  32.074   2.363
23074W        W91468  43.150  19.294  11.511
23075W        W91469  23.148  28.128   2.334
23076W        W91470   1.081   4.894  13.461
23077W        W91471  14.088  31.160  12.921
23078W        W91472  18.980  36.083  11.964
23079W        W91473   6.440  27.573  14.313
23080W        W91474  35.759  29.159  11.922
23081W        W91475  22.137   6.407  11.671
23082W        W91476  40.524  26.607   1.718
23083W        W91477   6.446  24.507  11.463
23084W        W91478   7.979  25.062   0.187
23085W        W91479  25.566  23.212   3.709
23086W        W91480  10.585  23.741   4.636
23087W        W91481   2.230  42.903   3.398
23088W        W91482  29.800  13.084  11.085
23089W        W91483   6.002   8.228  14.806
23090W        W91484  32.114  33.522   0.019
23091W        W91485  32.862   7.922  11.130
23092W        W91486  24.838   3.270   1.408
23093W        W91487  20.642  22.792   2.766
23094W        W91488  29.457  37.527   0.435
23095W        W91489  41.057  40.859   2.052
23096W        W91490  15.238  30.460  11.577
23097W        W91491  40.554  13.095  13.083
23098W        W91492   6.151  34.408  12.532
23099W        W91493  18.576  17.260   3.633
23100W        W91494  38.355   1.157   4.438
23101W        W91495  31.494  12.833   5.020
23102W        W91496  34.011   8.899  13.005
23103W        W91497  18.716  41.472   2.205
23104W        W91498  11.777  31.836   5.112
23105W        W91499   7.950  40.931   0.657
23106W        W91500  37.399   4.036   4.094
23107W        W91501  43.841   7.186  14.912
23108W        W91502  25.089   5.497   4.042
23109W        W91503  41.049  17.305   2.812
23110W        W91504  18.358  25.542   3.020
23111W        W91505  14.860  26.977  13.422
23112W        W91506  36.605  20.491  13.806
23113W        W91507  38.478   6.728   2.620
23114W        W91508  16.580  23.621  13.847
23115W        W91509  17.804  42.426   1.805
23116W        W91510   8.322  10.359  13.814
23117W        W91511  11.690   0.830  10.633
23118W        W91512  36.084   2.404   2.801
23119W        W91513  28.378   8.386  13.921
23120W        W91514  20.223   6.074   4.134
23121W        W91515   4.366  17.583  10.711
23122W        W91516  16.808  30.519   2.327
23123W        W91517  20.623  10.389  13.472
23124W        W91518  44.363  35.427   0.213
23125W        W91519   2.735  37.803  14.789
23126W        W91520  29.475   1.504   1.871
23127W        W91521   6.846  41.273  14.941
23128W        W91522  40.373  10.597  12.164
23129W        W91523  15.662  36.074  13.266
23130W        W91524  15.222  43.462  14.708
23131W        W91525  12.753  27.269   2.840
23132W        W91526  12.386  32.542  11.182
23133W        W91527  27.256   1.414   1.059
23134W        W91528  25.959   1.295   1.255
23135W        W91529   3.929  42.001  13.112
23136W        W91530  13.932  20.586   1.794
23137W        W91531  22.371  23.515  10.824
23138W        W91532  33.111  19.642  11.158
23139W        W91533  28.659   3.695  14.056
23140W        W91534  16.612   9.338   2.820
23141W        W91535  15.582  44.003   4.858
23142W        W91536   8.766  43.196  14.016
23143W        W91537  10.070  35.189   0.044
23144W        W91538  28.863  11.278  14.871
23145W        W91539  40.433  15.899   2.634
23146W        W91540   0.283  15.640  13.316
23147W        W91541  40.891   8.694   4.082
23148W        W91542  29.352  12.816   1.663
23149W        W91543  38.630  15.576  13.888
23150W        W91544  24.071  25.120   4.117
23151W        W91545  18.878  18.123   1.859
23152W        W91546  13.931  18.876  12.142
23153W        W91547   9.301   7.768   1.699
23154W        W91548  37.860  37.758   4.259
23155W        W91549  13.104   2.704   2.244
23156W        W91550  32.150  12.277  12.571
23157W        W91551  27.198  26.157   3.256
23158W        W91552  27.190  35.531   0.028
23159W        W91553   5.766   9.017  13.429
23160W        W91554   9.919  19.730   9.780
23161W        W91555  15.132  22.182  13.441
23162W        W91556  30.247   3.353   1.351
23163W        W91557  33.771  42.683   5.020
23164W        W91558  25.129   4.833   1.973
23165W        W91559  16.194  29.299  14.830
23166W        W91560  10.796  12.862  11.872
23167W        W91561   0.770  28.138   1.235
23168W        W91562  19.719  29.726   1.403
23169W        W91563  13.479  42.001  10.705
23170W        W91564  37.676  44.336  10.366
23171W        W91565  16.117   7.285  14.501
23172W        W91566  44.578   2.744   0.498
23173W        W91567  12.861  11.249   4.157
23174W        W91568  21.928  31.230  12.569
23175W        W91569   5.013  22.782   3.763
23176W        W91570  41.790   5.670   0.430
23177W        W91571   0.413   7.286  14.737
23178W        W91572  31.570  41.309   3.670
23179W        W91573   9.725  30.269   3.298
23180W        W91574  25.076  15.631   2.683
23181W        W91575  38.961  31.090   4.127
23182W        W91576  44.694  29.922   4.532
23183W        W91577  26.564  31.921  12.978
23184W        W91578   6.954   5.337  13.762
23185W        W91579  43.961   8.805   3.857
23186W        W91580   5.728  23.875   2.847
23187W        W91581  12.283  13.669  13.895
23188W        W91582  41.306  24.153   1.497
23189W        W91583  31.151  35.669  13.986
23190W        W91584   6.066   8.192   2.241
23191W        W91585  31.012   7.461  12.985
23192W        W91586  17.495  36.797   1.835
23193W        W91587  41.307   9.937  11.170
23194W        W91588   1.014  25.352  11.711
23195W        W91589   6.826  22.073  13.407
23196W        W91590  19.803  14.853   2.669
23197W        W91591   9.574   2.938  13.603
23198W        W91592   3.434   7.925   2.517
23199W        W91593  36.380   7.777   0.274
23200W        W91594  13.991  35.630  11.257
23201W        W91595  20.602  36.879  12.578
23202W        W91596  22.711  24.526  14.256
23203W        W91597  23.766  26.568  13.991
23204W        W91598   0.964  13.850  13.541
23205W        W91599  21.482   3.880  11.581
23206W        W91600  37.940  43.529  13.573
23207W        W91601  31.065   6.158  13.817
23208W        W91602  42.101  39.928   2.134
23209W        W91603   0.804  35.844  14.862
23210W        W91604  22.447  44.709  12.957
23211W        W91605  11.823  39.339   3.682
23212W        W91606   7.381  10.129  14.313
23213W        W91607  36.150  18.683   3.797
23214W        W91608  42.232  20.186  13.634
23215W        W91609   5.118  35.964   1.327
23216W        W91610  33.785  41.555  14.602
23217W        W91611  28.658  41.673  12.357
23218W        W91612   8.426  10.638  13.336
23219W        W91613   3.498  28.042  11.103
23220W        W91614  39.924  10.895  12.849
23221W        W91615  27.419  33.110  13.136
23222W        W91616   3.931  13.827   3.710
23223W        W91617  26.675  28.839  12.557
23224W        W91618  17.118  19.579   4.909
23225W        W91619  11.594  11.714  12.445
23226W        W91620  43.980  39.903  12.637
23227W        W91621  17.933  25.669   0.850
23228W        W91622  20.096  34.358   2.871
23229W        W91623   6.095  39.290  14.289
23230W        W91624   6.772  35.526   4.601
23231W        W91625  30.344  37.475   4.545
23232W        W91626  18.246   9.115  13.926
23233W        W91627  12.579  12.884   1.603
23234W        W91628  14.180  36.403   1.147
23235W        W91629  24.745  19.429   2.819
23236W        W91630  43.991  34.103   4.941
23237W        W91631   4.614  24.606   2.811
23238W        W91632  35.904  36.716   0.394
23239W        W91633   1.451  34.995   0.435
23240W        W91634  21.152  41.964   0.451
23241W        W91635  16.018  28.314   4.466
23242W        W91636  12.071  30.702   3.686
23243W        W91637  42.476  34.415   9.746
23244W        W91638  38.689  13.601   2.874
23245W        W91639  14.753  36.530   0.426
23246W        W91640   5.978   6.132  12.522
23247W        W91641   3.428  39.936  13.974
23248W        W91642  35.004  38.498   0.022
23249W        W91643  24.560  17.632  11.845
23250W        W91644  13.734   3.115  12.455
23251W        W91645  15.769   1.705  14.195
23252W        W91646  17.644  18.539   0.145
23253W        W91647  15.189  44.860   3.734
23254W        W91648  39.418  32.224   3.832
23255W        W91649  13.808   8.402   3.291
23256W        W91650  42.404  39.746   1.643
23257W        W91651  38.903  10.974   4.035
23258W        W91652  19.966  44.294  12.524
23259W        W91653  21.377  39.951  10.532
23260W        W91654  13.170  20.772   1.278
23261W        W91655  36.978   1.351   1.768
23262W        W91656   6.349  15.085   4.980
23263W        W91657  44.367  32.115  10.303
23264W        W91658  36.130  11.396   2.255
23265W        W91659  41.423  15.836  10.351
23266W        W91660  18.626  39.018   0.053
23267W        W91661  21.956  42.426  13.123
23268W        W91662  44.807  15.616   0.518
23269W        W91663  28.118  21.217  10.102
23270W        W91664   6.160  42.092  14.217
23271W        W91665  14.680  16.549  13.067
23272W        W91666  31.827  26.118  13.751
23273W        W91667  44.984  40.058   4.012
23274W        W91668  33.902  23.520  10.617
23275W        W91669   4.309  23.615   4.830
23276W        W91670  18.534  43.892  10.643
23277W        W91671   3.505   1.240   0.971
23278W        W91672  27.136   4.888  10.705
23279W        W91673  34.563  16.986  10.805
23280W        W91674  29.016   2.424  12.824
23281W        W91675  10.454  31.170  10.997
23282W        W91676   9.338  28.683  14.457
23283W        W91677  41.346   7.760   0.201
23284W        W91678   2.921  23.983  10.554
23285W        W91679   0.672  29.120  11.632
23286W        W91680  24.493   8.859  12.653
23287W        W91681   1.961  12.116  10.701
23288W        W91682  39.946  13.686  13.982
23289W        W91683  27.161   1.309   0.534
23290W        W91684  27.696  16.719   4.059
23291W        W91685  26.803  13.930  11.639
23292W        W91686  41.429  27.434  10.479
23293W        W91687  40.315  37.261   0.683
23294W        W91688  29.840   3.743  12.247
23295W        W91689  41.635  13.764  13.403
23296W        W91690  42.507  25.485   1.401
23297W        W91691   0.486  22.307   1.345
23298W        W91692  24.168  39.561   2.880
23299W        W91693  29.664  17.590   1.386
23300W        W91694  24.539   5.858  14.898
23301W        W91695  22.751  37.907   4.528
23302W        W91696  34.830  36.553   3.109
23303W        W91697  32.345  29.084  12.789
23304W        W91698   1.850  25.493  12.890
23305W        W91699  24.772  33.092   4.137
23306W        W91700  40.788  38.039  12.988
23307W        W91701   1.261  13.252  13.443
23308W        W91702  27.420  42.281  13.972
23309W        W91703  23.231   6.331   1.220
23310W        W91704  10.271  42.529   1.733
23311W        W91705  16.234  25.948  13.915
23312W        W91706  43.089  17.184   2.315
23313W        W91707   6.850  35.427  13.489
23314W        W91708  23.016  40.261  12.916
23315W        W91709  32.220   2.187   3.870
23316W        W91710  26.935  11.074  12.491
23317W        W91711  28.667   4.327   2.153
23318W        W91712   3.525   0.269  10.800
23319W        W91713  25.033   4.732  13.296
23320W        W91714  14.312  30.490  11.681
23321W        W91715  29.801  21.086   2.859
23322W        W91716  39.146   7.326   4.213
23323W        W91717  43.619  12.810   1.271
23324W        W91718  35.362   4.243  13.991
23325W        W91719  38.726  14.210  12.450
23326W        W91720  42.418   2.334   4.039
23327W        W91721   5.307   5.844   3.186
23328W        W91722  24.704  17.182  12.112
23329W        W91723  37.863  44.859   1.801
23330W        W91724  11.639  44.911  10.423
23331W        W91725  21.518  16.885  14.921
23332W        W91726   0.420  23.946  12.196
23333W        W91727  31.409  20.111  10.722
23334W        W91728  11.165  23.629  13.477
23335W        W91729  36.570   1.294  11.599
23336W        W91730  40.636  13.718  13.446
23337W        W91731  22.650  32.655   0.726
23338W        W91732  24.229  39.674   9.922
23339W        W91733   6.774  22.125  12.349
23340W        W91734  13.047  17.942   4.718
23341W        W91735  17.172   3.156   4.149
23342W        W91736  15.585  15.821   2.770
23343W        W91737  44.813  16.201   1.709
23344W        W91738  42.415  12.661   3.817
23345W        W91739  38.568  18.628  12.532
23346W        W91740  23.382   8.611   3.198
23347W        W91741  24.580  26.034   4.243
23348W        W91742  12.105  27.274   3.380
23349W        W91743  39.783  30.967   2.677
23350W        W91744  31.144  24.046   1.326
23351W        W91745  21.952  34.623   4.065
23352W        W91746  33.782  12.085  13.527
23353W        W91747  16.061  19.141   2.210
23354W        W91748  32.916  33.854   0.965
23355W        W91749  19.073  12.837  14.979
23356W        W91750   7.503  26.366  12.778
23357W        W91751  31.225  28.969   2.459
23358W        W91752  39.376   9.153  13.833
23359W        W91753  15.453  37.833   5.020
23360W        W91754  11.259   6.675  14.471
23361W        W91755  22.526  13.210   4.101
23362W        W91756   9.239   2.676   3.735
23363W        W91757  32.914  27.510   2.366
23364W        W91758  15.388   4.366  11.617
23365W        W91759  23.073  22.497   4.399
23366W        W91760  35.368  44.337  13.449
23367W        W91761  27.049   4.111   3.208
23368W        W91762  28.521   8.883  11.947
23369W        W91763   4.666  31.563   2.281
23370W        W91764  25.058  16.768  14.558
23371W        W91765  27.699  10.650  14.409
23372W        W91766  15.553  42.257  12.143
23373W        W91767  38.430  36.400  10.462
23374W        W91768  21.953   2.879  14.857
23375W        W91769  36.945  27.511   3.727
23376W        W91770   2.941  26.157   0.392
23377W        W91771  16.813  23.489  12.441
23378W        W91772  22.016   6.026  12.002
23379W        W91773  34.064  24.621   0.943
23380W        W91774  22.646  19.105   4.657
23381W        W91775  26.476  22.747  14.320
23382W        W91776  14.739  18.222   2.423
23383W        W91777  25.018  14.883  11.677
23384W        W91778  28.009  27.860  13.158
23385W        W91779  43.226  24.257  14.432
23386W        W91780  43.944  43.453   1.469
23387W        W91781  23.102  14.357   0.239
23388W        W91782  16.776   2.892  12.053
23389W        W91783  29.703   7.577  13.313
23390W        W91784  26.783  36.056  11.578
23391W        W91785   9.901   8.949   0.374
23392W        W91786   2.212  15.498   4.932
23393W        W91787  34.137  21.197  14.810
23394W        W91788   9.247  32.719   0.181
23395W        W91789  35.928  20.984   4.202
23396W        W91790  12.730   5.963   5.068
23397W        W91791  33.802  27.436  10.658
23398W        W91792   6.244  18.768  13.828
23399W        W91793  30.085  24.062   3.803
23400W        W91794  43.805  18.296  14.484
23401W        W91795  23.134  44.480  11.010
23402W        W91796  44.014   6.786   3.872
23403W        W91797  20.558  28.970  11.990
23404W        W91798  13.067  13.818  11.117
23405W        W91799  39.323   0.247  11.843
23406W        W91800  32.896  38.128   3.304
23407W        W91801  28.138   9.442   4.838
23408W        W91802  28.663  26.616  12.439
23409W        W91803  23.576  30.966  10.801
23410W        W91804   3.789  39.496   3.625
23411W        W91805   3.301  42.322  12.037
23412W        W91806   1.053   5.817  13.855
23413W        W91807   4.789  30.630  11.614
23414W        W91808  37.611   7.143  13.205
23415W        W91809  23.723   5.613  12.545
23416W        W91810  21.272   6.983   0.964
23417W        W91811   4.382  44.228  14.114
23418W        W91812  23.692   1.009   3.697
23419W        W91813  10.240  15.818   0.399
23420W        W91814  22.862  34.386   3.299
23421W        W91815  37.056  14.162   4.917
23422W        W91816  10.324  40.289  14.055
23423W        W91817  32.011  39.539  12.093
23424W        W91818  39.453  43.555   2.324
23425W        W91819  24.650   9.274   1.958
23426W        W91820  10.525  12.937   4.548
23427W        W91821  43.913  39.937  11.091
23428W        W91822   8.638   5.942  13.734
23429W        W91823  34.088  28.559   3.391
23430W        W91824  21.122  24.112  14.507
23431W        W91825   6.547  22.978   1.828
23432W        W91826  20.185  34.384  10.232
23433W        W91827   4.949   1.350  14.471
23434W        W91828  23.940  21.198  11.616
23435W        W91829   8.844   3.806  14.904
23436W        W91830  42.560  44.512   4.108
23437W        W91831  11.731  40.318   2.157
23438W        W91832  16.945  41.345  12.003
23439W        W91833  19.386   9.588  13.615
23440W        W91834  33.327  20.725   0.721
23441W        W91835  17.686  24.568  10.536
23442W        W91836  24.355  13.310  10.453
23443W        W91837  12.777   0.283   0.933
23444W        W91838   8.895   9.643  12.138
23445W        W91839  20.564  21.174   1.268
23446W        W91840   3.735  10.676  13.326
23447W        W91841   4.646  11.571   3.175
23448W        W91842  21.959   7.866  13.555
23449W        W91843  25.046  39.035   4.535
23450W        W91844   8.184  18.660   1.130
23451W        W91845  15.759  35.433  13.956
23452W        W91846  21.097  19.470   4.092
23453W        W91847  11.361   8.127   2.798
23454W        W91848   1.408  13.724   1.431
23455W        W91849  17.476  31.870   3.470
23456W        W91850  39.342  30.539   1.792
23457W        W91851  33.082  18.867   0.227
23458W        W91852  35.340   0.676   1.051
23459W        W91853  30.865  12.112  12.135
23460W        W91854  11.285  24.681   1.242
23461W        W91855   8.222  33.959  13.970
23462W        W91856  15.362  33.024  14.945
23463W        W91857  24.560  39.624  13.292
23464W        W91858  20.049  33.534  12.203
23465W        W91859  11.684   4.384   0.267
23466W        W91860   9.368   9.684  12.958
23467W        W91861  41.171  21.497  14.493
23468W        W91862  19.008   0.975  12.202
23469W        W91863  28.100  37.218   2.762
23470W        W91864  21.364   2.711   2.282
23471W        W91865   5.930  14.325  12.582
23472W        W91866  23.363  31.755  13.412
23473W        W91867   7.269  10.789   2.970
23474W        W91868  27.954   7.879  11.925
23475W        W91869  25.205  31.140   1.373
23476W        W91870  43.253  35.713   3.616
23477W        W91871  43.019  11.776   1.195
23478W        W91872  42.339   0.288   2.470
23479W        W91873  25.944   8.957  12.621
23480W        W91874  40.562  38.521   0.264
23481W        W91875   0.042  31.880   4.091
23482W        W91876  22.504  43.992  12.056
23483W        W91877  32.268  22.040   2.215
23484W        W91878  23.456  21.101  12.879
23485W        W91879  22.920  28.871   1.760
23486W        W91880  10.399  20.266   3.657
23487W        W91881  29.490  34.061  12.413
23488W        W91882   2.202  26.037  12.058
23489W        W91883  14.760  44.847  11.251
23490W        W91884   2.212  16.816  11.935
23491W        W91885  27.700  23.607  13.441
23492W        W91886  43.318  30.989   1.472
23493W        W91887  10.936  17.663  12.863
23494W        W91888  31.273  14.608  11.139
23495W        W91889  19.753  25.547  13.413
23496W        W91890   1.945  10.618  14.488
23497W        W91891   6.958  33.125  10.748
23498W        W91892  19.697  10.881  14.988
23499W        W91893   8.310  12.290   2.412
23500W        W91894  15.626   1.456   0.475
23501W        W91895  14.561  39.414  10.670
23502W        W91896  38.780  30.767  14.374
23503W        W91897   2.553  31.174   1.311
23504W        W91898  15.821  29.459   3.322
23505W        W91899   5.658  13.249   3.725
23506W        W91900  12.232  21.106  14.935
23507W        W91901  25.630  39.398   3.279
23508W        W91902  35.197  28.182   0.310
23509W        W91903  31.921  18.165  12.777
23510W        W91904   6.893  14.501   4.519
23511W        W91905  35.955  33.947   0.171
23512W        W91906  21.633  12.234  11.633
23513W        W91907   3.503   0.871  12.295
23514W        W91908   8.196  31.420  14.338
23515W        W91909  26.076  14.218   0.672
23516W        W91910   0.748  33.538  11.435
23517W        W91911  30.604  37.109   3.354
23518W        W91912  32.604   7.885   2.780
23519W        W91913  17.126  35.158  13.643
23520W        W91914   5.772  39.883   4.597
23521W        W91915  29.041  20.738   3.857
23522W        W91916  19.164   3.512   3.764
23523W        W91917  22.663  14.159   4.850
23524W        W91918   7.344  24.924  11.215
23525W        W91919   4.939  44.358   5.244
23526W        W91920  20.484  38.284   0.916
23527W        W91921  19.764  31.703  11.222
23528W        W91922  40.288  37.503   3.398
23529W        W91923  26.912  38.197  13.046
23530W        W91924  25.408  40.597   1.992
23531W        W91925  26.950  42.842  12.158
23532W        W91926  28.517  24.471   3.310
23533W        W91927  26.721  37.800  12.460
23534W        W91928   9.322  31.985   1.642
23535W        W91929  40.825   6.812   0.229
23536W        W91930  11.653  42.089  14.014
23537W        W91931   1.809  25.999   2.790
23538W        W91932  35.860   2.901   1.862
23539W        W91933  29.685  40.185   5.069
23540W        W91934  17.511  29.646   0.462
23541W        W91935  15.863   1.294   0.960
23542W        W91936   8.219  22.621   0.099
23543W        W91937  10.169  35.665   5.067
23544W        W91938  29.148  21.640   2.894
23545W        W91939  15.001  27.732  14.797
23546W        W91940  17.275   7.901  11.206
23547W        W91941  26.716  11.269   0.242
23548W        W91942   0.943  35.509   0.732
23549W        W91943  30.570   8.924  11.089
23550W        W91944   1.509  35.105   3.287
23551W        W91945  43.867   4.284   3.843
23552W        W91946  19.162   9.268  11.438
23553W        W91947  43.941  14.125   0.563
23554W        W91948  29.689   5.224   2.795
23555W        W91949   0.544  43.923  12.114
23556W        W91950   6.629   0.291  12.684
23557W        W91951   4.702  19.297   0.423
23558W        W91952  30.558  17.770   4.546
23559W        W91953  13.585  22.732   3.244
23560W        W91954   4.598  18.734   3.287
23561W        W91955  22.167   4.797  10.922
23562W        W91956   1.837  17.613  12.115
23563W        W91957  21.015  10.362  10.003
23564W        W91958   4.493  26.472  13.858
23565W        W91959  41.273  41.518  14.583
23566W        W91960  22.171  26.957   2.431
23567W        W91961   3.460  24.915  11.297
23568W        W91962  33.327  16.012  11.452
23569W        W91963   4.081  26.962   1.157
23570W        W91964  21.992  42.797  10.892
23571W        W91965  19.201  13.063   0.959
23572W        W91966  29.521  28.405  14.700
23573W        W91967  35.056   2.645  10.735
23574W        W91968  23.877  38.903   3.244
23575W        W91969  20.576  37.940  10.591
23576W        W91970  20.067  25.705  13.783
23577W        W91971  37.887  29.698   0.841
23578W        W91972  24.978  12.741   3.732
23579W        W91973  19.683  33.569  13.127
23580W        W91974  37.451  26.391  11.985
23581W        W91975  41.305   4.532   1.891
23582W        W91976  13.680  14.183  13.016
23583W        W91977  11.154  43.588  11.543
23584W        W91978  43.127  43.895   1.747
23585W        W91979  18.190  38.761  13.552
23586W        W91980   6.609  25.007  13.544
23587W        W91981   1.696  35.894  13.870
23588W        W91982  25.699  41.453   1.966
23589W        W91983   8.348   3.214  12.408
23590W        W91984  31.454   7.145   3.303
23591W        W91985   4.511  20.376  11.171
23592W        W91986   8.288   0.524   3.467
23593W        W91987   0.750  14.581   0.692
23594W        W91988   1.325   1.775  10.804
23595W        W91989   1.901  18.822   0.396
23596W        W91990  18.705  40.290  13.445
23597W        W91991   8.954  10.124   2.104
23598W        W91992  34.989  10.588  11.740
23599W        W91993  15.913  15.012   3.150
23600W        W91994  34.467  35.546  13.956
23601W        W91995  16.309  27.996   0.703
23602W        W91996  15.137  22.579   1.652
23603W        W91997  26.295  34.644   1.346
23604W        W91998  18.027   6.770  13.134
23605W        W91999  41.047  14.443   3.276
23606W        W92000  12.684  23.619  13.982
23607W        W92001  43.942   0.267  13.854
23608W        W92002  15.858   9.012   4.617
23609W        W92003   1.877  29.567  11.085
23610W        W92004  31.319  34.537  14.677
23611W        W92005  20.051  23.462   0.372
23612W        W92006  42.035  42.574   0.847
23613W        W92007   2.730  43.166   2.589
23614W        W92008   6.197  23.262  14.500
23615W        W92009  43.756  33.477   0.480
23616W        W92010   8.038  29.825  11.635
23617W        W92011  22.750  30.593  10.901
23618W        W92012  24.802   9.306  13.419
23619W        W92013   8.719   2.822   2.137
23620W        W92014   0.305   1.277  14.718
23621W        W92015  42.102  44.868   0.406
23622W        W92016  42.367   3.236   2.817
23623W        W92017   5.521   9.440   3.096
23624W        W92018   9.726  16.999  12.630
23625W        W92019  23.412  35.043   0.840
23626W        W92020  22.050   1.538   2.245
23627W        W92021   0.508   5.905  10.592
23628W        W92022   9.126  17.728   1.972
23629W        W92023  44.915   0.940  11.996
23630W        W92024  28.454  15.810  11.126
23631W        W92025  44.204  32.268   3.212
23632W        W92026  28.616   8.160  10.581
23633W        W92027  29.466  22.484  11.936
23634W        W92028  15.560  40.409  14.232
23635W        W92029  24.284  14.169  10.731
23636W        W92030   9.712  29.723   3.284
23637W        W92031   5.836  32.663  13.928
23638W        W92032  29.216  11.639  12.460
23639W        W92033   7.886  24.093   1.877
23640W        W92034  29.028   4.185   2.874
23641W        W92035   0.208  24.294  11.895
23642W        W92036  42.569  35.527   1.849
23643W        W92037  26.175  31.981  14.866
23644W        W92038  35.805  18.720   0.519
23645W        W92039  37.550   3.433  12.608
23646W        W92040   6.109  21.285   2.005
23647W        W92041  19.824  36.992  13.962
23648W        W92042  14.514  18.158  10.952
23649W        W92043  26.450  36.563  14.435
23650W        W92044  12.122  36.173   3.531
23651W        W92045  40.491  19.686   3.623
23652W        W92046  43.271  14.766   3.727
23653W        W92047   2.587  27.146  10.678
23654W        W92048  38.007  20.575  12.175
23655W        W92049  40.468  27.608  14.346
23656W        W92050  44.909   2.880   1.522
23657W        W92051  30.056  38.313   3.431
23658W        W92052  23.525  27.773  11.855
23659W        W92053  36.639   7.906  12.515
23660W        W92054  16.756  11.632  10.684
23661W        W92055  35.985  40.991  13.764
23662W        W92056  17.236  25.243   2.901
23663W        W92057  22.549  22.888  10.237
23664W        W92058  33.147  40.100   3.837
23665W        W92059  36.609  19.624   4.973
23666W        W92060  11.844  24.055   1.001
23667W        W92061  33.063  24.032  10.787
23668W        W92062  32.086  15.088  11.987
23669W        W92063   4.359  37.555  13.052
23670W        W92064   3.782   1.301  13.456
23671W        W92065  27.024  21.502   2.517
23672W        W92066   2.521  26.718   4.847
23673W        W92067  37.804   8.162   4.440
23674W        W92068  37.013  14.685   1.687
23675W        W92069  11.269  37.858   0.497
23676W        W92070   9.008  25.816   4.225
23677W        W92071  31.424   6.399  10.958
23678W        W92072  41.259  10.717  14.577
23679W        W92073  31.307   9.679   1.338
23680W        W92074   6.741   2.000   2.262
23681W        W92075  40.057  25.026   3.740
23682W        W92076   3.297   4.789   2.819
23683W        W92077  15.988  28.962  10.212
23684W        W92078  32.941  10.200  12.014
23685W        W92079  36.517  42.921  11.587
23686W        W92080  12.389  29.723  11.616
23687W        W92081  30.010  12.798  13.474
23688W        W92082  32.558  20.507  13.339
23689W        W92083  24.228  42.403   3.606
23690W        W92084   7.324  19.499   2.170
23691W        W92085  43.316  32.941  11.998
23692W        W92086  36.715  28.851   5.043
23693W        W92087  14.200  30.672  13.477
23694W        W92088  42.939  32.946   3.258
23695W        W92089  31.089  18.249   2.838
23696W        W92090   6.916  39.346   4.690
23697W        W92091  32.513  40.297  11.946
23698W        W92092  37.921   0.615   0.394
23699W        W92093  44.803  12.111   1.532
23700W        W92094  17.838  14.860  14.534
23701W        W92095   8.861  14.387   1.925
23702W        W92096   9.931  26.283  10.964
23703W        W92097  11.471  42.410   2.894
23704W        W92098  31.863  31.580   1.309
23705W        W92099  19.815   2.314   2.307
23706W        W92100  18.991  20.683   3.687
23707W        W92101  30.220  31.681  14.408
23708W        W92102  44.012   3.430  13.680
23709W        W92103  41.585  38.943  14.334
23710W        W92104  20.944   5.897   2.661
23711W        W92105  28.158  44.259   3.471
23712W        W92106  11.241  25.566   0.976
23713W        W92107  40.904  39.030  13.988
23714W        W92108  10.379  22.264   5.102
23715W        W92109  20.091  35.945  10.641
23716W        W92110   2.910  37.589  14.326
23717W        W92111  17.686  36.179   3.183
23718W        W92112   1.225  15.091   0.387
23719W        W92113  41.115   2.509   0.773
23720W        W92114  13.119   7.196   3.110
23721W        W92115  40.425  22.385  10.677
23722W        W92116   7.255  38.658  11.453
23723W        W92117  18.564  42.681   5.003
23724W        W92118   8.439  40.085  13.782
23725W        W92119   5.213  22.263   2.178
23726W        W92120  41.865  43.444  14.389
23727W        W92121  35.873  27.995   2.384
23728W        W92122  31.833  27.518  11.109
23729W        W92123   7.424  23.651   4.430
23730W        W92124  25.569  28.247   4.700
23731W        W92125  34.381  13.525  13.481
23732W        W92126  20.293  32.528   0.829
23733W        W92127   4.795  15.006  14.285
23734W        W92128   9.578  30.902  14.477
23735W        W92129   4.794  32.358  13.548
23736W        W92130  37.737   1.302  13.522
23737W        W92131  43.273   5.210  12.910
23738W        W92132  30.491  32.093   3.353
23739W        W92133  41.617  19.593  11.201
23740W        W92134  22.071  14.225  14.320
23741W        W92135  31.371  19.523   5.028
23742W        W92136  14.078  17.913  11.104
23743W        W92137   6.789  11.566   0.856
23744W        W92138  31.978  10.748   3.438
23745W        W92139  21.039  29.686   2.775
23746W        W92140  34.768  13.142   4.000
23747W        W92141  13.238  12.901  14.858
23748W        W92142  30.554  25.752   0.194
23749W        W92143  18.095   0.535  10.936
23750W        W92144  18.538  20.543   0.695
23751W        W92145  14.710  22.332  14.452
23752W        W92146  18.051  44.952   3.287
23753W        W92147  42.267  12.231  12.836
23754W        W92148  41.483  21.600  11.261
23755W        W92149  39.302  33.155  12.602
23756W        W92150   8.221  19.541   2.155
23757W        W92151  15.909  31.891  10.828
23758W        W92152   8.606   2.826  14.840
23759W        W92153  28.638  26.444  14.202
23760W        W92154   9.399  15.717   2.819
23761W        W92155  17.123  39.938  11.176
23762W        W92156  22.385  31.108   0.707
23763W        W92157  27.842   1.649  11.113
23764W        W92158  30.712  31.920   0.093
23765W        W92159  16.157   6.839  13.348
23766W        W92160  26.239   3.708  13.855
23767W        W92161  37.258  12.311   5.221
23768W        W92162  22.181  32.672  13.983
23769W        W92163   3.957  44.133   4.768
23770W        W92164  22.679  25.908  11.479
23771W        W92165  43.514  14.384  13.623
23772W        W92166  26.219   0.717   1.828
23773W        W92167  43.104  12.276   1.770
23774W        W92168  13.588  15.557  13.553
23775W        W92169  27.111   8.922  10.645
23776W        W92170  37.819  29.049  14.841
23777W        W92171  16.690  21.659  14.988
23778W        W92172  23.557  18.861  14.220
23779W        W92173  18.336  43.377  14.807
23780W        W92174  32.673  25.095  11.083
23781W        W92175  23.484  28.951   1.704
23782W        W92176  33.513  19.260   2.331
23783W        W92177  11.446   6.179  13.617
23784W        W92178   9.628  20.977   0.879
23785W        W92179  31.943  28.340   3.793
23786W        W92180   3.399  17.598  10.241
23787W        W92181   4.842  26.889   2.684
23788W        W92182  24.649  19.513   3.706
23789W        W92183  24.811  41.310  13.408
23790W        W92184  26.476  28.723   3.215
23791W        W92185  20.699   8.109  11.957
23792W        W92186  29.712  33.771   0.320
23793W        W92187   0.892  27.943   5.002
23794W        W92188   1.512  38.418  12.608
23795W        W92189  41.994  14.430   3.234
23796W        W92190  10.418  18.218   1.952
23797W        W92191  20.322  43.519  13.060
23798W        W92192  44.927  14.235   1.497
23799W        W92193  43.037  35.015   4.213
23800W        W92194  19.814  19.300  11.641
23801W        W92195  18.251  13.751   3.788
23802W        W92196  31.679   0.884  13.160
23803W        W92197  33.578  14.215  12.240
23804W        W92198  25.272  43.247  13.524
23805W        W92199  31.130   6.710  11.225
23806W        W92200   3.879   8.344  13.528
23807W        W92201  40.212  11.815   2.706
23808W        W92202  27.357  30.145  12.569
23809W        W92203  10.133  30.371   3.799
23810W        W92204  40.804  13.169   0.409
23811W        W92205  22.565  23.611   4.146
23812W        W92206  38.422  21.972  12.521
23813W        W92207  31.398  29.507   0.795
23814W        W92208   8.880   7.870   1.405
23815W        W92209  39.077   6.746   0.853
23816W        W92210  26.840  36.630  13.044
23817W        W92211   5.368   2.948  14.462
23818W        W92212   3.452  23.915   0.073
23819W        W92213  36.459  10.330  13.360
23820W        W92214  14.569  25.269  11.928
23821W        W92215  21.024   0.812  11.905
23822W        W92216   8.455  12.648  10.579
23823W        W92217  12.829   2.727   4.328
23824W        W92218  14.281  32.825   3.672
23825W        W92219   8.849  19.317   0.849
23826W        W92220   8.565   4.780   3.036
23827W        W92221   1.527  11.390   1.682
23828W        W92222  22.383  24.413   0.184
23829W        W92223  13.670  18.292  11.596
23830W        W92224  25.580  19.748   1.432
23831W        W92225  19.669  36.383   3.929
23832W        W92226  32.626  35.943   0.616
23833W        W92227  24.024  14.102  11.169
23834W        W92228  11.784  22.365   3.273
23835W        W92229  35.801   2.186  11.176
23836W        W92230  29.160   8.784   3.619
23837W        W92231   6.306  19.782  12.849
23838W        W92232  42.995  12.618   4.574
23839W        W92233  26.124   5.001   3.536
23840W        W92234  38.774  43.689   2.233
23841W        W92235  41.457  36.861   0.249
23842W        W92236   3.471  17.133   2.565
23843W        W92237  17.993   3.323  10.619
23844W        W92238  10.273   3.709  12.854
23845W        W92239  18.470  28.712   0.909
23846W        W92240  12.162  24.107  11.691
23847W        W92241  26.191   2.489  13.379
23848W        W92242  15.679  39.139  12.720
23849W        W92243  40.672   8.183   3.596
23850W        W92244   7.758   4.219   1.255
23851W        W92245  27.144   2.818  13.889
23852W        W92246  30.058  36.772   2.033
23853W        W92247   8.402  18.263   1.812
23854W        W92248   6.435  43.968  14.236
23855W        W92249   7.355   5.014  13.701
23856W        W92250   5.187  13.586  12.396
23857W        W92251   2.093  25.068  13.827
23858W        W92252  27.412   2.676  12.235
23859W        W92253  16.029  29.242  10.633
23860W        W92254  15.172   5.451  11.171
23861W        W92255  41.847   9.128  13.141
23862W        W92256   4.738  43.543  10.903
23863W        W92257   3.070  33.169   4.186
23864W        W92258  32.586  10.090   4.036
23865W        W92259  33.460   3.292  14.156
23866W        W92260  28.884  19.258   3.479
23867W        W92261   7.600  32.837   4.407
23868W        W92262  32.222  24.066  12.916
23869W        W92263  31.874   6.579  10.770
23870W        W92264   7.698  35.610   0.725
23871W        W92265  24.192  37.587  12.417
23872W        W92266  21.764  22.799  10.776
23873W        W92267  33.694  43.473   3.618
23874W        W92268  34.981  40.039   1.743
23875W        W92269  36.923  29.898   1.766
23876W        W92270   9.355  22.032   2.775
23877W        W92271  31.554   9.432   0.007
23878W        W92272  32.367  38.503  11.044
23879W        W92273  17.556  26.812   9.797
23880W        W92274  37.389  19.651  10.770
23881W        W92275  26.615  32.846   4.529
23882W        W92276  11.590   9.152  11.185
23883W        W92277   4.173  33.123   1.126
23884W        W92278  26.986  35.026  14.490
23885W        W92279  31.683   1.406  14.893
23886W        W92280   2.635  40.839  13.381
23887W        W92281  35.955  35.604   1.034
23888W        W92282   6.278  18.280   1.736
23889W        W92283   8.721  17.295  12.453
23890W        W92284  35.494  39.741  12.399
23891W        W92285  36.848   7.305  10.723
23892W        W92286   6.256  16.183  14.718
23893W        W92287   4.448  12.129   1.478
23894W        W92288  18.062  40.840  14.345
23895W        W92289  30.849  26.076   4.625
23896W        W92290  32.652  37.449  14.341
23897W        W92291  16.706  27.449  13.492
23898W        W92292   9.529  43.300   0.410
23899W        W92293   3.056  29.278   4.231
23900W        W92294  17.206  43.098   1.691
23901W        W92295  42.219   8.748   4.469
23902W        W92296   3.494  12.514   5.210
23903W        W92297  37.366  25.639   1.922
23904W        W92298   8.178  30.976  11.746
23905W        W92299  23.679  18.363  14.061
23906W        W92300  14.368   2.487   2.303
23907W        W92301   3.908  43.664   4.559
23908W        W92302   2.524  32.295  14.458
23909W        W92303   0.807  42.293   2.402
23910W        W92304  43.834  44.011   3.826
23911W        W92305  20.859  15.607  11.939
23912W        W92306  25.264  28.591  12.112
23913W        W92307  18.547  40.137   2.386
23914W        W92308  43.868  29.531  10.589
23915W        W92309  38.337  32.886   4.356
23916W        W92310  27.462   2.664   0.228
23917W        W92311  31.651  16.169  14.155
23918W        W92312   4.635  30.449   1.677
23919W        W92313   7.096  23.049   0.680
23920W        W92314  15.082   8.876   0.931
23921W        W92315  23.246   9.108   3.111
23922W        W92316   0.139  24.226  13.060
23923W        W92317   3.957  36.347  11.708
23924W        W92318  37.406  40.415  10.356
23925W        W92319  43.740  19.709  10.391
23926W        W92320  19.305  25.392  14.227
23927W        W92321  14.715  40.345  14.921
23928W        W92322  15.562  17.612   1.840
23929W        W92323  27.216  24.609  12.113
23930W        W92324  28.116  10.093  11.858
23931W        W92325   8.685   4.120   0.740
23932W        W92326  24.508  35.105   1.430
23933W        W92327  20.791  26.931  11.169
23934W        W92328  14.994  16.251  11.088
23935W        W92329  21.747  29.667  10.658
23936W        W92330  39.330  25.572   1.361
23937W        W92331   9.620  24.566  13.529
23938W        W92332  38.396  15.845  13.514
23939W        W92333  42.320  17.664  14.823
23940W        W92334  41.228   0.340   1.805
23941W        W92335  20.530  40.968   1.268
23942W        W92336  38.867  41.326  13.331
23943W        W92337   1.965  40.271   4.562
23944W        W92338  37.327  32.313   1.995
23945W        W92339  43.354  26.533   2.375
23946W        W92340   6.299  21.175   1.052
23947W        W92341  11.997  17.692   4.289
23948W        W92342  42.458   9.217   5.029
23949W        W92343  33.842   2.664  11.978
23950W        W92344  27.014   6.265   0.670
23951W        W92345  22.000  34.720  11.248
23952W        W92346  18.339  39.580   2.762
23953W        W92347  22.138  29.546  13.084
23954W        W92348  17.579  34.899  13.947
23955W        W92349  17.635  36.945   4.321
23956W        W92350  20.841  29.147  13.842
23957W        W92351   2.475  23.985   0.328
23958W        W92352  32.033  17.576  10.584
23959W        W92353   1.779  10.288  12.061
23960W        W92354  22.083  11.492   0.255
23961W        W92355   8.582   0.116   3.619
23962W        W92356   8.355  40.853  13.491
23963W        W92357  31.449  41.828   2.714
23964W        W92358  21.140  10.237  13.418
23965W        W92359   0.515  26.207   2.643
23966W        W92360  39.784  33.314  11.129
23967W        W92361  44.356  22.117  14.504
23968W        W92362   0.772  24.996  12.555
23969W        W92363   8.443  24.333  14.806
23970W        W92364  23.482  36.291   4.623
23971W        W92365  22.543  18.752   3.101
23972W        W92366   9.134  31.992   4.143
23973W        W92367  36.915  24.935   2.170
23974W        W92368  14.631   7.909  10.641
23975W        W92369  13.859   7.345  13.040
23976W        W92370   7.808  33.475  13.970
23977W        W92371  13.403  12.630  14.429
23978W        W92372   3.711   1.218   3.200
23979W        W92373  22.948  33.140   2.810
23980W        W92374  42.052  17.082  14.112
23981W        W92375  26.991  24.027  12.904
23982W        W92376  38.969  32.977   1.786
23983W        W92377  20.664  41.379   1.531
23984W        W92378   4.189  25.869   3.330
23985W        W92379   1.264  29.704   4.198
23986W        W92380  36.762  27.924   2.126
23987W        W92381  32.386   1.906  13.048
23988W        W92382  32.052  19.608  11.141
23989W        W92383   0.794   3.744   2.748
23990W        W92384   6.817   2.749   9.604
23991W        W92385  27.213  36.385  14.877
23992W        W92386  21.711  43.017  14.018
23993W        W92387  17.578  21.671  12.536
23994W        W92388  37.959  20.576   2.779
23995W        W92389  43.769   4.508   2.144
23996W        W92390  31.451   4.457  11.104
23997W        W92391  25.221  10.720   3.300
23998W        W92392  43.401  20.685   1.826
23999W        W92393  24.321  32.660   1.504
24000W        W92394  20.618  10.604  14.713
24001W        W92395  28.180  14.215   3.595
24002W        W92396  36.288  20.788   2.647
24003W        W92397  28.479  30.624   3.180
24004W        W92398  20.417  35.481  11.006
24005W        W92399  39.892  31.010  10.630
24006W        W92400   2.007  42.224  12.982
24007W        W92401  35.833  26.093   3.881
24008W        W92402  35.071   1.486   4.294
24009W        W92403   4.364   1.993  14.029
24010W        W92404  20.940  32.434  12.159
24011W        W92405  43.291  25.028  10.729
24012W        W92406   9.450  27.218  10.136
24013W        W92407   3.239  19.618   2.383
24014W        W92408   5.339  27.529  12.028
24015W        W92409  11.326  40.989  14.867
24016W        W92410  44.772  32.956  11.683
24017W        W92411  15.362   0.857   0.229
24018W        W92412  37.107   5.419  12.688
24019W        W92413  14.739  25.576  10.643
24020W        W92414  16.384  28.542   9.406
24021W        W92415  40.580  23.854  11.210
24022W        W92416  12.831  13.271   4.556
24023W        W92417  41.173  43.986  13.843
24024W        W92418   3.334   3.493   0.012
24025W        W92419  11.490  40.878   0.926
24026W        W92420  27.690   8.636  11.585
24027W        W92421   2.458  10.904   1.890
24028W        W92422  12.059  19.584  11.124
24029W        W92423  43.051  14.214  14.458
24030W        W92424  37.608   1.399   1.096
24031W        W92425  14.874   8.771   2.810
24032W        W92426  20.286  24.024  14.786
24033W        W92427   6.195   8.757   0.337
24034W        W92428  35.584  10.897  14.864
24035W        W92429  37.763  36.690   1.340
24036W        W92430  14.662   9.152  13.475
24037W        W92431   9.897  19.687   0.321
24038W        W92432  29.082  32.078   3.188
24039W        W92433   4.888  30.401  11.163
24040W        W92434  40.483  36.355   4.877
24041W        W92435  40.248  34.849  13.643
24042W        W92436  43.544  34.425   4.959
24043W        W92437  27.410  13.855  10.714
24044W        W92438   4.448  31.238   0.774
24045W        W92439  16.314  19.953  13.463
24046W        W92440  13.246  27.514  11.537
24047W        W92441  33.293  41.307   2.613
24048W        W92442   9.901  27.109   2.875
24049W        W92443  21.744  16.161   4.562
24050W        W92444  31.703  22.229  12.451
24051W        W92445   9.679  28.418   0.029
24052W        W92446  22.739  36.580  14.912
24053W        W92447  23.582  39.873  11.727
24054W        W92448  36.386  42.071  10.624
24055W        W92449  10.267   8.638   1.464
24056W        W92450  33.269  19.719  14.272
24057W        W92451   9.230  25.482  14.919
24058W        W92452  11.864  29.652  12.992
24059W        W92453   9.425  36.196   2.804
24060W        W92454  14.649  18.601  10.685
24061W        W92455  36.429  14.028  14.381
24062W        W92456  38.551   3.848   2.822
24063W        W92457  37.867   0.437   4.711
24064W        W92458  38.616  43.866  11.085
24065W        W92459   8.487   0.423   0.671
24066W        W92460  24.404   5.363  13.362
24067W        W92461   1.696  38.014   0.275
24068W        W92462  18.793  31.181   0.318
24069W        W92463   6.214  25.416   3.813
24070W        W92464   4.072  37.875  11.177
24071W        W92465  22.548  12.841   4.747
24072W        W92466  38.865  26.241   4.714
24073W        W92467  30.764  28.671   4.519
24074W        W92468  44.321  34.551   2.789
24075W        W92469  26.660  25.012  14.890
24076W        W92470   4.470   3.727  12.883
24077W        W92471  38.313  23.312   2.644
24078W        W92472  38.021   8.650   3.275
24079W        W92473  22.337  20.593  12.611
24080W        W92474  17.707  17.510   2.404
24081W        W92475  13.248  40.540   3.352
24082W        W92476  36.467  27.812   4.422
24083W        W92477   1.521   3.917   2.273
24084W        W92478   5.306  32.423  12.875
24085W        W92479  21.544  28.526   3.280
24086W        W92480  32.845  38.397  11.318
24087W        W92481  40.993  40.460   4.632
24088W        W92482  34.798  27.232   0.273
24089W        W92483  42.502  12.117  14.989
24090W        W92484  31.013  36.162  12.918
24091W        W92485  40.614   5.679   4.210
24092W        W92486  39.289  19.308  13.887
24093W        W92487  14.231  19.798   4.709
24094W        W92488   4.742  35.339  12.697
24095W        W92489  27.684  39.869  12.856
24096W        W92490  38.070  30.498   1.363
24097W        W92491  36.016   9.882   2.415
24098W        W92492  33.148   9.254  13.057
24099W        W92493  29.199  29.986   0.276
24100W        W92494  40.249  39.936   2.167
24101W        W92495  41.909  27.702   4.528
24102W        W92496   1.923  11.147  14.425
24103W        W92497   5.038  24.178  11.900
24104W        W92498  40.528  33.736   4.578
24105W        W92499   5.960  20.773  10.772
24106W        W92500   4.870   0.336   4.092
24107W        W92501  43.837  19.184  12.572
24108W        W92502  44.371  27.946  11.686
24109W        W92503  14.763  35.474   4.460
24110W        W92504  33.100  21.368   1.252
24111W        W92505  44.366  41.337   1.936
24112W        W92506   3.587  39.597   2.639
24113W        W92507  21.707  37.092  13.032
24114W        W92508  14.633  44.008   3.777
24115W        W92509  13.662  15.659   4.561
24116W        W92510   0.187   0.985   0.533
24117W        W92511  15.166  20.265  12.098
24118W        W92512   5.787  33.960   2.377
24119W        W92513  42.726  11.865  11.434
24120W        W92514  22.565  26.729  11.082
24121W        W92515  27.501  29.289  12.106
24122W        W92516   8.371  40.879  14.309
24123W        W92517  29.551   8.171   4.064
24124W        W92518  40.311   4.272   0.987
24125W        W92519   1.289  28.159   1.326
24126W        W92520   8.192  36.380  12.796
24127W        W92521   3.295  43.804  14.593
24128W        W92522  39.818  26.170  11.101
24129W        W92523  28.202  36.345   3.667
24130W        W92524  28.103  34.608   5.109
24131W        W92525   7.380   5.350   3.134
24132W        W92526  43.549  43.407   3.272
24133W        W92527  22.117  20.396   4.659
24134W        W92528  10.224  43.046   2.662
24135W        W92529  41.857   4.802  11.926
24136W        W92530  31.186  16.633  13.051
24137W        W92531  19.307   4.350  13.919
24138W        W92532   3.148   3.379  14.322
24139W        W92533  10.510  41.445   1.137
24140W        W92534  41.260  19.789  10.414
24141W        W92535  29.265  18.313   3.184
24142W        W92536  24.140   1.054   0.837
24143W        W92537  44.294   5.201   0.709
24144W        W92538  13.855  41.359   3.670
24145W        W92539  43.441  43.650  10.427
24146W        W92540  38.386   0.950  14.514
24147W        W92541   0.783  21.351  11.728
24148W        W92542  43.491  39.015   3.741
24149W        W92543  42.406  33.696   4.909
24150W        W92544   6.306  21.629  12.865
24151W        W92545   0.914  25.890  11.586
24152W        W92546  21.305  11.103  11.711
24153W        W92547  19.670  26.667  12.072
24154W        W92548  39.276  32.573  10.088
24155W        W92549  43.193  27.143   2.798
24156W        W92550  29.675   3.691   3.428
24157W        W92551  10.689  30.479   2.690
24158W        W92552  29.054  17.081  13.657
24159W        W92553  19.308   6.936   4.244
24160W        W92554  22.671  26.189  11.908
24161W        W92555  21.610  38.002  11.480
24162W        W92556   0.831  14.128   0.401
24163W        W92557  11.690  40.644  11.929
24164W        W92558  37.588  26.298  13.539
24165W        W92559  11.815  21.961  14.560
24166W        W92560  42.039  17.570   1.446
24167W        W92561  12.979  36.624  14.863
24168W        W92562  26.927  14.346   0.221
24169W        W92563  18.889   2.047  11.553
24170W        W92564  24.524  21.607  12.054
24171W        W92565  29.191  11.996   1.946
24172W        W92566  32.976  19.557  13.854
24173W        W92567   4.482  32.860  11.122
24174W        W92568  34.906  29.926  14.767
24175W        W92569  25.755   1.220  11.678
24176W        W92570  25.058   7.264   2.803
24177W        W92571  20.163   6.891   2.652
24178W        W92572  37.262   2.661   1.686
24179W        W92573  15.830   2.508   4.587
24180W        W92574  27.764  12.652  12.156
24181W        W92575  11.763   1.319  14.270
24182W        W92576  32.517  30.748  13.415
24183W        W92577  39.419  29.946  10.966
24184W        W92578   0.602  31.042  13.390
24185W        W92579  26.887  41.532  12.523
24186W        W92580  13.792  18.833   3.293
24187W        W92581  34.831  34.485   3.850
24188W        W92582  40.095  23.636  13.811
24189W        W92583  16.376   6.766   0.292
24190W        W92584  26.359  44.002   2.427
24191W        W92585  15.358  42.949   0.437
24192W        W92586  40.442   2.046   5.235
24193W        W92587  17.037  36.011  13.043
24194W        W92588  26.956  40.484  13.096
24195W        W92589  37.276  17.044   5.092
24196W        W92590   4.829  11.906   1.791
24197W        W92591   7.626  33.414  12.631
24198W        W92592  39.535   3.279   1.590
24199W        W92593  18.340  27.896  13.066
24200W        W92594  36.870   4.401  12.448
24201W        W92595  30.341  36.967   1.646
24202W        W92596  24.736  30.090  10.694
24203W        W92597  23.965   3.978  11.542
24204W        W92598   6.859  36.484  13.476
24205W        W92599  42.140  16.681   3.334
24206W        W92600  13.405  32.072  14.869
24207W        W92601   2.396   1.271   3.714
24208W        W92602   1.813   7.209   3.273
24209W        W92603   5.232  38.605   0.547
24210W        W92604  32.374  21.716  11.957
24211W        W92605  26.222  44.475  13.487
24212W        W92606  14.211  33.040   2.653
24213W        W92607  11.567   2.683   0.444
24214W        W92608  21.705  33.629   4.121
24215W        W92609   9.749  35.627   2.148
24216W        W92610   3.304  44.699   0.926
24217W        W92611  28.001  15.148   1.394
24218W        W92612  32.062  35.864   4.596
24219W        W92613  23.695   3.509  14.753
24220W        W92614  38.963   6.860  12.352
24221W        W92615  38.084   1.326   0.855
24222W        W92616  34.546  12.656  11.507
24223W        W92617  25.209  14.796   4.170
24224W        W92618   6.793  29.255   2.778
24225W        W92619  29.370  25.632   4.118
24226W        W92620  25.376  41.888  14.833
24227W        W92621  20.203  16.068   1.929
24228W        W92622  21.160   5.727   4.320
24229W        W92623  42.481  15.466   3.999
24230W        W92624  30.341  40.517  11.215
24231W        W92625  31.853   1.759  13.039
24232W        W92626   1.771  11.664  12.358
24233W        W92627  30.914   0.094   3.504
24234W        W92628  27.381  44.287   4.041
24235W        W92629   6.736  36.018   4.810
24236W        W92630   2.279   4.415  13.040
24237W        W92631  29.026  13.212  14.998
24238W        W92632  43.821   3.877  13.015
24239W        W92633   9.947  22.253   3.664
24240W        W92634  37.389  30.143   1.770
24241W        W92635  14.212  10.008  11.070
24242W        W92636   1.368   0.300   4.980
24243W        W92637  27.016  24.490   2.906
24244W        W92638  24.201  34.986   3.282
24245W        W92639  18.995   2.556   0.789
24246W        W92640  20.125   3.990   4.779
24247W        W92641  31.027  44.027   1.743
24248W        W92642   3.119   6.698  14.426
24249W        W92643  37.017  36.501  10.533
24250W        W92644  37.545  19.846  12.034
24251W        W92645  36.896  24.973  13.543
24252W        W92646  15.743   7.909   1.384
24253W        W92647  18.550   4.873  11.977
24254W        W92648  14.140  15.916   2.671
24255W        W92649  38.960   6.981  10.259
24256W        W92650  22.971  39.120   2.139
24257W        W92651  37.143  29.148  11.111
24258W        W92652  28.382  34.576  12.511
24259W        W92653   3.974  19.783  11.972
24260W        W92654  22.463   7.693  14.486
24261W        W92655  34.043   6.457   4.181
24262W        W92656  13.806  26.604  12.967
24263W        W92657  35.436  19.007   0.329
24264W        W92658  27.685   9.950   0.747
24265W        W92659  22.744  32.733   2.270
24266W        W92660  24.314  43.528  11.157
24267W        W92661  42.291  41.754  10.558
24268W        W92662  23.050  10.243  14.938
24269W        W92663   9.779   7.116  11.942
24270W        W92664  41.464  15.377  12.966
24271W        W92665  38.805  14.390  13.538
24272W        W92666  21.270  11.669   1.246
24273W        W92667   3.419  22.697  14.427
24274W        W92668  40.414   6.870  13.370
24275W        W92669  19.837  16.533  12.203
24276W        W92670   7.378   5.772   0.336
24277W        W92671  34.147  40.921  13.919
24278W        W92672   2.191   6.046  11.198
24279W        W92673   6.192  10.874  12.995
24280W        W92674  31.815  17.501   0.877
24281W        W92675  20.360  17.225   2.374
24282W        W92676  42.361  22.800   0.701
24283W        W92677   0.086  39.270  13.534
24284W        W92678  26.044  31.522  10.643
24285W        W92679  41.576  23.657   2.715
24286W        W92680  26.266  15.733   2.284
24287W        W92681  12.748  44.189  11.207
24288W        W92682  39.057   4.945  11.952
24289W        W92683  32.041  37.407   1.816
24290W        W92684   4.869  23.655   1.897
24291W        W92685  37.876  18.317  12.001
24292W        W92686   4.739   8.814   3.890
24293W        W92687  36.583   1.014   1.671
24294W        W92688  20.757   3.125  12.933
24295W        W92689  23.879  10.135  14.928
24296W        W92690  42.080  44.880  11.683
24297W        W92691  39.360  30.085  14.414
24298W        W92692   6.361  12.396   1.943
24299W        W92693   4.484  37.036   3.753
24300W        W92694  27.554   7.581  10.792
24301W        W92695  19.311  28.717  11.544
24302W        W92696  20.836  17.607   4.862
24303W        W92697  18.724  23.414   0.738
24304W        W92698  30.693  26.855   2.255
24305W        W92699  28.155   2.876   4.558
24306W        W92700  34.561   6.282   4.121
24307W        W92701  18.615  42.055   1.401
24308W        W92702  39.344   6.990  14.997
24309W        W92703   9.109  12.378  12.087
24310W        W92704  20.097   0.919  12.630
24311W        W92705  41.814   4.345  11.709
24312W        W92706  20.952   2.889  13.389
24313W        W92707  29.696   9.556   4.376
24314W        W92708   6.259  40.550  13.666
24315W        W92709  32.932  28.523  12.012
24316W        W92710  12.742   1.361  14.433
24317W        W92711  40.134  36.294  13.383
24318W        W92712  26.034   0.002   2.297
24319W        W92713  40.081  34.779  10.690
24320W        W92714  12.260  29.944   1.817
24321W        W92715  31.217  44.230  11.591
24322W        W92716  21.451  16.325   1.250
24323W        W92717  26.147  20.318  13.867
24324W        W92718  25.516  22.115   4.726
24325W        W92719  39.100  18.945   4.132
24326W        W92720  11.367  34.799  14.498
24327W        W92721  28.712  32.379   0.320
24328W        W92722   6.178  23.605  11.740
24329W        W92723   9.923  43.230   0.088
24330W        W92724  36.695  16.309   1.102
24331W        W92725  13.643   3.384  10.942
24332W        W92726  28.446  42.308  11.539
24333W        W92727   0.841   5.376   1.489
24334W        W92728  34.607  26.220  12.049
24335W        W92729  17.771  31.411  14.845
24336W        W92730   4.147   9.685   3.313
24337W        W92731  17.792  32.123  11.714
24338W        W92732  32.386  39.385   2.192
24339W        W92733   0.905  40.806  14.798
24340W        W92734  26.164  32.837  14.450
24341W        W92735   4.145  14.827   3.672
24342W        W92736  25.516   5.411  11.975
24343W        W92737  37.357  27.770  12.513
24344W        W92738  29.995   1.374  11.956
24345W        W92739  40.044  37.829  14.308
24346W        W92740  30.670  32.946  10.724
24347W        W92741  27.654  15.738   3.989
24348W        W92742   9.338  21.772   1.262
24349W        W92743  44.827   8.242  14.869
24350W        W92744  31.882  39.346  12.574
24351W        W92745  39.571  22.541  14.726
24352W        W92746  20.594  43.741  14.784
24353W        W92747  31.820   4.498  14.893
24354W        W92748  42.944  43.965  13.964
24355W        W92749  26.508   8.458   2.910
24356W        W92750  15.145  14.442  12.843
24357W        W92751  12.687  17.931   1.697
24358W        W92752  41.914  17.117  13.596
24359W        W92753  34.486   1.980   3.696
24360W        W92754  33.984  39.694   0.343
24361W        W92755  11.340   4.868   0.852
24362W        W92756   6.744  29.699  12.751
24363W        W92757  34.402  27.831   2.849
24364W        W92758   2.312  23.725   1.488
24365W        W92759   9.134   0.511   3.381
24366W        W92760  43.391  17.344   3.866
24367W        W92761  17.351   5.982  10.714
24368W        W92762  11.116   5.792   3.709
24369W        W92763  21.979   0.814   2.634
24370W        W92764  39.785   5.003  11.558
24371W        W92765  13.886  42.718  12.600
24372W        W92766  19.066  33.574  11.078
24373W        W92767  26.563  20.358   2.433
24374W        W92768   5.686  27.222  13.840
24375W        W92769   9.727  23.322   9.803
24376W        W92770  31.600  27.257  11.832
24377W        W92771  16.835  30.232  11.112
24378W        W92772  10.730   6.187  10.739
24379W        W92773  37.018  20.584   2.429
24380W        W92774  34.022  34.744   2.720
24381W        W92775  17.584  10.009   4.864
24382W        W92776  44.500  22.606  11.326
24383W        W92777  34.597  18.503  13.361
24384W        W92778   3.601  44.746   2.197
24385W        W92779   3.003  10.734   0.983
24386W        W92780   8.233   9.786   0.105
24387W        W92781   4.853  36.814  11.476
24388W        W92782  23.475  24.116   0.384
24389W        W92783  12.283  34.359   2.403
24390W        W92784  43.944  43.198   0.497
24391W        W92785  11.751  41.779   1.748
24392W        W92786   2.437  39.310   0.414
24393W        W92787   1.929  40.289  12.807
24394W        W92788  44.598  44.359   4.142
24395W        W92789  32.127  18.542   0.330
24396W        W92790  22.054  36.340   4.346
24397W        W92791   7.274   5.797   4.883
24398W        W92792  25.094  32.837  12.169
24399W        W92793  14.285  19.009  10.982
24400W        W92794   1.498  11.129  11.161
24401W        W92795  25.015  22.465   1.892
24402W        W92796  26.645  37.016   0.530
24403W        W92797  41.383  39.679  11.623
24404W        W92798  30.147  34.069  13.480
24405W        W92799   8.863  35.703   0.351
24406W        W92800  27.776  32.422   4.032
24407W        W92801  23.565   5.394  13.554
24408W        W92802  37.518  40.775  11.201
24409W        W92803   2.422  35.576  13.812
24410W        W92804   2.744  36.043  10.923
24411W        W92805   8.292  11.400  12.891
24412W        W92806  23.234  14.687   3.783
24413W        W92807  12.437  10.844   3.293
24414W        W92808  14.332  23.278   4.612
24415W        W92809  41.800   5.987   0.893
24416W        W92810  37.599  21.173   3.891
24417W        W92811  44.508  39.281   0.376
24418W        W92812  20.217  32.684  12.708
24419W        W92813   4.388  18.623  13.632
24420W        W92814  42.443  35.498  12.863
24421W        W92815  44.291  19.998  11.117
24422W        W92816   1.858   4.612   2.336
24423W        W92817  23.873  17.813   2.326
24424W        W92818  10.939  24.971   1.853
24425W        W92819  44.904   9.307   0.847
24426W        W92820  35.012  27.832  13.056
24427W        W92821  39.489  43.010   3.629
24428W        W92822  43.814  10.238  11.148
24429W        W92823   3.561  35.633   5.149
24430W        W92824   4.716  23.717  14.351
24431W        W92825  19.110  42.223  11.578
24432W        W92826   8.163  20.103   2.174
24433W        W92827  12.806  21.685   0.838
24434W        W92828  36.802   3.728   3.147
24435W        W92829  39.721  22.673  13.744
24436W        W92830  28.705  26.173  12.153
24437W        W92831  38.909  27.196   0.044
24438W        W92832  19.968  32.858   2.902
24439W        W92833   0.337  27.586  12.214
24440W        W92834  19.227  41.405   2.211
24441W        W92835  38.815  17.209   1.453
24442W        W92836  10.884   0.452  14.297
24443W        W92837   8.279  27.442   1.696
24444W        W92838  28.893  40.922  10.491
24445W        W92839   7.855  28.201   2.868
24446W        W92840  25.105  14.476   1.579
24447W        W92841   1.991  34.791   4.106
24448W        W92842  19.344  27.039  11.163
24449W        W92843  25.640  13.255   5.146
24450W        W92844  26.028  24.671  10.828
24451W        W92845  28.596  29.051  13.090
24452W        W92846  24.255  22.283   1.273
24453W        W92847   5.318  34.927   3.958
24454W        W92848  26.291  44.763   1.010
24455W        W92849  16.935  40.065   1.528
24456W        W92850  43.806  29.681   4.899
24457W        W92851   3.192   5.196  14.162
24458W        W92852  29.633  22.922   4.236
24459W        W92853  42.025  27.685   0.457
24460W        W92854  17.885  22.602  14.965
24461W        W92855  22.013  25.523   0.805
24462W        W92856  14.261   4.993   4.490
24463W        W92857  18.592   5.691   4.311
24464W        W92858  20.184  26.196  14.137
24465W        W92859  34.101  38.949  11.176
24466W        W92860  26.201   2.734   1.733
24467W        W92861  26.672  29.556  14.890
24468W        W92862   1.371   7.907  12.034
24469W        W92863   2.288  30.832   2.636
24470W        W92864  22.268  22.981  13.096
24471W        W92865  33.590   5.303   4.598
24472W        W92866  16.114  39.882   1.440
24473W        W92867   7.438  19.558   3.230
24474W        W92868  33.220  19.657   2.521
24475W        W92869  10.367   5.218   1.552
24476W        W92870   3.817   6.843   1.176
24477W        W92871   4.012  32.968  14.458
24478W        W92872  27.796   5.182  12.089
24479W        W92873   9.826  30.088   1.215
24480W        W92874  39.673  18.828   2.841
24481W        W92875   8.382  21.560  14.819
24482W        W92876  20.620   5.089  13.065
24483W        W92877   0.427  44.318   4.758
24484W        W92878  21.634   6.139  11.652
24485W        W92879  39.009  16.356  10.562
24486W        W92880  39.964  27.252  13.988
24487W        W92881  11.134  38.863   3.140
24488W        W92882   2.790  42.568   1.310
24489W        W92883  20.745  13.736  10.652
24490W        W92884  35.052   5.009  12.578
24491W        W92885   3.420  10.328   4.641
24492W        W92886  24.641  13.599   3.229
24493W        W92887  28.680  20.329   3.195
24494W        W92888  23.137  27.676   1.409
24495W        W92889  38.592  44.009  11.972
24496W        W92890   1.092  29.391  10.760
24497W        W92891  32.469  25.870   3.248
24498W        W92892  16.690  42.825   3.770
24499W        W92893  25.721  36.461  10.652
24500W        W92894  10.689  17.751   0.941
24501W        W92895  26.525  17.250  12.596
24502W        W92896  16.187   0.176  10.740
24503W        W92897  40.152  20.714   3.234
24504W        W92898  37.519  14.745  10.635
24505W        W92899  30.891   1.572   1.684
24506W        W92900  17.744  18.733  11.233
24507W        W92901  21.021  30.788   2.221
24508W        W92902  11.655  16.470  12.892
24509W        W92903  30.522  35.948  12.841
24510W        W92904  44.574   7.229  10.441
24511W        W92905  35.824  14.692   2.422
24512W        W92906  41.873   7.449  13.334
24513W        W92907  29.972  37.565  14.264
24514W        W92908  21.548  21.439   3.179
24515W        W92909  16.320  13.306  13.437
24516W        W92910  29.876  25.224  12.007
24517W        W92911  14.624  10.847  13.840
24518W        W92912  30.406  15.341   4.891
24519W        W92913  14.601  23.937   1.140
24520W        W92914  11.355  11.876   2.809
24521W        W92915   6.316   5.412  10.704
24522W        W92916  25.247  11.628   2.363
24523W        W92917  21.664  19.701  11.071
24524W        W92918  40.396   9.631  14.933
24525W        W92919  42.906  15.688   1.144
24526W        W92920  30.876  25.171  13.917
24527W        W92921   8.688  41.283  14.193
24528W        W92922  27.677  28.947  14.789
24529W        W92923  13.674  26.560   1.335
24530W        W92924  26.436  37.974   1.384
24531W        W92925  22.827  40.637  10.427
24532W        W92926  25.734   1.345   3.324
24533W        W92927  39.588  30.871  11.436
24534W        W92928  13.968  12.606   1.400
24535W        W92929   7.886   2.956  12.488
24536W        W92930  35.514  24.824   0.807
24537W        W92931   7.667  15.212   1.988
24538W        W92932  30.302   9.298   3.567
24539W        W92933  32.003  10.493  13.509
24540W        W92934  18.846   3.237   3.258
24541W        W92935  24.879  22.576  13.253
24542W        W92936  32.986  12.266  11.945
24543W        W92937  32.355  23.240   4.394
24544W        W92938  14.043  31.971   3.210
24545W        W92939  14.464  24.571  10.531
24546W        W92940  40.709  30.434   4.119
24547W        W92941  38.376  44.691   0.048
24548W        W92942  25.125  19.190  11.482
24549W        W92943  33.036  22.490  14.001
24550W        W92944  30.408  32.243  12.392
24551W        W92945  23.888  35.899   2.305
24552W        W92946  19.080  35.872  11.489
24553W        W92947   3.869   4.966  10.245
24554W        W92948   7.687  34.787  14.283
24555W        W92949  39.756  34.632   4.754
24556W        W92950   8.574  34.058   2.905
24557W        W92951  39.759  13.353  14.378
24558W        W92952   7.672  44.988   0.382
24559W        W92953  44.323  34.501   4.933
24560W        W92954  44.432  13.376  14.408
24561W        W92955  20.722   5.090  11.641
24562W        W92956  12.410  24.307   0.804
24563W        W92957  20.658  29.726   1.881
24564W        W92958   7.099  25.418  12.929
24565W        W92959   4.783  14.849   0.693
24566W        W92960  33.615   1.458   4.012
24567W        W92961  18.692  19.367  13.009
24568W        W92962  40.526   7.934   2.795
24569W        W92963  24.219  29.928  14.776
24570W        W92964  15.890   8.205  14.875
24571W        W92965  21.509  18.001   3.929
24572W        W92966   2.271  43.043   5.044
24573W        W92967   0.642  15.752   2.744
24574W        W92968  25.322  33.208  12.454
24575W        W92969  40.602  34.552  12.257
24576W        W92970  28.099  38.379   1.848
24577W        W92971  41.328  11.205  14.380
24578W        W92972  39.469   5.257   4.560
24579W        W92973  27.816   3.842  10.008
24580W        W92974  28.220   4.326  14.486
24581W        W92975  37.735  15.741   3.271
24582W        W92976  41.210  35.537  10.998
24583W        W92977  41.776   2.988  14.693
24584W        W92978  38.589  13.740   3.694
24585W        W92979  19.358  12.902   3.588
24586W        W92980  42.949   0.361   1.265
24587W        W92981  40.546  36.611  12.016
24588W        W92982  34.683   1.970   0.419
24589W        W92983  35.818  16.022   3.660
24590W        W92984  12.761  13.083   2.170
24591W        W92985   6.598   7.573   3.274
24592W        W92986  25.583  39.094   2.318
24593W        W92987  30.964  13.132   3.415
24594W        W92988  35.584  37.416  13.407
24595W        W92989  21.714  41.786   1.841
24596W        W92990  25.332  40.561   1.488
24597W        W92991  42.267  33.662   0.961
24598W        W92992  24.948  37.462  11.386
24599W        W92993  21.103  28.087   4.063
24600W        W92994   3.662  12.736   2.147
24601W        W92995  41.765  13.803  11.868
24602W        W92996  24.025  36.558  11.595
24603W        W92997  16.666   0.879   1.786
24604W        W92998  30.602  18.983   0.937
24605W        W92999  42.797  36.317   2.327
24606W        W93000  20.970  14.093   2.369
24607W        W93001   7.705  21.700  13.576
24608W        W93002  44.909  16.835  14.306
24609W        W93003  14.365  42.845   1.084
24610W        W93004   6.934  44.884  12.388
24611W        W93005  16.322   7.901   1.615
24612W        W93006  18.496  38.420   1.740
24613W        W93007  27.129  26.244   0.193
24614W        W93008  29.266  18.254   4.512
24615W        W93009  35.389  27.526  10.602
24616W        W93010  34.501  19.681   1.211
24617W        W93011  12.124  20.616   1.214
24618W        W93012  31.756  33.591  11.212
24619W        W93013  39.355   5.962   1.924
24620W        W93014   6.419  30.526  12.959
24621W        W93015  18.571   7.842   0.374
24622W        W93016  22.693  17.275   1.870
24623W        W93017  25.617  38.038   2.451
24624W        W93018   8.697   1.915  14.761
24625W        W93019  31.857  22.240  13.433
24626W        W93020  31.059  31.718   2.739
24627W        W93021   4.998  36.832   0.406
24628W        W93022  31.248   4.223  10.251
24629W        W93023  27.645   4.520   2.906
24630W        W93024  36.132  34.367   4.163
24631W        W93025  38.894  38.797  12.105
24632W        W93026  25.521  20.522   0.867
24633W        W93027  22.786  24.484  10.755
24634W        W93028  36.892  24.468  13.406
24635W        W93029  38.702  43.927   1.755
24636W        W93030  34.276  21.991  14.313
24637W        W93031  24.038   1.503   4.637
24638W        W93032   7.754  27.913   2.205
24639W        W93033  20.498  19.719   0.363
24640W        W93034  19.300  44.091   3.348
24641W        W93035  10.337  33.990  10.477
24642W        W93036   8.929  20.295  14.290
24643W        W93037  20.790  37.964   2.816
24644W        W93038  16.248   2.507   1.327
24645W        W93039   7.723  34.686   3.294
24646W        W93040  20.686  26.497   1.802
24647W        W93041  10.519   7.047  11.704
24648W        W93042  30.992  42.241  13.422
24649W        W93043  16.374  13.675  11.212
24650W        W93044   0.244  17.771  12.246
24651W        W93045   8.851  43.703   2.345
24652W        W93046  22.662  34.591   2.329
24653W        W93047  15.797  21.143   4.602
24654W        W93048  27.053   9.713  11.176
24655W        W93049   2.649  13.672   2.107
24656W        W93050  41.355  24.594  14.860
24657W        W93051  29.604  28.217  11.217
24658W        W93052  39.957   1.197  14.279
24659W        W93053   2.589  34.938  12.097
24660W        W93054   8.266  26.089  10.838
24661W        W93055  43.246  42.737   1.409
24662W        W93056  16.046  15.188  10.363
24663W        W93057  22.225   6.552  11.195
24664W        W93058  41.064  29.048   0.570
24665W        W93059  17.242  38.348   0.995
24666W        W93060  19.324  19.336  12.514
24667W        W93061  26.945   7.826   4.222
24668W        W93062  41.784  44.584   3.686
24669W        W93063  32.640  26.680  11.797
24670W        W93064   7.469  10.920  14.040
24671W        W93065  36.839   0.773   4.034
24672W        W93066  20.258  23.666   4.559
24673W        W93067  32.659  25.830  10.632
24674W        W93068  24.945   7.051   1.281
24675W        W93069  17.637  24.679   1.848
24676W        W93070  24.952   8.051   1.336
24677W        W93071  21.658   7.169  14.537
24678W        W93072  39.994   2.160  11.226
24679W        W93073  21.242  32.070   2.112
24680W        W93074  40.893  15.834  12.000
24681W        W93075   0.678   5.819   3.869
24682W        W93076   6.263  34.658  12.974
24683W        W93077  13.304  43.720  14.837
24684W        W93078  35.168  14.462   9.575
24685W        W93079  20.787  34.139   0.783
24686W        W93080   8.444   1.909  12.576
24687W        W93081  35.045  28.638  14.266
24688W        W93082  37.092   2.312   0.868
24689W        W93083  38.937  23.167  14.314
24690W        W93084  27.514  15.655  11.452
24691W        W93085  10.312  41.095  11.142
24692W        W93086  21.782  40.346   2.243
24693W        W93087  39.338  34.186  11.994
24694W        W93088  24.703  13.869   5.024
24695W        W93089  18.180  37.915   0.808
24696W        W93090  35.039   1.164  13.539
24697W        W93091   7.853   2.425   2.574
24698W        W93092  38.103  42.168   0.321
24699W        W93093  19.750  26.335   1.561
24700W        W93094  18.275  42.034  13.029
24701W        W93095   1.971   2.325   3.125
24702W        W93096  33.069  11.567  12.062
24703W        W93097  38.315   0.032   0.440
24704W        W93098   2.905  14.294  12.915
24705W        W93099  38.902  30.478   0.972
24706W        W93100  13.269  25.582   4.046
24707W        W93101  28.388  38.339  13.949
24708W        W93102   5.380  35.508   2.335
24709W        W93103   2.154  35.332   1.688
24710W        W93104  18.747  33.481   4.495
24711W        W93105  17.155   7.385  11.131
24712W        W93106  42.390  20.206   2.939
24713W        W93107  23.414  36.938   2.476
24714W        W93108  14.735   5.993   3.304
24715W        W93109  18.495  22.621   0.909
24716W        W93110  21.177  35.607  12.491
24717W        W93111  24.134  42.283   4.110
24718W        W93112  14.758  25.133  13.841
24719W        W93113   5.367  33.534  13.646
24720W        W93114  21.600  16.689   0.424
24721W        W93115  12.200  26.416   4.256
24722W        W93116   0.928  18.437  14.940
24723W        W93117  31.998  29.635  14.707
24724W        W93118  38.564  31.881   4.676
24725W        W93119   4.327  38.755  11.177
24726W        W93120  16.778  42.189   2.563
24727W        W93121   8.901  16.807   0.341
24728W        W93122  25.694  39.774  12.485
24729W        W93123  20.952  37.128   1.696
24730W        W93124  27.873  41.833  12.323
24731W        W93125  30.388   1.080   2.903
24732W        W93126  20.679   0.588   1.287
24733W        W93127  25.103  28.368   3.761
24734W        W93128  26.178   9.241  12.082
24735W        W93129  21.193  25.740   2.652
24736W        W93130   7.914  30.765   3.835
24737W        W93131  34.466  44.006   4.681
24738W        W93132  31.436  11.079  11.677
24739W        W93133  26.789  28.530  12.040
24740W        W93134   7.669  27.426  11.981
24741W        W93135  14.756   2.583  12.997
24742W        W93136  16.790   7.963  12.995
24743W        W93137  29.867  34.967   0.850
24744W        W93138  20.122  25.004  12.514
24745W        W93139  39.343  40.772   1.434
24746W        W93140  29.378  28.433  12.029
24747W        W93141  17.653  17.343  11.197
24748W        W93142  26.363  15.846  11.163
24749W        W93143  22.160  19.941   3.665
24750W        W93144  41.066  28.558  10.637
24751W        W93145  14.069  32.048  12.393
24752W        W93146   6.714   0.041   0.112
24753W        W93147  28.567   2.211  12.603
24754W        W93148   1.293  26.511  11.849
24755W        W93149  19.814   3.877   0.818
24756W        W93150   7.140  14.754  11.836
24757W        W93151  22.448   4.445   1.414
24758W        W93152  18.993  27.318  12.928
24759W        W93153   5.680  41.291   0.778
24760W        W93154  13.809  42.542  13.090
24761W        W93155  16.912  14.854  12.840
24762W        W93156  18.790  38.056   3.118
24763W        W93157  40.585  44.548   2.263
24764W        W93158   2.699  15.862  11.211
24765W        W93159   7.750  30.470  12.826
24766W        W93160   5.884  15.210   2.720
24767W        W93161  16.077  13.634  14.452
24768W        W93162  17.665  36.458   1.270
24769W        W93163  37.107  38.887   1.850
24770W        W93164  35.575  21.702   0.272
24771W        W93165  16.757  36.823   4.147
24772W        W93166  21.149  30.165   4.585
24773W        W93167  10.332  21.186  10.604
24774W        W93168  36.469  41.777   3.746
24775W        W93169  33.549  39.290   3.596
24776W        W93170  40.613  28.069   4.359
24777W        W93171  17.085  34.295   1.749
24778W        W93172   6.942   4.848   2.158
24779W        W93173  23.070  17.188   2.233
24780W        W93174  27.520   6.469   3.861
24781W        W93175  22.677   2.716  13.148
24782W        W93176   4.185  10.936  12.603
24783W        W93177   0.723  26.558   0.047
24784W        W93178  17.355  34.911  11.343
24785W        W93179  24.130  40.637   3.596
24786W        W93180  24.408  44.341  12.864
24787W        W93181  17.536  42.003  13.335
24788W        W93182  11.770  10.387  11.773
24789W        W93183  22.606  41.388  10.758
24790W        W93184   3.846  43.784  11.901
24791W        W93185  36.314  10.134   4.559
24792W        W93186  40.812  33.305   3.242
24793W        W93187  14.618  25.943  14.862
24794W        W93188   2.921  18.778  13.058
24795W        W93189  30.583  33.065   3.614
24796W        W93190  41.532   7.161  13.049
24797W        W93191  21.113  15.317   4.546
24798W        W93192  20.571   4.355   0.059
24799W        W93193  21.145   1.121   3.719
24800W        W93194  17.148  43.544   0.806
24801W        W93195   5.380  32.965   2.769
24802W        W93196  43.645  33.741   4.786
24803W        W93197  36.152  13.205  14.067
24804W        W93198  13.506  36.995   3.795
24805W        W93199  42.797  32.282   1.859
24806W        W93200  39.427   3.669   1.914
24807W        W93201   0.933  13.929  12.105
24808W        W93202  32.636   5.881  13.830
24809W        W93203  14.904  33.660  13.338
24810W        W93204  25.227  31.952   5.086
24811W        W93205  41.370  29.556   1.830
24812W        W93206  38.930   2.707  10.465
24813W        W93207  26.504  21.105  11.492
24814W        W93208  16.148  31.343   3.267
24815W        W93209  33.998  15.187  11.573
24816W        W93210  18.078  33.103  14.358
24817W        W93211   4.843  37.515   4.237
24818W        W93212  39.876  21.666   2.233
24819W        W93213  14.635   2.789   0.203
24820W        W93214  27.726  14.144  12.968
24821W        W93215  18.572  22.736  11.126
24822W        W93216  42.015  29.001  12.494
24823W        W93217  33.497  31.106  11.208
24824W        W93218  15.321  39.295  14.775
24825W        W93219  40.459  25.533  13.835
24826W        W93220  28.497  26.929   2.279
24827W        W93221   0.564   8.814   2.392
24828W        W93222  43.401   2.653   2.822
24829W        W93223   2.493  16.323  14.246
24830W        W93224  40.525  22.929  10.760
24831W        W93225  10.650  20.868   4.118
24832W        W93226   3.095  32.401   3.138
24833W        W93227  43.243   4.415   0.850
24834W        W93228  22.621   4.169   1.842
24835W        W93229  31.923  28.572   0.747
24836W        W93230  37.444  20.249   2.362
24837W        W93231  11.783  30.516  11.921
24838W        W93232  15.683  22.341  14.976
24839W        W93233   3.945  19.296  14.480
24840W        W93234  26.743  10.363   4.605
24841W        W93235   4.442  40.376  12.495
24842W        W93236   7.949  23.768   0.287
24843W        W93237  10.951  35.798   1.564
24844W        W93238  21.299   4.355   3.675
24845W        W93239  30.923  34.637   0.296
24846W        W93240  17.519   9.786  14.868
24847W        W93241  29.693  42.423   1.414
24848W        W93242  36.201  34.811   2.880
24849W        W93243  39.066  25.195   3.637
24850W        W93244  24.477  24.525  12.356
24851W        W93245  43.720  31.172   3.645
24852W        W93246  13.057  31.449   2.312
24853W        W93247   2.788  38.079  14.347
24854W        W93248  24.015  42.188  14.286
24855W        W93249  35.567   8.822   1.762
24856W        W93250  27.498   4.284  11.335
24857W        W93251  27.615   7.055  10.730
24858W        W93252  44.013  30.623   0.207
24859W        W93253   0.314  23.474  14.809
24860W        W93254  37.818  27.514  12.451
24861W        W93255   7.198  37.071   0.821
24862W        W93256  23.511  17.966  12.714
24863W        W93257  23.953  20.107   1.707
24864W        W93258  13.244  29.257   4.308
24865W        W93259  23.584  20.033  14.088
24866W        W93260  20.920  14.815  11.468
24867W        W93261  30.232   6.226  12.708
24868W        W93262  33.471  34.967   4.485
24869W        W93263  38.029  21.492   0.436
24870W        W93264   1.515  40.580   4.505
24871W        W93265   5.233  44.451  14.530
24872W        W93266  21.700  21.931  11.396
24873W        W93267  44.888  27.195  12.967
24874W        W93268  19.149  42.472  14.500
24875W        W93269  18.761   7.104  11.606
24876W        W93270  15.423  23.927   2.241
24877W        W93271   2.761  36.757  13.850
24878W        W93272  34.516  41.515  11.628
24879W        W93273  37.038   6.136   1.213
24880W        W93274  34.489  40.518   3.159
24881W        W93275  30.886  28.067   1.980
24882W        W93276  26.474   3.320   0.737
24883W        W93277  12.743  39.013  12.819
24884W        W93278  17.224  32.978   1.471
24885W        W93279  21.288   3.452  13.793
24886W        W93280  31.275  41.912  12.588
24887W        W93281  10.822  25.162   4.235
24888W        W93282  36.539  10.264  10.654
24889W        W93283  18.278  30.122   4.460
24890W        W93284  38.524  14.703   1.385
24891W        W93285  12.695   5.746  10.271
24892W        W93286  26.051  27.562   0.851
24893W        W93287  31.921   1.367   0.334
24894W        W93288  15.055  21.542   0.141
24895W        W93289   4.865  36.426   2.395
24896W        W93290  35.511  28.689   3.661
24897W        W93291  36.336   8.093  13.944
24898W        W93292  11.844  14.804   2.280
24899W        W93293  12.622  21.866  14.911
24900W        W93294   6.398  27.510  11.653
24901W        W93295  23.145  34.043  10.660
24902W        W93296  17.533  31.544  10.526
24903W        W93297  20.161  38.069   2.328
24904W        W93298  34.143  15.371  12.966
24905W        W93299  43.012  15.238   2.846
24906W        W93300  44.209   0.409  13.079
24907W        W93301  33.076  24.504   0.591
24908W        W93302  30.931  33.865  13.983
24909W        W93303  13.716  36.932   0.508
24910W        W93304   4.944  14.780   2.164
24911W        W93305  26.140  19.072  12.479
24912W        W93306   6.074  11.088   2.017
24913W        W93307  25.012   8.332  12.223
24914W        W93308  27.682  29.322   4.997
24915W        W93309  43.569  21.225  11.664
24916W        W93310  17.539  24.030   2.245
24917W        W93311  30.210  27.038   2.317
24918W        W93312  40.181  41.589  11.584
24919W        W93313   1.401  16.718   4.502
24920W        W93314  34.543  34.732   2.143
24921W        W93315  38.518  22.770  10.902
24922W        W93316  40.879  30.498   0.975
24923W        W93317   2.759  13.546  12.281
24924W        W93318   6.337   0.763  13.467
24925W        W93319  27.466  13.691  14.253
24926W        W93320  39.439   2.161  13.376
24927W        W93321  15.169  39.000   3.122
24928W        W93322  32.961  35.139   0.075
24929W        W93323   7.691  26.545   2.762
24930W        W93324  28.265   9.959  14.846
24931W        W93325  29.433  21.095  11.518
24932W        W93326  27.375  15.377   3.267
24933W        W93327  40.058  28.104   5.274
24934W        W93328  16.294   8.288   2.272
24935W        W93329  14.761  22.022  14.851
24936W        W93330  23.364  39.380  12.603
24937W        W93331  16.485  18.593  11.111
24938W        W93332  13.865   5.013   1.211
24939W        W93333   4.217  24.529  12.394
24940W        W93334  14.447  29.620   4.922
24941W        W93335  17.259  42.809  14.403
24942W        W93336   3.153  14.578   2.723
24943W        W93337   3.023  27.969   0.678
24944W        W93338  21.991  33.535   4.581
24945W        W93339  17.203  30.719  13.384
24946W        W93340   9.224  13.595   1.971
24947W        W93341  26.925   3.360   3.711
24948W        W93342   4.259  10.112  12.366
24949W        W93343   7.173  15.553   3.912
24950W        W93344  25.415  27.096   2.662
24951W        W93345   2.685   9.159   1.935
24952W        W93346  31.391  24.542   4.298
24953W        W93347  44.057  44.334  11.525
24954W        W93348  17.937  34.943   2.198
24955W        W93349  14.087  16.767   3.515
24956W        W93350  38.778   7.858  12.632
24957W        W93351   8.667  39.843  13.369
24958W        W93352   2.503  29.508  12.484
24959W        W93353  21.156  32.477   2.709
24960W        W93354  23.675   0.030  11.493
24961W        W93355   9.390   9.621  11.169
24962W        W93356  19.452  42.721   0.434
24963W        W93357   0.729  13.766   2.100
24964W        W93358  38.377  12.550   0.699
24965W        W93359   9.128   1.506   3.257
24966W        W93360  23.559  36.579   2.130
24967W        W93361  29.988  25.014   0.598
24968W        W93362  29.497   3.105   2.616
24969W        W93363  43.751  12.760  12.332
24970W        W93364  19.198   0.714  14.021
24971W        W93365  28.195  41.549  12.590
24972W        W93366  28.512   8.748  12.923
24973W        W93367   0.203  38.182  10.703
24974W        W93368  28.688  25.660   0.622
24975W        W93369  16.179   1.825   1.805
24976W        W93370  14.740  15.688  12.517
24977W        W93371  10.421   6.746   0.460
24978W        W93372  27.967  33.040   4.057
24979W        W93373   2.791  13.971  11.971
24980W        W93374  28.472  36.483  14.520
24981W        W93375  39.011  18.212   0.765
24982W        W93376  38.579  31.118  14.036
24983W        W93377  23.717  40.276  10.704
24984W        W93378  29.570  40.344  14.032
24985W        W93379  17.317  39.484   4.559
24986W        W93380   5.455  33.949   4.116
24987W        W93381  21.110  41.385   5.026
24988W        W93382  18.406  25.096   4.537
24989W        W93383  34.220   5.160  11.618
24990W        W93384  25.113  13.575   0.021
24991W        W93385  36.035  31.640  11.732
24992W        W93386   3.899  14.347   0.418
24993W        W93387  14.858   1.303  12.034
24994W        W93388   9.166  12.332  12.623
24995W        W93389   8.415  44.000  14.909
24996W        W93390  22.544  29.844  13.268
24997W        W93391  12.688  31.120   3.293
24998W        W93392   6.452  33.360  11.627
24999W        W93393  29.181   9.271   4.846
25000W        W93394  42.764  21.205  12.455
25001W        W93395  19.240   0.351  10.572
25002W        W93396  42.684   6.726   1.197
25003W        W93397  20.292   5.519  10.966
25004W        W93398  31.371  34.141   4.580
25005W        W93399  15.651  30.624   0.924
25006W        W93400  32.885  16.173  13.380
25007W        W93401   2.706  36.855  14.746
25008W        W93402   0.574  36.519   4.140
25009W        W93403  29.965  40.753  14.051
25010W        W93404  22.316  25.651   1.753
25011W        W93405  28.829   6.655  14.452
25012W        W93406   6.199  41.537  14.155
25013W        W93407   8.240  13.184   3.677
25014W        W93408   7.688   5.956   3.057
25015W        W93409  15.088  25.494   0.361
25016W        W93410   6.421  24.143  11.836
25017W        W93411  11.661   2.428  11.265
25018W        W93412   3.849  42.816   4.064
25019W        W93413  23.431   6.765   2.187
25020W        W93414  24.519  42.220  12.143
25021W        W93415  17.295  26.598  14.912
25022W        W93416  26.693  27.328   1.916
25023W        W93417  21.474  12.541   1.216
25024W        W93418  30.233   9.802   0.348
25025W        W93419  23.494   9.074   3.545
25026W        W93420  20.743  44.299   0.942
25027W        W93421  41.349   1.414   1.762
25028W        W93422   8.040  38.384  14.502
25029W        W93423  17.213  40.456   0.747
25030W        W93424   2.994   2.862  14.271
25031W        W93425  29.037  37.433  11.092
25032W        W93426  41.254  25.447   4.970
25033W        W93427  37.464   4.947   3.206
25034W        W93428  28.141  28.467   4.585
25035W        W93429   0.815  39.860   2.708
25036W        W93430  32.084  15.366   2.805
25037W        W93431   6.292   5.378   2.317
25038W        W93432  33.453  29.728  11.150
25039W        W93433  16.679  30.651   3.189
25040W        W93434  29.484   2.860   1.215
25041W        W93435  42.744  27.576  12.497
25042W        W93436  30.556  37.485   0.932
25043W        W93437  15.000  25.629  12.827
25044W        W93438   4.804  32.349   1.964
25045W        W93439   4.881   8.979  11.551
25046W        W93440  34.935  30.184  14.318
25047W        W93441  32.898  41.977   3.688
25048W        W93442  34.286   5.172   1.907
25049W        W93443  16.803  32.900  14.348
25050W        W93444  11.424   5.269  13.590
25051W        W93445   5.466   0.417  14.293
25052W        W93446   4.700  16.430  10.756
25053W        W93447   6.836  15.184  10.425
25054W        W93448  10.439   4.096  13.482
25055W        W93449   7.416  34.852   3.691
25056W        W93450   5.272  12.035  14.980
25057W        W93451  38.321   1.912  12.490
25058W        W93452  38.435   5.225  14.518
25059W        W93453   6.928   8.396   0.837
25060W        W93454  34.743  32.741  13.376
25061W        W93455  33.772  32.452  13.499
25062W        W93456   9.724  10.767  10.785
25063W        W93457  24.493  34.656   4.270
25064W        W93458  30.991   2.603   0.855
25065W        W93459  22.003   2.911   3.783
25066W        W93460  14.297  30.150  14.710
25067W        W93461  27.522  13.829   4.157
25068W        W93462  33.620  42.277  12.939
25069W        W93463   0.191  37.017   2.528
25070W        W93464  23.563  12.230  10.967
25071W        W93465   3.854   2.334   0.619
25072W        W93466  24.030   8.834  12.410
25073W        W93467  34.015  22.797  13.873
25074W        W93468  31.630  34.824  10.621
25075W        W93469  24.222  10.462   1.900
25076W        W93470   5.159  22.158   0.300
25077W        W93471   9.715  35.721  12.934
25078W        W93472  28.358  35.774   4.366
25079W        W93473   0.724   3.670  14.316
25080W        W93474  34.204  12.734   4.669
25081W        W93475   2.480  17.475  10.532
25082W        W93476   6.476   6.259   3.655
25083W        W93477   3.006  14.847  13.008
25084W        W93478  22.422  37.423  14.533
25085W        W93479  34.864  25.556   2.877
25086W        W93480  11.242   1.723  12.933
25087W        W93481  21.786  12.670   0.286
25088W        W93482  27.072  15.039  11.238
25089W        W93483  17.768  30.880  12.161
25090W        W93484   5.054   8.146  11.631
25091W        W93485  28.971  35.922   0.732
25092W        W93486  32.742  16.803   2.487
25093W        W93487   5.990   0.865  11.380
25094W        W93488   2.413  16.465   0.787
25095W        W93489  40.068  20.754   0.805
25096W        W93490  27.909  34.057   4.151
25097W        W93491  18.087  41.189   1.477
25098W        W93492  16.867  29.642  14.410
25099W        W93493  18.181  25.278  11.162
25100W        W93494  12.761  13.577  14.337
25101W        W93495   8.157   3.280   3.215
25102W        W93496  15.747  27.619   2.776
25103W        W93497  36.646  34.691  14.909
25104W        W93498  19.066  28.371   3.926
25105W        W93499  23.972  26.411   4.625
25106W        W93500  24.190   5.007   1.044
25107W        W93501  24.604   1.968   2.660
25108W        W93502   0.118  32.065   1.282
25109W        W93503  24.028  15.831  10.602
25110W        W93504  24.456  27.502  12.994
25111W        W93505   3.193   3.636  13.869
25112W        W93506   2.406  18.174  11.608
25113W        W93507   5.158   8.985   0.926
25114W        W93508  38.299   1.400   2.213
25115W        W93509  31.759  18.609   4.125
25116W        W93510   8.123  27.430   2.231
25117W        W93511   9.959  41.520   4.393
25118W        W93512  12.662  17.273   0.346
25119W        W93513  17.999  18.955   1.919
25120W        W93514  18.791   8.040  12.992
25121W        W93515   0.392  18.507   0.489
25122W        W93516   3.424  35.131  11.132
25123W        W93517  20.146  16.271   3.671
25124W        W93518   1.974  38.940  12.035
25125W        W93519  42.528  20.754  12.439
25126W        W93520  42.501  20.219   0.503
25127W        W93521   7.354  22.457  14.006
25128W        W93522   2.228   7.259  10.553
25129W        W93523  23.090  21.890  12.985
25130W        W93524  38.815   5.780  14.941
25131W        W93525   8.778   1.437   4.952
25132W        W93526  36.842  31.532   1.953
25133W        W93527  26.174  10.151  13.070
25134W        W93528  42.262  14.127   1.342
25135W        W93529   2.682  16.504  12.470
25136W        W93530  14.350  10.210  13.099
25137W        W93531  34.000  16.383  14.406
25138W        W93532  10.085  32.034   2.160
25139W        W93533  18.054   5.025   3.245
25140W        W93534  26.760   6.758  12.796
25141W        W93535  21.254  29.612  12.119
25142W        W93536  28.790  36.817   3.169
25143W        W93537  44.579  21.484  13.340
25144W        W93538  34.073   3.458   4.653
25145W        W93539   1.821  33.856   3.377
25146W        W93540  40.702  14.609   4.137
25147W        W93541   7.535  31.614  12.161
25148W        W93542  10.281  18.651  13.896
25149W        W93543  19.775  24.125   0.653
25150W        W93544  14.766  37.806   0.809
25151W        W93545  36.518  38.483   0.292
25152W        W93546  20.145  44.837  10.762
25153W        W93547   0.743  16.007   2.053
25154W        W93548  16.105  11.703   3.255
25155W        W93549  38.135  23.706  12.447
25156W        W93550  25.033  29.037  11.397
25157W        W93551  26.656  35.547   2.743
25158W        W93552  36.254  19.327   1.129
25159W        W93553  30.566   6.930   4.289
25160W        W93554  37.497  20.113  14.349
25161W        W93555  19.970  24.191  11.045
25162W        W93556  10.625  19.011   3.548
25163W        W93557  35.437  30.713   1.177
25164W        W93558   2.324  17.697   4.958
25165W        W93559  24.854  32.537  12.855
25166W        W93560  21.001  24.685  13.779
25167W        W93561  19.109   3.713   3.280
25168W        W93562   5.750   9.902   3.145
25169W        W93563  23.993  26.232  14.742
25170W        W93564  35.559  34.625  13.949
25171W        W93565  19.018  41.821   1.943
25172W        W93566  21.952   4.975  14.713
25173W        W93567   3.714   9.648   0.592
25174W        W93568  42.636  15.824   0.668
25175W        W93569   4.957   5.796   1.312
25176W        W93570  24.985  11.224   2.591
25177W        W93571  19.770   8.073   4.122
25178W        W93572   7.298  42.320  12.001
25179W        W93573  43.368  38.355  11.348
25180W        W93574  27.067  31.132   0.884
25181W        W93575  15.127  20.649   1.096
25182W        W93576  26.519  40.850   3.834
25183W        W93577   0.877  37.581  14.761
25184W        W93578  14.235   1.441  10.791
25185W        W93579  31.187  44.692  14.369
25186W        W93580  16.579   4.253  10.628
25187W        W93581  12.760  39.071   1.181
25188W        W93582  20.927  29.584   0.908
25189W        W93583  32.346  30.055   1.188
25190W        W93584  27.237  25.138  13.600
25191W        W93585  10.865  11.915  10.200
25192W        W93586   1.246   1.530  12.111
25193W        W93587   7.666  32.498  14.420
25194W        W93588  22.818  44.811   4.767
25195W        W93589  25.332  12.818  12.078
25196W        W93590  14.408  42.031   0.357
25197W        W93591  36.033   3.967   1.517
25198W        W93592  14.941   8.577   1.334
25199W        W93593  29.508  33.470  10.683
25200W        W93594  22.649  30.024  12.781
25201W        W93595  35.445  37.433   4.036
25202W        W93596  27.940  21.498  12.352
25203W        W93597  22.399  35.491   3.743
25204W        W93598  16.699  10.884  14.702
25205W        W93599  26.039  21.393   4.948
25206W        W93600  15.071  37.168   1.829
25207W        W93601  28.998  20.555   0.414
25208W        W93602  43.313   8.735   4.526
25209W        W93603  40.437  10.655  10.796
25210W        W93604  22.915  44.953   3.294
25211W        W93605  29.158  19.821  10.730
25212W        W93606  29.460   7.362   4.542
25213W        W93607  22.995   1.479  14.898
25214W        W93608  12.743  12.815  14.790
25215W        W93609  42.899  38.509   1.840
25216W        W93610   0.066   3.665  13.468
25217W        W93611   9.293  17.843  14.779
25218W        W93612  14.163  36.972  11.057
25219W        W93613  24.563  13.197   2.904
25220W        W93614  33.210  42.931  11.618
25221W        W93615  38.051  36.450  12.935
25222W        W93616  25.431  17.732   3.587
25223W        W93617   9.817  38.912  14.027
25224W        W93618  39.437   8.454  10.914
25225W        W93619  24.799  12.493   2.227
25226W        W93620  19.789  22.994  14.061
25227W        W93621  40.396  28.576  12.877
25228W        W93622   7.232  21.835   2.421
25229W        W93623  21.100  22.494  10.596
25230W        W93624   9.076  22.912   2.735
25231W        W93625  13.404   2.800   1.412
25232W        W93626  19.093  32.060   3.239
25233W        W93627  18.019  44.745   1.008
25234W        W93628  33.477  26.764   4.997
25235W        W93629  15.921  28.999   3.566
25236W        W93630  23.874  41.693  13.490
25237W        W93631  39.409  35.767  11.727
25238W        W93632  16.977  32.610   4.874
25239W        W93633  38.996   3.757  12.369
25240W        W93634   7.099  13.146  14.909
25241W        W93635  11.687  24.967   1.386
25242W        W93636  23.087  36.507   2.918
25243W        W93637   4.668  22.242   0.107
25244W        W93638  21.059  40.968   2.203
25245W        W93639  12.814   0.991  13.414
25246W        W93640   7.700  11.927  13.407
25247W        W93641  44.394  24.127   2.210
25248W        W93642  37.431  27.354   3.215
25249W        W93643   5.156  38.943  11.729
25250W        W93644  40.882  21.096   9.928
25251W        W93645  32.967   0.935  12.332
25252W        W93646  32.882  14.643  12.058
25253W        W93647   1.144  25.371  10.449
25254W        W93648  40.088  31.292   3.201
25255W        W93649  16.264   0.524   3.370
25256W        W93650  11.821  37.615   4.091
25257W        W93651   4.250   4.630   4.501
25258W        W93652   4.126  29.903  11.226
25259W        W93653  11.804  39.486   0.325
25260W        W93654   1.822  42.692   4.168
25261W        W93655  37.146  28.225   0.489
25262W        W93656  23.472  26.813  11.204
25263W        W93657   4.971  40.537   0.717
25264W        W93658  28.993  41.308  12.216
25265W        W93659   7.830  23.985   4.158
25266W        W93660  41.263  29.111  10.716
25267W        W93661  32.627  20.965   0.158
25268W        W93662   4.701  40.921   3.423
25269W        W93663  19.090  14.255  14.729
25270W        W93664  13.030   7.827  12.195
25271W        W93665  12.939  38.875  14.663
25272W        W93666  12.183  35.430  10.713
25273W        W93667  27.143   2.258   3.116
25274W        W93668  19.664  25.942  11.570
25275W        W93669  33.464  37.033   5.118
25276W        W93670  30.561  42.006  11.236
25277W        W93671   8.700  17.692  14.070
25278W        W93672  16.302   2.264   0.885
25279W        W93673  38.326  21.056  11.543
25280W        W93674  32.528  16.301  14.333
25281W        W93675  36.104  36.737   4.346
25282W        W93676  20.197  25.228  11.610
25283W        W93677  32.666  33.566  11.394
25284W        W93678  13.864  32.219   5.134
25285W        W93679  16.511  13.840   4.168
25286W        W93680  30.376  42.850  11.847
25287W        W93681   8.148  37.948  11.568
25288W        W93682  41.199   9.846   0.298
25289W        W93683  19.059  28.988  14.325
25290W        W93684   0.995  36.382   1.881
25291W        W93685  11.022  33.827  11.069
25292W        W93686  34.799  22.595  12.430
25293W        W93687  39.017  29.393  14.677
25294W        W93688  24.712  38.328   3.285
25295W        W93689  41.904  12.761  10.315
25296W        W93690  17.580  30.458   2.807
25297W        W93691  43.049  14.498  13.435
25298W        W93692  38.669   0.484   0.957
25299W        W93693  12.817   8.800   3.576
25300W        W93694  12.861  13.358   3.626
25301W        W93695   7.761  14.924   3.482
25302W        W93696  10.743  36.559   2.005
25303W        W93697   7.326  27.512   0.318
25304W        W93698  40.325  30.715  10.698
25305W        W93699  43.151  44.429  10.696
25306W        W93700  11.602   4.288  10.774
25307W        W93701   3.464  14.919  12.787
25308W        W93702   6.606  40.779   2.346
25309W        W93703  36.361  23.237  11.133
25310W        W93704  16.059  43.762  12.157
25311W        W93705  12.282   6.758  12.558
25312W        W93706  34.784   6.628  11.518
25313W        W93707  31.253   9.346   1.794
25314W        W93708   4.032  15.816   4.999
25315W        W93709  11.845  14.280   2.230
25316W        W93710   5.249  10.837  13.400
25317W        W93711  42.120  41.340   4.528
25318W        W93712  25.888   8.440  13.858
25319W        W93713  36.093  21.358  12.196
25320W        W93714  44.041  24.911  11.074
25321W        W93715  34.863  18.355  11.174
25322W        W93716  18.656   8.374  14.073
25323W        W93717  27.612   8.783  14.438
25324W        W93718  32.064  19.362   2.409
25325W        W93719  33.579   0.029  13.667
25326W        W93720  33.612  33.308   2.496
25327W        W93721  31.216   1.787  10.344
25328W        W93722  23.235   5.275  14.810
25329W        W93723  13.873  23.180   2.358
25330W        W93724  32.897  39.532  12.908
25331W        W93725   9.237  33.975   3.774
25332W        W93726  40.722   5.335   3.254
25333W        W93727   1.135  19.765   4.505
25334W        W93728  39.437   3.217   2.168
25335W        W93729  42.052   9.690   0.851
25336W        W93730  40.021   6.273  12.012
25337W        W93731   0.512  40.269   2.735
25338W        W93732  12.389   4.679  14.114
25339W        W93733  40.493   7.264  13.038
25340W        W93734  29.697  27.572   0.040
25341W        W93735  24.598  43.423   2.179
25342W        W93736  40.612   9.133   2.385
25343W        W93737  33.946  39.834   2.762
25344W        W93738  27.557  41.877   0.745
25345W        W93739  43.857  43.326  12.589
25346W        W93740   1.549  12.906  11.261
25347W        W93741   6.198  22.901  12.534
25348W        W93742   9.003  40.084  11.773
25349W        W93743  14.669  19.555  14.931
25350W        W93744  28.393  27.067  14.760
25351W        W93745  34.272  38.750  12.887
25352W        W93746  43.529   5.131  13.935
25353W        W93747  11.173  34.787   1.400
25354W        W93748  15.522  17.799  13.084
25355W        W93749  39.283   0.622  11.505
25356W        W93750  34.591  23.978   4.840
25357W        W93751  24.134   2.287  11.134
25358W        W93752  27.146  15.539   4.654
25359W        W93753   5.379   6.892  12.843
25360W        W93754  11.859   8.843   1.436
25361W        W93755  15.621  26.487   0.007
25362W        W93756  39.416  40.352   0.676
25363W        W93757   6.944  10.215   4.422
25364W        W93758   6.707  25.132   3.171
25365W        W93759  14.350  18.528   2.286
25366W        W93760  39.492  28.547   1.809
25367W        W93761   4.033  35.307  14.448
25368W        W93762  32.184  13.152  10.241
25369W        W93763   7.588  16.114  13.907
25370W        W93764   3.798  10.396   1.840
25371W        W93765  38.705  12.288   3.023
25372W        W93766  29.715  14.441   0.913
25373W        W93767  31.821  40.200  13.043
25374W        W93768  16.798  19.228  13.009
25375W        W93769   3.732  26.957   5.013
25376W        W93770  39.850  29.782   1.660
25377W        W93771  21.887  26.032   0.719
25378W        W93772  30.021  27.930   3.688
25379W        W93773   0.445  25.210   0.298
25380W        W93774  13.782  17.606   4.827
25381W        W93775  27.569  15.648  11.966
25382W        W93776  30.381  28.103   1.837
25383W        W93777  34.488   3.822   2.726
25384W        W93778  32.615  44.158  12.830
25385W        W93779  28.173  24.664   0.055
25386W        W93780  17.640  22.959   3.251
25387W        W93781  42.372  42.833  10.632
25388W        W93782  35.380  34.073   2.864
25389W        W93783   2.398  35.951   3.723
25390W        W93784  39.898  30.603  12.501
25391W        W93785  22.668  20.060   3.608
25392W        W93786   2.934  19.061  11.270
25393W        W93787   3.409  37.332   0.039
25394W        W93788  22.952  25.053   2.739
25395W        W93789  17.725  36.119   0.866
25396W        W93790   0.502  39.386   1.239
25397W        W93791  39.830  38.808  13.334
25398W        W93792   8.131  14.871   1.751
25399W        W93793   1.727  13.468  10.385
25400W        W93794   1.295  30.690  10.938
25401W        W93795  24.533  26.400   1.284
25402W        W93796  17.066   8.144   3.430
25403W        W93797   7.193   8.444   3.666
25404W        W93798  19.984  19.169   0.919
25405W        W93799  32.410   7.631  14.078
25406W        W93800  39.734  43.499  12.266
25407W        W93801   5.978  38.911  12.973
25408W        W93802   2.694  30.119  10.856
25409W        W93803  30.738  37.455   2.960
25410W        W93804   9.263   7.913   3.084
25411W        W93805   9.311  39.562   0.136
25412W        W93806  16.375  35.617  11.226
25413W        W93807  34.221   9.079  11.205
25414W        W93808  37.808  32.148  11.564
25415W        W93809  42.332   1.343  12.029
25416W        W93810   3.872   1.755  13.997
25417W        W93811  19.828  35.990   2.757
25418W        W93812   2.977   7.404   1.833
25419W        W93813  44.451  19.350   3.516
25420W        W93814  12.422   4.116  13.430
25421W        W93815   9.663  27.070  11.993
25422W        W93816  40.241  24.215   3.651
25423W        W93817  21.480  13.687   4.956
25424W        W93818  17.012  41.912   3.969
25425W        W93819  28.411  32.419  12.274
25426W        W93820   8.019   3.260  13.547
25427W        W93821  21.555  24.546   2.272
25428W        W93822  43.038   8.078  10.763
25429W        W93823  23.267  20.149   3.964
25430W        W93824  23.525  35.886  14.874
25431W        W93825  28.554  11.429  11.061
25432W        W93826  19.017  42.456   1.354
25433W        W93827  10.898  22.503   0.397
25434W        W93828  22.937  23.671   4.983
25435W        W93829   8.142  36.966   0.046
25436W        W93830   1.193  16.028  14.854
25437W        W93831  10.676  33.570  12.882
25438W        W93832  39.776   2.391   4.363
25439W        W93833  36.161  17.525  12.541
25440W        W93834  18.238  22.653   3.874
25441W        W93835   4.325  24.267   2.511
25442W        W93836  10.379  41.555   2.340
25443W        W93837  10.707  24.066  11.448
25444W        W93838  21.321   0.580   0.028
25445W        W93839  31.055  39.070  13.234
25446W        W93840  25.474  24.675   0.782
25447W        W93841  24.588  26.995  11.439
25448W        W93842   3.991  15.711  13.995
25449W        W93843  31.266  44.376  13.323
25450W        W93844  32.255  41.468  11.651
25451W        W93845  43.858  38.814  13.774
25452W        W93846  36.767  20.962   2.730
25453W        W93847  44.402  16.316   3.242
25454W        W93848  44.275  29.501  14.040
25455W        W93849  43.278  22.164   1.762
25456W        W93850   5.935  27.007  14.704
25457W        W93851  10.365  44.454  10.824
25458W        W93852  21.531  29.177   4.589
25459W        W93853  35.822  40.143  13.988
25460W        W93854  16.752  12.720   1.257
25461W        W93855  23.242  14.951  12.391
25462W        W93856  43.999  25.695  13.404
25463W        W93857   4.797  44.876   3.299
25464W        W93858   9.549  25.097  13.373
25465W        W93859   3.696  18.753   1.837
25466W        W93860   9.003  40.623  11.848
25467W        W93861   5.804  13.459   1.086
25468W        W93862   1.896   7.690  11.159
25469W        W93863  26.770  15.475  14.520
25470W        W93864  12.261  18.164   1.931
25471W        W93865  24.124  36.800  12.024
25472W        W93866   3.402  18.501  14.840
25473W        W93867  31.573   5.999   4.116
25474W        W93868  23.290  39.548   1.213
25475W        W93869  35.633  36.834   4.623
25476W        W93870  44.675  32.589   3.252
25477W        W93871  41.255  23.750  14.674
25478W        W93872  39.883  15.011  14.534
25479W        W93873  19.378  35.971  12.331
25480W        W93874   4.597  15.774  14.803
25481W        W93875   6.293  35.126   0.181
25482W        W93876  11.751  31.594  13.965
25483W        W93877   2.936   3.300   4.625
25484W        W93878  25.133  33.812   4.425
25485W        W93879  28.730  10.888  13.509
25486W        W93880   0.280  20.912  10.669
25487W        W93881  13.590  22.273  13.117
25488W        W93882  23.344  32.064   3.299
25489W        W93883  34.085  18.610  12.614
25490W        W93884  24.678  33.966  13.386
25491W        W93885  22.412  42.439  12.876
25492W        W93886  44.297   8.852  13.796
25493W        W93887  26.986  24.078  12.007
25494W        W93888   2.249  39.291   3.885
25495W        W93889  33.805  43.214  10.677
25496W        W93890  11.532  22.631  14.012
25497W        W93891  13.825  11.828  10.702
25498W        W93892  22.962  36.840   3.288
25499W        W93893  21.802  31.308  13.982
25500W        W93894  33.763  40.010   3.258
25501W        W93895  30.859   0.324  12.371
25502W        W93896   2.376  24.742   5.091
25503W        W93897  40.024  15.390   4.844
25504W        W93898   4.172   4.994   0.204
25505W        W93899  30.965  34.366  10.356
25506W        W93900  44.967   0.067  13.029
25507W        W93901   4.829  40.928   0.365
25508W        W93902  32.993  43.405  11.610
25509W        W93903  40.171  27.411   2.273
25510W        W93904   7.303  34.347   0.302
25511W        W93905  37.510  43.220   4.874
25512W        W93906  34.904  18.239   0.437
25513W        W93907  12.758  30.385   4.219
25514W        W93908  37.127  30.939  12.258
25515W        W93909  20.265  41.660   1.365
25516W        W93910  14.393  29.969   1.211
25517W        W93911  16.092  34.152   2.789
25518W        W93912  43.997   0.335  14.360
25519W        W93913   6.492  43.961   2.786
25520W        W93914   6.826  12.331  12.485
25521W        W93915  27.506  16.233   4.731
25522W        W93916   2.732  25.412   0.431
25523W        W93917  30.420  25.949   0.860
25524W        W93918   8.818  42.407  10.699
25525W        W93919  12.709  29.532  10.726
25526W        W93920  12.273  36.429  12.391
25527W        W93921  35.985  36.003  13.315
25528W        W93922  14.625  31.654   1.577
25529W        W93923  41.412  34.207   4.029
25530W        W93924  22.870  32.967  11.514
25531W        W93925  15.124  37.125   4.550
25532W        W93926  41.983  24.882   1.889
25533W        W93927  43.727  31.888   1.848
25534W        W93928  31.658   8.499  12.508
25535W        W93929  28.988  11.072   4.602
25536W        W93930  44.341  40.247   1.297
25537W        W93931  23.860  41.078   3.661
25538W        W93932  37.929  13.879   4.740
25539W        W93933  31.960  15.633  14.820
25540W        W93934  24.807  35.519   0.362
25541W        W93935  43.947  15.103   0.264
25542W        W93936  16.697  14.105  11.214
25543W        W93937  22.492  42.879  10.799
25544W        W93938  37.031  31.414   2.957
25545W        W93939  22.660  24.399  12.088
25546W        W93940  33.065  38.520  10.886
25547W        W93941  40.990  15.418   3.363
25548W        W93942  38.977  44.636  13.006
25549W        W93943  31.925   3.548   0.304
25550W        W93944  38.856   4.943   0.303
25551W        W93945  17.815   9.003  11.711
25552W        W93946   3.211   7.638  14.802
25553W        W93947  15.291  33.911   1.406
25554W        W93948   1.858  23.778   4.583
25555W        W93949  13.317  20.680   4.982
25556W        W93950  14.014   1.745   1.904
25557W        W93951  11.558  42.285   4.147
25558W        W93952  17.981  14.624   3.544
25559W        W93953  33.162   4.259  13.337
25560W        W93954  22.929  20.908   1.781
25561W        W93955   5.723   8.453  14.369
25562W        W93956  14.773  29.573  10.380
25563W        W93957  22.442  42.443   3.471
25564W        W93958  28.508  40.096  12.717
25565W        W93959  19.194  42.779  11.449
25566W        W93960  16.991  25.462   0.840
25567W        W93961  23.182  27.235   4.012
25568W        W93962   3.510  41.588  14.802
25569W        W93963  24.091  30.377  14.518
25570W        W93964  33.195  13.996  11.202
25571W        W93965   6.311  37.025   4.191
25572W        W93966  37.567   3.721  14.380
25573W        W93967  22.178   8.182   3.939
25574W        W93968  34.045  41.186  14.902
25575W        W93969   8.277  22.347  13.789
25576W        W93970   2.920  16.549   1.430
25577W        W93971  16.757  31.475  11.595
25578W        W93972  23.648  24.619   4.572
25579W        W93973  15.357  28.713   0.073
25580W        W93974   0.932   4.752   2.321
25581W        W93975  31.534  16.318   1.674
25582W        W93976  29.898   0.869  14.249
25583W        W93977   5.519  23.180   3.315
25584W        W93978  32.932  11.119  12.553
25585W        W93979  36.184  34.511  12.480
25586W        W93980  23.739  40.573  14.549
25587W        W93981   2.244  30.512  11.554
25588W        W93982   6.262  12.273   2.438
25589W        W93983  27.622  13.600   3.706
25590W        W93984  28.856   6.403   1.844
25591W        W93985   3.205  25.540   0.577
25592W        W93986   1.856  26.362   2.400
25593W        W93987  23.296  28.529   4.608
25594W        W93988  14.542  44.916  13.371
25595W        W93989   2.876  16.287   4.250
25596W        W93990  22.606   6.350  13.417
25597W        W93991  33.426   9.814  11.136
25598W        W93992  42.465  18.046   2.652
25599W        W93993  24.267   3.761   4.196
25600W        W93994  35.627  39.624   0.696
25601W        W93995  41.000  33.649   1.902
25602W        W93996  18.804   3.854   2.838
25603W        W93997   4.503   0.700  11.093
25604W        W93998  12.182  30.029   2.340
25605W        W93999   6.447  22.997   3.555
25606W        W94000  22.281  24.785   4.086
25607W        W94001  29.116  44.348  10.160
25608W        W94002   3.052  14.696   0.415
25609W        W94003   4.657   4.328  11.114
25610W        W94004  27.571   4.698   0.820
25611W        W94005   2.326  25.811  10.707
25612W        W94006  36.734  11.664  10.329
25613W        W94007  34.525  42.966  12.375
25614W        W94008  13.337  27.120  12.376
25615W        W94009  28.407  16.152   4.854
25616W        W94010  44.192   5.954  11.036
25617W        W94011  26.660   5.924   1.377
25618W        W94012   7.472  31.075   3.836
25619W        W94013  15.719  34.293   0.394
25620W        W94014   0.890   8.729   1.413
25621W        W94015  35.257  37.283  13.788
25622W        W94016  35.490  32.455  11.544
25623W        W94017  15.399  40.455   3.110
25624W        W94018  18.179  29.540   2.865
25625W        W94019   7.768  37.245   4.146
25626W        W94020  23.323  40.874   1.104
25627W        W94021  16.057   1.778   0.951
25628W        W94022  14.440  29.684   2.695
25629W        W94023   4.619  28.246  14.777
25630W        W94024  29.613  15.845  10.264
25631W        W94025  44.563   7.933   3.232
25632W        W94026  34.202   3.924   4.434
25633W        W94027  44.186  33.646   0.254
25634W        W94028   6.898  35.615   2.738
25635W        W94029   2.305  27.732  11.488
25636W        W94030  44.739  42.718   4.082
25637W        W94031  33.707  41.990   0.452
25638W        W94032  39.642   4.467  12.135
25639W        W94033  25.673   2.158  11.222
25640W        W94034  22.645  33.300  11.160
25641W        W94035  42.082  24.380   1.744
25642W        W94036   9.160  39.002  12.446
25643W        W94037   1.253  13.661  10.347
25644W        W94038  30.093  10.871  13.608
25645W        W94039  26.054  38.321   2.312
25646W        W94040   8.230   9.843   1.923
25647W        W94041  32.694  31.460   3.788
25648W        W94042   2.823  44.036   3.718
25649W        W94043   5.309   6.783   4.407
25650W        W94044  26.148   3.326  13.541
25651W        W94045  35.027  15.494  12.810
25652W        W94046   7.688  38.758   1.880
25653W        W94047   1.285  18.276  10.505
25654W        W94048   4.951  33.148  13.904
25655W        W94049  33.331   2.332  12.402
25656W        W94050  39.418  21.443   2.351
25657W        W94051  26.592  24.211  13.155
25658W        W94052  31.625  11.256   3.366
25659W        W94053  34.917   9.799  13.887
25660W        W94054  20.790  16.063  11.277
25661W        W94055  13.614  29.639  13.517
25662W        W94056  31.619  36.421  10.937
25663W        W94057   2.893  17.638   3.090
25664W        W94058  32.032   2.997  13.401
25665W        W94059   9.212  44.948  12.567
25666W        W94060   8.266  16.558   2.400
25667W        W94061   4.114   5.841   0.016
25668W        W94062  36.946  43.509  13.421
25669W        W94063  22.909  42.969   1.273
25670W        W94064  29.722  38.141  11.130
25671W        W94065  27.544   9.292   2.697
25672W        W94066   9.203  41.947   4.695
25673W        W94067   2.287  39.379  11.609
25674W        W94068   7.727  31.583  14.195
25675W        W94069  33.332  17.382  13.221
25676W        W94070  35.788   8.360  12.345
25677W        W94071  19.012  28.141  13.593
25678W        W94072   9.672  42.692   1.717
25679W        W94073   4.387   1.259   4.130
25680W        W94074   8.412  16.221  14.420
25681W        W94075   9.121   3.229   2.356
25682W        W94076  38.161  37.939  13.536
25683W        W94077  19.729   5.323   2.245
25684W        W94078  40.070  37.315  10.577
25685W        W94079  34.803  28.475  14.720
25686W        W94080  29.438  39.969   3.454
25687W        W94081  26.922   7.000  11.792
25688W        W94082   5.886  26.076   1.880
25689W        W94083  35.143  43.659  10.768
25690W        W94084  16.052  19.235  13.353
25691W        W94085   0.950  17.213   2.711
25692W        W94086  20.203  18.312   3.658
25693W        W94087  37.489   2.465  10.646
25694W        W94088  19.804  25.108  10.328
25695W        W94089   1.327   0.665  11.523
25696W        W94090  33.110   6.977   4.206
25697W        W94091  41.459  33.413   2.277
25698W        W94092  16.114  15.331   0.765
25699W        W94093  38.393  15.140  12.495
25700W        W94094   4.003  16.241   9.716
25701W        W94095  40.474   9.126  11.919
25702W        W94096   7.622  24.678  14.373
25703W        W94097  30.665   3.602  11.309
25704W        W94098  24.234  14.169  14.345
25705W        W94099  29.910  42.022   1.669
25706W        W94100  40.818  33.386  13.789
25707W        W94101  14.112  24.059   2.132
25708W        W94102  20.723  34.276   3.265
25709W        W94103  15.194  17.587  14.853
25710W        W94104  42.142  39.462  10.663
25711W        W94105  13.449   2.996   1.990
25712W        W94106  12.881  12.410  12.945
25713W        W94107  16.048   9.438   3.717
25714W        W94108  38.076  28.598  12.057
25715W        W94109   7.935   5.966  14.514
25716W        W94110  43.569  23.786   4.440
25717W        W94111  36.923  36.540   0.197
25718W        W94112   8.607  11.919  11.453
25719W        W94113  23.738  30.202   4.753
25720W        W94114   5.223  12.757  13.411
25721W        W94115  29.673  38.355  11.604
25722W        W94116  22.722  41.262   4.162
25723W        W94117  19.752  11.417   0.455
25724W        W94118  14.483   9.670  13.185
25725W        W94119   6.179  36.891   0.734
25726W        W94120  27.510   2.927  14.260
25727W        W94121  40.061  18.753  10.491
25728W        W94122   6.117  20.025   3.442
25729W        W94123  13.657  20.138  11.687
25730W        W94124   8.870  12.986  13.054
25731W        W94125  29.603  11.030  13.482
25732W        W94126  34.336  28.632   1.893
25733W        W94127  41.368  34.295  11.006
25734W        W94128  41.099  19.067  14.670
25735W        W94129   7.466   0.507  10.735
25736W        W94130  35.902   3.456   1.440
25737W        W94131  33.408  15.181  12.473
25738W        W94132  33.635  10.913  12.922
25739W        W94133  21.967  44.942   0.794
25740W        W94134   1.911   0.357   3.508
25741W        W94135  23.294   2.429   1.258
25742W        W94136  42.626  39.703  10.655
25743W        W94137  17.116  28.754   2.875
25744W        W94138  37.603  27.095  11.639
25745W        W94139  42.412  21.882  10.749
25746W        W94140  35.422  12.417   2.785
25747W        W94141   8.265  15.698  14.451
25748W        W94142  19.790  16.081  12.457
25749W        W94143  27.596  17.870  11.203
25750W        W94144  15.706  38.587   3.811
25751W        W94145  24.959  37.257   2.598
25752W        W94146  21.152   4.410  13.486
25753W        W94147   2.496  40.074  12.010
25754W        W94148  37.878  41.743  13.907
25755W        W94149  17.290   3.483  13.551
25756W        W94150  30.020  37.594   0.859
25757W        W94151  35.310  14.600  12.976
25758W        W94152   4.977  22.303   2.637
25759W        W94153   0.318  27.654   2.624
25760W        W94154   8.194  43.045  13.078
25761W        W94155   0.062  28.162   2.586
25762W        W94156  42.813  26.524   2.313
25763W        W94157  31.487   7.662  13.841
25764W        W94158  20.027  39.098  12.413
25765W        W94159  11.883  34.114   1.356
25766W        W94160   9.427  26.971   2.633
25767W        W94161  11.198  17.997   2.682
25768W        W94162  41.245  17.132  14.474
25769W        W94163   9.748  24.501   5.205
25770W        W94164  23.010   7.642   4.854
25771W        W94165  40.746   8.940   1.915
25772W        W94166  30.365   4.794   2.574
25773W        W94167  24.561  37.034  12.144
25774W        W94168   9.348  21.014   3.151
25775W        W94169   9.949  13.583   2.779
25776W        W94170  43.716  34.369  14.999
25777W        W94171  42.555   3.307  13.921
25778W        W94172  33.354  19.296   0.338
25779W        W94173   6.854  26.237   3.694
25780W        W94174  28.681  30.934   3.541
25781W        W94175   1.420   8.371  11.712
25782W        W94176   9.954   3.295  12.920
25783W        W94177   9.056  39.899   4.085
25784W        W94178  32.179  21.576  11.220
25785W        W94179  22.033   6.863   0.418
25786W        W94180   2.711  27.552   2.352
25787W        W94181   5.468  33.641  10.789
25788W        W94182  23.490  20.890  13.773
25789W        W94183  29.974  17.180  11.419
25790W        W94184  44.721  44.975   2.781
25791W        W94185  39.818  26.539   2.227
25792W        W94186  27.435  27.601   3.254
25793W        W94187  32.200   7.328  11.197
25794W        W94188  40.063  12.348   0.475
25795W        W94189  14.502   3.613  11.000
25796W        W94190  39.582  30.971   4.957
25797W        W94191  14.856  42.914  12.841
25798W        W94192  17.134  36.664   3.854
25799W        W94193  38.838  36.442   0.651
25800W        W94194  14.087  13.769   2.393
25801W        W94195   2.238   0.054   1.903
25802W        W94196   5.087  10.347   3.593
25803W        W94197  17.233   6.650   0.427
25804W        W94198  16.576  44.615  13.223
25805W        W94199  39.285  40.289  13.191
25806W        W94200  23.554  44.452  10.686
25807W        W94201   6.889   3.965   0.941
25808W        W94202  25.869  25.172  11.045
25809W        W94203  19.798   7.187  13.736
25810W        W94204   9.371  33.382  11.182
25811W        W94205  29.007  31.013   2.297
25812W        W94206  14.743  35.393  11.477
25813W        W94207  11.608  33.350  12.076
25814W        W94208  37.754   9.527   0.333
25815W        W94209  39.505  14.764   0.345
25816W        W94210   5.268  15.353   5.145
25817W        W94211   8.103  24.670   2.722
25818W        W94212  18.258  16.017   1.813
25819W        W94213  24.801  16.485   1.287
25820W        W94214  43.246  36.933  13.345
25821W        W94215  37.424  25.095  13.818
25822W        W94216   1.823  35.738   1.737
25823W        W94217  25.047  22.755  14.275
25824W        W94218  37.032  30.692   1.303
25825W        W94219   4.545  34.552  11.462
25826W        W94220  14.128   5.436  10.305
25827W        W94221  19.445  20.182  10.714
25828W        W94222   7.259  33.415  11.983
25829W        W94223   7.721  40.434  13.278
25830W        W94224   1.084  18.536   2.258
25831W        W94225  34.534  31.813   2.662
25832W        W94226  12.344  40.583  14.779
25833W        W94227  38.869   4.349   3.953
25834W        W94228  40.063   7.933  14.806
25835W        W94229  32.486  17.474  11.980
25836W        W94230  36.483   2.725   4.957
25837W        W94231   4.884  18.811   1.253
25838W        W94232  43.618  16.705   3.315
25839W        W94233   8.419  15.188  14.546
25840W        W94234  24.272  19.977   4.087
25841W        W94235  20.747  15.754   1.174
25842W        W94236  15.088  42.842   2.321
25843W        W94237  44.425  35.118  14.252
25844W        W94238   7.817  33.615  11.607
25845W        W94239  10.668  29.909   2.421
25846W        W94240  32.583   7.464  11.526
25847W        W94241  10.247  37.031  10.505
25848W        W94242   8.344  33.369   4.688
25849W        W94243  35.987  10.262   0.995
25850W        W94244  31.898   0.015  12.319
25851W        W94245  40.158  36.657   1.895
25852W        W94246  27.594  29.158  11.617
25853W        W94247  16.488  23.001   0.731
25854W        W94248  25.119  17.311  14.667
25855W        W94249   7.190  39.468   4.277
25856W        W94250   6.542   0.434   4.035
25857W        W94251  42.206  26.506  13.337
25858W        W94252  33.058  33.601   0.538
25859W        W94253   4.372  37.866  12.083
25860W        W94254  21.190  33.636   0.828
25861W        W94255  18.764  32.130   0.313
25862W        W94256  14.766  31.452   3.888
25863W        W94257  15.624  10.814  13.761
25864W        W94258  37.036  16.585   3.282
25865W        W94259  21.451  34.905   2.772
25866W        W94260  38.601  16.145  11.499
25867W        W94261  19.458  40.567  13.055
25868W        W94262   9.403  24.099   0.990
25869W        W94263  41.939  14.268  11.187
25870W        W94264  10.342  31.287  13.341
25871W        W94265   5.735  29.470   0.944
25872W        W94266  23.481  27.719   1.024
25873W        W94267  22.765  30.729   0.800
25874W        W94268  27.144  28.479   0.493
25875W        W94269   7.840  38.421  12.166
25876W        W94270  34.025  23.713  14.819
25877W        W94271  41.509  25.397  13.846
25878W        W94272  24.070  32.423   0.679
25879W        W94273  22.756  20.102   0.478
25880W        W94274  28.885  15.800  13.890
25881W        W94275  25.427  31.073   1.839
25882W        W94276  43.324  36.611   3.520
25883W        W94277  43.204  13.141  10.319
25884W        W94278  22.227   7.592  11.029
25885W        W94279  20.949  15.415   2.145
25886W        W94280  37.796  32.747   1.649
25887W        W94281   6.913  31.560   4.601
25888W        W94282  36.347  43.503   0.900
25889W        W94283   3.380  22.118   4.121
25890W        W94284   1.401  32.033  10.332
25891W        W94285  34.909   2.533   4.268
25892W        W94286   5.976  42.026  12.905
25893W        W94287  31.560  19.672  11.282
25894W        W94288   4.737  16.584  11.698
25895W        W94289  43.653   8.479   1.604
25896W        W94290   2.072  16.040  12.951
25897W        W94291  20.334   6.899   1.178
25898W        W94292  36.775   7.312  12.538
25899W        W94293  18.815  29.794  10.680
25900W        W94294   6.782  16.356  12.095
25901W        W94295   8.238   7.575   0.618
25902W        W94296  13.590  22.692   4.147
25903W        W94297  20.521  22.818   4.567
25904W        W94298  15.339   1.342   0.925
25905W        W94299  42.479  35.957  13.040
25906W        W94300  29.206  17.833  10.621
25907W        W94301  39.953  13.600   3.093
25908W        W94302  25.528  28.704   1.340
25909W        W94303   4.669  36.605  13.957
25910W        W94304  28.491   5.781  11.898
25911W        W94305   9.178   5.351   3.093
25912W        W94306  22.099   8.401   2.025
25913W        W94307   3.727  33.211  11.317
25914W        W94308   9.421  18.617   3.917
25915W        W94309  16.738  40.013   4.140
25916W        W94310  40.997   0.865   4.185
25917W        W94311  12.837  35.640   2.668
25918W        W94312   7.214  21.173  10.795
25919W        W94313  13.064  41.352  14.714
25920W        W94314  11.429  41.301   4.114
25921W        W94315  42.941  19.187  12.888
25922W        W94316   2.404  42.537  11.511
25923W        W94317  24.784  25.410   2.701
25924W        W94318   9.325  11.206  11.957
25925W        W94319  32.639  39.783   1.292
25926W        W94320   1.718  27.783  13.405
25927W        W94321  29.501  41.179   2.814
25928W        W94322  14.098  19.645  13.312
25929W        W94323  29.845  39.501  14.993
25930W        W94324  26.014  34.194   1.300
25931W        W94325  11.131  25.543   2.693
25932W        W94326  10.053   8.212  12.111
25933W        W94327  34.830  14.953   4.060
25934W        W94328   2.265  29.567   4.184
25935W        W94329  43.557  13.912  14.372
25936W        W94330   9.293  10.120   3.648
25937W        W94331  26.399  22.104  11.776
25938W        W94332  44.278  44.000   0.949
25939W        W94333  20.376  40.568  10.751
25940W        W94334  12.589  15.340   2.288
25941W        W94335  21.565   0.565  14.404
25942W        W94336  18.347  21.617  13.535
25943W        W94337   5.142  13.276   0.309
25944W        W94338  36.438  41.346  12.839
25945W        W94339  13.278   8.312  14.514
25946W        W94340   6.197  33.562  13.201
25947W        W94341  25.826  40.520   1.699
25948W        W94342  15.812  24.060  13.832
25949W        W94343  29.372  35.965   1.085
25950W        W94344  33.096   2.391  10.694
25951W        W94345  34.605  17.469  10.616
25952W        W94346  27.180   6.815  10.956
25953W        W94347  43.810  13.318   1.516
25954W        W94348   4.820  22.980   1.124
25955W        W94349  10.233  41.423  10.725
25956W        W94350   0.883  19.368   1.990
25957W        W94351  28.601  25.739  11.452
25958W        W94352  37.816  28.219  13.258
25959W        W94353  27.584   1.824   0.964
25960W        W94354  26.690  11.753  14.968
25961W        W94355  28.107  20.128   0.181
25962W        W94356  33.939   3.831   3.583
25963W        W94357  13.299   2.301  11.993
25964W        W94358  27.731  36.549  13.943
25965W        W94359  34.553  27.426  14.314
25966W        W94360  19.697  12.347  12.041
25967W        W94361  25.435   7.359   3.569
25968W        W94362  41.054  20.609   2.868
25969W        W94363  43.570  14.303   1.762
25970W        W94364  17.059  20.436  10.997
25971W        W94365  22.733  16.200   0.737
25972W        W94366   5.886  14.828  12.626
25973W        W94367  43.658  17.262   4.297
25974W        W94368   2.379   2.578   4.207
25975W        W94369   2.007  26.896   0.710
25976W        W94370  12.684  39.932   2.408
25977W        W94371  22.332   7.204  11.951
25978W        W94372  26.507  44.959   4.105
25979W        W94373  17.456  14.152  11.688
25980W        W94374  14.216   4.755   4.049
25981W        W94375  37.525  18.632   0.678
25982W        W94376  21.222  39.119  12.590
25983W        W94377  38.575  17.902   4.848
25984W        W94378   4.925   7.431   2.495
25985W        W94379  22.067   5.454   1.874
25986W        W94380   8.945  44.013  13.565
25987W        W94381  25.676  30.619   1.669
25988W        W94382  31.825   4.726   4.587
25989W        W94383   5.726   0.264   3.951
25990W        W94384  32.361  39.052  13.294
25991W        W94385  36.259  16.375   3.680
25992W        W94386  38.960  26.677   3.877
25993W        W94387  20.759   2.273   0.087
25994W        W94388  13.605  38.996   4.082
25995W        W94389  28.853  40.360   0.184
25996W        W94390  16.804  26.485  14.944
25997W        W94391  39.200  26.289   0.682
25998W        W94392  25.007   8.753  11.919
25999W        W94393   0.868  26.030   0.728
26000W        W94394  37.326   9.827   0.396
26001W        W94395  28.686  12.627  10.592
26002W        W94396  41.451  30.205   4.615
26003W        W94397  41.039   1.096  10.728
26004W        W94398   2.369   1.040   3.221
26005W        W94399  19.985  12.886  14.546
26006W        W94400  38.146  33.261  14.035
26007W        W94401  18.289  23.548   3.840
26008W        W94402  17.242  25.357  11.584
26009W        W94403  27.593  37.444   3.573
26010W        W94404  35.869  39.414   2.685
26011W        W94405  29.121  34.449   0.234
26012W        W94406  28.414   3.240  13.798
26013W        W94407  21.533  13.444   0.363
26014W        W94408   4.982  20.778  14.516
26015W        W94409  13.119   3.993  12.034
26016W        W94410  18.566   3.676   0.409
26017W        W94411  44.367  24.686   0.762
26018W        W94412   8.121   2.393  10.248
26019W        W94413  16.172  40.949   3.098
26020W        W94414  16.267  10.648  14.897
26021W        W94415  39.972  16.278   4.628
26022W        W94416  12.552  17.132   2.312
26023W        W94417  25.098   2.375   2.333
26024W        W94418  17.145  19.145   4.554
26025W        W94419   9.891  26.665   9.987
26026W        W94420  37.290  19.494  14.819
26027W        W94421  15.049   6.143   0.205
26028W        W94422  30.367  19.216   0.562
26029W        W94423  15.567   3.705   3.421
26030W        W94424  28.565  28.539  10.439
26031W        W94425   7.476  35.915  13.357
26032W        W94426  42.583  41.870  14.258
26033W        W94427   1.438  27.516  12.781
26034W        W94428  34.503  29.703   3.776
26035W        W94429  21.168  30.805   3.861
26036W        W94430  21.205  22.100   3.674
26037W        W94431  30.182   3.159  10.311
26038W        W94432  37.939   4.180  11.717
26039W        W94433  44.445  39.799   0.384
26040W        W94434  24.052  15.318   0.446
26041W        W94435  35.629  43.860   3.362
26042W        W94436  20.231  10.118  13.737
26043W        W94437  43.321   9.787   4.439
26044W        W94438  31.700  41.189  12.827
26045W        W94439   8.153  37.653   0.340
26046W        W94440   2.986  23.139  12.538
26047W        W94441   6.154  44.028  12.082
26048W        W94442   0.868   6.274   4.127
26049W        W94443  42.449  30.362   4.705
26050W        W94444   0.729  23.805  12.585
26051W        W94445   2.517  30.332   9.896
26052W        W94446  38.605   3.907   0.383
26053W        W94447  35.618   2.340   1.402
26054W        W94448   4.588  16.147   2.345
26055W        W94449  26.705  33.219   4.166
26056W        W94450  43.960  29.417   0.897
26057W        W94451  11.968   6.067  14.516
26058W        W94452  40.085  37.124   2.793
26059W        W94453  29.183  38.888   0.846
26060W        W94454   5.208  33.370  14.644
26061W        W94455  42.944  11.608  14.304
26062W        W94456  37.567  20.551  11.599
26063W        W94457  20.078  15.804  11.137
26064W        W94458  25.364  32.740  12.652
26065W        W94459  18.039  18.046   2.722
26066W        W94460  16.216   8.032  11.267
26067W        W94461   1.965  23.456   1.840
26068W        W94462  39.416  37.433  13.764
26069W        W94463   3.007  43.354   3.265
26070W        W94464  14.106  30.657   4.232
26071W        W94465  29.031  37.464   3.831
26072W        W94466  33.979  26.620   4.844
26073W        W94467  20.799  16.821  11.644
26074W        W94468   4.896  19.538  14.972
26075W        W94469  41.131  33.302  14.782
26076W        W94470  11.704   1.461  12.885
26077W        W94471  38.021  40.678  11.202
26078W        W94472  11.447  29.061  12.088
26079W        W94473  43.553  36.482  12.616
26080W        W94474   1.403  39.436   2.102
26081W        W94475  14.254   5.231   2.008
26082W        W94476  28.162   7.821   1.711
26083W        W94477  18.296  42.915  14.068
26084W        W94478  37.081  33.017   3.859
26085W        W94479  15.706  33.479   1.758
26086W        W94480   1.837  34.889   2.148
26087W        W94481  43.323  18.592   3.952
26088W        W94482  10.659  10.966  10.988
26089W        W94483  33.850  22.249  12.636
26090W        W94484  44.750   7.166  12.179
26091W        W94485  28.739  13.414  14.584
26092W        W94486  20.783  30.562   3.612
26093W        W94487   0.379  20.753  11.203
26094W        W94488  10.605  11.219  13.461
26095W        W94489  44.669  23.790  13.845
26096W        W94490  31.102  13.762   2.893
26097W        W94491  40.057  15.240   0.916
26098W        W94492   5.666  32.664  14.875
26099W        W94493  41.634  38.320  13.921
26100W        W94494  34.094   1.799   2.297
26101W        W94495  16.776  20.053  11.682
26102W        W94496  34.720  18.198  10.511
26103W        W94497   2.909  29.623  14.068
26104W        W94498  30.024  18.973  11.572
26105W        W94499   6.013  29.513   1.380
26106W        W94500  28.618  38.056   2.692
26107W        W94501  40.048  13.761  14.492
26108W        W94502   7.196   8.870  14.258
26109W        W94503  19.137   5.633  11.003
26110W        W94504  36.472  43.095   4.191
26111W        W94505   0.237  24.102  14.617
26112W        W94506  16.560  14.811  13.810
26113W        W94507   1.533  20.652  12.569
26114W        W94508  29.474  33.026  10.435
26115W        W94509   7.649  21.527   1.282
26116W        W94510  44.244  37.132  12.375
26117W        W94511   7.335  38.825   3.235
26118W        W94512  10.317   8.316  10.178
26119W        W94513  38.901   4.258  11.676
26120W        W94514  30.388  13.754   3.547
26121W        W94515  20.171  31.242   4.914
26122W        W94516  25.256  20.681   3.797
26123W        W94517  31.455   0.228   4.009
26124W        W94518  18.391  28.591  10.687
26125W        W94519  12.266  12.886   0.545
26126W        W94520   2.698   2.794   1.181
26127W        W94521  24.953  18.210  12.330
26128W        W94522  33.033  41.988   3.185
26129W        W94523  38.986  11.898   0.819
26130W        W94524  11.062   6.872  14.908
26131W        W94525  39.588  15.112  13.569
26132W        W94526  11.550  12.068  14.653
26133W        W94527  19.109   3.431   2.827
26134W        W94528   0.429  36.709   1.143
26135W        W94529  35.479  41.992  10.690
26136W        W94530  44.446   6.425  10.713
26137W        W94531  37.414   0.907   0.561
26138W        W94532  18.337  20.236   0.182
26139W        W94533  10.040  12.178   4.507
26140W        W94534  13.569  32.499  14.642
26141W        W94535  18.895  12.806   3.906
26142W        W94536  35.378  37.811  14.704
26143W        W94537  40.054  28.593  13.262
26144W        W94538  19.327  28.277  13.984
26145W        W94539  16.037  12.942  11.636
26146W        W94540  28.352  33.619   3.305
26147W        W94541  31.053  22.996   2.268
26148W        W94542  18.933  30.963   3.234
26149W        W94543  28.646   1.011  10.532
26150W        W94544  11.816  40.848  14.620
26151W        W94545  15.970  27.181   1.886
26152W        W94546   8.056  35.440   0.370
26153W        W94547  24.716  44.719   0.877
26154W        W94548  38.564  27.975  12.614
26155W        W94549  42.267  42.947  12.811
26156W        W94550  12.719  18.803  11.451
26157W        W94551   2.785  26.534   1.356
26158W        W94552  36.987   4.717   3.357
26159W        W94553  31.047  14.151  10.403
26160W        W94554   0.344  22.285  14.534
26161W        W94555  38.937  12.121  14.821
26162W        W94556  40.541  18.260  14.964
26163W        W94557  35.038  32.516   2.096
26164W        W94558   4.635  37.822  14.300
26165W        W94559   6.442  34.240  13.815
26166W        W94560  24.657   8.425   1.060
26167W        W94561  15.724  43.364   0.904
26168W        W94562  11.789  39.860   2.368
26169W        W94563  19.801  22.968  11.369
26170W        W94564   0.339  39.354  13.977
26171W        W94565   0.093  42.918   5.020
26172W        W94566  27.518  26.964   0.909
26173W        W94567   2.283  42.500   2.758
26174W        W94568  18.616   7.134   5.339
26175W        W94569  20.066   3.360  13.496
26176W        W94570  18.880  41.793   0.922
26177W        W94571  22.487   2.005   3.761
26178W        W94572  12.131  12.797  12.599
26179W        W94573   8.290  41.326   0.521
26180W        W94574  34.912  23.689  11.466
26181W        W94575  43.052   2.530   0.000
26182W        W94576  24.580  27.845  14.012
26183W        W94577   4.686  23.133   4.017
26184W        W94578  32.460   5.919  14.337
26185W        W94579  37.744  15.308   4.081
26186W        W94580  36.977  29.204   0.462
26187W        W94581  19.046   0.731  14.528
26188W        W94582  39.969   7.768   4.893
26189W        W94583  20.664   4.834   0.836
26190W        W94584   9.785  33.628   1.154
26191W        W94585  44.885  13.657   0.295
26192W        W94586  30.549  11.456   0.302
26193W        W94587  23.048  23.688  14.161
26194W        W94588  25.904  28.396  13.394
26195W        W94589  16.615  39.589  14.276
26196W        W94590  13.925  27.455  13.343
26197W        W94591  40.699   0.310   1.872
26198W        W94592  37.246  34.883  14.081
26199W        W94593  40.997  31.917  12.899
26200W        W94594   8.751  13.211  11.456
26201W        W94595  40.093  43.485   1.150
26202W        W94596  33.422  37.401  10.333
26203W        W94597  23.939  17.576  14.767
26204W        W94598  43.386  42.512   0.682
26205W        W94599   2.216  44.866   0.437
26206W        W94600  17.260  30.102   4.617
26207W        W94601  35.032  41.461   0.287
26208W        W94602  38.468  27.042  14.051
26209W        W94603   7.941  27.144  10.281
26210W        W94604  35.346   0.949   2.421
26211W        W94605  15.854  19.712  12.422
26212W        W94606   3.547   3.031  11.765
26213W        W94607  32.153  36.366  14.987
26214W        W94608  44.925  11.342   4.265
26215W        W94609  41.535  30.476   2.289
26216W        W94610   2.739   2.748  12.051
26217W        W94611  41.518  25.983   3.168
26218W        W94612  15.072   9.031  13.768
26219W        W94613   8.896   6.097   0.524
26220W        W94614  20.639   4.318  12.394
26221W        W94615  44.293  43.207  10.592
26222W        W94616  24.975  14.884  14.351
26223W        W94617  41.015  36.886   1.963
26224W        W94618  36.345  19.963   0.209
26225W        W94619   2.450  38.606   2.830
26226W        W94620   7.905  43.845   1.825
26227W        W94621  22.963   6.852   2.452
26228W        W94622   2.390  35.272  10.848
26229W        W94623  31.444  30.687   4.644
26230W        W94624  33.765  38.190  14.277
26231W        W94625  22.551   3.923  14.793
26232W        W94626   9.325  14.666   4.487
26233W        W94627   6.978  33.988  12.623
26234W        W94628  35.658  14.625   4.794
26235W        W94629  12.493  12.358   4.578
26236W        W94630   7.625  21.647   0.364
26237W        W94631  20.690  10.776   3.452
26238W        W94632  37.935  29.135   1.369
26239W        W94633  19.877   7.700   1.689
26240W        W94634  12.540  13.035   4.166
26241W        W94635  32.517  11.230   1.377
26242W        W94636  42.529  15.716  13.840
26243W        W94637   6.575  13.078   1.487
26244W        W94638  23.686  23.902  11.545
26245W        W94639   4.894   3.712  11.940
26246W        W94640   7.123   1.469  12.735
26247W        W94641  29.227  20.105   0.229
26248W        W94642  30.982  32.469  11.195
26249W        W94643  26.284  27.183  12.909
26250W        W94644  41.902  28.532  14.557
26251W        W94645   9.913  39.075  14.840
26252W        W94646   1.868  17.328  12.580
26253W        W94647  35.103   1.976  12.715
26254W        W94648  40.232   0.346  11.617
26255W        W94649  38.331  34.411  10.403
26256W        W94650   0.826  43.748  13.074
26257W        W94651  43.775   5.027   3.246
26258W        W94652  13.897  35.346  11.675
26259W        W94653  24.497   1.902   4.171
26260W        W94654  17.945  32.034   3.665
26261W        W94655   7.290  33.104   0.565
26262W        W94656   7.397  36.397  13.478
26263W        W94657   2.447  25.713   4.703
26264W        W94658  37.142  31.883   2.238
26265W        W94659   4.945  16.053   9.855
26266W        W94660  29.440  31.918   5.017
26267W        W94661  21.960  17.608  14.551
26268W        W94662  43.037  26.022   4.908
26269W        W94663  22.904  15.062   3.729
26270W        W94664  17.488  42.743   3.922
26271W        W94665  41.967   9.929   1.695
26272W        W94666   2.682  41.574   3.662
26273W        W94667   7.729  42.602  12.013
26274W        W94668  37.507  30.655   0.069
26275W        W94669  44.466  30.883  13.089
26276W        W94670  25.977  13.070   3.180
26277W        W94671  21.023  22.542  11.935
26278W        W94672  40.057  26.780   2.634
26279W        W94673  44.310   0.879   1.102
26280W        W94674  39.186  15.533   4.943
26281W        W94675  41.083  28.092   3.768
26282W        W94676   1.675  17.826  12.551
26283W        W94677  19.837   9.435   2.423
26284W        W94678   1.337  44.769   3.044
26285W        W94679   9.165  44.721   0.311
26286W        W94680   6.331  19.060   1.289
26287W        W94681  39.328  21.506   4.358
26288W        W94682  24.688   9.155   3.501
26289W        W94683  33.448   8.733   1.798
26290W        W94684  15.314  18.723  12.872
26291W        W94685  37.404   2.514   2.599
26292W        W94686  27.578  42.963  12.884
26293W        W94687  36.907  23.739   0.217
26294W        W94688  13.840   3.082   2.826
26295W        W94689   7.331   4.467  11.929
26296W        W94690  34.525   2.175   4.179
26297W        W94691  31.561  21.215  11.603
26298W        W94692  44.999  32.414  14.884
26299W        W94693   6.995  36.507  11.177
26300W        W94694  10.117   2.704  11.997
26301W        W94695  32.260  21.324  13.845
26302W        W94696   2.877  12.884   1.477
26303W        W94697   9.664   2.492   3.972
26304W        W94698   6.212  31.460  11.981
26305W        W94699   0.042  35.322  13.541
26306W        W94700   9.872  14.696   2.193
26307W        W94701  33.139   7.839   0.906
26308W        W94702  40.973  39.337  10.010
26309W        W94703  10.690  33.176  14.434
26310W        W94704  15.812  18.682   1.872
26311W        W94705  33.915  40.939  12.576
26312W        W94706  26.727  25.321   0.384
26313W        W94707  28.538  38.844  14.011
26314W        W94708  38.433  38.086   2.703
26315W        W94709  25.920  29.030   1.648
26316W        W94710  33.583   5.380  10.373
26317W        W94711  37.943  42.991   5.133
26318W        W94712  39.805  20.985  14.964
26319W        W94713  25.151  15.068  12.528
26320W        W94714   2.942  36.898   4.397
26321W        W94715  27.720  30.732   2.108
26322W        W94716  43.339  18.741   1.927
26323W        W94717  44.380  43.318   1.789
26324W        W94718  40.720  23.539  11.938
26325W        W94719   8.435  18.331   4.777
26326W        W94720   1.344  14.060   3.248
26327W        W94721  39.980   8.232   4.154
26328W        W94722  43.963  28.694   4.609
26329W        W94723  20.307  40.812  11.200
26330W        W94724   2.869  19.574   3.660
26331W        W94725  13.264  27.650  12.475
26332W        W94726  12.077  19.036  14.716
26333W        W94727  12.376  35.637   4.529
26334W        W94728   8.673  32.287   3.247
26335W        W94729   0.807  41.367   9.934
26336W        W94730  43.403  27.596   0.289
26337W        W94731  41.077  42.149   3.612
26338W        W94732  30.302  40.353   3.786
26339W        W94733  39.825   3.442   2.928
26340W        W94734   1.812  14.054  11.122
26341W        W94735  36.060  21.739   0.450
26342W        W94736  43.750  44.364  11.079
26343W        W94737  42.504   2.926  11.650
26344W        W94738  24.163  41.778   2.502
26345W        W94739   4.603  25.574   2.863
26346W        W94740  23.672   2.779   1.214
26347W        W94741  16.586  26.498  11.681
26348W        W94742  24.151  27.820  12.062
26349W        W94743  19.750  12.322   4.837
26350W        W94744  43.256  17.778   2.215
26351W        W94745  36.070  39.352   0.696
26352W        W94746  31.061  27.827   4.650
26353W        W94747  16.785  32.399  14.577
26354W        W94748  37.720  26.472   3.173
26355W        W94749  40.549   9.201  13.016
26356W        W94750  27.953  40.826  13.955
26357W        W94751  38.944  35.817   0.201
26358W        W94752  32.563  14.319  13.460
26359W        W94753  40.951  43.380   3.727
26360W        W94754  20.545  18.221   2.749
26361W        W94755  28.370  37.460   4.364
26362W        W94756   0.909  44.874  12.439
26363W        W94757  26.937   9.865   1.474
26364W        W94758  35.223   2.284   0.429
26365W        W94759  38.788   5.298  12.221
26366W        W94760  37.857  16.310   2.496
26367W        W94761  37.228  24.095   2.241
26368W        W94762  11.404  33.057  12.452
26369W        W94763  41.250  38.095  14.773
26370W        W94764   7.939  16.844  12.666
26371W        W94765  31.022   2.971  14.386
26372W        W94766  33.042  12.297  10.433
26373W        W94767  19.314  29.631  10.593
26374W        W94768  38.929  34.882  11.511
26375W        W94769   1.380   4.093  14.520
26376W        W94770   6.521  23.107  10.100
26377W        W94771  28.718   0.264  14.448
26378W        W94772  37.575  39.904  12.467
26379W        W94773  12.729  19.963   2.236
26380W        W94774  41.842  32.698  11.600
26381W        W94775   8.859  11.064   1.767
26382W        W94776  44.422  43.161  13.402
26383W        W94777   2.401  43.493   4.513
26384W        W94778  16.136  22.303   4.438
26385W        W94779  11.625  37.576   3.198
26386W        W94780  41.582  44.855   0.415
26387W        W94781   0.285  17.765   4.689
26388W        W94782  23.542   4.304   3.133
26389W        W94783   5.331  43.497   4.258
26390W        W94784  13.261  30.553   4.707
26391W        W94785   4.340  31.827  12.969
26392W        W94786  15.765  26.056  13.061
26393W        W94787  18.208   0.989   4.555
26394W        W94788   2.983  13.277   2.282
26395W        W94789  36.122   0.313  11.155
26396W        W94790  18.618  14.828   0.728
26397W        W94791  37.973  14.166  11.648
26398W        W94792   8.324  19.552  13.575
26399W        W94793  32.987  16.075   1.282
26400W        W94794  16.799  30.164  13.805
26401W        W94795  25.970  25.763   3.200
26402W        W94796  31.670   1.143   4.378
26403W        W94797  25.157  22.987   3.266
26404W        W94798  12.699  37.079  14.755
26405W        W94799  15.264  40.655  13.878
26406W        W94800   0.889   2.837  14.147
26407W        W94801  13.335   0.218  13.222
26408W        W94802   4.715   3.373   1.822
26409W        W94803   7.982  25.067   1.140
26410W        W94804  21.745  39.067   1.757
26411W        W94805  25.140  38.844   1.293
26412W        W94806  14.408  14.833  11.517
26413W        W94807  16.510  12.166  13.426
26414W        W94808   2.161  11.353  12.602
26415W        W94809  39.939  44.460   0.773
26416W        W94810  40.379  10.830  14.026
26417W        W94811  28.974  10.242  11.962
26418W        W94812  16.097  42.697  13.547
26419W        W94813  41.353   8.173  13.918
26420W        W94814   7.763  32.604  11.738
26421W        W94815  14.824  37.344  11.955
26422W        W94816  38.986   3.299  12.111
26423W        W94817   0.658  44.983   1.532
26424W        W94818  13.259   4.912   2.901
26425W        W94819  14.829   1.887   1.422
26426W        W94820   6.033  43.258  14.262
26427W        W94821   6.176  36.464  13.138
26428W        W94822  39.477   4.889  13.934
26429W        W94823   8.374  16.578  12.784
26430W        W94824  20.732  35.660  12.799
26431W        W94825  32.896  20.112  11.024
26432W        W94826   6.229  43.974   1.265
26433W        W94827  29.296  32.035  11.572
26434W        W94828   8.573  14.372  12.624
26435W        W94829  24.123  36.038  12.538
26436W        W94830  23.698  17.178   0.922
26437W        W94831  18.282  42.783  10.703
26438W        W94832   8.837   9.280   3.183
26439W        W94833  20.720  38.869  11.251
26440W        W94834  32.043  27.501  14.083
26441W        W94835   9.826  10.795  12.663
26442W        W94836   2.831  24.496  13.072
26443W        W94837  25.711  39.045  12.939
26444W        W94838  32.163  39.916   0.039
26445W        W94839   1.959  21.543   4.274
26446W        W94840  28.933   9.669   4.549
26447W        W94841  24.409  24.800   2.483
26448W        W94842  44.719   5.289   1.973
26449W        W94843  23.020  19.661   0.404
26450W        W94844   9.474   4.381   3.255
26451W        W94845  26.344  43.018   3.305
26452W        W94846  15.358  19.278   0.777
26453W        W94847  11.419  36.406   4.159
26454W        W94848  15.217  41.544   4.502
26455W        W94849  24.848  19.098   0.298
26456W        W94850  11.227   8.660   2.859
26457W        W94851  22.795  27.957  13.051
26458W        W94852   2.019  12.423  13.468
26459W        W94853  33.078   8.132   2.782
26460W        W94854   8.727   0.701   4.235
26461W        W94855  41.776  20.210   4.609
26462W        W94856  18.110  35.550   4.891
26463W        W94857   7.676   0.041  10.635
26464W        W94858  12.239  17.672   0.450
26465W        W94859  22.590  28.733  14.721
26466W        W94860   8.206  20.701   3.923
26467W        W94861  38.475  43.915   3.547
26468W        W94862  43.215  34.529  14.992
26469W        W94863  38.571   5.515   2.105
26470W        W94864  23.004  12.175   1.175
26471W        W94865  24.593  41.881   2.762
26472W        W94866  44.665  44.537  14.485
26473W        W94867  22.474  13.899  14.363
26474W        W94868  19.126  28.363   5.684
26475W        W94869   2.274  30.114  10.582
26476W        W94870  28.391  24.257  11.630
26477W        W94871  42.718  33.959   3.267
26478W        W94872   9.083  27.293   9.739
26479W        W94873  21.953  23.780   1.935
26480W        W94874  29.901  13.126   0.996
26481W        W94875  18.494  36.513   4.642
26482W        W94876  42.059  15.602   4.296
26483W        W94877   7.009  32.086   4.140
26484W        W94878  19.110   1.557   4.653
26485W        W94879  29.658   8.988   2.372
26486W        W94880  30.162  21.471  11.577
26487W        W94881  39.909  44.837  11.251
26488W        W94882  35.789  12.362   0.950
26489W        W94883  26.871  29.824  11.543
26490W        W94884  40.832  36.646   1.105
26491W        W94885   7.078  38.443   4.476
26492W        W94886  13.229  14.613   3.275
26493W        W94887  23.601  13.150  10.964
26494W        W94888   8.370  11.909   3.324
26495W        W94889  34.912  16.352   4.707
26496W        W94890   4.701  37.008   4.240
26497W        W94891  22.443  27.533   3.296
26498W        W94892  30.445  37.493  13.263
26499W        W94893  38.903   3.219   2.360
26500W        W94894  20.745  36.970  13.666
26501W        W94895  13.434  42.235  12.931
26502W        W94896   9.786  21.208   4.161
26503W        W94897  22.164   0.384   0.973
26504W        W94898   8.956  29.739   4.684
26505W        W94899  18.446  19.441  12.439
26506W        W94900   2.448  25.824  12.464
26507W        W94901  18.200  23.619   4.333
26508W        W94902  39.671   3.541  10.838
26509W        W94903  19.017  40.311  13.049
26510W        W94904  16.096  36.048  10.478
26511W        W94905  12.729  35.311   4.797
26512W        W94906  24.739  34.886  12.334
26513W        W94907  12.651   0.027  14.208
26514W        W94908  28.408  14.497  14.036
26515W        W94909  29.861  36.629  14.277
26516W        W94910  18.765  29.670   3.714
26517W        W94911  36.991  37.433   0.962
26518W        W94912  36.552  37.309  11.157
26519W        W94913   3.677  24.539   1.892
26520W        W94914   4.879   7.317  12.491
26521W        W94915  16.260  33.502   1.741
26522W        W94916  32.097   1.953  13.476
26523W        W94917  21.409  10.760   5.559
26524W        W94918  12.341  19.068   1.234
26525W        W94919  28.993  18.649  11.628
26526W        W94920  12.266  41.807  13.389
26527W        W94921  31.533  29.304   0.313
26528W        W94922  21.629  11.402   3.713
26529W        W94923  30.046   5.652   2.195
26530W        W94924  12.337  26.641   1.629
26531W        W94925   0.282  14.350   0.188
26532W        W94926  41.923  13.952   5.053
26533W        W94927  22.970   3.950  11.578
26534W        W94928  12.916  25.231  13.919
26535W        W94929  26.599  23.974  11.618
26536W        W94930  42.317  16.351  14.559
26537W        W94931  16.802  14.619   4.930
26538W        W94932  35.854   8.063  11.317
26539W        W94933  31.390  40.889  13.197
26540W        W94934  17.164   0.716   1.865
26541W        W94935  27.062  13.094   0.733
26542W        W94936  44.980  44.076   2.232
26543W        W94937   1.726  18.661   3.855
26544W        W94938   4.178  19.096   4.473
26545W        W94939  31.208  25.124   1.138
26546W        W94940  28.989   0.054   3.692
26547W        W94941  13.445  36.503   4.131
26548W        W94942  32.393  42.861   4.708
26549W        W94943  26.098  16.997  12.736
26550W        W94944   9.642   4.835  13.505
26551W        W94945   2.287   6.689   1.282
26552W        W94946   5.473  39.359  13.527
26553W        W94947  31.163  24.688  14.000
26554W        W94948  12.141  15.563   4.520
26555W        W94949  13.045  32.700  11.673
26556W        W94950  34.127  42.279  12.020
26557W        W94951  12.727  25.258  12.526
26558W        W94952  41.952  43.578  13.896
26559W        W94953   7.953  32.009  12.942
26560W        W94954  37.032  37.465   0.410
26561W        W94955  13.663  11.200  12.419
26562W        W94956  30.567  28.227   2.856
26563W        W94957  28.011  41.109  13.484
26564W        W94958  11.017  19.812   0.818
26565W        W94959  44.402  42.533  14.370
26566W        W94960  33.027   1.817   0.012
26567W        W94961  16.567   3.233   4.514
26568W        W94962  41.257  25.608  12.107
26569W        W94963   3.918   7.186   3.954
26570W        W94964  43.773  31.742  12.353
26571W        W94965  14.616  35.774   1.745
26572W        W94966  23.155   2.509   0.387
26573W        W94967  33.956  27.135  11.441
26574W        W94968  10.365  16.218   0.097
26575W        W94969  42.880  31.157   4.928
26576W        W94970  13.223  29.528   1.973
26577W        W94971   5.110  12.871   3.251
26578W        W94972  40.503  30.632   5.036
26579W        W94973  35.516   2.901  10.704
26580W        W94974  18.046  29.717  11.180
26581W        W94975  42.746  15.621   2.604
26582W        W94976   2.812  13.505   3.393
26583W        W94977  20.592   6.941   4.386
26584W        W94978   2.806  31.097   2.616
26585W        W94979   1.008  30.429   4.581
26586W        W94980  33.465  33.526   5.000
26587W        W94981  16.289  20.034  14.713
26588W        W94982  23.246   4.322  14.716
26589W        W94983  37.521  37.978   1.467
26590W        W94984   8.913  31.769   4.577
26591W        W94985   1.893  27.527   3.986
26592W        W94986  26.911  15.244  10.338
26593W        W94987  38.855   7.969   0.486
26594W        W94988  31.523   2.563   3.225
26595W        W94989   8.848  26.494   1.360
26596W        W94990  18.889  22.929   0.733
26597W        W94991  12.611   5.488  13.552
26598W        W94992  21.182   3.818   2.654
26599W        W94993   9.869  29.237   3.132
26600W        W94994  44.552   0.184   0.039
26601W        W94995  22.261  29.186  12.106
26602W        W94996  20.401  10.611  13.067
26603W        W94997   6.755   8.100   3.281
26604W        W94998  18.704   8.855   0.288
26605W        W94999  16.619  40.073  11.062
26606W        W95000  29.673  16.243   2.194
26607W        W95001  16.012   5.964  14.868
26608W        W95002  21.043  33.974  13.542
26609W        W95003  16.181  21.227  12.373
26610W        W95004  10.402  13.898   5.113
26611W        W95005   8.864  35.726  12.326
26612W        W95006  36.479  25.916   4.651
26613W        W95007   5.359  13.084   4.092
26614W        W95008  25.790   2.184  12.584
26615W        W95009  34.166   7.885   4.207
26616W        W95010  32.419  26.264  12.019
26617W        W95011   8.281  30.754   0.856
26618W        W95012   3.682  43.856   3.538
26619W        W95013  15.130  33.928   4.361
26620W        W95014  11.763  36.262   2.695
26621W        W95015   4.423  24.614  11.524
26622W        W95016  40.794  19.538  11.630
26623W        W95017  44.345  36.956   1.139
26624W        W95018  17.186  41.411  10.143
26625W        W95019   0.480  22.776  13.465
26626W        W95020   4.292  16.803  14.447
26627W        W95021  13.628   2.333   4.099
26628W        W95022  15.143  22.766  10.679
26629W        W95023   4.930   1.224  12.864
26630W        W95024  36.696  34.624  12.425
26631W        W95025  17.235  37.091  14.939
26632W        W95026  29.018  32.608   4.905
26633W        W95027  20.648   6.841   2.827
26634W        W95028  24.027  34.576   4.047
26635W        W95029  26.257   7.357   0.082
26636W        W95030  24.802  15.874   2.313
26637W        W95031  36.925  43.011   1.249
26638W        W95032  28.957   2.363  10.636
26639W        W95033  25.653  23.693  12.093
26640W        W95034  23.561  24.732  11.121
26641W        W95035  21.711   9.437   3.999
26642W        W95036  11.271  21.645  11.405
26643W        W95037  26.687  44.240  12.979
26644W        W95038  15.023  11.801  13.448
26645W        W95039  35.079   0.863  14.550
26646W        W95040   2.928   5.145   0.811
26647W        W95041  39.384  42.765  12.533
26648W        W95042  29.541  30.685  12.972
26649W        W95043  35.199  37.283   4.485
26650W        W95044  24.984  13.418   1.427
26651W        W95045  40.260  22.642   1.184
26652W        W95046   6.973   0.003   4.802
26653W        W95047  36.158  10.201  12.966
26654W        W95048  25.848  15.651   4.626
26655W        W95049  28.713  43.033   4.946
26656W        W95050  39.609  16.451  11.554
26657W        W95051  12.051  17.075  10.548
26658W        W95052   2.976  12.192   4.543
26659W        W95053  39.787   3.457  14.544
26660W        W95054  37.608   0.868  10.821
26661W        W95055  10.707  40.917  14.114
26662W        W95056  44.382   8.871  11.347
26663W        W95057  26.056  32.390  10.826
26664W        W95058  21.647  37.132   2.073
26665W        W95059  38.784  20.753  13.011
26666W        W95060  22.257   5.909  12.457
26667W        W95061  26.091   2.059   3.705
26668W        W95062  12.782  24.756  14.657
26669W        W95063  17.268  41.502  11.110
26670W        W95064  15.731  39.601  14.891
26671W        W95065   1.423  15.603   5.384
26672W        W95066  18.971  18.246   0.635
26673W        W95067   5.194   5.707   0.832
26674W        W95068  15.688  35.728  10.330
26675W        W95069   2.225  17.676  12.476
26676W        W95070  43.784  42.113  13.541
26677W        W95071  44.226  38.880   2.068
26678W        W95072  19.617   1.033  14.076
26679W        W95073  40.783   2.750   1.700
26680W        W95074   6.701   2.749  12.873
26681W        W95075  15.893  10.908   0.711
26682W        W95076  29.953  43.897   3.473
26683W        W95077  40.746  33.143  13.339
26684W        W95078  11.127   5.689  14.467
26685W        W95079  11.049   2.629  14.374
26686W        W95080  27.507  27.570  13.407
26687W        W95081  14.309  25.001   0.854
26688W        W95082   1.101  44.373  14.673
26689W        W95083  28.062  27.927   1.745
26690W        W95084  26.024   8.379   0.794
26691W        W95085  16.969  21.097   1.874
26692W        W95086  36.456  25.436   3.174
26693W        W95087  10.379  27.392   2.828
26694W        W95088  34.260  30.948   2.833
26695W        W95089  13.215  19.998  14.042
26696W        W95090  35.084  14.441   1.720
26697W        W95091  13.646  36.688   4.686
26698W        W95092   0.853  37.590   4.090
26699W        W95093  36.612  35.075   3.768
26700W        W95094  32.944  27.654   0.423
26701W        W95095  18.763  39.814  11.947
26702W        W95096  16.849  42.282   1.681
26703W        W95097   9.305   5.802  14.303
26704W        W95098   4.473  21.024   0.362
26705W        W95099   9.735   0.063   0.942
26706W        W95100  24.462   8.848   0.784
26707W        W95101  40.068  29.586  13.304
26708W        W95102  35.935  37.918  11.541
26709W        W95103   5.661  27.977  10.758
26710W        W95104  16.996  28.530   4.572
26711W        W95105   5.392   9.891   1.449
26712W        W95106  22.779  35.024   4.590
26713W        W95107  23.355  11.809   3.908
26714W        W95108  43.087  33.381  11.869
26715W        W95109  24.966   9.934   1.267
26716W        W95110  10.306  28.572  13.438
26717W        W95111  21.853   5.235  11.451
26718W        W95112  32.237  29.871   3.146
26719W        W95113  36.535  36.223   0.935
26720W        W95114   0.948  15.251  13.058
26721W        W95115  35.079   9.446   1.581
26722W        W95116  26.451  20.642   1.158
26723W        W95117  34.766  33.334  13.181
26724W        W95118  31.905  24.782   1.797
26725W        W95119  15.235   3.130   0.306
26726W        W95120   3.122   6.706   0.659
26727W        W95121  34.002  26.511   3.324
26728W        W95122  41.413  31.202   4.473
26729W        W95123   1.312  20.644  13.604
26730W        W95124  14.225  37.622  10.237
26731W        W95125   9.943   5.730  11.533
26732W        W95126  20.383  37.192  11.588
26733W        W95127  44.591  27.355   1.252
26734W        W95128  30.131   6.295  13.776
26735W        W95129  17.046  25.524  13.853
26736W        W95130   4.249   2.803   0.195
26737W        W95131   3.993  20.139  13.483
26738W        W95132  17.197  10.842  10.637
26739W        W95133  22.487  26.513  12.497
26740W        W95134   7.699  34.924   2.835
26741W        W95135  18.609  10.893   0.280
26742W        W95136  28.991   9.525  14.021
26743W        W95137  25.756  23.761   2.798
26744W        W95138  40.497  30.894  12.574
26745W        W95139  38.479  35.923   3.286
26746W        W95140   7.757   4.535  11.154
26747W        W95141   7.709   8.255  14.126
26748W        W95142  17.994   1.831   3.359
26749W        W95143  29.408  29.002   1.782
26750W        W95144  31.931  30.167  10.966
26751W        W95145  16.349  10.688  12.055
26752W        W95146  31.504   1.876  10.786
26753W        W95147   9.742   5.326  12.512
26754W        W95148  30.917  13.632   0.477
26755W        W95149  35.836  38.751  10.432
26756W        W95150  27.022  34.137  13.148
26757W        W95151  34.535  19.182   3.629
26758W        W95152  17.098  21.578   3.163
26759W        W95153  35.899  14.915   3.449
26760W        W95154   0.769  10.755   4.665
26761W        W95155  39.448   6.745  12.396
26762W        W95156  30.137  25.148   2.462
26763W        W95157   9.150  40.795   3.551
26764W        W95158  24.709  12.186   4.273
26765W        W95159   6.831  30.355  11.675
26766W        W95160  17.662  19.782   5.016
26767W        W95161  37.989  10.858   2.163
26768W        W95162  41.744  12.103  13.011
26769W        W95163   0.714  15.701   1.645
26770W        W95164   3.784  28.084  12.605
26771W        W95165  10.659  34.449  13.544
26772W        W95166  32.860  39.654  14.966
26773W        W95167  30.633  18.302  13.106
26774W        W95168  12.771  31.877   0.260
26775W        W95169  12.619   9.584   5.063
26776W        W95170  41.311   4.994   1.638
26777W        W95171  10.754  44.826   4.674
26778W        W95172  42.754  19.808   1.216
26779W        W95173  43.418  26.318  12.138
26780W        W95174   9.374  28.253   4.213
26781W        W95175  18.895  11.595   0.768
26782W        W95176  23.279  19.168   1.253
26783W        W95177   3.828  41.943  13.922
26784W        W95178  42.977  36.953   3.154
26785W        W95179  37.347  18.837  11.187
26786W        W95180   4.217  32.074   3.275
26787W        W95181  36.568  36.871   4.544
26788W        W95182  35.473   3.699   0.292
26789W        W95183   8.969  32.455  13.893
26790W        W95184  15.753   3.630  11.596
26791W        W95185  27.689  16.123  12.721
26792W        W95186  38.836  20.262   1.130
26793W        W95187  42.307  29.647  13.822
26794W        W95188  34.090  13.262  14.351
26795W        W95189  39.812  10.184   1.271
26796W        W95190   1.023  44.373  11.662
26797W        W95191  35.949  25.708   4.590
26798W        W95192   1.693  20.325   4.872
26799W        W95193  29.455  17.988  14.027
26800W        W95194  42.775  43.481  13.802
26801W        W95195  41.246  43.804  10.932
26802W        W95196   4.965  34.368  11.223
26803W        W95197  30.813   7.603  11.229
26804W        W95198   3.242   3.108  13.864
26805W        W95199  20.239  41.665  10.668
26806W        W95200   9.365  32.897   2.344
26807W        W95201  17.385   8.729  11.309
26808W        W95202   7.164   1.029  14.344
26809W        W95203  19.255  20.714   1.386
26810W        W95204  42.453  23.068  12.142
26811W        W95205  16.547  37.766  11.171
26812W        W95206   8.567  25.600   4.891
26813W        W95207   3.404   2.561  11.659
26814W        W95208  15.000  37.166  11.505
26815W        W95209  19.111  22.689  11.442
26816W        W95210  33.848  25.635   2.934
26817W        W95211  35.327  13.906  11.698
26818W        W95212  36.962  43.531   1.266
26819W        W95213   4.737  30.974   1.770
26820W        W95214  36.043  31.130   1.912
26821W        W95215   2.196  21.542  14.355
26822W        W95216  37.813  41.884   2.355
26823W        W95217   9.284  10.686  10.515
26824W        W95218  18.785  37.117  13.991
26825W        W95219  44.799   2.431  12.447
26826W        W95220  43.526  15.948   2.279
26827W        W95221  18.200  28.930   2.230
26828W        W95222  19.201  23.949   2.360
26829W        W95223   5.226  40.288   0.310
26830W        W95224  25.717   8.661  14.289
26831W        W95225  42.366  29.172   2.505
26832W        W95226  31.650  26.804  10.431
26833W        W95227  30.715   2.140  13.454
26834W        W95228  20.797  42.726  11.960
26835W        W95229  17.555   2.810   4.039
26836W        W95230  28.001   0.502   5.134
26837W        W95231  23.517  29.977  11.179
26838W        W95232  39.277   5.164  11.532
26839W        W95233  23.095  44.555   0.789
26840W        W95234   2.484  10.414   4.700
26841W        W95235  43.223  33.133   4.485
26842W        W95236   3.825  35.772   2.920
26843W        W95237   1.259   9.813  10.631
26844W        W95238  23.090  10.997   3.241
26845W        W95239  18.784  31.918   1.522
26846W        W95240  16.534   8.920  12.001
26847W        W95241   4.853  39.081  13.841
26848W        W95242  39.097  42.883  10.756
26849W        W95243  25.570  43.753   1.129
26850W        W95244   7.082  21.303  11.282
26851W        W95245  24.073  18.849   2.246
26852W        W95246  20.770   1.257   2.829
26853W        W95247  27.552  43.549   3.683
26854W        W95248  27.386  17.594   4.603
26855W        W95249  35.500  11.615  11.022
26856W        W95250   0.774  40.464   0.995
26857W        W95251  25.848   2.185   2.673
26858W        W95252   1.490   0.447  14.340
26859W        W95253  28.841  21.808  13.562
26860W        W95254  42.849  29.532  11.512
26861W        W95255  30.209   5.142   2.944
26862W        W95256  33.731  30.481   5.150
26863W        W95257  24.757   7.623   2.553
26864W        W95258  31.062   4.440  14.828
26865W        W95259  44.342   9.183   4.579
26866W        W95260  42.597  22.434  13.488
26867W        W95261  41.372   9.219   4.111
26868W        W95262  28.881   4.877  13.160
26869W        W95263   5.695  25.508  13.015
26870W        W95264  35.814  23.194   3.756
26871W        W95265  37.100  15.566  11.469
26872W        W95266  39.351  36.705  12.559
26873W        W95267  34.451  41.375   3.896
26874W        W95268   2.254  30.996  14.343
26875W        W95269  12.745  30.728   4.623
26876W        W95270  10.089   2.032  10.664
26877W        W95271  33.335  36.366  14.496
26878W        W95272  20.847  18.119   3.137
26879W        W95273  11.193  44.212  12.229
26880W        W95274  19.660  43.841   4.113
26881W        W95275   1.432   8.365  12.515
26882W        W95276   9.238  26.154  10.089
26883W        W95277  42.931  27.334   3.224
26884W        W95278  33.234  37.506   1.199
26885W        W95279   6.996   8.907   0.846
26886W        W95280  43.348   1.983  11.934
26887W        W95281  35.021   8.475   1.351
26888W        W95282  33.970  44.260   2.663
26889W        W95283   4.521  43.877  11.250
26890W        W95284   0.882  30.444   1.510
26891W        W95285  35.642  40.925  12.028
26892W        W95286  44.476  15.807   3.199
26893W        W95287  32.187  15.849   1.190
26894W        W95288  40.802   3.320  14.333
26895W        W95289  24.523   7.890  12.995
26896W        W95290   7.825   6.938   3.130
26897W        W95291  15.770   6.415  14.827
26898W        W95292  34.060  23.571  13.049
26899W        W95293  34.425  19.480   0.258
26900W        W95294  10.222  21.193   1.634
26901W        W95295  29.741  37.442  13.789
26902W        W95296  40.483  20.418  11.748
26903W        W95297  28.065  29.547  11.182
26904W        W95298  39.770  42.283  12.015
26905W        W95299  23.244  33.338  14.367
26906W        W95300  14.736  38.713  11.207
26907W        W95301  26.187  37.953  14.396
26908W        W95302  15.649  31.390   3.953
26909W        W95303  11.816  34.983  12.496
26910W        W95304  18.509  25.969  12.548
26911W        W95305   5.230  44.548   3.388
26912W        W95306  23.559  28.524  13.479
26913W        W95307  34.355  36.098   0.989
26914W        W95308  15.555  36.409  11.930
26915W        W95309   2.395  19.570   4.216
26916W        W95310  40.109  11.975  12.016
26917W        W95311  27.648  42.146  13.476
26918W        W95312   6.670  23.770  11.586
26919W        W95313   5.882  10.421   3.089
26920W        W95314  14.552  20.317  13.930
26921W        W95315  20.163  22.052  14.433
26922W        W95316  27.961  12.636   1.648
26923W        W95317  12.168  18.505   3.816
26924W        W95318  43.098  13.750   1.358
26925W        W95319  37.127  22.157  11.541
26926W        W95320  19.701   4.191   1.220
26927W        W95321   4.934  33.843   4.554
26928W        W95322   1.847  37.662  14.296
26929W        W95323   0.968  23.310   1.417
26930W        W95324  14.931   1.465  13.472
26931W        W95325  34.056  17.366   4.363
26932W        W95326  14.581   3.221   4.259
26933W        W95327  34.674   7.199   0.343
26934W        W95328  12.273  38.039   0.510
26935W        W95329   3.971  12.872  14.732
26936W        W95330  22.201  39.401   3.376
26937W        W95331  38.026   8.439   2.670
26938W        W95332   0.442  32.620  12.603
26939W        W95333  10.342  44.334  13.557
26940W        W95334  29.139   1.483  13.191
26941W        W95335  10.895  17.821   1.409
26942W        W95336   0.229  24.302   0.509
26943W        W95337  31.508  39.946   2.697
26944W        W95338  12.071  17.712  14.563
26945W        W95339  34.517  32.952   4.607
26946W        W95340  17.273  12.579  14.736
26947W        W95341   1.855   8.109  13.379
26948W        W95342  25.199  22.712  12.873
26949W        W95343  43.786  28.568   4.121
26950W        W95344  12.462   2.767  11.303
26951W        W95345  18.450  20.743   0.210
26952W        W95346  18.520  20.392   2.734
26953W        W95347   5.098  10.628   4.063
26954W        W95348   8.182  14.371  13.907
26955W        W95349  35.207   3.903   4.540
26956W        W95350   5.202   0.479  11.605
26957W        W95351  18.576  15.440  10.279
26958W        W95352  27.028  39.093   3.666
26959W        W95353  18.675  33.650   1.326
26960W        W95354   6.197  33.529   3.718
26961W        W95355  35.028   8.523  14.044
26962W        W95356  22.994  44.001  11.192
26963W        W95357  40.896  19.843   3.902
26964W        W95358  27.082  16.179  12.866
26965W        W95359  16.096  36.799   1.750
26966W        W95360  42.012  31.795   5.062
26967W        W95361  38.446  35.343  14.292
26968W        W95362  22.424   4.930  13.871
26969W        W95363  11.788  13.830  13.799
26970W        W95364  32.990  22.263  14.850
26971W        W95365  24.383  42.004  10.820
26972W        W95366   7.309  36.034   3.649
26973W        W95367  19.277   3.335  12.955
26974W        W95368  42.105  38.921  11.632
26975W        W95369   8.175   7.802  11.706
26976W        W95370  39.135   0.963   3.657
26977W        W95371   7.452   8.825  13.274
26978W        W95372  41.394  35.500  11.810
26979W        W95373   1.304  20.186  12.491
26980W        W95374  25.945  32.322   1.993
26981W        W95375  22.818  27.383  12.315
26982W        W95376  28.404  10.300  11.485
26983W        W95377   3.384  14.322   3.132
26984W        W95378  41.376   0.813   1.659
26985W        W95379  30.373  29.673   4.353
26986W        W95380   3.365  12.772   3.205
26987W        W95381   3.399  22.164  10.679
26988W        W95382  22.128  36.268  11.612
26989W        W95383   5.128  29.548   4.946
26990W        W95384  30.097  41.004   4.001
26991W        W95385  37.377  29.683  12.741
26992W        W95386  22.778  14.583   3.571
26993W        W95387  37.101   4.754   4.208
26994W        W95388  22.249  19.981  14.851
26995W        W95389  39.003  30.048  11.784
26996W        W95390   0.157  24.030  13.991
26997W        W95391   6.947   9.668   2.431
26998W        W95392  12.819  33.866  10.718
26999W        W95393  43.475  27.028   2.406
27000W        W95394  39.115  41.090   2.307
27001W        W95395  17.481  12.184   1.453
27002W        W95396  23.263  27.471   1.867
27003W        W95397  29.675  16.940  11.051
27004W        W95398   7.987  23.228   1.548
27005W        W95399  36.154  14.310  12.546
27006W        W95400   0.700  25.159  12.071
27007W        W95401  26.001  12.069  13.307
27008W        W95402   8.674  24.319   1.444
27009W        W95403  40.474  24.706   3.625
27010W        W95404  19.748  20.927   2.817
27011W        W95405  21.297  24.952  14.200
27012W        W95406  23.621  25.028  12.497
27013W        W95407  43.167   8.700   5.034
27014W        W95408  24.455  32.948   3.755
27015W        W95409  38.771  31.323   1.396
27016W        W95410  37.131  25.594   1.459
27017W        W95411  18.304   3.843   3.709
27018W        W95412   5.295  32.277   0.638
27019W        W95413  22.912  22.034  11.728
27020W        W95414  25.343  14.182  10.737
27021W        W95415  13.695  13.816  11.183
27022W        W95416  29.614  37.891  12.495
27023W        W95417  10.359  19.042  10.741
27024W        W95418  31.493  42.686  11.614
27025W        W95419   0.491  15.013   4.111
27026W        W95420  21.814  25.803   9.990
27027W        W95421   1.690  37.604  11.062
27028W        W95422   8.925  24.904   0.206
27029W        W95423  28.143  16.100  14.362
27030W        W95424  36.388  22.713  10.259
27031W        W95425  23.546  27.505   0.039
27032W        W95426   9.470  43.780   2.296
27033W        W95427  18.759   7.756   1.395
27034W        W95428  18.436  12.311  13.453
27035W        W95429  11.175  34.494   2.759
27036W        W95430  43.811  41.833  11.401
27037W        W95431  35.443  39.845  13.800
27038W        W95432  12.800  37.297  10.073
27039W        W95433   7.782   8.879   3.238
27040W        W95434  14.530   9.432  10.483
27041W        W95435  35.992  15.299   1.196
27042W        W95436   6.018  21.548   4.882
27043W        W95437  26.927  26.644   3.206
27044W        W95438  15.969  12.654  14.132
27045W        W95439   2.787  39.981   4.738
27046W        W95440  22.881  38.942   3.056
27047W        W95441  35.702  16.059  11.577
27048W        W95442  43.213  24.814   4.851
27049W        W95443  21.052  36.537  14.824
27050W        W95444  30.836  38.944   3.302
27051W        W95445  24.720  32.337   1.478
27052W        W95446  11.209   2.808   1.163
27053W        W95447  13.372  13.068  11.506
27054W        W95448  36.367  41.339  13.968
27055W        W95449   0.955   9.098   1.803
27056W        W95450  31.074  39.398   3.337
27057W        W95451  26.521  15.677   1.813
27058W        W95452  18.708  41.429   3.813
27059W        W95453  44.983   1.907  13.133
27060W        W95454  38.607  44.414  13.814
27061W        W95455  27.014   6.078  14.375
27062W        W95456   3.288  42.436   1.110
27063W        W95457   4.973  26.767  13.541
27064W        W95458  40.647  44.075  13.813
27065W        W95459  38.840  26.642   0.888
27066W        W95460  16.541  39.072  14.316
27067W        W95461  20.097  30.947   1.391
27068W        W95462  12.605   0.017  14.772
27069W        W95463   5.235   4.840  12.569
27070W        W95464  43.228  22.205   0.751
27071W        W95465  29.203  19.020  11.345
27072W        W95466  33.980  11.661  11.756
27073W        W95467   6.926  33.134  11.603
27074W        W95468  16.148   1.170   2.365
27075W        W95469  26.234  36.401   2.829
27076W        W95470  20.269   8.814   5.373
27077W        W95471  15.170  39.429   0.632
27078W        W95472  28.974   5.145   1.317
27079W        W95473  14.616   1.185   0.330
27080W        W95474  39.498  14.481   3.216
27081W        W95475  40.471  37.169  14.717
27082W        W95476  29.590  18.101   4.137
27083W        W95477  12.818  35.582  12.641
27084W        W95478  40.954  18.562  10.575
27085W        W95479   6.611   1.426   5.059
27086W        W95480  19.229  39.085  10.599
27087W        W95481  40.302  43.164   4.412
27088W        W95482  17.782  29.025  13.779
27089W        W95483   7.652  11.153   2.424
27090W        W95484  33.190  24.514  10.616
27091W        W95485  43.416   8.605  13.282
27092W        W95486  37.554  21.876   4.095
27093W        W95487  23.109   6.136   3.158
27094W        W95488   3.934   6.877   0.221
27095W        W95489  13.465  43.027   0.885
27096W        W95490  44.886  42.004   1.854
27097W        W95491  12.057  29.979  12.538
27098W        W95492   1.757  27.090   4.874
27099W        W95493  22.806  43.773   0.952
27100W        W95494  24.102  22.175  12.975
27101W        W95495  26.015   5.131  12.689
27102W        W95496  41.904   5.695   3.737
27103W        W95497  13.578  20.084   2.103
27104W        W95498  36.036  17.602   0.146
27105W        W95499  32.109  22.979   1.420
27106W        W95500   2.567   0.223  12.302
27107W        W95501   4.169  28.388   1.298
27108W        W95502  28.617  30.357  14.539
27109W        W95503   5.034  25.915  12.473
27110W        W95504  44.057  26.139   4.171
27111W        W95505  26.987  39.567  14.718
27112W        W95506  18.222  23.187   4.623
27113W        W95507   6.635  16.651  11.675
27114W        W95508   5.866  25.630  12.392
27115W        W95509  34.981  10.569   2.782
27116W        W95510   6.443  20.622  10.643
27117W        W95511   3.166  42.727   2.401
27118W        W95512   7.745  22.190  13.364
27119W        W95513  17.038  19.129   2.181
27120W        W95514  12.221  43.362   3.866
27121W        W95515  10.304   9.278   5.147
27122W        W95516   6.871  26.571   4.102
27123W        W95517  26.569  30.070  12.755
27124W        W95518   2.223   9.828  10.714
27125W        W95519  31.489   3.567  12.701
27126W        W95520  21.271  22.979   3.457
27127W        W95521  12.797  38.524   2.776
27128W        W95522  43.869   4.414   2.632
27129W        W95523  19.323  33.261  12.391
27130W        W95524  14.293  44.847  12.927
27131W        W95525  16.584  44.392  14.257
27132W        W95526   7.103  32.654   4.417
27133W        W95527   6.318  37.113  13.725
27134W        W95528  17.509  44.287   4.182
27135W        W95529  44.731  18.543   3.612
27136W        W95530  10.687  12.202   3.245
27137W        W95531   3.750  11.727   4.700
27138W        W95532  17.549  40.022  13.378
27139W        W95533   7.332  10.550  11.142
27140W        W95534  41.903   3.808  13.558
27141W        W95535  39.555   7.763  13.948
27142W        W95536  36.886  36.455   1.248
27143W        W95537  19.377   0.561   1.801
27144W        W95538  23.454  14.336   4.065
27145W        W95539  24.059  43.807  14.387
27146W        W95540   9.250  10.263  13.993
27147W        W95541  31.876  13.539   1.189
27148W        W95542  28.896  24.232  12.897
27149W        W95543  40.983  17.581  12.514
27150W        W95544  15.141  18.033   2.688
27151W        W95545  39.816  26.753   4.222
27152W        W95546  29.307   7.561  12.489
27153W        W95547  15.992   9.822   3.369
27154W        W95548  18.811  21.397  12.113
27155W        W95549  44.296  16.050   4.717
27156W        W95550  22.330   7.599   1.520
27157W        W95551   5.772  23.192  14.863
27158W        W95552  25.972  36.481   1.438
27159W        W95553  11.844  19.160   4.581
27160W        W95554  10.347  36.016   3.184
27161W        W95555  21.025  25.543   1.317
27162W        W95556  32.948  36.765  12.543
27163W        W95557  19.295  19.943  12.604
27164W        W95558  30.609   4.826   3.081
27165W        W95559   2.289   9.091  12.533
27166W        W95560   8.458  39.385  11.746
27167W        W95561  44.032   2.826   1.733
27168W        W95562  27.120  18.770  13.502
27169W        W95563  16.160  20.945  11.058
27170W        W95564  32.086   0.920  12.853
27171W        W95565   7.645  24.673   0.276
27172W        W95566  25.692  21.903   0.850
27173W        W95567  21.807  18.310   4.241
27174W        W95568   7.987  42.515  10.438
27175W        W95569   7.081  13.410   0.384
27176W        W95570   5.161  44.754   1.998
27177W        W95571   1.267  12.629   4.196
27178W        W95572  17.561  15.596  11.528
27179W        W95573  39.580  12.119   3.825
27180W        W95574  13.054   0.012  11.864
27181W        W95575  34.587  21.610  14.490
27182W        W95576  32.096  11.054  12.088
27183W        W95577  23.808  43.385  11.156
27184W        W95578   5.916   0.455   0.046
27185W        W95579  36.338  16.322   1.908
27186W        W95580  17.142  42.050  13.018
27187W        W95581  17.901  32.327  13.083
27188W        W95582  23.837  15.741   4.493
27189W        W95583   4.301  17.595  13.922
27190W        W95584  42.497  39.459   5.419
27191W        W95585  17.494  21.245   4.507
27192W        W95586  17.602  14.569  12.321
27193W        W95587  26.026   6.484  10.657
27194W        W95588  17.117  25.260  12.119
27195W        W95589  30.189  20.271   4.297
27196W        W95590  41.605  37.966   2.600
27197W        W95591  17.699  36.050  11.380
27198W        W95592  34.306  34.729   1.276
27199W        W95593  37.000  28.983   1.468
27200W        W95594  19.089  34.864  11.606
27201W        W95595   6.220  26.280  14.846
27202W        W95596   9.192  21.335   0.744
27203W        W95597  44.258  37.477   0.399
27204W        W95598   2.279  37.510   4.594
27205W        W95599  25.540  13.911  12.022
27206W        W95600  27.699  12.453   1.183
27207W        W95601  44.725  14.015  10.904
27208W        W95602  28.618   8.675   2.990
27209W        W95603   5.349   8.133   0.994
27210W        W95604  32.235  24.722   0.391
27211W        W95605  27.515  41.494  10.368
27212W        W95606  25.174  15.703  13.422
27213W        W95607  33.592   4.327   0.225
27214W        W95608  31.019  35.099  10.755
27215W        W95609   0.614  13.553  11.656
27216W        W95610   4.864   5.338   2.542
27217W        W95611   5.120  11.992   4.593
27218W        W95612  33.671  18.689  11.020
27219W        W95613  34.906  37.937   3.836
27220W        W95614  33.112   6.143   3.330
27221W        W95615   5.253  19.043  13.414
27222W        W95616  15.719  19.388   4.971
27223W        W95617  26.329  19.474  11.705
27224W        W95618   9.150  25.996  14.933
27225W        W95619  34.664  22.299   1.354
27226W        W95620  14.302   5.919   0.947
27227W        W95621  30.324  44.455  10.713
27228W        W95622  27.513  35.165   0.310
27229W        W95623  44.094  39.465  10.998
27230W        W95624  32.746   2.577  14.402
27231W        W95625  36.854   0.975  14.862
27232W        W95626  21.298  11.631  13.428
27233W        W95627  21.403   2.107   0.871
27234W        W95628  14.398   7.003   0.398
27235W        W95629  33.788   4.883   1.158
27236W        W95630  32.034  17.227  14.479
27237W        W95631  27.480  14.702  11.043
27238W        W95632  30.459   9.874   3.724
27239W        W95633  12.957  17.377  10.298
27240W        W95634  22.590  24.917   4.487
27241W        W95635   2.904  25.708  14.627
27242W        W95636  23.727  31.568   5.105
27243W        W95637  16.047  17.368  11.549
27244W        W95638  37.159  37.976   0.156
27245W        W95639  23.400   6.703  14.785
27246W        W95640  27.633  17.811  14.360
27247W        W95641  22.268  29.276   1.051
27248W        W95642  13.069  33.526  10.368
27249W        W95643  10.005   7.406   3.694
27250W        W95644  40.931  25.518  12.524
27251W        W95645  39.915  27.260   2.823
27252W        W95646  12.644  35.956   3.547
27253W        W95647  24.357  43.893   5.241
27254W        W95648   5.980  26.283   4.987
27255W        W95649   9.705  25.313   2.616
27256W        W95650  30.528  30.126   0.470
27257W        W95651  28.565  12.872   3.214
27258W        W95652  43.867   1.164   0.802
27259W        W95653   8.693  23.846   0.012
27260W        W95654  29.488  35.923   0.577
27261W        W95655  30.421  14.035  12.530
27262W        W95656  36.830  19.681  12.500
27263W        W95657  32.064  24.816   0.879
27264W        W95658  23.260  27.679  11.360
27265W        W95659  32.961  35.762   1.476
27266W        W95660  25.787  38.849   0.364
27267W        W95661   3.043  26.270  13.086
27268W        W95662  20.007  37.093  14.457
27269W        W95663  31.813   2.798  11.976
27270W        W95664  35.012  31.582   1.935
27271W        W95665  17.960  35.069  14.823
27272W        W95666  38.495   4.382   1.570
27273W        W95667   1.226  16.011   2.192
27274W        W95668  18.121  22.274   4.483
27275W        W95669  42.412  33.228  14.514
27276W        W95670  25.472  37.464   3.170
27277W        W95671  13.174  37.122   0.499
27278W        W95672  30.371   9.395  11.583
27279W        W95673  30.636  18.646   1.331
27280W        W95674   1.831  43.381  12.601
27281W        W95675  21.730  29.215   0.982
27282W        W95676  10.556  35.045  11.344
27283W        W95677  26.182  42.065   3.674
27284W        W95678  15.259  16.338   1.667
27285W        W95679  25.426  11.657   0.481
27286W        W95680   6.357  27.738   1.034
27287W        W95681   5.671  12.047  10.664
27288W        W95682  27.070  12.816   3.050
27289W        W95683  28.106  16.088  13.480
27290W        W95684  35.195  35.432  12.906
27291W        W95685   1.438   2.925   0.763
27292W        W95686  16.811  15.048  11.113
27293W        W95687   9.719  23.178   0.795
27294W        W95688  18.636  33.493   0.810
27295W        W95689  16.553  18.609   5.047
27296W        W95690  16.149   7.820   4.527
27297W        W95691  38.538  28.524   3.839
27298W        W95692  32.399  25.569   2.827
27299W        W95693  18.929  21.849  12.605
27300W        W95694  41.064  30.003  12.587
27301W        W95695  32.324  15.922   2.205
27302W        W95696   7.415  43.798   3.762
27303W        W95697  21.502   2.559  12.760
27304W        W95698  38.930  18.192   2.227
27305W        W95699  33.106  14.797  11.641
27306W        W95700  17.309  10.164  12.019
27307W        W95701  37.573   7.275  11.958
27308W        W95702  35.859   8.654  13.768
27309W        W95703  30.936   7.360  14.443
27310W        W95704  31.547  35.108  13.541
27311W        W95705  38.943  38.225  13.483
27312W        W95706  44.131  27.216   0.403
27313W        W95707  19.225  38.768   1.889
27314W        W95708  20.581  22.175  12.284
27315W        W95709  13.618  27.526   4.427
27316W        W95710  32.021  37.532  12.035
27317W        W95711  18.150  10.909  13.585
27318W        W95712  15.660  39.520   4.065
27319W        W95713  29.415  37.067   1.415
27320W        W95714  34.946  22.195   0.901
27321W        W95715  38.476   7.931  13.062
27322W        W95716  36.353  38.869   3.626
27323W        W95717   1.005  25.740  14.527
27324W        W95718   1.812  24.580  12.883
27325W        W95719  34.270  40.252   2.751
27326W        W95720   3.340  18.494  12.979
27327W        W95721  16.922  42.904  11.549
27328W        W95722  31.398  16.421  11.560
27329W        W95723   9.212   0.004  13.080
27330W        W95724  23.977  37.935  14.835
27331W        W95725  13.800  33.182   2.348
27332W        W95726  18.287  13.876   4.622
27333W        W95727  29.245  23.398  10.437
27334W        W95728  31.399  43.256   0.014
27335W        W95729  12.954  37.806   2.283
27336W        W95730   5.187  38.974  12.645
27337W        W95731   0.939   8.323   4.788
27338W        W95732  39.365  42.545  13.831
27339W        W95733  17.117  12.339   1.088
27340W        W95734  21.285  29.423  14.013
27341W        W95735  13.030  12.253   3.240
27342W        W95736  20.729  16.736  13.914
27343W        W95737   7.678  30.497  13.321
27344W        W95738   1.377  28.262   2.177
27345W        W95739   0.850   3.906   1.321
27346W        W95740  14.389  33.402   4.502
27347W        W95741  12.319  39.434   1.804
27348W        W95742   9.857  24.014   5.102
27349W        W95743  25.645  17.519   1.172
27350W        W95744  23.917  10.422  13.920
27351W        W95745  13.280   7.629   2.728
27352W        W95746  24.808  36.837   2.848
27353W        W95747   6.918  32.115  12.548
27354W        W95748  24.644  13.351   5.103
27355W        W95749  14.145  36.329   3.205
27356W        W95750  13.881  37.291  13.531
27357W        W95751  28.496  26.667   0.058
27358W        W95752  33.410  35.882   1.171
27359W        W95753  15.846  26.005  11.793
27360W        W95754  32.510  27.858  12.238
27361W        W95755   7.323  29.303  14.455
27362W        W95756  15.590  27.091  12.987
27363W        W95757   1.426  37.845   2.225
27364W        W95758  34.765  43.752  14.370
27365W        W95759  24.354   6.305  10.525
27366W        W95760   9.726  32.002   1.265
27367W        W95761  41.451  29.501   0.358
27368W        W95762  33.456   0.533  10.639
27369W        W95763  10.465  18.524   4.090
27370W        W95764  17.769  21.281  12.044
27371W        W95765  25.670  38.474   4.189
27372W        W95766  24.199  22.781  14.370
27373W        W95767  32.946  31.988   3.726
27374W        W95768  17.009  30.518   0.534
27375W        W95769  40.576  15.266  12.517
27376W        W95770   4.704   5.286   2.053
27377W        W95771   7.404  34.337  11.662
27378W        W95772  25.431   7.365   0.423
27379W        W95773   4.402  22.467   3.717
27380W        W95774  27.023  17.733   2.157
27381W        W95775  21.676  30.706   3.811
27382W        W95776  27.646  22.429   4.091
27383W        W95777   3.345   7.450   2.687
27384W        W95778  23.750   7.765   4.121
27385W        W95779   3.569   8.106  12.498
27386W        W95780  33.527  42.326   4.710
27387W        W95781  20.362  11.667   4.689
27388W        W95782   3.019  27.853   1.667
27389W        W95783  33.881  30.960   2.025
27390W        W95784   0.485   9.491  11.136
27391W        W95785  26.096  26.236  14.429
27392W        W95786  29.345  35.912   2.604
27393W        W95787  34.425  44.442  10.786
27394W        W95788  27.641  15.332   4.785
27395W        W95789  30.449  29.667  12.726
27396W        W95790  18.629  14.699   2.249
27397W        W95791  33.111  32.790  12.440
27398W        W95792   6.132  29.004   1.523
27399W        W95793  28.005  25.185  12.783
27400W        W95794  41.046  27.153  13.585
27401W        W95795  37.019  22.725   1.837
27402W        W95796  36.336   8.316  11.764
27403W        W95797  15.800  20.008  14.442
27404W        W95798  11.747  36.409   2.158
27405W        W95799  16.626  10.104  10.368
27406W        W95800  12.669  21.663   3.762
27407W        W95801   5.741  21.812  10.728
27408W        W95802  22.859  43.483   1.374
27409W        W95803  14.760  24.699   2.261
27410W        W95804  41.268  17.840   3.104
27411W        W95805  43.589  17.272  11.945
27412W        W95806   4.036  33.952   1.778
27413W        W95807  35.520  39.285  14.823
27414W        W95808  23.480   8.735   3.972
27415W        W95809   5.900  29.379   2.265
27416W        W95810  21.401  36.964  11.678
27417W        W95811  26.075  32.495   0.609
27418W        W95812  14.793  34.318  11.481
27419W        W95813  41.906  27.591  10.681
27420W        W95814   4.310  33.391  11.977
27421W        W95815  24.874   1.725   4.495
27422W        W95816  29.917  34.368   0.928
27423W        W95817   5.984  15.138   4.586
27424W        W95818  29.444  15.214   2.874
27425W        W95819  30.483  15.598  14.529
27426W        W95820   3.157  37.730  12.426
27427W        W95821   0.177  28.555   1.847
27428W        W95822  28.116  23.468  11.811
27429W        W95823  17.820   2.417   4.324
27430W        W95824  38.840  22.094   3.426
27431W        W95825   7.428  34.124  12.892
27432W        W95826   4.707  32.215  11.710
27433W        W95827  29.506  21.091   4.230
27434W        W95828   2.238  33.191   3.690
27435W        W95829  33.030   9.774   0.513
27436W        W95830  36.757  14.851  14.356
27437W        W95831  17.030  44.522  14.852
27438W        W95832   9.862  35.996   3.361
27439W        W95833  42.352  26.871  13.010
27440W        W95834  13.540  30.090  11.512
27441W        W95835  32.625  26.927  14.515
27442W        W95836  36.495   9.091   3.631
27443W        W95837   9.940  42.376   2.681
27444W        W95838  34.600  17.347   1.870
27445W        W95839  24.279  21.793  14.030
27446W        W95840   5.170  23.235  14.273
27447W        W95841  10.765  22.373  11.446
27448W        W95842  39.314  20.508   2.738
27449W        W95843  23.190  32.107   0.749
27450W        W95844  34.337  33.019   0.863
27451W        W95845  31.538   7.107   0.249
27452W        W95846   3.004  18.331   1.317
27453W        W95847   1.277  16.446  11.771
27454W        W95848   9.358   8.808  11.731
27455W        W95849   3.486   6.066   3.681
27456W        W95850  41.966  21.479   2.702
27457W        W95851  15.063  19.778  13.213
27458W        W95852  38.936  10.178  11.495
27459W        W95853  40.980  31.639   2.261
27460W        W95854  12.408  27.171  11.464
27461W        W95855  25.425  42.489   4.256
27462W        W95856  28.629  33.322   3.643
27463W        W95857  18.067  28.133   4.119
27464W        W95858  18.990  19.445  10.605
27465W        W95859  30.129  19.550   2.182
27466W        W95860  12.629  39.994   3.693
27467W        W95861  35.784   6.305  10.781
27468W        W95862  21.505  30.372   0.614
27469W        W95863  21.556  20.549   2.108
27470W        W95864  40.290   4.394  14.336
27471W        W95865   1.256  27.774   4.653
27472W        W95866   3.251  11.954  14.829
27473W        W95867  32.238  18.152   3.362
27474W        W95868   7.700   7.647  10.463
27475W        W95869  16.676  38.636  11.594
27476W        W95870  41.971   7.077   3.173
27477W        W95871  43.904   8.889   2.805
27478W        W95872  29.031  28.264   0.704
27479W        W95873  24.956  18.204  11.122
27480W        W95874  12.393  34.807   3.260
27481W        W95875  23.412   8.289  10.187
27482W        W95876   4.228  32.563   4.538
27483W        W95877  17.832  14.033   1.295
27484W        W95878  13.681  16.637   3.786
27485W        W95879  38.752  31.002   1.819
27486W        W95880  12.255   0.029   4.839
27487W        W95881  35.770  34.824   0.039
27488W        W95882   1.795  34.802   0.802
27489W        W95883  21.941  26.675  10.160
27490W        W95884  33.295  17.217   3.180
27491W        W95885  28.969  15.514   3.587
27492W        W95886   6.906   5.775   1.497
27493W        W95887  11.862  35.826  12.831
27494W        W95888  35.819  27.369   1.731
27495W        W95889  22.523   3.720   0.302
27496W        W95890  20.947  14.212   3.640
27497W        W95891  43.809   9.589  11.481
27498W        W95892  27.494  23.087  11.783
27499W        W95893  37.968   2.840   3.883
27500W        W95894  25.521   6.290  12.570
27501W        W95895  10.720  30.982  13.036
27502W        W95896  35.907  31.161   0.705
27503W        W95897  16.743  32.784  10.928
27504W        W95898  42.544  33.920   3.762
27505W        W95899  19.710   3.434  11.277
27506W        W95900  20.269   6.686  10.802
27507W        W95901   5.648  15.802  12.564
27508W        W95902  16.160   1.770  10.570
27509W        W95903  22.395  26.471  14.832
27510W        W95904  27.522  18.856   0.827
27511W        W95905  10.141  11.847   0.852
27512W        W95906   6.036  36.326  14.330
27513W        W95907  33.060  17.539   3.525
27514W        W95908  26.461  11.479  11.655
27515W        W95909  16.763   1.625   4.368
27516W        W95910  44.023  40.891  11.475
27517W        W95911  35.633  24.018  12.055
27518W        W95912  35.970   0.928  14.985
27519W        W95913   5.705  41.572   1.888
27520W        W95914  15.295  43.392   4.670
27521W        W95915  32.461  27.643   1.638
27522W        W95916  32.492   9.787  12.762
27523W        W95917  44.858  20.963   4.869
27524W        W95918  22.828  40.113   0.366
27525W        W95919  39.738  27.252  14.787
27526W        W95920  11.042   9.739   4.216
27527W        W95921  11.063  22.811  12.690
27528W        W95922  32.485  14.809   5.070
27529W        W95923  21.604  41.122  13.067
27530W        W95924  11.984  36.969   4.118
27531W        W95925  26.667  38.882   4.570
27532W        W95926  26.475  31.528   2.298
27533W        W95927   3.303  39.925   0.347
27534W        W95928  23.355  18.784   1.896
27535W        W95929  21.757  15.583   1.231
27536W        W95930  41.850  18.552   3.297
27537W        W95931  17.240  30.128   3.074
27538W        W95932  13.418   3.369   2.778
27539W        W95933   7.676  43.033   2.593
27540W        W95934  25.822  38.140   0.856
27541W        W95935  30.618  36.068   0.480
27542W        W95936   8.161  38.792  12.459
27543W        W95937  20.564  24.086   3.676
27544W        W95938  26.970  30.405  12.287
27545W        W95939   3.005  13.283  13.917
27546W        W95940  11.226  41.602   2.286
27547W        W95941  42.507  23.182   2.872
27548W        W95942  38.518   2.534   3.191
27549W        W95943  21.951  21.765  14.480
27550W        W95944  43.792  17.138   3.062
27551W        W95945  27.572  30.336  13.922
27552W        W95946   5.633  35.074   3.543
27553W        W95947  12.129  42.529  11.525
27554W        W95948  25.391  38.829   3.300
27555W        W95949   4.278  24.978  14.467
27556W        W95950  42.275  38.924  11.146
27557W        W95951  28.948   7.833   4.059
27558W        W95952  12.812  42.329   4.364
27559W        W95953   9.389  44.463   1.918
27560W        W95954   4.480  26.036  13.101
27561W        W95955  27.724   3.433  14.261
27562W        W95956  34.499  15.302  11.312
27563W        W95957  44.831   8.921   2.638
27564W        W95958  19.401   3.952  10.598
27565W        W95959   8.687  43.462   0.338
27566W        W95960  28.051  28.661  14.944
27567W        W95961  16.339   8.474  14.944
27568W        W95962  44.098  43.917   2.381
27569W        W95963  35.438  14.274  10.828
27570W        W95964   4.034   4.085   2.126
27571W        W95965  35.892  23.549  12.347
27572W        W95966   8.004   4.748   4.390
27573W        W95967  39.308  38.942  13.322
27574W        W95968   5.401  31.254   4.127
27575W        W95969   1.178  21.000  11.692
27576W        W95970  27.594  38.816  13.588
27577W        W95971  44.870  39.583  14.015
27578W        W95972  44.800  24.940   0.768
27579W        W95973  32.750  39.644  13.956
27580W        W95974  18.026  44.300  12.773
27581W        W95975  36.115   1.407  12.503
27582W        W95976  33.640   8.120  13.556
27583W        W95977  28.236   7.017  13.907
27584W        W95978   7.184   9.875  11.611
27585W        W95979   7.973  33.547  14.970
27586W        W95980   4.909  28.453  10.711
27587W        W95981  28.069  31.668   3.632
27588W        W95982  16.263  35.057  14.367
27589W        W95983  12.219   0.533   4.632
27590W        W95984  27.086  38.972   0.478
27591W        W95985  25.549   5.448   1.216
27592W        W95986  13.660  12.913   1.145
27593W        W95987  23.798  44.822   3.064
27594W        W95988   6.277  24.164   3.278
27595W        W95989  13.678  24.480   1.258
27596W        W95990  19.639  39.451  11.173
27597W        W95991   2.798  13.809   1.580
27598W        W95992   6.777  35.833   0.461
27599W        W95993   3.392   6.926   0.261
27600W        W95994   3.728  15.400   4.896
27601W        W95995   0.211  37.692   9.583
27602W        W95996   5.524   3.285   2.653
27603W        W95997   0.789  10.694  14.272
27604W        W95998   1.795  12.557  10.526
27605W        W95999   0.194   0.698  10.730
27606W        W96000  11.026  11.896   4.111
27607W        W96001  23.070  29.571  12.617
27608W        W96002  31.146  19.660  14.519
27609W        W96003  30.175  43.894  13.044
27610W        W96004  16.268  27.703   1.160
27611W        W96005   8.751  13.875   1.905
27612W        W96006  38.846  36.035  13.308
27613W        W96007  18.427  39.838  14.982
27614W        W96008  22.055  44.440  13.204
27615W        W96009  43.412  13.799   3.533
27616W        W96010   3.970  38.976   4.342
27617W        W96011  10.013  24.728   3.358
27618W        W96012  31.455   0.393  13.014
27619W        W96013   0.456  31.632   1.286
27620W        W96014  22.581   1.052  12.229
27621W        W96015   0.398  11.676  12.077
27622W        W96016   4.533  21.953  14.438
27623W        W96017  12.248   0.765   0.251
27624W        W96018  41.558  33.652  11.546
27625W        W96019   1.744  21.696  12.616
27626W        W96020   9.103  38.878   5.076
27627W        W96021  27.436  31.675   0.536
27628W        W96022  21.113  37.889   2.403
27629W        W96023  34.970   9.095   0.464
27630W        W96024   0.479  27.713   4.093
27631W        W96025  15.604  36.167  10.580
27632W        W96026  22.048  29.371  10.254
27633W        W96027  33.286  21.616  13.355
27634W        W96028  14.258   2.935   3.789
27635W        W96029  30.701  23.395   3.050
27636W        W96030  11.452  33.822   1.419
27637W        W96031  29.707   0.415   4.532
27638W        W96032  39.467  16.572  14.243
27639W        W96033  42.998  31.023   4.420
27640W        W96034  20.012  38.389   2.727
27641W        W96035  22.268   8.503  14.456
27642W        W96036   7.874  38.271   3.888
27643W        W96037  12.171  23.155   4.366
27644W        W96038  24.605  18.279   4.249
27645W        W96039  23.503   9.609  12.381
27646W        W96040   1.289  16.121   1.160
27647W        W96041  20.767  42.449  11.250
27648W        W96042  12.896  12.796   1.164
27649W        W96043   6.366  26.975   2.758
27650W        W96044   0.416  43.287   1.696
27651W        W96045   9.465  38.139  13.467
27652W        W96046  44.830  36.339  12.536
27653W        W96047  14.567  40.347  11.963
27654W        W96048  29.452  13.793  13.664
27655W        W96049  22.791  18.433   3.448
27656W        W96050  32.411  31.884   0.850
27657W        W96051  10.130  42.337  10.513
27658W        W96052   4.817  26.012   4.077
27659W        W96053  33.021   8.727  13.114
27660W        W96054   7.686  12.799   0.947
27661W        W96055   2.407  31.961   0.844
27662W        W96056  32.605  34.070  14.440
27663W        W96057  37.446   3.994  11.603
27664W        W96058  17.715  34.860   1.736
27665W        W96059  11.222  43.518   2.165
27666W        W96060  41.086  36.479  11.980
27667W        W96061  18.223  14.615   1.913
27668W        W96062  36.109   3.864   4.780
27669W        W96063  41.557  41.867   3.572
27670W        W96064  23.947  38.954  10.644
27671W        W96065  40.838  34.986  12.383
27672W        W96066  25.683  14.149  14.384
27673W        W96067   8.472  22.433  12.780
27674W        W96068  44.960  32.536  12.785
27675W        W96069   6.519  43.699   1.682
27676W        W96070  31.313  22.673  11.922
27677W        W96071  23.181  13.518  12.044
27678W        W96072  24.599  44.467  11.535
27679W        W96073  24.057   1.870   3.850
27680W        W96074  22.229   3.860  11.136
27681W        W96075  35.851  43.559   4.192
27682W        W96076  23.459  26.517   4.577
27683W        W96077   6.376  10.895   4.477
27684W        W96078  38.770  12.599  14.810
27685W        W96079   1.826  39.650   2.286
27686W        W96080  39.283   5.763  13.785
27687W        W96081   2.269  26.523   3.641
27688W        W96082  15.696  22.799  12.599
27689W        W96083  14.545  40.905   4.320
27690W        W96084  20.173  36.975  13.542
27691W        W96085   3.195  35.964   0.314
27692W        W96086  14.569   4.813  14.974
27693W        W96087  33.608   8.167   3.646
27694W        W96088  17.488  30.940  10.575
27695W        W96089  34.315  21.566  13.497
27696W        W96090  31.718  28.209   4.244
27697W        W96091   2.778  29.512  13.298
27698W        W96092  27.057  39.287  14.283
27699W        W96093   2.416  40.550  14.096
27700W        W96094  31.157  15.229   0.427
27701W        W96095  41.018   7.270  12.055
27702W        W96096  27.080  28.896  13.884
27703W        W96097  27.516   2.256   2.371
27704W        W96098  14.596  27.631   1.162
27705W        W96099  10.638  21.565   2.373
27706W        W96100   9.013  20.627  10.605
27707W        W96101   5.306  44.839  13.274
27708W        W96102  19.742  25.022  13.393
27709W        W96103  14.048  18.767  14.775
27710W        W96104   5.329  16.770  10.534
27711W        W96105  16.284  22.426  10.272
27712W        W96106  15.606  26.914   3.250
27713W        W96107  20.919  16.844   2.703
27714W        W96108   4.376  40.883  12.529
27715W        W96109  38.852  43.488  12.143
27716W        W96110  32.748  34.831   2.824
27717W        W96111  40.903   6.291  12.159
27718W        W96112  32.495  10.303  13.337
27719W        W96113  34.005   4.748   3.061
27720W        W96114  43.391   1.950   1.770
27721W        W96115  27.783  18.865  11.103
27722W        W96116   0.722  34.295   0.005
27723W        W96117  27.419  24.763   2.763
27724W        W96118  41.045  41.227   2.412
27725W        W96119  28.705   2.542   2.733
27726W        W96120  16.817  14.214   0.444
27727W        W96121  28.338  21.370   3.261
27728W        W96122  41.975   5.216   3.912
27729W        W96123  40.583  27.358   1.259
27730W        W96124  32.870  15.179  12.485
27731W        W96125  28.746  20.322   2.409
27732W        W96126  23.154  23.260   0.515
27733W        W96127  37.494  11.884   0.436
27734W        W96128  11.706  17.770   4.727
27735W        W96129  25.921  37.843  13.913
27736W        W96130  42.432   0.090   2.925
27737W        W96131  16.784   8.160  10.753
27738W        W96132  19.269   5.607  14.457
27739W        W96133  42.613   0.368  12.002
27740W        W96134  20.701  36.489   1.003
27741W        W96135   7.299  41.397   3.614
27742W        W96136  22.794   6.032  13.034
27743W        W96137  40.080   2.963   2.233
27744W        W96138  14.261   6.919   3.204
27745W        W96139   5.868  29.822  11.334
27746W        W96140   5.216  27.005  13.945
27747W        W96141  12.363   4.757  13.065
27748W        W96142  30.014   5.187  14.767
27749W        W96143  29.389  15.012   0.079
27750W        W96144  18.159  36.385   1.446
27751W        W96145  13.583  35.066   1.493
27752W        W96146  11.654   5.695  14.319
27753W        W96147  16.226   8.132   3.781
27754W        W96148  34.367  21.325  13.941
27755W        W96149  30.363   1.957  12.876
27756W        W96150  15.153  20.992   2.391
27757W        W96151  18.593  22.331  14.237
27758W        W96152  13.569  15.887   5.017
27759W        W96153  28.230  41.277  14.968
27760W        W96154  37.150   7.703  10.674
27761W        W96155  42.528  17.345  14.420
27762W        W96156  15.126  10.945   2.699
27763W        W96157  41.939  41.759  13.019
27764W        W96158  17.228  28.029  11.515
27765W        W96159  12.140  38.240   4.662
27766W        W96160  25.606   9.251  13.871
27767W        W96161  29.538  10.409   4.014
27768W        W96162  42.716  37.102  13.355
27769W        W96163  23.505  33.185  13.753
27770W        W96164  20.458  38.838  12.507
27771W        W96165   8.903  31.055  13.156
27772W        W96166   2.824  11.793   0.968
27773W        W96167  17.707  25.455   0.025
27774W        W96168  32.992  32.627  12.922
27775W        W96169   2.434   2.073   4.152
27776W        W96170  42.873  25.003   3.933
27777W        W96171   3.153  19.779  12.519
27778W        W96172  22.265  38.364   1.335
27779W        W96173  29.634  11.695  11.621
27780W        W96174  13.377   8.178  10.657
27781W        W96175  27.583  26.209   0.485
27782W        W96176   4.687  27.138  11.695
27783W        W96177   9.381  12.497  10.568
27784W        W96178  18.569  12.395  12.586
27785W        W96179   3.695  17.967   0.615
27786W        W96180   7.339  37.703  12.527
27787W        W96181  16.983  13.235   3.243
27788W        W96182   5.354  36.642   0.074
27789W        W96183  42.830  39.232   4.877
27790W        W96184  13.546  43.035   3.769
27791W        W96185  23.643   8.149  11.067
27792W        W96186  22.282   1.386   0.551
27793W        W96187   4.340  32.594   1.163
27794W        W96188  32.368  14.310   3.462
27795W        W96189  17.658  38.037  12.084
27796W        W96190   1.367  39.876   2.464
27797W        W96191  37.434  10.246   3.106
27798W        W96192  28.508  16.419  13.597
27799W        W96193  13.801  42.405   4.887
27800W        W96194  43.606  30.555   1.456
27801W        W96195  27.143  23.421  13.553
27802W        W96196  38.079   5.199  14.892
27803W        W96197   3.043  38.291  11.059
27804W        W96198  12.271  18.213   0.944
27805W        W96199   8.677   4.927  10.658
27806W        W96200  34.939  15.133  13.197
27807W        W96201  28.353   5.405   0.744
27808W        W96202   3.752   8.238   0.360
27809W        W96203  29.166  32.566   3.938
27810W        W96204  12.471  22.261  11.081
27811W        W96205  16.070  16.561  10.502
27812W        W96206  34.711  18.575   4.861
27813W        W96207  20.503  34.794   0.277
27814W        W96208  20.454  11.237   3.257
27815W        W96209   2.318  32.441  13.131
27816W        W96210  20.130  14.514   4.321
27817W        W96211  44.333  18.581   4.716
27818W        W96212  11.738  26.985   3.201
27819W        W96213  22.525  27.488  13.000
27820W        W96214  10.218  21.033   3.238
27821W        W96215  38.465  24.153  13.339
27822W        W96216  25.100   0.437  11.199
27823W        W96217   2.769   9.371  12.290
27824W        W96218   9.662   2.789   4.578
27825W        W96219  44.890  23.999  14.992
27826W        W96220  16.356  37.112  10.672
27827W        W96221   9.146  13.230  11.137
27828W        W96222  12.814  20.126  13.721
27829W        W96223  13.195  26.853  11.962
27830W        W96224  31.550  31.882   3.900
27831W        W96225  12.484   6.439   5.402
27832W        W96226   2.417  42.992  14.943
27833W        W96227   2.376  30.589   0.824
27834W        W96228   3.923  27.829   2.750
27835W        W96229  15.142  41.586  13.783
27836W        W96230  31.440  38.539   2.890
27837W        W96231  29.603  34.282   0.317
27838W        W96232  35.103  24.690   2.890
27839W        W96233  33.006  34.832   3.627
27840W        W96234  43.295  36.900   1.030
27841W        W96235   9.427  26.750   2.165
27842W        W96236   8.380  17.604  11.975
27843W        W96237  35.544  25.009   2.840
27844W        W96238  22.988  18.626   4.352
27845W        W96239   1.966  16.009  10.716
27846W        W96240  18.677   7.214  10.056
27847W        W96241  24.807   6.689  11.079
27848W        W96242  33.430  18.372   0.109
27849W        W96243  38.973  17.013   2.914
27850W        W96244  39.399  33.258   3.697
27851W        W96245  13.108  38.889   4.287
27852W        W96246  28.077  33.625  11.115
27853W        W96247  34.584   5.270   0.264
27854W        W96248  44.188  33.996   1.274
27855W        W96249   4.860  38.911   1.651
27856W        W96250   0.901  16.073   4.099
27857W        W96251  30.492  38.636   2.649
27858W        W96252  29.360  38.554  11.198
27859W        W96253  42.372  35.939   1.584
27860W        W96254  11.352  23.493   0.855
27861W        W96255  23.878  23.336   3.660
27862W        W96256  15.694  38.782  14.062
27863W        W96257  21.993  41.390  12.008
27864W        W96258  30.552  43.773  12.159
27865W        W96259  11.542  28.015   3.594
27866W        W96260  12.165  19.771   0.863
27867W        W96261   6.164   4.124   2.729
27868W        W96262   2.824  29.932   0.848
27869W        W96263  33.302   2.640  11.936
27870W        W96264  44.438  37.606  12.267
27871W        W96265  23.256  11.226  12.045
27872W        W96266  29.442   5.393   1.402
27873W        W96267  25.969  12.648  12.480
27874W        W96268  33.181  30.554   1.704
27875W        W96269  18.408  24.288  13.296
27876W        W96270  11.780  13.249   2.206
27877W        W96271  30.003  26.931  13.433
27878W        W96272   1.683   9.318   2.421
27879W        W96273  14.281  23.268  12.559
27880W        W96274   2.862  16.022  12.470
27881W        W96275   8.961  22.591  12.869
27882W        W96276   2.435  18.155   1.933
27883W        W96277  32.162  18.196   1.695
27884W        W96278  19.773  32.521  11.256
27885W        W96279  31.828  15.144  11.545
27886W        W96280  24.076  32.974  13.618
27887W        W96281   6.711  29.891   3.305
27888W        W96282  23.627  18.213   0.801
27889W        W96283  12.896  15.600   4.930
27890W        W96284  42.091  35.013   4.227
27891W        W96285  42.971  24.764  12.506
27892W        W96286   1.767  13.973   5.531
27893W        W96287   0.706  17.746   5.018
27894W        W96288  38.025   4.772   2.985
27895W        W96289   3.159  30.592  13.084
27896W        W96290  19.025  30.849   4.249
27897W        W96291  24.194  26.036   1.113
27898W        W96292  15.844  32.849  14.440
27899W        W96293   1.914   5.946  10.760
27900W        W96294  28.972  30.618  13.505
27901W        W96295  41.295  10.209  14.748
27902W        W96296  13.115  12.783   1.895
27903W        W96297  12.674  24.593   0.449
27904W        W96298  36.328  42.593  13.561
27905W        W96299  44.710  44.749  11.564
27906W        W96300   3.914  40.902  11.518
27907W        W96301   7.768   1.743  11.203
27908W        W96302  17.065  44.784  13.116
27909W        W96303  38.481  17.693  11.765
27910W        W96304   4.325  34.042  11.455
27911W        W96305   5.702   9.799   1.851
27912W        W96306   6.277  11.393   2.409
27913W        W96307  34.004   9.310   4.821
27914W        W96308  32.541  25.156  13.467
27915W        W96309  40.405  24.135  13.864
27916W        W96310  34.920  13.924   1.804
27917W        W96311   2.828  15.264   3.661
27918W        W96312  18.172   6.948   5.070
27919W        W96313   7.467   6.867  12.912
27920W        W96314  13.331  35.801  14.989
27921W        W96315  16.538  12.776  12.202
27922W        W96316  16.837   7.299   0.901
27923W        W96317   4.415  39.394  12.121
27924W        W96318  26.897  25.033   5.103
27925W        W96319   0.816  30.377  14.504
27926W        W96320   1.709   3.995   4.485
27927W        W96321   7.555  15.681   0.181
27928W        W96322  17.750  26.583  10.213
27929W        W96323  33.148   3.262  12.547
27930W        W96324   0.500   8.809  13.529
27931W        W96325  42.942  20.315   2.679
27932W        W96326  13.354  27.023  11.495
27933W        W96327   6.390  15.305   2.823
27934W        W96328  25.544  36.767   1.842
27935W        W96329  28.861  29.680   4.664
27936W        W96330   1.753  22.433   4.302
27937W        W96331  41.521   4.738  11.532
27938W        W96332  27.216  24.668  11.171
27939W        W96333   3.537  43.878   4.943
27940W        W96334   5.869  10.637   2.329
27941W        W96335  16.350  35.467   4.988
27942W        W96336  33.799  21.554  13.401
27943W        W96337  39.309   7.370   1.796
27944W        W96338   5.952  16.345  13.411
27945W        W96339  20.951   4.585   4.609
27946W        W96340  15.702  24.505  11.726
27947W        W96341  20.923  31.789  12.485
27948W        W96342  15.576  33.969   1.917
27949W        W96343  17.672  44.759   4.115
27950W        W96344   0.743  28.858   0.334
27951W        W96345  14.109  15.584  10.471
27952W        W96346   0.486  31.720   0.434
27953W        W96347   2.862  41.224  11.472
27954W        W96348  10.184  34.676  11.312
27955W        W96349  17.514  43.271  12.576
27956W        W96350   5.148  27.733  12.961
27957W        W96351  15.936   6.022   3.458
27958W        W96352  34.108  25.522   3.363
27959W        W96353  44.818   2.499  14.807
27960W        W96354  37.070  21.244  13.517
27961W        W96355  27.222  17.286  12.012
27962W        W96356  27.355   8.654   2.910
27963W        W96357  43.904   3.905   2.619
27964W        W96358  15.835  21.113  12.014
27965W        W96359  12.797  23.095  13.899
27966W        W96360  19.295  36.495  12.575
27967W        W96361  22.943   3.287   2.351
27968W        W96362   3.295  28.847  11.659
27969W        W96363  28.689  22.118   0.890
27970W        W96364  43.226  14.619  14.795
27971W        W96365  20.327   1.833  11.482
27972W        W96366   7.292  40.303   0.049
27973W        W96367  27.349  39.461   2.757
27974W        W96368  37.938  28.397  13.737
27975W        W96369  24.184  40.755  10.837
27976W        W96370  14.829  10.192  12.815
27977W        W96371   3.085  28.099  14.279
27978W        W96372   8.453  12.194  13.366
27979W        W96373  37.641   7.870  10.848
27980W        W96374  43.364  36.618  14.556
27981W        W96375   3.473  31.601   1.584
27982W        W96376  19.430  12.562  11.648
27983W        W96377  37.557  35.375  14.573
27984W        W96378  19.371  35.426   1.212
27985W        W96379  17.588  33.874  12.863
27986W        W96380  34.045   1.489   0.003
27987W        W96381   1.574  32.117   5.025
27988W        W96382  29.200  21.090  12.998
27989W        W96383  29.890  28.502  12.071
27990W        W96384  31.076  25.278  10.818
27991W        W96385  21.849  42.767   1.746
27992W        W96386  38.112  10.370  12.044
27993W        W96387  25.143  33.363  11.969
27994W        W96388   2.397  16.170   3.391
27995W        W96389  34.881  26.191  11.604
27996W        W96390  13.345  35.042  11.021
27997W        W96391  27.441   7.126  11.734
27998W        W96392  36.586  23.954  13.121
27999W        W96393  33.435  36.505  13.137
28000W        W96394  30.470  34.639   4.619
28001W        W96395  29.016  21.408  11.406
28002W        W96396  44.521  20.795  14.412
28003W        W96397   5.808  19.270   3.778
28004W        W96398  18.559   9.215  12.586
28005W        W96399  21.169   9.994   3.079
28006W        W96400  29.900   3.356   3.751
28007W        W96401  34.447  29.178   3.735
28008W        W96402  12.264  27.580  14.979
28009W        W96403  29.587  34.370  10.088
28010W        W96404  22.947  10.349  11.893
28011W        W96405  32.437  10.109  11.844
28012W        W96406   6.315  35.522  12.766
28013W        W96407  22.261  22.524   2.137
28014W        W96408  20.678  11.686   3.087
28015W        W96409  26.499   5.908  14.364
28016W        W96410   5.907  19.934   2.320
28017W        W96411  32.582  40.065   1.721
28018W        W96412  42.304  42.508  11.009
28019W        W96413   7.082  43.192   4.663
28020W        W96414  44.787  21.054  10.597
28021W        W96415  17.524  37.572   2.326
28022W        W96416  19.253  36.268   4.954
28023W        W96417  42.099  34.498  13.318
28024W        W96418   5.811  44.576   0.759
28025W        W96419  17.093  23.723   3.378
28026W        W96420  13.269  13.712  14.434
28027W        W96421  15.641  17.726  11.673
28028W        W96422  44.408  23.030   4.100
28029W        W96423  17.515   4.817  12.919
28030W        W96424  43.576  25.507   4.135
28031W        W96425  16.323  43.032  10.736
28032W        W96426  31.630   2.158  13.354
28033W        W96427  27.093  25.933  14.745
28034W        W96428   2.727   4.498   3.685
28035W        W96429  16.763  43.997  14.534
28036W        W96430  29.008  23.045  10.765
28037W        W96431  40.969  27.668  13.624
28038W        W96432  18.914  26.586  13.692
28039W        W96433  33.607  20.114  11.959
28040W        W96434  18.051  39.148   0.311
28041W        W96435  39.873  36.425  12.451
28042W        W96436   2.136  22.963   2.026
28043W        W96437  26.031  25.454  12.822
28044W        W96438   2.400   3.286   1.435
28045W        W96439  30.224   4.440  12.444
28046W        W96440  26.949  19.757  13.734
28047W        W96441  20.934  20.216   1.870
28048W        W96442  25.152  25.715   3.688
28049W        W96443  31.829  19.997   3.247
28050W        W96444   0.165  32.661   3.423
28051W        W96445  33.852  21.018  11.038
28052W        W96446   8.454  18.997   0.736
28053W        W96447  13.813  35.977  14.914
28054W        W96448  37.406   0.057  14.008
28055W        W96449  35.153  31.544   3.710
28056W        W96450  11.617  10.874  11.568
28057W        W96451  28.501  17.143  10.609
28058W        W96452  30.722  23.017  11.215
28059W        W96453  30.523  44.335  13.778
28060W        W96454  16.176  11.579   0.032
28061W        W96455  39.336  28.464   4.265
28062W        W96456  16.568  16.592  14.511
28063W        W96457   6.449  34.693   2.247
28064W        W96458  14.010  23.216  14.797
28065W        W96459  41.361  30.347   0.797
28066W        W96460  10.454   1.326  14.119
28067W        W96461  13.640   7.695  14.049
28068W        W96462  32.443  36.111  11.027
28069W        W96463  32.380  20.630   3.267
28070W        W96464  44.297  26.337  14.861
28071W        W96465  26.564  30.101   2.326
28072W        W96466   6.377  43.452   2.119
28073W        W96467  18.233  17.699  13.915
28074W        W96468  34.513  17.110   4.418
28075W        W96469  39.909  39.891   5.110
28076W        W96470  33.766  33.993  12.813
28077W        W96471  31.243  11.137   4.635
28078W        W96472  41.283  40.971   4.718
28079W        W96473  28.551  42.844   3.232
28080W        W96474   0.292  23.122   2.138
28081W        W96475  25.889  43.980   2.214
28082W        W96476  33.597  23.023   0.925
28083W        W96477   7.907  10.664  10.490
28084W        W96478  26.494  31.404  12.943
28085W        W96479  43.814  16.829   4.563
28086W        W96480  10.934  28.000  13.630
28087W        W96481  20.630  27.968  12.063
28088W        W96482  30.408  38.557  13.021
28089W        W96483   6.098  42.023   3.900
28090W        W96484   4.009  43.844  11.403
28091W        W96485   2.864  29.469  14.964
28092W        W96486  30.393  25.180   0.888
28093W        W96487  21.546   0.631   2.377
28094W        W96488   5.679  14.228  14.507
28095W        W96489  42.589  35.992  10.261
28096W        W96490  18.143   1.111   4.040
28097W        W96491  15.568  33.120   3.193
28098W        W96492  26.286  26.142   3.437
28099W        W96493  10.299   4.204   1.342
28100W        W96494  37.381  15.781  12.037
28101W        W96495   3.260  10.799   3.381
28102W        W96496   0.436  24.513   0.087
28103W        W96497  21.044  31.030  13.087
28104W        W96498  18.281  24.173  14.800
28105W        W96499  44.473  44.362   1.692
28106W        W96500  35.823   0.740   3.660
28107W        W96501  22.790   9.075  13.691
28108W        W96502  40.423  11.331   4.373
28109W        W96503  22.437  19.449   2.209
28110W        W96504  13.673  15.629   2.749
28111W        W96505  10.738  36.476  11.590
28112W        W96506  21.684  37.800  10.978
28113W        W96507  18.513  11.439  14.044
28114W        W96508  23.331  24.451   2.817
28115W        W96509  26.821  25.122   4.613
28116W        W96510  23.024  31.001   3.296
28117W        W96511   8.858   2.508  12.941
28118W        W96512  31.197   9.120   1.301
28119W        W96513  24.466   2.783  13.456
28120W        W96514  27.991  27.671  12.152
28121W        W96515   6.861   4.653   3.981
28122W        W96516  21.596   6.125   1.437
28123W        W96517  29.438  41.016   3.319
28124W        W96518  21.058   3.883   3.666
28125W        W96519  35.332  23.105   1.386
28126W        W96520  22.276  40.063   0.407
28127W        W96521  24.938  34.181   1.425
28128W        W96522  38.151   4.459   1.967
28129W        W96523   2.348  20.253   0.468
28130W        W96524   8.990  23.555   4.987
28131W        W96525  31.083  43.794  12.479
28132W        W96526  24.052  20.185  11.119
28133W        W96527   1.451  43.332   3.160
28134W        W96528  43.435  11.799  10.637
28135W        W96529  19.623   2.429  14.364
28136W        W96530  42.097   1.414  10.945
28137W        W96531  17.818  34.945   0.317
28138W        W96532  43.352  15.433   1.385
28139W        W96533  34.089  30.665  10.572
28140W        W96534  10.138  25.598  14.834
28141W        W96535   4.419  26.171   5.127
28142W        W96536   6.980  34.010   0.513
28143W        W96537  25.720  41.009   0.662
28144W        W96538  42.516   6.183  10.679
28145W        W96539  23.630   4.639   1.833
28146W        W96540   4.820  40.324   4.606
28147W        W96541  26.578  40.376   2.719
28148W        W96542  24.989  18.571   0.288
28149W        W96543  10.656  42.713   0.542
28150W        W96544  44.829  22.485   1.046
28151W        W96545   2.686  17.656  12.230
28152W        W96546   9.252  29.742   2.503
28153W        W96547  15.216  16.540  13.037
28154W        W96548  37.375  36.417  12.519
28155W        W96549  24.957  24.734  12.476
28156W        W96550  24.924  11.033   2.121
28157W        W96551  40.273  35.420  14.356
28158W        W96552  43.196  28.948  10.203
28159W        W96553  40.338  23.443   1.830
28160W        W96554  27.431  16.571  12.999
28161W        W96555   8.838   6.949  11.679
28162W        W96556  22.972   0.924  14.041
28163W        W96557  31.345   7.655   3.320
28164W        W96558  40.261  38.341   3.728
28165W        W96559   2.341  22.695   3.757
28166W        W96560  24.991  38.296  13.844
28167W        W96561  31.037  10.466   0.966
28168W        W96562   8.849   4.293   3.926
28169W        W96563   8.824   5.484   1.330
28170W        W96564  20.077  37.461  14.828
28171W        W96565  43.349  30.988   0.285
28172W        W96566  20.714  10.788  12.378
28173W        W96567   6.280  34.312  11.474
28174W        W96568  28.698  21.426   1.475
28175W        W96569  15.874  36.816  11.470
28176W        W96570  24.549  28.133   4.723
28177W        W96571   4.818  17.463   0.465
28178W        W96572  27.652  17.539  13.034
28179W        W96573   8.211   9.178  10.649
28180W        W96574  26.990  10.256   0.264
28181W        W96575  12.124   9.907  11.031
28182W        W96576  13.676  22.206   0.900
28183W        W96577   0.462  44.128  11.651
28184W        W96578  31.141  15.642   1.809
28185W        W96579  11.423  39.387   1.223
28186W        W96580   6.235   8.362   2.718
28187W        W96581   3.337   2.254   4.156
28188W        W96582   0.773  13.230   2.249
28189W        W96583  16.598  39.958   0.326
28190W        W96584   1.271   2.386   3.690
28191W        W96585   6.045  32.153  11.545
28192W        W96586   4.492   0.813   3.312
28193W        W96587   0.834   7.509  14.451
28194W        W96588  34.891  44.926  14.924
28195W        W96589   2.835  33.845   0.844
28196W        W96590   1.938  24.027   0.328
28197W        W96591   9.376  15.600  14.422
28198W        W96592  37.847   7.649   3.112
28199W        W96593  38.226  28.363   4.257
28200W        W96594  34.686  13.591  14.948
28201W        W96595   1.788  41.700   0.022
28202W        W96596  20.246  40.374  12.982
28203W        W96597  14.936   4.492   2.660
28204W        W96598   9.676  44.359   0.314
28205W        W96599  22.980  24.014  11.019
28206W        W96600  12.048  12.366  14.786
28207W        W96601  40.636   6.943   2.904
28208W        W96602  11.624   5.701   3.561
28209W        W96603  16.863  33.561   0.665
28210W        W96604  39.984  20.548  11.688
28211W        W96605   4.774  23.511  10.203
28212W        W96606  21.197  26.903   0.320
28213W        W96607  42.845  31.113  14.750
28214W        W96608  12.111  12.252  13.833
28215W        W96609  25.532  26.887   0.794
28216W        W96610  37.018  25.452   2.278
28217W        W96611  25.231  42.639   3.782
28218W        W96612  32.793  39.812  12.483
28219W        W96613   7.145  35.630  13.096
28220W        W96614   3.269   4.281  11.711
28221W        W96615   2.379  23.415   2.170
28222W        W96616   9.398  39.100  14.919
28223W        W96617  19.383  32.456  11.638
28224W        W96618   2.980  27.532  11.924
28225W        W96619  28.184  28.912   3.279
28226W        W96620   8.692  29.376   1.819
28227W        W96621   1.018  19.192  12.073
28228W        W96622  23.709  40.865  11.719
28229W        W96623  10.815  28.292   4.061
28230W        W96624  24.698  29.440   0.816
28231W        W96625  44.664  32.058   3.211
28232W        W96626  14.215  44.739   0.719
28233W        W96627  36.879  23.950  14.268
28234W        W96628  36.636  18.545  14.440
28235W        W96629  29.061  28.604   1.448
28236W        W96630   4.330  28.343  13.890
28237W        W96631  31.376  31.592   1.461
28238W        W96632   1.312  18.908  13.871
28239W        W96633  29.703   7.817  11.328
28240W        W96634  22.750  32.707  10.654
28241W        W96635  40.783   3.034  13.897
28242W        W96636   4.172  24.581   0.918
28243W        W96637  14.677  29.019  10.542
28244W        W96638  20.708  13.162  11.586
28245W        W96639  37.511  26.445  14.018
28246W        W96640   1.003  20.126   3.275
28247W        W96641   9.269   7.216   4.441
28248W        W96642  22.800  37.956  13.785
28249W        W96643  22.953  19.769  11.547
28250W        W96644  34.918  14.214  14.234
28251W        W96645  44.266  31.740   3.170
28252W        W96646   0.442  34.052   4.596
28253W        W96647   9.676  10.268  14.950
28254W        W96648   4.286  34.404   2.737
28255W        W96649  39.966  36.993  10.982
28256W        W96650  42.713  25.096  14.340
28257W        W96651   6.895  33.638  10.642
28258W        W96652   0.008   7.294   0.073
28259W        W96653  40.131  36.524  14.326
28260W        W96654  22.714  21.239  14.780
28261W        W96655  34.319  24.204   2.552
28262W        W96656  17.724  35.404  14.510
28263W        W96657  35.934   6.087  14.277
28264W        W96658  40.623  10.560   2.268
28265W        W96659  24.598  25.653  13.443
28266W        W96660  14.707  29.812   2.279
28267W        W96661   1.847  34.082  13.468
28268W        W96662  37.541  18.556  11.650
28269W        W96663  16.802  36.099   0.659
28270W        W96664   7.632  21.654   3.261
28271W        W96665  44.919  18.659   0.629
28272W        W96666  30.294   2.813  13.976
28273W        W96667  42.929  34.410   2.668
28274W        W96668  11.815  39.464  12.310
28275W        W96669  21.073  43.266   3.302
28276W        W96670  44.458  15.432  12.085
28277W        W96671  26.018  30.056  13.904
28278W        W96672   2.345   5.248  11.958
28279W        W96673  15.256  30.852  13.397
28280W        W96674  22.918  16.938   3.701
28281W        W96675  19.369   5.681   0.338
28282W        W96676   3.401  24.126   1.675
28283W        W96677  44.252  21.236  14.414
28284W        W96678  14.075  32.347  14.828
28285W        W96679  10.765  23.941  14.287
28286W        W96680   5.952  11.744   1.202
28287W        W96681  32.396  17.313  11.500
28288W        W96682   0.991  36.168  14.481
28289W        W96683  24.480  15.146   3.732
28290W        W96684  33.094  29.982  12.462
28291W        W96685  39.899  26.752  13.786
28292W        W96686  18.257  33.388  10.645
28293W        W96687  12.908  26.474  14.780
28294W        W96688  29.401  25.117   1.985
28295W        W96689  31.988  28.972  12.055
28296W        W96690  12.890  26.426  11.995
28297W        W96691  32.075  21.694  14.152
28298W        W96692  43.733   9.779   0.319
28299W        W96693   6.814  30.652   2.853
28300W        W96694   9.350  35.542   1.850
28301W        W96695  27.911  17.202   2.527
28302W        W96696  37.683   3.534   3.249
28303W        W96697   0.566  25.951  11.192
28304W        W96698  38.136  36.859   0.986
28305W        W96699   8.913  13.670  11.984
28306W        W96700   6.655  22.197   1.844
28307W        W96701  19.199  16.390   4.579
28308W        W96702  36.018  24.604  11.570
28309W        W96703  19.564  14.748  10.913
28310W        W96704  22.291  10.817  11.578
28311W        W96705  26.684   3.711  14.090
28312W        W96706  21.104  29.561  13.002
28313W        W96707  39.501   6.842  11.147
28314W        W96708  32.464  23.566  12.792
28315W        W96709  36.106  27.966   4.054
28316W        W96710  36.414  31.919  11.552
28317W        W96711  26.727  12.782  12.052
28318W        W96712  41.812  38.339   0.804
28319W        W96713  16.765  40.812  14.867
28320W        W96714  31.831  25.297   1.647
28321W        W96715  43.714  15.204  13.394
28322W        W96716   5.177  28.202   1.104
28323W        W96717  13.788  42.242  13.569
28324W        W96718  10.187  44.341   2.606
28325W        W96719  10.045  14.256   0.956
28326W        W96720  14.221   1.780   2.707
28327W        W96721  33.092  37.034   0.531
28328W        W96722  11.590   6.660  12.944
28329W        W96723   7.255  28.090   4.575
28330W        W96724   0.447  10.667   2.005
28331W        W96725  21.004  10.338   0.878
28332W        W96726   7.825  19.762  13.244
28333W        W96727  25.560  31.974   2.228
28334W        W96728  14.986  35.309  13.054
28335W        W96729  41.386   3.637   3.250
28336W        W96730  36.855  41.990   4.718
28337W        W96731  36.878  14.100   3.536
28338W        W96732  28.487  33.912   1.208
28339W        W96733  21.488  12.737   2.157
28340W        W96734  13.204  32.037   4.640
28341W        W96735  41.926  31.678  11.635
28342W        W96736   3.962  24.698  13.971
28343W        W96737  30.581  12.110   2.796
28344W        W96738  34.233  11.186  13.448
28345W        W96739  40.535  21.005  10.340
28346W        W96740   0.997  37.135   2.177
28347W        W96741   6.192  15.231  14.293
28348W        W96742  14.306  41.912   5.167
28349W        W96743  39.371  25.958   3.511
28350W        W96744  19.058  43.877   4.824
28351W        W96745  43.149   4.238  12.057
28352W        W96746   1.355  21.746   3.132
28353W        W96747  20.464  24.241   4.170
28354W        W96748   1.416   2.927   3.718
28355W        W96749  41.053  31.566  11.081
28356W        W96750   4.543   0.509  10.467
28357W        W96751   9.128  34.374  12.673
28358W        W96752  32.441  40.241   1.200
28359W        W96753  38.991  39.306   1.862
28360W        W96754  28.898  28.650   0.385
28361W        W96755  20.477  32.471   1.782
28362W        W96756  33.078  17.311  14.457
28363W        W96757  10.543  18.204  13.863
28364W        W96758   5.058  13.795  11.897
28365W        W96759  11.516  40.013   4.457
28366W        W96760  18.648   7.040   1.930
28367W        W96761  31.956   7.750   4.156
28368W        W96762  12.353   5.459  10.541
28369W        W96763  14.733  44.679  12.196
28370W        W96764  15.619  35.257  10.109
28371W        W96765   0.304  15.821   0.486
28372W        W96766  39.755  30.038  13.917
28373W        W96767   9.497  27.472   2.741
28374W        W96768  10.880  31.518   3.154
28375W        W96769  43.717   8.042   3.338
28376W        W96770  31.343  16.121   3.300
28377W        W96771  27.512   9.407  14.871
28378W        W96772  10.430  27.020  13.974
28379W        W96773  19.745  20.785  14.205
28380W        W96774  37.999  17.030   0.916
28381W        W96775  25.663  12.719  14.967
28382W        W96776  34.200  23.178  11.667
28383W        W96777   3.168  24.599   3.708
28384W        W96778   5.657  22.091  13.952
28385W        W96779  25.506  29.634  12.613
28386W        W96780  33.390   5.898   0.394
28387W        W96781  27.714  14.128   3.787
28388W        W96782   1.809   9.644   1.772
28389W        W96783   9.209  30.476  12.685
28390W        W96784  28.969  39.395   0.848
28391W        W96785   1.394   6.542   3.553
28392W        W96786  37.310   9.606  10.855
28393W        W96787  23.799   3.673  13.008
28394W        W96788  40.034  43.918  12.483
28395W        W96789  33.009  34.164  12.145
28396W        W96790   8.737  10.994  14.433
28397W        W96791  30.135  36.462  14.720
28398W        W96792  12.192  12.698  13.598
28399W        W96793  26.144  19.490  14.370
28400W        W96794  23.136  38.232  11.987
28401W        W96795   9.888   8.872  14.820
28402W        W96796  37.878  35.359   2.638
28403W        W96797  25.422  11.219   1.458
28404W        W96798  32.425  27.500   3.076
28405W        W96799  30.160   9.441  12.039
28406W        W96800   0.378  10.648   0.438
28407W        W96801  23.091  32.580   1.030
28408W        W96802  41.632  27.254   1.236
28409W        W96803  19.508  23.431  11.396
28410W        W96804  26.585  26.889   0.992
28411W        W96805  32.488   5.997   0.307
28412W        W96806  43.372   8.346   1.191
28413W        W96807  16.361  15.136   1.626
28414W        W96808  40.425  11.483   3.869
28415W        W96809  17.088   2.875  10.723
28416W        W96810  36.908  21.728  13.402
28417W        W96811  34.697  34.379  10.926
28418W        W96812   9.128   1.082   4.225
28419W        W96813   1.959   7.012  14.072
28420W        W96814  37.396   0.249   4.752
28421W        W96815  43.057   7.398   2.661
28422W        W96816  43.917  10.368   1.691
28423W        W96817  17.615   2.465   0.458
28424W        W96818   7.093  44.504  10.871
28425W        W96819  21.478   8.783   4.393
28426W        W96820  38.798  30.001  10.309
28427W        W96821  33.371  10.284   3.678
28428W        W96822  38.356  34.001   0.511
28429W        W96823  33.879   1.767   3.012
28430W        W96824  31.827  19.560   4.198
28431W        W96825  12.890  13.790  13.057
28432W        W96826   0.925  16.728  13.001
28433W        W96827  36.824  19.738   2.268
28434W        W96828  38.387  18.430   1.591
28435W        W96829  36.566  15.565  13.321
28436W        W96830  12.124  44.967   0.920
28437W        W96831  11.799  22.733  12.250
28438W        W96832  29.939  24.619   4.623
28439W        W96833  36.244  17.358   4.930
28440W        W96834  15.117  28.095  13.342
28441W        W96835   0.121  17.680   3.240
28442W        W96836  16.519  40.041   3.296
28443W        W96837   3.367  13.445   2.652
28444W        W96838  19.274  38.264   3.247
28445W        W96839  34.085  27.289   4.494
28446W        W96840  27.054  33.515   1.802
28447W        W96841  24.639  13.715   2.724
28448W        W96842  19.571  23.485  13.935
28449W        W96843  28.980  31.926   0.398
28450W        W96844  27.579  13.451   2.851
28451W        W96845   3.491   5.770  12.922
28452W        W96846   3.183  40.565   1.503
28453W        W96847  32.940   6.159  11.462
28454W        W96848  21.279  41.343   4.196
28455W        W96849   4.748   8.891   0.043
28456W        W96850  42.775   4.316  11.709
28457W        W96851  13.197  32.554   1.305
28458W        W96852  10.569  34.024  13.831
28459W        W96853  24.639  43.926   1.297
28460W        W96854  24.628  11.925   1.783
28461W        W96855  16.613  38.761  13.909
28462W        W96856  38.139  41.464  11.500
28463W        W96857   7.727  43.959   4.145
28464W        W96858  27.643  42.846   2.820
28465W        W96859  44.521  28.671  11.110
28466W        W96860  20.189  23.103   0.031
28467W        W96861  21.227  19.725   1.806
28468W        W96862  17.427  37.812  11.626
28469W        W96863  40.815   7.766   0.254
28470W        W96864  13.137  43.502   2.536
28471W        W96865  37.386  17.989  13.109
28472W        W96866  33.309  22.120   0.276
28473W        W96867  11.248   5.774  11.362
28474W        W96868  17.284  35.804  11.603
28475W        W96869   6.142  22.359  12.454
28476W        W96870  25.926  20.526   1.234
28477W        W96871  39.934  39.345  10.599
28478W        W96872  36.506  41.515   3.282
28479W        W96873  20.869  38.844  10.758
28480W        W96874  26.762  15.180   3.739
28481W        W96875  32.435  33.492   2.332
28482W        W96876   1.897   8.673   3.945
28483W        W96877  43.238  13.290  12.896
28484W        W96878   6.279   1.813   4.624
28485W        W96879   3.369   1.348  13.089
28486W        W96880  34.308  14.873  13.006
28487W        W96881  27.676  35.413   0.872
28488W        W96882  10.792   3.114   0.418
28489W        W96883   5.626   2.183   5.039
28490W        W96884   1.937  32.553  14.909
28491W        W96885  28.756  31.649  10.700
28492W        W96886  28.708  19.651  13.909
28493W        W96887   3.694  24.730   3.089
28494W        W96888  41.606  33.012  13.015
28495W        W96889  23.225  40.001   4.222
28496W        W96890   6.192  12.614  14.618
28497W        W96891  21.806  41.510  11.465
28498W        W96892  37.102  17.608  11.488
28499W        W96893  42.804  15.648  14.349
28500W        W96894   5.867  27.977  13.176
28501W        W96895   7.184  23.369  13.967
28502W        W96896  38.722  23.590  14.487
28503W        W96897  39.813  23.732   0.355
28504W        W96898  20.668  29.756   3.801
28505W        W96899  23.482  29.943   3.238
28506W        W96900  30.187  31.037  14.903
28507W        W96901   6.682  28.677   0.753
28508W        W96902   6.945  43.902  13.338
28509W        W96903   2.183   9.935  11.625
28510W        W96904  15.805   4.254  14.740
28511W        W96905  42.551  44.798   3.338
28512W        W96906  27.741   4.899  13.297
28513W        W96907  33.464  40.509  12.748
28514W        W96908  33.782  20.478   0.943
28515W        W96909  19.499  38.339   1.842
28516W        W96910  36.407  36.514  14.898
28517W        W96911   4.208   8.380   2.673
28518W        W96912   0.961  14.745  14.483
28519W        W96913  33.141  31.530  10.806
28520W        W96914   8.776  17.814  12.574
28521W        W96915  16.369   8.212   0.820
28522W        W96916  38.290  35.664   2.805
28523W        W96917  16.101  41.003  11.018
28524W        W96918  30.636  27.184  14.276
28525W        W96919   6.342  39.020   2.815
28526W        W96920  41.795  34.494   3.618
28527W        W96921  38.197  32.083  12.374
28528W        W96922  42.985  34.663  11.510
28529W        W96923   2.945  14.662  14.400
28530W        W96924  20.075   2.164  12.225
28531W        W96925  44.046  30.302  12.440
28532W        W96926  18.264  17.231   3.189
28533W        W96927  29.212   3.829  11.664
28534W        W96928  12.932   3.771  12.570
28535W        W96929  28.039  21.012   2.442
28536W        W96930  37.036  23.282   3.152
28537W        W96931  43.987  33.151   4.514
28538W        W96932   6.185  34.364  14.288
28539W        W96933  13.645   0.942   0.265
28540W        W96934  10.020  43.860   4.031
28541W        W96935  10.317  16.552   1.322
28542W        W96936  27.744  44.600  13.710
28543W        W96937  20.040  38.578  11.237
28544W        W96938  36.049  40.181   4.059
28545W        W96939  41.178  31.536   4.784
28546W        W96940  35.000   8.801   0.927
28547W        W96941   2.944  30.215   0.386
28548W        W96942  25.325   7.703  10.709
28549W        W96943  27.870  17.429   1.641
28550W        W96944  30.151   8.849   3.788
28551W        W96945  24.224  30.189  10.601
28552W        W96946  43.937  38.739  14.818
28553W        W96947  10.773  42.354   2.358
28554W        W96948   6.149  13.702  13.350
28555W        W96949  20.618  23.933  12.981
28556W        W96950  11.827  44.210   0.895
28557W        W96951  37.986  22.069   0.465
28558W        W96952  12.420  23.158  12.076
28559W        W96953   9.837  10.348   1.426
28560W        W96954  25.769  10.654  12.875
28561W        W96955   3.146   5.783  10.911
28562W        W96956  10.179  28.578   4.355
28563W        W96957  28.052  36.242   4.231
28564W        W96958  41.414  37.653   4.065
28565W        W96959  13.071  11.583   1.844
28566W        W96960  14.499  12.198   2.757
28567W        W96961  26.871  14.904  12.679
28568W        W96962  44.271  39.727   1.296
28569W        W96963  10.629  10.358  13.576
28570W        W96964  26.409  41.224  14.236
28571W        W96965   2.800  37.112  12.928
28572W        W96966  11.638  10.093   1.900
28573W        W96967  38.956  35.909   3.061
28574W        W96968  21.187  16.853  11.337
28575W        W96969  27.110   2.529  10.294
28576W        W96970   3.387  39.371   4.528
28577W        W96971   6.360  30.331  14.427
28578W        W96972  35.005   8.781   3.162
28579W        W96973  43.235  19.782   3.346
28580W        W96974  11.595  44.918  12.813
28581W        W96975  29.996  44.359   0.261
28582W        W96976   8.926   6.312  11.099
28583W        W96977  32.369  32.485   1.420
28584W        W96978  11.325   7.979   4.048
28585W        W96979  15.124  24.189   2.587
28586W        W96980  17.626  14.564   0.033
28587W        W96981  44.665  36.429  14.935
28588W        W96982  41.378   6.253   2.742
28589W        W96983  33.856  13.226   2.698
28590W        W96984  42.545  27.851   1.729
28591W        W96985   9.842   4.188   1.920
28592W        W96986  43.742  15.801   2.777
28593W        W96987  22.418   6.851  11.594
28594W        W96988  37.242   8.348  11.922
28595W        W96989  19.084  18.630  11.874
28596W        W96990   4.592  14.267   4.195
28597W        W96991  40.605  18.689  13.469
28598W        W96992   1.659  23.591   0.329
28599W        W96993  31.187  38.591  14.078
28600W        W96994  15.763  17.410   5.520
28601W        W96995  25.169  23.484   1.619
28602W        W96996  20.508  15.557  11.005
28603W        W96997  24.728  18.867  11.507
28604W        W96998  35.569  38.814  13.953
28605W        W96999  33.056  13.765  12.926
28606W        W97000  38.000  15.282   3.592
28607W        W97001  20.153  39.429  12.046
28608W        W97002  38.027  33.618   3.317
28609W        W97003  43.889  34.019  11.148
28610W        W97004  17.749  39.141  14.803
28611W        W97005   4.199   4.026  13.321
28612W        W97006  42.113  41.052  11.664
28613W        W97007  36.701  22.115  13.166
28614W        W97008  28.122   8.191  14.891
28615W        W97009  39.771   5.991  12.542
28616W        W97010  19.109   5.254   3.074
28617W        W97011  30.202   4.154   5.088
28618W        W97012  24.467  17.343   4.121
28619W        W97013   7.749  14.373  11.168
28620W        W97014   6.163  10.437   3.563
28621W        W97015  39.524  11.162  12.984
28622W        W97016  30.629  31.136   4.168
28623W        W97017   0.238  44.222   2.859
28624W        W97018  11.172  18.759   1.833
28625W        W97019  17.802  40.832  11.208
28626W        W97020  36.606  43.318  12.466
28627W        W97021  13.563  36.826  12.264
28628W        W97022  12.390  23.281   3.902
28629W        W97023  30.203  35.910  13.865
28630W        W97024  40.052   9.339   0.953
28631W        W97025   2.154   5.248  14.375
28632W        W97026  26.436  30.818   5.087
28633W        W97027  13.472  36.026  14.465
28634W        W97028  22.129  32.306   5.153
28635W        W97029  10.905  34.078  11.865
28636W        W97030  31.502  30.673   2.392
28637W        W97031   3.035  27.547  14.342
28638W        W97032  32.627  24.781   1.360
28639W        W97033  34.456  19.365   1.643
28640W        W97034  19.988  35.400  12.639
28641W        W97035  43.046  23.170   2.782
28642W        W97036  42.813  30.746  12.484
28643W        W97037  16.635  17.676  14.976
28644W        W97038  41.800  25.889   2.309
28645W        W97039  14.305  17.213   1.699
28646W        W97040  17.636  30.698  12.618
28647W        W97041  38.475  44.953  14.342
28648W        W97042  25.826  11.819  10.207
28649W        W97043  15.843   7.474   1.000
28650W        W97044  26.659  12.451   3.258
28651W        W97045  23.668  34.508   4.870
28652W        W97046  40.052  32.079   4.618
28653W        W97047  37.838   2.355  11.884
28654W        W97048  12.539  14.774   0.474
28655W        W97049  42.449   0.602   2.872
28656W        W97050  20.038  28.713  12.075
28657W        W97051  34.099   5.890   3.223
28658W        W97052   8.265   4.797   0.209
28659W        W97053   4.942  29.482  14.175
28660W        W97054  24.864   1.811  11.065
28661W        W97055  40.803  28.585   4.296
28662W        W97056  11.036  22.556  13.933
28663W        W97057  23.766  29.342   4.200
28664W        W97058  12.428  17.142   0.785
28665W        W97059  30.892   8.199  13.425
28666W        W97060  20.712  37.432   4.491
28667W        W97061   6.479  35.046   3.287
28668W        W97062  22.366  29.468   2.177
28669W        W97063  36.161  37.864  14.383
28670W        W97064  20.591  40.934  10.441
28671W        W97065  36.375  36.686  12.581
28672W        W97066  34.763   8.139  11.625
28673W        W97067  23.988   8.105  13.840
28674W        W97068  28.162  34.961   3.919
28675W        W97069  11.989  33.007   2.285
28676W        W97070  43.853  27.698  14.211
28677W        W97071  19.133  32.643   4.387
28678W        W97072  42.828  39.916   3.724
28679W        W97073  38.373   7.186  14.389
28680W        W97074  13.843   3.145  14.726
28681W        W97075  10.134  31.757  11.628
28682W        W97076  38.179  43.005   3.675
28683W        W97077  10.096   3.052  13.356
28684W        W97078  31.546   5.338   2.701
28685W        W97079   7.586  27.695  14.868
28686W        W97080  35.806  42.925   4.780
28687W        W97081  39.933  20.061  13.018
28688W        W97082  15.019  36.323  11.889
28689W        W97083  26.321  17.391  11.956
28690W        W97084  39.393  23.772  13.508
28691W        W97085  43.980  40.564   0.303
28692W        W97086  40.216  18.611   0.273
28693W        W97087  42.022  19.115   0.381
28694W        W97088  22.504  15.347   3.244
28695W        W97089  27.703  44.307  11.252
28696W        W97090  43.033   7.400   1.748
28697W        W97091  26.568  40.846  11.611
28698W        W97092  42.533  42.859  11.618
28699W        W97093  10.112  39.080  10.744
28700W        W97094  10.384  11.367  10.757
28701W        W97095   1.981  35.576  12.071
28702W        W97096   8.696  40.048   0.363
28703W        W97097  23.211  26.002  14.386
28704W        W97098  22.441   3.782   2.789
28705W        W97099  40.906  40.959  12.560
28706W        W97100  32.089  41.328  12.491
28707W        W97101  41.910   7.912   2.848
28708W        W97102  43.996  12.740  11.268
28709W        W97103   5.854   0.252   1.469
28710W        W97104  35.067  22.217  13.257
28711W        W97105   9.372   8.247  11.025
28712W        W97106  12.348  16.633  10.723
28713W        W97107  28.966  42.765  12.348
28714W        W97108  41.441  26.435   1.065
28715W        W97109  18.231  41.788  12.571
28716W        W97110  39.699  34.069  14.306
28717W        W97111  14.806   6.847   2.520
28718W        W97112  16.899  16.458   4.575
28719W        W97113  31.742  37.250  13.562
28720W        W97114  37.509  27.441  12.053
28721W        W97115   6.319   1.325  13.980
28722W        W97116   9.686  14.155  11.925
28723W        W97117  26.662  26.466   3.610
28724W        W97118   6.622   3.187  11.652
28725W        W97119  39.321  14.204  13.581
28726W        W97120  11.516   8.733  11.469
28727W        W97121  32.892  28.567   2.212
28728W        W97122  41.982  20.907   3.901
28729W        W97123  11.557  15.197   3.237
28730W        W97124   4.680  27.380   2.624
28731W        W97125  20.732  23.933   1.727
28732W        W97126  27.634  21.927   4.236
28733W        W97127   8.364  16.134   2.694
28734W        W97128  19.810  12.055   1.188
28735W        W97129  20.290   1.838  10.085
28736W        W97130  15.581   6.503   1.361
28737W        W97131  35.346  14.763  11.549
28738W        W97132  17.886  23.996   4.121
28739W        W97133  36.303   3.910  14.348
28740W        W97134   7.439   5.366   4.166
28741W        W97135   5.963  18.807   3.568
28742W        W97136  22.621   4.640  12.225
28743W        W97137  36.444  12.244  12.908
28744W        W97138  38.340   5.421  11.979
28745W        W97139   6.226  41.672   1.621
28746W        W97140  37.893  10.141   1.553
28747W        W97141  38.448  21.281  11.980
28748W        W97142   8.870  26.598   0.820
28749W        W97143  40.665  32.943  11.085
28750W        W97144  42.810   7.297   4.572
28751W        W97145  41.824  44.373   3.195
28752W        W97146  24.573  42.952   2.612
28753W        W97147  36.303  20.592  13.401
28754W        W97148  26.245  36.441  10.516
28755W        W97149  34.839   5.392   0.755
28756W        W97150  34.914   3.843  12.159
28757W        W97151  42.950  27.699   1.461
28758W        W97152   9.713  36.872   3.341
28759W        W97153  31.510   9.331  10.931
28760W        W97154   4.224  43.557   2.016
28761W        W97155  40.465  42.582  11.634
28762W        W97156  31.911  18.758  10.615
28763W        W97157  39.115  11.799  12.453
28764W        W97158  29.047  12.111  11.066
28765W        W97159  17.511  22.030   3.046
28766W        W97160   9.305  30.572  11.645
28767W        W97161  34.962   8.885   4.674
28768W        W97162  17.654   7.955   4.523
28769W        W97163  14.594  42.899   3.721
28770W        W97164  38.145  44.744  12.009
28771W        W97165   6.168  27.690   3.471
28772W        W97166   2.724  12.536   0.488
28773W        W97167  21.736  16.763  14.001
28774W        W97168  42.708  37.118  11.197
28775W        W97169  26.441  30.181  11.368
28776W        W97170  38.004  21.299   4.597
28777W        W97171  34.140  42.793  12.053
28778W        W97172  15.469  15.155   3.361
28779W        W97173  16.547  19.099   4.349
28780W        W97174   3.525   3.838   0.953
28781W        W97175   9.193  11.183   4.042
28782W        W97176  43.986  12.845   2.057
28783W        W97177  18.663  34.383  11.192
28784W        W97178  43.527  42.438  12.094
28785W        W97179  19.500  30.928  12.896
28786W        W97180  21.709  21.175  12.064
28787W        W97181   1.322  20.698  12.094
28788W        W97182   7.470  22.127  11.168
28789W        W97183  32.279  21.713   4.687
28790W        W97184  18.786  34.626   3.443
28791W        W97185  12.037  43.312  11.092
28792W        W97186   9.135  39.496  12.600
28793W        W97187  17.865   6.130  11.915
28794W        W97188  21.543  44.230  13.321
28795W        W97189   4.850  42.357  12.147
28796W        W97190  11.886  28.209   1.754
28797W        W97191  22.619  32.886   4.478
28798W        W97192  41.047  34.156  14.530
28799W        W97193  25.492  22.784   0.437
28800W        W97194  43.497   4.164   2.918
28801W        W97195  42.419  18.505  12.404
28802W        W97196  26.410  32.965  14.922
28803W        W97197  11.928   0.576  14.373
28804W        W97198  32.660   6.112  10.601
28805W        W97199  17.636  21.153  12.550
28806W        W97200  31.521   6.450  14.530
28807W        W97201  37.445  13.070  14.415
28808W        W97202  11.824  41.845   2.259
28809W        W97203  25.627   7.768   3.812
28810W        W97204  34.262  17.817  11.118
28811W        W97205  22.600  22.226  14.914
28812W        W97206  15.667  12.700   0.497
28813W        W97207  28.502  18.349  11.238
28814W        W97208  43.371  12.995   3.383
28815W        W97209  44.146  29.543  14.952
28816W        W97210  15.076  29.319   0.310
28817W        W97211   6.333  23.117  11.641
28818W        W97212  13.603  41.752   2.716
28819W        W97213  34.091   7.173  12.934
28820W        W97214  40.682  10.226   3.555
28821W        W97215  36.518   7.909  13.438
28822W        W97216  17.633  12.171   4.157
28823W        W97217  42.924  11.065  14.226
28824W        W97218  15.161  26.911  14.332
28825W        W97219  16.703  29.584   2.377
28826W        W97220  41.502  28.239   2.357
28827W        W97221  44.969   0.935  13.983
28828W        W97222  42.068   5.589   1.651
28829W        W97223   8.444  27.827   1.341
28830W        W97224  36.935   5.755   4.480
28831W        W97225  42.529   6.129  12.965
28832W        W97226  30.583  21.147   4.477
28833W        W97227  41.103  37.876   2.719
28834W        W97228  27.477  15.187   1.382
28835W        W97229  13.907  36.821   0.974
28836W        W97230   7.915  15.199  11.949
28837W        W97231  13.277  20.038  10.973
28838W        W97232  12.763  19.605  14.482
28839W        W97233  20.296   0.495   4.187
28840W        W97234  26.957  41.344  13.363
28841W        W97235  20.286  35.619  13.077
28842W        W97236  10.731  34.325   1.111
28843W        W97237   8.835  42.783   0.923
28844W        W97238   8.919  11.229   2.747
28845W        W97239  40.534  41.379  14.931
28846W        W97240  32.126  14.772   4.162
28847W        W97241   5.179  27.133   1.739
28848W        W97242   3.228  13.237   4.137
28849W        W97243  18.574   4.432  12.548
28850W        W97244   3.460  41.831   0.761
28851W        W97245  28.445   1.771  14.867
28852W        W97246   0.698  26.941  12.598
28853W        W97247  34.771  25.956  12.487
28854W        W97248  44.024  33.879   3.906
28855W        W97249  27.163  10.538   3.628
28856W        W97250  28.006  15.204   0.484
28857W        W97251  13.683  20.138  12.173
28858W        W97252  12.737  22.744  12.281
28859W        W97253  29.880  29.422   0.679
28860W        W97254  16.116  31.431   0.590
28861W        W97255  34.899  30.967  12.895
28862W        W97256  15.310  37.364  13.776
28863W        W97257   0.999  23.146  13.481
28864W        W97258  17.988  34.904   3.282
28865W        W97259  43.798  38.103   3.495
28866W        W97260  24.649  35.559  13.500
28867W        W97261  17.861  44.859  13.494
28868W        W97262  18.238  24.047   3.705
28869W        W97263  26.288  32.867   4.108
28870W        W97264  15.803   9.498   2.148
28871W        W97265  21.144  18.788  12.928
28872W        W97266  12.605   8.371  14.411
28873W        W97267   4.306  38.349   2.675
28874W        W97268   4.262  29.683   1.754
28875W        W97269  39.307  27.731   3.651
28876W        W97270  29.511  43.265  10.447
28877W        W97271   6.160  24.596  11.899
28878W        W97272   2.394  16.190  13.355
28879W        W97273  33.476  19.294  11.688
28880W        W97274  21.922  10.422  10.644
28881W        W97275  39.277  31.477  12.126
28882W        W97276  22.319  43.915   0.841
28883W        W97277  20.017   2.058   4.872
28884W        W97278  25.464  42.309  11.629
28885W        W97279  38.435  31.684   0.931
28886W        W97280   3.224  31.734   4.119
28887W        W97281  34.458  39.469   1.207
28888W        W97282  11.429  13.803   4.263
28889W        W97283  42.143  20.642   0.318
28890W        W97284  36.477  27.168   4.284
28891W        W97285  39.846  39.312   3.141
28892W        W97286   5.378  23.496  14.687
28893W        W97287  41.432  10.827   2.181
28894W        W97288  44.031  13.114  10.747
28895W        W97289  21.579  42.487  11.590
28896W        W97290   4.929  29.926   2.769
28897W        W97291  18.683  44.340  10.885
28898W        W97292  40.369  20.339   0.761
28899W        W97293  33.680  41.421  11.237
28900W        W97294   5.087   4.709   3.573
28901W        W97295  22.591   3.883   3.393
28902W        W97296   0.807   3.298   2.475
28903W        W97297  29.480  27.657   3.207
28904W        W97298  14.461  12.367   0.883
28905W        W97299  30.158  24.575  14.353
28906W        W97300  15.705   3.851   1.719
28907W        W97301  25.151  27.731  11.444
28908W        W97302  33.616  36.974  12.877
28909W        W97303  39.396   3.987  12.099
28910W        W97304   1.325  19.892   5.003
28911W        W97305  23.828  36.133  10.794
28912W        W97306  43.660  29.953   0.633
28913W        W97307  37.593  24.694   3.628
28914W        W97308  27.956   2.518   0.013
28915W        W97309  24.561  35.555  14.032
28916W        W97310  39.846  31.448  14.323
28917W        W97311  28.779  14.821  12.894
28918W        W97312  18.242  16.145   4.963
28919W        W97313  26.066  13.769  12.899
28920W        W97314  31.769  40.987   2.777
28921W        W97315   5.748  33.763   2.843
28922W        W97316   6.207   3.837   3.182
28923W        W97317   6.403  40.597  14.719
28924W        W97318  41.268  31.527  14.578
28925W        W97319  25.885   9.572  10.823
28926W        W97320  14.720  14.129  12.914
28927W        W97321  37.352  36.037   4.723
28928W        W97322   1.928  33.968   0.753
28929W        W97323  16.312  14.799   2.406
28930W        W97324  13.596  27.588   1.248
28931W        W97325   2.515  12.136  13.783
28932W        W97326  42.633  38.072   4.500
28933W        W97327  25.172   5.936  10.601
28934W        W97328  14.609  41.875   0.826
28935W        W97329  39.936  17.347  10.720
28936W        W97330  44.123   6.544  13.822
28937W        W97331  40.428  43.934  10.804
28938W        W97332  37.424  40.569   0.759
28939W        W97333  43.836  41.075  14.588
28940W        W97334  38.376  38.336   2.234
28941W        W97335  25.499  18.951   3.305
28942W        W97336  15.067  13.234   1.772
28943W        W97337   3.956  24.571   1.422
28944W        W97338  35.225   1.274   3.273
28945W        W97339   5.279  33.445   3.652
28946W        W97340  29.503   4.396  13.860
28947W        W97341  36.671  10.830   2.462
28948W        W97342  35.197  12.369  10.986
28949W        W97343   0.771  12.786  14.406
28950W        W97344  21.083  21.166   4.620
28951W        W97345  36.138  39.860   0.754
28952W        W97346   6.097  17.612  13.806
28953W        W97347  28.445  39.587   0.186
28954W        W97348  34.068  27.411  13.463
28955W        W97349   8.805  22.118  12.542
28956W        W97350   7.977  43.921  13.406
28957W        W97351  41.419  32.343   2.210
28958W        W97352  17.213   1.485   2.336
28959W        W97353   6.456  36.948  14.761
28960W        W97354  13.610   3.821   4.596
28961W        W97355  38.947   8.086   5.001
28962W        W97356   5.784   8.096  10.422
28963W        W97357   8.564  23.601  10.287
28964W        W97358  40.423  41.938   0.026
28965W        W97359   2.701  25.458  12.848
28966W        W97360  37.802  11.926   3.381
28967W        W97361  26.026  18.812   4.646
28968W        W97362   3.191  27.521   0.454
28969W        W97363  17.256  36.409  10.979
28970W        W97364  27.574  44.382   1.958
28971W        W97365   5.322  23.300   0.185
28972W        W97366  40.271  35.940   2.805
28973W        W97367  10.218  33.509   1.444
28974W        W97368  36.979  23.682  12.434
28975W        W97369   7.810   8.686   1.209
28976W        W97370  21.635  16.804   9.820
28977W        W97371   9.299  30.207   0.347
28978W        W97372  14.166  40.269   3.254
28979W        W97373  38.095  37.921   2.347
28980W        W97374  18.046   9.178   0.283
28981W        W97375   3.205  25.888   2.784
28982W        W97376  21.981  12.309  13.465
28983W        W97377  42.717  19.564   4.079
28984W        W97378  17.435  31.750   0.510
28985W        W97379  10.666   8.199   4.254
28986W        W97380  25.414  40.464   4.251
28987W        W97381  41.495  24.913   2.086
28988W        W97382  36.924  18.616   1.794
28989W        W97383  18.136   2.423   0.455
28990W        W97384  14.088  37.084   4.650
28991W        W97385  11.226  19.004   1.281
28992W        W97386  32.942  39.049   0.965
28993W        W97387   1.765  20.690   2.158
28994W        W97388  10.447  27.385  13.105
28995W        W97389  41.278  11.673  13.471
28996W        W97390  38.989  14.460   4.151
28997W        W97391  18.322   5.890   0.324
28998W        W97392  31.954  17.757   3.119
28999W        W97393  22.216  34.339   2.184
29000W        W97394  43.814  30.781   2.610
29001W        W97395  19.128  27.535  13.433
29002W        W97396  19.338  33.556   3.303
29003W        W97397  19.007  27.055   0.673
29004W        W97398  43.250  36.033  13.457
29005W        W97399  12.665   5.728   2.377
29006W        W97400  21.490  31.261  13.505
29007W        W97401   7.881  10.172  10.289
29008W        W97402  29.538   5.886   3.707
29009W        W97403  29.088   8.318  10.813
29010W        W97404  43.039  17.658  12.693
29011W        W97405  40.486   8.623  14.730
29012W        W97406  30.477   6.887   2.198
29013W        W97407  36.318  15.864   3.700
29014W        W97408  44.328  25.175  12.883
29015W        W97409  31.106   1.752   1.239
29016W        W97410  21.267  12.830  12.083
29017W        W97411   5.917  16.151   4.219
29018W        W97412  15.156  28.293   2.026
29019W        W97413  30.774   4.812  10.677
29020W        W97414  31.164   6.755   3.041
29021W        W97415  40.314  14.767  12.537
29022W        W97416  18.882  10.288   3.572
29023W        W97417  42.529  19.001  12.602
29024W        W97418  34.824  23.518  10.389
29025W        W97419  16.669  27.912  13.253
29026W        W97420  10.737  14.637   1.721
29027W        W97421  37.420  25.876  12.162
29028W        W97422   4.135   6.765  14.228
29029W        W97423  32.731  32.232   4.151
29030W        W97424   5.691  26.064   4.571
29031W        W97425  25.440  28.710  11.193
29032W        W97426  32.476   7.924  12.439
29033W        W97427   0.298   3.889   1.314
29034W        W97428  19.168  18.666   0.910
29035W        W97429  17.476  34.172  14.722
29036W        W97430  30.180   4.866  13.825
29037W        W97431  31.910  21.002   4.142
29038W        W97432  37.809  39.112  12.921
29039W        W97433  27.274   3.308  12.965
29040W        W97434  20.211  30.979  13.480
29041W        W97435  19.623  30.011   1.834
29042W        W97436   2.369  44.089  13.160
29043W        W97437  38.390   0.306   3.436
29044W        W97438   5.448  35.693  13.272
29045W        W97439  40.929  26.391  11.275
29046W        W97440  18.527   8.290  12.594
29047W        W97441  36.611  29.857  11.084
29048W        W97442  16.312   4.767  14.462
29049W        W97443  19.288  24.659  12.501
29050W        W97444  22.240  21.017   1.098
29051W        W97445  20.614   1.076   1.417
29052W        W97446  19.230  39.312  12.889
29053W        W97447  15.478  22.532   2.480
29054W        W97448   3.249  23.691   1.944
29055W        W97449  33.033  29.175  10.509
29056W        W97450  41.318  44.849   1.331
29057W        W97451  10.565  16.947  14.515
29058W        W97452  36.741   7.721  11.021
29059W        W97453  39.668   5.518  11.645
29060W        W97454  34.627   2.638   3.203
29061W        W97455   7.288  35.451   4.387
29062W        W97456  22.095  34.097  12.061
29063W        W97457  30.769  27.079  10.517
29064W        W97458  36.338  20.682  12.521
29065W        W97459  29.051  12.188   0.037
29066W        W97460  27.558  16.004   2.087
29067W        W97461  10.274  36.527  11.844
29068W        W97462  40.475   3.959   1.829
29069W        W97463   0.401  23.538   1.810
29070W        W97464   7.631  34.593  10.724
29071W        W97465   4.767  18.903  13.921
29072W        W97466  12.714  20.143   0.691
29073W        W97467   3.304  35.578   3.231
29074W        W97468   8.273  27.119  13.315
29075W        W97469  44.240  35.539   2.788
29076W        W97470  32.345   6.743  12.924
29077W        W97471  25.320  38.422  14.249
29078W        W97472  16.350  35.097   0.266
29079W        W97473  18.225   6.259  10.246
29080W        W97474  27.455  31.936  12.105
29081W        W97475  31.086   2.706  10.539
29082W        W97476  13.997  27.224   4.272
29083W        W97477   1.400   9.640   2.087
29084W        W97478  38.497   8.339  11.372
29085W        W97479  15.357   8.867   1.462
29086W        W97480   1.033  22.194   1.702
29087W        W97481  18.720  26.454  12.672
29088W        W97482  32.221  34.450   2.229
29089W        W97483  13.313  26.449  10.717
29090W        W97484  31.200  44.295  12.423
29091W        W97485  36.695  26.912  11.939
29092W        W97486  34.823  21.693   0.815
29093W        W97487  27.705  43.048   2.088
29094W        W97488   1.167  40.456  12.339
29095W        W97489   1.478   4.224  12.481
29096W        W97490   7.285  42.492  14.589
29097W        W97491  28.363   5.768   2.145
29098W        W97492  21.005  15.735   2.561
29099W        W97493   1.743  28.437  12.435
29100W        W97494  33.649  27.640   1.399
29101W        W97495   2.829  36.828   1.022
29102W        W97496  18.463   3.831  13.951
29103W        W97497  40.635  19.808  14.815
29104W        W97498  17.139   9.414   0.477
29105W        W97499  37.349  19.675   3.041
29106W        W97500   6.077   2.522  12.555
29107W        W97501   9.253  30.143   4.520
29108W        W97502  39.342  34.873   4.537
29109W        W97503   6.479  20.294  13.060
29110W        W97504  28.105   8.773  13.429
29111W        W97505   8.610   6.853   4.684
29112W        W97506  36.587   5.301   3.323
29113W        W97507   9.866  24.583  11.828
29114W        W97508  31.332  35.462   3.960
29115W        W97509   8.842  11.718   0.325
29116W        W97510  37.516  42.269  12.501
29117W        W97511  31.909  18.827  11.530
29118W        W97512  27.904  11.718   0.529
29119W        W97513  44.835  15.109   0.211
29120W        W97514  32.200  10.264   1.338
29121W        W97515  21.324  24.916   0.217
29122W        W97516  22.578  33.985   0.192
29123W        W97517  40.086  23.723  11.062
29124W        W97518  35.077  35.480  11.493
29125W        W97519  17.542   2.649  12.610
29126W        W97520  37.067   0.992  12.505
29127W        W97521  27.489  29.902   2.392
29128W        W97522  13.331  43.548  10.820
29129W        W97523  35.462  31.212  12.012
29130W        W97524  36.555   3.409  10.273
29131W        W97525  41.449  10.992  10.662
29132W        W97526  12.007  42.757   0.224
29133W        W97527   7.695  44.078  12.121
29134W        W97528   1.454  10.619  13.345
29135W        W97529  37.427  41.987  13.890
29136W        W97530   3.005  28.482   1.955
29137W        W97531  10.810   4.040   1.665
29138W        W97532  37.937  18.078   1.851
29139W        W97533  32.200  43.565  12.766
29140W        W97534  43.277  13.607  14.952
29141W        W97535   5.069  16.283  12.071
29142W        W97536  13.770   2.206  10.743
29143W        W97537   2.153  27.325  12.795
29144W        W97538   3.937  10.138  10.629
29145W        W97539  13.351   4.061   5.000
29146W        W97540   6.315  35.460   1.004
29147W        W97541  20.685   6.212  14.430
29148W        W97542  19.604   8.823   4.530
29149W        W97543  25.007   9.420   4.051
29150W        W97544  40.816   5.513  10.660
29151W        W97545  36.467  25.296  13.467
29152W        W97546  12.946  28.133  10.574
29153W        W97547  41.910   7.695   2.367
29154W        W97548   4.324  39.952   1.874
29155W        W97549   2.288  18.552   3.257
29156W        W97550  32.887  39.412   2.257
29157W        W97551  32.687  15.778   2.539
29158W        W97552   9.053   6.982   2.957
29159W        W97553   1.514  18.791   1.293
29160W        W97554  35.199  40.355  14.732
29161W        W97555  26.349  42.001  10.561
29162W        W97556  15.837  33.098   1.401
29163W        W97557  42.371   1.914  14.864
29164W        W97558  28.169  15.625   1.375
29165W        W97559  42.720  29.108   0.519
29166W        W97560  30.406   9.745  14.866
29167W        W97561  41.768  28.711  12.913
29168W        W97562  30.066  18.060   2.185
29169W        W97563   5.307  33.897   3.109
29170W        W97564  31.866  31.766   2.258
29171W        W97565  23.742   5.113  12.704
29172W        W97566  37.432  18.308   0.270
29173W        W97567  31.350   9.212  10.444
29174W        W97568  25.673  12.785   4.384
29175W        W97569   1.171  34.662   4.130
29176W        W97570  40.468   6.372  10.556
29177W        W97571  18.815  44.877  13.577
29178W        W97572  42.950  29.145   3.560
29179W        W97573  41.304   7.453   1.211
29180W        W97574  22.695  16.726  12.565
29181W        W97575  26.485  26.143   2.948
29182W        W97576  27.083  34.062   0.918
29183W        W97577  36.492   5.257  11.070
29184W        W97578   0.261  19.615  11.213
29185W        W97579  17.198   3.540   3.811
29186W        W97580  11.259  24.981   4.006
29187W        W97581  12.100  38.068   2.409
29188W        W97582   8.224   6.664  12.702
29189W        W97583   3.314  43.353  10.966
29190W        W97584  42.327  14.712  12.486
29191W        W97585  24.494  39.743  11.400
29192W        W97586   1.276   6.795  11.986
29193W        W97587  38.841  29.831   2.581
29194W        W97588  43.054  13.401   3.493
29195W        W97589  32.732  39.270   4.848
29196W        W97590  24.220  12.331   4.100
29197W        W97591  17.489  40.401  11.098
29198W        W97592  12.766  20.694   3.072
29199W        W97593  42.815  22.640  10.809
29200W        W97594  14.330  13.820  12.434
29201W        W97595  19.214  31.827   0.724
29202W        W97596  43.675  26.760  12.054
29203W        W97597  23.887  15.499  12.390
29204W        W97598   1.489  11.130  13.468
29205W        W97599  18.033   9.664  13.013
29206W        W97600  16.052  42.399  12.100
29207W        W97601  12.679  30.010   3.262
29208W        W97602  11.622  34.230   2.952
29209W        W97603  12.031   9.163   3.560
29210W        W97604  23.100  18.529  12.146
29211W        W97605   6.417  40.306  12.678
29212W        W97606  14.615  28.568  10.962
29213W        W97607  11.906   0.087  14.231
29214W        W97608   6.633  38.955   3.807
29215W        W97609  28.275  36.815  10.768
29216W        W97610  24.388  11.094  13.043
29217W        W97611  26.536  39.531   2.142
29218W        W97612   6.037  31.531   1.928
29219W        W97613  44.500   7.218  13.107
29220W        W97614  40.773  23.940  13.570
29221W        W97615  21.345  12.741  13.850
29222W        W97616  26.515  30.159  10.863
29223W        W97617  15.795  25.082  12.992
29224W        W97618   1.428  32.138   1.839
29225W        W97619   9.875  24.513  13.084
29226W        W97620  30.611  23.998  12.026
29227W        W97621   3.246  25.670  10.714
29228W        W97622   0.066  31.416   4.409
29229W        W97623  19.254  21.027  11.355
29230W        W97624  16.640   7.201  14.474
29231W        W97625  34.703  44.650   2.790
29232W        W97626  25.558  17.343  13.299
29233W        W97627  35.543  18.121   2.762
29234W        W97628  44.013  23.345   4.097
29235W        W97629   0.975  12.292  14.345
29236W        W97630   5.350  14.133  13.833
29237W        W97631  29.535  29.203   2.801
29238W        W97632  39.615  10.795   1.423
29239W        W97633   7.493   3.819  12.787
29240W        W97634  37.896  37.066   1.791
29241W        W97635   4.858  23.733  10.691
29242W        W97636  29.502  24.919   3.241
29243W        W97637  10.628  35.850  12.488
29244W        W97638  36.445   1.296   0.341
29245W        W97639   0.785   2.652  11.522
29246W        W97640  36.973  36.948  10.818
29247W        W97641   6.707  27.695  10.183
29248W        W97642  24.252  29.618  11.536
29249W        W97643   3.030  35.931  13.464
29250W        W97644  21.976  39.613   4.973
29251W        W97645  36.867  43.038  14.336
29252W        W97646   2.537  20.743  14.343
29253W        W97647   1.879  33.042   2.345
29254W        W97648  10.927   3.219   1.320
29255W        W97649  16.443   6.459  11.777
29256W        W97650  26.714  31.468  13.420
29257W        W97651  27.097  29.717   3.940
29258W        W97652  43.099  13.385   1.800
29259W        W97653  19.082  42.242   2.261
29260W        W97654   9.788   3.234  14.057
29261W        W97655   3.203  38.014  11.550
29262W        W97656  11.062  20.179   1.863
29263W        W97657  34.696  43.561   4.821
29264W        W97658   2.675  31.882  14.788
29265W        W97659   1.763  19.879  12.386
29266W        W97660  40.518  38.905  11.168
29267W        W97661  20.067  29.249   0.083
29268W        W97662   1.682   2.758   0.346
29269W        W97663  35.521  39.562  12.933
29270W        W97664  27.177  20.601  10.639
29271W        W97665   5.207  43.393  13.667
29272W        W97666  36.527  37.376  13.512
29273W        W97667  13.240  12.194  12.544
29274W        W97668  26.640  17.833  12.065
29275W        W97669  18.354  18.286  14.767
29276W        W97670   5.472  38.006  11.124
29277W        W97671  16.966   9.341  13.387
29278W        W97672  22.405  43.445   3.145
29279W        W97673  15.158   0.899  11.176
29280W        W97674  19.855  19.235   4.248
29281W        W97675  34.796  15.222  14.887
29282W        W97676  41.112   7.958   0.628
29283W        W97677  20.744  36.474   2.816
29284W        W97678  10.946  40.539   0.290
29285W        W97679  31.851   7.100   0.841
29286W        W97680   5.688  19.191  14.850
29287W        W97681  15.164  43.915   4.572
29288W        W97682   7.934  26.943   2.329
29289W        W97683   7.024   4.379  13.551
29290W        W97684  31.005  30.837   4.988
29291W        W97685  10.423  24.612   3.709
29292W        W97686  22.183  31.235   1.713
29293W        W97687  25.150  33.264   1.488
29294W        W97688  13.571   3.854  10.774
29295W        W97689   4.193  31.269  13.901
29296W        W97690  39.065  34.995  12.390
29297W        W97691   2.550   7.907  11.660
29298W        W97692  32.855   6.186  14.553
29299W        W97693  17.762  18.401  11.621
29300W        W97694   4.855   0.314  14.012
29301W        W97695  16.217  10.236   2.572
29302W        W97696  26.534  37.139  11.101
29303W        W97697  26.551  31.868   2.711
29304W        W97698   2.314   7.527  11.410
29305W        W97699  21.109  43.564  12.036
29306W        W97700   3.332  41.307  12.783
29307W        W97701  40.834  29.434   1.883
29308W        W97702  23.602  31.587   2.156
29309W        W97703  32.073   9.381  10.651
29310W        W97704  39.933  21.918   4.455
29311W        W97705  22.966   2.820  12.508
29312W        W97706   4.899   1.918   5.012
29313W        W97707  21.737  35.944  13.677
29314W        W97708  21.775  30.551   1.009
29315W        W97709   4.883  15.564   5.455
29316W        W97710   6.363  20.795  11.114
29317W        W97711  42.765  15.724   3.671
29318W        W97712  10.637   2.056   0.754
29319W        W97713  26.840  14.108  11.123
29320W        W97714  26.971   9.821   4.815
29321W        W97715  43.690   4.749   1.690
29322W        W97716  18.753  33.421  14.863
29323W        W97717  42.836  29.559   3.885
29324W        W97718  10.792   9.905   1.359
29325W        W97719  43.868  37.833  13.557
29326W        W97720  14.738  18.711   2.645
29327W        W97721   0.272   2.440  13.875
29328W        W97722  23.485  30.078  13.571
29329W        W97723  40.376  39.867  12.036
29330W        W97724  23.005  16.272  14.017
29331W        W97725  11.378  15.873   4.105
29332W        W97726  24.280  35.514   0.350
29333W        W97727  16.910  34.503  13.544
29334W        W97728  17.207  18.272   0.440
29335W        W97729  27.760  30.923   0.936
29336W        W97730   7.430  10.325   0.219
29337W        W97731  27.942  32.901   0.353
29338W        W97732  23.074  44.366   4.122
29339W        W97733  28.018   1.448  11.705
29340W        W97734  25.123  16.232  13.314
29341W        W97735   0.979  42.344  14.817
29342W        W97736  37.270  25.167   1.785
29343W        W97737  34.881  20.922  10.332
29344W        W97738   3.154  25.813   1.004
29345W        W97739  35.197  17.945  11.239
29346W        W97740  22.086  39.819   2.209
29347W        W97741  18.016  41.449  10.572
29348W        W97742  25.028  17.838  11.946
29349W        W97743  21.159  27.205   0.733
29350W        W97744  35.048   7.890  13.538
29351W        W97745  40.383  10.837  12.620
29352W        W97746  44.449  14.774   0.996
29353W        W97747  12.082   1.100  13.764
29354W        W97748  23.906   1.289  12.561
29355W        W97749  25.720   6.508  11.194
29356W        W97750  36.370  28.950   4.045
29357W        W97751  43.839  17.755   1.002
29358W        W97752   7.322   7.102   4.659
29359W        W97753   0.921   0.813   2.905
29360W        W97754  23.429  32.167   1.227
29361W        W97755  43.799  15.366  14.321
29362W        W97756   5.841  43.242   0.725
29363W        W97757  33.674  33.621   2.889
29364W        W97758  14.420  44.462   3.668
29365W        W97759   5.379  12.095  11.105
29366W        W97760  31.123  19.640   2.244
29367W        W97761   0.815   8.622   4.399
29368W        W97762   6.836   5.323   2.312
29369W        W97763  34.452  38.343   1.240
29370W        W97764  19.804  28.530   1.911
29371W        W97765  28.892  38.769   0.429
29372W        W97766  41.871  18.131   2.351
29373W        W97767  29.675  24.705   1.912
29374W        W97768  39.957  44.583   0.268
29375W        W97769  43.240  37.123   3.573
29376W        W97770  29.684  32.327  11.408
29377W        W97771  32.505  26.175   0.866
29378W        W97772  10.162  43.907   3.426
29379W        W97773  40.336  34.876  13.149
29380W        W97774   8.272  14.847  14.181
29381W        W97775  20.341  15.922  11.555
29382W        W97776  11.841  29.832  10.822
29383W        W97777  20.284  10.888  12.646
29384W        W97778  17.168  24.026  11.075
29385W        W97779  39.576  41.339   0.925
29386W        W97780  23.200   5.784  11.667
29387W        W97781  13.993  22.520   2.980
29388W        W97782  27.855   1.006  14.003
29389W        W97783  16.880  13.637  11.155
29390W        W97784  27.040  29.944   4.503
29391W        W97785  21.035   7.310  14.855
29392W        W97786  20.171  16.126   2.855
29393W        W97787   2.786   4.370  13.716
29394W        W97788  30.894  29.614  14.916
29395W        W97789   3.177  42.568  14.629
29396W        W97790   8.518  18.600   3.458
29397W        W97791  39.944  38.070   1.284
29398W        W97792  37.387  34.150  13.493
29399W        W97793  26.211   3.317   3.196
29400W        W97794  35.508  31.904  12.402
29401W        W97795  36.306  12.058   0.203
29402W        W97796  11.697  44.349  11.138
29403W        W97797  40.056  38.973  14.677
29404W        W97798  21.442   4.289   1.403
29405W        W97799  37.287   4.443   2.082
29406W        W97800  31.950   3.777   4.948
29407W        W97801  33.423   6.763   1.791
29408W        W97802  17.097   3.005  11.212
29409W        W97803  32.534  12.711   1.200
29410W        W97804  16.737   1.831   2.907
29411W        W97805   8.193  14.413  13.387
29412W        W97806  15.257   8.427   2.675
29413W        W97807  13.812  19.820  12.917
29414W        W97808  35.842  18.814  11.099
29415W        W97809   6.351  15.054   3.259
29416W        W97810   2.243  20.515   1.906
29417W        W97811  37.930  34.732  10.214
29418W        W97812  12.350  27.041   1.287
29419W        W97813  32.856   7.669  13.233
29420W        W97814   3.484  17.787  12.439
29421W        W97815  26.726  13.226   0.327
29422W        W97816  11.772  13.079  14.382
29423W        W97817  37.146  40.586   0.320
29424W        W97818  20.198  33.932   4.174
29425W        W97819  44.315  29.130   3.043
29426W        W97820  10.260   0.294   2.690
29427W        W97821  26.498  16.003   0.011
29428W        W97822  14.756  17.998   4.725
29429W        W97823  36.449  24.224  14.480
29430W        W97824  34.749   9.158  11.215
29431W        W97825  40.007  14.184   1.726
29432W        W97826  39.320   1.961   1.762
29433W        W97827  16.183  41.395   3.327
29434W        W97828   0.731  38.046  12.530
29435W        W97829  15.181  17.407  13.446
29436W        W97830   5.309  36.805   4.671
29437W        W97831  30.985  20.060  11.902
29438W        W97832  19.126  37.539  13.517
29439W        W97833  29.545  28.914  13.324
29440W        W97834  13.141  30.937   3.116
29441W        W97835  34.141   7.929   0.805
29442W        W97836  16.804  14.783   0.405
29443W        W97837  23.306  26.549  14.828
29444W        W97838  39.265  26.220  14.331
29445W        W97839  18.449  19.327  11.321
29446W        W97840  21.988  25.211   4.155
29447W        W97841  31.896  28.134   5.071
29448W        W97842   9.346  25.336   3.320
29449W        W97843  33.561  30.130  11.441
29450W        W97844  28.558  12.871  12.704
29451W        W97845  13.878  25.947   1.889
29452W        W97846   4.816  19.605   0.913
29453W        W97847   0.176  43.681  13.928
29454W        W97848  29.698  21.294  12.914
29455W        W97849  39.376  32.797  10.770
29456W        W97850  10.087  31.641   4.271
29457W        W97851   1.003  13.762  14.230
29458W        W97852  33.359  41.944   0.027
29459W        W97853  27.247  39.461  12.500
29460W        W97854  22.603  42.023   1.633
29461W        W97855  31.629  25.153   4.590
29462W        W97856  31.650   8.140   3.713
29463W        W97857  26.236  35.511  13.691
29464W        W97858   6.683  41.343   2.344
29465W        W97859  28.261  11.728  10.576
29466W        W97860  19.578   5.780   0.876
29467W        W97861   4.909  28.950   4.191
29468W        W97862  27.963  10.804   0.870
29469W        W97863  31.430   6.616  12.920
29470W        W97864  11.181  44.139  13.767
29471W        W97865  13.385  32.269  11.188
29472W        W97866  25.698  25.673   4.499
29473W        W97867  37.374  21.617   3.692
29474W        W97868  38.050   9.982  12.484
29475W        W97869   2.157  11.669   1.863
29476W        W97870   8.717  10.753   2.811
29477W        W97871   9.908  16.765  13.042
29478W        W97872  26.112  33.082  13.770
29479W        W97873  22.233  12.230   0.691
29480W        W97874   0.036  30.893  11.580
29481W        W97875  24.273  35.971   0.984
29482W        W97876   8.116  25.223   3.643
29483W        W97877   2.803  21.567   3.772
29484W        W97878  20.906   5.560   1.481
29485W        W97879  24.762  19.702  13.400
29486W        W97880  37.894  25.183  11.081
29487W        W97881   2.692  37.202   0.658
29488W        W97882  30.922  36.518   2.195
29489W        W97883  36.914  30.934  13.748
29490W        W97884   8.343  26.424   1.307
29491W        W97885  38.963  15.315  14.680
29492W        W97886  31.978  11.358   2.602
29493W        W97887  14.202  13.021  10.463
29494W        W97888  14.255   6.735  14.422
29495W        W97889  21.189  44.735   0.464
29496W        W97890  15.357  15.508   5.006
29497W        W97891  11.557  14.875   4.582
29498W        W97892  40.056  37.743   0.730
29499W        W97893  18.752  41.283  13.114
29500W        W97894  11.531  24.434  11.174
29501W        W97895   2.635  39.372   4.253
29502W        W97896   9.244  12.583  14.995
29503W        W97897  16.863  36.081  10.934
29504W        W97898  32.386  29.081   4.652
29505W        W97899  27.530  24.597   4.251
29506W        W97900  12.230  26.239   3.376
29507W        W97901  15.095  26.811  12.975
29508W        W97902  25.073  40.862   4.338
29509W        W97903  38.104  10.154  11.205
29510W        W97904  26.983  38.405   2.260
29511W        W97905  16.154  37.036   0.698
29512W        W97906  25.885   4.886  11.931
29513W        W97907  41.256  27.586   3.763
29514W        W97908   3.517  31.520  11.551
29515W        W97909   5.378  24.439  13.029
29516W        W97910   5.623   2.556  13.534
29517W        W97911   5.408   5.163  11.971
29518W        W97912  29.625  14.201  13.300
29519W        W97913   1.740  23.228  12.923
29520W        W97914  29.133  13.793  14.502
29521W        W97915  14.360  16.262   0.753
29522W        W97916   8.489   6.371   3.617
29523W        W97917  17.670  43.703  13.995
29524W        W97918  25.886  26.516  13.514
29525W        W97919   0.696  11.847   1.983
29526W        W97920  39.017  17.540   3.735
29527W        W97921   9.127   2.799  11.983
29528W        W97922  25.004  26.614  12.066
29529W        W97923  31.133   0.659  11.136
29530W        W97924  36.031  12.843   4.109
29531W        W97925   7.337  15.513  13.129
29532W        W97926  18.337  26.183  14.024
29533W        W97927  40.315  37.665  14.715
29534W        W97928   4.861  25.152   3.645
29535W        W97929  34.890  26.139   3.855
29536W        W97930  21.964   1.200   1.386
29537W        W97931  35.327  21.935   2.563
29538W        W97932   6.276   1.986  13.809
29539W        W97933  19.260  27.667  12.604
29540W        W97934  25.716  11.130  12.059
29541W        W97935  22.487  12.668   0.814
29542W        W97936  33.088  29.641  10.280
29543W        W97937  37.054  31.770  13.153
29544W        W97938  37.039   1.403  10.496
29545W        W97939   4.825   7.402  11.975
29546W        W97940  38.298   2.617   4.759
29547W        W97941  23.748  16.718   1.180
29548W        W97942   8.565  11.804  13.039
29549W        W97943  20.589  26.522  12.336
29550W        W97944  33.340   2.209  11.564
29551W        W97945  35.167   4.383   4.312
29552W        W97946   7.794   6.849   4.581
29553W        W97947  37.568   1.959  11.633
29554W        W97948  16.036  41.982  11.284
29555W        W97949   0.735   8.239  10.613
29556W        W97950  19.382  28.904   2.801
29557W        W97951  39.003   9.005   4.795
29558W        W97952  32.106  42.402   1.277
29559W        W97953  39.029   9.810   3.726
29560W        W97954  34.321  23.534   0.854
29561W        W97955  16.252  33.873   3.195
29562W        W97956  23.481   3.917   3.705
29563W        W97957  17.578  32.924  11.908
29564W        W97958  34.027  44.872   1.851
29565W        W97959  39.871  28.121   3.126
29566W        W97960   0.881  22.308   4.293
29567W        W97961  41.294  26.654  11.524
29568W        W97962  14.770  10.295  11.453
29569W        W97963  41.968  25.586  13.396
29570W        W97964   5.447  26.152   0.507
29571W        W97965   1.050   3.726   2.273
29572W        W97966  44.742   6.915   1.313
29573W        W97967  43.424  16.303   0.192
29574W        W97968   3.737   5.494  12.522
29575W        W97969   0.478  13.311  12.117
29576W        W97970  33.546   4.441  11.947
29577W        W97971  30.373  13.046  12.283
29578W        W97972   6.962   1.321  10.169
29579W        W97973   6.245  24.616   4.171
29580W        W97974  29.564   7.453   9.716
29581W        W97975  29.879  40.778  12.388
29582W        W97976   9.370  10.799  13.865
29583W        W97977   5.746  43.024   0.271
29584W        W97978  36.752   3.093   5.219
29585W        W97979   2.551  41.517  10.634
29586W        W97980   0.276  32.184  14.061
29587W        W97981  23.624  39.283  13.454
29588W        W97982  44.776  20.700  13.963
29589W        W97983  26.133  32.192   3.455
29590W        W97984  36.866  32.490   4.566
29591W        W97985  26.795  43.577  13.490
29592W        W97986  42.240  30.801   1.220
29593W        W97987   4.665   3.277  11.013
29594W        W97988  15.613  14.282   4.407
29595W        W97989   0.201  44.760   2.869
29596W        W97990  26.558  23.261   0.582
29597W        W97991  20.518  33.360   1.793
29598W        W97992   9.567  20.607  10.520
29599W        W97993  39.968   5.605   1.363
29600W        W97994  10.316  19.989   3.156
29601W        W97995  25.890  29.025  14.498
29602W        W97996  36.818  43.797   0.849
29603W        W97997   0.692  26.416  12.490
29604W        W97998  12.587  42.093  13.017
29605W        W97999  10.940  28.877   4.493
29606W        W98000  20.970   8.377   0.920
29607W        W98001  10.631   4.823  13.425
29608W        W98002   6.166  40.228   2.659
29609W        W98003  33.408  32.630   1.337
29610W        W98004   8.035  23.872  13.804
29611W        W98005  43.033  16.272  10.428
29612W        W98006  21.281  16.137  14.511
29613W        W98007   3.940  40.326   4.229
29614W        W98008  44.974  26.510   1.399
29615W        W98009  14.099  42.610  11.079
29616W        W98010  10.371  20.671   1.785
29617W        W98011  10.873   9.528   0.357
29618W        W98012   0.759  37.308   1.751
29619W        W98013  40.480  31.914   4.303
29620W        W98014  11.380   7.142  12.985
29621W        W98015  23.661   7.236  12.187
29622W        W98016  13.574  34.950  14.160
29623W        W98017  30.214   9.700   4.410
29624W        W98018  15.165   8.107  11.565
29625W        W98019  19.123   9.634   1.334
29626W        W98020   9.310   0.641  14.019
29627W        W98021  37.346  10.409  12.499
29628W        W98022  36.952  40.122   0.440
29629W        W98023   5.785  43.985   4.904
29630W        W98024  29.099  12.390  12.008
29631W        W98025  10.095   2.926   2.673
29632W        W98026  40.458  13.859  13.918
29633W        W98027  43.352  28.965  12.246
29634W        W98028  22.453  19.565   3.886
29635W        W98029  16.758   5.007  14.533
29636W        W98030  10.923  15.747   0.851
29637W        W98031  42.136  31.135   2.719
29638W        W98032  22.080  25.630  14.905
29639W        W98033  13.488   7.804   5.023
29640W        W98034  18.761  37.799   3.687
29641W        W98035  24.053   6.755  10.461
29642W        W98036  10.119   4.486  13.558
29643W        W98037   1.113  31.249  10.390
29644W        W98038   9.912  27.772   4.155
29645W        W98039  20.028  18.116  12.601
29646W        W98040  11.912  35.481   4.336
29647W        W98041  25.746  39.857   3.055
29648W        W98042  11.624  22.489  11.230
29649W        W98043  39.348  38.866  12.823
29650W        W98044   7.344  38.617  10.861
29651W        W98045  11.371   2.493  10.839
29652W        W98046   3.529  32.890   0.265
29653W        W98047  32.744  19.758   5.179
29654W        W98048  22.985  16.906  13.193
29655W        W98049  40.495  10.409   4.527
29656W        W98050  18.546  11.457   0.349
29657W        W98051  20.615  23.424  12.825
29658W        W98052  29.725  36.623  10.792
29659W        W98053  26.171  42.763  10.153
29660W        W98054  28.956  25.053   0.489
29661W        W98055  41.300  14.576  12.460
29662W        W98056   8.362   7.398   3.898
29663W        W98057  39.404   3.857   0.955
29664W        W98058  27.823   0.471   0.285
29665W        W98059   9.124  36.117  12.521
29666W        W98060  21.232  32.801  11.917
29667W        W98061   5.642  16.850  14.898
29668W        W98062  44.895   2.616  11.101
29669W        W98063  28.958   3.697   1.286
29670W        W98064  12.804  28.993   2.431
29671W        W98065   8.371  31.252  14.797
29672W        W98066  32.895  30.194   1.397
29673W        W98067  14.717  10.645   3.811
29674W        W98068  24.611  18.140  11.953
29675W        W98069  36.511  35.795  11.198
29676W        W98070  29.129   0.116  13.433
29677W        W98071  16.973  39.032   3.275
29678W        W98072  19.564  30.416  11.531
29679W        W98073  40.775  43.869  14.750
29680W        W98074  27.760  17.606   4.241
29681W        W98075  26.349   1.450   4.232
29682W        W98076   4.039   3.776  11.710
29683W        W98077  15.078  25.150  12.001
29684W        W98078  19.722  15.283   4.186
29685W        W98079  18.728  31.535   3.977
29686W        W98080  34.765   9.868  11.060
29687W        W98081  31.566  32.766   0.380
29688W        W98082  26.197   0.872   3.194
29689W        W98083   7.637  18.630  11.496
29690W        W98084  11.454  38.244   2.781
29691W        W98085   0.537  42.642  14.767
29692W        W98086   0.124  11.267   2.561
29693W        W98087  26.624   8.695   4.609
29694W        W98088  27.534  33.222   0.366
29695W        W98089  28.529  20.805   2.364
29696W        W98090  15.735  37.045   0.335
29697W        W98091   8.522  34.553   9.927
29698W        W98092  27.391  44.013   2.332
29699W        W98093   8.816  25.423   0.228
29700W        W98094   2.965  31.500   1.500
29701W        W98095  18.412  13.343  12.057
29702W        W98096  27.125  41.620   3.702
29703W        W98097  28.070   4.311  10.046
29704W        W98098  44.715   2.150  11.512
29705W        W98099  15.277  43.264   3.827
29706W        W98100  16.072  10.648  13.540
29707W        W98101  21.005   2.092   3.911
29708W        W98102  22.709   1.421  14.052
29709W        W98103  22.980   7.759  14.510
29710W        W98104  32.381  43.389  11.465
29711W        W98105  24.741  24.743  13.876
29712W        W98106   3.322  33.435   1.204
29713W        W98107  23.615   1.732   2.968
29714W        W98108  20.264   9.334   4.140
29715W        W98109  30.462   4.201   1.724
29716W        W98110   6.580  14.251   3.673
29717W        W98111  23.660   9.166  12.198
29718W        W98112  18.983   7.766  12.003
29719W        W98113   1.324  42.713  12.150
29720W        W98114   3.940  13.394  14.911
29721W        W98115  29.652  20.614   2.698
29722W        W98116  30.480  44.998  10.732
29723W        W98117  30.862   6.083  14.763
29724W        W98118  27.876  11.426  14.782
29725W        W98119  34.896  17.317  13.883
29726W        W98120  39.021  14.508   1.710
29727W        W98121  40.509  18.292   1.882
29728W        W98122   9.372  17.966   3.299
29729W        W98123  16.799  32.866   1.784
29730W        W98124  29.176  35.139   3.840
29731W        W98125  11.063  27.199  13.381
29732W        W98126  13.780   9.294   3.182
29733W        W98127  12.190  30.949  12.852
29734W        W98128  42.295  37.407   1.732
29735W        W98129  25.695  15.198   2.882
29736W        W98130  22.733   5.923   0.753
29737W        W98131  43.085  39.549   2.959
29738W        W98132  36.472   4.732   0.327
29739W        W98133  41.342  11.011   1.263
29740W        W98134  42.786  29.484  12.946
29741W        W98135  43.885  19.717  11.882
29742W        W98136  38.084   8.131  11.156
29743W        W98137  13.590  41.467  10.648
29744W        W98138  11.026  29.900   3.776
29745W        W98139  35.412   2.005  13.472
29746W        W98140  23.731   6.322   2.136
29747W        W98141  40.970  33.134  11.507
29748W        W98142  11.775   3.886   0.390
29749W        W98143  34.613  19.683   0.696
29750W        W98144  22.600  35.601   0.831
29751W        W98145   6.982  28.558   1.163
29752W        W98146  42.891  26.653  11.536
29753W        W98147  43.332  42.919   3.197
29754W        W98148  11.552  35.162   4.133
29755W        W98149  24.546  31.640  12.048
29756W        W98150  36.914  25.149   1.312
29757W        W98151  12.568  11.618   1.740
29758W        W98152  35.570  10.152   3.313
29759W        W98153   1.229  42.935  13.037
29760W        W98154  40.337   8.809  13.316
29761W        W98155  38.430  24.475  10.552
29762W        W98156   9.892   7.363   0.306
29763W        W98157   6.285  19.789  13.874
29764W        W98158  34.346   4.395  10.959
29765W        W98159  12.611   8.685  12.923
29766W        W98160  17.837  40.129   4.128
29767W        W98161  36.866   0.262  11.444
29768W        W98162  22.321  42.360  11.034
29769W        W98163   9.256  16.696   1.633
29770W        W98164   3.977   8.822   2.472
29771W        W98165  14.199  29.482   2.279
29772W        W98166   6.389  10.570   0.330
29773W        W98167  10.583  16.146   3.780
29774W        W98168  10.619  14.661   1.211
29775W        W98169   7.878  33.136  10.800
29776W        W98170  29.009  25.184  12.054
29777W        W98171  29.553  39.035  14.872
29778W        W98172  33.508  38.802   1.828
29779W        W98173  15.219  25.443   1.764
29780W        W98174   8.536  34.612  10.998
29781W        W98175  28.170  38.605   4.412
29782W        W98176  26.624  20.500   4.332
29783W        W98177  41.935  19.234  13.398
29784W        W98178  26.148  41.741  12.752
29785W        W98179  42.379  29.599   2.229
29786W        W98180  28.461   1.665   3.180
29787W        W98181   9.323  23.137   1.427
29788W        W98182  22.768  41.282  11.646
29789W        W98183  28.040  30.361  14.156
29790W        W98184   3.546  32.611  12.543
29791W        W98185  24.741  21.069  13.161
29792W        W98186  20.834  32.003   4.804
29793W        W98187  20.167   1.208   0.241
29794W        W98188  25.935  27.153   3.830
29795W        W98189  15.647   2.333  12.061
29796W        W98190   2.221  18.159   1.453
29797W        W98191  14.037   0.893  12.959
29798W        W98192  17.590  23.092   4.987
29799W        W98193  30.194  15.611   2.817
29800W        W98194   0.175  23.116  11.997
29801W        W98195  41.586  41.412   4.597
29802W        W98196  20.643  20.599  14.751
29803W        W98197  37.570   0.997   2.025
29804W        W98198   4.902   2.090  11.616
29805W        W98199  38.363  39.495  13.575
29806W        W98200  22.633  36.538   2.679
29807W        W98201  34.530  41.981  11.868
29808W        W98202  16.050  18.500   5.032
29809W        W98203  29.659  43.048  12.540
29810W        W98204  36.321  37.023   3.961
29811W        W98205  44.275  35.817   2.324
29812W        W98206  32.956  12.218   2.451
29813W        W98207  10.361  16.670   4.836
29814W        W98208  43.826  35.478  11.236
29815W        W98209  43.247  34.320  12.481
29816W        W98210  44.809   5.590  14.911
29817W        W98211  35.324   0.957   3.671
29818W        W98212  31.004   5.333  14.322
29819W        W98213  33.479  41.916   0.941
29820W        W98214  18.128   6.749   0.804
29821W        W98215   9.408  14.523  13.530
29822W        W98216  43.908  32.424   1.249
29823W        W98217  27.478  13.096  14.072
29824W        W98218   9.244   2.913   9.762
29825W        W98219  29.644  23.919   0.044
29826W        W98220   7.204   7.103  13.286
29827W        W98221  43.778   6.367   2.687
29828W        W98222  32.671  24.503  12.558
29829W        W98223   9.577  15.559   4.730
29830W        W98224   4.170   5.462  14.582
29831W        W98225  18.469  16.034   5.434
29832W        W98226  33.376  12.626   1.704
29833W        W98227  41.167   9.266   1.897
29834W        W98228  41.385  16.773  10.736
29835W        W98229  25.581  21.547  12.501
29836W        W98230   2.900  21.030  12.078
29837W        W98231  34.401   4.670  13.876
29838W        W98232  31.405  36.964  11.980
29839W        W98233   4.891  12.301  11.138
29840W        W98234  22.901  34.155   2.433
29841W        W98235   0.698  39.542   4.276
29842W        W98236  15.655  44.791  14.992
29843W        W98237   5.721  31.017  12.098
29844W        W98238  15.468  20.977  10.277
29845W        W98239  24.986   7.839  11.073
29846W        W98240  33.680  11.840  11.013
29847W        W98241  33.134  29.935   3.353
29848W        W98242  41.964  17.292  11.499
29849W        W98243  42.527  40.280   2.855
29850W        W98244  14.675   4.799  13.422
29851W        W98245   5.764  41.104   0.278
29852W        W98246  22.251  20.061  13.813
29853W        W98247  13.840   8.821  12.522
29854W        W98248  38.477   3.991  11.654
29855W        W98249  43.361  21.741  10.679
29856W        W98250  40.819  35.687   3.836
29857W        W98251   7.338  36.556  11.619
29858W        W98252  18.028   8.746   1.953
29859W        W98253  35.291   8.331  12.506
29860W        W98254  12.199  30.373  12.214
29861W        W98255  12.616   5.454   5.031
29862W        W98256   7.807   9.103  12.626
29863W        W98257  22.187  26.388  12.099
29864W        W98258  20.923  13.562   0.898
29865W        W98259  43.911   1.949  14.883
29866W        W98260  27.921  23.296   0.937
29867W        W98261   9.547  22.772  11.090
29868W        W98262  12.108  16.760  14.549
29869W        W98263  31.511   7.941   0.046
29870W        W98264  15.981   8.766   4.051
29871W        W98265  29.537  22.003   4.341
29872W        W98266  23.577  44.120  14.599
29873W        W98267  37.946  20.152  13.475
29874W        W98268  37.550  31.472  13.768
29875W        W98269  21.893  35.681  12.063
29876W        W98270  28.410  33.526  11.493
29877W        W98271  40.571  19.279   2.289
29878W        W98272  15.525  23.781   3.825
29879W        W98273  12.632  30.269  12.821
29880W        W98274  23.192  30.340  14.822
29881W        W98275  24.968  24.393   3.338
29882W        W98276  11.895   6.746   2.385
29883W        W98277  15.089   7.804   2.073
29884W        W98278  21.566  15.334  13.915
29885W        W98279  44.356  29.049  14.966
29886W        W98280   8.020  13.556  14.795
29887W        W98281  13.596  26.553   4.333
29888W        W98282   5.813  41.533  12.333
29889W        W98283   1.586  42.587  11.693
29890W        W98284  12.586  27.270   4.239
29891W        W98285  22.458  39.822   2.580
29892W        W98286   4.937  17.637   0.936
29893W        W98287  20.194  23.002   3.648
29894W        W98288  21.194  15.706  13.786
29895W        W98289   5.831  36.482   1.305
29896W        W98290   9.841  22.655   4.030
29897W        W98291   0.981  39.626  11.247
29898W        W98292   3.364   6.987  13.444
29899W        W98293   2.745  41.885  14.532
29900W        W98294  16.792   4.330  12.831
29901W        W98295  10.209   4.298   0.005
29902W        W98296  16.579   9.433   3.707
29903W        W98297  13.833  42.119   4.022
29904W        W98298  18.302  28.606   4.103
29905W        W98299  39.684  29.517   4.421
29906W        W98300  17.489  20.219  11.147
29907W        W98301  15.174   4.716   5.069
29908W        W98302  17.405  32.159   0.869
29909W        W98303  29.900  43.487  12.139
29910W        W98304  28.971  28.682  12.449
29911W        W98305   9.144  28.474  12.352
29912W        W98306   6.372  11.778  13.486
29913W        W98307   3.935   5.185  14.177
29914W        W98308  39.327   8.736  13.543
29915W        W98309   0.661  25.163  10.417
29916W        W98310  38.762   6.872   2.207
29917W        W98311  18.528  19.160   0.961
29918W        W98312  16.664  27.040   1.203
29919W        W98313  25.116   5.510  11.656
29920W        W98314  27.421  35.628   4.707
29921W        W98315  22.010  27.685  13.326
29922W        W98316   1.443  23.056  12.519
29923W        W98317  37.011  18.174  13.730
29924W        W98318  23.905  10.568   0.228
29925W        W98319   4.769  16.258  14.804
29926W        W98320  40.957  36.354  14.795
29927W        W98321  10.870  38.937   0.965
29928W        W98322  37.458  29.348   0.291
29929W        W98323  24.498  40.342  12.086
29930W        W98324  11.870   7.611   3.444
29931W        W98325  42.297  30.508  11.135
29932W        W98326   8.019  36.783   3.661
29933W        W98327  26.265   4.507  11.987
29934W        W98328  27.761  29.458  13.925
29935W        W98329  19.892  16.217   4.103
29936W        W98330  15.674  14.364  13.983
29937W        W98331  18.313  15.125  11.234
29938W        W98332  37.902  33.637   0.000
29939W        W98333  19.494  40.050   2.381
29940W        W98334  26.594  25.968  14.540
29941W        W98335   2.296  33.892   0.034
29942W        W98336  33.038  32.285   3.277
29943W        W98337   0.241   2.700   1.182
29944W        W98338  27.149   8.042  12.895
29945W        W98339  28.215  36.335   2.609
29946W        W98340  24.166   6.297   2.421
29947W        W98341   1.781  29.759   4.237
29948W        W98342  37.835  23.528   2.755
29949W        W98343  20.705   1.356   0.453
29950W        W98344  18.354  17.093  14.353
29951W        W98345  34.734  12.586  11.047
29952W        W98346  35.180  13.212   3.231
29953W        W98347  44.611   8.239  12.102
29954W        W98348  15.690  16.695  13.249
29955W        W98349  10.289  36.536   1.733
29956W        W98350  23.189  32.362  10.550
29957W        W98351  12.592  39.004  13.338
29958W        W98352   0.643  42.089   4.080
29959W        W98353   0.191  25.210   2.007
29960W        W98354  22.134   0.428   4.563
29961W        W98355   8.241  16.061  13.057
29962W        W98356  24.780  27.932   4.308
29963W        W98357  41.407   6.231   4.647
29964W        W98358  27.115   6.201  10.154
29965W        W98359  40.065  28.955   0.448
29966W        W98360  13.865  44.886  12.070
29967W        W98361   2.503   8.405  12.074
29968W        W98362  29.129  35.651  11.572
29969W        W98363  35.101  15.008   3.205
29970W        W98364  10.544  21.438  11.017
29971W        W98365   6.413   8.251   0.986
29972W        W98366  32.692  14.226  11.151
29973W        W98367   0.369  17.243   0.545
29974W        W98368  37.813   2.179   2.666
29975W        W98369  18.179  29.802   1.397
29976W        W98370   6.910  10.261  13.819
29977W        W98371   0.684  24.498   4.886
29978W        W98372  19.518  22.771   1.843
29979W        W98373  34.982  43.274  14.313
29980W        W98374   9.746  43.064   2.084
29981W        W98375   3.825  18.585   2.874
29982W        W98376  26.211   6.443  14.728
29983W        W98377  32.079  19.803  10.156
29984W        W98378  31.614  41.060   4.130
29985W        W98379   5.274   8.734  13.253
29986W        W98380   6.116  16.377  10.224
29987W        W98381  34.390  41.967  11.365
29988W        W98382   8.205   7.500  13.827
29989W        W98383  30.469  28.836  10.450
29990W        W98384  36.545  31.797   0.814
29991W        W98385  25.032  32.454  11.388
29992W        W98386  11.964  22.239  12.773
29993W        W98387  19.503  21.480   0.376
29994W        W98388  41.019  10.552  13.756
29995W        W98389  13.266  25.181  11.273
29996W        W98390  12.065  35.041   0.005
29997W        W98391  29.136  14.878   4.640
29998W        W98392  28.061  12.509  13.812
29999W        W98393  36.124  13.039   3.632
30000W        W98394   6.812  40.525  12.395
30001W        W98395   3.853  35.026   3.060
30002W        W98396  28.658  44.269   3.267
30003W        W98397  15.644  12.862  13.762
30004W        W98398  21.669  21.751   0.007
30005W        W98399  11.681  37.439  10.494
30006W        W98400  26.270  24.100   3.160
30007W        W98401  21.616  39.447   4.659
30008W        W98402  11.600   2.799  11.641
30009W        W98403   9.353  32.868  11.203
30010W        W98404  39.301  28.781  12.300
30011W        W98405   6.421  15.770   2.604
30012W        W98406  20.651  42.734   1.770
30013W        W98407  11.599  36.083   0.834
30014W        W98408  35.085  11.858  14.881
30015W        W98409  17.434  15.841   5.073
30016W        W98410  33.082  13.766  14.855
30017W        W98411   4.493   1.577   1.849
30018W        W98412   1.347  35.168  13.508
30019W        W98413  18.808  36.308   0.856
30020W        W98414  10.894   1.132  13.921
30021W        W98415  36.435  24.509   4.391
30022W        W98416  24.754   3.423  10.966
30023W        W98417  29.590  28.912  12.021
30024W        W98418   9.183  31.704  14.308
30025W        W98419  21.069  21.659  14.283
30026W        W98420  19.706  14.584   4.608
30027W        W98421   5.720  29.862  14.681
30028W        W98422   0.484   0.690   2.608
30029W        W98423  41.720   8.593   1.965
30030W        W98424  33.962   5.744  12.276
30031W        W98425  42.781  32.304  12.625
30032W        W98426  15.556  10.555   3.751
30033W        W98427  19.188  27.938  14.392
30034W        W98428  40.606  41.946  12.353
30035W        W98429   3.486  21.537  14.728
30036W        W98430  18.606  30.562   3.368
30037W        W98431  27.145  39.795   1.445
30038W        W98432  24.714   1.775   0.859
30039W        W98433  21.683  17.066  14.426
30040W        W98434  20.738  39.005  11.743
30041W        W98435   6.936  27.069  12.445
30042W        W98436  26.018  21.791  12.562
30043W        W98437  17.112  27.133  10.711
30044W        W98438  20.687  40.264   4.614
30045W        W98439   3.813  22.761   0.322
30046W        W98440  40.933  28.131   4.748
30047W        W98441   2.541   7.098   4.092
30048W        W98442  10.860  21.652   0.077
30049W        W98443  35.116  33.108   1.370
30050W        W98444  35.642  13.818   3.920
30051W        W98445   6.765  42.279  14.565
30052W        W98446   5.936  12.436  12.044
30053W        W98447  18.278  19.164  13.233
30054W        W98448  18.337  26.549  12.357
30055W        W98449  36.474  29.870   4.204
30056W        W98450  21.762   1.656   4.125
30057W        W98451  17.736  19.604  10.186
30058W        W98452  19.288  12.618  13.977
30059W        W98453  44.550  30.539  12.005
30060W        W98454  14.609  34.049   2.881
30061W        W98455  41.914   6.204   3.654
30062W        W98456   8.645  10.804  12.055
30063W        W98457  33.669  43.299  14.771
30064W        W98458  37.080  37.665   2.389
30065W        W98459  37.497  13.323  14.864
30066W        W98460  32.913  11.203  11.151
30067W        W98461  37.419  38.639   4.897
30068W        W98462  41.031  21.584  12.627
30069W        W98463  15.923  27.712  13.807
30070W        W98464  18.632  36.836   2.763
30071W        W98465   8.708  39.419   0.884
30072W        W98466   1.811  28.214   1.330
30073W        W98467  30.433   2.248  11.762
30074W        W98468  20.201  28.375   3.856
30075W        W98469  44.513   4.888   3.241
30076W        W98470  40.442  10.247   2.635
30077W        W98471  42.769   1.568   4.243
30078W        W98472  39.835   7.898  13.546
30079W        W98473  36.992  13.074   0.738
30080W        W98474  27.442   7.880  12.016
30081W        W98475   0.831  20.034   9.997
30082W        W98476  43.735  23.608   3.323
30083W        W98477  19.271  10.573  14.885
30084W        W98478  21.542  28.283  11.141
30085W        W98479  31.906  30.394  11.461
30086W        W98480   1.382  44.319   1.183
30087W        W98481  44.138  32.780  11.102
30088W        W98482   9.475  12.109  14.913
30089W        W98483   3.275  31.124  12.502
30090W        W98484  26.268  29.600  13.967
30091W        W98485  41.029  39.902   4.678
30092W        W98486  39.987  39.013   9.640
30093W        W98487   8.911  28.762  12.020
30094W        W98488  11.745  22.272   1.421
30095W        W98489  44.477  29.017   2.187
30096W        W98490  22.984  29.697   3.716
30097W        W98491  17.132  29.668   1.227
30098W        W98492   7.718  12.901  11.961
30099W        W98493  41.773  41.665  13.861
30100W        W98494   5.580  11.659   0.176
30101W        W98495  35.610  37.036   2.756
30102W        W98496  10.452  34.958   3.132
30103W        W98497  27.249   4.331  12.167
30104W        W98498  30.691  36.728   3.765
30105W        W98499  14.847  38.288  11.566
30106W        W98500  37.439  21.529  10.606
30107W        W98501   1.131  11.916   2.389
30108W        W98502  32.840   6.223   3.750
30109W        W98503   1.203  22.382   1.222
30110W        W98504   1.215  29.378   3.113
30111W        W98505  23.008  13.686  10.580
30112W        W98506  35.471   1.384   0.562
30113W        W98507  28.578  21.754  14.011
30114W        W98508  13.034  29.631   3.211
30115W        W98509  18.370   1.281   0.869
30116W        W98510   5.846  12.654   1.456
30117W        W98511  24.000  16.833  11.184
30118W        W98512   4.315  12.584   4.598
30119W        W98513  30.175  42.042   1.229
30120W        W98514   3.343  25.259   0.147
30121W        W98515  28.442  33.118   3.129
30122W        W98516  17.137  16.626  14.949
30123W        W98517  27.563  27.149  12.693
30124W        W98518  25.608  43.523   2.416
30125W        W98519   6.067   2.648   0.398
30126W        W98520  11.257  25.625   4.726
30127W        W98521  28.531  37.463  14.385
30128W        W98522  30.409  35.814  11.860
30129W        W98523  27.667  29.799  12.102
30130W        W98524  19.030  18.218  12.632
30131W        W98525  22.529   8.729  13.311
30132W        W98526  29.698  28.200   9.810
30133W        W98527   7.851   3.276   0.902
30134W        W98528  26.736  15.805   0.426
30135W        W98529   4.128  24.217  14.061
30136W        W98530  25.215   0.466  12.935
30137W        W98531   2.452  13.553   9.919
30138W        W98532  26.479  41.389  11.111
30139W        W98533   2.018  44.248  13.835
30140W        W98534  28.888   5.964   4.605
30141W        W98535  15.123  25.964  12.456
30142W        W98536   0.865  20.580   4.778
30143W        W98537  36.373   0.440   3.182
30144W        W98538   5.281  34.192   1.105
30145W        W98539  14.690  38.864   4.675
30146W        W98540  24.025  42.323   0.705
30147W        W98541  22.900  23.073   3.734
30148W        W98542  41.833  29.517   4.311
30149W        W98543  41.746  19.080   0.884
30150W        W98544  22.033  30.085   3.182
30151W        W98545  19.659  44.867  11.760
30152W        W98546  36.620  11.753   2.005
30153W        W98547   7.305  17.680   2.916
30154W        W98548   9.886  34.340   2.598
30155W        W98549  19.793   2.416  13.865
30156W        W98550   6.080  20.679  13.071
30157W        W98551  37.159  22.478  14.884
30158W        W98552  44.949  26.310  11.654
30159W        W98553  24.080   4.904   3.673
30160W        W98554  30.344  24.475  12.195
30161W        W98555  40.816  31.778   2.732
30162W        W98556  42.822  23.467   2.399
30163W        W98557  21.427   0.394   1.049
30164W        W98558   6.953  32.996  14.138
30165W        W98559  34.612  14.822  11.896
30166W        W98560  39.316   1.808  11.149
30167W        W98561  22.615  22.593   0.405
30168W        W98562  41.411  38.875   2.691
30169W        W98563  24.195   9.705   5.071
30170W        W98564   7.585  12.224   4.851
30171W        W98565  18.151  10.134   4.531
30172W        W98566  38.338   4.866   0.268
30173W        W98567  21.665   7.337  13.340
30174W        W98568  43.027  41.177  11.540
30175W        W98569  33.243  22.628  13.532
30176W        W98570  18.993   3.216   1.650
30177W        W98571  37.759  22.803   4.901
30178W        W98572  14.692  26.977   0.478
30179W        W98573  37.839   4.923   3.901
30180W        W98574  39.499   9.216   0.244
30181W        W98575   1.370  14.328  10.976
30182W        W98576  32.603   8.747  12.128
30183W        W98577  43.435  32.677  11.567
30184W        W98578  24.474   9.280  12.975
30185W        W98579   9.430  31.158  13.270
30186W        W98580  14.685  40.451   3.204
30187W        W98581  17.424  30.013   2.589
30188W        W98582  35.405  35.110   0.913
30189W        W98583   3.714  34.026  10.782
30190W        W98584  31.385  39.480  12.550
30191W        W98585  32.532  29.534  12.620
30192W        W98586   8.806  40.368  14.107
30193W        W98587  41.063  22.134  14.391
30194W        W98588   6.485  39.373   3.158
30195W        W98589  43.117   5.854  14.433
30196W        W98590  20.193   4.193   2.864
30197W        W98591  20.080  42.968  14.870
30198W        W98592  20.747  22.981   3.477
30199W        W98593   3.018  25.046   3.210
30200W        W98594  19.199  36.496  13.472
30201W        W98595   1.358  34.157   1.948
30202W        W98596   5.827  34.187   4.396
30203W        W98597  38.345  13.184  12.358
30204W        W98598   7.337  42.301   4.238
30205W        W98599   9.159  27.769  12.820
30206W        W98600  35.109  40.647  14.032
30207W        W98601   0.396  15.142   0.025
30208W        W98602  19.206   7.141  12.711
30209W        W98603  38.073  22.386  12.994
30210W        W98604   3.735  17.568  12.836
30211W        W98605  13.080  41.346  13.805
30212W        W98606  32.137  31.904  13.533
30213W        W98607  16.578  31.809  13.363
30214W        W98608  13.522   1.613   1.819
30215W        W98609   1.509  19.935  14.072
30216W        W98610  10.314  31.816   0.453
30217W        W98611  26.070  17.972  13.011
30218W        W98612  25.036  44.719  13.443
30219W        W98613  30.622  20.749   1.921
30220W        W98614  11.094  21.061   3.701
30221W        W98615  21.583  24.919   4.627
30222W        W98616   0.193   5.468  11.985
30223W        W98617  30.981  18.146   3.750
30224W        W98618  33.436   6.710  11.647
30225W        W98619  28.958   7.422  13.743
30226W        W98620   4.059  20.765   4.285
30227W        W98621  24.469  29.748  10.415
30228W        W98622  43.290   6.873   3.436
30229W        W98623  28.697  36.964   0.270
30230W        W98624   4.693   4.779  14.495
30231W        W98625  24.655  15.795  10.786
30232W        W98626  32.246   1.713   1.777
30233W        W98627   1.785  32.672  14.060
30234W        W98628   6.962  34.026  13.130
30235W        W98629  14.585  39.090   4.231
30236W        W98630  38.504  30.892   1.379
30237W        W98631  14.320  18.838   4.767
30238W        W98632  31.907  24.313   2.716
30239W        W98633  39.633  29.120  11.644
30240W        W98634  43.145   2.195   2.893
30241W        W98635  42.060   3.278   4.244
30242W        W98636  20.193   5.922   2.206
30243W        W98637   9.962  15.779  11.234
30244W        W98638  13.598  12.703  13.068
30245W        W98639   7.383  41.455   4.549
30246W        W98640   7.931  26.440   2.304
30247W        W98641  38.875  27.036  11.227
30248W        W98642   1.408   0.510   1.266
30249W        W98643  22.384  10.850   0.808
30250W        W98644   8.901  20.045   2.712
30251W        W98645  44.351  11.888  13.495
30252W        W98646  39.333  19.116  14.392
30253W        W98647  17.680  25.491   1.362
30254W        W98648  28.219  43.419   5.017
30255W        W98649  13.260  11.125  14.741
30256W        W98650  30.452  34.004  13.047
30257W        W98651   1.770  16.296  12.509
30258W        W98652  35.891  16.007  12.839
30259W        W98653  43.824  39.529  11.438
30260W        W98654  12.462  32.406   3.309
30261W        W98655   8.695   4.237  12.985
30262W        W98656   5.421  38.867   1.688
30263W        W98657  24.886  28.131  10.978
30264W        W98658  38.837  27.144  13.671
30265W        W98659  31.789   3.154  12.739
30266W        W98660  14.785   3.862   1.670
30267W        W98661  43.934   7.876   2.890
30268W        W98662   0.758  42.571  13.589
30269W        W98663  36.660  18.251   0.270
30270W        W98664  11.609  19.450  14.040
30271W        W98665  33.525  22.192  13.999
30272W        W98666  26.607  11.753   0.906
30273W        W98667  39.280  10.676  10.691
30274W        W98668  41.361   0.555   4.527
30275W        W98669  12.955   3.566   2.784
30276W        W98670  40.565  21.358   4.342
30277W        W98671  29.565  22.710  11.052
30278W        W98672  20.243  26.779   2.749
30279W        W98673   2.740  12.599  10.927
30280W        W98674  32.028  22.427   4.583
30281W        W98675   4.635  39.266   1.352
30282W        W98676  39.310  22.045   3.181
30283W        W98677  34.939  11.375   3.287
30284W        W98678  40.800   4.322  14.446
30285W        W98679  41.913  15.565   1.408
30286W        W98680  35.793  19.191  14.426
30287W        W98681  22.658  22.975  14.414
30288W        W98682  25.109   2.434   0.367
30289W        W98683  11.037  10.645  12.206
30290W        W98684  30.203  26.034   2.170
30291W        W98685  40.404  14.204  13.450
30292W        W98686   3.231  29.358  11.555
30293W        W98687  25.432  11.113  12.908
30294W        W98688  44.895   7.815   3.627
30295W        W98689  12.473  42.229   0.693
30296W        W98690   7.630  30.984   2.856
30297W        W98691   8.641  23.748   0.968
30298W        W98692  19.145  18.150  11.686
30299W        W98693  30.823  31.076  12.899
30300W        W98694  11.481  25.759   2.351
30301W        W98695   7.933  39.358   4.699
30302W        W98696  40.861   1.431   0.801
30303W        W98697  42.968  29.120   0.968
30304W        W98698   6.418  39.004  12.167
30305W        W98699  19.208  42.990   1.827
30306W        W98700  44.970   7.184  10.788
30307W        W98701  22.487  19.311  12.358
30308W        W98702   4.185  43.352  14.286
30309W        W98703   3.169  41.293  13.974
30310W        W98704  37.157   5.765  11.710
30311W        W98705   8.881  42.810   1.913
30312W        W98706  30.856  37.116   0.670
30313W        W98707  20.081  35.873  11.640
30314W        W98708  35.237  26.407  14.672
30315W        W98709  40.820  15.205   2.899
30316W        W98710  44.456  44.707  10.690
30317W        W98711   2.366  37.537   2.775
30318W        W98712  41.893  41.564   1.610
30319W        W98713   9.830  22.810   4.577
30320W        W98714  12.659  16.138  10.636
30321W        W98715  10.075  34.399  14.507
30322W        W98716  32.960  33.918   2.777
30323W        W98717  28.650  36.982  12.492
30324W        W98718  39.862  28.306  10.606
30325W        W98719   9.698  37.995   3.262
30326W        W98720  27.969  42.902  12.068
30327W        W98721  34.364  32.049   0.579
30328W        W98722  15.739   7.631   2.821
30329W        W98723  14.560   9.111   2.586
30330W        W98724  44.304  37.500   1.869
30331W        W98725  21.705  29.303   5.055
30332W        W98726  32.875  29.312   0.173
30333W        W98727   6.026  23.171   3.292
30334W        W98728  29.138  15.108   3.832
30335W        W98729   5.458   9.963   3.569
30336W        W98730  22.544  37.925  14.783
30337W        W98731  36.971  13.217   1.703
30338W        W98732  15.518   5.921   3.744
30339W        W98733  22.472  14.572  12.883
30340W        W98734  13.216   6.654   1.701
30341W        W98735  39.292  29.637   4.093
30342W        W98736  29.063  40.308   1.751
30343W        W98737  44.364  13.948  12.501
30344W        W98738   8.844  33.018  13.259
30345W        W98739  20.972  12.267  12.430
30346W        W98740  17.077   2.614   4.097
30347W        W98741   3.698  15.354  12.911
30348W        W98742  15.397  40.469   2.580
30349W        W98743   0.441  18.783  11.653
30350W        W98744  25.080  37.364   1.362
30351W        W98745  30.932  38.068   0.860
30352W        W98746  18.299  19.740  10.034
30353W        W98747  22.194  11.666   4.921
30354W        W98748  22.229   0.979  14.695
30355W        W98749  23.552  37.022   0.463
30356W        W98750  34.062  14.253   0.279
30357W        W98751   4.392  18.582   4.589
30358W        W98752  31.034  14.909   0.822
30359W        W98753  44.813  15.742   1.403
30360W        W98754  35.139   4.871   4.150
30361W        W98755  43.166  18.311  13.871
30362W        W98756   6.878  11.716  13.657
30363W        W98757  33.890  36.496  14.705
30364W        W98758  19.570  15.298  13.579
30365W        W98759  26.546  38.511  11.197
30366W        W98760  32.974  21.184   3.273
30367W        W98761  37.321  15.728   0.704
30368W        W98762  41.306   8.884   0.302
30369W        W98763  25.200   7.246  14.765
30370W        W98764   3.442  25.362   1.002
30371W        W98765   4.464  33.913  14.324
30372W        W98766  41.388  29.562   2.347
30373W        W98767  29.106  34.993   1.837
30374W        W98768  19.989  41.079  13.554
30375W        W98769  39.480  34.554   1.209
30376W        W98770  30.114  16.683   2.437
30377W        W98771  30.933   9.384  13.356
30378W        W98772   7.422   8.644   0.823
30379W        W98773  28.094  40.571  13.539
30380W        W98774  35.812   1.133   4.891
30381W        W98775   3.990  11.129   0.429
30382W        W98776  17.598  43.557  12.156
30383W        W98777   4.988  33.435   3.230
30384W        W98778   6.475  20.861   1.934
30385W        W98779  43.351   4.600  10.853
30386W        W98780  24.575  18.145   1.738
30387W        W98781  16.211  23.943  13.067
30388W        W98782   2.894  13.004   3.342
30389W        W98783  31.301  41.115  11.961
30390W        W98784  15.697  43.233   4.116
30391W        W98785   4.849  17.239  13.601
30392W        W98786  44.195  17.076   1.690
30393W        W98787  17.240   6.225   4.687
30394W        W98788   5.257  24.431  11.424
30395W        W98789  38.790  29.873   1.740
30396W        W98790  12.641  32.378  10.773
30397W        W98791   0.841  18.704  13.939
30398W        W98792  33.820  44.948  11.263
30399W        W98793  36.984   4.831   0.901
30400W        W98794  22.019  16.047  13.369
30401W        W98795  22.236   7.067  11.148
30402W        W98796  22.554  30.584  11.386
30403W        W98797  42.384   1.266   3.883
30404W        W98798   4.100  22.272   3.303
30405W        W98799   6.373  23.369  12.640
30406W        W98800  43.083  39.965  10.571
30407W        W98801   8.409   3.074   0.306
30408W        W98802  40.953  24.039   4.184
30409W        W98803  24.734   2.395   3.314
30410W        W98804  15.526  12.439   2.847
30411W        W98805  20.231  22.307  12.628
30412W        W98806  38.054  44.433   4.645
30413W        W98807  38.573  34.419  12.848
30414W        W98808   2.380  32.633  11.630
30415W        W98809   2.800  26.619  14.492
30416W        W98810   3.452  28.779   1.842
30417W        W98811  15.254   8.411  12.775
30418W        W98812   9.351  43.904   2.776
30419W        W98813   7.150  26.946   0.921
30420W        W98814  18.090  40.556  14.791
30421W        W98815   9.734  35.556   3.099
30422W        W98816  34.979  38.454   3.758
30423W        W98817  23.753  42.867   0.185
30424W        W98818   7.701  32.445   2.886
30425W        W98819  28.210   2.376   1.339
30426W        W98820  35.381   7.877   2.356
30427W        W98821  16.231  29.907  12.530
30428W        W98822  11.762  31.406  13.476
30429W        W98823  11.697  41.293  12.626
30430W        W98824   5.033  44.842  11.464
30431W        W98825  36.509  44.977  11.181
30432W        W98826  40.292  18.465  12.154
30433W        W98827  39.705  43.848   3.836
30434W        W98828   2.488   9.809  13.015
30435W        W98829  13.373  21.301   3.220
30436W        W98830   1.881  42.304  10.883
30437W        W98831  42.526  28.006  12.066
30438W        W98832  40.052  32.499  12.273
30439W        W98833  15.818  34.953   1.682
30440W        W98834  22.784  27.509  11.460
30441W        W98835  33.420  39.947  13.011
30442W        W98836  29.941  17.373  10.930
30443W        W98837   0.696   6.241   0.022
30444W        W98838  26.171  44.245   1.838
30445W        W98839   4.717  28.642   2.409
30446W        W98840  41.061  21.180   1.190
30447W        W98841  38.811  28.091   3.203
30448W        W98842  21.798   3.897  14.299
30449W        W98843  35.839  20.800   0.319
30450W        W98844   2.717  41.531  13.123
30451W        W98845  25.532  37.456  12.117
30452W        W98846   3.946   8.785  14.399
30453W        W98847   0.191  32.446   2.421
30454W        W98848  36.081  23.758  11.498
30455W        W98849  34.321  20.052  13.387
30456W        W98850  39.367  36.021  13.106
30457W        W98851  19.650  11.323  13.164
30458W        W98852  21.066  23.723   1.401
30459W        W98853  38.520  14.303   1.692
30460W        W98854  26.621  43.068  13.458
30461W        W98855  20.548  41.921   4.604
30462W        W98856  25.496   0.373  14.255
30463W        W98857  37.640  12.364   0.241
30464W        W98858  15.770  39.295   2.811
30465W        W98859   2.772  43.736   2.367
30466W        W98860  17.783   0.887  12.775
30467W        W98861  14.829  25.339   4.392
30468W        W98862   2.064  44.262  11.617
30469W        W98863  17.186  12.382   3.896
30470W        W98864  22.759   4.387   3.270
30471W        W98865  37.764  34.889  13.849
30472W        W98866  43.990  40.026   0.297
30473W        W98867   2.496  35.773  14.288
30474W        W98868  13.893  33.094  12.469
30475W        W98869   8.187  17.117  10.587
30476W        W98870   9.648  33.142   0.321
30477W        W98871  23.991   8.228   0.353
30478W        W98872  35.328  10.352   3.727
30479W        W98873  26.227  44.004   1.341
30480W        W98874  38.273   3.426   2.724
30481W        W98875   9.895  25.442   2.148
30482W        W98876  21.452  28.148   0.059
30483W        W98877   0.523  38.546   2.621
30484W        W98878  19.018  42.116   4.187
30485W        W98879  19.217  29.406  12.295
30486W        W98880  36.282  39.384   3.664
30487W        W98881  17.710  17.606   3.437
30488W        W98882  38.999  13.076  11.989
30489W        W98883  24.041  35.332  14.916
30490W        W98884  38.649  26.224   2.474
30491W        W98885   9.294  16.646  14.538
30492W        W98886   1.302  42.518   1.710
30493W        W98887  39.726  27.033  12.936
30494W        W98888  24.047   1.375   3.694
30495W        W98889  19.630   5.201   0.363
30496W        W98890  11.192   4.167   3.058
30497W        W98891  30.010  23.641  12.988
30498W        W98892  15.111  27.175   0.731
30499W        W98893  25.916  12.516   2.277
30500W        W98894  18.541  34.150   1.494
30501W        W98895  11.840  14.293  10.739
30502W        W98896  15.591  28.385   2.359
30503W        W98897  28.474  18.700  11.614
30504W        W98898  31.433   3.007  10.811
30505W        W98899  39.950  20.352  12.575
30506W        W98900   6.459  22.195   2.481
30507W        W98901   7.632   6.788   0.724
30508W        W98902   7.226  24.248  13.501
30509W        W98903  34.577  25.193  12.024
30510W        W98904  32.119  24.000   4.697
30511W        W98905  37.917  41.239   4.128
30512W        W98906  25.663   3.445  14.588
30513W        W98907  26.000  39.768   3.513
30514W        W98908  38.630  21.394   2.761
30515W        W98909  28.262  12.979   9.793
30516W        W98910  40.466   2.735  14.771
30517W        W98911  12.318  35.431  11.570
30518W        W98912  16.737  43.797   2.898
30519W        W98913  29.074  31.212   3.300
30520W        W98914  32.074   0.319  14.290
30521W        W98915  20.797  30.518  11.877
30522W        W98916  37.866  13.488   4.373
30523W        W98917  20.333  38.356  12.023
30524W        W98918  34.581   3.706  11.545
30525W        W98919  39.133  28.606   0.556
30526W        W98920  15.179   0.975   2.424
30527W        W98921  20.508   7.310   1.459
30528W        W98922  37.595  23.971  13.813
30529W        W98923  21.693  34.877  14.701
30530W        W98924  15.779  26.141   3.633
30531W        W98925  30.439  20.013  10.721
30532W        W98926  40.270  22.295  13.294
30533W        W98927  28.931   7.253  11.280
30534W        W98928  12.681   2.949   2.116
30535W        W98929  35.820   0.971  12.499
30536W        W98930  25.669  32.184   0.656
30537W        W98931  43.115  29.521   1.256
30538W        W98932  23.211  23.467  11.151
30539W        W98933   2.156   3.928  11.938
30540W        W98934  31.577  42.316   3.633
30541W        W98935  24.446  20.079  10.758
30542W        W98936   1.096  23.804   1.380
30543W        W98937  39.386   1.056  12.467
30544W        W98938  25.249  19.049  13.794
30545W        W98939  14.567  38.511  10.403
30546W        W98940  43.219   1.869   2.244
30547W        W98941  17.838  13.617  12.480
30548W        W98942   7.715  26.934   9.858
30549W        W98943  39.278  43.325  13.428
30550W        W98944  35.564  36.658  12.963
30551W        W98945  12.678  28.769  12.426
30552W        W98946   2.342  23.902   1.987
30553W        W98947   9.426  31.126  11.544
30554W        W98948  27.146  36.089  10.726
30555W        W98949  24.532   6.308   3.844
30556W        W98950  24.789  13.755   1.782
30557W        W98951  30.104  21.820  13.468
30558W        W98952  11.808  25.176   3.163
30559W        W98953  13.726   8.756   4.549
30560W        W98954  18.109  22.774   4.961
30561W        W98955   8.461  14.864  13.254
30562W        W98956  13.604   5.886   9.834
30563W        W98957  16.412  35.496   1.998
30564W        W98958  19.420  31.473  12.482
30565W        W98959  26.881  11.967   3.217
30566W        W98960  33.963   3.221   2.647
30567W        W98961  31.646   0.622   4.267
30568W        W98962   7.857  36.974  13.311
30569W        W98963  32.482  40.344  11.077
30570W        W98964  23.093  28.967   0.914
30571W        W98965  10.310  17.546  10.681
30572W        W98966  24.455   3.902  11.495
30573W        W98967  28.970  18.079   2.797
30574W        W98968  36.888  36.440  14.705
30575W        W98969  30.843  42.989   2.814
30576W        W98970  42.551  28.536   0.055
30577W        W98971  18.498  15.840   3.277
30578W        W98972   0.415  12.150  12.342
30579W        W98973  28.441  17.515   0.870
30580W        W98974  11.860  40.984  14.119
30581W        W98975  35.975  41.229   3.804
30582W        W98976  33.324   9.823  11.950
30583W        W98977  20.629  30.560   3.115
30584W        W98978   0.972  41.214  11.547
30585W        W98979  36.418  19.771  10.809
30586W        W98980  35.378  37.799  13.826
30587W        W98981  21.823  33.064   2.788
30588W        W98982  43.339  19.052  11.918
30589W        W98983  41.230  30.371   4.172
30590W        W98984  31.405  28.726  12.032
30591W        W98985  16.815   9.401   4.567
30592W        W98986  32.682   4.195  14.988
30593W        W98987  19.433   0.774   3.596
30594W        W98988  34.502  40.109  14.004
30595W        W98989   3.710  15.720   0.908
30596W        W98990  13.602   7.397   2.350
30597W        W98991  21.015  41.440   0.365
30598W        W98992   5.042  15.504   0.448
30599W        W98993   5.399  14.353  12.970
30600W        W98994  13.647  36.842  11.281
30601W        W98995  32.904  42.544   0.131
30602W        W98996  11.757   4.803   2.425
30603W        W98997  32.524  13.732   0.824
30604W        W98998  44.267  12.357  11.520
30605W        W98999  17.723   6.876   2.197
30606W        W99000  39.550  20.529  11.289
30607W        W99001  24.674  40.087   2.479
30608W        W99002   3.175  38.418  14.408
30609W        W99003   6.444  29.667   2.723
30610W        W99004  44.149  33.322   3.792
30611W        W99005  42.301  11.561   3.221
30612W        W99006  27.415  38.557  14.011
30613W        W99007   2.203  40.028   2.800
30614W        W99008  12.342  17.293  14.450
30615W        W99009   3.561  41.773   2.726
30616W        W99010  19.315  29.933  12.130
30617W        W99011  31.523  44.730   4.138
30618W        W99012  41.977  11.810   1.367
30619W        W99013  16.916  22.592  14.595
30620W        W99014  44.890  42.507  10.783
30621W        W99015  15.587   3.813   5.212
30622W        W99016   6.884  39.109   3.390
30623W        W99017  13.571  42.021  14.366
30624W        W99018   0.311  17.392   5.062
30625W        W99019   0.982  23.304   3.362
30626W        W99020   0.371   8.256  14.826
30627W        W99021   7.965  23.273   0.415
30628W        W99022  13.354  22.623  14.894
30629W        W99023  30.140  26.001   4.498
30630W        W99024  34.672   1.216   1.689
30631W        W99025  19.727  27.925  11.554
30632W        W99026  26.955  33.551   2.750
30633W        W99027  35.728  34.637  11.211
30634W        W99028  12.765  15.607   0.227
30635W        W99029  17.222  14.112  11.195
30636W        W99030   5.255   7.797  14.820
30637W        W99031   6.206  39.334  13.786
30638W        W99032  29.508  18.650  11.616
30639W        W99033  10.958  24.782   3.606
30640W        W99034  38.087  33.460   4.663
30641W        W99035  15.277  26.056   2.932
30642W        W99036  40.026   4.479  12.571
30643W        W99037   1.513  11.337   4.567
30644W        W99038  25.775  26.559   0.447
30645W        W99039  15.611  10.361   3.274
30646W        W99040  11.698  21.543   2.938
30647W        W99041  14.222  34.463  11.067
30648W        W99042   7.882  11.399  14.537
30649W        W99043  20.828  26.255   0.882
30650W        W99044   7.354  31.331   4.813
30651W        W99045  14.303   4.975  13.112
30652W        W99046  20.178  36.417   4.812
30653W        W99047   0.640  19.662   1.668
30654W        W99048  24.202  38.248   3.275
30655W        W99049  43.612  13.863  11.967
30656W        W99050   1.353  30.200  11.117
30657W        W99051   2.477   1.819  12.267
30658W        W99052  40.307  11.736  10.327
30659W        W99053   7.759  27.258   0.142
30660W        W99054  34.465  35.022   1.741
30661W        W99055  37.078  28.252  12.063
30662W        W99056  24.513  44.957   5.122
30663W        W99057   3.266  20.640   1.299
30664W        W99058  28.149  25.045  13.676
30665W        W99059  12.324  40.965   4.075
30666W        W99060  15.708  36.042  14.667
30667W        W99061  35.707   5.155  12.855
30668W        W99062   0.043  27.223  11.667
30669W        W99063  38.409   3.427   0.209
30670W        W99064  22.688  22.212   3.231
30671W        W99065  17.140  29.958  10.453
30672W        W99066  42.065   2.338   4.407
30673W        W99067  32.905  21.602  12.913
30674W        W99068  14.265  15.590   0.013
30675W        W99069  15.358  22.625  13.261
30676W        W99070  36.542  20.401  12.985
30677W        W99071  29.789  13.493   2.226
30678W        W99072   7.277  29.088   1.744
30679W        W99073   8.217  15.111   2.667
30680W        W99074   8.729  31.608   2.736
30681W        W99075  22.745   0.551  14.377
30682W        W99076   2.937  26.391   3.191
30683W        W99077  40.828   5.261  11.103
30684W        W99078  37.493  11.325   0.730
30685W        W99079  39.375  21.155  10.526
30686W        W99080   2.372  41.956   1.944
30687W        W99081  38.511  37.369   2.236
30688W        W99082   2.793  34.597  14.909
30689W        W99083  44.221  13.297   1.182
30690W        W99084  21.948   1.939  10.674
30691W        W99085   8.865  17.823   3.125
30692W        W99086  31.854  40.185   4.902
30693W        W99087  31.745  39.836  13.911
30694W        W99088   6.909  18.046   4.587
30695W        W99089   1.094  24.402  11.521
30696W        W99090  26.571   9.959  11.585
30697W        W99091  43.625  38.504  14.130
30698W        W99092   0.410  41.921   1.785
30699W        W99093  11.646  28.686   0.477
30700W        W99094   6.498  23.910   3.684
30701W        W99095  11.738  34.394   0.940
30702W        W99096   6.359  19.995   0.489
30703W        W99097  21.421  12.783  10.624
30704W        W99098  26.078  16.023   1.910
30705W        W99099  21.399   9.120   3.571
30706W        W99100  43.048  23.772   4.615
30707W        W99101  17.521  35.482   4.209
30708W        W99102   6.898  15.866   3.571
30709W        W99103  24.066  11.524  12.551
30710W        W99104  22.497   8.197  10.811
30711W        W99105  25.111  20.286  14.979
30712W        W99106  17.840  14.341   0.444
30713W        W99107  36.981  23.215  13.873
30714W        W99108  29.751   7.910   0.865
30715W        W99109   4.371   3.296   3.224
30716W        W99110  28.263   8.723  11.529
30717W        W99111  20.481   8.296   2.694
30718W        W99112  38.395  26.945   4.224
30719W        W99113  12.314  14.562  13.491
30720W        W99114  34.282   0.273   3.213
30721W        W99115  25.950  28.948   4.159
30722W        W99116   6.714   1.380   3.708
30723W        W99117  29.067  10.909   1.450
30724W        W99118  35.691  13.539  14.029
30725W        W99119  23.200  39.508  14.811
30726W        W99120  18.567  10.926  11.882
30727W        W99121   7.718  20.836  12.536
30728W        W99122  12.590  27.095   3.333
30729W        W99123  12.350  39.383  14.548
30730W        W99124  13.178  29.475  10.464
30731W        W99125  16.846  43.193  10.751
30732W        W99126  10.732  17.267   4.858
30733W        W99127  10.216  33.463   4.598
30734W        W99128  19.574  39.369   2.165
30735W        W99129   6.247   1.048   1.305
30736W        W99130  31.066  27.450   0.275
30737W        W99131  19.596  36.464   2.058
30738W        W99132   6.503  38.539  14.417
30739W        W99133  42.027  12.706  13.868
30740W        W99134  23.408  17.109   1.367
30741W        W99135  38.513  19.026  11.526
30742W        W99136  38.792  25.943   2.896
30743W        W99137  19.642  18.299   9.427
30744W        W99138   4.097  33.585  11.517
30745W        W99139  30.532  30.124   4.127
30746W        W99140  18.655   8.701   3.304
30747W        W99141  21.322   5.547  14.833
30748W        W99142  14.346  22.823  14.809
30749W        W99143  15.505  21.789   1.445
30750W        W99144  20.580  28.957   3.269
30751W        W99145   9.185   3.205  12.328
30752W        W99146  27.560  19.311  14.313
30753W        W99147  11.236  26.155  11.661
30754W        W99148  14.666  27.704   3.414
30755W        W99149  21.198  10.392   3.453
30756W        W99150  41.610  32.644   3.132
30757W        W99151  29.171  27.475  14.989
30758W        W99152  21.147  40.314  11.531
30759W        W99153  41.308  44.764  11.234
30760W        W99154  31.070  36.643   5.013
30761W        W99155  11.336  16.582   2.752
30762W        W99156  41.113   9.324   3.273
30763W        W99157  15.812   4.523  13.797
30764W        W99158   8.147  28.021  13.827
30765W        W99159  31.333   2.691   4.122
30766W        W99160   0.525   1.839  13.973
30767W        W99161  24.172  32.563  10.833
30768W        W99162  11.641   0.339  10.723
30769W        W99163  40.171   6.820  13.816
30770W        W99164  11.649   6.186  14.918
30771W        W99165  14.220  30.143   0.206
30772W        W99166   4.735  11.639   4.538
30773W        W99167   7.702  36.993   4.597
30774W        W99168  19.476  16.032   0.749
30775W        W99169  38.047   3.297  10.659
30776W        W99170  20.619  23.290  14.294
30777W        W99171  31.582  14.347  12.016
30778W        W99172   1.654  24.505   0.376
30779W        W99173  22.294  32.994  10.587
30780W        W99174   9.009  24.641  11.653
30781W        W99175  11.806  20.241   3.708
30782W        W99176  31.421   3.023   3.017
30783W        W99177  11.481  18.983   5.175
30784W        W99178  11.355  23.963  12.862
30785W        W99179  29.006  19.873   4.021
30786W        W99180   1.127  24.931  14.118
30787W        W99181  31.483   9.716   3.702
30788W        W99182  14.328   1.358   2.144
30789W        W99183  26.098  34.302  12.385
30790W        W99184  44.233  28.838  10.692
30791W        W99185   4.270  22.558   2.801
30792W        W99186  29.716  20.198   4.041
30793W        W99187  18.361  24.992   3.640
30794W        W99188  10.649   9.452   3.738
30795W        W99189  36.045  17.320  11.203
30796W        W99190   1.471   3.322   4.489
30797W        W99191  23.045  24.478   0.097
30798W        W99192  25.352  12.463   5.103
30799W        W99193   2.864   5.263   4.380
30800W        W99194   7.803  34.966  11.053
30801W        W99195  11.943   3.391  12.938
30802W        W99196  21.574   9.603   2.359
30803W        W99197  36.966  27.802   4.154
30804W        W99198  12.676  18.437   3.661
30805W        W99199   6.853  43.961   3.142
30806W        W99200  32.114  22.791   2.710
30807W        W99201   4.869   5.786   2.266
30808W        W99202  28.619   2.405   3.246
30809W        W99203  21.533  44.502   4.952
30810W        W99204   7.196   3.948   0.233
30811W        W99205  44.357  27.897   2.327
30812W        W99206  20.211  37.366   4.443
30813W        W99207   9.134  13.041   0.270
30814W        W99208  35.402  43.362   4.109
30815W        W99209   6.639  34.361  11.095
30816W        W99210  35.918  15.340   4.418
30817W        W99211  32.674  18.498   3.251
30818W        W99212  18.060   7.961   3.684
30819W        W99213  12.155  17.150   0.324
30820W        W99214   5.872   4.232  12.699
30821W        W99215  39.090  18.849  12.817
30822W        W99216  30.218  19.082  12.669
30823W        W99217  31.862  12.680  13.387
30824W        W99218   4.145   1.930   3.314
30825W        W99219   6.210  21.170   3.546
30826W        W99220  44.231  20.448   1.448
30827W        W99221   0.788   6.221  13.147
30828W        W99222  39.686  10.093   0.328
30829W        W99223  31.662  19.234   3.781
30830W        W99224   7.854  13.575  10.995
30831W        W99225  16.687  19.518  14.274
30832W        W99226  17.262  11.880  11.566
30833W        W99227  38.312  18.062  10.443
30834W        W99228  40.747  18.139  13.519
30835W        W99229  34.421  36.602  13.933
30836W        W99230  17.691  20.826  11.842
30837W        W99231   1.531  22.733   3.150
30838W        W99232  42.116  42.419   1.370
30839W        W99233  29.128  11.919  11.564
30840W        W99234   8.163  34.550  10.616
30841W        W99235  31.562   5.242  10.662
30842W        W99236  32.745  18.500  13.280
30843W        W99237  22.309  12.100   2.735
30844W        W99238   5.820  33.255   2.746
30845W        W99239  30.389   9.424  13.341
30846W        W99240  34.940   9.105   2.783
30847W        W99241  21.901   6.155  11.210
30848W        W99242  35.942  38.790  14.325
30849W        W99243  11.886  35.524  14.955
30850W        W99244   0.406   3.045   0.767
30851W        W99245  22.601  11.320  11.842
30852W        W99246  31.051  10.690  11.043
30853W        W99247   7.772  12.125   0.154
30854W        W99248  40.438  27.085  11.035
30855W        W99249   2.273  28.556   2.633
30856W        W99250  12.630   1.363  11.162
30857W        W99251  42.821  24.941   2.020
30858W        W99252   1.451  24.830   0.039
30859W        W99253  10.268  22.268   1.461
30860W        W99254  24.230  34.616   1.262
30861W        W99255  30.630   3.790  12.552
30862W        W99256  34.115   9.877  12.570
30863W        W99257  32.761  19.280   1.680
30864W        W99258  16.112  19.806   4.952
30865W        W99259  35.830  29.533   1.706
30866W        W99260  29.943  12.456   2.259
30867W        W99261  10.384  24.330   1.807
30868W        W99262  30.135  38.679   3.801
30869W        W99263  27.982   1.659   3.376
30870W        W99264  36.594   7.237  11.154
30871W        W99265   4.328  10.414  11.373
30872W        W99266   9.420  22.801  12.097
30873W        W99267  40.639  40.057   1.835
30874W        W99268   3.721   5.777   1.873
30875W        W99269  25.817  10.422   3.753
30876W        W99270  16.656  31.365   4.823
30877W        W99271  34.336  37.304   1.990
30878W        W99272  27.441   1.428  12.534
30879W        W99273  30.463  18.098  14.221
30880W        W99274  41.738  15.699   2.845
30881W        W99275  41.398  18.824   1.877
30882W        W99276  10.184  43.992  10.698
30883W        W99277  12.059  42.386   4.174
30884W        W99278  37.847  16.902  10.251
30885W        W99279  21.195  10.385   2.106
30886W        W99280  34.244   9.805  10.719
30887W        W99281  40.530  26.641   5.255
30888W        W99282   8.630  29.967  14.537
30889W        W99283  12.677   4.631   1.287
30890W        W99284  21.944  12.660  11.611
30891W        W99285  13.602   5.323   3.710
30892W        W99286  42.531   9.351   2.660
30893W        W99287  42.287  40.518  10.847
30894W        W99288  16.720  35.345   1.034
30895W        W99289  26.730  43.847   3.692
30896W        W99290   6.160   2.406  10.187
30897W        W99291  10.949  24.308  11.051
30898W        W99292  28.632  33.790  12.203
30899W        W99293   5.219  21.169  14.748
30900W        W99294   0.824  39.627   0.171
30901W        W99295  33.665  34.408  10.984
30902W        W99296  24.135  10.763   1.192
30903W        W99297  14.233  25.174   0.337
30904W        W99298  36.130   3.525   4.365
30905W        W99299  13.234  22.153  14.040
30906W        W99300  28.723  39.375  13.342
30907W        W99301  36.790   3.362  14.836
30908W        W99302  41.751  19.337   1.763
30909W        W99303  13.736  25.234   0.906
30910W        W99304  20.700  32.049  12.871
30911W        W99305  36.963   3.448  11.041
30912W        W99306   4.861  37.043   4.732
30913W        W99307   3.948  39.401  11.381
30914W        W99308  41.039  26.671  10.593
30915W        W99309  27.314  40.522   1.693
30916W        W99310  26.661   6.854   4.379
30917W        W99311  33.695  16.636   2.666
30918W        W99312  28.582  32.616  14.341
30919W        W99313  41.868  23.982   3.892
30920W        W99314  39.620  39.107  12.460
30921W        W99315  40.244  44.870   0.640
30922W        W99316  30.470  10.658   4.772
30923W        W99317  16.400   4.308   1.335
30924W        W99318  20.194  12.367  12.643
30925W        W99319  38.427  12.480   4.842
30926W        W99320   4.367  21.078   3.542
30927W        W99321  33.560  18.199   1.834
30928W        W99322   4.242  20.118   0.624
30929W        W99323  41.834  31.152  12.495
30930W        W99324  32.203  30.773  12.997
30931W        W99325   3.943  31.791  12.665
30932W        W99326  31.227  28.952   1.908
30933W        W99327   1.266   0.314   2.190
30934W        W99328   2.891  14.857   1.806
30935W        W99329  18.018  13.574   0.458
30936W        W99330  33.969  18.311   4.285
30937W        W99331   3.740  27.557   2.369
30938W        W99332   5.278  15.686   3.694
30939W        W99333  20.133   3.467   4.852
30940W        W99334  22.707   0.590  12.081
30941W        W99335  13.695  21.593   1.743
30942W        W99336  39.307  38.479  14.366
30943W        W99337   4.005  29.586   4.631
30944W        W99338   3.711  42.458  14.824
30945W        W99339  35.492  36.550   2.748
30946W        W99340  17.666   6.383  13.923
30947W        W99341  42.812  22.972  12.952
30948W        W99342  24.506  14.098   3.313
30949W        W99343  10.938  25.732   2.262
30950W        W99344  32.056  40.880   1.423
30951W        W99345   6.224   3.103   3.468
30952W        W99346  22.117  24.503   0.644
30953W        W99347  19.575  14.341   0.867
30954W        W99348   7.937  11.262  11.562
30955W        W99349   4.484  42.765   4.981
30956W        W99350  41.650  34.199  14.754
30957W        W99351  29.322  13.033  10.912
30958W        W99352  20.606  28.910  13.297
30959W        W99353  14.574  25.168  14.311
30960W        W99354  30.476  13.855  13.864
30961W        W99355   6.802  29.686  13.746
30962W        W99356  36.843  26.074   4.972
30963W        W99357  17.643  23.666   1.704
30964W        W99358  20.657  30.111   3.406
30965W        W99359  31.510  18.125  13.099
30966W        W99360  14.583  34.929   2.141
30967W        W99361   4.327  20.919  12.945
30968W        W99362  18.115  30.850  12.858
30969W        W99363  19.478   0.737   1.292
30970W        W99364  26.097   1.956  11.631
30971W        W99365  13.911  13.685  13.050
30972W        W99366  39.819   2.521  11.565
30973W        W99367   1.863   8.906   1.472
30974W        W99368  28.275  19.064   0.991
30975W        W99369  36.287  36.094  10.821
30976W        W99370   7.263   9.245   4.416
30977W        W99371  14.746  26.643  14.519
30978W        W99372  38.903  44.009  11.508
30979W        W99373  25.570   4.720  13.412
30980W        W99374  26.231  10.334   4.542
30981W        W99375  20.568  23.360   4.874
30982W        W99376  32.592  38.595   1.918
30983W        W99377   6.304  39.550   4.069
30984W        W99378  28.103  30.943  13.538
30985W        W99379  10.744   8.019  11.554
30986W        W99380   3.884  29.240   2.483
30987W        W99381  38.297   7.644  13.456
30988W        W99382  32.352  18.291  13.012
30989W        W99383   4.317  21.077  11.927
30990W        W99384  20.032  30.906  12.945
30991W        W99385  16.188  19.967   1.239
30992W        W99386   4.339  28.505  12.456
30993W        W99387  31.944  25.545   2.085
30994W        W99388  44.855  36.933   1.219
30995W        W99389  32.440   3.756  14.992
30996W        W99390  11.168  22.136   2.297
30997W        W99391  22.470  20.574   3.808
30998W        W99392  22.377  38.970   3.153
30999W        W99393  28.017  41.953  11.317
31000W        W99394  42.984   2.579  13.575
31001W        W99395  40.716   0.834   2.888
31002W        W99396  15.715  29.649   0.488
31003W        W99397  20.644   9.947   1.765
31004W        W99398  10.856  13.868  12.890
31005W        W99399  24.115  41.521   4.620
31006W        W99400  11.034   7.703   2.720
31007W        W99401  20.127  28.733   0.181
31008W        W99402  12.754   7.315   0.916
31009W        W99403   6.845  34.466   0.781
31010W        W99404  19.503  35.946   1.243
31011W        W99405  13.421  44.445  11.485
31012W        W99406  38.866  44.921   1.720
31013W        W99407   6.269  14.060   1.216
31014W        W99408  22.899   5.447   1.661
31015W        W99409  42.934  41.544   0.979
31016W        W99410  27.632  21.451   1.330
31017W        W99411  20.979   7.102  10.884
31018W        W99412   5.304  42.288  11.367
31019W        W99413  34.886  16.695   3.812
31020W        W99414  27.692  29.137   0.274
31021W        W99415  13.833  13.213   2.133
31022W        W99416  40.464  17.092   4.285
31023W        W99417  26.108  16.057  14.338
31024W        W99418  26.906   4.177  14.040
31025W        W99419  21.584   6.615  13.358
31026W        W99420  20.255  43.096   3.263
31027W        W99421  36.990  10.267  13.474
31028W        W99422  43.734   1.227  12.783
31029W        W99423  19.923  31.609  12.376
31030W        W99424  40.981  26.169   1.830
31031W        W99425  17.428  29.103   3.844
31032W        W99426  13.277   1.734  14.806
31033W        W99427  44.858   1.189   4.172
31034W        W99428  24.699   3.843   2.000
31035W        W99429  15.588  30.189   4.572
31036W        W99430  27.598  22.997   3.260
31037W        W99431  41.896   0.897   1.880
31038W        W99432  34.415  31.721  14.523
31039W        W99433  13.006  37.474  14.487
31040W        W99434   1.976   9.406   1.321
31041W        W99435  35.098  24.692   1.870
31042W        W99436  44.646  16.708  11.490
31043W        W99437   2.925  34.712   3.231
31044W        W99438  23.142  35.183  13.923
31045W        W99439  23.099  25.274   3.185
31046W        W99440  13.379   0.411  11.704
31047W        W99441   4.774   5.439   0.690
31048W        W99442  34.762  37.553  12.451
31049W        W99443  32.407  23.748  12.010
31050W        W99444  42.401   7.940  11.345
31051W        W99445  21.492   3.515   2.378
31052W        W99446  41.653  13.095   2.729
31053W        W99447  15.351  33.473   0.743
31054W        W99448  39.454  40.090   4.537
31055W        W99449  22.432   7.237   0.236
31056W        W99450  29.410   2.353  11.535
31057W        W99451  44.847  29.199  14.263
31058W        W99452  38.927  30.702  12.480
31059W        W99453  26.690  40.044   2.213
31060W        W99454  32.413  20.485   4.156
31061W        W99455  28.549  38.780  12.713
31062W        W99456  28.926  12.579  12.476
31063W        W99457  21.737   7.878   3.324
31064W        W99458  38.449  13.837   1.872
31065W        W99459  35.536   6.262  11.234
31066W        W99460  27.891  32.128  10.643
31067W        W99461  31.890  37.630  12.555
31068W        W99462  32.136  32.066  13.009
31069W        W99463  31.386  33.023   2.551
31070W        W99464  19.165  35.359  14.201
31071W        W99465  20.212  40.131  12.518
31072W        W99466  31.866  22.251  11.142
31073W        W99467  11.532  38.783   2.822
31074W        W99468  34.165  24.642   1.440
31075W        W99469  43.353  10.324   4.227
31076W        W99470   9.557  31.319  14.940
31077W        W99471  12.852  42.641  14.839
31078W        W99472  11.247  16.839  12.884
31079W        W99473   1.285  26.592   0.020
31080W        W99474  37.126  26.112  13.775
31081W        W99475  25.130  23.768  10.614
31082W        W99476  12.709  15.904   4.524
31083W        W99477  11.382  23.440  11.184
31084W        W99478  36.355  44.920   2.784
31085W        W99479  27.834  36.247  13.512
31086W        W99480  14.404  27.144   1.869
31087W        W99481  28.097  21.048  13.739
31088W        W99482   8.131   6.140   3.245
31089W        W99483  11.680  19.288   2.719
31090W        W99484  22.916   4.206   1.410
31091W        W99485   6.601  44.458   2.931
31092W        W99486   3.156  37.986   4.894
31093W        W99487   2.520  27.940   1.654
31094W        W99488  37.553   9.823   1.781
31095W        W99489   4.564  35.490   2.021
31096W        W99490  11.405   2.014  12.114
31097W        W99491  10.909  36.375   4.193
31098W        W99492   7.454  19.550   4.450
31099W        W99493  33.546   1.659   0.010
31100W        W99494  28.732  12.593   2.750
31101W        W99495  33.367  35.062  10.808
31102W        W99496  25.610   7.359  14.466
31103W        W99497  12.765  19.074   4.385
31104W        W99498   9.752  26.471  14.233
31105W        W99499  25.286  14.770   3.204
31106W        W99500   6.031  36.833  14.484
31107W        W99501  10.289  16.137  14.585
31108W        W99502  26.526  17.696  14.671
31109W        W99503   7.640  23.582   1.743
31110W        W99504  27.521   6.329   0.850
31111W        W99505  43.929  18.612   3.208
31112W        W99506  25.564  38.619  11.076
31113W        W99507  41.383   6.312   3.742
31114W        W99508   0.412  13.823   4.747
31115W        W99509  29.765  15.652   5.235
31116W        W99510   2.816  32.013  12.009
31117W        W99511  37.080  16.696   4.076
31118W        W99512  28.775  16.893  12.405
31119W        W99513   9.012   8.314   1.193
31120W        W99514   4.629  20.233  12.816
31121W        W99515  35.010  38.777   4.150
31122W        W99516  30.389  28.193  13.363
31123W        W99517   8.720  27.146   9.371
31124W        W99518   5.376  30.537  10.486
31125W        W99519  38.327  38.839   0.471
31126W        W99520   0.644  21.118   2.532
31127W        W99521  24.993  34.453  14.946
31128W        W99522  29.480  37.897  11.494
31129W        W99523  34.015  16.054  10.818
31130W        W99524  21.998  38.092   1.782
31131W        W99525   4.848  17.758   3.253
31132W        W99526  33.142  10.060   3.284
31133W        W99527  37.573  29.971  11.043
31134W        W99528  14.755  19.764  11.574
31135W        W99529  39.488  32.031   2.795
31136W        W99530  21.206  29.643  11.230
31137W        W99531  17.037   4.987   4.129
31138W        W99532   8.357  38.936  10.812
31139W        W99533   8.410  24.095   1.859
31140W        W99534  44.421  13.619   3.312
31141W        W99535  16.684  19.878   0.027
31142W        W99536  38.016  39.493   3.794
31143W        W99537  16.480  26.600  14.564
31144W        W99538  24.995  34.195  14.498
31145W        W99539   3.553  33.843  13.879
31146W        W99540   5.899  38.708   1.207
31147W        W99541  38.544  32.314  10.664
31148W        W99542  22.027   8.071  12.004
31149W        W99543  28.099  13.123  12.124
31150W        W99544   5.884   7.156  11.734
31151W        W99545  39.544  26.591  14.114
31152W        W99546   6.156  19.262  14.015
31153W        W99547  19.517  33.127  12.882
31154W        W99548  16.255  43.949   2.729
31155W        W99549  41.459   8.229  14.775
31156W        W99550  19.134  19.102  12.093
31157W        W99551  29.230  31.667   2.533
31158W        W99552  13.257  35.119   1.928
31159W        W99553  24.127  44.198   1.282
31160W        W99554   4.166  36.149   0.440
31161W        W99555   4.856  18.790  10.560
31162W        W99556  31.596  12.046  10.709
31163W        W99557  27.022  22.185   0.317
31164W        W99558  23.373  29.422   4.540
31165W        W99559  24.912  31.418   2.447
31166W        W99560  41.173  18.610   1.465
31167W        W99561  38.836  12.793  12.996
31168W        W99562  15.170  40.657   4.598
31169W        W99563  25.468   2.811  11.903
31170W        W99564  26.114   8.727  10.508
31171W        W99565   1.679  30.630  13.083
31172W        W99566  38.484  25.539  11.760
31173W        W99567  41.736   7.217  12.560
31174W        W99568  18.239  29.107  14.073
31175W        W99569  13.836  40.855  11.143
31176W        W99570   0.103  10.713  11.644
31177W        W99571   1.433  41.541  11.590
31178W        W99572  40.818  44.748   1.254
31179W        W99573  21.956  26.973   0.351
31180W        W99574  37.108  29.456   1.290
31181W        W99575  17.326  41.756   5.312
31182W        W99576   1.919  25.297   2.181
31183W        W99577   4.555  39.329   2.781
31184W        W99578  36.040  12.353   1.750
31185W        W99579  17.945   4.527   3.219
31186W        W99580  38.330  33.912   2.490
31187W        W99581  18.769  10.203  14.064
31188W        W99582  25.751  20.596   0.332
31189W        W99583  35.206   5.937   3.435
31190W        W99584  34.359  31.900   0.023
31191W        W99585  40.488  16.344  14.284
31192W        W99586  26.020  27.843   1.294
31193W        W99587  44.577  21.135  11.335
31194W        W99588  36.053  28.401  11.004
31195W        W99589  27.856  32.018  11.497
31196W        W99590  12.865   2.170  13.576
31197W        W99591  10.823   8.938   4.126
31198W        W99592  25.003  14.868  13.004
31199W        W99593  25.985  24.255  12.600
31200W        W99594  10.167  12.750   4.894
31201W        W99595  10.322  43.404   3.349
31202W        W99596   6.702   4.736  14.400
31203W        W99597  44.913  20.143  10.680
31204W        W99598  29.949  26.094   3.540
31205W        W99599  11.883   1.482   0.736
31206W        W99600  13.785  28.788   1.407
31207W        W99601  43.489  11.293  13.050
31208W        W99602  33.523  30.910   0.932
31209W        W99603   7.942  18.928  11.220
31210W        W99604  44.822  16.228   4.176
31211W        W99605  16.275  43.050   1.469
31212W        W99606  38.357  29.009  12.208
31213W        W99607  39.442  28.123  12.098
31214W        W99608  27.120  18.094  13.832
31215W        W99609   8.106   5.560  14.805
31216W        W99610  29.158  36.828   4.684
31217W        W99611  23.625  31.036  13.941
31218W        W99612  32.428  39.486   4.483
31219W        W99613  20.728  26.311   9.776
31220W        W99614  40.836  20.516  12.958
31221W        W99615  17.843   5.988  10.052
31222W        W99616  41.842  36.995   3.689
31223W        W99617   3.746   1.810  11.285
31224W        W99618  19.635   8.142   1.590
31225W        W99619  43.091   0.822   1.426
31226W        W99620  12.575  30.628  14.491
31227W        W99621   5.813  44.837   2.813
31228W        W99622   1.782  14.325   3.126
31229W        W99623  22.841   0.491   2.724
31230W        W99624  23.680  15.961  11.208
31231W        W99625  30.751  29.360  13.670
31232W        W99626  41.653  34.685  12.196
31233W        W99627   4.781  30.082  12.978
31234W        W99628   1.696   1.380   1.903
31235W        W99629  28.982  39.574  10.962
31236W        W99630  23.083  24.937   1.894
31237W        W99631   0.266  28.371  12.167
31238W        W99632  12.321  23.585  11.564
31239W        W99633  20.550  16.765   0.348
31240W        W99634   1.128  41.968  12.789
31241W        W99635  41.409   5.938  12.256
31242W        W99636  42.451  24.743   1.700
31243W        W99637  39.796  35.603   2.793
31244W        W99638  11.283   7.775  13.552
31245W        W99639  18.995  26.169   3.610
31246W        W99640   7.808   7.693   1.946
31247W        W99641  43.000  20.776  14.637
31248W        W99642  10.405  14.035  11.210
31249W        W99643  39.909  18.524  12.894
31250W        W99644  14.667   0.539   2.198
31251W        W99645  24.567  24.225  11.939
31252W        W99646  16.348  13.293   0.616
31253W        W99647  10.425  18.687  12.103
31254W        W99648  15.780  30.176   1.204
31255W        W99649  22.640  43.412  14.993
31256W        W99650  21.782  25.881   4.229
31257W        W99651   0.317  10.672  10.705
31258W        W99652  12.690  13.608   2.404
31259W        W99653  36.592   1.268   3.247
31260W        W99654   5.955  32.192  14.847
31261W        W99655   1.939  39.189  13.339
31262W        W99656  34.476  36.112  14.828
31263W        W99657  36.804  13.253   4.121
31264W        W99658  42.913  16.206  12.688
31265W        W99659  24.255  31.920   0.745
31266W        W99660  13.732  43.668  10.487
31267W        W99661   4.205   5.021   1.251
31268W        W99662  43.532  10.344  10.734
31269W        W99663  40.221  22.595   1.715
31270W        W99664  25.932   5.642   1.922
31271W        W99665  10.510   5.235  14.853
31272W        W99666  38.774  36.351   3.295
31273W        W99667  15.773  18.517   1.365
31274W        W99668   5.688  10.163   1.128
31275W        W99669   1.231   6.993   3.355
31276W        W99670  33.932   8.774   4.800
31277W        W99671  40.908  40.354  11.672
31278W        W99672  13.772   4.260  12.322
31279W        W99673  31.224  25.982   2.199
31280W        W99674  15.269  38.574   4.638
31281W        W99675  27.223   0.842   5.427
31282W        W99676   1.190   7.837   0.819
31283W        W99677  20.683  33.805  11.595
31284W        W99678  19.153   3.761  11.018
31285W        W99679  42.426  35.115   0.921
31286W        W99680  33.992  13.191  11.988
31287W        W99681  31.164  33.083   1.285
31288W        W99682  30.553  16.948   1.764
31289W        W99683  20.602  25.515  11.470
31290W        W99684  41.331  42.281   2.676
31291W        W99685  25.725  23.167  14.018
31292W        W99686  24.003  14.791   4.467
31293W        W99687  17.312  15.317  10.741
31294W        W99688  19.608  43.057   0.075
31295W        W99689   7.803  12.654  12.429
31296W        W99690  28.741   7.612  11.591
31297W        W99691  24.613  12.668   4.074
31298W        W99692  14.960  23.517   2.998
31299W        W99693  41.831  14.592  12.546
31300W        W99694  33.981  43.034   4.695
31301W        W99695  41.929  10.861  11.398
31302W        W99696   7.831  39.945  13.097
31303W        W99697   9.654  31.496   4.597
31304W        W99698  18.859  21.623  13.483
31305W        W99699  37.038  38.961  14.967
31306W        W99700  22.951  20.997   4.934
31307W        W99701   6.665  24.584  11.912
31308W        W99702  42.037  41.452  13.451
31309W        W99703   5.334   2.882   4.553
31310W        W99704   3.829  34.957   1.836
31311W        W99705   3.931  27.555  10.997
31312W        W99706   0.700  14.057  13.934
31313W        W99707  37.047  37.854   1.258
31314W        W99708  44.400  42.823  13.800
31315W        W99709  16.556  25.704   1.010
31316W        W99710  21.283  42.389  11.177
31317W        W99711  30.868  12.055  14.013
31318W        W99712   4.092  29.125  14.508
31319W        W99713  43.836  42.917  11.944
31320W        W99714  10.952  41.295   3.210
31321W        W99715  34.738   7.132  11.552
31322W        W99716  24.054  24.582  14.419
31323W        W99717  15.637   2.898   2.880
31324W        W99718  44.598  13.846   1.573
31325W        W99719  35.510  23.203   4.617
31326W        W99720  13.334  26.712  13.836
31327W        W99721  34.000  15.329   4.557
31328W        W99722  41.797  42.023   2.604
31329W        W99723  20.329  37.022  14.043
31330W        W99724  10.994   5.267   0.893
31331W        W99725  23.104  26.510   0.381
31332W        W99726   9.343   0.805   4.607
31333W        W99727  22.764  14.775  11.091
31334W        W99728  22.199   2.190  13.767
31335W        W99729  26.144  41.099  11.404
31336W        W99730  29.581  36.417   3.298
31337W        W99731  19.091   7.804   1.003
31338W        W99732  28.394  42.057  12.562
31339W        W99733   2.435  43.096  13.423
31340W        W99734   6.794  37.562   4.843
31341W        W99735  42.699  23.885  13.815
31342W        W99736  14.097  30.520  11.200
31343W        W99737   3.838  44.384  14.959
31344W        W99738  44.451  12.438   2.874
31345W        W99739  27.920  10.979  12.384
31346W        W99740  20.598  25.474  14.396
31347W        W99741  37.560  26.777  13.379
31348W        W99742  11.148  16.297   0.855
31349W        W99743  15.535  21.492   0.335
31350W        W99744  30.482  11.629  14.699
31351W        W99745  17.701  41.925  14.678
31352W        W99746  26.665  38.353  10.726
31353W        W99747   2.685  18.063  13.305
31354W        W99748  41.460  31.388   2.214
31355W        W99749   3.500  43.973   4.440
31356W        W99750  38.456  13.139  12.855
31357W        W99751   2.405  21.496  10.443
31358W        W99752   9.799  18.600  12.930
31359W        W99753  32.066   8.120  10.797
31360W        W99754   4.162   6.302  12.537
31361W        W99755  23.011  15.535  11.676
31362W        W99756   5.881  10.706   0.308
31363W        W99757  38.860   3.250  14.969
31364W        W99758  37.838  16.066   1.833
31365W        W99759   1.704  19.362  12.458
31366W        W99760  16.845  15.584   4.270
31367W        W99761  30.716  44.769   3.963
31368W        W99762  13.279  34.688  10.254
31369W        W99763   8.615  35.988  10.595
31370W        W99764  16.710  31.177   4.335
31371W        W99765  20.537  21.691   1.290
31372W        W99766  41.348   7.009   1.459
31373W        W99767  31.426  19.512   1.679
31374W        W99768  30.451   3.409   2.747
31375W        W99769  23.519  15.833  12.323
31376W        W99770  23.901   6.134  11.118
31377W        W99771  43.417  23.447  12.594
31378W        W99772  42.254  27.210   0.426
31379W        W99773  21.066  18.115  12.496
31380W        W99774   1.764   0.927   1.296
31381W        W99775  10.363  40.249   5.353
31382W        W99776   1.938  42.740  14.928
31383W        W99777  32.125  24.193   5.193
31384W        W99778  44.020  44.183   1.914
31385W        W99779  14.276  42.445   3.612
31386W        W99780  24.729  30.400  11.343
31387W        W99781   3.899  14.304   3.021
31388W        W99782  44.417  28.723   0.380
31389W        W99783   5.736   1.074   1.113
31390W        W99784  41.272  10.925   4.109
31391W        W99785   6.197   8.126   3.861
31392W        W99786  24.695   9.727   1.661
31393W        W99787  10.172  11.630  12.496
31394W        W99788  31.144   4.123   4.018
31395W        W99789  39.859   0.971  12.679
31396W        W99790  14.049   9.411   3.629
31397W        W99791   6.204   5.263   1.109
31398W        W99792   6.396  44.460  13.969
31399W        W99793  22.752  39.491  10.626
31400W        W99794  27.082  30.388   1.284
31401W        W99795  22.729  23.082   0.261
31402W        W99796  34.413  23.707   0.233
31403W        W99797  24.402  26.518   3.296
31404W        W99798  20.948  22.611  11.428
31405W        W99799  40.709  36.544   0.217
31406W        W99800   1.511   4.109   1.448
31407W        W99801  30.195  21.497  13.009
31408W        W99802  13.282  18.013   3.299
31409W        W99803  18.073  23.767  11.942
31410W        W99804   3.097  16.695   3.335
31411W        W99805   4.308  10.280  12.890
31412W        W99806  11.567  28.033  11.038
31413W        W99807  11.827  34.440  13.838
31414W        W99808  43.370  34.634   2.844
31415W        W99809  40.333  23.712   0.539
31416W        W99810  12.747  33.916   1.747
31417W        W99811  11.724  12.342  10.567
31418W        W99812   5.277  12.068   2.797
31419W        W99813  10.345  41.299  13.927
31420W        W99814  33.918   9.991  11.082
31421W        W99815   1.519  40.844   4.049
31422W        W99816  20.164   3.803  13.938
31423W        W99817  11.744  29.248  11.519
31424W        W99818  13.586  26.001   4.730
31425W        W99819  20.229  36.542  12.360
31426W        W99820  11.453  40.563   0.483
31427W        W99821   3.295  24.249  14.201
31428W        W99822  39.845  17.112  13.108
31429W        W99823  33.619  25.515  12.193
31430W        W99824  11.731   8.479   2.796
31431W        W99825   9.810   3.698   1.749
31432W        W99826  39.516  34.063   3.967
31433W        W99827   0.922  32.664   4.806
31434W        W99828   2.681  39.659  13.945
31435W        W99829  38.534   6.396   2.176
31436W        W99830  36.420  28.881  11.935
31437W        W99831  31.380  11.672  13.170
31438W        W99832  43.227  30.609  14.513
31439W        W99833  12.133  15.322  10.359
31440W        W99834  43.519   9.649  14.821
31441W        W99835  38.578  40.464   0.723
31442W        W99836  20.576  20.764   2.310
31443W        W99837  15.503  40.813  13.441
31444W        W99838  23.424  17.493  13.862
31445W        W99839  41.808  27.285  13.125
31446W        W99840  23.005   8.938   3.725
31447W        W99841  42.095  29.978  12.575
31448W        W99842   3.429   1.815  12.099
31449W        W99843  31.706   3.850   1.949
31450W        W99844  21.797  33.912  12.839
31451W        W99845  14.937   5.221  13.332
31452W        W99846   9.699  16.877   1.394
31453W        W99847   0.344  29.421   1.821
31454W        W99848  32.791  12.849   1.744
31455W        W99849  40.512  32.386  12.064
31456W        W99850  33.489  38.032  12.518
31457W        W99851  33.506  43.588  10.936
31458W        W99852  43.256  29.117   2.181
31459W        W99853  18.690   3.554  12.211
31460W        W99854  19.869  18.620  10.804
31461W        W99855   4.778  34.116  11.643
31462W        W99856  11.823  43.012  10.722
31463W        W99857  23.715  25.561  12.561
31464W        W99858  16.175  22.245  12.349
31465W        W99859  26.109  19.784   3.682
31466W        W99860  12.346  39.408  13.562
31467W        W99861  13.808  10.331   1.314
31468W        W99862   6.920  19.179   0.925
31469W        W99863  10.926  16.002  12.521
31470W        W99864   5.133   9.348  13.869
31471W        W99865  30.541  31.117   5.087
31472W        W99866  42.769  40.050  12.068
31473W        W99867  20.182  10.369   2.383
31474W        W99868  33.610   0.379  11.403
31475W        W99869  28.411  39.649   1.599
31476W        W99870  18.283  42.790  11.535
31477W        W99871   3.032  39.386  11.364
31478W        W99872  20.765   2.056   2.302
31479W        W99873  38.961  28.127   3.703
31480W        W99874  39.844  33.548  14.443
31481W        W99875  34.375  20.595  12.594
31482W        W99876   4.107  17.091   4.125
31483W        W99877  27.131  17.520  11.006
31484W        W99878  20.368  33.616  10.279
31485W        W99879  35.052  43.896  11.229
31486W        W99880   8.924   9.405  11.196
31487W        W99881  19.579  12.594   0.324
31488W        W99882  19.587  26.670  12.575
31489W        W99883   9.745  22.431  12.291
31490W        W99884   6.784  37.997  11.425
31491W        W99885  11.365  36.832   0.393
31492W        W99886   5.232  42.438   1.952
31493W        W99887   2.321  40.983  13.772
31494W        W99888  17.515  39.853   0.230
31495W        W99889  42.394  36.807  13.049
31496W        W99890  41.040  16.624  11.142
31497W        W99891  23.762  12.731   1.347
31498W        W99892  33.280   4.893   1.184
31499W        W99893   4.611  13.129   0.356
31500W        W99894  32.197  41.914   1.419
31501W        W99895  37.554  35.112   4.106
31502W        W99896  33.368  19.077  12.989
31503W        W99897  33.012  13.246  11.931
31504W        W99898   6.269  23.270  12.139
31505W        W99899  26.943  38.431   4.518
31506W        W99900  25.233   0.924   1.398
31507W        W99901  26.983  18.176   1.860
31508W        W99902   1.460  21.797   2.236
31509W        W99903  33.254  20.800   3.611
31510W        W99904  30.456  16.983  13.531
31511W        W99905   9.912  31.519  13.122
31512W        W99906  18.860  19.087  12.598
31513W        W99907  32.945  17.589   2.186
31514W        W99908  16.130  31.859   3.247
31515W        W99909  34.020  25.713  14.071
31516W        W99910  12.923  22.880   4.687
31517W        W99911  12.051  44.988  11.947
31518W        W99912  44.903  34.928  14.891
31519W        W99913  12.577  21.846   2.628
31520W        W99914  27.231  44.786   4.098
31521W        W99915   5.208  17.104  14.743
31522W        W99916  15.118  27.220  14.766
31523W        W99917  22.002  30.726   4.214
31524W        W99918  29.142  13.405  10.619
31525W        W99919  41.137  44.903   2.660
31526W        W99920  11.654   9.678  11.080
31527W        W99921  24.723  23.639  14.121
31528W        W99922  19.209  24.111  10.587
31529W        W99923  24.104  11.943   5.019
31530W        W99924  42.194   0.719  12.699
31531W        W99925   4.869  25.204  13.352
31532W        W99926  18.086  35.565  11.969
31533W        W99927  25.475  18.275  12.397
31534W        W99928  31.977  17.679   0.005
31535W        W99929  12.526  33.339   1.303
31536W        W99930  37.059   9.664   3.789
31537W        W99931  32.128  10.638  14.831
31538W        W99932  11.775  38.453  10.763
31539W        W99933  35.129  33.027   0.476
31540W        W99934   7.241   2.182  13.953
31541W        W99935  29.519  31.107  11.988
31542W        W99936   7.254  21.621  12.815
31543W        W99937  23.463  26.584  10.308
31544W        W99938  26.426  25.214   4.941
31545W        W99939  26.996  39.844   2.871
31546W        W99940  27.063  31.025  14.048
31547W        W99941  32.575   3.636   1.939
31548W        W99942  30.990   0.568   4.895
31549W        W99943  41.422  39.747   2.854
31550W        W99944  19.627  29.020  14.324
31551W        W99945  41.049  39.954  13.504
31552W        W99946   8.867   5.397  14.518
31553W        W99947   4.322  28.447   4.166
31554W        W99948   5.967  24.845   2.871
31555W        W99949  17.786   3.286   2.384
31556W        W99950  40.282  44.814  12.859
31557W        W99951  44.135   2.273   4.018
31558W        W99952  34.585  23.428  11.180
31559W        W99953   4.396  38.702   4.533
31560W        W99954  42.567  21.582   1.245
31561W        W99955  13.885   7.463  10.205
31562W        W99956  20.277  37.141   2.282
31563W        W99957  43.744  26.830  14.341
31564W        W99958  19.761  22.474   4.219
31565W        W99959  40.332   2.801  10.724
31566W        W99960  20.301  32.939   4.227
31567W        W99961  19.676  14.829  11.858
31568W        W99962  21.697  26.776   4.107
31569W        W99963  18.172  11.041  12.349
31570W        W99964  34.009  40.413  12.039
31571W        W99965  37.246  25.601   2.773
31572W        W99966  10.758  14.789   2.230
31573W        W99967  20.358  18.974  14.479
31574W        W99968   3.669  15.166   2.620
31575W        W99969  38.412   4.330   0.042
31576W        W99970   4.233  13.865  12.106
31577W        W99971  28.925  37.136  12.089
31578W        W99972   3.144   1.006   1.286
31579W        W99973  23.744  26.631   0.082
31580W        W99974  39.519  31.758   4.044
31581W        W99975  20.561  26.203  13.794
31582W        W99976  39.389  32.609   0.843
31583W        W99977  11.809   2.453   2.163
31584W        W99978   8.184  44.801  13.609
31585W        W99979  19.503  22.141  13.841
31586W        W99980  36.423  40.358  10.730
31587W        W99981  41.236   0.415  10.773
31588W        W99982  38.055  22.232  11.274
31589W        W99983   2.671  28.574   2.325
31590W        W99984  42.495  30.949   1.661
31591W        W99985  16.721  33.199  11.249
31592W        W99986  14.454  29.455  13.098
31593W        W99987  19.614  23.209   0.515
31594W        W99988   0.410   6.091   2.378
31595W        W99989   8.845  21.698  12.839
31596W        W99990  21.777   5.362   0.007
31597W        W99991  27.182   7.182   2.542
31598W        W99992  20.511  20.243   1.532
31599W        W99993  15.795  27.449  10.716
31600W        W99994   8.936  24.178  14.697
31601W        W99995   9.427  26.431   0.044
31602W        W99996  34.116  23.046   0.905
31603W        W99997  14.108  12.671  13.095
31604W        W99998   7.802  11.560   1.412
31605W        W99999   4.231  37.059  11.648
31606W        W    0  12.355  39.079  11.965
31607W        W    1   1.291  19.747   4.028
31608W        W    2   9.062   1.431   0.733
31609W        W    3  42.388  30.114  12.979
31610W        W    4  31.649  40.450   2.700
31611W        W    5  16.600  29.338  14.083
31612W        W    6  14.731  30.788  13.393
31613W        W    7  17.536  14.769  13.664
31614W        W    8  41.398   4.546   4.532
31615W        W    9  10.885  29.231   4.100
31616W        W   10  18.354  44.786  14.497
31617W        W   11  26.659  43.480   0.853
31618W        W   12  42.915  41.311   1.472
31619W        W   13  35.167  36.189   9.801
31620W        W   14  13.089  17.101  13.776
31621W        W   15  27.417  36.330  12.538
31622W        W   16  17.704  25.355   4.120
31623W        W   17  39.753  39.375  14.509
31624W        W   18  13.745   7.137   1.924
31625W        W   19  19.270  43.314   1.416
31626W        W   20  41.870  27.534   3.840
31627W        W   21  30.012  11.016   0.973
31628W        W   22   6.154  32.983  10.570
31629W        W   23   0.779   4.999   1.904
31630W        W   24  22.087  33.179  12.202
31631W        W   25  31.343   0.185  11.043
31632W        W   26  18.177   2.887   0.710
31633W        W   27  40.793  38.365  13.403
31634W        W   28  29.452  26.467   0.982
31635W        W   29  30.619  23.519  11.152
31636W        W   30  29.038   3.406   2.890
31637W        W   31  15.014   7.882  13.484
31638W        W   32   1.337   5.362  13.906
31639W        W   33  22.499  41.589   3.677
31640W        W   34  11.994  17.597   3.325
31641W        W   35  30.828  20.333  10.975
31642W        W   36  23.746   5.348  11.561
31643W        W   37  17.561  41.045  13.366
31644W        W   38  30.084  28.058  11.238
31645W        W   39  44.716  42.415   0.269
31646W        W   40  14.803  15.411   4.181
31647W        W   41   9.215  12.386   3.326
31648W        W   42  43.824  14.292   4.781
31649W        W   43  24.676  17.585  13.420
31650W        W   44  27.520   6.121  14.710
31651W        W   45   8.645  14.605  12.009
31652W        W   46  41.684  16.336   1.876
31653W        W   47   9.047  13.780  13.268
31654W        W   48   6.656  33.413   1.248
31655W        W   49   7.666  17.921  14.056
31656W        W   50  19.733  24.093  10.603
31657W        W   51  31.124  13.564   1.884
31658W        W   52  13.167  29.671   4.590
31659W        W   53  17.801   2.220  10.891
31660W        W   54   7.193  15.888  14.867
31661W        W   55  26.672  10.321  10.970
31662W        W   56  16.351  13.620  14.916
31663W        W   57  37.583   1.405  11.616
31664W        W   58  25.547  26.710  10.350
31665W        W   59  14.431  30.561  10.771
31666W        W   60  28.969  39.909   0.941
31667W        W   61  43.308  41.202  11.115
31668W        W   62  23.058  40.084   2.817
31669W        W   63   9.873   7.664  13.459
31670W        W   64  17.563  36.789   2.668
31671W        W   65   0.777  32.662   1.724
31672W        W   66  15.112   5.184   2.082
31673W        W   67  34.826   7.156   2.742
31674W        W   68  33.472  37.327  11.821
31675W        W   69  30.171  29.294   3.584
31676W        W   70   3.780  26.749  14.311
31677W        W   71  31.517   2.493   2.224
31678W        W   72  11.105  13.204  12.107
31679W        W   73  31.727  29.072   2.679
31680W        W   74  11.680  32.235   4.575
31681W        W   75  29.205  35.983   4.796
31682W        W   76  28.934  24.757  12.895
31683W        W   77  33.188  26.052  14.041
31684W        W   78  39.821   7.186  14.072
31685W        W   79  14.650  27.161   3.888
31686W        W   80  39.983  21.724   1.729
31687W        W   81   7.827   0.935   3.316
31688W        W   82   2.764   5.792   4.288
31689W        W   83  24.268  22.702  12.992
31690W        W   84   2.208   7.846   1.735
31691W        W   85  42.897   8.242  14.041
31692W        W   86   9.861  32.546   3.327
31693W        W   87  19.770  11.512  10.697
31694W        W   88   7.224  10.946  12.479
31695W        W   89  22.740   2.701   3.314
31696W        W   90  15.525  37.595   2.474
31697W        W   91   4.257  28.847  13.051
31698W        W   92  39.307  39.343   1.282
31699W        W   93  21.652  11.325   1.682
31700W        W   94  13.591  20.137   3.149
31701W        W   95  18.380  43.891  12.078
31702W        W   96  23.100  14.436  12.970
31703W        W   97  20.621  19.112   2.592
31704W        W   98  44.872  15.557   1.874
31705W        W   99   6.709   1.775   4.059
31706W        W  100  14.232   2.793   2.700
31707W        W  101  37.930  25.983   4.198
31708W        W  102  17.992  23.099  14.853
31709W        W  103  42.054   8.114  12.871
31710W        W  104  34.169  42.003  12.486
31711W        W  105   7.202   0.991  11.581
31712W        W  106  11.058  14.895  10.500
31713W        W  107  21.391  39.004  10.756
31714W        W  108  10.733  38.965   4.616
31715W        W  109  15.650  44.027   4.364
31716W        W  110  37.287  15.243   2.719
31717W        W  111  18.536  35.338  12.178
31718W        W  112  38.725  16.361   4.992
31719W        W  113  24.595  14.630   3.750
31720W        W  114  33.571   6.283  13.516
31721W        W  115  25.191  42.859  11.195
31722W        W  116  36.822  14.118   0.300
31723W        W  117  34.445  20.741   1.418
31724W        W  118  41.592  44.678   2.346
31725W        W  119  43.173  44.330  14.301
31726W        W  120  44.813  10.213   0.849
31727W        W  121  19.621  12.817   0.806
31728W        W  122  23.604   6.728  12.148
31729W        W  123  12.071  10.604  14.388
31730W        W  124  38.697  38.453   0.523
31731W        W  125   3.426   1.411   0.472
31732W        W  126  12.085  23.000  10.610
31733W        W  127  17.778  28.009   0.513
31734W        W  128   5.330  24.077   2.545
31735W        W  129  18.186  13.240   3.808
31736W        W  130  31.829  18.754  14.315
31737W        W  131  12.165   4.857   0.620
31738W        W  132  17.256  15.740   0.591
31739W        W  133  10.729  20.315   3.263
31740W        W  134  36.560  41.410   0.432
31741W        W  135  21.696   2.999  10.658
31742W        W  136  11.137  21.286  12.515
31743W        W  137   4.391  37.157  12.583
31744W        W  138  38.584  29.457   2.291
31745W        W  139  25.290  39.514  11.389
31746W        W  140  42.379  30.395  13.419
31747W        W  141  26.799  33.661  12.085
31748W        W  142  38.773  22.501  14.047
31749W        W  143  41.191   1.519  13.953
31750W        W  144  34.483  40.379   0.970
31751W        W  145   0.283  29.011   4.612
31752W        W  146  31.960  13.477  12.027
31753W        W  147  14.651  26.593   2.390
31754W        W  148  15.081  32.005  13.028
31755W        W  149  37.785  10.145   1.054
31756W        W  150  11.773  32.155  11.523
31757W        W  151  23.159   7.683   0.072
31758W        W  152  43.712  36.872   1.847
31759W        W  153  29.459  41.804   1.792
31760W        W  154  38.351  43.869  14.584
31761W        W  155   7.664   3.250   4.586
31762W        W  156   1.117  34.909   4.737
31763W        W  157  21.129  42.920   5.118
31764W        W  158  41.906  39.081   2.525
31765W        W  159  30.319  34.579  11.671
31766W        W  160  34.803   7.231   4.614
31767W        W  161  19.169  25.603   5.386
31768W        W  162  10.494  23.615   1.319
31769W        W  163  44.274  41.710  12.689
31770W        W  164   3.343  35.387   3.715
31771W        W  165  21.465   3.573   9.946
31772W        W  166   2.439  14.658  14.539
31773W        W  167  44.209  35.742  14.830
31774W        W  168   3.791   1.272   4.665
31775W        W  169  18.104  19.087   1.225
31776W        W  170  30.963   0.943  13.390
31777W        W  171  30.646  20.121  14.992
31778W        W  172  33.089  23.552   3.976
31779W        W  173  38.475  10.453  11.399
31780W        W  174  14.029  29.714  14.512
31781W        W  175   7.413  33.845  12.418
31782W        W  176   3.184  37.077   3.104
31783W        W  177  22.278  17.721  12.907
31784W        W  178  12.664  41.636  14.898
31785W        W  179  39.037  13.231  12.489
31786W        W  180  34.594  19.807   2.840
31787W        W  181   8.655  41.176   4.365
31788W        W  182  27.548   7.344  12.645
31789W        W  183  14.107  19.789  11.973
31790W        W  184  36.574  11.727  14.839
31791W        W  185  44.991  40.795   2.237
31792W        W  186  26.110   1.014  13.787
31793W        W  187  19.041  39.609   3.410
31794W        W  188  13.373  33.843   3.172
31795W        W  189  36.050  44.986   0.584
31796W        W  190  38.489  19.531   3.776
31797W        W  191   3.968  41.895   0.969
31798W        W  192  24.427  10.201  11.568
31799W        W  193   4.201  22.530  11.188
31800W        W  194  25.689  21.149   4.102
31801W        W  195  15.033  29.467  10.829
31802W        W  196  19.053   8.776   4.526
31803W        W  197  27.919   5.934   1.871
31804W        W  198  23.078  31.066   1.758
31805W        W  199  30.428  27.138  11.488
31806W        W  200  23.984   1.856  13.594
31807W        W  201  39.529   9.695   4.507
31808W        W  202   0.828  30.692  14.110
31809W        W  203   8.861  14.537  14.822
31810W        W  204   2.664  35.441  14.914
31811W        W  205  11.585  42.902   3.766
31812W        W  206  14.073   8.222  11.303
31813W        W  207   4.170  33.067   2.370
31814W        W  208   9.796   1.005   0.863
31815W        W  209  11.806  20.990   4.182
31816W        W  210  17.530  28.112   3.262
31817W        W  211  17.107  39.529   3.339
31818W        W  212  24.544  35.071   2.835
31819W        W  213  34.935  24.065   2.267
31820W        W  214   2.420  23.174   4.053
31821W        W  215  41.272  44.336  10.981
31822W        W  216  24.590  39.458  14.721
31823W        W  217  39.063  10.942  12.827
31824W        W  218  30.745   3.388   2.332
31825W        W  219  42.812  35.778   2.392
31826W        W  220  27.369   9.306   9.741
31827W        W  221   9.786  20.541   0.662
31828W        W  222  44.613  38.968   1.713
31829W        W  223  25.087  43.745   4.146
31830W        W  224  10.895   8.479  12.072
31831W        W  225   3.227  20.571  14.908
31832W        W  226   2.606  38.284   3.210
31833W        W  227  30.524   2.353  14.809
31834W        W  228  28.205   1.223   3.217
31835W        W  229  20.992  31.464   2.683
31836W        W  230  25.752  15.983   3.972
31837W        W  231  25.050  44.333  14.463
31838W        W  232  43.286   6.485  12.023
31839W        W  233   8.944  23.461   1.257
31840W        W  234  10.910  13.637   3.010
31841W        W  235   6.698  14.495  11.957
31842W        W  236  28.003  22.996  11.648
31843W        W  237  31.663  14.943   3.998
31844W        W  238   4.736  39.422  10.750
31845W        W  239   8.955   2.435   4.649
31846W        W  240   4.762   1.665   2.273
31847W        W  241  16.071  12.633  12.060
31848W        W  242  13.918  30.190   3.894
31849W        W  243  38.276  11.778  12.026
31850W        W  244  28.977  39.105   4.237
31851W        W  245  41.890  19.074   3.209
31852W        W  246  16.541  34.530   2.386
31853W        W  247  37.158  25.517  13.616
31854W        W  248  38.992  37.976   1.306
31855W        W  249  19.198  20.416  10.294
31856W        W  250  44.312  32.684  11.620
31857W        W  251  25.584  21.738   2.904
31858W        W  252  35.915  42.229   0.879
31859W        W  253  20.977   2.730  12.568
31860W        W  254  31.152  44.525  13.836
31861W        W  255   2.444  22.022   2.307
31862W        W  256  42.237  13.366   4.464
31863W        W  257  10.710  12.730  10.864
31864W        W  258  32.866  28.741   1.309
31865W        W  259  19.594  42.905  14.113
31866W        W  260  30.919  33.102  14.589
31867W        W  261  12.438  27.110  13.998
31868W        W  262   6.155  13.133   4.572
31869W        W  263  44.745  12.526  14.232
31870W        W  264  11.311  18.534  11.697
31871W        W  265  34.464   1.860   0.868
31872W        W  266  33.395  37.649  11.362
31873W        W  267  11.828  33.313   2.663
31874W        W  268   2.422  34.964  14.951
31875W        W  269  17.491  21.338  13.561
31876W        W  270   7.767  19.942  11.194
31877W        W  271  16.558  36.523   0.438
31878W        W  272   6.336   7.579   4.090
31879W        W  273  40.482  26.002   0.802
31880W        W  274   1.984  12.777  11.557
31881W        W  275  12.822  25.736   2.384
31882W        W  276   9.863  30.543  10.668
31883W        W  277   9.091   4.639  11.417
31884W        W  278   9.321  27.107  12.556
31885W        W  279   0.259  38.066  13.292
31886W        W  280  24.385  41.368  13.852
31887W        W  281  29.407  32.840   0.375
31888W        W  282   1.957  32.058   2.607
31889W        W  283  33.994  25.081   1.199
31890W        W  284  22.002  31.016  14.359
31891W        W  285  35.347   2.656  11.149
31892W        W  286  38.900  31.436  14.324
31893W        W  287  33.440  41.807  12.973
31894W        W  288  19.303  21.498  12.466
31895W        W  289   2.931   3.304  13.468
31896W        W  290   3.775  38.595  10.724
31897W        W  291  24.009   6.677  13.511
31898W        W  292  22.318  15.333  12.147
31899W        W  293   8.382  40.282  10.597
31900W        W  294  35.337  10.146   2.862
31901W        W  295   9.374  31.567  12.466
31902W        W  296   6.691   5.216   0.338
31903W        W  297  24.536   0.733   3.228
31904W        W  298  35.479  34.118   0.533
31905W        W  299  31.691  13.144   4.171
31906W        W  300  40.255  38.092   2.748
31907W        W  301  24.556  17.168  13.108
31908W        W  302  12.142   4.272  13.885
31909W        W  303  24.998  33.333   5.170
31910W        W  304  34.887  20.075  10.737
31911W        W  305  20.566   2.885  11.573
31912W        W  306  42.849  13.286  14.085
31913W        W  307  27.057  10.607   1.727
31914W        W  308  17.653  13.885  10.789
31915W        W  309  27.912  17.595  12.582
31916W        W  310   6.048  30.561  11.239
31917W        W  311  33.030  25.189   4.408
31918W        W  312  28.022  43.924  14.756
31919W        W  313  33.102  38.852  14.382
31920W        W  314  38.093   5.862  11.966
31921W        W  315  35.481  10.429  14.707
31922W        W  316  11.800  22.030   0.936
31923W        W  317   1.785  27.941   4.691
31924W        W  318  13.832  29.701   3.752
31925W        W  319  39.055  27.618  13.823
31926W        W  320  19.410  11.703   5.011
31927W        W  321  15.899  22.477   3.270
31928W        W  322  20.226   0.483  12.889
31929W        W  323  19.246  30.579  11.065
31930W        W  324  27.524  34.201  14.695
31931W        W  325  14.299  25.270  11.222
31932W        W  326  41.402  44.306   1.933
31933W        W  327   4.114  27.127  12.363
31934W        W  328   5.049  35.612  13.568
31935W        W  329  19.383  38.800   1.399
31936W        W  330  12.111   0.271  12.552
31937W        W  331  23.983  27.628   0.895
31938W        W  332  33.560  31.391  12.175
31939W        W  333  10.285  11.961  14.330
31940W        W  334  44.012  39.172   4.412
31941W        W  335  17.340   0.028  12.720
31942W        W  336  40.700  13.986   0.792
31943W        W  337  31.887  34.956   0.916
31944W        W  338  17.641  15.508   9.887
31945W        W  339  22.092  32.182  12.563
31946W        W  340  27.053   6.001  11.508
31947W        W  341  28.482   2.294  14.056
31948W        W  342  25.718   0.645   1.939
31949W        W  343  38.324   4.257   4.680
31950W        W  344   5.757   1.295  13.812
31951W        W  345  26.799  41.452   2.824
31952W        W  346  43.910  43.014   3.253
31953W        W  347  12.144  35.916  12.417
31954W        W  348   9.590   0.871  14.404
31955W        W  349  31.407  34.071  14.910
31956W        W  350  19.216  19.870   4.752
31957W        W  351  15.556  35.560  13.492
31958W        W  352   1.791   3.818   2.741
31959W        W  353  20.266   6.951  14.418
31960W        W  354  27.220  11.576  10.611
31961W        W  355  41.022  26.766   1.806
31962W        W  356  34.803  24.039   0.039
31963W        W  357  34.389  40.878   0.164
31964W        W  358  20.327  20.932  12.995
31965W        W  359  44.813   7.367   2.664
31966W        W  360  28.490  24.981   3.253
31967W        W  361  15.700  33.565  12.039
31968W        W  362  19.246   6.136  13.114
31969W        W  363  30.178  12.603   4.247
31970W        W  364  23.551  25.265  13.503
31971W        W  365  21.445  24.115  14.069
31972W        W  366  33.486   9.602   0.328
31973W        W  367   4.791  32.641  13.995
31974W        W  368  33.111  38.888  11.252
31975W        W  369  30.101  33.200  11.685
31976W        W  370  31.095   1.530   2.164
31977W        W  371   0.287  33.352   0.740
31978W        W  372  15.687  34.986   3.027
31979W        W  373  28.004   4.299  11.152
31980W        W  374  22.257  41.024   2.704
31981W        W  375  17.200  17.558   2.702
31982W        W  376  20.667   1.518   2.324
31983W        W  377   0.970  33.403  14.833
31984W        W  378  44.867  35.136  12.033
31985W        W  379  44.563  26.104  13.900
31986W        W  380  14.096   5.717  14.545
31987W        W  381  37.460   7.760   2.772
31988W        W  382  37.830  16.553  11.147
31989W        W  383   3.167  41.432  12.293
31990W        W  384  19.461  18.951  11.713
31991W        W  385  39.420  11.896  11.268
31992W        W  386  18.280  26.100  11.547
31993W        W  387  37.374   9.396  14.367
31994W        W  388  17.753  17.107   1.422
31995W        W  389   0.872  20.753  13.347
31996W        W  390  11.773  16.084  10.602
31997W        W  391  44.096  14.001  13.407
31998W        W  392  38.258  33.131   0.825
31999W        W  393  15.245  14.137   2.556
32000W        W  394  30.700  40.032   4.272
32001W        W  395  33.657   2.645   0.882
32002W        W  396  11.433  14.098   0.045
32003W        W  397   0.454  24.681   1.313
32004W        W  398  37.109  32.591  10.674
32005W        W  399  30.085  10.357  10.419
32006W        W  400  42.957  31.919  14.475
32007W        W  401  44.261  13.396   3.759
32008W        W  402   9.086  41.627  11.079
32009W        W  403  29.886  17.630  12.291
32010W        W  404  16.575  25.311  12.054
32011W        W  405  28.192  20.501   4.291
32012W        W  406  38.816  10.470  10.557
32013W        W  407   0.307  21.069  12.586
32014W        W  408  30.486  17.762   2.247
32015W        W  409  19.982  22.674   4.641
32016W        W  410  22.291  32.926   2.141
32017W        W  411  31.289  32.442   3.290
32018W        W  412  14.107  17.982  11.616
32019W        W  413  24.594  28.369  14.769
32020W        W  414  33.711  44.476  11.124
32021W        W  415  19.767  30.785   4.967
32022W        W  416  19.125  41.782   3.593
32023W        W  417  37.462  28.989   1.196
32024W        W  418  43.382  40.051   3.721
32025W        W  419   6.645   7.834   3.734
32026W        W  420  10.821  31.653   2.225
32027W        W  421  13.735  39.966  14.086
32028W        W  422  14.544  41.415  14.975
32029W        W  423  29.595  13.226   3.440
32030W        W  424  24.735  35.492   2.204
32031W        W  425   5.707  27.094  11.587
32032W        W  426  33.439  23.740   1.429
32033W        W  427  12.616  30.053   1.350
32034W        W  428  34.155  36.837  11.686
32035W        W  429  42.880  43.501   1.450
32036W        W  430  22.666  37.059   0.313
32037W        W  431  19.754  16.169  11.007
32038W        W  432  12.699  41.105  14.996
32039W        W  433  44.969  19.381   0.450
32040W        W  434  42.012  28.273   3.712
32041W        W  435  35.706  15.225  12.558
32042W        W  436  30.883  37.944   3.081
32043W        W  437  37.069  32.878   0.325
32044W        W  438  39.893   5.240   0.245
32045W        W  439   4.472  42.799  12.618
32046W        W  440  25.388  19.580  11.287
32047W        W  441  20.138   3.941   3.315
32048W        W  442  19.017  35.185   2.589
32049W        W  443  30.143  15.087  12.037
32050W        W  444   6.170  16.991   1.209
32051W        W  445   8.892  28.020   2.044
32052W        W  446  12.658   9.933   0.772
32053W        W  447  28.589  17.890  14.442
32054W        W  448  12.508   3.401   1.614
32055W        W  449  41.116  14.941   3.227
32056W        W  450  16.600  31.656   3.225
32057W        W  451  31.880   8.295   4.151
32058W        W  452  25.561  12.986   2.101
32059W        W  453  15.365  21.752  11.983
32060W        W  454   5.028  24.068  12.448
32061W        W  455  40.995  43.901   3.398
32062W        W  456  28.005  34.921   1.501
32063W        W  457  33.013  14.048   4.628
32064W        W  458   9.149   4.650   0.257
32065W        W  459  21.731  16.218   4.038
32066W        W  460  12.109  30.337  10.978
32067W        W  461  24.263  28.658   3.759
32068W        W  462  21.310   7.725   1.260
32069W        W  463  22.614   8.931   1.464
32070W        W  464  13.289  37.488  10.221
32071W        W  465  30.703   6.989  11.067
32072W        W  466  41.351  39.669  12.565
32073W        W  467  13.018  27.663  12.956
32074W        W  468  37.585  25.082   0.297
32075W        W  469  24.258  22.261  14.284
32076W        W  470  33.346  35.359   1.419
32077W        W  471  34.483  24.644  11.749
32078W        W  472  20.521  13.282   3.341
32079W        W  473  38.305   1.251  13.623
32080W        W  474  43.851   0.755  12.952
32081W        W  475  39.991  21.775   0.158
32082W        W  476  23.510  35.360  14.885
32083W        W  477  11.663   4.263  12.991
32084W        W  478  26.856  44.768   4.448
32085W        W  479  33.692  42.425   2.866
32086W        W  480  44.697  15.463   2.833
32087W        W  481   7.379   3.017   2.771
32088W        W  482  29.238  37.928  11.038
32089W        W  483  31.870  29.546   2.121
32090W        W  484  32.098  15.940   4.605
32091W        W  485  13.248  23.669  12.775
32092W        W  486  38.070  28.583  14.749
32093W        W  487  24.515  12.665   2.983
32094W        W  488   8.447  10.244   2.210
32095W        W  489  41.004  14.769   2.043
32096W        W  490  13.234  31.684   3.781
32097W        W  491  24.618   0.027  10.133
32098W        W  492  28.771  19.403  14.393
32099W        W  493  29.454  35.891  14.525
32100W        W  494  12.103  21.065   1.491
32101W        W  495  35.362  13.137  11.277
32102W        W  496  19.701  19.276  13.825
32103W        W  497  12.620  28.195   4.464
32104W        W  498  22.568   7.719  10.590
32105W        W  499   1.759   0.582  11.786
32106W        W  500   9.768  22.547  10.578
32107W        W  501  40.582  16.626  12.271
32108W        W  502  33.633  40.648   1.366
32109W        W  503  26.850  17.377   5.289
32110W        W  504  11.582  30.421  14.458
32111W        W  505   5.536   5.832  11.625
32112W        W  506  21.259  32.182   5.110
32113W        W  507  34.156   0.714  11.175
32114W        W  508  36.365  43.599   4.147
32115W        W  509  28.419  29.596   0.233
32116W        W  510  39.028  27.597   4.904
32117W        W  511  39.599  12.392  11.724
32118W        W  512  21.800   5.347   1.452
32119W        W  513  26.019  19.804  14.779
32120W        W  514  24.646   8.400   0.023
32121W        W  515   7.773  33.377  14.480
32122W        W  516   3.006  14.263   1.202
32123W        W  517  24.638  12.246   3.761
32124W        W  518  19.201   9.073   0.451
32125W        W  519  36.156   4.244  10.848
32126W        W  520  42.169  15.836  10.798
32127W        W  521  35.079  33.530  11.132
32128W        W  522   0.253  27.499  13.943
32129W        W  523   5.750  13.527  12.626
32130W        W  524   0.169  39.482  14.458
32131W        W  525   1.012  37.837  12.961
32132W        W  526  26.733  44.308  13.544
32133W        W  527  29.818   0.350  10.063
32134W        W  528  16.046  36.428  11.742
32135W        W  529   5.773  33.623  13.978
32136W        W  530   1.318  16.272  12.253
32137W        W  531  15.372  27.783  10.591
32138W        W  532  21.163  16.716   1.410
32139W        W  533  23.524   0.429  10.570
32140W        W  534  37.297  12.229  14.875
32141W        W  535  34.527  26.772  12.198
32142W        W  536  17.639  18.789  12.597
32143W        W  537   2.871  12.104   3.528
32144W        W  538  25.990  18.503  12.979
32145W        W  539  14.190  14.107  12.903
32146W        W  540  44.864  31.823   3.621
32147W        W  541   1.765   5.711  14.363
32148W        W  542  23.693  17.685   0.212
32149W        W  543  44.475  39.161  12.957
32150W        W  544   0.849   3.775   1.803
32151W        W  545  40.963  16.447  10.659
32152W        W  546  33.620   5.461   2.406
32153W        W  547   7.404  10.737  14.941
32154W        W  548   2.513   6.786   2.771
32155W        W  549   9.763  36.875   3.860
32156W        W  550  19.145  15.940  12.831
32157W        W  551  34.567   0.727  12.056
32158W        W  552  16.548  25.543  12.971
32159W        W  553   6.660  16.192   2.266
32160W        W  554  21.734   8.795  10.989
32161W        W  555  32.510  28.910   4.172
32162W        W  556  34.094  33.321   2.738
32163W        W  557  39.954  27.193   1.818
32164W        W  558  13.928  24.818  13.030
32165W        W  559  36.556  16.599   4.163
32166W        W  560  31.176  38.993   2.387
32167W        W  561  20.640  24.956  11.570
32168W        W  562   0.746  13.310  14.336
32169W        W  563  24.405  18.101  11.117
32170W        W  564  19.896  33.018  14.796
32171W        W  565  44.280  14.534  12.514
32172W        W  566   9.794  39.721   1.215
32173W        W  567  20.107  16.175  14.996
32174W        W  568  19.607  29.101  13.463
32175W        W  569  37.582  43.955   0.304
32176W        W  570  22.073  17.036  13.697
32177W        W  571  16.188   7.423  12.809
32178W        W  572  20.505  27.272   2.732
32179W        W  573  29.791   0.206   1.357
32180W        W  574  42.829   6.374  12.279
32181W        W  575  22.435  25.603   4.928
32182W        W  576  34.007  29.980  14.723
32183W        W  577  14.659   8.195  10.121
32184W        W  578  24.143  30.537   4.735
32185W        W  579   9.703  12.543   1.363
32186W        W  580  31.706  26.546  14.021
32187W        W  581   2.394  43.105  10.870
32188W        W  582  41.007  11.853   3.170
32189W        W  583  20.766  36.220  11.974
32190W        W  584   7.224   8.243  12.586
32191W        W  585  32.015   0.793   1.217
32192W        W  586   3.519  35.459  14.475
32193W        W  587  32.850  34.331   1.213
32194W        W  588   1.839  20.226  14.375
32195W        W  589   9.806  42.902  14.451
32196W        W  590  32.345  20.778   4.963
32197W        W  591   3.391   3.291  10.698
32198W        W  592   5.907  37.431   4.872
32199W        W  593  14.283   2.213  14.831
32200W        W  594  10.863  21.172   2.121
32201W        W  595  31.851  26.538  11.233
32202W        W  596  39.516  42.468   3.647
32203W        W  597  34.501  20.058   0.306
32204W        W  598   3.914  22.150  10.926
32205W        W  599  20.223  11.374   1.187
32206W        W  600  25.256  16.119   2.630
32207W        W  601  25.727  42.430   0.911
32208W        W  602  11.964  37.671  12.103
32209W        W  603   0.767   7.083   3.159
32210W        W  604  39.266   2.235  10.704
32211W        W  605   6.055  40.987  13.975
32212W        W  606  12.881  29.836  12.694
32213W        W  607  21.499  35.064   1.519
32214W        W  608   3.819  14.978   2.118
32215W        W  609  19.678  39.656  12.948
32216W        W  610   9.719   9.416  10.521
32217W        W  611  15.871  16.708   0.418
32218W        W  612  39.867   0.741   1.877
32219W        W  613  38.355  43.846  10.636
32220W        W  614  41.570   9.267  10.977
32221W        W  615  43.467  11.327   3.553
32222W        W  616  34.247  21.298   2.797
32223W        W  617  31.887  24.261   1.858
32224W        W  618  28.503  25.197  12.034
32225W        W  619  26.950  42.464  10.642
32226W        W  620  33.090  36.315   4.340
32227W        W  621   4.392  13.113  14.880
32228W        W  622  33.018  33.329   1.824
32229W        W  623  37.218  22.922  13.538
32230W        W  624  31.361  15.113   4.403
32231W        W  625  37.055  35.596  10.681
32232W        W  626  34.054  14.178  10.920
32233W        W  627   5.731  37.492   0.752
32234W        W  628  44.589  14.079   4.194
32235W        W  629  18.577  19.844   5.466
32236W        W  630  35.826   1.242  12.018
32237W        W  631  28.221  43.739   2.633
32238W        W  632   3.438  40.471  12.435
32239W        W  633  40.583  43.769  13.366
32240W        W  634  38.467  28.969  13.191
32241W        W  635  32.567  27.556  10.319
32242W        W  636  42.563   0.797  12.304
32243W        W  637  11.411   8.539  11.956
32244W        W  638  29.157  44.340  14.927
32245W        W  639  19.070   7.875  11.118
32246W        W  640  42.888  25.273   0.372
32247W        W  641   8.074  36.303   3.258
32248W        W  642  31.609  34.121  13.456
32249W        W  643  41.493  42.825  11.425
32250W        W  644  24.216   9.355  14.822
32251W        W  645  36.399  18.622  10.847
32252W        W  646  11.378  31.057   2.190
32253W        W  647  13.170  33.176   0.385
32254W        W  648  20.593  28.403  11.127
32255W        W  649  32.390   3.867   3.450
32256W        W  650   7.598   0.234  12.897
32257W        W  651   5.855  34.325  13.397
32258W        W  652  27.549  32.901  12.596
32259W        W  653  32.650  41.811   0.545
32260W        W  654  12.129  19.382  12.484
32261W        W  655  14.579  11.851   2.319
32262W        W  656  28.690  16.084   3.306
32263W        W  657  38.276   0.654  14.958
32264W        W  658  21.314  34.325  14.069
32265W        W  659  35.444  27.149   1.433
32266W        W  660  38.325  35.971   4.607
32267W        W  661  39.590   7.312   2.237
32268W        W  662   2.440  32.349  11.174
32269W        W  663   7.455  17.250  13.019
32270W        W  664  23.262  36.968  14.463
32271W        W  665  18.895  14.418  13.382
32272W        W  666   1.020  33.271  11.092
32273W        W  667  33.954   2.028   0.970
32274W        W  668  11.726  13.406   4.156
32275W        W  669  36.947  24.218  12.447
32276W        W  670  42.437  33.483  14.968
32277W        W  671   1.008  30.403   2.381
32278W        W  672  37.985   0.231   0.048
32279W        W  673  22.162  44.605   4.175
32280W        W  674  37.913  17.788  11.866
32281W        W  675   7.363  17.607  12.645
32282W        W  676  39.063  18.684  14.430
32283W        W  677   7.411  32.596   0.430
32284W        W  678  36.360   9.461   1.195
32285W        W  679  39.738  25.591   4.067
32286W        W  680  28.756   2.404  14.492
32287W        W  681   6.401  33.386  13.985
32288W        W  682   9.122  24.731  11.120
32289W        W  683  10.405  26.967   3.653
32290W        W  684   0.727  29.920   2.382
32291W        W  685   2.279  29.881  10.122
32292W        W  686  22.025  17.851  11.174
32293W        W  687  41.535  20.703  12.710
32294W        W  688   6.320   7.379   2.401
32295W        W  689  30.082   9.553   1.274
32296W        W  690   7.935  35.609   2.523
32297W        W  691   2.313  30.915   0.346
32298W        W  692   3.900   8.388   3.335
32299W        W  693   8.795  14.146  11.157
32300W        W  694  15.205  22.830  12.000
32301W        W  695   4.309  34.146  13.375
32302W        W  696  17.730  43.881   1.878
32303W        W  697   8.179  33.407  11.913
32304W        W  698  26.022  33.726   3.196
32305W        W  699  30.960   8.151   1.384
32306W        W  700   0.066  17.849   1.308
32307W        W  701   8.522   6.305   0.822
32308W        W  702  19.619  22.134   2.168
32309W        W  703  26.033   0.028   3.892
32310W        W  704   3.903  18.811  11.984
32311W        W  705   9.243   2.373   0.183
32312W        W  706  26.876  22.554   1.741
32313W        W  707  24.058   3.112  12.618
32314W        W  708   3.009  32.692   4.483
32315W        W  709  44.926  27.051   0.973
32316W        W  710  27.878  10.162   1.406
32317W        W  711  33.204   6.477  14.864
32318W        W  712  21.030   8.871  13.411
32319W        W  713  40.739  24.442  11.730
32320W        W  714   2.302  12.647   5.028
32321W        W  715   0.058   6.189  14.023
32322W        W  716  37.820  16.044   4.493
32323W        W  717  43.322  11.543  12.613
32324W        W  718  16.760  26.995  13.761
32325W        W  719  38.448  26.954  14.971
32326W        W  720   6.146  27.492   4.396
32327W        W  721  11.273  14.274  11.443
32328W        W  722  18.996  22.438   0.892
32329W        W  723  24.010  15.855   2.154
32330W        W  724   9.697  30.608  12.960
32331W        W  725   9.340   7.359  12.077
32332W        W  726  24.631  44.763  13.852
32333W        W  727  34.000   5.680   2.736
32334W        W  728  32.895  40.980   0.199
32335W        W  729  41.968  39.037   1.799
32336W        W  730  28.478  22.225   3.989
32337W        W  731  11.005  16.500   1.349
32338W        W  732  20.113  38.172  11.522
32339W        W  733   3.155  37.994  13.414
32340W        W  734  25.955  38.003  12.033
32341W        W  735  19.133  14.115   1.744
32342W        W  736  33.392   3.091   1.765
32343W        W  737  43.854  34.544  11.206
32344W        W  738  10.871  31.069   2.346
32345W        W  739   7.926  29.683  12.356
32346W        W  740  34.824   1.386  11.145
32347W        W  741   5.091   3.522   1.510
32348W        W  742  21.087   6.289   2.343
32349W        W  743   7.755  31.176  12.003
32350W        W  744  21.304  37.895   1.057
32351W        W  745   5.275  40.499   3.789
32352W        W  746  32.596  22.730   3.831
32353W        W  747  22.037  35.653   4.558
32354W        W  748  38.236   5.463   2.516
32355W        W  749  22.997  39.045  14.991
32356W        W  750   1.759  43.800  13.956
32357W        W  751   5.460   7.057  10.606
32358W        W  752   5.358   5.285  10.709
32359W        W  753   0.627  26.063   1.634
32360W        W  754  21.754   7.071   1.083
32361W        W  755   5.834  44.859   4.330
32362W        W  756  23.645  27.952   1.454
32363W        W  757   0.999   7.239  12.089
32364W        W  758  22.972  40.864   3.854
32365W        W  759  42.798  11.030   0.522
32366W        W  760  41.328  28.630   2.077
32367W        W  761  37.027  22.293   4.677
32368W        W  762   0.850   1.742  12.531
32369W        W  763  36.313   3.130   1.598
32370W        W  764  42.366  32.628   0.907
32371W        W  765  30.675   0.485  11.383
32372W        W  766  26.988  14.194  10.239
32373W        W  767   1.314  19.300   2.240
32374W        W  768   0.576   3.885   0.898
32375W        W  769  30.507  30.581   0.793
32376W        W  770  23.422  16.839   3.742
32377W        W  771  30.568  15.868   3.145
32378W        W  772  11.829  15.280  13.254
32379W        W  773  13.349  21.963   1.674
32380W        W  774  36.263   8.265   4.766
32381W        W  775  16.336  44.017  13.754
32382W        W  776  40.328  35.872   4.975
32383W        W  777   5.756  17.284   1.405
32384W        W  778  40.072   1.339  10.621
32385W        W  779  11.167  11.949   0.762
32386W        W  780  21.238   4.164   4.821
32387W        W  781  38.884   3.174  14.461
32388W        W  782   6.358  26.470   1.086
32389W        W  783  19.856  16.735   4.108
32390W        W  784  24.236   2.253  12.483
32391W        W  785  28.936  29.506  11.235
32392W        W  786  17.379  33.340  11.620
32393W        W  787  10.214  38.134   4.526
32394W        W  788  42.803   8.867   2.717
32395W        W  789   8.182  21.891  11.646
32396W        W  790   5.900  44.816  12.615
32397W        W  791  27.902  27.848  13.674
32398W        W  792  30.242  34.742   2.477
32399W        W  793  22.261  27.908  14.848
32400W        W  794   0.503  30.034  11.556
32401W        W  795  21.967  19.906   4.589
32402W        W  796  34.005  40.097   3.745
32403W        W  797  32.049  25.240  11.577
32404W        W  798  24.562  40.838   4.161
32405W        W  799  36.822  34.154  13.502
32406W        W  800  23.002  33.179  13.886
32407W        W  801  20.426  24.214   1.445
32408W        W  802  26.630  43.163  14.358
32409W        W  803   6.586  31.582  13.644
32410W        W  804  27.029   9.232  14.836
32411W        W  805  15.064  13.987  14.557
32412W        W  806   4.218  37.646  14.049
32413W        W  807  17.306  41.743  14.331
32414W        W  808  10.673  44.802   2.119
32415W        W  809   9.512  39.219   1.027
32416W        W  810  14.033   5.758   4.058
32417W        W  811   4.901  39.175  11.191
32418W        W  812  36.921  17.780  13.327
32419W        W  813  28.067  21.253   1.540
32420W        W  814  32.476  42.824   2.180
32421W        W  815   1.727  39.417   4.056
32422W        W  816  27.144  27.427   3.651
32423W        W  817  28.967  26.648  12.022
32424W        W  818  14.152   1.931  10.938
32425W        W  819  34.644  42.964  11.873
32426W        W  820  38.838  23.950  14.138
32427W        W  821  17.066  25.559  12.990
32428W        W  822  12.607   3.713  14.381
32429W        W  823  18.487  23.433   1.474
32430W        W  824  16.427  27.003  13.346
32431W        W  825  40.789  38.406  14.823
32432W        W  826  14.880  43.384  12.531
32433W        W  827  39.389  28.922  14.797
32434W        W  828   7.357  32.684  14.008
32435W        W  829  11.637   6.938   2.866
32436W        W  830  39.573  37.817  14.088
32437W        W  831  41.062  15.557   1.586
32438W        W  832   3.321   6.248  13.897
32439W        W  833  34.936  15.770   5.188
32440W        W  834  26.704  17.355   3.895
32441W        W  835  20.480  41.040  12.430
32442W        W  836   4.228  31.049   1.892
32443W        W  837   2.975   6.059   0.489
32444W        W  838  32.514   3.200   2.236
32445W        W  839   0.012  42.159  11.572
32446W        W  840  35.928   9.267  14.998
32447W        W  841   0.327   5.613   4.239
32448W        W  842  17.659  17.629   3.949
32449W        W  843   0.303  40.379  12.152
32450W        W  844  17.706  29.474  13.313
32451W        W  845  41.075  33.123   0.299
32452W        W  846  43.791  27.297  14.535
32453W        W  847  17.512  39.277   3.130
32454W        W  848  10.691  22.553  12.435
32455W        W  849  32.657  36.055  11.503
32456W        W  850   9.642  20.187  11.114
32457W        W  851  21.500  43.982   3.426
32458W        W  852  34.211  34.116  13.593
32459W        W  853  19.470  24.560  10.682
32460W        W  854  15.168  44.381  11.520
32461W        W  855   1.065  43.389  14.957
32462W        W  856  16.689  38.921  12.477
32463W        W  857  35.813   7.095   2.415
32464W        W  858  23.030  44.418  10.513
32465W        W  859  32.070  31.437   0.808
32466W        W  860  30.531  30.407   2.796
32467W        W  861  19.966  10.897  13.915
32468W        W  862  44.451  28.591   3.090
32469W        W  863  15.168  38.317  14.232
32470W        W  864  34.677  43.883  11.599
32471W        W  865  40.407   8.684   2.214
32472W        W  866  13.759  23.672  14.793
32473W        W  867   7.377   3.703  13.948
32474W        W  868  26.076   8.692   0.390
32475W        W  869   4.171  27.314  13.808
32476W        W  870  29.124  35.442   0.651
32477W        W  871  23.480  26.284  11.204
32478W        W  872   7.645  20.877   5.054
32479W        W  873  17.723  13.444  14.554
32480W        W  874   5.175  36.576  14.068
32481W        W  875  24.225  24.705  13.931
32482W        W  876  40.413   3.414   2.662
32483W        W  877  33.938   5.193   3.289
32484W        W  878   6.676  19.515  14.825
32485W        W  879  16.663  28.477   2.762
32486W        W  880  42.603  23.608  10.854
32487W        W  881   2.964  17.754  13.650
32488W        W  882  14.360  44.704  13.794
32489W        W  883  20.109  30.321   4.816
32490W        W  884  34.725  33.407  13.726
32491W        W  885  31.662  33.208  14.502
32492W        W  886  13.283   8.175   0.915
32493W        W  887  22.267  20.165   4.137
32494W        W  888  26.978  25.517  10.670
32495W        W  889  29.698   5.565  14.589
32496W        W  890  14.181  29.086  12.844
32497W        W  891  42.487  23.258   4.526
32498W        W  892   9.651  13.274   2.016
32499W        W  893  25.071  37.337  12.908
32500W        W  894   8.020   9.940  11.999
32501W        W  895  14.304  38.174   3.126
32502W        W  896  31.649   1.343   2.882
32503W        W  897   4.393  39.263  11.137
32504W        W  898   1.367   2.756  10.693
32505W        W  899  39.303  23.768   0.534
32506W        W  900  26.974  31.610  12.976
32507W        W  901  25.067  32.104  13.830
32508W        W  902  39.237  44.318   2.734
32509W        W  903  14.747  41.402  10.239
32510W        W  904  40.522  22.929   1.977
32511W        W  905  12.299  34.177  12.039
32512W        W  906  19.474  44.005  10.587
32513W        W  907  34.926  18.064  14.550
32514W        W  908   0.229  38.963  12.450
32515W        W  909  23.642  41.099   0.462
32516W        W  910  36.120  30.128  13.380
32517W        W  911  44.635  39.194  13.792
32518W        W  912  38.643  36.102  14.858
32519W        W  913  32.976  10.150   4.774
32520W        W  914  18.281  40.065   2.868
32521W        W  915  30.479   5.309  13.599
32522W        W  916  14.281  38.435   4.729
32523W        W  917  12.642   6.240   2.319
32524W        W  918  19.632  37.457  12.908
32525W        W  919  16.374  24.450   1.436
32526W        W  920  15.679  24.910   2.228
32527W        W  921  14.323  22.664  13.364
32528W        W  922  40.389  10.076  12.121
32529W        W  923  26.252  13.380  11.585
32530W        W  924  36.346  25.432   4.772
32531W        W  925  29.610  39.316  13.931
32532W        W  926  15.958  15.279  10.864
32533W        W  927  17.962  21.580  12.870
32534W        W  928  26.491  10.743  12.124
32535W        W  929   1.839   8.581   2.825
32536W        W  930  13.280  34.920   1.026
32537W        W  931   1.478   9.238  13.626
32538W        W  932   4.196   5.404  13.397
32539W        W  933  10.551   8.774   1.897
32540W        W  934  17.833  35.137  11.284
32541W        W  935  21.637   1.181   2.413
32542W        W  936  19.807  24.426   4.732
32543W        W  937  41.968  24.274   0.333
32544W        W  938  19.432  40.691  10.324
32545W        W  939  18.162  17.588   4.089
32546W        W  940   5.655  16.849  12.586
32547W        W  941  19.939  43.656  14.230
32548W        W  942   4.429  17.800   2.046
32549W        W  943  27.469  18.376   2.500
32550W        W  944   6.144  39.962   1.987
32551W        W  945   3.237  24.337   5.155
32552W        W  946  37.760   6.368   2.615
32553W        W  947  37.545  22.376  12.902
32554W        W  948   7.126  43.506  10.645
32555W        W  949   5.782  34.337   1.771
32556W        W  950  20.378  16.765  11.364
32557W        W  951   2.502   6.284   2.613
32558W        W  952  39.644   7.341  13.596
32559W        W  953  19.309   1.659   0.342
32560W        W  954   6.376   3.378  12.119
32561W        W  955  29.619  21.160   0.947
32562W        W  956  30.915  26.717  14.361
32563W        W  957   2.290  10.591   4.201
32564W        W  958  28.954  42.258  14.970
32565W        W  959  21.776  27.123   1.251
32566W        W  960  29.679  16.562   4.274
32567W        W  961  36.125   9.246  12.155
32568W        W  962  28.017   5.308   1.170
32569W        W  963   3.564   5.376  14.499
32570W        W  964  41.596  24.553   1.684
32571W        W  965  44.076  36.357  10.228
32572W        W  966  32.689   7.119  11.171
32573W        W  967  11.349  11.864   5.192
32574W        W  968   2.883  41.051   1.639
32575W        W  969   3.393  10.820   4.763
32576W        W  970  25.930  37.931   1.411
32577W        W  971  11.293  20.618  14.850
32578W        W  972   9.717  26.110   0.305
32579W        W  973  38.565   8.210   2.232
32580W        W  974  20.589  28.944   0.243
32581W        W  975  13.029  31.904  11.230
32582W        W  976   0.333  27.734   1.693
32583W        W  977  10.241  32.950  11.902
32584W        W  978   6.535  26.712  13.734
32585W        W  979  20.703   4.000   2.628
32586W        W  980  22.543  32.428  14.253
32587W        W  981  39.457  15.848   0.398
32588W        W  982  20.121  10.640  13.493
32589W        W  983  32.888   9.888  12.435
32590W        W  984   0.983   7.251  11.141
32591W        W  985  27.122  25.164   1.164
32592W        W  986  25.410   8.286  14.042
32593W        W  987  36.972  35.527   1.229
32594W        W  988  27.081   7.154   1.795
32595W        W  989  19.975  41.229   4.542
32596W        W  990  13.384  10.649  14.983
32597W        W  991  22.539   7.272   1.875
32598W        W  992  30.738  31.746  14.602
32599W        W  993  14.364  11.672   4.119
32600W        W  994  40.879  42.526   2.719
32601W        W  995  19.606  30.800   1.201
32602W        W  996  42.995  18.517   3.193
32603W        W  997  40.353  38.902  12.022
32604W        W  998  40.882  29.008   3.425
32605W        W  999  39.502  12.698  10.945
32606W        W 1000   8.739  32.158   0.932
32607W        W 1001  29.034  34.666  11.407
32608W        W 1002  13.398   8.154   1.815
32609W        W 1003   8.610  33.793  13.081
32610W        W 1004  15.537  17.120   0.324
32611W        W 1005  36.340   8.910  13.528
32612W        W 1006  18.020  42.300   0.361
32613W        W 1007  33.079  42.856   0.920
32614W        W 1008  40.632   0.889   9.937
32615W        W 1009   3.257   5.764   2.360
32616W        W 1010  35.900  39.142   4.233
32617W        W 1011  38.015  34.493  11.555
32618W        W 1012  35.913  21.769  12.555
32619W        W 1013  37.990   4.137  14.827
32620W        W 1014  20.094  31.090  12.107
32621W        W 1015  28.750   9.848  12.877
32622W        W 1016  31.135  41.969  10.620
32623W        W 1017   7.410  13.488  12.423
32624W        W 1018  28.568  44.903  10.282
32625W        W 1019   5.625  22.320  11.501
32626W        W 1020   4.817   2.792  11.097
32627W        W 1021  10.149  16.762  14.277
32628W        W 1022   5.231  11.374   0.463
32629W        W 1023  14.779   9.279  11.914
32630W        W 1024   6.186  28.030  10.705
32631W        W 1025  18.995  21.780   1.406
32632W        W 1026   1.043   6.178   4.599
32633W        W 1027  12.641  15.256  11.682
32634W        W 1028   9.318  21.050  10.650
32635W        W 1029  34.323  17.423   3.205
32636W        W 1030   0.335  22.413  13.821
32637W        W 1031   7.677  24.577  12.656
32638W        W 1032  40.177  23.438  11.989
32639W        W 1033  31.094  21.301  13.014
32640W        W 1034  22.779  38.458   2.343
32641W        W 1035  43.340  33.380  14.917
32642W        W 1036  39.986   4.710   1.676
32643W        W 1037  28.704  26.527   0.497
32644W        W 1038  12.257   5.215   1.792
32645W        W 1039  18.681  32.908  13.499
32646W        W 1040  12.172  17.135   1.241
32647W        W 1041  18.162  32.688  13.350
32648W        W 1042  19.373   2.383  10.788
32649W        W 1043  17.154  24.220   1.127
32650W        W 1044  26.529  26.931   4.325
32651W        W 1045   2.048  32.671   1.469
32652W        W 1046   3.803   5.351   4.013
32653W        W 1047  37.416  32.224   3.434
32654W        W 1048  17.311  38.859   0.952
32655W        W 1049  11.349   7.424   1.777
32656W        W 1050  39.672  38.843  11.446
32657W        W 1051  44.015  12.186   4.246
32658W        W 1052  16.994   7.927  14.488
32659W        W 1053  20.451  11.957  11.067
32660W        W 1054  26.767  25.547   1.232
32661W        W 1055  28.427  10.456  13.607
32662W        W 1056  15.286  34.869   4.412
32663W        W 1057  16.200  12.887  12.559
32664W        W 1058  35.118   3.372  12.037
32665W        W 1059  41.828  32.130  14.782
32666W        W 1060  37.552  21.138  13.367
32667W        W 1061  18.641   1.734   0.828
32668W        W 1062  26.358   7.962  10.769
32669W        W 1063  11.837  16.725   1.229
32670W        W 1064  44.944  22.749  10.553
32671W        W 1065  36.473  12.638   2.874
32672W        W 1066  42.885  38.546  12.976
32673W        W 1067   7.438   2.455  13.568
32674W        W 1068  41.112   9.074   2.374
32675W        W 1069  28.831  19.520   2.668
32676W        W 1070  41.602  22.185  11.243
32677W        W 1071  38.701  37.406   0.072
32678W        W 1072  28.692   3.275   1.446
32679W        W 1073  43.006  37.639  12.160
32680W        W 1074   9.074   8.918   2.229
32681W        W 1075  40.850  39.986  14.382
32682W        W 1076  17.051  21.336  13.825
32683W        W 1077   8.275  31.333  10.449
32684W        W 1078  35.027  31.665   2.813
32685W        W 1079   7.659  42.476   0.011
32686W        W 1080  38.277   3.968   0.785
32687W        W 1081  34.451  19.091   2.668
32688W        W 1082   5.998  38.237   4.172
32689W        W 1083  20.749  21.733   0.371
32690W        W 1084  18.235  25.790   1.259
32691W        W 1085   4.507  42.972   3.881
32692W        W 1086  42.606  14.816  13.437
32693W        W 1087  23.879   1.764   0.463
32694W        W 1088  26.586  22.056  14.004
32695W        W 1089  37.584  44.065  13.098
32696W        W 1090  10.855  41.959  14.302
32697W        W 1091  26.262  26.667  13.843
32698W        W 1092  38.133  11.296  11.796
32699W        W 1093  16.174  41.916   4.112
32700W        W 1094  17.084  25.215  13.455
32701W        W 1095   3.454  32.732   4.201
32702W        W 1096   6.458  17.635   2.348
32703W        W 1097  30.070  28.746  12.494
32704W        W 1098  30.480  12.835   2.237
32705W        W 1099   9.729   8.358  10.626
32706W        W 1100   9.240  34.891  12.832
32707W        W 1101  16.348  22.769   4.427
32708W        W 1102  30.821   6.019   2.725
32709W        W 1103  21.748  21.933  12.359
32710W        W 1104  23.375  10.266  11.613
32711W        W 1105   6.778   2.980  13.745
32712W        W 1106  33.266  20.773  11.634
32713W        W 1107  35.804  41.481  12.009
32714W        W 1108  25.496   8.935   1.883
32715W        W 1109  12.854  30.690   2.748
32716W        W 1110  10.235  10.687  12.102
32717W        W 1111  43.131   5.330  11.605
32718W        W 1112   2.763   7.740  12.090
32719W        W 1113  22.953   8.530  13.089
32720W        W 1114  31.980  17.618  11.917
32721W        W 1115  25.418  34.515   3.348
32722W        W 1116  44.460  13.910  14.373
32723W        W 1117   8.530  43.030   4.262
32724W        W 1118   0.748  18.219  13.386
32725W        W 1119  39.581  28.047   4.459
32726W        W 1120   6.670  29.068   4.080
32727W        W 1121  39.221  32.381   0.382
32728W        W 1122  39.144  15.483  11.482
32729W        W 1123  28.107   1.679  14.433
32730W        W 1124  21.490   7.682   3.727
32731W        W 1125  32.521  40.889  13.365
32732W        W 1126   6.900   1.895  12.492
32733W        W 1127  23.960  12.419  10.018
32734W        W 1128  15.115  15.267  14.323
32735W        W 1129  30.373  14.332  11.207
32736W        W 1130  21.180   5.802   3.118
32737W        W 1131   8.454  31.942  13.003
32738W        W 1132  26.380  34.136   3.190
32739W        W 1133  36.828  40.530  12.339
32740W        W 1134  42.964   0.795  13.219
32741W        W 1135  35.940  44.289   0.736
32742W        W 1136  41.792  43.949  14.498
32743W        W 1137   1.832  41.179  12.850
32744W        W 1138   3.974  22.969   2.773
32745W        W 1139  11.325  19.172  12.507
32746W        W 1140  26.417  21.501   1.732
32747W        W 1141  23.966  12.264   4.583
32748W        W 1142  32.428  38.135   1.755
32749W        W 1143  22.602  25.115   3.239
32750W        W 1144  19.254  22.985  12.936
32751W        W 1145   1.888  19.355   3.317
32752W        W 1146  41.765   8.850   2.864
32753W        W 1147   2.926  23.545  14.006
32754W        W 1148  27.224  23.651  12.188
32755W        W 1149  29.363  28.978   2.349
32756W        W 1150  23.670  24.599   0.363
32757W        W 1151   0.734  24.187   1.279
32758W        W 1152  28.512   4.357  11.425
32759W        W 1153  19.731  35.983   1.878
32760W        W 1154  11.701   1.263   1.235
32761W        W 1155   2.924  12.174  10.703
32762W        W 1156  44.562   6.721  14.680
32763W        W 1157  19.754   3.706   1.980
32764W        W 1158  19.302  28.448   2.093
32765W        W 1159  33.637  24.107  12.902
32766W        W 1160  17.750  30.744  10.992
32767W        W 1161  34.443  25.706   2.326
32768W        W 1162  35.535  17.482  13.362
32769W        W 1163   2.470  32.583  14.879
32770W        W 1164   0.501  29.403  13.865
32771W        W 1165  37.562  40.804  14.144
32772W        W 1166   7.828   9.420   3.259
32773W        W 1167  41.839  34.121  13.547
32774W        W 1168  37.352  26.254  12.506
32775W        W 1169  40.457  26.256  11.630
32776W        W 1170  14.739  18.944  13.533
32777W        W 1171  35.601  44.944  11.638
32778W        W 1172  30.555  15.676   0.041
32779W        W 1173  39.825   3.511   3.429
32780W        W 1174  30.660  17.782  13.134
32781W        W 1175  36.753  19.167  14.312
32782W        W 1176  42.095  27.985  14.467
32783W        W 1177  20.611  29.067   4.596
32784W        W 1178  14.318  39.870   4.182
32785W        W 1179  21.431  10.650   9.845
32786W        W 1180   4.763  20.086   0.681
32787W        W 1181  31.318  41.139  10.356
32788W        W 1182  22.834  13.840   2.580
32789W        W 1183   2.948   0.481   3.822
32790W        W 1184  41.561   4.431  13.543
32791W        W 1185  14.824  43.570   1.342
32792W        W 1186  15.340  23.444   0.510
32793W        W 1187   6.493   6.280   2.097
32794W        W 1188  35.482  38.534   4.036
32795W        W 1189  39.436  34.689  12.587
32796W        W 1190  44.383  10.780   1.278
32797W        W 1191   4.794  30.857   3.167
32798W        W 1192   2.373   1.472  12.932
32799W        W 1193   0.466  40.478  14.569
32800W        W 1194  27.811   4.771   3.605
32801W        W 1195  15.380  10.277   2.229
32802W        W 1196  42.777  35.425  11.705
32803W        W 1197  25.288   9.691  12.924
32804W        W 1198   8.895   3.733   1.743
32805W        W 1199  11.067  40.518   2.739
32806W        W 1200  20.279  12.180   4.693
32807W        W 1201  36.432   7.862   1.645
32808W        W 1202  18.120  18.297   0.228
32809W        W 1203  25.153  12.750   0.658
32810W        W 1204  40.074  33.502   1.809
32811W        W 1205  38.155  42.741   4.117
32812W        W 1206   8.357   8.205  11.459
32813W        W 1207  40.594  25.999  10.662
32814W        W 1208   7.934  44.292   4.476
32815W        W 1209  44.774  33.037  12.599
32816W        W 1210   3.253  40.544   1.994
32817W        W 1211  38.607  31.806  10.515
32818W        W 1212  12.321  20.486   0.266
32819W        W 1213  26.958   4.705   4.117
32820W        W 1214  10.380  25.674  13.254
32821W        W 1215  26.477  35.105   1.546
32822W        W 1216   7.639   6.711  13.828
32823W        W 1217  16.279  23.376   3.691
32824W        W 1218  40.946  15.838   3.948
32825W        W 1219   2.494  34.068   4.534
32826W        W 1220  40.254  27.616  12.457
32827W        W 1221  19.837  44.439  10.611
32828W        W 1222  21.357  20.451  12.401
32829W        W 1223  37.620  39.417   3.391
32830W        W 1224   4.160   9.027  10.999
32831W        W 1225   6.174  13.535   4.134
32832W        W 1226  11.600  33.007   1.948
32833W        W 1227  28.921  26.054   2.718
32834W        W 1228  18.791  24.230   2.548
32835W        W 1229   0.162   9.277   2.176
32836W        W 1230  29.263   7.742   0.861
32837W        W 1231  33.276  44.452  14.376
32838W        W 1232  24.237  29.076  11.587
32839W        W 1233  29.673  19.736  10.776
32840W        W 1234  32.448   9.095  10.896
32841W        W 1235  14.248  21.725  12.520
32842W        W 1236  34.923  12.732  14.483
32843W        W 1237  43.811  27.687   2.342
32844W        W 1238   1.862  36.334  13.612
32845W        W 1239   8.447  28.860  11.499
32846W        W 1240  10.234  31.696  10.931
32847W        W 1241  30.012  34.326  13.027
32848W        W 1242  16.531  35.660   0.635
32849W        W 1243  13.238   5.828  12.383
32850W        W 1244  15.104  10.752   0.320
32851W        W 1245  15.585  11.308  12.863
32852W        W 1246  19.760  34.019  13.391
32853W        W 1247   7.035   5.944  12.891
32854W        W 1248   4.277   3.291  12.474
32855W        W 1249  10.807   6.880  12.566
32856W        W 1250  43.872  23.663  12.467
32857W        W 1251  39.000  22.096  13.812
32858W        W 1252   5.559  34.557   2.313
32859W        W 1253  22.198  20.728   1.519
32860W        W 1254  37.609  29.408   2.136
32861W        W 1255  12.228   6.416  12.181
32862W        W 1256  15.968  11.687  11.082
32863W        W 1257  30.616  24.731  13.955
32864W        W 1258  42.874  18.642  14.122
32865W        W 1259  36.289  14.720   4.621
32866W        W 1260  24.588  39.905  14.999
32867W        W 1261   1.902  29.181   1.310
32868W        W 1262  22.056  27.850   2.184
32869W        W 1263  44.012   9.118  11.630
32870W        W 1264  41.473  15.734  10.860
32871W        W 1265  22.124  10.063  11.949
32872W        W 1266  30.835  25.527  11.872
32873W        W 1267   8.087  18.239  14.027
32874W        W 1268  16.836   1.841  11.503
32875W        W 1269  26.552   6.843  13.269
32876W        W 1270  28.539  16.386   2.917
32877W        W 1271  32.658  13.730  12.591
32878W        W 1272  23.167   8.155  14.815
32879W        W 1273  25.985  12.610  10.662
32880W        W 1274  44.597  12.162   3.312
32881W        W 1275   8.795  16.253  10.548
32882W        W 1276  20.933   1.724   1.937
32883W        W 1277  33.048  40.852  14.288
32884W        W 1278   3.139  29.349  13.688
32885W        W 1279  40.839  21.706   1.976
32886W        W 1280  15.580   8.162  12.435
32887W        W 1281  42.924  29.228  11.919
32888W        W 1282  21.630   2.876   0.282
32889W        W 1283  23.267   9.045  10.190
32890W        W 1284  14.873  11.290  13.515
32891W        W 1285   6.817  35.544   2.227
32892W        W 1286  39.810   2.971   0.401
32893W        W 1287  17.364  27.815   2.874
32894W        W 1288  34.102   8.610   1.435
32895W        W 1289  20.584  28.926  11.187
32896W        W 1290  38.525   8.976  10.032
32897W        W 1291  35.803  19.724  14.430
32898W        W 1292  20.628  32.009  12.075
32899W        W 1293  27.583  26.058   1.980
32900W        W 1294   0.802  34.918   1.930
32901W        W 1295   0.437   1.162   2.381
32902W        W 1296  38.902   9.648  10.991
32903W        W 1297  13.767  42.801  10.732
32904W        W 1298  39.536  41.344   4.998
32905W        W 1299  30.984  25.535   2.105
32906W        W 1300   7.168  42.936   2.714
32907W        W 1301  17.390   2.923   0.494
32908W        W 1302  17.494   6.810  13.072
32909W        W 1303  44.712  44.417   1.013
32910W        W 1304  41.594   3.422   1.182
32911W        W 1305  34.035  22.026  13.447
32912W        W 1306  14.198  19.477  13.795
32913W        W 1307  24.125  13.191   1.922
32914W        W 1308  17.626  43.885  13.493
32915W        W 1309   9.976   0.329   0.403
32916W        W 1310  37.629  24.825   1.908
32917W        W 1311  24.268  12.483  10.424
32918W        W 1312  43.332  27.610   1.802
32919W        W 1313   6.964  16.595   3.107
32920W        W 1314  39.152   1.770   2.287
32921W        W 1315   2.782  34.474  12.501
32922W        W 1316  27.986  44.023   3.053
32923W        W 1317   5.349  10.317  13.562
32924W        W 1318  42.623  13.720  13.377
32925W        W 1319  41.751  11.670   4.287
32926W        W 1320  22.136   9.585   3.715
32927W        W 1321  21.986  40.920  10.397
32928W        W 1322  24.914   0.517   1.314
32929W        W 1323  15.035  35.136   4.783
32930W        W 1324  35.068  42.715  13.070
32931W        W 1325   1.829  25.474   2.682
32932W        W 1326   8.846  34.081   0.818
32933W        W 1327  36.306  31.114  13.031
32934W        W 1328  31.103  23.241   0.846
32935W        W 1329  35.702   8.138   2.853
32936W        W 1330  34.389  27.547   0.328
32937W        W 1331  23.045  15.291   1.374
32938W        W 1332  24.660   8.780   5.273
32939W        W 1333  33.904  17.579   2.240
32940W        W 1334  21.991  33.947  14.453
32941W        W 1335  28.920  34.951  13.513
32942W        W 1336  20.727  34.440   2.367
32943W        W 1337  21.118  38.163  13.534
32944W        W 1338   1.755  22.711  12.257
32945W        W 1339  39.581  28.411  13.363
32946W        W 1340   9.002  38.816   0.403
32947W        W 1341  29.972  18.773   2.860
32948W        W 1342  25.695  33.708  13.000
32949W        W 1343   9.618  26.515  13.365
32950W        W 1344  25.631  20.169  13.829
32951W        W 1345  25.739  28.951   2.808
32952W        W 1346   2.949  29.008   0.202
32953W        W 1347  27.037  21.159   3.847
32954W        W 1348   0.847   8.135  11.124
32955W        W 1349  19.646  21.257   1.730
32956W        W 1350  17.949  15.960   5.354
32957W        W 1351  32.032  23.933  14.471
32958W        W 1352   3.020  31.088  12.955
32959W        W 1353   2.431  38.614   4.874
32960W        W 1354  22.499  19.136   0.874
32961W        W 1355  11.229   9.780   3.735
32962W        W 1356   2.543   3.780   0.810
32963W        W 1357  39.421   8.173   2.883
32964W        W 1358  13.219  34.953   2.951
32965W        W 1359  42.844  17.116  13.452
32966W        W 1360   7.807  19.036   2.816
32967W        W 1361  29.627  19.791   3.067
32968W        W 1362  28.506  13.991  14.828
32969W        W 1363   8.837  25.194  14.765
32970W        W 1364  40.916  24.562   0.283
32971W        W 1365   4.450   2.771  11.951
32972W        W 1366  39.418  44.393  11.919
32973W        W 1367  39.802   0.477   0.316
32974W        W 1368  36.943  14.203  10.677
32975W        W 1369  12.795  20.859  12.079
32976W        W 1370   4.273  41.268   0.167
32977W        W 1371  22.105  44.248   0.410
32978W        W 1372   4.819  20.236   3.891
32979W        W 1373  13.798  36.920   4.230
32980W        W 1374  12.200  35.023   2.792
32981W        W 1375  21.883  20.546  11.504
32982W        W 1376  26.039  10.095   4.086
32983W        W 1377  37.689  20.324  12.554
32984W        W 1378  14.327  34.949  10.874
32985W        W 1379  17.083   5.793   3.145
32986W        W 1380  36.549  43.243  11.967
32987W        W 1381   8.343   5.755   1.306
32988W        W 1382  29.169  12.933  12.999
32989W        W 1383  15.890  29.162   2.708
32990W        W 1384  14.362  32.083  10.696
32991W        W 1385  41.973  38.500  10.977
32992W        W 1386  15.732  44.414  13.600
32993W        W 1387  38.562  11.563   3.979
32994W        W 1388  16.284  17.712   0.447
32995W        W 1389   6.249  18.537   1.286
32996W        W 1390  21.292  37.694   2.843
32997W        W 1391  34.420  23.229   1.356
32998W        W 1392   1.905  15.247  13.517
32999W        W 1393  14.033  18.217   1.260
33000W        W 1394  15.589  39.984   2.259
33001W        W 1395  35.887  13.323   1.268
33002W        W 1396  14.994  31.225  11.607
33003W        W 1397  33.713  25.487   0.933
33004W        W 1398  14.604  37.013   0.369
33005W        W 1399  11.199   2.143  12.602
33006W        W 1400  13.352  40.103  11.031
33007W        W 1401  20.696   2.000   3.194
33008W        W 1402  35.381  34.149  14.084
33009W        W 1403  15.299  16.497  11.500
33010W        W 1404   5.172   4.690  13.636
33011W        W 1405  22.301  24.107   2.185
33012W        W 1406  37.551  32.991  10.732
33013W        W 1407   8.787  11.685   0.853
33014W        W 1408   3.806   6.982  13.878
33015W        W 1409   2.180  44.034   1.875
33016W        W 1410  24.135  43.058   3.006
33017W        W 1411  28.893  42.292   0.885
33018W        W 1412  17.309  34.227  11.166
33019W        W 1413  26.206  27.882   0.406
33020W        W 1414  15.893  18.691  14.727
33021W        W 1415   3.715  44.224  14.444
33022W        W 1416  15.491  18.426  14.909
33023W        W 1417  21.540  37.288  14.879
33024W        W 1418   7.098  24.783   3.064
33025W        W 1419   4.066  15.070  14.698
33026W        W 1420  16.814  25.263   3.898
33027W        W 1421   8.900  22.681   4.022
33028W        W 1422   6.971  30.927  13.435
33029W        W 1423  39.495   8.720   4.034
33030W        W 1424  43.354   4.554   2.492
33031W        W 1425   7.276  42.249   3.196
33032W        W 1426  36.874  41.826  10.708
33033W        W 1427  33.422  40.264  14.145
33034W        W 1428  32.865   9.229  11.262
33035W        W 1429   0.085   4.184  13.364
33036W        W 1430  33.864   9.621  13.200
33037W        W 1431   6.870  15.252  10.944
33038W        W 1432   7.630  22.183   3.302
33039W        W 1433  10.707  20.565  11.621
33040W        W 1434  11.203   6.457   4.501
33041W        W 1435  44.500  38.170  13.764
33042W        W 1436  20.926  30.947   3.340
33043W        W 1437  44.257  15.276   0.908
33044W        W 1438  23.552  42.268  10.360
33045W        W 1439  39.809  19.291   3.660
33046W        W 1440  21.115  28.892   4.504
33047W        W 1441  12.186  27.601   4.178
33048W        W 1442   1.586  37.008   3.854
33049W        W 1443  30.491  35.833  11.352
33050W        W 1444   2.960  15.850   3.624
33051W        W 1445  14.573   0.488   1.190
33052W        W 1446  38.942   1.434   0.057
33053W        W 1447  13.528  44.689   4.107
33054W        W 1448  39.247  37.188   1.817
33055W        W 1449   8.062  27.242   0.718
33056W        W 1450  21.612   1.718   3.253
33057W        W 1451  28.669  12.167  13.027
33058W        W 1452   5.095  30.344  11.928
33059W        W 1453  15.266  31.583   3.662
33060W        W 1454  33.846  26.084   0.444
33061W        W 1455  12.218   2.725  14.750
33062W        W 1456  19.208  15.892   4.500
33063W        W 1457   7.472  36.433   4.475
33064W        W 1458  17.533   3.954  11.106
33065W        W 1459   0.877  16.477  12.429
33066W        W 1460  42.500  41.500  13.846
33067W        W 1461  35.378  33.486  12.450
33068W        W 1462  20.184  38.383  14.952
33069W        W 1463   6.903   1.330   2.720
33070W        W 1464  26.940  33.546   0.891
33071W        W 1465  44.987   3.812  14.835
33072W        W 1466  20.938  12.696  11.673
33073W        W 1467  44.433  29.881  13.011
33074W        W 1468   8.355  29.538  14.048
33075W        W 1469   0.412   7.218   4.204
33076W        W 1470  16.250  12.832   4.987
33077W        W 1471  40.744  20.101  11.009
33078W        W 1472  33.542  10.090  10.730
33079W        W 1473   5.147  19.527   2.314
33080W        W 1474   0.437  34.855  14.383
33081W        W 1475   4.262  41.961   1.393
33082W        W 1476  35.629   1.483  10.742
33083W        W 1477  22.505  36.522  13.433
33084W        W 1478  38.476  37.996   0.408
33085W        W 1479   9.409  31.787   3.306
33086W        W 1480  29.053  21.188   2.125
33087W        W 1481  18.227  14.545   4.037
33088W        W 1482  19.847  41.326   0.654
33089W        W 1483  39.929  37.509  13.872
33090W        W 1484  12.301  33.788   1.354
33091W        W 1485   6.435  40.603   4.910
33092W        W 1486   5.262  31.429   0.237
33093W        W 1487   4.278  20.203   4.034
33094W        W 1488  12.236   6.740  14.364
33095W        W 1489  15.204  12.656  12.054
33096W        W 1490  25.010  25.686  13.747
33097W        W 1491  18.209  27.416   3.313
33098W        W 1492  44.229   7.767  13.324
33099W        W 1493   0.729   4.258  11.949
33100W        W 1494  28.756   1.536  11.519
33101W        W 1495  37.345  38.176  12.952
33102W        W 1496  40.040  25.392  12.288
33103W        W 1497  31.580  33.999   1.432
33104W        W 1498  12.745  41.266   0.857
33105W        W 1499  11.726  42.756  13.451
33106W        W 1500   9.729   5.495  11.121
33107W        W 1501  30.331  31.931   4.454
33108W        W 1502  26.362  11.758  10.211
33109W        W 1503   5.232  32.129  13.319
33110W        W 1504  11.128   0.937   2.764
33111W        W 1505  20.408  18.917  13.185
33112W        W 1506  20.082  11.884  12.764
33113W        W 1507  13.318  30.637  14.102
33114W        W 1508  17.573  44.412  13.497
33115W        W 1509   3.128  29.667   1.363
33116W        W 1510  17.808  23.206  12.561
33117W        W 1511  27.452  25.070   4.033
33118W        W 1512  10.849   0.780   4.719
33119W        W 1513  18.850  21.610   4.556
33120W        W 1514  44.157  39.535   4.055
33121W        W 1515   1.800  33.420   4.513
33122W        W 1516   1.890   2.373   4.907
33123W        W 1517  34.029  25.546   3.869
33124W        W 1518  26.643  13.854   4.398
33125W        W 1519  38.037  32.421  12.910
33126W        W 1520   6.533   7.746  14.375
33127W        W 1521   8.078  44.464   4.006
33128W        W 1522  26.191   7.218  13.279
33129W        W 1523  30.134  36.956  10.713
33130W        W 1524   9.513  21.143   3.717
33131W        W 1525  31.408  13.889  11.280
33132W        W 1526  30.933   7.301   4.187
33133W        W 1527  22.320  20.190   3.243
33134W        W 1528  29.689  17.583  13.809
33135W        W 1529   5.108   8.785   4.328
33136W        W 1530  29.830  27.799  12.555
33137W        W 1531  31.938  27.892   2.906
33138W        W 1532  28.646  14.248   4.908
33139W        W 1533  40.083   7.581  13.856
33140W        W 1534   4.661  10.999  14.628
33141W        W 1535  26.271  25.158  13.454
33142W        W 1536  41.119  18.750  14.258
33143W        W 1537  23.201  38.096   4.806
33144W        W 1538   6.824   0.533  14.975
33145W        W 1539  26.136   0.492  13.821
33146W        W 1540  12.778  30.020   4.592
33147W        W 1541  19.019  26.017  10.701
33148W        W 1542  20.167  29.976   4.073
33149W        W 1543  36.536  35.748  12.389
33150W        W 1544   9.097  38.244   2.906
33151W        W 1545  11.290  43.198  13.989
33152W        W 1546  33.933  37.849   1.677
33153W        W 1547  18.025   4.836  11.975
33154W        W 1548  16.062  10.315   2.081
33155W        W 1549  38.877  40.541   1.462
33156W        W 1550  29.641  38.023   3.299
33157W        W 1551   3.514  12.248   2.288
33158W        W 1552  29.555   1.333  14.918
33159W        W 1553   6.977  44.642  11.362
33160W        W 1554   6.674  13.828   1.009
33161W        W 1555  27.412  33.183  11.627
33162W        W 1556  14.584  14.147  11.143
33163W        W 1557  31.183  34.088  14.411
33164W        W 1558  32.523   8.612  13.020
33165W        W 1559   6.543  33.272  13.476
33166W        W 1560  18.814  37.691  11.561
33167W        W 1561  43.358  34.897   5.062
33168W        W 1562  31.953  34.948  11.375
33169W        W 1563  34.525   9.142   4.808
33170W        W 1564  14.679  14.106   4.671
33171W        W 1565  15.987  40.515  11.158
33172W        W 1566  26.054  40.195   3.788
33173W        W 1567  27.306  41.937   2.254
33174W        W 1568  39.306   5.291  10.494
33175W        W 1569  29.856  29.685   4.140
33176W        W 1570  28.826  10.340   4.105
33177W        W 1571  27.952  13.708  14.080
33178W        W 1572  15.341  25.241  11.548
33179W        W 1573  41.892  22.274   0.397
33180W        W 1574  11.600  14.265   5.026
33181W        W 1575   1.391  33.082  10.494
33182W        W 1576  24.989  15.231   4.926
33183W        W 1577  15.241  39.053  10.224
33184W        W 1578  19.057  24.015   4.477
33185W        W 1579  24.115  39.482  14.880
33186W        W 1580  35.874  19.041   1.384
33187W        W 1581   7.193  37.316  10.373
33188W        W 1582   0.471  36.486  13.331
33189W        W 1583  32.812  14.306  12.465
33190W        W 1584  27.257   8.961  10.130
33191W        W 1585   3.523   9.733   2.410
33192W        W 1586  37.100   5.221   3.496
33193W        W 1587  25.501  44.994  13.373
33194W        W 1588  33.396  25.877  13.599
33195W        W 1589  30.048  11.333   1.397
33196W        W 1590  17.195   6.014  12.468
33197W        W 1591  14.536  29.605  14.477
33198W        W 1592  40.030  37.003  13.987
33199W        W 1593  13.329  12.663   1.428
33200W        W 1594  20.926  17.072   1.055
33201W        W 1595  11.654  31.623   1.236
33202W        W 1596   1.157   9.285   3.314
33203W        W 1597   3.548   1.844   2.653
33204W        W 1598  44.555  21.885  11.130
33205W        W 1599  21.930  11.793  13.831
33206W        W 1600  10.283   5.796   3.208
33207W        W 1601  22.586  33.795  12.589
33208W        W 1602  36.134   8.260   0.253
33209W        W 1603  44.345   3.343   0.964
33210W        W 1604  33.555  42.047   3.222
33211W        W 1605  11.666  41.591   0.372
33212W        W 1606   9.256  28.186   2.391
33213W        W 1607  28.882  18.560   0.326
33214W        W 1608  39.791  10.346   2.063
33215W        W 1609   2.866  18.260   2.233
33216W        W 1610  30.076  21.817  14.761
33217W        W 1611  15.306  20.535  11.535
33218W        W 1612   2.319  32.170  11.854
33219W        W 1613   0.766  44.844   2.822
33220W        W 1614  36.787  31.115  11.917
33221W        W 1615   8.675  37.575   3.212
33222W        W 1616  44.844  18.707   4.579
33223W        W 1617  17.960  11.796  14.815
33224W        W 1618  12.134   7.236   3.750
33225W        W 1619   0.793  30.899   4.511
33226W        W 1620  24.918  42.777  13.485
33227W        W 1621  41.985  10.619   0.885
33228W        W 1622  41.350  16.015   4.177
33229W        W 1623  12.374  15.933  14.999
33230W        W 1624  43.095  34.335  13.362
33231W        W 1625   1.403  35.531   0.442
33232W        W 1626  35.872   3.349   4.795
33233W        W 1627  40.481  38.015  12.600
33234W        W 1628  42.448   4.858  11.187
33235W        W 1629  24.396  31.359   1.420
33236W        W 1630  14.060  24.316   0.316
33237W        W 1631   0.670  38.314  12.959
33238W        W 1632  34.103  11.580  11.140
33239W        W 1633  36.486  23.322   0.906
33240W        W 1634  39.505   3.318   1.050
33241W        W 1635  26.211  30.028   1.778
33242W        W 1636   4.102  23.671   4.355
33243W        W 1637  28.526  13.299  12.387
33244W        W 1638  40.290  19.568  11.555
33245W        W 1639  16.547  33.633  12.068
33246W        W 1640  11.700  44.463   3.948
33247W        W 1641  21.716  28.230  13.665
33248W        W 1642   4.745  19.611   4.586
33249W        W 1643  39.488   3.757  13.448
33250W        W 1644  36.488  21.646  11.488
33251W        W 1645   1.997   4.384  14.355
33252W        W 1646  21.638  25.417   3.787
33253W        W 1647   1.122  43.235   4.159
33254W        W 1648  43.724   8.804  10.703
33255W        W 1649  14.801  39.764   0.920
33256W        W 1650   2.968  16.116  10.645
33257W        W 1651  24.508   0.741   1.030
33258W        W 1652  35.889  13.094   0.254
33259W        W 1653  37.343  20.266   0.279
33260W        W 1654  33.083  41.325   1.474
33261W        W 1655  44.667  23.262  11.977
33262W        W 1656  24.237  31.573   4.428
33263W        W 1657  16.282   2.808   4.407
33264W        W 1658   4.367   0.244  11.403
33265W        W 1659   6.487   1.016   3.353
33266W        W 1660  20.976  33.108  13.543
33267W        W 1661  18.723   1.057  11.402
33268W        W 1662  21.512  16.768  12.431
33269W        W 1663  28.381   8.296   2.714
33270W        W 1664  28.543   5.938  13.962
33271W        W 1665  12.237  31.464  12.933
33272W        W 1666  15.149  41.107  11.964
33273W        W 1667  22.651  24.747   2.343
33274W        W 1668   7.345  35.646   3.275
33275W        W 1669   4.849  34.017   1.391
33276W        W 1670   8.420   2.799   3.268
33277W        W 1671   5.408   1.220   4.789
33278W        W 1672  16.874   7.295  11.652
33279W        W 1673  10.307  35.326   4.393
33280W        W 1674  33.348  24.092  11.210
33281W        W 1675   7.046  31.392  14.879
33282W        W 1676  40.331  24.746  11.595
33283W        W 1677  38.937   1.839  10.787
33284W        W 1678  40.635  35.139   1.832
33285W        W 1679  30.000  22.814  14.709
33286W        W 1680  21.015  41.929  12.505
33287W        W 1681  32.391  18.748   1.935
33288W        W 1682  18.591   9.716  14.259
33289W        W 1683  29.912  16.266   2.670
33290W        W 1684  30.907  26.686   0.967
33291W        W 1685  17.882  25.109   4.531
33292W        W 1686   9.016  20.040  13.852
33293W        W 1687   0.317  40.392  11.648
33294W        W 1688  28.887  19.886  14.347
33295W        W 1689   8.111  37.293  13.920
33296W        W 1690  42.143  37.644   2.171
33297W        W 1691  24.338  34.104  11.112
33298W        W 1692  11.047  10.149  13.311
33299W        W 1693  10.723   1.339   1.812
33300W        W 1694  32.484   4.859   0.926
33301W        W 1695   9.461   7.896  10.613
33302W        W 1696  30.631   2.958  10.536
33303W        W 1697  29.947  16.121  13.619
33304W        W 1698  43.796  43.903   1.132
33305W        W 1699  21.132  36.138  14.403
33306W        W 1700  42.334  20.942  13.859
33307W        W 1701  12.144   8.694  10.633
33308W        W 1702  26.901  28.520   3.038
33309W        W 1703   2.330   3.814   4.584
33310W        W 1704  12.731  14.369   3.830
33311W        W 1705   3.219   3.874   1.873
33312W        W 1706  41.971  28.505  11.065
33313W        W 1707  37.942  11.436  12.255
33314W        W 1708  18.301  38.705   0.403
33315W        W 1709  12.328  17.491  14.973
33316W        W 1710  33.209  28.038  14.586
33317W        W 1711  44.991  39.648  11.997
33318W        W 1712   5.497   2.692   5.029
33319W        W 1713   7.335   4.420   2.785
33320W        W 1714   3.403  31.075   4.987
33321W        W 1715  22.309  33.946  13.023
33322W        W 1716  16.110   0.724  10.693
33323W        W 1717  39.146  41.780   2.645
33324W        W 1718  20.535  29.995  12.592
33325W        W 1719   9.403   5.651   3.614
33326W        W 1720  42.999  30.472  12.966
33327W        W 1721  44.464  20.772   1.810
33328W        W 1722  37.498  11.129   4.409
33329W        W 1723   7.763   2.385   4.552
33330W        W 1724  28.593  21.125   3.669
33331W        W 1725  29.110   3.436  14.757
33332W        W 1726  37.389   7.255  10.692
33333W        W 1727  38.562  11.825   1.436
33334W        W 1728  16.819  36.387   1.760
33335W        W 1729   2.794   4.458  11.923
33336W        W 1730  13.759  38.435  11.336
33337W        W 1731   9.187  27.166  13.481
33338W        W 1732  13.069  37.456  11.090
33339W        W 1733  25.127  21.716   2.671
33340W        W 1734  30.904   4.268   2.359
33341W        W 1735  29.224   8.483   1.419
33342W        W 1736   5.686  25.585   1.757
33343W        W 1737  31.986  12.853   4.554
33344W        W 1738  34.590  16.107  10.724
33345W        W 1739   9.667  42.447  14.915
33346W        W 1740   3.493  32.354  14.813
33347W        W 1741  30.992  20.806  12.940
33348W        W 1742   9.445  13.328   3.395
33349W        W 1743  34.118   1.256  13.844
33350W        W 1744  43.378   3.284  10.892
33351W        W 1745  39.990  11.117  14.242
33352W        W 1746  34.407  36.543  12.033
33353W        W 1747  10.301  30.825  10.659
33354W        W 1748   2.501  12.437  14.302
33355W        W 1749  16.426   5.878  14.398
33356W        W 1750   7.404  19.048   0.345
33357W        W 1751  26.208  39.367   0.446
33358W        W 1752  43.297  27.776   3.747
33359W        W 1753   4.196  34.088  10.613
33360W        W 1754  20.521  23.734   4.098
33361W        W 1755  18.950   6.761   3.331
33362W        W 1756   3.327  27.248   3.981
33363W        W 1757  24.311  26.162   2.491
33364W        W 1758   7.011  30.262  11.136
33365W        W 1759  16.996   2.862   2.301
33366W        W 1760   8.629  10.688  12.552
33367W        W 1761   9.518  38.549   2.191
33368W        W 1762  15.106  29.988  13.060
33369W        W 1763  11.112  27.049   0.802
33370W        W 1764  31.794  44.053   2.277
33371W        W 1765  20.543  23.868   4.977
33372W        W 1766  38.836  31.969  11.506
33373W        W 1767  26.173  16.538   1.914
33374W        W 1768  20.574  33.067  14.200
33375W        W 1769  11.555  26.848   4.239
33376W        W 1770  42.463   4.699   4.124
33377W        W 1771  17.308  40.165   5.340
33378W        W 1772   8.242  15.027   4.574
33379W        W 1773  15.554  25.514  11.971
33380W        W 1774  32.406  36.538  14.546
33381W        W 1775  23.749  38.485   2.313
33382W        W 1776  25.051  24.885   3.272
33383W        W 1777   6.889  26.571  10.293
33384W        W 1778  34.914  30.545   1.184
33385W        W 1779  13.685  28.354  14.457
33386W        W 1780  42.312  44.920  11.241
33387W        W 1781  16.064   5.949  13.128
33388W        W 1782  33.667  23.394  12.322
33389W        W 1783   1.916   9.513  11.788
33390W        W 1784  29.619  14.048  12.828
33391W        W 1785  43.360  39.544  11.674
33392W        W 1786  41.827  28.135  13.272
33393W        W 1787  26.620   4.757   1.856
33394W        W 1788  16.204  22.877   3.648
33395W        W 1789   3.332  32.388  11.208
33396W        W 1790  21.103  36.377  13.048
33397W        W 1791  12.840   3.977   0.831
33398W        W 1792  42.942  13.885   0.855
33399W        W 1793  17.903  28.573  11.589
33400W        W 1794   6.175  13.369  10.561
33401W        W 1795  33.633  24.572   3.834
33402W        W 1796  15.777  12.793  11.198
33403W        W 1797  26.669  42.819   9.986
33404W        W 1798   6.236   6.188  11.904
33405W        W 1799   2.255   7.476  10.034
33406W        W 1800  29.459   4.045  12.077
33407W        W 1801  19.555   8.809  12.091
33408W        W 1802   9.873  26.540  10.524
33409W        W 1803  23.300  32.502  14.970
33410W        W 1804  17.707  38.118  14.988
33411W        W 1805  26.226  10.551  10.849
33412W        W 1806   1.710  13.374   5.047
33413W        W 1807  34.153  23.680  11.031
33414W        W 1808  39.402  38.710   4.358
33415W        W 1809   2.294  18.077   4.177
33416W        W 1810  30.049  17.259  13.090
33417W        W 1811  38.072  29.345  12.550
33418W        W 1812  39.393  10.140   3.150
33419W        W 1813  39.774  15.579  14.554
33420W        W 1814  37.331   1.999   2.756
33421W        W 1815  12.440  34.691  11.949
33422W        W 1816  21.416  30.564   1.974
33423W        W 1817  20.697  40.863   0.477
33424W        W 1818  21.331  42.603   1.744
33425W        W 1819  28.890  29.053  13.499
33426W        W 1820  27.661  27.519   3.727
33427W        W 1821  41.233  10.422  12.905
33428W        W 1822   6.827   3.218   0.838
33429W        W 1823  19.235  13.087  12.331
33430W        W 1824  43.498  18.198  13.485
33431W        W 1825  27.480  34.889   2.876
33432W        W 1826  14.226   3.946  13.076
33433W        W 1827  20.595   9.090  13.922
33434W        W 1828   2.327  41.455  13.954
33435W        W 1829  44.266  13.137  12.089
33436W        W 1830   1.262  17.042   2.219
33437W        W 1831  24.000   7.444  11.231
33438W        W 1832  20.194   5.175  12.288
33439W        W 1833  33.009  10.685   4.697
33440W        W 1834  18.671  25.042   4.078
33441W        W 1835  11.258  12.689  12.012
33442W        W 1836  44.459   0.672  12.145
33443W        W 1837  32.184  21.971   1.326
33444W        W 1838  15.878  29.371  12.971
33445W        W 1839  18.078   9.647  13.990
33446W        W 1840  14.793  15.974   2.292
33447W        W 1841  20.095  32.391   2.721
33448W        W 1842   8.934  36.133   3.277
33449W        W 1843  17.894  36.324  12.532
33450W        W 1844  28.908  26.724  12.901
33451W        W 1845   4.618  32.488   4.849
33452W        W 1846  11.852   1.228  13.308
33453W        W 1847  35.953  14.616   0.430
33454W        W 1848  39.470  12.604  10.448
33455W        W 1849   5.913  21.243   9.899
33456W        W 1850  13.228   9.293   1.174
33457W        W 1851  12.671   0.264   4.484
33458W        W 1852  18.528  31.394   1.304
33459W        W 1853  30.154  20.404   4.789
33460W        W 1854  34.874  44.847   0.854
33461W        W 1855  16.784  12.120  11.520
33462W        W 1856  31.408   8.194   2.258
33463W        W 1857   4.943  37.845   0.309
33464W        W 1858  34.481   5.738  10.651
33465W        W 1859   8.696  28.722   4.608
33466W        W 1860   0.743  23.171   4.381
33467W        W 1861  29.180  42.551   1.488
33468W        W 1862  41.975  41.270  11.214
33469W        W 1863  16.650  32.745   0.408
33470W        W 1864  22.444  33.586  13.880
33471W        W 1865  17.624   9.478   0.298
33472W        W 1866  15.263  42.358   4.908
33473W        W 1867  43.994  30.628  13.069
33474W        W 1868  44.375  30.929   4.070
33475W        W 1869  43.273  38.646   1.343
33476W        W 1870   4.687  35.104   1.656
33477W        W 1871   8.649  27.191  14.263
33478W        W 1872  19.399  13.426  11.135
33479W        W 1873   1.010  16.849  14.973
33480W        W 1874  24.856  13.471  12.556
33481W        W 1875  42.858   4.854   4.991
33482W        W 1876  13.751  39.559  14.975
33483W        W 1877  37.941  43.830  14.901
33484W        W 1878  31.534  43.790   0.736
33485W        W 1879  41.903  18.716  11.177
33486W        W 1880  43.162   5.542  14.023
33487W        W 1881   8.336  21.693   3.709
33488W        W 1882  18.630  28.680   2.326
33489W        W 1883  40.040   3.896   3.139
33490W        W 1884  28.977  10.778   0.016
33491W        W 1885  36.387  44.235   1.430
33492W        W 1886   9.185  41.352  14.025
33493W        W 1887  18.987  32.203  14.394
33494W        W 1888  25.061  37.693  11.909
33495W        W 1889  41.040  25.717   4.564
33496W        W 1890  36.432   2.892   2.028
33497W        W 1891   1.372  35.353  12.928
33498W        W 1892  17.818   5.179  13.998
33499W        W 1893   3.351  43.521  13.792
33500W        W 1894   8.472  33.639  14.809
33501W        W 1895   2.855  25.867   3.173
33502W        W 1896  36.422  21.626  10.990
33503W        W 1897  33.460  24.185   2.241
33504W        W 1898  44.693  34.654  11.922
33505W        W 1899  26.244  28.492  10.753
33506W        W 1900  36.180  22.566  11.536
33507W        W 1901  27.134  17.445   4.172
33508W        W 1902  24.072  31.434   3.130
33509W        W 1903   4.705  28.501  11.172
33510W        W 1904  26.474  26.388   1.057
33511W        W 1905  13.636  30.950  10.526
33512W        W 1906  24.725   5.302  11.355
33513W        W 1907  44.487  26.487   4.672
33514W        W 1908   6.741  16.993   3.854
33515W        W 1909   5.689  26.884   3.218
33516W        W 1910   7.166  37.353   0.350
33517W        W 1911  18.847   5.307  13.110
33518W        W 1912  37.733  42.594  13.110
33519W        W 1913  30.059  10.603  11.181
33520W        W 1914  28.919  34.345   4.160
33521W        W 1915  11.300   6.248  13.140
33522W        W 1916  21.372   9.470   1.758
33523W        W 1917  24.149  21.258  14.304
33524W        W 1918   8.151  21.665   0.334
33525W        W 1919   1.776  30.643   4.160
33526W        W 1920  35.603  29.271   0.366
33527W        W 1921  10.781  35.374   2.678
33528W        W 1922  41.129   2.805   2.763
33529W        W 1923  44.767  39.335   0.814
33530W        W 1924  15.989  36.955  14.305
33531W        W 1925   4.094  44.401  12.551
33532W        W 1926   7.498  12.630  11.460
33533W        W 1927  22.747   1.979  14.084
33534W        W 1928  32.701  27.970  14.801
33535W        W 1929  20.100  22.497   1.274
33536W        W 1930  36.111  29.323   0.477
33537W        W 1931   1.459  21.765  13.043
33538W        W 1932  39.934  41.431   3.887
33539W        W 1933  25.140  31.926  14.797
33540W        W 1934  29.641  13.099   3.922
33541W        W 1935  27.113  24.043  14.319
33542W        W 1936  35.600  30.081   0.794
33543W        W 1937  40.148  36.631   9.763
33544W        W 1938  32.987  37.275  12.471
33545W        W 1939  35.293   3.007   0.811
33546W        W 1940  31.852  41.031  11.170
33547W        W 1941   4.434  33.049   0.328
33548W        W 1942  19.858  12.157  13.628
33549W        W 1943  39.443  44.591  11.072
33550W        W 1944  32.750   2.024   3.740
33551W        W 1945  28.598  27.072  10.696
33552W        W 1946  43.874  12.673  11.816
33553W        W 1947  18.626  33.012   3.799
33554W        W 1948  25.430   4.392   3.124
33555W        W 1949  37.084  30.559  12.656
33556W        W 1950  19.210  15.618  11.998
33557W        W 1951  41.393   7.138  14.001
33558W        W 1952  22.725  19.717  14.944
33559W        W 1953   9.097  36.896  14.804
33560W        W 1954  42.015  31.874   3.743
33561W        W 1955  17.068  22.279   1.090
33562W        W 1956  12.941   5.909  11.257
33563W        W 1957  10.441  32.713   1.631
33564W        W 1958  26.415  44.781   3.618
33565W        W 1959  28.558  20.660  13.054
33566W        W 1960   6.093  32.096   4.995
33567W        W 1961  43.211  38.833   3.071
33568W        W 1962  22.494   9.429  13.420
33569W        W 1963  44.797  12.748  10.676
33570W        W 1964  28.189  39.792  13.003
33571W        W 1965  16.753  28.678  11.970
33572W        W 1966  15.841  23.707   1.582
33573W        W 1967  16.905   5.789   3.619
33574W        W 1968  15.331  41.391  14.545
33575W        W 1969  17.488  41.883   3.784
33576W        W 1970  19.366   5.363  14.920
33577W        W 1971  25.652  27.575   3.653
33578W        W 1972   2.413  10.279   2.764
33579W        W 1973   6.813  26.515   0.828
33580W        W 1974   8.927  32.297   4.584
33581W        W 1975  29.505  25.970   0.275
33582W        W 1976  32.979  21.092   0.510
33583W        W 1977   0.904  19.873   2.797
33584W        W 1978   1.956  34.561  13.601
33585W        W 1979  15.995  44.687  10.849
33586W        W 1980  41.968  33.909   2.843
33587W        W 1981  37.015  33.470  12.050
33588W        W 1982  26.268  33.527   4.054
33589W        W 1983  17.285  12.775   3.566
33590W        W 1984  33.319   5.079  12.938
33591W        W 1985  32.528  28.563   4.565
33592W        W 1986  23.254   8.668  13.470
33593W        W 1987  37.468  37.452   0.742
33594W        W 1988  21.023  39.338  13.115
33595W        W 1989  22.911  27.545  10.958
33596W        W 1990  18.791  20.188   4.089
33597W        W 1991  13.074  43.227  14.064
33598W        W 1992   3.549  20.717   0.851
33599W        W 1993  12.580  39.830  14.470
33600W        W 1994  32.310  20.345  11.608
33601W        W 1995  14.044  42.036   2.671
33602W        W 1996  37.594  37.150  13.941
33603W        W 1997  14.289   8.834   4.626
33604W        W 1998  14.225  40.338   2.338
33605W        W 1999   2.696  24.833  14.589
33606W        W 2000  31.088  23.304   3.698
33607W        W 2001  11.297  30.352  12.934
33608W        W 2002  35.898  26.633   3.150
33609W        W 2003  31.119  42.517  11.958
33610W        W 2004  43.066  30.282   2.624
33611W        W 2005   9.089  31.221   4.688
33612W        W 2006  17.805  39.301   4.431
33613W        W 2007  25.948   9.587   4.105
33614W        W 2008  28.033  22.629  11.991
33615W        W 2009  15.766  34.637   3.398
33616W        W 2010  18.883   4.324   3.413
33617W        W 2011  28.111   4.685   2.675
33618W        W 2012  32.199  26.197  14.104
33619W        W 2013  35.457  19.669  14.043
33620W        W 2014   9.007  37.846  11.139
33621W        W 2015  20.797  12.050  10.659
33622W        W 2016  13.822  21.442  11.256
33623W        W 2017  24.837  18.310   3.253
33624W        W 2018  15.094  29.168  11.513
33625W        W 2019   0.846   0.428  10.816
33626W        W 2020   7.349  12.125  14.801
33627W        W 2021  39.188  12.257   3.232
33628W        W 2022  27.929  26.711   3.273
33629W        W 2023   6.194  39.851  10.444
33630W        W 2024  23.548  43.882   2.891
33631W        W 2025  39.916  31.839   1.242
33632W        W 2026  23.977  17.141   3.337
33633W        W 2027  17.568  12.378  12.818
33634W        W 2028  17.814  20.250   4.176
33635W        W 2029  32.933  32.943   2.711
33636W        W 2030  31.160  33.166  10.759
33637W        W 2031  37.080  42.569  12.552
33638W        W 2032  27.964  27.990   4.493
33639W        W 2033  29.547  14.225   0.446
33640W        W 2034  38.026  20.057   4.231
33641W        W 2035  26.014   7.791  12.598
33642W        W 2036   7.939  20.522  13.864
33643W        W 2037  19.728   7.602  11.501
33644W        W 2038   1.186  11.370  10.820
33645W        W 2039   9.937  27.618   2.979
33646W        W 2040  24.224   9.948   4.547
33647W        W 2041  16.941  43.160  13.839
33648W        W 2042  19.904  15.771  14.302
33649W        W 2043   7.855  42.043  10.618
33650W        W 2044  43.550  22.010  11.950
33651W        W 2045  12.502  15.116  14.996
33652W        W 2046   5.929  29.706   2.740
33653W        W 2047  44.015  27.960   1.941
33654W        W 2048  16.113  41.522  11.052
33655W        W 2049   7.722  18.262   2.352
33656W        W 2050   3.255  18.226  14.426
33657W        W 2051  21.661  28.906   0.452
33658W        W 2052  28.435  10.848   2.178
33659W        W 2053  43.689  19.977   3.128
33660W        W 2054  11.810  15.415   1.466
33661W        W 2055  24.777   0.811   4.611
33662W        W 2056  28.132   8.411   2.251
33663W        W 2057  39.833  40.434   3.749
33664W        W 2058  18.028  15.427  11.592
33665W        W 2059  24.310   3.134   0.678
33666W        W 2060  43.311  38.967   4.649
33667W        W 2061  41.970  42.041  12.564
33668W        W 2062  41.382  10.143   0.681
33669W        W 2063  19.149  30.228   1.881
33670W        W 2064   5.778  15.950  12.102
33671W        W 2065  24.475  11.944  14.857
33672W        W 2066  33.054  20.665   4.996
33673W        W 2067   0.233  21.665   2.733
33674W        W 2068  25.191  17.561   0.199
33675W        W 2069   3.354  17.790   1.842
33676W        W 2070  35.234  35.777   3.130
33677W        W 2071   2.896  23.951  11.692
33678W        W 2072  11.435  15.853  10.923
33679W        W 2073  34.573  18.991   0.203
33680W        W 2074  17.721   2.401  14.474
33681W        W 2075  35.363  16.091  13.360
33682W        W 2076  37.569   2.240   1.646
33683W        W 2077  31.276  33.395  14.834
33684W        W 2078  35.396  35.497  14.383
33685W        W 2079  26.450  25.188   1.926
33686W        W 2080   6.833  27.988   4.258
33687W        W 2081  39.426  20.551   3.252
33688W        W 2082   8.743   2.335   5.093
33689W        W 2083  19.765   6.138  13.120
33690W        W 2084   7.909  28.694   4.292
33691W        W 2085  38.429  44.607  12.963
33692W        W 2086  16.294  44.474   1.428
33693W        W 2087   9.091  13.272  13.447
33694W        W 2088  35.106  18.560   1.317
33695W        W 2089  13.117  24.508  13.385
33696W        W 2090  26.926  23.951   4.341
33697W        W 2091   8.366  28.067  10.911
33698W        W 2092  19.643   9.177  11.187
33699W        W 2093  23.085  23.254  12.336
33700W        W 2094  44.078   5.361  11.601
33701W        W 2095  24.562  36.405  11.078
33702W        W 2096  30.270  38.787   2.176
33703W        W 2097   5.083  34.888  11.225
33704W        W 2098  17.642  25.315  13.350
33705W        W 2099  15.962  13.542   1.560
33706W        W 2100  14.339  29.049  14.932
33707W        W 2101   7.747  18.657  10.350
33708W        W 2102  14.411  36.302   4.175
33709W        W 2103  33.390  12.432   0.046
33710W        W 2104   6.185  43.284  11.652
33711W        W 2105  43.606   9.663  13.269
33712W        W 2106  12.801  37.090   1.177
33713W        W 2107  29.572  29.732   2.737
33714W        W 2108  35.611  20.135  13.883
33715W        W 2109  11.598   9.207   1.053
33716W        W 2110  12.509   8.233   3.748
33717W        W 2111   7.386  33.393   1.774
33718W        W 2112  42.129  14.125   0.430
33719W        W 2113  19.107  32.849  10.838
33720W        W 2114  23.521   0.478  13.341
33721W        W 2115  11.280  38.807  12.329
33722W        W 2116  25.242  42.462   1.484
33723W        W 2117   0.462   0.268   2.930
33724W        W 2118  24.509  31.863   1.305
33725W        W 2119  38.427  29.381   4.217
33726W        W 2120  34.878  39.544  10.828
33727W        W 2121  12.202   6.841   3.418
33728W        W 2122  12.321   4.988  12.112
33729W        W 2123  27.707  41.267  13.885
33730W        W 2124  40.071   3.530  11.715
33731W        W 2125   2.544  31.439   0.080
33732W        W 2126  40.895  37.299  13.437
33733W        W 2127  15.628   9.835  13.944
33734W        W 2128   9.770  29.105   0.155
33735W        W 2129   8.877   8.649   2.828
33736W        W 2130   0.450  27.946  13.518
33737W        W 2131  15.686   0.050  12.338
33738W        W 2132  16.007  30.529  12.096
33739W        W 2133  37.522  30.047   3.089
33740W        W 2134   1.745  21.076   3.616
33741W        W 2135  32.392  36.246  11.885
33742W        W 2136   4.274   5.285   0.618
33743W        W 2137  31.404  13.187   3.723
33744W        W 2138  37.937  26.138  10.744
33745W        W 2139  12.427  22.756   4.586
33746W        W 2140  10.881  33.535   4.989
33747W        W 2141  44.639  21.037  13.585
33748W        W 2142   7.250  16.238   3.339
33749W        W 2143   8.025   3.310   4.127
33750W        W 2144  22.699  37.335  10.510
33751W        W 2145  16.667  34.382  14.089
33752W        W 2146  21.204   8.582   2.764
33753W        W 2147  36.930  27.764   0.775
33754W        W 2148  39.928   5.222   1.717
33755W        W 2149  32.322  34.765   9.757
33756W        W 2150  13.479  32.644  14.148
33757W        W 2151  24.557  33.924  11.563
33758W        W 2152   3.011  32.351  13.512
33759W        W 2153   2.600  16.165  12.885
33760W        W 2154  24.970   2.490  14.837
33761W        W 2155  26.115  31.952   4.537
33762W        W 2156  23.628  33.014  14.604
33763W        W 2157  36.653  21.699   2.592
33764W        W 2158  44.738  14.593   2.811
33765W        W 2159   3.910   6.214   4.904
33766W        W 2160   8.725  11.426   1.346
33767W        W 2161  31.626  12.504   0.256
33768W        W 2162  39.111  13.091   1.684
33769W        W 2163  43.425   7.228  14.500
33770W        W 2164  32.702  13.827  14.442
33771W        W 2165  20.637  16.805   3.113
33772W        W 2166  44.213  20.712  14.836
33773W        W 2167  39.391  42.832  13.360
33774W        W 2168   6.793  19.037   4.645
33775W        W 2169  14.306  33.415   3.062
33776W        W 2170  28.731   3.483  11.066
33777W        W 2171  25.769  43.920   0.662
33778W        W 2172  38.801  43.578  14.136
33779W        W 2173  24.596   3.281   1.897
33780W        W 2174   4.609   5.276  14.336
33781W        W 2175  24.058   1.441  11.301
33782W        W 2176   0.779  35.562   2.173
33783W        W 2177  27.899   4.885   4.576
33784W        W 2178  20.105  39.339  12.899
33785W        W 2179  20.885  41.875   4.998
33786W        W 2180  15.861  17.725  11.197
33787W        W 2181  23.841   2.832  11.921
33788W        W 2182  22.016  37.619  14.277
33789W        W 2183  17.212  36.125  14.080
33790W        W 2184  22.548  26.187  13.328
33791W        W 2185   7.806  15.408   3.685
33792W        W 2186  15.003  12.328   1.857
33793W        W 2187   1.930   9.292   0.445
33794W        W 2188  34.460  32.023   3.111
33795W        W 2189  21.615  29.690   3.756
33796W        W 2190  17.223  25.114   0.003
33797W        W 2191   9.982  39.455  11.523
33798W        W 2192  12.719  27.600   3.306
33799W        W 2193  22.636  23.981  13.464
33800W        W 2194  23.443   2.651  12.640
33801W        W 2195   0.462  31.240   0.230
33802W        W 2196  41.232  14.702  13.374
33803W        W 2197   7.809  35.993  12.967
33804W        W 2198  17.296  10.174  13.015
33805W        W 2199  25.578  43.426  14.498
33806W        W 2200   9.149  15.568  10.813
33807W        W 2201  15.062  40.310  10.734
33808W        W 2202   2.371   6.651   2.264
33809W        W 2203   8.285  30.199   1.755
33810W        W 2204  20.800  43.856   0.647
33811W        W 2205  22.688   7.804  11.088
33812W        W 2206   4.069   8.868  10.524
33813W        W 2207   5.273  18.207   3.622
33814W        W 2208   8.485  27.046   4.279
33815W        W 2209  41.371  43.892  12.692
33816W        W 2210  34.842  19.254  14.439
33817W        W 2211  43.838  24.685   2.139
33818W        W 2212  41.440  30.716   4.631
33819W        W 2213  43.887  44.742  12.876
33820W        W 2214  28.613  28.702   1.958
33821W        W 2215  34.303  39.553  11.549
33822W        W 2216  39.462  42.000   3.246
33823W        W 2217   4.720  10.359  12.503
33824W        W 2218  40.767   6.691  11.880
33825W        W 2219  19.626  14.800  12.864
33826W        W 2220   6.826  42.802   2.342
33827W        W 2221  17.862   7.210   3.991
33828W        W 2222  24.737  19.566   4.712
33829W        W 2223  40.842   4.724   1.688
33830W        W 2224  23.022  34.114  13.496
33831W        W 2225  33.536   2.295   2.700
33832W        W 2226  19.003  35.441  14.696
33833W        W 2227   7.848  26.244   3.996
33834W        W 2228   9.191   2.526   4.217
33835W        W 2229  10.616  10.835  12.423
33836W        W 2230  28.498  16.700   3.998
33837W        W 2231  37.521  26.563   4.972
33838W        W 2232  10.355  11.621  11.203
33839W        W 2233  20.033  11.339  12.812
33840W        W 2234  26.732  11.896   4.929
33841W        W 2235   5.535  24.290  11.832
33842W        W 2236  27.868  19.488   3.304
33843W        W 2237  32.391  10.362  13.870
33844W        W 2238   1.178  27.192   3.563
33845W        W 2239  25.016   9.896  14.262
33846W        W 2240   1.437  30.211   3.278
33847W        W 2241  16.634  26.067   2.213
33848W        W 2242  14.811  42.489  13.498
33849W        W 2243  26.768   4.442  12.074
33850W        W 2244  21.097   1.397  11.146
33851W        W 2245  17.727  18.451   4.552
33852W        W 2246   5.782  22.852   2.981
33853W        W 2247   7.603   5.435   4.662
33854W        W 2248  15.811  12.764  10.356
33855W        W 2249  20.562  17.628   3.692
33856W        W 2250   8.295  26.247   3.668
33857W        W 2251  32.112  11.121   2.144
33858W        W 2252  39.735  31.502   2.678
33859W        W 2253  33.040  17.371   4.826
33860W        W 2254  16.108   9.665   4.209
33861W        W 2255  42.256  28.860  14.282
33862W        W 2256  37.976  19.112   3.163
33863W        W 2257  44.738  36.146  10.668
33864W        W 2258  29.701   7.738  14.773
33865W        W 2259   0.868  11.466   2.305
33866W        W 2260  27.003  21.170   5.168
33867W        W 2261  21.566  20.810  14.736
33868W        W 2262  13.325  22.772  11.158
33869W        W 2263  40.429  40.432  13.856
33870W        W 2264  11.270   8.966   4.968
33871W        W 2265  26.385  23.728   3.539
33872W        W 2266  35.326  16.070   2.779
33873W        W 2267  10.246  16.670   0.344
33874W        W 2268  33.065  28.935   1.915
33875W        W 2269   3.192   2.432   3.616
33876W        W 2270  40.774  32.609  14.024
33877W        W 2271  27.173  17.835  11.991
33878W        W 2272  19.315   1.236   1.307
33879W        W 2273  39.655  27.496  11.238
33880W        W 2274  24.176  23.605  10.914
33881W        W 2275   0.042  12.279  10.682
33882W        W 2276  11.869  35.061   1.870
33883W        W 2277  38.067  42.006  14.329
33884W        W 2278   1.786  42.828   1.723
33885W        W 2279  23.237  33.545  10.752
33886W        W 2280  42.128  44.128  10.734
33887W        W 2281   8.955  11.514  11.573
33888W        W 2282   5.450  13.596  11.178
33889W        W 2283  11.399  34.272  13.537
33890W        W 2284   7.887  41.522   4.577
33891W        W 2285  41.782  33.460   4.319
33892W        W 2286  41.573  31.590   0.437
33893W        W 2287  40.016  10.081   4.379
33894W        W 2288   4.323   2.378   3.097
33895W        W 2289  15.099  37.537  14.253
33896W        W 2290  26.583  18.454   0.943
33897W        W 2291  23.596  16.306   3.306
33898W        W 2292  36.577  29.842   4.696
33899W        W 2293  13.619  34.387  10.548
33900W        W 2294   3.636  18.234  13.614
33901W        W 2295   5.914  19.639   1.882
33902W        W 2296   3.733  36.437   4.886
33903W        W 2297   6.489  18.476  11.102
33904W        W 2298  12.665  41.927  12.003
33905W        W 2299  41.032  33.559  12.965
33906W        W 2300  10.249  38.626   4.239
33907W        W 2301  20.540  27.443   0.254
33908W        W 2302   0.984  15.726  12.118
33909W        W 2303  20.353  27.118  11.410
33910W        W 2304  13.761  26.187  10.671
33911W        W 2305  38.808   5.182  11.285
33912W        W 2306  44.513  17.382  10.043
33913W        W 2307  31.080  24.955  13.041
33914W        W 2308  24.175  25.252  14.968
33915W        W 2309  36.401  32.416  11.510
33916W        W 2310  12.669   6.678   9.570
33917W        W 2311  22.279  16.816  10.511
33918W        W 2312  29.411   9.728   4.772
33919W        W 2313   7.473  21.261  13.734
33920W        W 2314  34.532  38.261   3.545
33921W        W 2315  23.220  44.311   1.757
33922W        W 2316  31.894  15.559  11.835
33923W        W 2317  43.029  21.628  12.556
33924W        W 2318  20.924  28.218   5.438
33925W        W 2319  33.208  15.085   0.214
33926W        W 2320  38.988  40.790  10.787
33927W        W 2321  29.226   9.921  14.405
33928W        W 2322   9.370  21.410  14.347
33929W        W 2323  22.101  27.106  13.805
33930W        W 2324   6.568  12.300  10.813
33931W        W 2325   2.933  13.339   9.799
33932W        W 2326  34.549   7.337   4.157
33933W        W 2327  29.187  20.452   2.911
33934W        W 2328   5.142  43.886   2.324
33935W        W 2329  30.524  16.986   2.720
33936W        W 2330  37.560  21.706   0.508
33937W        W 2331  35.492  40.024   1.928
33938W        W 2332  15.830  42.149  11.715
33939W        W 2333   8.686  29.639   3.692
33940W        W 2334  30.748  17.423   4.217
33941W        W 2335  31.235  44.503   4.995
33942W        W 2336   0.980  42.176  13.234
33943W        W 2337  32.063  30.321   2.404
33944W        W 2338  24.679   5.787  11.527
33945W        W 2339   4.019  32.149  11.690
33946W        W 2340  34.049   8.883   0.435
33947W        W 2341  18.575  17.724   1.770
33948W        W 2342  25.741  26.611  13.996
33949W        W 2343  35.512  36.035   2.675
33950W        W 2344  23.740   9.579   9.879
33951W        W 2345  40.915  26.239   2.777
33952W        W 2346  41.062  36.172  14.268
33953W        W 2347   8.622   9.796   0.483
33954W        W 2348   9.750  42.377   0.852
33955W        W 2349  34.002  15.162  10.604
33956W        W 2350   9.258   7.867   3.636
33957W        W 2351  41.976  38.467  12.481
33958W        W 2352  26.828   9.460   1.158
33959W        W 2353  42.229  41.895   1.316
33960W        W 2354   9.339  24.808   3.250
33961W        W 2355  32.014  37.654  14.353
33962W        W 2356   6.107  12.665   0.960
33963W        W 2357  44.200  29.556   4.080
33964W        W 2358  24.284  17.597   2.592
33965W        W 2359   2.908  36.615   3.818
33966W        W 2360  17.313  31.942  11.597
33967W        W 2361  42.478   7.713   4.548
33968W        W 2362  36.670  16.983   0.835
33969W        W 2363  13.340  24.429   2.614
33970W        W 2364  43.648   2.523  13.032
33971W        W 2365  38.586  31.584   1.794
33972W        W 2366  19.381   0.911  11.090
33973W        W 2367   5.504   3.282  11.626
33974W        W 2368  18.121  25.542  12.142
33975W        W 2369  33.554  39.792   0.027
33976W        W 2370  17.798  39.464  11.589
33977W        W 2371   5.687  33.342  11.155
33978W        W 2372  43.985  40.420  10.810
33979W        W 2373  30.117   9.212   3.101
33980W        W 2374   4.280   9.534  12.312
33981W        W 2375  36.971  19.544   2.713
33982W        W 2376   2.034  36.840   4.466
33983W        W 2377  35.621  24.351  14.674
33984W        W 2378   9.398  10.389  11.565
33985W        W 2379  13.900  20.743  14.478
33986W        W 2380  34.958  31.045  11.001
33987W        W 2381  35.168  44.211   4.149
33988W        W 2382  37.966  16.437   0.193
33989W        W 2383  33.492  10.454   3.160
33990W        W 2384   6.269  29.597   0.819
33991W        W 2385  36.046   2.293   4.555
33992W        W 2386   7.983  24.643   1.828
33993W        W 2387  22.109  22.983  14.902
33994W        W 2388   8.829  33.120  14.919
33995W        W 2389  35.128   6.793  13.499
33996W        W 2390  29.236  44.929  11.202
33997W        W 2391  14.177  42.316  12.784
33998W        W 2392  14.139  34.884   2.431
33999W        W 2393  21.160  33.147  12.267
34000W        W 2394  23.389  19.291  11.996
34001W        W 2395  30.582  26.322  14.504
34002W        W 2396  28.881  28.413  11.989
34003W        W 2397  13.225  24.929  10.829
34004W        W 2398  28.067  11.294  10.771
34005W        W 2399  26.948  35.908  14.766
34006W        W 2400  26.076  15.333  14.044
34007W        W 2401   2.711  32.041   3.212
34008W        W 2402  14.670  21.643   0.813
34009W        W 2403  23.524  28.019   2.819
34010W        W 2404  26.459  23.221   2.799
34011W        W 2405   2.968  24.783   5.229
34012W        W 2406  22.161  27.882  10.719
34013W        W 2407  30.064  34.515  11.239
34014W        W 2408  44.438  23.035  13.896
34015W        W 2409  24.734  10.182   2.818
34016W        W 2410  17.151  33.310   3.027
34017W        W 2411  14.262  11.136   1.677
34018W        W 2412  12.342  24.133  10.848
34019W        W 2413   3.330  36.571   4.571
34020W        W 2414   1.261  38.375   3.819
34021W        W 2415  12.418   6.062   3.274
34022W        W 2416  18.310  14.236   3.647
34023W        W 2417  20.722  15.570   3.305
34024W        W 2418  24.597  32.708  11.093
34025W        W 2419  16.686  21.792  13.131
34026W        W 2420  38.474  19.574   2.849
34027W        W 2421  19.231  41.544  13.016
34028W        W 2422   9.960  22.710   0.871
34029W        W 2423   4.922  19.751   4.087
34030W        W 2424   4.810  29.791  12.447
34031W        W 2425  23.757  12.897  13.505
34032W        W 2426   1.459  41.732  11.119
34033W        W 2427  42.476  23.015  11.565
34034W        W 2428  40.916  44.501  12.128
34035W        W 2429  30.094  20.194  12.096
34036W        W 2430  30.839   8.953  14.902
34037W        W 2431  30.879  34.947   0.743
34038W        W 2432  37.443  42.968  14.039
34039W        W 2433  38.437  17.402   0.337
34040W        W 2434   9.770  42.541   3.430
34041W        W 2435  21.499   6.923  12.010
34042W        W 2436  39.379   7.812   4.185
34043W        W 2437  12.340  21.604  12.096
34044W        W 2438   4.398  30.919  11.821
34045W        W 2439   9.723   8.259   3.796
34046W        W 2440   0.888   3.806   3.561
34047W        W 2441  10.373  41.867   3.242
34048W        W 2442   6.337   8.779  11.502
34049W        W 2443  21.044   2.231   2.793
34050W        W 2444  23.103   3.963   1.860
34051W        W 2445   6.914  37.482   1.718
34052W        W 2446   6.815  16.244  13.011
34053W        W 2447   1.352  30.681  14.352
34054W        W 2448  14.684  15.615   3.687
34055W        W 2449   2.794  32.366   3.651
34056W        W 2450  34.966  35.539  10.647
34057W        W 2451   4.536  19.409   5.054
34058W        W 2452  31.076   6.584  14.811
34059W        W 2453  16.089  17.293   3.585
34060W        W 2454  31.690  31.143  12.688
34061W        W 2455   3.922   9.337  12.612
34062W        W 2456   8.604  42.977  12.139
34063W        W 2457  21.238  33.604   3.328
34064W        W 2458  43.354  21.645   1.687
34065W        W 2459  42.523  25.547   2.270
34066W        W 2460  44.336  20.267   4.560
34067W        W 2461  14.680  37.513  14.586
34068W        W 2462   6.402  11.288  11.599
34069W        W 2463  29.591  32.771   1.948
34070W        W 2464   1.787   0.128   0.291
34071W        W 2465  33.322   0.963  10.143
34072W        W 2466  43.066  42.041  12.983
34073W        W 2467  29.670  19.814   0.280
34074W        W 2468  44.462  13.777   4.602
34075W        W 2469  24.779  23.632   1.254
34076W        W 2470  33.755  41.196  13.747
34077W        W 2471  42.837  43.917   4.377
34078W        W 2472  13.726  11.802   1.334
34079W        W 2473   6.164  37.536  13.958
34080W        W 2474  33.426  44.938   3.187
34081W        W 2475   4.093  11.778  11.179
34082W        W 2476  31.803  32.416   3.150
34083W        W 2477   8.513   8.187   1.261
34084W        W 2478   5.639  35.091   1.329
34085W        W 2479   3.396  33.125  13.429
34086W        W 2480  21.669  10.311  12.018
34087W        W 2481   6.768  19.110  12.649
34088W        W 2482  14.657   2.271   0.232
34089W        W 2483   3.298  44.947  12.819
34090W        W 2484  17.559  18.235  11.170
34091W        W 2485  13.828  24.195  11.168
34092W        W 2486  10.341  18.058   4.681
34093W        W 2487  10.007  14.329  11.040
34094W        W 2488   4.512  12.533   5.066
34095W        W 2489  37.465  21.885   3.223
34096W        W 2490  43.896  31.899   4.094
34097W        W 2491  44.752  43.461  10.825
34098W        W 2492  41.527  41.930  11.016
34099W        W 2493  32.974  36.371  12.904
34100W        W 2494   0.719   7.252  10.694
34101W        W 2495  35.358   7.877   3.209
34102W        W 2496  28.191  23.065   0.582
34103W        W 2497  30.350   8.802   3.311
34104W        W 2498  37.767  21.257  12.406
34105W        W 2499   8.704  17.130  10.684
34106W        W 2500   3.023  40.058   1.711
34107W        W 2501  32.070  11.722  13.819
34108W        W 2502  30.137   6.145   2.161
34109W        W 2503   4.329  37.342  13.539
34110W        W 2504   4.840  11.320   2.628
34111W        W 2505  25.035   6.500   4.031
34112W        W 2506  28.444   3.488   1.832
34113W        W 2507  28.647  10.396  14.900
34114W        W 2508  44.563  33.926   0.800
34115W        W 2509  40.956  12.845   2.312
34116W        W 2510  23.069  20.794  13.021
34117W        W 2511   1.790  30.107   3.637
34118W        W 2512  24.166  16.721   3.116
34119W        W 2513  12.553  19.668  13.000
34120W        W 2514   4.955  21.693  14.319
34121W        W 2515  22.529  40.569   3.630
34122W        W 2516  44.475  14.616   4.210
34123W        W 2517   8.134  29.155   2.638
34124W        W 2518  30.435  25.684   3.348
34125W        W 2519  33.808  44.377  14.313
34126W        W 2520  13.593  13.489  12.678
34127W        W 2521   8.593   4.704   5.209
34128W        W 2522  20.199  23.331  13.974
34129W        W 2523  15.470  43.207  11.900
34130W        W 2524  19.485  27.410  13.013
34131W        W 2525   0.877   1.885  10.525
34132W        W 2526  11.647  19.681   4.652
34133W        W 2527  26.697  14.732   1.230
34134W        W 2528  41.283  21.268  12.336
34135W        W 2529   5.337  30.845  12.853
34136W        W 2530  12.364  18.003   3.792
34137W        W 2531   0.365  35.171   1.724
34138W        W 2532  29.499   3.176  14.961
34139W        W 2533  10.309   1.973   4.123
34140W        W 2534  35.087  19.743  12.236
34141W        W 2535  11.356  41.022   1.800
34142W        W 2536  37.091  41.269   4.326
34143W        W 2537  32.649  37.832  10.404
34144W        W 2538  42.813  10.239   0.860
34145W        W 2539  30.493  10.253   5.121
34146W        W 2540  29.347  28.107   1.265
34147W        W 2541  43.692  21.449  11.197
34148W        W 2542  23.138  33.171   1.922
34149W        W 2543  12.370  31.009   2.448
34150W        W 2544  25.698  23.054  11.576
34151W        W 2545   9.062   5.113   5.039
34152W        W 2546  35.813  20.209   2.862
34153W        W 2547  23.576   2.047  10.624
34154W        W 2548   2.530  44.475   4.569
34155W        W 2549   9.719  23.463  14.321
34156W        W 2550  21.762  24.748   4.169
34157W        W 2551  22.119  27.392  12.035
34158W        W 2552  26.144   3.896  13.363
34159W        W 2553   3.718   2.590  10.301
34160W        W 2554  25.282  33.668   0.285
34161W        W 2555  35.444  18.205  13.822
34162W        W 2556   2.410  13.176   3.271
34163W        W 2557  14.338  41.729   2.098
34164W        W 2558   1.506  14.084  12.883
34165W        W 2559  38.504  16.285   0.873
34166W        W 2560   9.501   4.878   4.086
34167W        W 2561   6.915  38.534   1.249
34168W        W 2562  32.769  36.357  13.846
34169W        W 2563  26.983  38.077   3.611
34170W        W 2564  38.246  28.055  13.015
34171W        W 2565  17.226   5.302  11.054
34172W        W 2566  19.299  28.679  13.510
34173W        W 2567  12.203  39.574   2.323
34174W        W 2568  32.461  38.578  13.435
34175W        W 2569  14.321  13.392  11.342
34176W        W 2570  41.795   0.014  14.094
34177W        W 2571   9.583  38.508  13.809
34178W        W 2572  35.431  12.232   0.581
34179W        W 2573  33.218  13.121  10.561
34180W        W 2574  44.571  44.097   4.591
34181W        W 2575   7.420  36.968  12.023
34182W        W 2576  21.526  43.719  13.306
34183W        W 2577   2.678  43.243   4.156
34184W        W 2578   3.195   3.354   1.774
34185W        W 2579  33.505   8.618   4.289
34186W        W 2580  15.918  19.798  14.975
34187W        W 2581  36.408  38.124  11.430
34188W        W 2582  29.548  12.242  11.556
34189W        W 2583  42.530  44.437  12.920
34190W        W 2584  24.008  10.906   4.491
34191W        W 2585  11.314  38.471  11.486
34192W        W 2586   9.394  21.554   4.264
34193W        W 2587   9.406  24.552   3.693
34194W        W 2588  29.708  30.462   4.603
34195W        W 2589  33.641  23.493   2.287
34196W        W 2590  31.256  23.951  13.942
34197W        W 2591   1.533   9.365  11.460
34198W        W 2592  22.716  38.838  11.251
34199W        W 2593  28.221  23.383   2.296
34200W        W 2594  40.412  23.251  12.787
34201W        W 2595   6.288  19.415  11.334
34202W        W 2596  14.857   8.402   0.820
34203W        W 2597  24.646  19.392  11.444
34204W        W 2598   4.285  38.980   1.672
34205W        W 2599  23.917  30.392  11.929
34206W        W 2600  21.334   1.950  14.487
34207W        W 2601  32.526   2.243  13.504
34208W        W 2602  36.363  13.074   0.502
34209W        W 2603  11.891  38.010  13.558
34210W        W 2604  12.617  31.385  14.087
34211W        W 2605  19.251   4.303   2.458
34212W        W 2606   6.688   0.777   1.986
34213W        W 2607  30.526  42.245  13.210
34214W        W 2608  25.117  18.708   1.411
34215W        W 2609  16.730  36.504  13.359
34216W        W 2610   7.170  22.193   1.691
34217W        W 2611  16.559  25.243  13.416
34218W        W 2612  25.507  43.287   0.905
34219W        W 2613   5.343  42.252  10.871
34220W        W 2614   7.106   7.042   2.734
34221W        W 2615  12.412  43.306  13.414
34222W        W 2616  30.638  28.531   2.015
34223W        W 2617  39.486  16.801   2.946
34224W        W 2618  17.193  12.314   4.892
34225W        W 2619  29.254   8.647  11.566
34226W        W 2620   0.274   9.389   1.227
34227W        W 2621  29.258  43.956   4.174
34228W        W 2622   6.662  14.145   0.214
34229W        W 2623  39.578  36.174  14.928
34230W        W 2624   4.825  25.972   2.599
34231W        W 2625  11.844  26.574  14.780
34232W        W 2626  18.638  25.692  12.046
34233W        W 2627  25.260  26.567  11.600
34234W        W 2628  12.772  14.675  10.999
34235W        W 2629   8.905  26.764   4.168
34236W        W 2630   2.385   9.422  11.567
34237W        W 2631   8.188  35.036   1.200
34238W        W 2632  33.717  39.102   2.221
34239W        W 2633  30.885  35.861   1.781
34240W        W 2634  10.102   3.555  10.771
34241W        W 2635   1.914  30.037  11.948
34242W        W 2636   0.366  24.725  12.358
34243W        W 2637  27.243   9.729   1.007
34244W        W 2638  44.458  44.014  12.897
34245W        W 2639  19.095  22.523  14.484
34246W        W 2640  30.511  32.124  14.329
34247W        W 2641   7.742   5.929  14.988
34248W        W 2642  26.432  19.539   0.489
34249W        W 2643  30.978  20.556  12.001
34250W        W 2644  36.138  16.522  11.527
34251W        W 2645   4.207  41.344  11.406
34252W        W 2646   1.773  17.774   1.698
34253W        W 2647  22.975  20.166   1.838
34254W        W 2648   2.198  27.005  11.035
34255W        W 2649   9.225  23.710   4.116
34256W        W 2650  31.620  34.233  12.432
34257W        W 2651  40.560  39.272   2.789
34258W        W 2652  11.538  22.036  12.578
34259W        W 2653  27.277  22.818   0.520
34260W        W 2654  26.989  23.218  11.738
34261W        W 2655  31.667   2.735  14.966
34262W        W 2656  33.930  16.180   4.176
34263W        W 2657  13.426  15.089  14.006
34264W        W 2658   8.271  17.749   1.902
34265W        W 2659  21.760  27.130  14.881
34266W        W 2660   1.681  44.821  11.065
34267W        W 2661  12.292   9.949   4.017
34268W        W 2662  25.658  43.839  14.145
34269W        W 2663  12.387  26.507   0.674
34270W        W 2664  42.877  16.721  14.727
34271W        W 2665   1.884  21.055  11.050
34272W        W 2666  38.094  16.568   0.666
34273W        W 2667   8.214  31.270  13.409
34274W        W 2668  38.906  32.893  10.947
34275W        W 2669  14.036   2.693  12.622
34276W        W 2670  22.606  38.708   4.106
34277W        W 2671  13.802  44.042  11.473
34278W        W 2672  12.215  21.179   1.997
34279W        W 2673  18.699  27.431   1.801
34280W        W 2674  24.978  38.085  14.927
34281W        W 2675  29.343  25.721  10.428
34282W        W 2676  10.889  12.799  14.312
34283W        W 2677  22.889  18.188   2.095
34284W        W 2678   1.115  24.587   4.604
34285W        W 2679  25.598  22.287  10.567
34286W        W 2680  16.685   7.155  12.553
34287W        W 2681   6.652  26.069  11.626
34288W        W 2682   3.603  37.235   2.789
34289W        W 2683  22.430  39.361   4.721
34290W        W 2684  35.140   3.436  13.508
34291W        W 2685  21.268  23.365   2.818
34292W        W 2686   8.500  30.642   4.405
34293W        W 2687  34.863  12.900   1.788
34294W        W 2688  38.987  14.628   3.205
34295W        W 2689  30.718   8.914   1.409
34296W        W 2690  20.522   9.885  11.674
34297W        W 2691  26.679   9.336  10.953
34298W        W 2692  17.215  30.653   4.899
34299W        W 2693  34.285  39.540  12.552
34300W        W 2694  44.262  44.938   1.014
34301W        W 2695  39.050  26.244  11.597
34302W        W 2696   5.823  42.563  12.093
34303W        W 2697  23.917   0.436   4.894
34304W        W 2698   2.322   5.421   3.613
34305W        W 2699  41.638  19.787   4.219
34306W        W 2700  37.099  25.945  14.673
34307W        W 2701  31.139  28.945   0.419
34308W        W 2702  29.169  44.493   4.535
34309W        W 2703  17.468  17.343  14.436
34310W        W 2704  11.738  24.669  13.491
34311W        W 2705   9.784   0.128  14.101
34312W        W 2706  23.135  28.670   0.476
34313W        W 2707   4.255  16.008   2.751
34314W        W 2708  40.279   4.207   2.381
34315W        W 2709  21.400  32.546   2.236
34316W        W 2710  21.691  40.285  10.858
34317W        W 2711  32.498  44.798  11.180
34318W        W 2712   8.940   4.241   1.775
34319W        W 2713  26.074   8.363   2.206
34320W        W 2714  18.658  14.601  11.435
34321W        W 2715  32.603  16.255  12.941
34322W        W 2716  32.320   6.150   3.611
34323W        W 2717  35.261  28.531  11.467
34324W        W 2718   5.914  15.577  13.948
34325W        W 2719  34.977  30.225   4.286
34326W        W 2720  43.422  18.758   4.450
34327W        W 2721  14.358  20.370   0.220
34328W        W 2722  27.715  14.263   4.373
34329W        W 2723   7.645  43.413   2.983
34330W        W 2724  16.727  31.516   3.929
34331W        W 2725  17.013   4.789  12.041
34332W        W 2726  18.293  40.606   0.274
34333W        W 2727  25.161   9.714  14.866
34334W        W 2728  22.643  35.507  11.502
34335W        W 2729  33.216  17.693   4.018
34336W        W 2730  13.925  34.503   1.578
34337W        W 2731  28.429  26.178   1.814
34338W        W 2732  28.481  13.141   0.805
34339W        W 2733  39.773  21.604  11.710
34340W        W 2734  36.805   7.937   1.266
34341W        W 2735  13.005   3.260   4.094
34342W        W 2736  37.815  21.801   0.055
34343W        W 2737  44.857  13.147  11.376
34344W        W 2738  36.546  42.817   5.058
34345W        W 2739   6.613  42.057  11.682
34346W        W 2740  30.904  39.032   1.923
34347W        W 2741  18.159  36.500  14.474
34348W        W 2742  27.679  18.972   1.672
34349W        W 2743   0.261  40.929  11.357
34350W        W 2744  27.446  10.195   2.371
34351W        W 2745   2.521  36.607   1.946
34352W        W 2746  40.998  10.811   0.919
34353W        W 2747   4.370  42.353   2.749
34354W        W 2748   8.100  41.079  13.027
34355W        W 2749  15.994   7.691  11.618
34356W        W 2750  19.234  23.990   3.982
34357W        W 2751  37.008  43.907  14.882
34358W        W 2752  20.711  30.922  14.222
34359W        W 2753  20.724   5.784   2.144
34360W        W 2754   3.802  21.980  14.765
34361W        W 2755  16.444  17.041   2.638
34362W        W 2756  36.545  44.985   0.745
34363W        W 2757  19.634  13.653   4.469
34364W        W 2758  28.120  14.278   3.068
34365W        W 2759   7.650  40.844  12.921
34366W        W 2760   9.346   6.309  14.379
34367W        W 2761  26.411  33.722   0.389
34368W        W 2762  14.913  16.040  11.981
34369W        W 2763   9.646  15.082   3.575
34370W        W 2764  12.870  16.337  14.058
34371W        W 2765  40.324  13.776   1.738
34372W        W 2766   0.690   6.844  11.968
34373W        W 2767  17.206   0.257  14.483
34374W        W 2768  29.044  10.091   4.862
34375W        W 2769   1.421  13.357  14.872
34376W        W 2770  25.448  34.357  12.003
34377W        W 2771   9.032  25.257  13.345
34378W        W 2772  20.240  21.209   3.590
34379W        W 2773  35.368  14.624   4.361
34380W        W 2774  35.591  31.378  13.440
34381W        W 2775  16.752  40.979  11.198
34382W        W 2776  23.035  39.246  12.962
34383W        W 2777  21.441  27.688   3.862
34384W        W 2778   9.801  23.533   3.157
34385W        W 2779   0.825   3.762   0.461
34386W        W 2780  15.925  21.813  13.277
34387W        W 2781  25.844  39.800  13.391
34388W        W 2782  37.060  21.249  14.031
34389W        W 2783  23.719  35.468  13.528
34390W        W 2784   5.519  35.580  13.780
34391W        W 2785  24.576  40.368  14.731
34392W        W 2786   9.505  26.485  11.185
34393W        W 2787   4.377   9.995  13.765
34394W        W 2788  25.278  43.829  11.080
34395W        W 2789   8.160  40.041   0.288
34396W        W 2790  16.271  30.527   2.316
34397W        W 2791   1.910   2.549  11.521
34398W        W 2792  15.556  38.253  12.985
34399W        W 2793  25.399   4.857  11.120
34400W        W 2794  22.497  15.475  14.983
34401W        W 2795  38.411   3.215   2.178
34402W        W 2796   1.823  38.366  14.894
34403W        W 2797  21.458  25.707  11.934
34404W        W 2798  28.890  28.197  12.492
34405W        W 2799  21.223  38.931  14.394
34406W        W 2800  42.117  36.844  12.603
34407W        W 2801  32.661  43.343  14.570
34408W        W 2802   8.951  21.560  11.850
34409W        W 2803  24.165  27.894  13.323
34410W        W 2804  37.046  18.539  10.572
34411W        W 2805  19.041  44.022   0.715
34412W        W 2806  21.506  30.922   4.252
34413W        W 2807  12.859  28.520  11.974
34414W        W 2808  23.284   0.530   0.463
34415W        W 2809  41.820   5.235   1.365
34416W        W 2810  34.891  30.139   0.237
34417W        W 2811  25.743  28.533   1.772
34418W        W 2812   4.255  22.167  11.564
34419W        W 2813  38.497  21.809  12.011
34420W        W 2814  30.169  23.684   4.647
34421W        W 2815  12.778  28.536   2.154
34422W        W 2816  12.263  21.741   0.803
34423W        W 2817  43.273   7.611  10.863
34424W        W 2818  31.418  29.885   3.646
34425W        W 2819  40.943  16.893  13.004
34426W        W 2820   1.726  38.405   3.552
34427W        W 2821  16.213   6.225   1.713
34428W        W 2822  39.906  10.916   0.118
34429W        W 2823   3.827  27.195   2.805
34430W        W 2824  40.098  19.356   3.225
34431W        W 2825  18.252  30.407   4.024
34432W        W 2826  36.573  17.137  11.883
34433W        W 2827  24.704   5.915  12.630
34434W        W 2828   0.033  37.431   1.289
34435W        W 2829  19.311  20.276   3.354
34436W        W 2830  30.970  35.405   1.537
34437W        W 2831  19.769  40.111  14.535
34438W        W 2832  27.588  19.796   2.381
34439W        W 2833   2.790  27.094  11.143
34440W        W 2834   7.950   5.259   4.289
34441W        W 2835  10.906  33.018   2.481
34442W        W 2836  10.207  36.812   3.608
34443W        W 2837  29.591   2.718  14.721
34444W        W 2838  43.857  31.942  11.181
34445W        W 2839  35.397  34.331   2.138
34446W        W 2840  10.244  35.400   0.849
34447W        W 2841  14.272  23.434   4.122
34448W        W 2842  27.234  17.999  10.867
34449W        W 2843  42.801  29.679   1.935
34450W        W 2844  41.353  22.654   3.183
34451W        W 2845  27.882  43.353   4.607
34452W        W 2846  33.417  39.479   1.325
34453W        W 2847  37.687  18.336  12.888
34454W        W 2848  18.177   2.738  11.848
34455W        W 2849   1.369  39.110   1.691
34456W        W 2850   8.106  10.333   1.812
34457W        W 2851  22.569  19.811  14.110
34458W        W 2852  17.859  22.247  12.366
34459W        W 2853  18.404  43.023   3.169
34460W        W 2854  17.730  35.391   3.748
34461W        W 2855   2.408  12.802  11.260
34462W        W 2856   4.800  40.828   5.036
34463W        W 2857  38.927  17.346   0.981
34464W        W 2858  38.351  10.771   2.875
34465W        W 2859   1.787  21.986   4.049
34466W        W 2860   9.889  10.408  12.342
34467W        W 2861  16.806   2.285  13.956
34468W        W 2862  16.144  34.329  11.610
34469W        W 2863  21.021  10.055  11.519
34470W        W 2864   3.191  18.940  10.823
34471W        W 2865   1.171  16.554  14.563
34472W        W 2866  12.553  17.217  10.590
34473W        W 2867  24.677   7.841   4.318
34474W        W 2868  35.794  15.271   1.690
34475W        W 2869   1.855  19.524  11.996
34476W        W 2870  16.061  31.140   3.731
34477W        W 2871  10.768  31.640  12.581
34478W        W 2872  30.626  18.604  13.519
34479W        W 2873  32.085  25.824  11.699
34480W        W 2874  28.763  37.512   4.854
34481W        W 2875  44.311  15.329  11.206
34482W        W 2876  28.506  37.795   2.250
34483W        W 2877  29.923  29.889   2.345
34484W        W 2878  21.180   2.435  13.406
34485W        W 2879  13.898  36.052  12.923
34486W        W 2880  37.435  16.709  14.513
34487W        W 2881  19.528  31.561   4.477
34488W        W 2882  32.587  26.086   1.722
34489W        W 2883  12.413  10.519   4.594
34490W        W 2884  39.200  43.842   3.720
34491W        W 2885  19.190  35.830  12.815
34492W        W 2886   9.124   9.630  14.804
34493W        W 2887  25.050  32.190   3.628
34494W        W 2888   1.639  40.941   1.436
34495W        W 2889  38.654  31.123  14.754
34496W        W 2890  12.413   1.937  12.359
34497W        W 2891   6.909  43.852  11.631
34498W        W 2892   3.431  13.962   3.632
34499W        W 2893   1.039  28.547  14.486
34500W        W 2894  23.690  25.195  14.784
34501W        W 2895  28.386  12.960   2.678
34502W        W 2896  18.095  16.774  10.312
34503W        W 2897   2.299   1.898  14.503
34504W        W 2898  42.470  13.567  13.860
34505W        W 2899   8.070  21.239   3.850
34506W        W 2900  44.522  33.290  13.980
34507W        W 2901   7.429   4.606  13.333
34508W        W 2902  26.862  21.041   0.764
34509W        W 2903  17.175  23.755  10.640
34510W        W 2904  42.743  16.237   1.951
34511W        W 2905  16.345   0.490   0.935
34512W        W 2906  34.052  42.916  12.575
34513W        W 2907   5.698  20.856  11.598
34514W        W 2908  37.491  36.063   0.735
34515W        W 2909   3.182   7.143   1.419
34516W        W 2910   1.308  43.027  10.780
34517W        W 2911   5.938  44.748  11.129
34518W        W 2912  35.329  22.275   0.549
34519W        W 2913  25.406  21.045   4.515
34520W        W 2914  27.658   5.991   3.956
34521W        W 2915  19.579  17.230  13.337
34522W        W 2916  27.943  34.096   0.923
34523W        W 2917   4.898  40.284   4.097
34524W        W 2918  13.735   7.986  13.289
34525W        W 2919  24.409  17.679   1.582
34526W        W 2920  44.326   1.862  12.942
34527W        W 2921  11.865  44.948   2.123
34528W        W 2922  42.598  34.363  13.244
34529W        W 2923   0.328   4.379   0.875
34530W        W 2924   2.426  14.124  13.117
34531W        W 2925  40.360  11.826  10.820
34532W        W 2926  16.543  23.033   3.993
34533W        W 2927  30.622   7.133  14.089
34534W        W 2928  32.920  29.494  11.844
34535W        W 2929  38.860  39.251  10.671
34536W        W 2930  37.765  32.071  11.065
34537W        W 2931  20.038   9.455  11.069
34538W        W 2932  32.132   6.420   2.775
34539W        W 2933   5.880  34.831   1.699
34540W        W 2934  19.705  10.584  14.583
34541W        W 2935  18.050   3.194   1.936
34542W        W 2936   7.177  21.932   3.229
34543W        W 2937  19.711  15.007   3.199
34544W        W 2938   7.424   5.882  11.552
34545W        W 2939  12.772  40.736   0.957
34546W        W 2940  43.798  26.374   3.750
34547W        W 2941  42.571  30.457   3.798
34548W        W 2942   7.778  27.666  13.874
34549W        W 2943  40.016  11.105  11.549
34550W        W 2944  10.713  21.594   0.563
34551W        W 2945  37.579  15.272   1.386
34552W        W 2946  10.470  29.413   2.283
34553W        W 2947  22.262   2.496   3.124
34554W        W 2948  17.068  43.892  10.777
34555W        W 2949   8.819  44.286   1.668
34556W        W 2950  17.428  44.303  11.701
34557W        W 2951   8.319  18.471  14.826
34558W        W 2952  44.164  13.353   4.690
34559W        W 2953   8.680  16.788  12.364
34560W        W 2954  40.474  16.663  10.664
34561W        W 2955   0.934   6.418  11.230
34562W        W 2956  41.247   4.211   0.967
34563W        W 2957  27.881  19.018  13.933
34564W        W 2958  37.534  23.141   4.537
34565W        W 2959  12.376  43.762  10.954
34566W        W 2960  27.717  29.100   3.411
34567W        W 2961  35.723  29.785   0.338
34568W        W 2962  41.750   0.535  10.785
34569W        W 2963  36.045  10.833  13.586
34570W        W 2964  43.015  22.984   2.274
34571W        W 2965  17.620  30.652   1.910
34572W        W 2966  35.431   4.247  14.510
34573W        W 2967   5.430  21.005  14.296
34574W        W 2968  12.626  17.478  11.058
34575W        W 2969  22.047  21.506  12.277
34576W        W 2970  29.609  21.184   3.705
34577W        W 2971  36.202  16.045  11.733
34578W        W 2972   3.563  40.926   0.874
34579W        W 2973   3.307  15.343   2.275
34580W        W 2974  23.747   4.478  14.727
34581W        W 2975  17.430  26.563  10.614
34582W        W 2976  41.852  19.717   2.378
34583W        W 2977   8.674  24.201   3.096
34584W        W 2978  43.389  41.337   1.695
34585W        W 2979   4.848  43.961   1.310
34586W        W 2980  40.447  23.390  14.578
34587W        W 2981   4.531  41.747   2.412
34588W        W 2982  42.617   2.147  12.400
34589W        W 2983  14.784  23.395   4.063
34590W        W 2984  21.047  31.493  11.396
34591W        W 2985   8.113  23.241   0.938
34592W        W 2986   5.356  17.769   4.962
34593W        W 2987  44.325  35.036   0.553
34594W        W 2988  38.922   8.517  10.745
34595W        W 2989   7.247   8.429  13.976
34596W        W 2990  32.595  15.115  12.041
34597W        W 2991   7.259  12.665  11.905
34598W        W 2992   5.319   7.594   3.732
34599W        W 2993  30.654  14.505   3.154
34600W        W 2994  30.184   7.836   2.751
34601W        W 2995  20.798  23.367   1.172
34602W        W 2996  21.256  19.541  10.713
34603W        W 2997  17.106  11.201  12.222
34604W        W 2998  22.070  15.595   3.145
34605W        W 2999  43.368  35.627  13.787
34606W        W 3000  42.719  11.760   4.112
34607W        W 3001  29.577  32.461  14.764
34608W        W 3002  23.010  18.830  11.111
34609W        W 3003  40.425  40.109  10.609
34610W        W 3004  25.041  25.641  14.257
34611W        W 3005   8.920  30.061  14.993
34612W        W 3006  42.541  24.764  13.173
34613W        W 3007  43.506  22.919   2.907
34614W        W 3008   7.352   7.830  11.669
34615W        W 3009  43.604  39.436   4.609
34616W        W 3010  37.801  14.607  13.571
34617W        W 3011  38.143  40.258  14.924
34618W        W 3012  10.726  16.290  12.100
34619W        W 3013  42.920  15.236   2.293
34620W        W 3014   9.305  42.530  12.091
34621W        W 3015  30.151  14.847  12.928
34622W        W 3016  24.050   5.288   2.613
34623W        W 3017  13.408  11.282   4.240
34624W        W 3018  23.145  24.101  13.419
34625W        W 3019  44.396  11.079  14.905
34626W        W 3020  17.805   4.685  11.546
34627W        W 3021  42.115  32.265  14.369
34628W        W 3022   0.927  40.158   2.294
34629W        W 3023  41.495  32.994  14.056
34630W        W 3024  44.622  43.754   2.430
34631W        W 3025  35.528  37.945   4.001
34632W        W 3026  32.850  26.633  10.967
34633W        W 3027   9.222  16.750   2.170
34634W        W 3028  30.527  25.173   2.126
34635W        W 3029   0.918  27.622   3.344
34636W        W 3030  34.066  40.354   1.386
34637W        W 3031  38.839  28.186   0.785
34638W        W 3032  38.814  14.839  13.292
34639W        W 3033  43.894  21.188   3.800
34640W        W 3034   0.483  18.286   3.808
34641W        W 3035  44.608  40.417  14.914
34642W        W 3036  42.459  38.352   0.056
34643W        W 3037  25.906   4.404  13.128
34644W        W 3038  21.764  32.386  10.600
34645W        W 3039  26.241   0.892  12.809
34646W        W 3040  44.298  19.979   0.461
34647W        W 3041   9.848  13.152  13.336
34648W        W 3042  36.916  24.830   0.713
34649W        W 3043  14.224  10.267   3.256
34650W        W 3044  44.787  40.746   3.179
34651W        W 3045  11.271   0.075  14.150
34652W        W 3046  12.295  18.393  13.561
34653W        W 3047  38.277   4.668   3.810
34654W        W 3048  20.795  26.984   1.035
34655W        W 3049  20.199   6.440  14.444
34656W        W 3050  12.816  11.115  14.364
34657W        W 3051  15.260   8.640  11.665
34658W        W 3052   0.258   3.748   4.177
34659W        W 3053  14.800   6.287  11.876
34660W        W 3054  38.363  26.885  11.867
34661W        W 3055  12.098  20.857  12.392
34662W        W 3056   2.286   4.469  14.798
34663W        W 3057   6.432  15.404   4.582
34664W        W 3058  21.215  34.849  14.926
34665W        W 3059  19.517  32.638   2.912
34666W        W 3060   7.473   8.712  12.574
34667W        W 3061  24.010  35.138  10.586
34668W        W 3062  16.074  29.434  14.010
34669W        W 3063  10.890  44.249   0.353
34670W        W 3064  42.033  40.500   3.689
34671W        W 3065  40.284  23.738   4.912
34672W        W 3066  34.582  14.343   1.939
34673W        W 3067   6.733  26.102  12.499
34674W        W 3068   2.909  18.760   2.325
34675W        W 3069  19.306   2.853   1.838
34676W        W 3070  20.638  27.017  12.183
34677W        W 3071  29.391  34.150   4.297
34678W        W 3072  22.103  24.017  11.017
34679W        W 3073  38.587   6.869   0.754
34680W        W 3074  36.775  18.401   4.136
34681W        W 3075  21.561  40.896  10.779
34682W        W 3076   0.346  23.032   2.664
34683W        W 3077  37.566  33.595   4.671
34684W        W 3078   6.694  37.724  12.967
34685W        W 3079  11.860  44.020  14.535
34686W        W 3080  20.057  20.789   2.375
34687W        W 3081  44.579  38.412  14.438
34688W        W 3082  37.035   0.249  14.347
34689W        W 3083  21.413  17.507   3.248
34690W        W 3084  19.627  26.139  12.044
34691W        W 3085  10.980  25.940   3.651
34692W        W 3086  35.989  44.829  10.417
34693W        W 3087  20.855   8.192   1.408
34694W        W 3088  23.366  39.400  13.893
34695W        W 3089   0.182   5.992  11.942
34696W        W 3090  10.627   9.814  11.594
34697W        W 3091  14.922  16.759  12.668
34698W        W 3092  10.257  43.924  11.209
34699W        W 3093  38.266  24.464   4.147
34700W        W 3094   5.394  41.983   1.735
34701W        W 3095  15.755  17.210  10.934
34702W        W 3096  35.596   4.865   2.714
34703W        W 3097  26.754  12.553  10.241
34704W        W 3098  17.118  26.345  10.957
34705W        W 3099   8.747  30.463   0.920
34706W        W 3100   8.693  36.634   2.437
34707W        W 3101  44.524  42.878   3.647
34708W        W 3102   3.798   4.337   4.273
34709W        W 3103  44.400  44.005  10.176
34710W        W 3104  28.158  26.191  12.612
34711W        W 3105  10.628  13.705   3.886
34712W        W 3106  27.252  19.088   0.424
34713W        W 3107   0.454   8.216   4.630
34714W        W 3108  12.858  43.334  10.786
34715W        W 3109   8.196  44.914   0.477
34716W        W 3110  26.685  22.367  12.126
34717W        W 3111   8.673  28.666  12.472
34718W        W 3112  18.557  35.780   4.144
34719W        W 3113  16.769  38.367   2.414
34720W        W 3114  27.646   2.642   4.253
34721W        W 3115  20.982   0.639   3.697
34722W        W 3116  20.043  13.624  13.650
34723W        W 3117  38.980   3.141  10.751
34724W        W 3118   8.434  20.990   3.172
34725W        W 3119  38.630  12.954   1.788
34726W        W 3120  28.388  14.499  14.772
34727W        W 3121   1.920  12.810   4.071
34728W        W 3122  24.535  11.316   1.251
34729W        W 3123  15.948  31.046   0.989
34730W        W 3124  29.171  25.291  10.660
34731W        W 3125  21.371  12.810  13.018
34732W        W 3126  17.660  39.622   2.180
34733W        W 3127  35.519  31.516   0.699
34734W        W 3128   9.867  38.135  11.556
34735W        W 3129  25.372   9.679  10.724
34736W        W 3130  33.337  17.119  14.049
34737W        W 3131   6.325  20.736  14.603
34738W        W 3132  28.814  42.446   2.656
34739W        W 3133   8.269  14.102   4.473
34740W        W 3134  29.137  19.976  13.884
34741W        W 3135  17.803   1.983   0.385
34742W        W 3136   3.864   0.412   0.873
34743W        W 3137  27.444  27.014   3.603
34744W        W 3138  37.384  36.470  14.925
34745W        W 3139  17.340   0.627   4.035
34746W        W 3140  17.711  37.291   2.736
34747W        W 3141  26.255  30.499  13.773
34748W        W 3142  22.920  11.882   3.564
34749W        W 3143  21.938  20.921   2.150
34750W        W 3144  22.029  12.057  11.979
34751W        W 3145   9.686  37.647   0.367
34752W        W 3146  34.630  34.123   4.158
34753W        W 3147  18.869  33.618  14.405
34754W        W 3148  43.525  42.061   2.176
34755W        W 3149  25.157  38.459  13.375
34756W        W 3150  30.419  36.549   2.384
34757W        W 3151  44.256  13.228  12.929
34758W        W 3152  35.398  22.275   2.133
34759W        W 3153  25.067   3.749   3.624
34760W        W 3154   0.340  16.774   3.684
34761W        W 3155  15.914  16.550   3.400
34762W        W 3156   8.647  14.405  13.134
34763W        W 3157  20.999  11.244  13.584
34764W        W 3158  32.020  41.730  10.696
34765W        W 3159  21.586  14.420   0.019
34766W        W 3160   0.315  11.420  13.870
34767W        W 3161  41.221   2.513  10.729
34768W        W 3162  14.307  21.616  11.209
34769W        W 3163  16.169  14.681  10.395
34770W        W 3164  29.236  36.553   4.183
34771W        W 3165  13.329  38.371  10.585
34772W        W 3166  37.369  12.726   2.879
34773W        W 3167  17.753  35.480   1.411
34774W        W 3168  42.077  30.346   1.479
34775W        W 3169  31.491  37.568   2.475
34776W        W 3170  11.205  39.813  10.322
34777W        W 3171   8.221  12.422  12.741
34778W        W 3172  41.804  36.426  12.509
34779W        W 3173   7.999  37.099  12.824
34780W        W 3174   3.825   3.408   4.328
34781W        W 3175   4.614   8.264   2.286
34782W        W 3176  21.085  29.807  13.468
34783W        W 3177  18.825  25.510   2.798
34784W        W 3178  21.689  22.209  14.662
34785W        W 3179   1.998   9.815  14.749
34786W        W 3180  11.026  44.637  13.982
34787W        W 3181   6.308  13.528   1.279
34788W        W 3182  15.056  33.858  12.884
34789W        W 3183  21.488  34.915   4.657
34790W        W 3184  15.025  18.291   3.736
34791W        W 3185   0.953  11.843  11.674
34792W        W 3186   9.108  10.477   3.986
34793W        W 3187  10.695   2.824  14.995
34794W        W 3188  37.332  34.860  12.017
34795W        W 3189  24.542  35.561   1.730
34796W        W 3190  43.316  40.116   0.657
34797W        W 3191  25.340  19.684  10.784
34798W        W 3192  15.232  17.326   9.973
34799W        W 3193  34.776   2.841   1.767
34800W        W 3194   2.510  19.505   1.945
34801W        W 3195   0.835  19.726   0.369
34802W        W 3196  16.110  27.414  14.218
34803W        W 3197  24.067  25.503  13.122
34804W        W 3198   0.718  26.171  13.371
34805W        W 3199  33.590  44.027  13.111
34806W        W 3200  33.397  34.844   0.928
34807W        W 3201  42.255  27.536  12.623
34808W        W 3202  27.671   6.211   0.357
34809W        W 3203  16.564  20.749  13.719
34810W        W 3204  34.639  18.054   2.692
34811W        W 3205  38.605  10.398  11.895
34812W        W 3206  36.863  30.555   2.893
34813W        W 3207  21.271   4.924  10.383
34814W        W 3208  32.984  24.039   4.127
34815W        W 3209  44.490  27.539  13.464
34816W        W 3210  21.619  24.547   0.433
34817W        W 3211  15.806  31.557   2.958
34818W        W 3212  30.031   1.836  11.103
34819W        W 3213   6.520  32.859  10.913
34820W        W 3214  34.095  14.167   1.773
34821W        W 3215  12.182  33.572  10.769
34822W        W 3216  39.790  21.416   4.584
34823W        W 3217   2.829  26.126  14.318
34824W        W 3218  23.936  14.587   0.864
34825W        W 3219   5.313  42.430  13.414
34826W        W 3220  39.847  40.937   0.182
34827W        W 3221  31.966  40.015  13.492
34828W        W 3222  10.155   2.883   0.848
34829W        W 3223  38.030  18.078   2.844
34830W        W 3224  31.482  18.986  13.116
34831W        W 3225  33.140  11.749  13.914
34832W        W 3226  13.915   1.807   4.543
34833W        W 3227  22.908   6.756  11.666
34834W        W 3228  24.672   6.375   2.319
34835W        W 3229  28.198  23.704   3.209
34836W        W 3230  23.239  15.201   4.129
34837W        W 3231  37.040   1.551   4.042
34838W        W 3232  26.632  31.839   0.689
34839W        W 3233  14.601   5.585  13.247
34840W        W 3234   0.429   0.446  11.681
34841W        W 3235  37.525  43.454   4.236
34842W        W 3236   8.775   8.128   0.347
34843W        W 3237   6.235  35.510  10.728
34844W        W 3238  30.209  25.488   2.847
34845W        W 3239  11.333  16.337  10.662
34846W        W 3240  37.552   5.976   1.382
34847W        W 3241   9.194   4.157  12.727
34848W        W 3242  42.505  12.478  14.612
34849W        W 3243  21.273  28.939  10.723
34850W        W 3244  24.225   4.872  13.855
34851W        W 3245  18.629  32.107  14.017
34852W        W 3246  28.486  36.010  14.290
34853W        W 3247   9.417  36.953  12.879
34854W        W 3248  21.571   9.012   0.675
34855W        W 3249  40.778  36.020   5.190
34856W        W 3250  27.900  27.991   3.601
34857W        W 3251  10.727  36.847  10.348
34858W        W 3252  40.951   7.749   2.560
34859W        W 3253  35.810  26.550   4.120
34860W        W 3254  35.761  19.742  11.665
34861W        W 3255  42.300  32.362  14.860
34862W        W 3256  17.787   3.379  13.730
34863W        W 3257  10.848  38.361   1.667
34864W        W 3258  38.779  37.491   3.238
34865W        W 3259  11.070  25.457  13.108
34866W        W 3260  26.625  11.560   2.951
34867W        W 3261  33.414  20.134  13.630
34868W        W 3262  42.409  32.400   4.539
34869W        W 3263  27.535   8.372  12.910
34870W        W 3264   1.471   1.991  14.333
34871W        W 3265  31.482  19.811  12.623
34872W        W 3266  27.080  28.569  11.600
34873W        W 3267   5.251  22.513  10.758
34874W        W 3268  40.473  26.048  13.911
34875W        W 3269  29.071  44.871  10.238
34876W        W 3270  35.205  29.705   0.298
34877W        W 3271  12.143  43.967  14.024
34878W        W 3272  42.378  28.851   1.824
34879W        W 3273  29.336  21.645   2.153
34880W        W 3274  26.162  36.958   1.257
34881W        W 3275  13.407  44.393   1.687
34882W        W 3276  35.093   8.008  14.087
34883W        W 3277  29.430   8.793   1.960
34884W        W 3278  34.067  31.614   0.677
34885W        W 3279  34.130  36.421   4.140
34886W        W 3280  27.155  27.906  13.055
34887W        W 3281  26.470  25.142   3.933
34888W        W 3282  16.058  16.779  14.507
34889W        W 3283  23.178  13.889   3.201
34890W        W 3284  42.298  36.944   0.049
34891W        W 3285  12.296  35.560   2.704
34892W        W 3286  17.486   2.511  11.792
34893W        W 3287  25.239   6.531  11.395
34894W        W 3288  32.618   4.716  12.478
34895W        W 3289   4.170  38.992  11.605
34896W        W 3290  24.002   4.445  10.641
34897W        W 3291  31.928  40.494   3.713
34898W        W 3292  27.875   8.250   1.805
34899W        W 3293   2.798  22.685  12.692
34900W        W 3294  16.104  12.218   4.383
34901W        W 3295  30.706  16.139   1.489
34902W        W 3296  10.188  14.843  13.948
34903W        W 3297  20.398  15.813   9.779
34904W        W 3298  40.700  21.142   0.218
34905W        W 3299  36.041  10.366   4.162
34906W        W 3300  37.996  28.689   4.606
34907W        W 3301  24.776  41.772  13.141
34908W        W 3302   8.645   0.904   2.635
34909W        W 3303  44.248  31.938   0.092
34910W        W 3304  22.225  12.788  13.559
34911W        W 3305  41.874  16.972  11.089
34912W        W 3306  32.424   6.946  11.574
34913W        W 3307  13.285  15.745  12.165
34914W        W 3308   3.250  34.649  13.432
34915W        W 3309  23.592  31.344   4.609
34916W        W 3310  24.397  25.590   3.224
34917W        W 3311   1.002  36.520  13.432
34918W        W 3312  39.731  39.079   1.354
34919W        W 3313  22.382  43.135  14.619
34920W        W 3314  35.902  29.596  11.693
34921W        W 3315  26.631  42.679   5.020
34922W        W 3316  25.431  13.196  14.841
34923W        W 3317  19.007  26.583   0.995
34924W        W 3318  10.402  42.277   4.058
34925W        W 3319  39.211   7.834  14.574
34926W        W 3320  33.993  36.081  14.987
34927W        W 3321  12.275  36.831   0.477
34928W        W 3322  18.528   7.866  11.810
34929W        W 3323  11.872  34.448  13.309
34930W        W 3324   4.212   3.479  11.202
34931W        W 3325  21.268  29.627  14.855
34932W        W 3326  13.359  33.074   1.171
34933W        W 3327  13.751  39.911   3.348
34934W        W 3328  40.562  14.881  13.901
34935W        W 3329  41.271  40.033   2.449
34936W        W 3330  22.986  16.205   1.330
34937W        W 3331  40.955  18.351   3.820
34938W        W 3332  35.485  42.218  14.613
34939W        W 3333  42.546   2.448  14.954
34940W        W 3334  29.639  35.537   2.836
34941W        W 3335  19.763  30.439  12.894
34942W        W 3336  16.200   4.526  14.934
34943W        W 3337  27.986  20.970   3.398
34944W        W 3338  26.690   5.227  11.534
34945W        W 3339  23.372  43.849   0.487
34946W        W 3340  32.240  19.694  10.677
34947W        W 3341  41.942  44.162   0.943
34948W        W 3342  43.458   2.401  11.129
34949W        W 3343  26.041   1.763   1.792
34950W        W 3344  35.493  42.848   1.418
34951W        W 3345  10.412  12.220   4.112
34952W        W 3346  43.519   9.260   0.425
34953W        W 3347  31.443  41.646  11.921
34954W        W 3348  10.361  13.842   4.600
34955W        W 3349  11.749  20.953   1.882
34956W        W 3350  10.782  29.030  13.895
34957W        W 3351  27.411  23.168  12.435
34958W        W 3352  17.555  24.371   4.027
34959W        W 3353  15.815  36.424  13.892
34960W        W 3354  31.626  19.612   2.238
34961W        W 3355  29.194  32.147  12.065
34962W        W 3356  23.138  40.883   1.568
34963W        W 3357  13.958  28.238   1.270
34964W        W 3358  19.052  38.371  10.851
34965W        W 3359  15.080  41.367   1.727
34966W        W 3360  34.174  40.339  13.050
34967W        W 3361   8.046  28.622  11.705
34968W        W 3362  34.831  29.215  12.493
34969W        W 3363  44.831  18.196   4.440
34970W        W 3364  20.030  18.186   2.827
34971W        W 3365  14.593  39.013   1.815
34972W        W 3366  28.101  30.337  11.933
34973W        W 3367  44.362  27.129   3.690
34974W        W 3368  27.158  11.412  14.432
34975W        W 3369  42.655  29.572   1.448
34976W        W 3370  13.127  14.212   4.167
34977W        W 3371   6.574  15.674  13.586
34978W        W 3372  34.452  31.236  12.121
34979W        W 3373  33.434  35.062   1.900
34980W        W 3374  25.234  40.892   0.790
34981W        W 3375  19.626  39.924  13.539
34982W        W 3376   6.794  13.782  12.582
34983W        W 3377  12.177   0.716   3.322
34984W        W 3378  28.209  43.739   1.837
34985W        W 3379  19.982  39.436   3.876
34986W        W 3380  35.760  27.011   4.347
34987W        W 3381  34.859  22.585  11.898
34988W        W 3382  16.717   7.281   2.262
34989W        W 3383  21.903  11.402   3.278
34990W        W 3384   7.113  36.924   1.325
34991W        W 3385  15.548  35.052  14.918
34992W        W 3386  33.704  27.206  12.484
34993W        W 3387  27.291  24.799  13.204
34994W        W 3388  11.573  37.487   0.743
34995W        W 3389  12.373   3.284  11.211
34996W        W 3390   2.886  11.912  13.471
34997W        W 3391  34.884  20.395  12.549
34998W        W 3392  36.796  20.464   2.882
34999W        W 3393  40.903  38.686   3.275
35000W        W 3394  15.839  43.960  13.879
35001W        W 3395  34.964   5.509  12.612
35002W        W 3396  34.852  34.012  11.382
35003W        W 3397   5.774  25.008   3.664
35004W        W 3398  19.754  30.660   0.317
35005W        W 3399  43.762  22.257   4.062
35006W        W 3400  42.583  11.354   3.781
35007W        W 3401  42.928   5.821  11.463
35008W        W 3402  35.821  14.309   2.777
35009W        W 3403   8.502  42.442   2.661
35010W        W 3404  32.185  21.522   1.554
35011W        W 3405   0.743  13.112  11.450
35012W        W 3406  36.354  29.601   0.834
35013W        W 3407  19.671  37.139  14.899
35014W        W 3408  43.386  19.506  12.170
35015W        W 3409  36.978  41.055   1.946
35016W        W 3410   1.355  28.425  13.324
35017W        W 3411  33.744  37.888   4.220
35018W        W 3412  34.223  40.637   0.589
35019W        W 3413  42.027  25.070  14.801
35020W        W 3414   7.918  21.946   1.279
35021W        W 3415  29.538  18.530   2.725
35022W        W 3416  26.912  23.657   3.629
35023W        W 3417  19.582  42.395  11.489
35024W        W 3418   1.720   6.749  14.443
35025W        W 3419  10.578   9.885   4.386
35026W        W 3420  20.188  20.199   0.260
35027W        W 3421   8.389  20.572  12.114
35028W        W 3422  16.037  40.473  12.165
35029W        W 3423  24.167  40.248  12.495
35030W        W 3424  31.035   5.644   2.395
35031W        W 3425  44.135  24.473   3.599
35032W        W 3426   7.687  19.789  14.856
35033W        W 3427  22.669  16.691  12.034
35034W        W 3428   7.332  30.884   1.504
35035W        W 3429   3.763  22.486   2.707
35036W        W 3430  37.057  26.872   0.023
35037W        W 3431  37.048   8.074   2.871
35038W        W 3432  33.569   4.657  14.821
35039W        W 3433  31.657   9.313   1.470
35040W        W 3434  43.248  36.094   1.721
35041W        W 3435  10.772  33.424   3.426
35042W        W 3436  32.572   8.816   4.579
35043W        W 3437   1.284   5.964  13.411
35044W        W 3438  19.973   0.765   1.915
35045W        W 3439  19.169   1.533   2.764
35046W        W 3440  30.157  15.786   4.841
35047W        W 3441  38.389  21.628   4.393
35048W        W 3442  32.165  41.024  12.098
35049W        W 3443  37.793  10.814  11.921
35050W        W 3444  12.282   6.714   0.268
35051W        W 3445  20.030  38.589  12.353
35052W        W 3446  14.634  11.801  10.369
35053W        W 3447  34.884   8.281   3.206
35054W        W 3448   4.494  33.372   4.012
35055W        W 3449  40.218  38.351   5.009
35056W        W 3450  15.486   8.724   2.269
35057W        W 3451  31.083  42.144   0.594
35058W        W 3452  26.136  10.029  10.842
35059W        W 3453  39.034  14.719   1.243
35060W        W 3454  28.913  42.907  13.276
35061W        W 3455  30.372   4.034   4.094
35062W        W 3456  28.578  42.693   0.791
35063W        W 3457   7.831  14.935   1.331
35064W        W 3458  24.430   9.353   2.452
35065W        W 3459  18.122   2.462  13.496
35066W        W 3460  14.757   0.148   0.350
35067W        W 3461  30.047  29.892   1.191
35068W        W 3462  14.173  36.844   1.442
35069W        W 3463   0.822  30.606  12.142
35070W        W 3464   4.362   6.757   2.360
35071W        W 3465  28.848  21.753   0.517
35072W        W 3466  19.120  12.427   3.640
35073W        W 3467  23.781   9.175   3.949
35074W        W 3468  29.583  14.060  11.592
35075W        W 3469  15.187  26.461   0.291
35076W        W 3470  13.824  24.124   3.011
35077W        W 3471   6.892   8.153  14.304
35078W        W 3472   9.236  26.493   2.705
35079W        W 3473  30.391   6.692  10.634
35080W        W 3474  36.559   4.757   2.614
35081W        W 3475  31.712  26.460   4.545
35082W        W 3476  14.061   8.081   2.947
35083W        W 3477  11.149  29.240  14.410
35084W        W 3478  26.264  10.352   5.053
35085W        W 3479  22.266  17.141   2.681
35086W        W 3480  24.946  20.290  11.631
35087W        W 3481   7.124  40.072  10.710
35088W        W 3482  39.638   7.630  13.161
35089W        W 3483  20.395  15.656  13.374
35090W        W 3484  11.378  44.526  13.061
35091W        W 3485  43.782  22.751   2.481
35092W        W 3486   1.816   5.800   2.326
35093W        W 3487   4.968  12.325  12.057
35094W        W 3488  42.028   8.393   0.340
35095W        W 3489  36.493  34.262  10.123
35096W        W 3490  31.184  14.276   0.011
35097W        W 3491   1.527  40.420  14.293
35098W        W 3492  44.927  41.518  12.142
35099W        W 3493  41.434  28.884   0.265
35100W        W 3494  11.073   9.302  12.428
35101W        W 3495  20.688  17.922   1.843
35102W        W 3496  35.093   3.318   0.375
35103W        W 3497   2.882  19.554   2.765
35104W        W 3498  15.681  16.015   2.229
35105W        W 3499  39.556  25.908  12.919
35106W        W 3500  17.840   1.351   3.618
35107W        W 3501   1.972   0.949   0.018
35108W        W 3502  35.034   5.868  14.521
35109W        W 3503   8.853  20.495   0.247
35110W        W 3504  13.836  32.318  11.980
35111W        W 3505  25.575  13.678   4.864
35112W        W 3506  12.350  40.345   2.903
35113W        W 3507  31.081  14.146  12.015
35114W        W 3508  13.857  26.001   0.431
35115W        W 3509  20.632  14.050  11.381
35116W        W 3510   2.490  31.857   2.705
35117W        W 3511  10.079  44.134   0.048
35118W        W 3512  18.534   1.166  12.349
35119W        W 3513   1.500  18.178   3.767
35120W        W 3514  28.053  17.145  12.837
35121W        W 3515  42.837  31.435  14.319
35122W        W 3516  15.820  19.319   1.783
35123W        W 3517  16.821  34.884  12.410
35124W        W 3518   9.166  29.245   4.152
35125W        W 3519  16.785  26.594   1.479
35126W        W 3520  20.334  15.726   1.532
35127W        W 3521  24.812   6.970  13.941
35128W        W 3522  33.681  27.750  13.315
35129W        W 3523  44.770  10.317   2.324
35130W        W 3524  20.800  26.074   2.542
35131W        W 3525   9.624  22.015  10.601
35132W        W 3526   1.468   6.256  11.914
35133W        W 3527  37.501  24.328   1.872
35134W        W 3528  39.397  44.757   2.963
35135W        W 3529  36.958  27.394  14.948
35136W        W 3530  43.238  33.888   1.183
35137W        W 3531  28.638  12.668   2.216
35138W        W 3532   8.879   5.199  13.161
35139W        W 3533   8.460  38.366  11.607
35140W        W 3534  35.992   5.575  14.215
35141W        W 3535  23.770  34.798   2.308
35142W        W 3536  39.335  11.334  12.494
35143W        W 3537  12.818  35.478   4.296
35144W        W 3538   9.879  18.634   4.163
35145W        W 3539  21.988  33.189  11.217
35146W        W 3540   4.965   3.191  14.259
35147W        W 3541   0.092  40.734  12.469
35148W        W 3542  32.456  42.787   3.791
35149W        W 3543   5.319  23.210  12.054
35150W        W 3544  41.353   4.231  10.979
35151W        W 3545  41.176  21.976  11.455
35152W        W 3546  39.805  22.983  10.633
35153W        W 3547  27.015  15.706   0.860
35154W        W 3548   3.792  14.932  13.465
35155W        W 3549  42.534   2.977   1.935
35156W        W 3550  27.017  25.466  14.401
35157W        W 3551   1.006  37.102  14.397
35158W        W 3552  16.671  18.045  13.626
35159W        W 3553  22.544  18.089   2.464
35160W        W 3554   5.875  35.555   0.750
35161W        W 3555  16.473  38.902   1.236
35162W        W 3556  16.722  39.750  13.779
35163W        W 3557  13.267  14.014   3.722
35164W        W 3558  10.372  30.015  13.909
35165W        W 3559  33.930  43.677  14.555
35166W        W 3560  35.013  17.296  10.306
35167W        W 3561  35.359   1.995   1.776
35168W        W 3562   1.776  38.241   4.448
35169W        W 3563  40.758   3.746  11.472
35170W        W 3564   2.723  19.071  14.021
35171W        W 3565  23.897   2.197   1.750
35172W        W 3566  37.175  36.956   0.002
35173W        W 3567  37.653   9.984   0.025
35174W        W 3568   8.122  39.847  10.682
35175W        W 3569  43.519  21.707   3.239
35176W        W 3570   7.411   0.095   3.105
35177W        W 3571   6.378  12.417   0.110
35178W        W 3572  18.542  23.699  13.875
35179W        W 3573  34.826   7.975   1.332
35180W        W 3574   9.897  26.463   1.891
35181W        W 3575   9.801  31.342  13.588
35182W        W 3576  22.410  34.603   3.378
35183W        W 3577   1.652  43.832   3.115
35184W        W 3578  35.616  39.776  11.493
35185W        W 3579   3.685  14.355  11.246
35186W        W 3580   0.194  17.204  12.999
35187W        W 3581  19.556  30.450  13.984
35188W        W 3582  28.662  40.973   1.644
35189W        W 3583  40.293  29.791  11.096
35190W        W 3584  28.474  28.945   2.395
35191W        W 3585  31.418  39.264   2.037
35192W        W 3586  27.076   7.327  14.409
35193W        W 3587  41.316  36.287  13.799
35194W        W 3588   3.046  44.375   4.553
35195W        W 3589  42.860  24.440   2.205
35196W        W 3590  10.657  41.690   0.681
35197W        W 3591  40.378   1.536   0.506
35198W        W 3592  41.418  18.239   1.796
35199W        W 3593  31.548  44.827   2.175
35200W        W 3594  29.922  12.868   0.516
35201W        W 3595  29.745  31.542  10.199
35202W        W 3596   9.194  24.175  11.483
35203W        W 3597   7.238  42.811   0.030
35204W        W 3598  30.913  35.814   4.416
35205W        W 3599  11.030  38.549   2.710
35206W        W 3600  33.975  41.759   0.895
35207W        W 3601  31.812  42.840   4.605
35208W        W 3602  17.401  33.568   2.106
35209W        W 3603  25.608   5.736  14.792
35210W        W 3604  32.026   2.422   3.134
35211W        W 3605  11.015   0.826  11.563
35212W        W 3606  29.176   3.729  13.951
35213W        W 3607  10.495   5.440  11.981
35214W        W 3608  41.322  41.012  13.814
35215W        W 3609  27.276   9.115   1.867
35216W        W 3610  33.550  26.024   0.924
35217W        W 3611  26.090  43.279  11.042
35218W        W 3612  36.857  11.245   0.526
35219W        W 3613  15.657  17.244  11.873
35220W        W 3614  40.598  26.248   3.661
35221W        W 3615   6.366  39.950  13.058
35222W        W 3616   3.400  12.205  14.393
35223W        W 3617  13.232  18.874   2.755
35224W        W 3618   7.254  12.381  13.791
35225W        W 3619  10.789  42.171  11.255
35226W        W 3620  24.923  35.135  14.511
35227W        W 3621  41.641  28.964   3.086
35228W        W 3622  42.996  13.675  11.146
35229W        W 3623  26.078   5.414  11.621
35230W        W 3624  34.636  22.917  11.123
35231W        W 3625  40.824  22.193   4.446
35232W        W 3626  32.406  36.564   4.588
35233W        W 3627  15.505   2.353  12.543
35234W        W 3628  22.352  21.808   1.012
35235W        W 3629  28.613   7.969  14.122
35236W        W 3630   0.547   5.902  13.987
35237W        W 3631  20.275  16.288  12.378
35238W        W 3632  24.783  21.737  11.617
35239W        W 3633  31.599  14.641  14.852
35240W        W 3634   5.807  15.949  14.865
35241W        W 3635  33.612  34.978   0.467
35242W        W 3636  18.503  27.081   0.465
35243W        W 3637   4.764  41.352   1.270
35244W        W 3638  26.166  35.036  10.616
35245W        W 3639  20.954  38.774  13.965
35246W        W 3640   1.010  33.116  14.408
35247W        W 3641  40.544  19.100   1.308
35248W        W 3642  25.240  27.151  12.797
35249W        W 3643  14.475  20.152   0.671
35250W        W 3644   5.955  22.546   4.629
35251W        W 3645   8.587  19.744  14.012
35252W        W 3646  38.719  15.311   2.975
35253W        W 3647   3.596   7.578  12.473
35254W        W 3648  27.034  22.048  10.440
35255W        W 3649  20.594  17.149   5.010
35256W        W 3650  11.690  43.848   2.706
35257W        W 3651  23.640   1.000  13.279
35258W        W 3652  41.243  26.100  14.286
35259W        W 3653  37.722  36.420   4.194
35260W        W 3654  27.738  36.651  10.762
35261W        W 3655  23.729  20.455   1.379
35262W        W 3656  34.580  41.077  13.644
35263W        W 3657  33.982  16.689   4.090
35264W        W 3658  19.619   6.446  14.848
35265W        W 3659  44.887   8.106   0.361
35266W        W 3660  24.029  20.314  14.312
35267W        W 3661  14.667  28.006  12.577
35268W        W 3662  12.089  27.051  14.956
35269W        W 3663  30.700  32.845  14.979
35270W        W 3664  11.205   4.279  11.629
35271W        W 3665  36.844   6.526   4.119
35272W        W 3666   7.721  16.012  14.843
35273W        W 3667  18.597  30.742   2.333
35274W        W 3668  19.492  32.161  13.506
35275W        W 3669   5.429  27.015   4.985
35276W        W 3670   2.952  13.044  11.077
35277W        W 3671  41.927  20.143  11.597
35278W        W 3672  33.909  12.377   4.414
35279W        W 3673   4.356  20.581  13.438
35280W        W 3674  32.509  34.151   0.863
35281W        W 3675  17.674  24.747  11.020
35282W        W 3676  26.190  33.015  12.263
35283W        W 3677   2.778  34.917  13.471
35284W        W 3678  12.380  24.135  13.160
35285W        W 3679  29.910   4.211   4.244
35286W        W 3680  40.778  19.527  13.928
35287W        W 3681   7.352  31.152   2.454
35288W        W 3682  40.467  24.514   4.563
35289W        W 3683  38.459  42.055   3.209
35290W        W 3684  22.311  34.865   4.899
35291W        W 3685  10.034   6.729   3.125
35292W        W 3686  36.116  36.958   2.843
35293W        W 3687  32.637  29.879  13.959
35294W        W 3688  20.741  13.360  14.764
35295W        W 3689  30.854  38.292  14.337
35296W        W 3690   5.149  25.433   5.021
35297W        W 3691  24.378   4.738  11.062
35298W        W 3692  41.625   4.880  10.545
35299W        W 3693  36.318  13.136   1.022
35300W        W 3694  42.869  30.128   4.109
35301W        W 3695   0.637   5.483   1.936
35302W        W 3696   4.328  17.368   0.283
35303W        W 3697   2.233  11.845   3.420
35304W        W 3698  13.521   6.792  14.965
35305W        W 3699  32.505  26.442  14.476
35306W        W 3700   8.649   9.735   2.336
35307W        W 3701   9.076  43.310   0.673
35308W        W 3702  20.776  13.334   2.860
35309W        W 3703  36.558  14.538  13.182
35310W        W 3704   2.799  35.461  12.614
35311W        W 3705  37.864   3.766  13.424
35312W        W 3706  20.569   1.802  10.554
35313W        W 3707  23.814  34.306   2.180
35314W        W 3708  41.394  16.528  12.986
35315W        W 3709  29.922  29.173  14.078
35316W        W 3710  37.831   1.310   3.643
35317W        W 3711  43.354  18.832  12.766
35318W        W 3712  35.435  11.380  11.618
35319W        W 3713  39.600  33.038   4.186
35320W        W 3714  17.442  35.075  14.971
35321W        W 3715  20.196   7.954  11.195
35322W        W 3716  27.575  40.562   1.246
35323W        W 3717  28.374  21.730  12.077
35324W        W 3718  20.986  34.919  11.514
35325W        W 3719  44.614  37.100   0.288
35326W        W 3720  29.124   6.610  14.025
35327W        W 3721  11.874  14.074  14.301
35328W        W 3722  44.178   9.923  11.375
35329W        W 3723  16.321  40.209   2.314
35330W        W 3724  39.277  24.565  12.103
35331W        W 3725   5.856   9.353   2.206
35332W        W 3726  19.770  33.389  14.022
35333W        W 3727  39.942   8.033  13.081
35334W        W 3728  44.898  27.170   3.724
35335W        W 3729   5.080  16.809  13.429
35336W        W 3730  29.399  23.404   3.414
35337W        W 3731   8.951  25.684   3.208
35338W        W 3732  34.965  32.594   4.122
35339W        W 3733  15.328  17.718  10.303
35340W        W 3734  26.097  31.601   4.101
35341W        W 3735   2.133  33.526   4.903
35342W        W 3736  16.233  43.597  14.664
35343W        W 3737  13.863  29.363  14.981
35344W        W 3738  37.333  24.200   3.661
35345W        W 3739  37.453  23.056  14.023
35346W        W 3740   0.993   3.442  11.625
35347W        W 3741  43.541  36.202  11.692
35348W        W 3742  13.751  31.888   0.212
35349W        W 3743  21.667  44.733  10.120
35350W        W 3744  36.935  20.064  12.867
35351W        W 3745  16.609   7.593   2.664
35352W        W 3746  21.801  21.319  13.168
35353W        W 3747   5.921  29.987   4.993
35354W        W 3748  12.901  10.181   3.866
35355W        W 3749   3.546  36.006   1.314
35356W        W 3750  35.563  44.681  11.203
35357W        W 3751   9.747  37.805  10.733
35358W        W 3752  19.829  35.142   2.281
35359W        W 3753   2.219   4.484   3.824
35360W        W 3754   9.373  19.638   0.407
35361W        W 3755  42.727  13.120  13.038
35362W        W 3756  41.783  31.911   2.868
35363W        W 3757   8.252  26.685   0.460
35364W        W 3758   4.790  25.467   9.694
35365W        W 3759  21.128  20.732  13.930
35366W        W 3760   0.861  38.568   0.021
35367W        W 3761  37.085  43.521   2.349
35368W        W 3762  26.573  19.581   5.298
35369W        W 3763   5.526  40.977  13.899
35370W        W 3764   9.811  15.498   3.852
35371W        W 3765  34.604  33.898   3.329
35372W        W 3766  24.969   3.639  14.022
35373W        W 3767   9.090   3.080  11.558
35374W        W 3768  36.784  38.716   1.373
35375W        W 3769  11.241  19.017   2.669
35376W        W 3770  20.810  26.403   4.893
35377W        W 3771  12.041  10.020  12.031
35378W        W 3772   3.257  33.061   2.234
35379W        W 3773  36.445   9.071  10.682
35380W        W 3774  19.756  38.529   3.174
35381W        W 3775  28.072   4.577   1.710
35382W        W 3776  41.737  32.208  12.463
35383W        W 3777  38.375  25.960  12.020
35384W        W 3778  25.586   8.232   1.028
35385W        W 3779   5.614  31.493  14.846
35386W        W 3780  27.899   2.434   3.717
35387W        W 3781  18.830   7.099   1.042
35388W        W 3782  21.056   4.175   2.267
35389W        W 3783   4.390  33.385   0.734
35390W        W 3784   9.242  40.594  13.519
35391W        W 3785  29.650  34.416   3.328
35392W        W 3786   4.672  41.910  13.546
35393W        W 3787  34.514  13.082  11.999
35394W        W 3788  21.054  28.618   2.609
35395W        W 3789  29.605  40.670   4.269
35396W        W 3790  25.218  40.565  14.034
35397W        W 3791   8.348  39.616   0.527
35398W        W 3792  18.717  37.983  13.473
35399W        W 3793   2.798  20.257  11.654
35400W        W 3794   6.719   5.999  12.033
35401W        W 3795  38.516  42.100   4.779
35402W        W 3796   4.907  18.492   4.605
35403W        W 3797  39.307  42.549  12.062
35404W        W 3798  25.296  31.653  13.907
35405W        W 3799   3.913   0.895   0.020
35406W        W 3800  43.422   9.217   2.529
35407W        W 3801  10.337  18.661   2.288
35408W        W 3802  15.208  24.229  14.808
35409W        W 3803   9.680  27.677  13.930
35410W        W 3804   6.129   3.081   3.997
35411W        W 3805  14.337  21.041   4.071
35412W        W 3806  17.745  44.385   3.746
35413W        W 3807  33.976  37.902  12.670
35414W        W 3808  14.240  39.361   3.973
35415W        W 3809  32.156  37.591   3.317
35416W        W 3810  10.139   2.460   4.164
35417W        W 3811  21.212  26.945   2.084
35418W        W 3812  28.429  27.118   4.487
35419W        W 3813  10.723  34.560   2.162
35420W        W 3814  23.565   6.965   1.351
35421W        W 3815  31.511   4.299   1.705
35422W        W 3816   9.053  22.260   4.735
35423W        W 3817  29.980  21.064   2.362
35424W        W 3818   1.316  11.841  12.520
35425W        W 3819  28.026  39.362   0.435
35426W        W 3820  20.590  32.526   0.394
35427W        W 3821   7.753   8.248  12.588
35428W        W 3822  33.270  27.483  11.965
35429W        W 3823  40.531  18.557   2.663
35430W        W 3824   5.437  26.256  12.932
35431W        W 3825  24.881  44.945  10.660
35432W        W 3826  33.471  39.099  14.668
35433W        W 3827  30.576  36.961   2.101
35434W        W 3828  35.134  43.988   3.082
35435W        W 3829   9.708   4.635  11.942
35436W        W 3830  25.424  14.606  14.342
35437W        W 3831  21.986  43.790   3.267
35438W        W 3832   5.756  19.278  10.599
35439W        W 3833  35.049   5.750   2.984
35440W        W 3834  34.517  28.676   3.653
35441W        W 3835  22.297  44.946   1.188
35442W        W 3836  23.258  33.150   1.000
35443W        W 3837  36.489  19.468  11.238
35444W        W 3838  16.046  32.020  11.830
35445W        W 3839  17.546  25.975   2.171
35446W        W 3840  43.045  29.670  10.691
35447W        W 3841   3.859   4.664  10.656
35448W        W 3842   0.052  14.567  11.104
35449W        W 3843  16.702  35.867  10.502
35450W        W 3844  30.070  40.007  11.484
35451W        W 3845  39.131  18.762   2.860
35452W        W 3846  14.627  17.225  12.960
35453W        W 3847  16.788  14.194  12.510
35454W        W 3848  19.100  25.486   2.323
35455W        W 3849  26.253   2.415  14.336
35456W        W 3850  21.733  44.201  11.056
35457W        W 3851   9.368  10.259   2.405
35458W        W 3852  44.376  11.035  14.006
35459W        W 3853  28.468  14.735  10.722
35460W        W 3854  42.457  35.581   0.736
35461W        W 3855  25.459  17.043   3.255
35462W        W 3856   6.211  27.488  12.631
35463W        W 3857  27.374  20.289  13.305
35464W        W 3858  28.903   2.684  14.052
35465W        W 3859  25.786  15.400  11.939
35466W        W 3860  29.269  13.738   2.850
35467W        W 3861  43.592   2.269   3.164
35468W        W 3862  40.373  22.131  11.119
35469W        W 3863  37.046  44.436  14.828
35470W        W 3864  19.795  31.963  10.783
35471W        W 3865  39.505  16.667   0.733
35472W        W 3866   4.211  36.979   3.325
35473W        W 3867  44.273   3.634   2.849
35474W        W 3868  28.179  23.700  13.277
35475W        W 3869  13.598  21.649  11.666
35476W        W 3870   4.755  39.775   1.439
35477W        W 3871  11.118  23.103   4.289
35478W        W 3872  31.046   0.887   4.503
35479W        W 3873   5.226  37.592  13.063
35480W        W 3874   9.834  38.443   0.482
35481W        W 3875  20.117   1.892   2.411
35482W        W 3876  20.551   3.820  12.128
35483W        W 3877  25.899  37.388  11.159
35484W        W 3878   1.514  33.016  14.381
35485W        W 3879  29.054  16.883  11.636
35486W        W 3880   0.672   9.318   2.236
35487W        W 3881  19.016  17.862  14.807
35488W        W 3882  28.350  41.528  13.464
35489W        W 3883  40.068  35.994   1.867
35490W        W 3884  29.480  44.113  10.499
35491W        W 3885   0.445  22.918  10.703
35492W        W 3886  11.227   8.483  14.080
35493W        W 3887   2.024  26.844  11.517
35494W        W 3888   2.683  14.236  14.274
35495W        W 3889  10.172  19.094   3.288
35496W        W 3890  23.274  26.224   4.171
35497W        W 3891  36.506  43.988  11.166
35498W        W 3892  29.893   6.999   0.933
35499W        W 3893  39.770  29.009  12.162
35500W        W 3894  27.669   3.032   4.674
35501W        W 3895  24.029  38.849  14.817
35502W        W 3896  36.406   8.681   2.824
35503W        W 3897   1.646  12.868  14.871
35504W        W 3898  38.392  19.840  13.841
35505W        W 3899   3.381  43.723  12.424
35506W        W 3900  23.153  37.839  13.251
35507W        W 3901  12.260   9.676  12.387
35508W        W 3902  19.667  30.032  10.555
35509W        W 3903  33.030  21.234   5.048
35510W        W 3904  29.689   0.377   2.240
35511W        W 3905  26.973  20.593   2.171
35512W        W 3906  30.031   9.210   0.914
35513W        W 3907   2.242  13.536   4.541
35514W        W 3908  19.002   5.526   4.042
35515W        W 3909   4.365  26.520   0.980
35516W        W 3910   1.767  37.924   4.841
35517W        W 3911  41.959  35.425  12.642
35518W        W 3912  12.241  19.894  13.381
35519W        W 3913  22.112  14.260   3.644
35520W        W 3914  30.768  22.543  14.479
35521W        W 3915  39.859  33.285   3.376
35522W        W 3916  14.240  17.824  14.923
35523W        W 3917  36.955   2.921  11.008
35524W        W 3918  21.215   9.795  14.619
35525W        W 3919   4.997   2.921   0.907
35526W        W 3920   5.318  35.372   4.227
35527W        W 3921  39.052   7.865  14.045
35528W        W 3922   2.320   7.915   3.614
35529W        W 3923  40.442   9.818   4.855
35530W        W 3924  32.238  13.146   4.211
35531W        W 3925  33.114  27.752   1.382
35532W        W 3926  22.624   3.209   1.963
35533W        W 3927  12.300  44.956   1.883
35534W        W 3928   6.835  13.367  14.354
35535W        W 3929  25.497  44.042   3.157
35536W        W 3930  40.776  14.071  11.267
35537W        W 3931  28.184  18.126  14.670
35538W        W 3932  20.960  38.036   4.208
35539W        W 3933  26.061  14.701  12.145
35540W        W 3934  25.553   3.182  11.476
35541W        W 3935   2.944  42.318   4.518
35542W        W 3936  32.010   6.108  11.647
35543W        W 3937   3.173   0.569  11.613
35544W        W 3938  43.416   3.218   0.435
35545W        W 3939   6.726  40.013  12.361
35546W        W 3940  23.802  34.573  13.621
35547W        W 3941  19.739  43.469   0.417
35548W        W 3942  25.474   0.364   3.314
35549W        W 3943  25.540  28.172   1.392
35550W        W 3944  33.581  30.972  11.699
35551W        W 3945   6.117  29.365  11.175
35552W        W 3946  25.506  18.188   1.958
35553W        W 3947  39.813  14.326  11.960
35554W        W 3948  42.923   3.254   0.267
35555W        W 3949  29.302  32.576   2.935
35556W        W 3950  22.013   3.013  13.453
35557W        W 3951   5.994  22.784   3.637
35558W        W 3952  16.353  25.279  12.539
35559W        W 3953  40.345  33.310  11.975
35560W        W 3954  31.994   2.460   0.749
35561W        W 3955  28.432  39.299  12.012
35562W        W 3956  39.508   4.432  14.887
35563W        W 3957  31.624  31.130   1.448
35564W        W 3958  33.528  15.757   2.642
35565W        W 3959  11.359  42.345  14.386
35566W        W 3960   6.300   3.512   1.705
35567W        W 3961  26.671  38.319  11.656
35568W        W 3962  12.373   1.354  14.837
35569W        W 3963  13.917  13.814  13.922
35570W        W 3964   3.178  36.851  11.609
35571W        W 3965  22.593  29.356  13.360
35572W        W 3966  10.183  12.056   2.326
35573W        W 3967  42.821  20.219  11.206
35574W        W 3968  16.232  24.331  10.899
35575W        W 3969  24.443  37.533  14.106
35576W        W 3970   6.342  13.313   2.323
35577W        W 3971  39.225   9.128  12.048
35578W        W 3972  23.355  44.484   1.287
35579W        W 3973  31.150   4.696  13.489
35580W        W 3974  40.995  41.090  12.075
35581W        W 3975  34.480   9.356  10.818
35582W        W 3976  19.728  20.243   3.667
35583W        W 3977   3.276  22.007  14.859
35584W        W 3978   3.210  40.424   3.320
35585W        W 3979  43.906  22.105  13.405
35586W        W 3980   2.216  16.278   2.914
35587W        W 3981   2.717   2.418   0.828
35588W        W 3982  29.213  10.331  10.651
35589W        W 3983  23.563   5.950   3.374
35590W        W 3984  29.916  36.651  13.416
35591W        W 3985  26.400  12.532   2.510
35592W        W 3986  42.931  38.000  13.144
35593W        W 3987  42.428  34.585  10.235
35594W        W 3988  38.159  24.122  14.785
35595W        W 3989  33.152   8.192   0.413
35596W        W 3990   7.824  36.519   2.354
35597W        W 3991  24.811  38.091  10.754
35598W        W 3992  24.795  21.574   3.642
35599W        W 3993  44.014  35.911   1.892
35600W        W 3994  16.216  28.286   2.579
35601W        W 3995  24.141  14.339   1.853
35602W        W 3996  18.041  21.998   3.074
35603W        W 3997  33.847  41.529  13.353
35604W        W 3998   8.896  29.401  11.542
35605W        W 3999  27.575  41.786  11.531
35606W        W 4000  17.641  19.752   3.235
35607W        W 4001  40.342  30.660   3.804
35608W        W 4002  24.680  34.942  12.832
35609W        W 4003  32.409  21.473  13.365
35610W        W 4004  23.964  12.844  14.886
35611W        W 4005   9.800  39.258   3.680
35612W        W 4006  12.325  27.434   2.089
35613W        W 4007  31.050  10.266   2.708
35614W        W 4008  35.864  42.403  12.828
35615W        W 4009  32.484   8.252  13.414
35616W        W 4010  34.866  19.731   3.266
35617W        W 4011  42.443   9.850  11.118
35618W        W 4012  30.710   4.546  13.220
35619W        W 4013  18.174  19.719  13.854
35620W        W 4014  25.731  36.284   1.914
35621W        W 4015  29.141  25.126   4.804
35622W        W 4016  42.940  23.041   4.690
35623W        W 4017   3.268  40.117  14.714
35624W        W 4018   4.500   0.297   0.399
35625W        W 4019  13.630  37.474   3.566
35626W        W 4020  41.228  28.802  12.908
35627W        W 4021  32.404  13.245   0.916
35628W        W 4022  36.672  11.906  14.357
35629W        W 4023  23.373  29.268  12.957
35630W        W 4024  41.028  34.575   1.782
35631W        W 4025  22.485  33.453   1.432
35632W        W 4026  29.546   3.326  10.698
35633W        W 4027  11.248  19.600  13.386
35634W        W 4028  33.936  33.920   3.809
35635W        W 4029   8.815  11.551   1.868
35636W        W 4030  27.243  23.603  10.713
35637W        W 4031  22.361  40.946   0.843
35638W        W 4032   4.819  17.218  12.138
35639W        W 4033  15.131   5.537  10.262
35640W        W 4034  14.644  39.984  10.691
35641W        W 4035  12.813  37.868  11.961
35642W        W 4036   9.453  23.017  13.415
35643W        W 4037  29.016  22.994   3.594
35644W        W 4038   8.430  31.166   2.605
35645W        W 4039  43.237  27.993  13.105
35646W        W 4040  19.069  22.111   4.369
35647W        W 4041  38.657  19.601  13.431
35648W        W 4042   3.228  43.914  11.081
35649W        W 4043  19.198  15.077  10.706
35650W        W 4044  31.437  27.690   0.581
35651W        W 4045   4.209  34.368  14.239
35652W        W 4046  19.070  31.658  13.517
35653W        W 4047  13.544  36.439  13.079
35654W        W 4048  39.297  28.334  12.537
35655W        W 4049  40.270  18.298  13.415
35656W        W 4050  21.687   1.598  14.483
35657W        W 4051  34.647   9.421   1.884
35658W        W 4052  19.203  42.974  12.925
35659W        W 4053  23.836  38.420  12.404
35660W        W 4054   1.153  39.447  14.298
35661W        W 4055  25.417  41.251   0.279
35662W        W 4056  14.327  21.030   3.564
35663W        W 4057  32.893  18.945  12.165
35664W        W 4058  18.568  40.119   3.292
35665W        W 4059  12.076   9.181  12.403
35666W        W 4060  24.998  10.629  12.138
35667W        W 4061  41.524   4.145   3.267
35668W        W 4062  25.545  12.749  11.589
35669W        W 4063   0.340  16.672  13.078
35670W        W 4064   2.270   1.446  14.776
35671W        W 4065  44.957  12.360   3.001
35672W        W 4066   6.706   3.330  14.361
35673W        W 4067  36.848  41.001   0.326
35674W        W 4068  32.008  35.602  12.151
35675W        W 4069  21.690   6.131  13.472
35676W        W 4070   0.648   7.263   1.183
35677W        W 4071  32.963  28.997  11.672
35678W        W 4072  35.926  28.669  11.900
35679W        W 4073  24.969   5.197   3.638
35680W        W 4074  16.852  22.127  12.759
35681W        W 4075  25.491   3.249  13.743
35682W        W 4076   3.976   9.256   0.343
35683W        W 4077  41.159  25.637   3.255
35684W        W 4078   3.663   5.963  10.173
35685W        W 4079  30.540  28.484   1.519
35686W        W 4080   3.309  33.989  11.544
35687W        W 4081  43.543  39.976  11.452
35688W        W 4082   1.700  25.437  13.835
35689W        W 4083   3.851  22.858  11.382
35690W        W 4084  13.772  38.293   0.482
35691W        W 4085  13.605  31.644   3.397
35692W        W 4086  17.222   6.852   2.313
35693W        W 4087  42.995  40.572   0.684
35694W        W 4088  14.020  38.261  12.540
35695W        W 4089  28.225  40.731   0.278
35696W        W 4090  41.872  17.650  10.554
35697W        W 4091   4.510  14.902   5.043
35698W        W 4092  30.669  21.692  13.065
35699W        W 4093  37.313  40.374   1.246
35700W        W 4094  38.718  27.939   5.227
35701W        W 4095   3.306  37.171   4.626
35702W        W 4096  26.233  22.694  13.030
35703W        W 4097  18.586   4.251   0.811
35704W        W 4098  16.865   4.762   4.549
35705W        W 4099  17.600  41.496   3.121
35706W        W 4100   5.903  11.068   1.531
35707W        W 4101  43.698  10.716  11.375
35708W        W 4102  23.522  44.314   4.414
35709W        W 4103   7.769  36.819   1.373
35710W        W 4104   4.348  24.137   3.017
35711W        W 4105  38.890  36.395   3.801
35712W        W 4106  40.253  14.654   3.808
35713W        W 4107  39.451  28.143   1.363
35714W        W 4108  42.672  33.906   1.264
35715W        W 4109  21.002   6.362  12.574
35716W        W 4110  18.383  11.401   2.965
35717W        W 4111  44.892  39.749  13.519
35718W        W 4112  44.880  26.842   2.510
35719W        W 4113  43.034   2.483   5.155
35720W        W 4114   0.849  33.471   2.178
35721W        W 4115   1.752  20.845   0.342
35722W        W 4116  42.128   5.643  13.499
35723W        W 4117   3.309  23.589  11.166
35724W        W 4118   0.822  42.008   3.599
35725W        W 4119  19.185  27.663   1.722
35726W        W 4120   2.520  31.159   2.177
35727W        W 4121   6.823   5.557  11.245
35728W        W 4122  31.209  17.730  11.873
35729W        W 4123   1.426  12.744   2.088
35730W        W 4124  15.583  40.369   4.678
35731W        W 4125  17.655  35.178  13.482
35732W        W 4126  13.761  13.164   3.583
35733W        W 4127  23.960   1.976   4.885
35734W        W 4128  34.922  32.608   4.655
35735W        W 4129  22.158  34.092  13.942
35736W        W 4130  11.653  41.368   2.132
35737W        W 4131  29.227  17.118   5.075
35738W        W 4132  14.572  14.032   1.762
35739W        W 4133  19.077  28.469  14.419
35740W        W 4134  20.743   0.892   3.282
35741W        W 4135  10.545  43.424   2.857
35742W        W 4136  38.234  10.746   4.589
35743W        W 4137   8.622  22.302   3.740
35744W        W 4138  35.934  11.412   0.958
35745W        W 4139  17.614  25.522  13.815
35746W        W 4140   7.920   0.046  12.492
35747W        W 4141  18.683   8.526  10.267
35748W        W 4142  17.241  38.640  12.621
35749W        W 4143  29.627  20.609   1.274
35750W        W 4144  25.194  25.358   2.382
35751W        W 4145   6.715  43.988   0.167
35752W        W 4146  42.014  27.011   3.830
35753W        W 4147  36.422  37.091  11.603
35754W        W 4148  10.673  30.958   0.859
35755W        W 4149  25.079  33.543  14.810
35756W        W 4150  30.472  22.767  10.822
35757W        W 4151  16.746  13.951  14.974
35758W        W 4152   6.243  40.297  11.179
35759W        W 4153  26.288  34.613   4.571
35760W        W 4154   4.998  11.180   1.299
35761W        W 4155  44.071  24.640   3.115
35762W        W 4156  39.094  12.214   2.699
35763W        W 4157   8.991  44.901   2.777
35764W        W 4158  33.984  42.840   1.744
35765W        W 4159  38.366  18.506  12.067
35766W        W 4160  13.289  29.716   4.067
35767W        W 4161  32.672  43.332   2.651
35768W        W 4162  15.548  41.954   0.806
35769W        W 4163  23.251   1.625   1.690
35770W        W 4164   5.908   4.841  13.999
35771W        W 4165   3.712  15.006  11.677
35772W        W 4166  31.374  44.226   0.949
35773W        W 4167  15.735  10.524   4.606
35774W        W 4168  35.338  32.953  14.053
35775W        W 4169  22.317  28.455  10.115
35776W        W 4170  32.050  35.053  10.385
35777W        W 4171  27.190  21.313   4.300
35778W        W 4172  19.220  28.416   9.897
35779W        W 4173   2.869  18.528   0.372
35780W        W 4174  17.377  29.180   2.835
35781W        W 4175  12.182  17.540   3.796
35782W        W 4176  19.287  24.759  13.506
35783W        W 4177  30.251  41.847   3.757
35784W        W 4178  34.433  40.867   4.604
35785W        W 4179   6.449  44.448  12.959
35786W        W 4180   6.208  32.200   0.405
35787W        W 4181  44.529  12.235  11.981
35788W        W 4182  35.607  31.189  13.935
35789W        W 4183  23.120  27.243  10.611
35790W        W 4184   1.796   8.344   1.291
35791W        W 4185  32.549  10.596   3.956
35792W        W 4186   8.222  25.710  12.986
35793W        W 4187  30.007  32.472   2.005
35794W        W 4188  41.833  14.270   3.715
35795W        W 4189  13.197  14.876  11.186
35796W        W 4190  23.558  34.367  10.598
35797W        W 4191   1.216  16.387  11.232
35798W        W 4192  24.920  19.063   1.921
35799W        W 4193  36.439   8.333   1.278
35800W        W 4194  24.276  23.001   3.717
35801W        W 4195   1.425  36.415   1.301
35802W        W 4196  11.646  43.139  14.401
35803W        W 4197  31.182  30.043  14.854
35804W        W 4198   5.976  44.756   2.295
35805W        W 4199   6.201  18.076   4.120
35806W        W 4200   0.754  40.628   3.044
35807W        W 4201  27.452   1.268   2.080
35808W        W 4202  17.843  36.533  14.889
35809W        W 4203  25.598  27.607  10.890
35810W        W 4204  12.421  36.879   1.477
35811W        W 4205  23.846  31.946  13.521
35812W        W 4206  25.426  36.761  13.894
35813W        W 4207   3.404  35.210   4.674
35814W        W 4208  31.884  22.125   3.821
35815W        W 4209  38.794  22.345  12.571
35816W        W 4210  41.094  12.195   4.495
35817W        W 4211  14.783  10.722  13.349
35818W        W 4212  21.087  26.511  11.168
35819W        W 4213   2.441  28.903  11.191
35820W        W 4214  21.200  44.493  10.829
35821W        W 4215  24.165  26.580   0.374
35822W        W 4216  29.904  32.371  12.365
35823W        W 4217   7.127   9.639  14.321
35824W        W 4218  29.187   6.432  13.539
35825W        W 4219  31.431  41.804  11.426
35826W        W 4220  14.834   9.366   2.203
35827W        W 4221  38.315  12.115   3.412
35828W        W 4222  30.678  23.802   2.197
35829W        W 4223  22.009  39.850  14.432
35830W        W 4224  37.386  17.575  13.404
35831W        W 4225  29.592  14.120   4.655
35832W        W 4226   6.223   9.709   4.570
35833W        W 4227  37.620  16.734   4.081
35834W        W 4228   0.850  43.614   0.430
35835W        W 4229  30.012  36.343  11.166
35836W        W 4230  20.830  11.292  11.688
35837W        W 4231  26.863   8.763   5.079
35838W        W 4232  11.937  34.363  10.364
35839W        W 4233  42.489  26.296   1.731
35840W        W 4234  36.342  22.457  10.709
35841W        W 4235  36.313  34.435  14.406
35842W        W 4236  35.709  21.932   1.914
35843W        W 4237  42.766  11.383  13.853
35844W        W 4238  12.137  28.480   0.558
35845W        W 4239  20.974  28.279  14.878
35846W        W 4240   4.346  42.191  12.167
35847W        W 4241  11.807  26.525   4.564
35848W        W 4242   9.110  37.591  13.987
35849W        W 4243  40.251  12.276  11.059
35850W        W 4244  41.287  29.543  12.498
35851W        W 4245  22.590  35.986  11.142
35852W        W 4246   2.341   9.842   0.701
35853W        W 4247  41.476  40.647  14.240
35854W        W 4248   4.244  37.083  13.975
35855W        W 4249  16.186  14.500  14.075
35856W        W 4250  23.184  31.279   1.285
35857W        W 4251   8.378  29.490  10.968
35858W        W 4252  38.947  29.124  12.475
35859W        W 4253  16.584  30.061  14.511
35860W        W 4254  25.917  28.471  11.187
35861W        W 4255   5.337  24.122   4.001
35862W        W 4256  42.479   8.481  13.836
35863W        W 4257  39.499  32.922   3.306
35864W        W 4258  41.057  41.437   4.660
35865W        W 4259  18.322  40.125  11.921
35866W        W 4260  25.429  13.696  14.333
35867W        W 4261  44.528  18.181   4.975
35868W        W 4262  40.464   6.088   0.583
35869W        W 4263   1.061  40.034  14.965
35870W        W 4264  35.787  28.461  11.442
35871W        W 4265   9.865   4.858  12.379
35872W        W 4266  22.206  18.190  14.217
35873W        W 4267  11.281  30.536  12.034
35874W        W 4268  37.903  25.218  13.899
35875W        W 4269  23.104  23.403   4.557
35876W        W 4270  19.620  28.357  11.209
35877W        W 4271  29.215  29.111   1.277
35878W        W 4272  14.216  31.655  14.053
35879W        W 4273  19.082   2.356   1.670
35880W        W 4274   1.955  32.588   4.720
35881W        W 4275  25.172  12.957   1.192
35882W        W 4276   3.475  30.027   1.236
35883W        W 4277  37.238  22.031   1.222
35884W        W 4278   8.475  12.661   3.690
35885W        W 4279  14.125  33.357   3.522
35886W        W 4280  41.048   3.748  14.509
35887W        W 4281  15.624  26.129  14.586
35888W        W 4282  35.986   9.041  11.546
35889W        W 4283  13.840  11.281  14.483
35890W        W 4284  38.991  27.507  13.332
35891W        W 4285  32.478   6.372  12.585
35892W        W 4286  37.338  42.300   3.607
35893W        W 4287  17.346  26.461  14.055
35894W        W 4288  36.339  26.721   2.850
35895W        W 4289  17.180  27.567   1.709
35896W        W 4290  21.282  22.521   0.296
35897W        W 4291  14.195   2.653   4.253
35898W        W 4292  35.036   9.842   1.255
35899W        W 4293   5.892  16.690   0.329
35900W        W 4294  31.455  26.109  12.388
35901W        W 4295  13.273  42.632   1.696
35902W        W 4296   3.499  15.636   0.433
35903W        W 4297  17.471   6.947   2.800
35904W        W 4298   3.784   7.361   3.480
35905W        W 4299  34.270  25.303   2.030
35906W        W 4300  12.752  39.026   2.658
35907W        W 4301  17.484  23.430  12.916
35908W        W 4302  10.124  33.041  13.586
35909W        W 4303  20.708  21.945   4.283
35910W        W 4304  13.106   5.132   1.222
35911W        W 4305   0.347  32.698  14.039
35912W        W 4306  36.454  26.682  13.971
35913W        W 4307  44.242  17.712   4.913
35914W        W 4308  21.234   8.685   1.460
35915W        W 4309   5.406  27.469  14.998
35916W        W 4310  10.297  28.440   3.282
35917W        W 4311  27.092  34.218  14.069
35918W        W 4312  41.523   6.396   0.769
35919W        W 4313  34.063  26.107  12.870
35920W        W 4314   9.663   4.744  11.445
35921W        W 4315  33.558   7.355   2.043
35922W        W 4316  25.529   6.377  13.075
35923W        W 4317  19.374  21.697   4.528
35924W        W 4318  39.426  16.120  11.890
35925W        W 4319  42.912  35.078  13.456
35926W        W 4320  28.935  26.738   3.218
35927W        W 4321  26.693  21.321  12.888
35928W        W 4322  42.935  24.487  12.938
35929W        W 4323   8.200   6.015  13.981
35930W        W 4324  27.197   1.339   3.333
35931W        W 4325   9.276  16.214   2.811
35932W        W 4326  41.095  44.403   1.535
35933W        W 4327   5.336  35.425  12.844
35934W        W 4328  26.970  31.386   0.458
35935W        W 4329   3.526  43.452   3.240
35936W        W 4330  12.743  44.061  14.290
35937W        W 4331  12.645  15.407   4.412
35938W        W 4332  37.480  23.247   2.430
35939W        W 4333  13.722  27.526  14.524
35940W        W 4334  44.348  21.051   5.106
35941W        W 4335  32.471  32.852  12.244
35942W        W 4336   5.109  37.649  11.201
35943W        W 4337  12.892   1.991  11.700
35944W        W 4338  10.891  33.286   2.946
35945W        W 4339   5.672  21.023   2.238
35946W        W 4340  17.569  36.495   4.070
35947W        W 4341   0.773  14.114   0.932
35948W        W 4342  21.039  39.474   0.419
35949W        W 4343  15.260   3.972  10.142
35950W        W 4344  22.978  42.420  12.898
35951W        W 4345   9.564  18.147  12.862
35952W        W 4346  19.084  40.522   0.727
35953W        W 4347   8.635  43.250  10.705
35954W        W 4348  17.701  23.511   2.203
35955W        W 4349  41.829  41.942   4.568
35956W        W 4350  36.969  15.307   3.112
35957W        W 4351   0.847  31.575  12.803
35958W        W 4352   4.212  12.854  12.591
35959W        W 4353  30.669  17.720  13.928
35960W        W 4354   2.452  18.320  12.102
35961W        W 4355   5.865  40.264  13.483
35962W        W 4356  44.517  10.222  11.598
35963W        W 4357  43.010   4.099   3.736
35964W        W 4358   5.720  13.816   0.096
35965W        W 4359  31.936   9.995  10.174
35966W        W 4360   0.955   6.681  12.369
35967W        W 4361  15.667  27.448  13.418
35968W        W 4362  28.124  22.727  13.016
35969W        W 4363  24.911  31.534   1.249
35970W        W 4364  40.510  21.047   3.921
35971W        W 4365  19.276   0.543  12.089
35972W        W 4366  13.938  25.609  12.767
35973W        W 4367  29.146   1.960  14.471
35974W        W 4368  27.097   9.012   1.317
35975W        W 4369  17.520   2.625   3.578
35976W        W 4370  21.797   2.899   0.778
35977W        W 4371   8.151  22.095   0.855
35978W        W 4372  18.523  39.629   2.271
35979W        W 4373  34.970  36.514   2.613
35980W        W 4374  34.477  35.149   0.804
35981W        W 4375   3.346   0.214   4.047
35982W        W 4376  33.512  34.087  10.508
35983W        W 4377  22.617   3.215  12.394
35984W        W 4378  33.805   3.148   4.998
35985W        W 4379  18.541   1.370  12.838
35986W        W 4380  12.549  11.609   3.099
35987W        W 4381   2.164  22.107   2.753
35988W        W 4382  34.490   8.487   3.575
35989W        W 4383  16.881   8.262  13.763
35990W        W 4384   7.250  35.104  14.366
35991W        W 4385   1.244  10.821  14.950
35992W        W 4386  28.168  25.488   3.705
35993W        W 4387  10.828   8.621  13.776
35994W        W 4388  27.529  36.354  14.384
35995W        W 4389   8.514  23.617   2.596
35996W        W 4390  34.589  44.311   1.977
35997W        W 4391   8.631  11.493  13.460
35998W        W 4392  24.119  11.175   3.265
35999W        W 4393  43.092  42.616  13.962
36000W        W 4394  17.712   7.799  13.814
36001W        W 4395  13.685  19.919   1.095
36002W        W 4396   7.789  28.959  12.943
36003W        W 4397  12.169  43.319   1.901
36004W        W 4398   6.934  16.655   0.564
36005W        W 4399  37.658  44.205  11.063
36006W        W 4400  18.727  15.273   4.989
36007W        W 4401  18.460  18.181   3.622
36008W        W 4402  24.416   0.389   1.398
36009W        W 4403  14.095   3.221  11.717
36010W        W 4404  10.664  29.655  10.730
36011W        W 4405  10.405   2.728  11.142
36012W        W 4406  16.101   0.276  12.553
36013W        W 4407  41.852   4.799  13.863
36014W        W 4408  16.895   8.720  11.498
36015W        W 4409  27.582   9.427   0.755
36016W        W 4410   9.880   6.816  10.806
36017W        W 4411  33.784  38.854  12.766
36018W        W 4412  44.613  41.800  13.089
36019W        W 4413   0.251   1.350  11.904
36020W        W 4414  13.631  12.657   4.297
36021W        W 4415  18.612  21.411   2.889
36022W        W 4416  29.767   7.773  12.365
36023W        W 4417   4.769  16.783   4.142
36024W        W 4418  26.782  13.056  10.735
36025W        W 4419  41.460  22.807  14.772
36026W        W 4420   2.718   4.247   0.647
36027W        W 4421  20.794  40.321  14.584
36028W        W 4422  35.976  43.518   0.371
36029W        W 4423  40.439  44.907  13.978
36030W        W 4424   8.619   1.867   2.271
36031W        W 4425  12.541  38.970   1.643
36032W        W 4426  38.738  13.133  11.006
36033W        W 4427  18.144  40.701  11.563
36034W        W 4428   5.477  42.075  13.054
36035W        W 4429   1.775  39.872  13.093
36036W        W 4430  15.699  23.059   1.813
36037W        W 4431  37.563  33.288   9.825
36038W        W 4432   6.410   8.724   4.619
36039W        W 4433  21.201  18.738   0.937
36040W        W 4434  29.086   5.607   3.212
36041W        W 4435  35.764  13.311   4.080
36042W        W 4436  42.892  19.495  14.865
36043W        W 4437  24.019  24.202  14.905
36044W        W 4438  44.064  10.962   0.827
36045W        W 4439  21.162  25.983   2.162
36046W        W 4440  38.313  18.704   3.302
36047W        W 4441   5.610  36.023   1.422
36048W        W 4442  30.628  22.192  11.639
36049W        W 4443   7.647   0.290  14.575
36050W        W 4444  14.546  11.111  13.091
36051W        W 4445  17.225  18.792   0.359
36052W        W 4446  37.190  41.565  14.580
36053W        W 4447  18.183  19.370   1.642
36054W        W 4448  33.528  35.636  10.047
36055W        W 4449  18.352  24.116   1.693
36056W        W 4450  34.944  44.609  13.295
36057W        W 4451  11.322  22.574   3.173
36058W        W 4452  28.268  17.499   3.124
36059W        W 4453  22.358  14.876  14.913
36060W        W 4454  38.919  21.956  14.297
36061W        W 4455  16.204  13.157  14.286
36062W        W 4456  43.076  24.087   1.871
36063W        W 4457  42.107  39.470   2.864
36064W        W 4458  20.993  35.137   1.597
36065W        W 4459  30.129  26.157   1.253
36066W        W 4460   9.080  22.490   0.360
36067W        W 4461  39.613   6.274   3.341
36068W        W 4462  15.096  14.279  11.104
36069W        W 4463  24.191  33.335   4.548
36070W        W 4464  43.960   7.729   0.781
36071W        W 4465   1.099   6.216  14.715
36072W        W 4466  11.861   4.329   2.206
36073W        W 4467  34.921   6.818  14.553
36074W        W 4468  10.246  14.332  12.104
36075W        W 4469   3.390   6.867  12.452
36076W        W 4470  33.823  23.564   1.764
36077W        W 4471  13.195  36.116   2.850
36078W        W 4472  24.616  34.606  14.106
36079W        W 4473   5.023  22.171  10.158
36080W        W 4474  42.640  20.148  10.606
36081W        W 4475   0.274  18.622   1.885
36082W        W 4476  34.645  35.898   0.290
36083W        W 4477  43.829  15.990   0.366
36084W        W 4478  13.217   1.556  14.295
36085W        W 4479  15.587  24.609   0.935
36086W        W 4480  13.904  37.252   3.145
36087W        W 4481  25.740  32.598   0.982
36088W        W 4482  22.224  40.411  13.448
36089W        W 4483   5.176  18.191  12.168
36090W        W 4484  23.687  38.850   2.677
36091W        W 4485  32.117   1.076  14.879
36092W        W 4486  32.464   5.861  12.735
36093W        W 4487  30.015  26.549  14.381
36094W        W 4488  27.406  11.734  11.919
36095W        W 4489   1.447  14.204   0.277
36096W        W 4490  28.040  35.904   2.355
36097W        W 4491  31.589  33.219  13.374
36098W        W 4492  34.010  27.256   1.893
36099W        W 4493  13.250  16.176   1.768
36100W        W 4494  29.375  23.866   5.071
36101W        W 4495  34.058  37.741  11.143
36102W        W 4496  41.516  33.807  11.046
36103W        W 4497  33.360  14.232   4.283
36104W        W 4498  36.518  17.826   1.322
36105W        W 4499  42.386  11.135  12.518
36106W        W 4500  38.810  32.973  12.403
36107W        W 4501   0.094  34.890   4.511
36108W        W 4502  18.416  36.847  11.904
36109W        W 4503   4.447  40.977  10.654
36110W        W 4504   3.403   2.535   3.063
36111W        W 4505  23.431   3.273  13.786
36112W        W 4506   8.151  29.026  12.096
36113W        W 4507  20.966   0.111  14.123
36114W        W 4508  38.910  27.102   3.122
36115W        W 4509  42.920  41.670  11.609
36116W        W 4510   2.544  30.625   4.609
36117W        W 4511  40.520  31.536  11.012
36118W        W 4512  38.828  42.600  13.810
36119W        W 4513  20.222  11.334   2.370
36120W        W 4514  14.419  42.393  14.433
36121W        W 4515   9.192  37.506  10.598
36122W        W 4516  23.823  16.692  12.988
36123W        W 4517  28.574  29.629   1.681
36124W        W 4518  21.624  36.517  13.246
36125W        W 4519  27.694  12.847   4.287
36126W        W 4520  37.666  10.441   2.208
36127W        W 4521  36.997  29.978  13.325
36128W        W 4522  22.592   7.337  13.549
36129W        W 4523  43.397  35.445   0.935
36130W        W 4524  10.846  12.377   0.680
36131W        W 4525   7.721  38.859   4.226
36132W        W 4526   8.161   1.826  13.002
36133W        W 4527  11.273   1.071  14.996
36134W        W 4528  29.209  13.291  14.358
36135W        W 4529  41.452  17.732  13.094
36136W        W 4530  12.973   2.686   0.555
36137W        W 4531  25.635   4.843  12.905
36138W        W 4532  36.944  43.672  12.595
36139W        W 4533  16.318  21.086   3.273
36140W        W 4534   8.364  36.251  11.812
36141W        W 4535  43.371  10.491  11.711
36142W        W 4536  21.719  25.439   4.525
36143W        W 4537  42.932  23.982  12.917
36144W        W 4538  38.937  25.263  14.688
36145W        W 4539  11.460  28.496  14.461
36146W        W 4540  14.236   5.486  12.013
36147W        W 4541  31.198  26.896   2.352
36148W        W 4542  40.960  42.963   4.905
36149W        W 4543  34.844  31.829  13.863
36150W        W 4544  13.567  28.622   0.975
36151W        W 4545  21.705   9.955  12.448
36152W        W 4546  27.567  29.315   1.782
36153W        W 4547  24.128   5.867  10.724
36154W        W 4548  23.613  35.075   3.385
36155W        W 4549  11.661   8.725   4.121
36156W        W 4550   5.453  14.189   2.707
36157W        W 4551  28.820  41.542  11.126
36158W        W 4552  10.580  43.443  14.403
36159W        W 4553  11.289  31.335   0.319
36160W        W 4554  38.362  16.205   2.650
36161W        W 4555  40.017  39.832   4.591
36162W        W 4556  37.087  43.317  14.862
36163W        W 4557  37.556  44.539   4.254
36164W        W 4558  38.149  19.699  13.343
36165W        W 4559  37.305  24.651  13.044
36166W        W 4560  19.506  30.497   2.134
36167W        W 4561  14.263   7.436  14.739
36168W        W 4562  42.826  19.113  13.924
36169W        W 4563  31.991  34.624   3.222
36170W        W 4564  38.319  31.606  12.549
36171W        W 4565  42.971  35.943   4.579
36172W        W 4566  13.795  13.353  11.423
36173W        W 4567  32.520  27.096   0.415
36174W        W 4568  34.977  24.684  11.640
36175W        W 4569  37.021  36.911  14.503
36176W        W 4570  35.526  24.285   4.901
36177W        W 4571  16.858  26.118   4.536
36178W        W 4572   7.330  22.119   4.541
36179W        W 4573  20.100  27.048  13.596
36180W        W 4574  14.619   6.246  10.861
36181W        W 4575  41.747  20.760  13.455
36182W        W 4576  17.669  26.464   1.435
36183W        W 4577   7.597  16.543  11.690
36184W        W 4578  15.185  26.791  11.498
36185W        W 4579  17.028   1.296   0.300
36186W        W 4580   0.347   8.317   3.086
36187W        W 4581  14.634   9.320   1.167
36188W        W 4582   9.867  11.702   4.572
36189W        W 4583  16.223  43.673  12.629
36190W        W 4584   1.797   9.104  12.861
36191W        W 4585  22.019   7.329   1.910
36192W        W 4586  41.308  15.699   2.261
36193W        W 4587  33.560  35.461  14.477
36194W        W 4588   7.263  44.969  14.435
36195W        W 4589   9.124  11.214   2.188
36196W        W 4590  10.883  13.406   3.537
36197W        W 4591  27.085  37.584   0.653
36198W        W 4592  28.948  37.001  13.018
36199W        W 4593  15.563  13.735  13.472
36200W        W 4594  17.138  13.822  12.887
36201W        W 4595   3.655  18.863   0.925
36202W        W 4596  31.482  23.479  14.049
36203W        W 4597  36.846  33.000   3.229
36204W        W 4598  28.251  42.081  10.364
36205W        W 4599  42.096  34.067  14.526
36206W        W 4600  29.077   1.217   0.039
36207W        W 4601  12.950   0.333  12.878
36208W        W 4602   9.714  35.072   3.848
36209W        W 4603  38.764  40.039  13.939
36210W        W 4604  18.046   9.683   4.280
36211W        W 4605  35.873  21.823   1.426
36212W        W 4606  34.338   0.432   1.156
36213W        W 4607  11.960   7.818  11.092
36214W        W 4608  37.109  39.151   4.075
36215W        W 4609  36.799   6.307   0.331
36216W        W 4610  28.089   3.743   0.813
36217W        W 4611  22.828  21.243  14.230
36218W        W 4612   7.394  33.912   2.536
36219W        W 4613  27.892  30.732  12.215
36220W        W 4614   3.807  16.259   4.361
36221W        W 4615   8.736  26.560   3.659
36222W        W 4616  41.801  38.026  12.784
36223W        W 4617  21.827   0.416  13.872
36224W        W 4618   3.279  31.865   4.601
36225W        W 4619  28.282   0.178   9.903
36226W        W 4620  17.189  22.944  13.263
36227W        W 4621  38.927  20.487  10.634
36228W        W 4622  19.295   4.888   3.462
36229W        W 4623   0.109  27.455   1.282
36230W        W 4624  12.777  19.831   1.427
36231W        W 4625  43.419  41.116   2.801
36232W        W 4626  16.275  21.271  10.585
36233W        W 4627   6.742  15.652  10.602
36234W        W 4628   5.897  39.740  13.511
36235W        W 4629  40.941   8.842   3.219
36236W        W 4630  16.553  11.847  11.944
36237W        W 4631  27.551   2.126   4.928
36238W        W 4632  41.093  23.670  13.283
36239W        W 4633  28.132  37.522  12.078
36240W        W 4634  41.911  15.983  13.455
36241W        W 4635   0.759  20.086   4.654
36242W        W 4636   4.888  18.284   3.283
36243W        W 4637  28.000   9.630  11.194
36244W        W 4638   7.653  14.741  11.854
36245W        W 4639  26.607   9.822  12.603
36246W        W 4640   3.378  23.449  12.522
36247W        W 4641  38.835  39.127   1.122
36248W        W 4642   7.859  42.252   4.251
36249W        W 4643  28.910  21.671   2.428
36250W        W 4644   0.811  20.911  12.817
36251W        W 4645  10.626  28.720   1.678
36252W        W 4646  29.068  21.182  10.596
36253W        W 4647   0.116  37.197   0.420
36254W        W 4648  29.077  39.116  11.169
36255W        W 4649  24.612  44.558   4.166
36256W        W 4650  36.419  30.604   2.617
36257W        W 4651  31.825  10.341   3.717
36258W        W 4652  19.359  44.238  13.958
36259W        W 4653  14.392  26.270  11.978
36260W        W 4654  27.553  24.129   3.098
36261W        W 4655  28.569  26.933   0.856
36262W        W 4656   4.968  27.778  14.238
36263W        W 4657  20.149  28.185  14.415
36264W        W 4658  30.401   5.983  14.486
36265W        W 4659   7.642   9.693  14.239
36266W        W 4660  38.283  10.310   1.068
36267W        W 4661   3.943  14.758  12.119
36268W        W 4662  12.863  11.776  12.125
36269W        W 4663  15.161  28.555   0.911
36270W        W 4664  36.932  16.737  14.273
36271W        W 4665  19.231  17.687   1.838
36272W        W 4666  35.504   0.776  12.874
36273W        W 4667  25.138  26.769   1.275
36274W        W 4668  35.597  16.808  10.693
36275W        W 4669  20.031  35.085   3.198
36276W        W 4670   6.651  43.196   3.837
36277W        W 4671  29.905  24.620  11.495
36278W        W 4672   8.287  14.691   4.178
36279W        W 4673  19.582  20.688  10.024
36280W        W 4674  23.580  13.062  14.216
36281W        W 4675  33.414  41.233  13.371
36282W        W 4676  39.485  25.802   0.711
36283W        W 4677  21.783  27.922  12.766
36284W        W 4678  13.659  15.719   9.906
36285W        W 4679  18.134   7.426   3.590
36286W        W 4680  26.015  41.792   1.305
36287W        W 4681   2.923  33.480   0.486
36288W        W 4682  17.369  37.390   1.100
36289W        W 4683  17.543   2.930  14.490
36290W        W 4684   8.194  28.969   3.953
36291W        W 4685  15.132  13.854   4.453
36292W        W 4686   1.881  33.486   2.063
36293W        W 4687  15.552  24.170   1.275
36294W        W 4688   8.778  19.287  14.635
36295W        W 4689  33.550   1.586   4.947
36296W        W 4690  36.565  41.420  11.408
36297W        W 4691  13.185   8.130   2.797
36298W        W 4692  13.605  43.704  12.278
36299W        W 4693  41.836  29.537   4.943
36300W        W 4694  33.911  40.240  10.719
36301W        W 4695  15.754  29.128   0.431
36302W        W 4696  25.417  22.543   2.272
36303W        W 4697  16.742  28.125   4.832
36304W        W 4698  17.872   8.867  11.201
36305W        W 4699  34.379  27.601  13.840
36306W        W 4700  39.256  18.192   1.236
36307W        W 4701   4.664  42.829  12.116
36308W        W 4702  26.970  14.598   3.816
36309W        W 4703  22.617  38.016  10.789
36310W        W 4704  16.500  29.109   4.073
36311W        W 4705  16.540  38.634  12.089
36312W        W 4706  40.542  32.710  13.095
36313W        W 4707  38.127  44.243  12.043
36314W        W 4708   0.409  39.477  14.918
36315W        W 4709  38.412  26.639  10.416
36316W        W 4710  30.212  32.684   3.198
36317W        W 4711   7.495   9.593   2.834
36318W        W 4712   0.218  24.267   1.129
36319W        W 4713  36.633  29.777  12.018
36320W        W 4714  20.855  16.453  10.304
36321W        W 4715  28.400  21.002   4.569
36322W        W 4716  13.328   5.513  11.974
36323W        W 4717  12.360  16.346  14.004
36324W        W 4718  31.916   8.375   1.300
36325W        W 4719  42.972  41.779   4.133
36326W        W 4720  31.541  17.818  12.686
36327W        W 4721  17.146  19.032  13.943
36328W        W 4722  29.697  27.373  11.594
36329W        W 4723   0.344   7.030  11.638
36330W        W 4724  30.428  42.983  14.372
36331W        W 4725  12.816  22.053  14.439
36332W        W 4726  33.011  13.991   2.323
36333W        W 4727  29.611  23.723   3.762
36334W        W 4728  34.631  20.624  12.126
36335W        W 4729  35.570  23.884  12.573
36336W        W 4730   2.233   9.905   3.086
36337W        W 4731   4.173  40.225   2.329
36338W        W 4732  14.847  44.525   2.323
36339W        W 4733  38.799   1.888   4.401
36340W        W 4734  40.800  24.593  12.938
36341W        W 4735  30.713  14.329  13.849
36342W        W 4736  18.790  40.394  12.597
36343W        W 4737  27.268  20.300   0.085
36344W        W 4738  24.128  44.932  10.251
36345W        W 4739  13.174  32.534   4.474
36346W        W 4740  23.516  40.325  13.555
36347W        W 4741  39.371  17.084   2.432
36348W        W 4742  12.952   4.438   4.978
36349W        W 4743  13.904  10.271   0.414
36350W        W 4744  14.625  26.646   1.871
36351W        W 4745  34.404  38.571   2.516
36352W        W 4746   8.219  26.583  10.999
36353W        W 4747  24.237  38.036   4.192
36354W        W 4748  18.101  33.104  11.885
36355W        W 4749   0.048  10.730  12.947
36356W        W 4750  36.520   4.486  13.085
36357W        W 4751   5.263  28.440  12.323
36358W        W 4752  44.056   0.459   4.179
36359W        W 4753  10.308  30.740  14.835
36360W        W 4754  24.977  10.168   2.376
36361W        W 4755   7.544   4.320   3.267
36362W        W 4756  40.041  41.814  12.024
36363W        W 4757  34.648   4.526  13.405
36364W        W 4758  14.964  11.685   1.748
36365W        W 4759  25.359   0.749   2.697
36366W        W 4760  37.091  41.342  11.999
36367W        W 4761  15.600  10.194   0.802
36368W        W 4762   6.015  21.543  12.072
36369W        W 4763   8.674  18.303  12.675
36370W        W 4764  43.035  11.318   4.329
36371W        W 4765  29.082  36.305   2.052
36372W        W 4766  40.370   7.911  13.388
36373W        W 4767  42.113   6.222   2.193
36374W        W 4768  29.852  25.570   1.466
36375W        W 4769  38.434  28.437  13.917
36376W        W 4770   9.896   5.884   4.526
36377W        W 4771  35.082  20.122  11.574
36378W        W 4772  34.392  42.387  13.597
36379W        W 4773  31.846  44.698   1.775
36380W        W 4774   9.229  11.633   4.274
36381W        W 4775  34.999  12.090   0.348
36382W        W 4776   2.558  44.983  13.634
36383W        W 4777   2.092  20.612   1.153
36384W        W 4778  27.440  10.716   0.084
36385W        W 4779   0.289  16.773   2.273
36386W        W 4780  27.728  11.086   1.470
36387W        W 4781   8.161  34.084  13.000
36388W        W 4782  28.517  13.769  12.165
36389W        W 4783  28.017  10.075  12.593
36390W        W 4784  26.015  17.390  12.401
36391W        W 4785  39.440  13.342   4.011
36392W        W 4786  18.104   4.883   4.142
36393W        W 4787  44.241  24.237  12.813
36394W        W 4788  44.409  29.077  10.274
36395W        W 4789  41.344  10.791  14.071
36396W        W 4790  33.291  40.334   1.134
36397W        W 4791   3.211  28.528  13.458
36398W        W 4792  43.011  33.922   2.509
36399W        W 4793  36.182  13.451  11.582
36400W        W 4794  26.693  36.132  14.372
36401W        W 4795  32.453  15.332  10.758
36402W        W 4796   5.267   8.114   4.901
36403W        W 4797  39.120   1.312  13.334
36404W        W 4798   8.795   3.279   1.922
36405W        W 4799  20.026  11.861  14.799
36406W        W 4800   5.456  29.364   3.540
36407W        W 4801   2.577   3.153   5.031
36408W        W 4802   2.546  32.642   1.617
36409W        W 4803   4.787  21.661   3.167
36410W        W 4804   6.730  24.755   2.722
36411W        W 4805  14.768  17.816   0.059
36412W        W 4806  43.268  40.702  11.214
36413W        W 4807  12.752  34.453  13.462
36414W        W 4808   4.918  24.197   0.670
36415W        W 4809   1.993  23.089  12.501
36416W        W 4810   2.223  21.224   4.935
36417W        W 4811  40.425  12.280   0.088
36418W        W 4812  41.131   8.988   3.691
36419W        W 4813  33.162  31.902  11.614
36420W        W 4814  10.835   1.341   0.878
36421W        W 4815  12.347  27.662   3.678
36422W        W 4816   9.659   4.394   2.375
36423W        W 4817  23.490  41.007   4.015
36424W        W 4818  44.596  23.730   4.561
36425W        W 4819  27.708  27.585   2.821
36426W        W 4820  43.599  14.692  10.890
36427W        W 4821  21.113  13.127   3.183
36428W        W 4822  37.097  35.989  12.439
36429W        W 4823   7.107  33.456  12.478
36430W        W 4824   7.075  13.117   1.599
36431W        W 4825  26.983  30.453  12.789
36432W        W 4826  40.312   3.253   3.165
36433W        W 4827  14.853  16.122   0.764
36434W        W 4828   1.901  15.113   5.137
36435W        W 4829   3.012  37.228  12.389
36436W        W 4830  18.493  21.995   1.265
36437W        W 4831  23.212  10.915   3.737
36438W        W 4832  13.724  16.376  13.948
36439W        W 4833  13.726  21.022   2.975
36440W        W 4834   5.229  21.047   0.903
36441W        W 4835  13.797  27.872   1.657
36442W        W 4836  20.719   5.693  10.729
36443W        W 4837  20.085  41.174   1.424
36444W        W 4838  35.912  15.240  13.399
36445W        W 4839  12.809  37.973   0.490
36446W        W 4840  40.865  39.483  14.211
36447W        W 4841   3.455  25.537   4.213
36448W        W 4842  18.183  40.780   3.760
36449W        W 4843   8.823  10.601  10.733
36450W        W 4844  27.239  29.964  10.432
36451W        W 4845  35.316  30.205   1.223
36452W        W 4846   8.335   5.096  10.157
36453W        W 4847   8.280   0.872  12.371
36454W        W 4848   8.662  14.807   3.342
36455W        W 4849   1.261  22.998  10.943
36456W        W 4850  10.744   6.715  10.738
36457W        W 4851   0.999  23.144  14.915
36458W        W 4852   0.389  12.108   4.220
36459W        W 4853  26.458  38.413  12.909
36460W        W 4854  31.184   5.249   3.323
36461W        W 4855  32.410  32.663   4.144
36462W        W 4856  15.671  14.521  10.222
36463W        W 4857  19.913  29.536   2.391
36464W        W 4858  32.678  24.728  12.050
36465W        W 4859  16.287   7.833  12.108
36466W        W 4860  22.542  17.240  13.857
36467W        W 4861  41.033  26.468  14.593
36468W        W 4862  36.623  33.071   1.402
36469W        W 4863  18.136  20.649   3.405
36470W        W 4864  32.850  23.130  14.062
36471W        W 4865  23.250  39.437  10.627
36472W        W 4866  27.793  24.724   3.813
36473W        W 4867   3.941   2.063  10.332
36474W        W 4868  13.226  10.932  12.010
36475W        W 4869  17.632  31.549  14.356
36476W        W 4870  19.077  16.132  14.735
36477W        W 4871  39.113   8.225   2.203
36478W        W 4872  27.923  34.884  13.421
36479W        W 4873   4.912  22.306  14.420
36480W        W 4874  27.921  23.173   4.948
36481W        W 4875   7.936  27.015  12.944
36482W        W 4876  20.296  22.358  14.831
36483W        W 4877  26.731  14.183  12.152
36484W        W 4878  28.983  42.456  11.490
36485W        W 4879   1.652  11.904   2.334
36486W        W 4880  22.973  10.541   3.446
36487W        W 4881  17.059  16.813   4.211
36488W        W 4882  30.114  16.831   4.623
36489W        W 4883  30.651  36.083   2.231
36490W        W 4884  38.563  36.458   4.805
36491W        W 4885  28.779  32.422   2.971
36492W        W 4886  26.728  42.272   4.480
36493W        W 4887  25.369  25.213  11.101
36494W        W 4888  44.542  24.633  10.645
36495W        W 4889  19.352  12.108  11.471
36496W        W 4890  26.499  38.294   2.735
36497W        W 4891   4.932  24.986   2.652
36498W        W 4892  32.117  31.846  14.536
36499W        W 4893  36.636  14.692  10.568
36500W        W 4894  27.131  28.167  14.403
36501W        W 4895   3.925  11.358  12.459
36502W        W 4896   6.895  25.738  13.753
36503W        W 4897  40.481  11.797  11.293
36504W        W 4898  27.446   1.724  10.268
36505W        W 4899  29.586  18.327  14.470
36506W        W 4900  12.712  36.540   1.166
36507W        W 4901   7.766  11.783   4.103
36508W        W 4902   9.492  42.774  14.045
36509W        W 4903  42.921  22.156   4.688
36510W        W 4904  41.938  22.610  14.972
36511W        W 4905  17.236  25.369  10.728
36512W        W 4906  35.376  37.644  12.963
36513W        W 4907   4.025  14.149  12.504
36514W        W 4908  44.569   5.921  10.703
36515W        W 4909  12.125  22.228   4.797
36516W        W 4910  37.542  44.281   1.197
36517W        W 4911  35.987  16.809  13.838
36518W        W 4912  23.656  18.213  13.564
36519W        W 4913  37.935  27.040  14.117
36520W        W 4914  29.881  30.898  14.037
36521W        W 4915   1.735  39.809   2.825
36522W        W 4916  39.947  17.995  13.677
36523W        W 4917  25.941  18.538  11.650
36524W        W 4918  29.639  40.322   2.519
36525W        W 4919  24.478  35.571   2.634
36526W        W 4920  23.694   1.285  10.987
36527W        W 4921   7.941  38.470  13.179
36528W        W 4922  40.059  27.956   2.264
36529W        W 4923  39.799  23.496  10.682
36530W        W 4924  36.942  31.917   2.780
36531W        W 4925  12.780  12.048   0.280
36532W        W 4926  31.879  21.784  10.858
36533W        W 4927  15.794   0.237   1.343
36534W        W 4928  23.272  36.920  12.153
36535W        W 4929  31.172   1.290  11.549
36536W        W 4930  37.563  27.964  12.085
36537W        W 4931  39.254  18.238  12.056
36538W        W 4932  33.648  41.975  12.514
36539W        W 4933  13.768  32.892   1.902
36540W        W 4934  37.673  14.676   0.295
36541W        W 4935  11.153  21.058   3.120
36542W        W 4936  40.349   2.001  14.388
36543W        W 4937  20.826   9.128  11.906
36544W        W 4938  24.214  16.513   3.954
36545W        W 4939  37.073   8.926   3.347
36546W        W 4940   2.882  10.707  12.843
36547W        W 4941  27.854  35.931   0.801
36548W        W 4942  21.699  11.517   4.950
36549W        W 4943   9.885   2.844  11.010
36550W        W 4944  10.667  13.807  14.493
36551W        W 4945  36.502  35.297   1.973
36552W        W 4946  13.617  34.704   2.665
36553W        W 4947  38.882   8.315   2.656
36554W        W 4948  23.357  25.925  12.505
36555W        W 4949   7.316  19.750  14.084
36556W        W 4950  28.456   7.162  11.598
36557W        W 4951  23.319  43.503  12.605
36558W        W 4952  34.004  44.450   0.256
36559W        W 4953  29.875  31.214   1.988
36560W        W 4954   3.857  11.866   0.983
36561W        W 4955  20.246  34.786   2.154
36562W        W 4956  23.180   5.429  13.900
36563W        W 4957   2.142  15.404   2.725
36564W        W 4958  34.530  37.057   3.658
36565W        W 4959   7.658  22.603  12.773
36566W        W 4960  29.905  41.430   0.434
36567W        W 4961  16.093  13.693   3.407
36568W        W 4962  10.480   8.136  11.122
36569W        W 4963  38.435  14.606  12.659
36570W        W 4964  13.002  34.485   1.154
36571W        W 4965  42.548  16.731   1.854
36572W        W 4966  44.691  24.085   4.122
36573W        W 4967  36.465  17.305  10.878
36574W        W 4968  26.551   2.154  14.021
36575W        W 4969   1.021  24.268  14.292
36576W        W 4970  38.447  19.779   0.445
36577W        W 4971  16.670  27.364  12.050
36578W        W 4972  28.573  29.520  12.863
36579W        W 4973  12.758  34.110   0.840
36580W        W 4974  34.929  24.212   0.969
36581W        W 4975   4.819  44.907   4.368
36582W        W 4976   9.706  14.218  10.631
36583W        W 4977  16.103  16.661  11.916
36584W        W 4978  12.692  41.581   1.272
36585W        W 4979  28.160  40.928   1.458
36586W        W 4980  23.449  17.037  12.995
36587W        W 4981  11.982  42.491  12.015
36588W        W 4982  31.593  31.640   2.674
36589W        W 4983  41.073   7.104   2.104
36590W        W 4984   8.234  37.836   3.616
36591W        W 4985  19.117  23.113   3.857
36592W        W 4986  22.546  35.922   5.157
36593W        W 4987   3.588   6.152   2.373
36594W        W 4988  29.685  23.215   3.789
36595W        W 4989  12.820   3.764   4.136
36596W        W 4990   1.763  30.509  11.761
36597W        W 4991  33.531  40.020  12.502
36598W        W 4992  43.962  43.715  12.906
36599W        W 4993  23.067  22.763   1.561
36600W        W 4994   3.197  21.738  10.958
36601W        W 4995  19.551  14.381  12.586
36602W        W 4996   8.387  15.380  10.856
36603W        W 4997  20.737  38.212   1.356
36604W        W 4998  32.958  38.516   1.202
36605W        W 4999  21.673  42.786  12.215
36606W        W 5000  13.356  20.872  12.160
36607W        W 5001  29.826  18.419  12.877
36608W        W 5002   5.897   1.357   0.724
36609W        W 5003   6.710  41.463   3.805
36610W        W 5004  40.969   8.573  13.823
36611W        W 5005   5.781  35.892   4.799
36612W        W 5006   2.366  23.643   0.934
36613W        W 5007   5.266  17.306  11.854
36614W        W 5008  21.232  38.422   0.370
36615W        W 5009   9.469  35.141  12.427
36616W        W 5010  25.446  11.082   2.408
36617W        W 5011   5.875  22.017   4.622
36618W        W 5012   8.606  18.809   4.487
36619W        W 5013  14.091  33.665  11.619
36620W        W 5014  11.708  15.003   1.813
36621W        W 5015   5.667  18.213  13.455
36622W        W 5016   9.265  12.735  12.890
36623W        W 5017  38.209  17.405  12.083
36624W        W 5018  41.647  43.189   4.625
36625W        W 5019  20.038  24.511  11.901
36626W        W 5020  16.076  12.561  10.784
36627W        W 5021   5.893  10.838  12.007
36628W        W 5022  26.722  43.285  11.724
36629W        W 5023  37.050  25.554   0.020
36630W        W 5024  14.161  28.445   2.393
36631W        W 5025  22.537  43.354   1.755
36632W        W 5026  35.820  39.536   4.596
36633W        W 5027  38.492  24.182   0.245
36634W        W 5028   1.319   5.897  12.493
36635W        W 5029  43.837   0.527  13.426
36636W        W 5030   7.821  42.868   4.928
36637W        W 5031   1.439  33.324   2.282
36638W        W 5032  24.488  29.976  11.130
36639W        W 5033  36.816  40.018  12.903
36640W        W 5034  19.728  37.948   2.624
36641W        W 5035  24.094   6.245   3.445
36642W        W 5036  37.899  20.051   0.501
36643W        W 5037  44.897  38.080   2.926
36644W        W 5038  38.678  11.836  10.719
36645W        W 5039  33.187  37.599  13.259
36646W        W 5040  36.829  19.634  11.585
36647W        W 5041  10.719  12.839   1.589
36648W        W 5042  21.967  37.446   4.078
36649W        W 5043  33.275  28.138  12.461
36650W        W 5044   5.737  12.795  13.421
36651W        W 5045  38.878  11.202   2.804
36652W        W 5046  14.616  14.262  14.315
36653W        W 5047   7.674  10.246  14.787
36654W        W 5048   3.968  41.956   1.834
36655W        W 5049  27.938  31.622   0.775
36656W        W 5050  30.425  39.010   4.233
36657W        W 5051  37.892  17.604  14.818
36658W        W 5052  23.955  41.951   5.083
36659W        W 5053   7.169  36.528   3.550
36660W        W 5054  23.494   0.519   4.161
36661W        W 5055   1.033  18.217  12.944
36662W        W 5056  11.845  16.986  11.512
36663W        W 5057   1.388  37.549  10.420
36664W        W 5058  29.437   0.751   0.917
36665W        W 5059  11.574  16.341  12.043
36666W        W 5060  20.552   8.457   4.389
36667W        W 5061  27.530  35.115   2.390
36668W        W 5062  14.997  40.427  14.275
36669W        W 5063  27.085   7.931   2.198
36670W        W 5064  13.147  36.384   2.241
36671W        W 5065   6.769  38.027  14.388
36672W        W 5066  43.362  19.302   1.732
36673W        W 5067  29.153  27.962  12.037
36674W        W 5068   9.456  42.798  11.688
36675W        W 5069  32.533   3.500  11.188
36676W        W 5070   7.845  12.780   4.518
36677W        W 5071   6.879  30.732  11.329
36678W        W 5072   6.686  26.615  14.212
36679W        W 5073  36.849  12.046  12.116
36680W        W 5074  21.223  34.067   0.533
36681W        W 5075  29.126  36.489   3.580
36682W        W 5076  25.181  22.764  12.025
36683W        W 5077  35.619  25.161  10.899
36684W        W 5078   9.620  33.617   3.809
36685W        W 5079  23.818  37.217   3.765
36686W        W 5080  21.115  24.496  14.952
36687W        W 5081   4.261  11.185  14.371
36688W        W 5082  11.279   9.633   1.135
36689W        W 5083  11.167  32.640  10.583
36690W        W 5084   3.786  40.422  12.808
36691W        W 5085   6.877  38.017   3.622
36692W        W 5086   4.776  25.799   5.003
36693W        W 5087  39.641  12.333  12.952
36694W        W 5088   6.832  29.501   2.320
36695W        W 5089  23.202  22.270  12.074
36696W        W 5090  44.304  21.255  10.581
36697W        W 5091  10.875  42.041  10.740
36698W        W 5092  10.388  10.502   5.020
36699W        W 5093  16.604  37.226  12.928
36700W        W 5094  15.779  39.333   2.292
36701W        W 5095  18.908  12.088  13.414
36702W        W 5096  36.273   3.449  14.022
36703W        W 5097  33.183  12.993   0.881
36704W        W 5098  42.032  24.034   4.388
36705W        W 5099  37.885   8.393  12.533
36706W        W 5100   8.288  41.828   3.595
36707W        W 5101   9.214  25.142   1.853
36708W        W 5102  24.735  21.815  13.794
36709W        W 5103  22.019  26.918   1.693
36710W        W 5104  11.275  10.916  13.939
36711W        W 5105  18.260  13.613  11.600
36712W        W 5106  40.321   4.403   2.891
36713W        W 5107  14.738  44.815   1.900
36714W        W 5108   9.662  42.510   4.374
36715W        W 5109  29.345   2.362  12.436
36716W        W 5110  42.525  34.850   1.564
36717W        W 5111  24.475  18.135   0.261
36718W        W 5112   5.710  40.784  14.380
36719W        W 5113  37.095  29.650  11.083
36720W        W 5114  12.912  31.082   1.249
36721W        W 5115  36.485  19.502  13.905
36722W        W 5116  16.980  27.601  10.883
36723W        W 5117  10.310  13.031  10.117
36724W        W 5118  37.090  15.685   1.663
36725W        W 5119  39.209  25.066  11.931
36726W        W 5120  29.166  10.123   1.747
36727W        W 5121  20.725   4.930   2.694
36728W        W 5122  27.943  17.972  10.825
36729W        W 5123  16.667  33.110   0.784
36730W        W 5124  28.875   0.891  13.890
36731W        W 5125   6.824  28.979  11.585
36732W        W 5126   3.670  25.206   4.763
36733W        W 5127  31.618  23.731   4.542
36734W        W 5128   8.275  12.788   2.296
36735W        W 5129   9.031  41.517  13.486
36736W        W 5130  41.397  35.256   3.709
36737W        W 5131  28.456   7.153  10.579
36738W        W 5132   0.373  14.723  10.618
36739W        W 5133  37.551   8.444   4.047
36740W        W 5134   1.354   6.179   3.190
36741W        W 5135  15.844  42.287  13.380
36742W        W 5136  28.928  20.675   2.058
36743W        W 5137   2.375  21.737   1.757
36744W        W 5138  44.080  22.986   4.853
36745W        W 5139   3.813  43.283  12.094
36746W        W 5140  21.997  17.305   4.509
36747W        W 5141   3.548   0.473   0.452
36748W        W 5142  32.481  26.413   3.176
36749W        W 5143   8.812   1.051  14.645
36750W        W 5144  35.809  24.457  11.125
36751W        W 5145   4.477  23.807   2.644
36752W        W 5146  39.067   5.450   2.238
36753W        W 5147  26.952  36.837  11.156
36754W        W 5148   8.218  13.967   4.981
36755W        W 5149  25.880   7.052   1.227
36756W        W 5150  24.206  29.714  12.958
36757W        W 5151  14.510  20.004   3.171
36758W        W 5152  23.867   9.807   2.669
36759W        W 5153  15.028  35.180  14.021
36760W        W 5154  22.258   4.835   2.206
36761W        W 5155  18.210  38.305  14.926
36762W        W 5156  10.421  38.581   3.357
36763W        W 5157  19.925   9.539  13.839
36764W        W 5158   8.367  16.817  11.000
36765W        W 5159  19.001  24.483  10.887
36766W        W 5160   8.874   0.264  12.803
36767W        W 5161  42.222   5.291  13.017
36768W        W 5162  17.624  25.657  10.572
36769W        W 5163  26.469  35.470   4.351
36770W        W 5164  13.839  11.142   2.365
36771W        W 5165  32.315  12.232   0.883
36772W        W 5166  31.018  28.040  11.119
36773W        W 5167  35.165  16.349  12.434
36774W        W 5168  20.000  38.607  11.752
36775W        W 5169   9.373   1.495  11.484
36776W        W 5170   1.514  42.098  13.088
36777W        W 5171  17.778   7.837   1.335
36778W        W 5172   6.719  32.409  11.172
36779W        W 5173   2.445  39.621   0.008
36780W        W 5174  12.607  28.753   0.532
36781W        W 5175  15.788   5.246   2.600
36782W        W 5176  34.464  16.129   4.497
36783W        W 5177   5.731  24.161  14.399
36784W        W 5178  13.697  11.159  13.928
36785W        W 5179   8.522   7.824   4.648
36786W        W 5180   5.643  26.051   2.350
36787W        W 5181  43.719  40.836  11.016
36788W        W 5182  29.561  33.959  11.913
36789W        W 5183  34.933  29.363   3.647
36790W        W 5184  25.598  38.870  14.289
36791W        W 5185  33.042  13.892   0.897
36792W        W 5186   2.080   5.431   3.143
36793W        W 5187   8.419  27.257  12.814
36794W        W 5188  29.435  33.335   0.267
36795W        W 5189   1.815  34.984   2.643
36796W        W 5190   9.692  44.727   1.341
36797W        W 5191  34.482  14.780   3.668
36798W        W 5192  26.243  28.155  13.014
36799W        W 5193  25.329   0.764   3.607
36800W        W 5194  19.078   1.743  14.483
36801W        W 5195  14.280  31.081  14.366
36802W        W 5196  22.259  32.265  12.010
36803W        W 5197  25.737  35.857   4.988
36804W        W 5198  35.163  29.712  11.224
36805W        W 5199  17.171  35.201  14.179
36806W        W 5200  30.891  31.860   0.727
36807W        W 5201   6.640  34.349  12.797
36808W        W 5202  24.832  27.947  14.458
36809W        W 5203  40.449  24.152   4.153
36810W        W 5204   6.623  42.489   3.732
36811W        W 5205  15.315  29.510  14.464
36812W        W 5206  36.777  40.476  11.645
36813W        W 5207  26.447  10.105   5.487
36814W        W 5208   0.407   3.321  11.022
36815W        W 5209  42.253   2.918  12.086
36816W        W 5210  31.914  39.211  13.089
36817W        W 5211  22.165  29.862  12.632
36818W        W 5212  38.073  10.832  12.849
36819W        W 5213  42.898  44.470   1.156
36820W        W 5214  15.371   2.371   0.929
36821W        W 5215  14.723  13.843  10.750
36822W        W 5216  21.972  26.158  14.829
36823W        W 5217  19.809  16.341   2.115
36824W        W 5218  25.549   7.642   4.314
36825W        W 5219  18.824   3.059  12.216
36826W        W 5220  26.058  11.431   9.948
36827W        W 5221   3.175  41.448   3.786
36828W        W 5222  15.363   7.100  13.925
36829W        W 5223  29.087   8.225  14.846
36830W        W 5224   7.419  16.875   3.722
36831W        W 5225  31.884  19.973   0.867
36832W        W 5226  38.370  13.219   3.635
36833W        W 5227  37.506  40.141   1.804
36834W        W 5228  24.674  34.680  14.610
36835W        W 5229  36.541  40.983  13.311
36836W        W 5230  34.550  41.950   0.075
36837W        W 5231   2.843  12.171   0.087
36838W        W 5232   0.430  23.998   0.098
36839W        W 5233  29.902  13.589  14.544
36840W        W 5234  39.277   4.179   3.714
36841W        W 5235  43.925   4.435  14.379
36842W        W 5236   4.145   8.878   4.040
36843W        W 5237  36.775  20.391  12.507
36844W        W 5238   7.831  29.618   1.309
36845W        W 5239  17.747  30.448   4.169
36846W        W 5240  19.115  19.915  10.432
36847W        W 5241   8.870  39.776  14.957
36848W        W 5242  28.980  33.022   4.134
36849W        W 5243  35.545  32.746  11.081
36850W        W 5244  32.545  35.070  12.586
36851W        W 5245   2.922   3.201   1.378
36852W        W 5246   3.698  23.654  11.491
36853W        W 5247  20.748  43.210   4.188
36854W        W 5248  19.629   5.556  11.211
36855W        W 5249  21.362  24.084   0.366
36856W        W 5250   7.824  40.182   4.062
36857W        W 5251  20.671  17.830   0.916
36858W        W 5252  14.980  20.101  12.660
36859W        W 5253  29.884  38.810  11.681
36860W        W 5254  24.276  28.560   4.686
36861W        W 5255  38.326  18.178  11.676
36862W        W 5256  27.980  18.233   2.830
36863W        W 5257  11.113  44.707  12.660
36864W        W 5258  21.777  14.643   3.731
36865W        W 5259  31.718  18.192   3.324
36866W        W 5260   9.219  28.312   1.353
36867W        W 5261  16.613  31.794  10.243
36868W        W 5262  23.769  17.044  14.519
36869W        W 5263  14.372  19.186  14.724
36870W        W 5264  19.689  29.181   1.442
36871W        W 5265   1.028  33.546   1.118
36872W        W 5266  30.592  10.199   1.009
36873W        W 5267  18.199  37.882   2.184
36874W        W 5268  37.689  16.285  12.752
36875W        W 5269  27.082  25.603   2.917
36876W        W 5270  19.600  12.931  14.914
36877W        W 5271  42.492  42.500   3.249
36878W        W 5272  10.358  31.085   3.233
36879W        W 5273   1.898  13.301   3.233
36880W        W 5274  23.090   7.346   2.741
36881W        W 5275   5.759  12.817  14.885
36882W        W 5276  13.206  32.975  12.091
36883W        W 5277  39.276   4.342   0.753
36884W        W 5278   1.193  36.053  10.629
36885W        W 5279  42.087  30.770   0.715
36886W        W 5280  11.059  27.894  11.084
36887W        W 5281  13.641   3.040   0.975
36888W        W 5282  38.033   9.765   2.732
36889W        W 5283   2.872   5.358  14.709
36890W        W 5284  10.777  19.725   4.115
36891W        W 5285  30.009  44.327  11.120
36892W        W 5286  38.696  31.294  10.430
36893W        W 5287  23.739  15.287   4.251
36894W        W 5288  42.155  37.459  13.977
36895W        W 5289  17.673  27.432   3.077
36896W        W 5290  18.662  18.661   0.824
36897W        W 5291  14.570  39.713   3.750
36898W        W 5292  33.126  15.623  14.535
36899W        W 5293   2.120  13.235  10.163
36900W        W 5294  26.661   5.635  12.868
36901W        W 5295  20.782  28.623  11.562
36902W        W 5296   5.887  12.161  11.117
36903W        W 5297  22.249  15.222  14.543
36904W        W 5298  32.604   9.446   2.712
36905W        W 5299  42.016  28.866  13.839
36906W        W 5300  37.976  19.544  12.877
36907W        W 5301  36.441  14.076   1.615
36908W        W 5302  37.602   6.383  11.320
36909W        W 5303   1.976  24.416  12.429
36910W        W 5304  15.838   5.964   2.241
36911W        W 5305  25.068   0.084  11.619
36912W        W 5306  21.675  15.606   0.329
36913W        W 5307  35.413  20.797  13.413
36914W        W 5308  38.428   2.585   3.845
36915W        W 5309  23.073  34.073  11.157
36916W        W 5310  13.568  35.852   4.115
36917W        W 5311   9.621  23.493  13.504
36918W        W 5312   0.779  22.231   0.836
36919W        W 5313  31.806  35.977   4.142
36920W        W 5314  23.519  34.668   1.825
36921W        W 5315   9.760  18.256   3.833
36922W        W 5316  38.128  34.597   4.218
36923W        W 5317   8.446  42.789   2.210
36924W        W 5318   4.738  32.946   3.227
36925W        W 5319  27.050  22.283  12.946
36926W        W 5320  35.885  20.265   0.284
36927W        W 5321  21.849  40.963  11.775
36928W        W 5322   5.324  39.396  11.476
36929W        W 5323  19.329   0.481   0.826
36930W        W 5324   0.275  36.615   2.867
36931W        W 5325  26.739  22.706   3.697
36932W        W 5326  12.396   4.640  13.591
36933W        W 5327  42.328  42.352   4.634
36934W        W 5328  35.402  10.874  11.627
36935W        W 5329  17.240  24.313  12.370
36936W        W 5330  34.078  12.246   1.783
36937W        W 5331  42.156   8.448  10.693
36938W        W 5332  35.957   2.233   0.360
36939W        W 5333   8.857   3.258  14.187
36940W        W 5334  42.317  37.761   1.327
36941W        W 5335  20.259  25.770  13.316
36942W        W 5336  33.997  11.872   4.341
36943W        W 5337  23.095  30.958   2.758
36944W        W 5338  16.843  26.681  11.222
36945W        W 5339  24.475  20.555  14.464
36946W        W 5340  19.106  30.463  13.714
36947W        W 5341  44.571  33.956  14.962
36948W        W 5342   7.622  25.516  12.988
36949W        W 5343   0.051   1.744  11.617
36950W        W 5344  38.071  29.221  13.429
36951W        W 5345  27.672   2.175   1.353
36952W        W 5346  34.838  34.958   2.834
36953W        W 5347   8.738  42.050   3.745
36954W        W 5348  19.632  17.644   0.466
36955W        W 5349  16.870  41.404   2.475
36956W        W 5350  19.674  27.692  13.399
36957W        W 5351  30.708  42.936   1.043
36958W        W 5352  11.869  43.719   4.046
36959W        W 5353  21.335  25.352   0.497
36960W        W 5354  17.939   6.806   3.064
36961W        W 5355  35.361   9.894   0.323
36962W        W 5356  24.059   5.367   2.107
36963W        W 5357  44.952  36.715   0.251
36964W        W 5358  25.753  22.258   2.848
36965W        W 5359  15.885   2.169  10.780
36966W        W 5360  20.402  30.623   1.700
36967W        W 5361  13.072  25.530   3.542
36968W        W 5362  21.082   6.813   0.002
36969W        W 5363  35.507  21.369   3.209
36970W        W 5364  34.168  38.503   4.726
36971W        W 5365  27.575   0.765   4.174
36972W        W 5366  41.082   0.226   4.832
36973W        W 5367   5.707   8.445  11.902
36974W        W 5368   8.094  31.460  12.940
36975W        W 5369   3.132  37.949   1.691
36976W        W 5370  40.896  35.210   3.628
36977W        W 5371  25.150  11.116   3.623
36978W        W 5372  33.118   4.391  14.824
36979W        W 5373  36.986   7.112  14.398
36980W        W 5374  16.234  27.326  11.019
36981W        W 5375   4.321  38.367   2.146
36982W        W 5376   4.361  24.674   9.669
36983W        W 5377  19.034  31.116  13.024
36984W        W 5378   6.512  22.611  10.355
36985W        W 5379   0.882   8.160   1.698
36986W        W 5380   2.010  30.131  14.405
36987W        W 5381   5.684  43.353  13.412
36988W        W 5382   1.425   5.056   3.688
36989W        W 5383  37.345  17.490   1.411
36990W        W 5384  44.515  26.283   3.301
36991W        W 5385  33.501  21.519  14.863
36992W        W 5386  11.096  36.605   3.158
36993W        W 5387  35.625   3.932   0.733
36994W        W 5388  14.051   1.839   0.925
36995W        W 5389  36.574  22.806   0.786
36996W        W 5390  43.365   2.883   2.337
36997W        W 5391   3.826  32.695  11.656
36998W        W 5392   5.428  17.820  12.455
36999W        W 5393  39.486  18.613   1.002
37000W        W 5394  25.209  12.313   0.932
37001W        W 5395  24.606  33.346   1.377
37002W        W 5396  44.309   0.241   3.788
37003W        W 5397  20.312  38.831  13.330
37004W        W 5398  20.357   2.481  11.910
37005W        W 5399  33.588  33.843   2.284
37006W        W 5400   3.871   9.658   3.750
37007W        W 5401  12.118   0.661  12.921
37008W        W 5402  23.838  27.493  10.725
37009W        W 5403   1.711  38.303   1.869
37010W        W 5404  16.101  25.068  12.127
37011W        W 5405  28.775  19.497  11.999
37012W        W 5406  20.047  24.200   1.848
37013W        W 5407   9.196  16.076  10.828
37014W        W 5408  28.001   3.001  14.446
37015W        W 5409  35.280  15.302   1.699
37016W        W 5410  29.079  32.580  12.934
37017W        W 5411   1.297  26.095  13.334
37018W        W 5412   3.431   5.070  13.709
37019W        W 5413  15.515   8.765  13.051
37020W        W 5414  14.291  29.663  14.952
37021W        W 5415  20.665  36.375  14.509
37022W        W 5416  30.643   2.417  13.881
37023W        W 5417  11.289  19.709   3.861
37024W        W 5418  36.445  32.026   2.676
37025W        W 5419  24.209   9.407   3.779
37026W        W 5420   9.874  17.736  10.923
37027W        W 5421  38.974  25.470  11.676
37028W        W 5422   3.890  40.576  14.253
37029W        W 5423  36.805  14.335  10.200
37030W        W 5424  35.347  44.379  10.700
37031W        W 5425   2.642   7.117   3.153
37032W        W 5426  41.181   4.948   3.653
37033W        W 5427  43.167   6.153  13.053
37034W        W 5428  29.349   5.478  12.026
37035W        W 5429  42.841  36.446   4.503
37036W        W 5430  42.214  11.610   4.065
37037W        W 5431  16.193  37.373   2.700
37038W        W 5432  39.039  17.418  14.064
37039W        W 5433   3.786  25.996  14.772
37040W        W 5434  20.707   9.037   2.138
37041W        W 5435  16.164  21.064  13.826
37042W        W 5436   7.855  33.061  12.316
37043W        W 5437  37.669  41.380   2.377
37044W        W 5438  29.664  24.396   2.334
37045W        W 5439  36.927  16.111   3.452
37046W        W 5440  34.474  11.347   0.288
37047W        W 5441  43.942  42.504  12.985
37048W        W 5442  17.797  28.211   4.574
37049W        W 5443  25.235  21.544   1.682
37050W        W 5444  18.569  16.026  11.107
37051W        W 5445  19.707  14.355  12.090
37052W        W 5446  25.511  25.663   0.018
37053W        W 5447  20.163  39.758  14.596
37054W        W 5448  15.645  42.807  13.358
37055W        W 5449   8.631   0.026   1.816
37056W        W 5450  33.144   2.642   3.840
37057W        W 5451   9.803  33.648  13.001
37058W        W 5452   7.307  20.587  13.009
37059W        W 5453  34.271  27.130   4.018
37060W        W 5454  31.530  42.018   4.081
37061W        W 5455  20.161  39.907   9.770
37062W        W 5456  14.625  20.800   0.386
37063W        W 5457  28.922  43.277   4.554
37064W        W 5458   0.003   0.244   3.607
37065W        W 5459   1.329  19.576   0.337
37066W        W 5460   2.226   7.267  14.511
37067W        W 5461  34.668  41.902  13.517
37068W        W 5462  25.910   9.411  11.657
37069W        W 5463  30.080  10.848  11.639
37070W        W 5464   3.772  26.226  14.297
37071W        W 5465  23.000  38.470   1.861
37072W        W 5466  18.533  29.650   3.252
37073W        W 5467   7.371  15.088   1.150
37074W        W 5468   4.423  31.760   0.756
37075W        W 5469   7.835  19.689   0.872
37076W        W 5470  22.249  26.954  14.919
37077W        W 5471   2.231  15.171  10.577
37078W        W 5472  16.868   8.977   0.525
37079W        W 5473  19.726  33.242   3.142
37080W        W 5474   0.396   0.921   3.636
37081W        W 5475  30.890   8.747   2.852
37082W        W 5476  14.791  19.363   0.420
37083W        W 5477  24.845  19.101  11.049
37084W        W 5478  16.374  34.619   0.505
37085W        W 5479  32.374   1.692  10.972
37086W        W 5480  29.396  16.656  10.724
37087W        W 5481  39.545  22.583  14.213
37088W        W 5482  44.791   2.176   2.898
37089W        W 5483  36.053  27.679  13.404
37090W        W 5484  12.201  31.422  14.818
37091W        W 5485   1.076  30.135   0.517
37092W        W 5486  11.880  21.046   0.997
37093W        W 5487  41.370  40.303   0.470
37094W        W 5488  44.650  14.819  14.737
37095W        W 5489  43.536  17.607   3.066
37096W        W 5490  41.768   0.021  12.065
37097W        W 5491  17.872  13.735  12.994
37098W        W 5492   2.292  21.494   2.202
37099W        W 5493   7.440  14.279   0.069
37100W        W 5494  10.465  40.591  14.462
37101W        W 5495   6.506  26.183   4.084
37102W        W 5496  12.257  35.981   4.881
37103W        W 5497   3.732  20.415  11.535
37104W        W 5498  35.269  12.491   5.319
37105W        W 5499  28.104  35.440  12.414
37106W        W 5500  26.078   9.937  11.750
37107W        W 5501  40.846  43.041  14.502
37108W        W 5502   6.435  43.833  13.348
37109W        W 5503  37.149  17.618  12.853
37110W        W 5504  25.180   6.397  11.879
37111W        W 5505   4.041  12.322   1.173
37112W        W 5506  21.421  31.016  12.669
37113W        W 5507  14.151  12.932  11.467
37114W        W 5508   9.252   6.781  14.553
37115W        W 5509   1.294   5.397  14.779
37116W        W 5510  28.753   0.079  12.529
37117W        W 5511  38.651   5.817  12.083
37118W        W 5512  37.825  29.932  14.076
37119W        W 5513  44.040  29.969  14.147
37120W        W 5514   8.748  17.835  11.642
37121W        W 5515  35.371  30.173  14.016
37122W        W 5516   6.037  18.552   2.174
37123W        W 5517  43.982   2.568  13.440
37124W        W 5518  23.244  27.650   3.677
37125W        W 5519  34.115  28.460   2.342
37126W        W 5520  33.537  22.666  13.094
37127W        W 5521  18.867  21.280   4.981
37128W        W 5522  44.188  19.283  11.629
37129W        W 5523  23.481  22.945  11.649
37130W        W 5524  27.030  28.347   2.267
37131W        W 5525  32.521  25.603   0.806
37132W        W 5526  22.122  22.019  14.944
37133W        W 5527  12.197  44.333   3.716
37134W        W 5528  42.002  16.499  13.430
37135W        W 5529   3.698  40.622   3.234
37136W        W 5530  15.550  41.640   1.813
37137W        W 5531   6.996   3.002  12.561
37138W        W 5532   5.099   4.034   2.211
37139W        W 5533  37.577  28.679  14.044
37140W        W 5534   1.459   3.340   2.160
37141W        W 5535  33.036  22.791   2.879
37142W        W 5536  24.217  12.237   1.687
37143W        W 5537   5.154  32.917  11.941
37144W        W 5538  10.750  43.366   2.362
37145W        W 5539  24.574  22.275  11.402
37146W        W 5540  18.591  37.843   2.702
37147W        W 5541  17.791  41.550  13.374
37148W        W 5542   1.661   2.220   2.656
37149W        W 5543  31.614  39.802  11.786
37150W        W 5544  24.972  19.182   3.925
37151W        W 5545  16.154   2.758  12.926
37152W        W 5546  31.631  42.958   4.105
37153W        W 5547  44.889  21.538  11.365
37154W        W 5548  44.133  14.654  11.535
37155W        W 5549   8.653  31.348   4.410
37156W        W 5550  23.988  30.945   3.203
37157W        W 5551   6.342   7.249  10.980
37158W        W 5552  16.845  21.090   3.226
37159W        W 5553  22.150  27.505   4.553
37160W        W 5554   7.226  37.366  14.819
37161W        W 5555  41.850  43.164   1.790
37162W        W 5556  15.864  18.083   0.805
37163W        W 5557   6.776  33.236  12.084
37164W        W 5558  10.702  16.448  11.213
37165W        W 5559   1.076  22.031  11.025
37166W        W 5560  39.337  35.003  13.104
37167W        W 5561   3.345  22.274  13.819
37168W        W 5562   5.973  16.614   0.856
37169W        W 5563  25.385  23.011  11.170
37170W        W 5564  19.971  30.541  12.404
37171W        W 5565  29.125  13.851   4.659
37172W        W 5566  31.054  26.309   1.768
37173W        W 5567  25.750  19.066   0.786
37174W        W 5568  41.844   2.000   2.738
37175W        W 5569  40.003  16.718  13.424
37176W        W 5570  37.785  36.567  13.385
37177W        W 5571  31.051  21.596  10.510
37178W        W 5572  18.781   7.007  12.454
37179W        W 5573  10.020  39.964   4.275
37180W        W 5574  34.571  19.880  12.165
37181W        W 5575  35.034  18.699   3.280
37182W        W 5576   6.831  14.252  13.026
37183W        W 5577  21.725   3.687   1.931
37184W        W 5578   6.967   5.335   9.890
37185W        W 5579  24.570  44.529  12.416
37186W        W 5580   3.775   5.332   0.435
37187W        W 5581  16.859   5.661  10.326
37188W        W 5582  44.838  24.160   1.471
37189W        W 5583  33.874  39.048  13.224
37190W        W 5584   5.357  28.102   2.169
37191W        W 5585  38.346  28.455   3.358
37192W        W 5586  15.303  30.053   1.397
37193W        W 5587  44.745  22.964   1.274
37194W        W 5588  39.311  10.599   1.804
37195W        W 5589  38.972  35.482   2.407
37196W        W 5590  43.901  39.958   3.850
37197W        W 5591  34.626  31.330   2.900
37198W        W 5592  11.906  22.525   0.697
37199W        W 5593  19.583   3.778   1.506
37200W        W 5594  36.420  42.943   0.909
37201W        W 5595  41.884  35.177  14.931
37202W        W 5596  44.706  32.014  12.644
37203W        W 5597  43.733  30.631  13.522
37204W        W 5598  12.370  12.772   2.457
37205W        W 5599   0.314   3.850  10.675
37206W        W 5600  10.741  42.954  14.583
37207W        W 5601  18.952  14.093  10.667
37208W        W 5602  30.125  21.229   0.034
37209W        W 5603  36.618  41.193  11.921
37210W        W 5604  44.297  35.205  13.441
37211W        W 5605   3.794  37.528  14.781
37212W        W 5606  20.141  34.358  13.572
37213W        W 5607   2.942  30.660  13.952
37214W        W 5608  28.209  39.971   2.411
37215W        W 5609   0.855  27.679  13.412
37216W        W 5610   8.978  27.889   4.361
37217W        W 5611  42.922  10.625  14.823
37218W        W 5612  30.579  19.995   3.518
37219W        W 5613  34.941   4.948   0.009
37220W        W 5614   3.218  35.094  14.290
37221W        W 5615  18.294  36.362   0.948
37222W        W 5616   7.072  15.639  14.434
37223W        W 5617   1.213   8.787  11.958
37224W        W 5618  39.502  28.456   0.902
37225W        W 5619  17.263  30.560   4.363
37226W        W 5620  18.446  25.027  11.560
37227W        W 5621  16.726  33.386   3.932
37228W        W 5622  40.782  40.956  14.707
37229W        W 5623   3.376  16.355   2.097
37230W        W 5624   6.118  39.441  12.908
37231W        W 5625  33.684  23.265  11.821
37232W        W 5626  35.966  34.143   1.177
37233W        W 5627  42.848   3.504  12.560
37234W        W 5628  14.344  44.806   2.735
37235W        W 5629   5.619  21.313   5.084
37236W        W 5630   0.774  12.621   0.736
37237W        W 5631  27.655   1.941  14.400
37238W        W 5632  30.454  16.641  10.427
37239W        W 5633  23.081   8.015  14.041
37240W        W 5634  41.423  32.869   2.307
37241W        W 5635  25.964  34.881  11.437
37242W        W 5636  40.611  31.048  11.594
37243W        W 5637   3.531  41.267  11.955
37244W        W 5638  42.626  10.607  14.317
37245W        W 5639   5.421  17.804  11.891
37246W        W 5640   8.901  20.693   3.175
37247W        W 5641   7.638  28.858   0.758
37248W        W 5642   1.226  34.929  13.957
37249W        W 5643  16.632  34.170   1.975
37250W        W 5644  43.989  15.070   2.089
37251W        W 5645  34.356   8.206  12.822
37252W        W 5646  44.208  30.827  14.339
37253W        W 5647  36.799  33.560   0.680
37254W        W 5648  12.849  16.764  10.769
37255W        W 5649  17.548  36.548  12.181
37256W        W 5650  24.148   8.452   0.852
37257W        W 5651  44.034  28.501  12.035
37258W        W 5652  37.034  19.778  12.033
37259W        W 5653   6.966  37.561   3.854
37260W        W 5654  40.096  10.050  11.605
37261W        W 5655  39.057  27.221  14.155
37262W        W 5656  34.586  24.053   3.349
37263W        W 5657  42.055   8.409   2.812
37264W        W 5658  42.319  23.597  12.148
37265W        W 5659   4.768  16.058   5.363
37266W        W 5660  20.755  19.638  10.830
37267W        W 5661  25.118  24.507   4.796
37268W        W 5662  14.742  26.969   1.465
37269W        W 5663  29.767  37.093   0.503
37270W        W 5664   3.510   8.169  13.194
37271W        W 5665  22.214  38.021  12.030
37272W        W 5666   0.453  26.263   4.051
37273W        W 5667  17.661  13.314   2.675
37274W        W 5668  29.106  14.622   2.673
37275W        W 5669  36.029  10.702  14.626
37276W        W 5670  23.158  20.279  12.218
37277W        W 5671  25.526  16.228   0.042
37278W        W 5672  10.822  31.601   3.673
37279W        W 5673  13.038  30.399  14.466
37280W        W 5674  35.988  32.135   0.981
37281W        W 5675  20.218  38.861  14.197
37282W        W 5676  32.492  14.699  12.384
37283W        W 5677  37.897   1.595   0.068
37284W        W 5678  39.825  16.831   3.696
37285W        W 5679  37.977  19.899  14.506
37286W        W 5680  15.687  19.584  14.069
37287W        W 5681  27.104   3.836  10.684
37288W        W 5682   2.824  34.313  13.932
37289W        W 5683  25.678  25.571   2.454
37290W        W 5684   5.737   7.963   0.693
37291W        W 5685  26.633   2.334  11.271
37292W        W 5686  27.316  27.577   4.101
37293W        W 5687   0.697  37.529  12.547
37294W        W 5688   3.142  22.151   3.646
37295W        W 5689  26.363  25.267   4.414
37296W        W 5690  35.928  43.502  10.639
37297W        W 5691  33.529  43.801  14.876
37298W        W 5692   4.485  34.328   4.156
37299W        W 5693  40.816  16.450   0.788
37300W        W 5694  35.141  43.435  14.787
37301W        W 5695  22.412  37.532  12.044
37302W        W 5696  12.637   7.153  10.241
37303W        W 5697   4.777   7.645  11.139
37304W        W 5698  44.280  10.788   1.778
37305W        W 5699  25.935  36.008   3.591
37306W        W 5700  40.216  28.698  12.402
37307W        W 5701   0.323   1.388   4.771
37308W        W 5702  15.681  20.538   0.656
37309W        W 5703  19.226  26.939  12.025
37310W        W 5704  15.352   6.599  13.991
37311W        W 5705   2.375   0.724  14.118
37312W        W 5706  43.253  35.126  13.852
37313W        W 5707  16.833  19.962   5.520
37314W        W 5708  10.685   9.271  12.765
37315W        W 5709  10.687   0.334  14.877
37316W        W 5710   2.518   1.010   1.744
37317W        W 5711  19.545  12.091  11.017
37318W        W 5712   2.669  26.622   9.949
37319W        W 5713   3.613  31.044  10.660
37320W        W 5714   3.128  43.460  14.232
37321W        W 5715  41.823   4.671   0.520
37322W        W 5716  27.653  15.300   3.721
37323W        W 5717  34.093  17.141  13.559
37324W        W 5718  36.876  16.804  13.745
37325W        W 5719  10.453  23.255  10.225
37326W        W 5720   7.928  21.210   0.495
37327W        W 5721  44.874  43.497  12.747
37328W        W 5722   8.662  26.022   1.233
37329W        W 5723  32.465  32.525  13.022
37330W        W 5724   9.660  37.912   1.682
37331W        W 5725   9.760  42.930   0.799
37332W        W 5726  17.730  26.507  11.075
37333W        W 5727   1.313  29.246  14.988
37334W        W 5728  24.290  33.547   1.744
37335W        W 5729  26.927  20.357   0.975
37336W        W 5730  13.738   4.671   4.293
37337W        W 5731  31.741  27.721  12.856
37338W        W 5732  11.332  35.869   0.394
37339W        W 5733  24.934  25.323  10.907
37340W        W 5734  21.777  25.650   3.068
37341W        W 5735   7.538  23.166  12.171
37342W        W 5736   9.648  20.683   2.395
37343W        W 5737  27.661   9.111  13.400
37344W        W 5738  12.905  14.199   3.361
37345W        W 5739   2.718   3.747  11.098
37346W        W 5740  39.335  43.455  11.957
37347W        W 5741  27.735  31.889   4.556
37348W        W 5742  23.050   8.325  11.644
37349W        W 5743  24.928   5.219  13.521
37350W        W 5744  39.783  30.450   4.484
37351W        W 5745  35.698  19.517   3.779
37352W        W 5746  22.134  43.444   0.818
37353W        W 5747  26.138  35.982   4.423
37354W        W 5748  31.371  38.744   0.241
37355W        W 5749  23.308  17.718  10.588
37356W        W 5750  44.959  34.073  12.565
37357W        W 5751  21.242   5.624   2.365
37358W        W 5752  11.615  44.898  11.483
37359W        W 5753   1.307  33.466   2.759
37360W        W 5754  31.529  35.119  11.579
37361W        W 5755  42.546  28.171   0.437
37362W        W 5756  15.232  32.907  12.606
37363W        W 5757  14.777  26.992  13.949
37364W        W 5758   6.567  34.662  12.388
37365W        W 5759  39.978   3.184  11.059
37366W        W 5760   9.710   5.754  12.034
37367W        W 5761  16.486  25.313   1.752
37368W        W 5762  38.867   3.887   3.713
37369W        W 5763  11.889  18.988   3.148
37370W        W 5764  34.093  37.501  13.572
37371W        W 5765  27.122   4.853  13.903
37372W        W 5766  17.205   6.823   4.593
37373W        W 5767  27.709   6.127  14.218
37374W        W 5768  23.434  21.224   4.795
37375W        W 5769   2.955  19.525  14.112
37376W        W 5770  23.411  25.464   4.632
37377W        W 5771  18.047  10.613  14.044
37378W        W 5772   0.285   0.935   1.954
37379W        W 5773  37.493  27.882   3.248
37380W        W 5774   3.977   0.507  14.372
37381W        W 5775  19.119  41.943   1.443
37382W        W 5776  10.306  24.179  14.308
37383W        W 5777  31.403  30.947  14.374
37384W        W 5778  36.940   9.341  11.663
37385W        W 5779   7.845  24.986  12.383
37386W        W 5780  39.992  21.064   3.810
37387W        W 5781   5.434   3.753   0.747
37388W        W 5782  12.895  43.267  12.091
37389W        W 5783  23.223   1.299   0.785
37390W        W 5784  39.844   5.759   1.839
37391W        W 5785  14.817  40.862   0.835
37392W        W 5786   7.267  15.164  13.954
37393W        W 5787  19.536   5.860  14.844
37394W        W 5788  17.923  19.670  12.409
37395W        W 5789  36.185  24.573  13.874
37396W        W 5790  36.772  19.055   2.756
37397W        W 5791  33.521  22.066  11.114
37398W        W 5792  32.720  12.531   4.735
37399W        W 5793  32.567   9.703   2.272
37400W        W 5794   7.179  34.018   1.517
37401W        W 5795  35.233   7.753  14.540
37402W        W 5796  43.421   4.747  12.618
37403W        W 5797  36.531  27.056  12.839
37404W        W 5798  11.331  40.960  13.438
37405W        W 5799   2.821   4.843   1.497
37406W        W 5800  21.980  10.273  13.287
37407W        W 5801  27.844  10.777  13.128
37408W        W 5802   4.322   4.008  11.363
37409W        W 5803   1.256  16.445   4.086
37410W        W 5804   0.183  39.928  10.511
37411W        W 5805  43.418  12.878  11.967
37412W        W 5806  41.826  10.278   4.511
37413W        W 5807  15.081  35.457   2.739
37414W        W 5808  29.045  42.006  11.217
37415W        W 5809   2.865  18.997  11.808
37416W        W 5810  42.296  32.627   4.068
37417W        W 5811   8.139   8.502  13.903
37418W        W 5812  18.823  16.016   5.050
37419W        W 5813  36.640  16.329  14.505
37420W        W 5814  12.231   4.039   2.840
37421W        W 5815  25.411  18.658  13.008
37422W        W 5816  14.473  23.721   3.751
37423W        W 5817  23.649  36.586  12.024
37424W        W 5818  23.703  23.665  11.093
37425W        W 5819  26.982  27.004   4.554
37426W        W 5820  43.474  28.990  11.742
37427W        W 5821  38.924  29.337   1.707
37428W        W 5822  43.316  43.960   4.628
37429W        W 5823  44.901  22.942   2.930
37430W        W 5824  25.045   4.418  10.907
37431W        W 5825  11.831  20.168  13.546
37432W        W 5826  26.984  31.177   1.838
37433W        W 5827   2.797  32.713  14.489
37434W        W 5828  42.385  17.521   2.613
37435W        W 5829  15.183  43.930   1.567
37436W        W 5830  14.268  18.456   5.133
37437W        W 5831  12.707  31.142  14.550
37438W        W 5832  13.563  31.738   0.683
37439W        W 5833  16.216  30.757  14.186
37440W        W 5834   0.642  43.376  11.159
37441W        W 5835   7.390   9.422  11.447
37442W        W 5836   9.870  36.658   0.726
37443W        W 5837  16.121  34.378   4.359
37444W        W 5838   4.395  38.988   3.140
37445W        W 5839  39.908  29.254   1.706
37446W        W 5840  23.819  30.400   1.978
37447W        W 5841  18.292  33.258  11.455
37448W        W 5842   1.158  40.931  10.803
37449W        W 5843   3.654  17.835   2.737
37450W        W 5844  24.219  15.027   0.873
37451W        W 5845  44.787  25.869   2.786
37452W        W 5846  24.115  12.185   0.339
37453W        W 5847  15.334   8.891   0.436
37454W        W 5848   7.006  38.307  13.544
37455W        W 5849  26.449   9.945   4.783
37456W        W 5850  33.994  20.590  11.305
37457W        W 5851   2.894  13.783   1.065
37458W        W 5852  23.268  35.458   2.011
37459W        W 5853  41.324  10.636   0.563
37460W        W 5854  40.530  21.629   0.294
37461W        W 5855  15.430   8.442   4.888
37462W        W 5856  34.990  36.003   2.706
37463W        W 5857  37.864  28.727   4.117
37464W        W 5858  16.872  33.434   2.203
37465W        W 5859  22.061  29.615   4.175
37466W        W 5860  33.919   9.710  14.067
37467W        W 5861  21.812  43.787  14.535
37468W        W 5862  44.348  24.954  12.391
37469W        W 5863  22.722  24.846  13.786
37470W        W 5864  18.183   1.884  12.106
37471W        W 5865   2.620  15.024  14.231
37472W        W 5866  33.985  29.845   0.338
37473W        W 5867  16.196  22.755   0.329
37474W        W 5868   2.999   1.038   2.642
37475W        W 5869  23.125   9.608   3.235
37476W        W 5870  26.944  31.989  12.285
37477W        W 5871  33.422  31.642  13.922
37478W        W 5872  19.735  12.325  14.093
37479W        W 5873   5.353  10.413   1.440
37480W        W 5874  33.779   7.270  10.387
37481W        W 5875   3.898  41.402   2.663
37482W        W 5876   3.748   8.764   0.405
37483W        W 5877  11.882  40.566   3.130
37484W        W 5878  16.741  18.264   2.227
37485W        W 5879   8.948  42.052  13.572
37486W        W 5880   2.167  40.997  13.228
37487W        W 5881  24.619   2.910  11.530
37488W        W 5882  28.443   6.470   2.668
37489W        W 5883  28.523  36.543  11.127
37490W        W 5884  27.684  35.361  13.996
37491W        W 5885  40.024  39.991  12.680
37492W        W 5886  36.767   9.839   4.164
37493W        W 5887  11.101   2.471   1.553
37494W        W 5888  40.295  25.939   1.263
37495W        W 5889   1.853   1.048  11.571
37496W        W 5890  28.151   9.250  12.055
37497W        W 5891  19.676  21.746  13.144
37498W        W 5892  39.605   8.145   2.415
37499W        W 5893  36.880  37.950   1.740
37500W        W 5894  10.606  19.206   1.956
37501W        W 5895   3.968  43.774   0.306
37502W        W 5896  19.876  25.051   0.382
37503W        W 5897  15.828  23.734  12.451
37504W        W 5898  18.686   7.625  10.365
37505W        W 5899  43.746  28.257   3.114
37506W        W 5900  33.901  14.341  13.468
37507W        W 5901  10.753  40.267   2.202
37508W        W 5902  21.490  11.091  13.411
37509W        W 5903   4.810  42.488   0.347
37510W        W 5904  12.725  21.602  13.111
37511W        W 5905  18.238   0.846  11.535
37512W        W 5906  31.831  26.196   0.319
37513W        W 5907   0.973   8.144  11.630
37514W        W 5908  17.155  21.856  14.973
37515W        W 5909  32.003   9.328  14.746
37516W        W 5910  39.839   2.718  12.036
37517W        W 5911  21.488   0.996   1.465
37518W        W 5912  29.695   8.863  10.299
37519W        W 5913  22.961  35.383   3.320
37520W        W 5914  11.611  32.387  10.696
37521W        W 5915   4.954  20.144  11.083
37522W        W 5916  34.021  32.800   2.752
37523W        W 5917  14.809  42.063  10.412
37524W        W 5918  26.361  20.152   1.668
37525W        W 5919  36.371  13.617  10.789
37526W        W 5920   2.152  17.259   4.166
37527W        W 5921  18.680  35.520  11.275
37528W        W 5922  22.577  39.445  12.794
37529W        W 5923  30.386  14.218   2.787
37530W        W 5924  18.709  30.097   0.648
37531W        W 5925  25.591  14.679   3.634
37532W        W 5926   1.088  41.283  14.735
37533W        W 5927  42.301  40.459   1.444
37534W        W 5928  31.616  11.424   0.493
37535W        W 5929  19.303  12.127   0.248
37536W        W 5930  21.566  34.297  12.050
37537W        W 5931  33.808  16.704  14.759
37538W        W 5932  14.089  12.879  14.926
37539W        W 5933  12.300  17.838  13.656
37540W        W 5934   0.125  14.669  14.013
37541W        W 5935  24.627  20.590   4.607
37542W        W 5936   2.488  36.871  14.274
37543W        W 5937   0.466   4.530   0.348
37544W        W 5938  24.422   8.862   1.769
37545W        W 5939  42.979  37.887   0.435
37546W        W 5940  40.544  20.089   4.435
37547W        W 5941  11.563  36.799   3.839
37548W        W 5942  26.078  24.798   1.224
37549W        W 5943  22.701   2.756   0.347
37550W        W 5944  35.776   8.230   0.677
37551W        W 5945   7.062  23.103   1.860
37552W        W 5946  22.151   7.692   3.074
37553W        W 5947  33.022  30.696   1.218
37554W        W 5948  33.826  25.528   1.864
37555W        W 5949  31.568  30.638   3.281
37556W        W 5950  29.093  14.210  11.727
37557W        W 5951  16.898  38.951  11.124
37558W        W 5952  29.885   5.670   1.238
37559W        W 5953  23.195  31.339  12.123
37560W        W 5954  23.151  26.103   4.651
37561W        W 5955   4.054   3.568   9.863
37562W        W 5956  26.047  15.538   4.132
37563W        W 5957  42.895  33.091  12.275
37564W        W 5958  15.026  39.083  10.703
37565W        W 5959  33.660  33.495  10.976
37566W        W 5960  16.904  36.845   3.167
37567W        W 5961  13.804  32.806   2.871
37568W        W 5962  26.093   7.081  12.327
37569W        W 5963  22.477  33.557  12.107
37570W        W 5964  27.737   0.267  12.096
37571W        W 5965  31.854  43.253   0.809
37572W        W 5966  36.877  18.546  11.058
37573W        W 5967   8.401  44.419  12.098
37574W        W 5968  42.015  33.884   0.532
37575W        W 5969  24.089  41.506   3.773
37576W        W 5970  42.846  37.593   4.016
37577W        W 5971   6.519  29.993  13.366
37578W        W 5972   7.267  36.588  10.735
37579W        W 5973  23.619  12.535   2.900
37580W        W 5974  30.956  39.895   3.295
37581W        W 5975  11.916   1.726   4.687
37582W        W 5976  37.841  40.060  12.932
37583W        W 5977  11.229  32.606   3.553
37584W        W 5978  41.369  12.247   3.208
37585W        W 5979  41.777  24.465   5.063
37586W        W 5980  33.085  19.228  12.562
37587W        W 5981   4.378  26.737  11.563
37588W        W 5982   3.719  18.167   3.192
37589W        W 5983  23.202   9.126   1.740
37590W        W 5984   9.092  17.632   3.934
37591W        W 5985  36.620  33.646  11.598
37592W        W 5986  21.561  18.318  14.054
37593W        W 5987  39.117  41.564  12.942
37594W        W 5988  10.178  13.700   3.660
37595W        W 5989  11.841  33.180  14.942
37596W        W 5990   6.852  26.001  13.278
37597W        W 5991  37.543  27.998   4.985
37598W        W 5992  32.151  29.948   0.720
37599W        W 5993  10.859  11.281   4.116
37600W        W 5994   4.106  38.834   2.175
37601W        W 5995   9.499   0.271  10.939
37602W        W 5996  31.959   2.974   0.935
37603W        W 5997  12.868   0.872  11.149
37604W        W 5998  33.388  10.406  14.889
37605W        W 5999  36.035  14.751   2.932
37606W        W 6000  14.845  38.030   2.267
37607W        W 6001  35.809  27.437  10.914
37608W        W 6002  21.590  28.856   1.913
37609W        W 6003  27.440  21.170  11.478
37610W        W 6004  17.260  31.476  12.846
37611W        W 6005   7.922  16.089  13.481
37612W        W 6006  38.974  31.545  14.839
37613W        W 6007  17.983   9.333  12.210
37614W        W 6008  32.116  18.002   0.426
37615W        W 6009  42.705   7.230  11.155
37616W        W 6010   0.218  19.705   1.367
37617W        W 6011  10.287  34.363   4.795
37618W        W 6012   9.897  13.270   3.787
37619W        W 6013  42.721  37.793  11.617
37620W        W 6014  11.574  36.775  13.888
37621W        W 6015  24.068  18.717  14.125
37622W        W 6016  28.603   5.406   4.684
37623W        W 6017  41.380  22.060   0.315
37624W        W 6018   7.590  25.199  13.414
37625W        W 6019  42.276  27.916  13.942
37626W        W 6020   7.397  35.777   2.759
37627W        W 6021   9.981   9.886  10.613
37628W        W 6022  40.755  23.548  10.423
37629W        W 6023   9.123  19.590   2.794
37630W        W 6024  40.438  31.073   4.724
37631W        W 6025  38.085  29.162   2.367
37632W        W 6026  40.315  10.313  12.606
37633W        W 6027  11.872  30.880   2.227
37634W        W 6028  44.355  20.705  12.098
37635W        W 6029  39.104  11.161  11.611
37636W        W 6030   3.256  44.447  11.044
37637W        W 6031  13.264  19.940  10.468
37638W        W 6032   1.753   8.732   4.498
37639W        W 6033  24.129  42.732   1.442
37640W        W 6034  40.596  37.661   0.978
37641W        W 6035   7.835   0.955  12.625
37642W        W 6036   2.837  17.553  11.733
37643W        W 6037  36.983   7.832   3.351
37644W        W 6038  12.759  15.181  11.172
37645W        W 6039   5.298   8.876  10.600
37646W        W 6040  18.290  40.352   4.097
37647W        W 6041  12.789  37.874  12.491
37648W        W 6042  17.963  31.892  14.883
37649W        W 6043  16.397  38.152  10.873
37650W        W 6044  44.551  38.049   4.186
37651W        W 6045  31.107  38.475  11.344
37652W        W 6046  21.779  29.216   2.872
37653W        W 6047  34.231  33.900   2.066
37654W        W 6048  27.440  38.116   1.330
37655W        W 6049  43.440   4.915   0.760
37656W        W 6050  38.139  15.792  11.627
37657W        W 6051  37.546  34.890  11.545
37658W        W 6052  32.584  21.826  11.504
37659W        W 6053  15.524  36.676  10.639
37660W        W 6054  43.290   3.110  10.390
37661W        W 6055  32.693  34.544  10.980
37662W        W 6056  17.207  30.445   0.024
37663W        W 6057  38.018  21.816   4.752
37664W        W 6058  26.576  25.129  13.875
37665W        W 6059  10.675   5.435   4.917
37666W        W 6060  44.241  25.115  11.488
37667W        W 6061  35.901   9.473  13.161
37668W        W 6062   1.257   6.707   1.246
37669W        W 6063  14.140  33.735   1.363
37670W        W 6064   7.500  27.054   2.039
37671W        W 6065  25.510  23.792   1.921
37672W        W 6066  24.251  40.307   2.173
37673W        W 6067  37.876  31.195   0.300
37674W        W 6068  36.557  36.448   4.196
37675W        W 6069   0.506   8.336  11.461
37676W        W 6070   6.822  41.053   0.444
37677W        W 6071   6.197  19.674  10.513
37678W        W 6072   2.352   3.372   0.504
37679W        W 6073  19.833   8.376  12.072
37680W        W 6074  33.146  21.668  12.454
37681W        W 6075   6.424   2.932  12.455
37682W        W 6076   6.891   2.636  13.358
37683W        W 6077  19.528  38.551  11.096
37684W        W 6078  19.561  40.084   4.183
37685W        W 6079  28.150  26.294   3.088
37686W        W 6080  28.366   8.621  12.389
37687W        W 6081  10.445  13.070  13.506
37688W        W 6082  44.973  11.374  11.987
37689W        W 6083  20.337  39.146   4.134
37690W        W 6084  37.759  21.745  14.148
37691W        W 6085  14.283  43.935   2.825
37692W        W 6086  20.180  37.570  12.394
37693W        W 6087  28.945  26.132   2.205
37694W        W 6088   8.218   8.322  13.406
37695W        W 6089  26.523  32.030   2.213
37696W        W 6090  39.028  23.668  11.185
37697W        W 6091   6.687  21.634  11.116
37698W        W 6092  10.098  21.555   2.963
37699W        W 6093  28.602  39.737  12.372
37700W        W 6094  29.395  14.264   2.937
37701W        W 6095  23.144  38.368   0.332
37702W        W 6096  34.554  16.556   3.179
37703W        W 6097   3.641   5.708   2.713
37704W        W 6098  40.829  16.539   3.073
37705W        W 6099  33.369   0.932   1.819
37706W        W 6100  28.397  18.150  10.686
37707W        W 6101  29.326  40.553  13.063
37708W        W 6102  26.065  40.691   0.876
37709W        W 6103   9.365   1.924  14.459
37710W        W 6104   0.490   9.358   1.756
37711W        W 6105   0.019  12.043  11.136
37712W        W 6106  42.172   1.725   1.302
37713W        W 6107   3.423   5.231  12.828
37714W        W 6108  40.303  12.434   4.195
37715W        W 6109  14.590  38.007   0.364
37716W        W 6110   9.193  13.614  10.773
37717W        W 6111  11.669  12.759  13.673
37718W        W 6112   1.920  32.016   4.114
37719W        W 6113  34.563   3.376   3.874
37720W        W 6114  14.548   7.381   3.135
37721W        W 6115  14.614  38.375   1.400
37722W        W 6116  33.255  30.183   3.801
37723W        W 6117  40.344  15.216  10.669
37724W        W 6118  31.002   1.835  11.658
37725W        W 6119   4.955  37.308  10.869
37726W        W 6120  40.770  41.421  14.455
37727W        W 6121  20.270  36.083  12.122
37728W        W 6122  44.448   8.718   3.678
37729W        W 6123  38.820   7.420   2.869
37730W        W 6124   6.761  11.008   0.230
37731W        W 6125   0.404  22.805   4.553
37732W        W 6126  22.547  36.448   5.041
37733W        W 6127   3.448  41.917   1.782
37734W        W 6128  12.479  17.721   3.359
37735W        W 6129  15.533  15.742  11.517
37736W        W 6130  15.765  34.607  12.207
37737W        W 6131  26.206  42.880   5.766
37738W        W 6132  31.982  27.383   2.781
37739W        W 6133  35.312  17.778   2.240
37740W        W 6134   0.901   9.356  10.693
37741W        W 6135  37.358  40.496  13.601
37742W        W 6136  22.788  17.206   4.974
37743W        W 6137   5.220  31.114  11.220
37744W        W 6138  26.707  36.992  14.401
37745W        W 6139   3.926  21.214   3.248
37746W        W 6140  24.370  33.100  14.034
37747W        W 6141  33.009  34.381  12.609
37748W        W 6142   5.989  26.224   4.143
37749W        W 6143  26.601   1.048   1.920
37750W        W 6144  13.683  30.840  12.892
37751W        W 6145  44.856  22.777   4.185
37752W        W 6146  23.588  11.375  12.536
37753W        W 6147  28.452  31.665  12.982
37754W        W 6148  44.380   6.596  11.615
37755W        W 6149   2.111   3.253  14.461
37756W        W 6150  36.787  29.615  11.521
37757W        W 6151  34.824   6.554  10.627
37758W        W 6152  32.427  43.793  11.145
37759W        W 6153  14.114  31.047   1.806
37760W        W 6154   0.266  28.172  11.314
37761W        W 6155  38.371   5.946   1.879
37762W        W 6156   8.450  40.924   3.970
37763W        W 6157  36.810  31.582   4.438
37764W        W 6158  31.493  10.718  13.553
37765W        W 6159   2.096  18.384   4.578
37766W        W 6160  31.999   1.881  10.625
37767W        W 6161   6.591  26.166  10.391
37768W        W 6162   1.772  16.649   2.172
37769W        W 6163  40.076  32.500   2.748
37770W        W 6164   5.577  23.307  11.055
37771W        W 6165  42.766  27.249  13.894
37772W        W 6166  36.951  36.788   2.706
37773W        W 6167  39.847  36.628  14.819
37774W        W 6168  36.951  27.771  12.901
37775W        W 6169  20.219  40.050   1.251
37776W        W 6170  32.445  17.775  12.957
37777W        W 6171  42.771   9.632   3.231
37778W        W 6172  17.411  21.107   1.043
37779W        W 6173  12.077  34.505   2.867
37780W        W 6174   4.793  20.201  13.320
37781W        W 6175  33.112  22.995  11.212
37782W        W 6176  36.373  22.784  14.459
37783W        W 6177  19.302   0.304  14.458
37784W        W 6178  15.375  31.332  11.921
37785W        W 6179  16.771  19.580  11.478
37786W        W 6180   5.225  24.093   9.850
37787W        W 6181   9.372  42.149  14.278
37788W        W 6182  41.275  17.555  13.938
37789W        W 6183  35.991  14.586  13.820
37790W        W 6184  16.165  25.689   3.316
37791W        W 6185  43.490  24.983  12.581
37792W        W 6186  25.737  34.221   3.784
37793W        W 6187   2.489   7.748  10.447
37794W        W 6188  31.733  43.427   1.666
37795W        W 6189  31.331  33.336  12.850
37796W        W 6190  40.789   1.475  12.142
37797W        W 6191  40.683  25.435  11.227
37798W        W 6192  28.417  26.439   0.912
37799W        W 6193  15.183  33.421  12.629
37800W        W 6194   9.068  33.324  11.995
37801W        W 6195  31.436   8.413   2.756
37802W        W 6196  44.457  37.514  11.300
37803W        W 6197   9.262  40.308  10.843
37804W        W 6198  32.081  35.674  13.924
37805W        W 6199  10.419  32.374  14.209
37806W        W 6200  22.563  29.099   4.676
37807W        W 6201  37.828  30.092  11.528
37808W        W 6202  23.433  38.309  13.268
37809W        W 6203  29.739  35.480  12.457
37810W        W 6204   6.887  24.277  14.965
37811W        W 6205  24.496  23.647  13.139
37812W        W 6206  33.255  32.887   0.895
37813W        W 6207  14.664  19.295  13.887
37814W        W 6208  34.952  17.329   4.554
37815W        W 6209  29.857   5.431   0.193
37816W        W 6210   6.194  40.798   0.363
37817W        W 6211  15.084  30.609   2.480
37818W        W 6212   3.303  32.413   1.162
37819W        W 6213  42.871  21.099   0.034
37820W        W 6214  20.236  39.166   5.008
37821W        W 6215  35.357  33.986  12.536
37822W        W 6216  25.646  15.232  12.413
37823W        W 6217  36.307  33.194   1.798
37824W        W 6218  17.228  35.176   3.752
37825W        W 6219  44.385  37.413  11.805
37826W        W 6220  34.307  33.991  11.349
37827W        W 6221  18.205  30.497  10.939
37828W        W 6222  23.115  31.814   1.479
37829W        W 6223  34.883  30.690  12.229
37830W        W 6224  10.583  15.192  11.222
37831W        W 6225  11.705  17.308  10.213
37832W        W 6226  28.610  15.802   1.157
37833W        W 6227  19.448  16.127  11.411
37834W        W 6228   0.723  43.538  10.677
37835W        W 6229  34.699   7.789  14.956
37836W        W 6230  41.770  33.414  12.561
37837W        W 6231  11.906  29.549  13.943
37838W        W 6232  39.693   8.019  11.678
37839W        W 6233  18.145  19.147  14.663
37840W        W 6234  27.972  31.948   4.086
37841W        W 6235  34.387   4.167  13.710
37842W        W 6236  25.934   1.531   4.605
37843W        W 6237  42.797   3.585   4.032
37844W        W 6238  36.281  24.422   0.222
37845W        W 6239  20.203  29.718  14.907
37846W        W 6240  14.364  11.697   2.799
37847W        W 6241  39.012  20.130   3.368
37848W        W 6242  29.248  26.501   4.576
37849W        W 6243  11.438  18.723  11.214
37850W        W 6244  22.335   4.716   4.135
37851W        W 6245  42.950   8.763  11.630
37852W        W 6246  43.538  31.946  13.193
37853W        W 6247   9.704   4.346   0.309
37854W        W 6248  38.519  18.813   0.729
37855W        W 6249  14.586  32.207  14.837
37856W        W 6250  31.613   0.490  10.651
37857W        W 6251  11.173  17.580   4.744
37858W        W 6252  16.281  37.806  12.536
37859W        W 6253   0.414  24.064   4.594
37860W        W 6254   6.903   9.205  12.159
37861W        W 6255  15.817  11.200  10.711
37862W        W 6256   8.062  17.985  14.997
37863W        W 6257  26.817  41.736  13.662
37864W        W 6258   1.699  27.134  12.536
37865W        W 6259  13.353  16.620  12.027
37866W        W 6260  40.587  41.622   0.869
37867W        W 6261   4.283   1.904   2.249
37868W        W 6262  27.627  16.829  11.158
37869W        W 6263  35.066  14.987  12.738
37870W        W 6264  17.084  34.414   3.187
37871W        W 6265  23.166  42.126  10.738
37872W        W 6266  36.012  29.390  14.089
37873W        W 6267   3.403  17.953  12.916
37874W        W 6268  33.083  27.607  14.286
37875W        W 6269   4.211  39.108  12.490
37876W        W 6270  11.789   2.821  10.741
37877W        W 6271   3.630  34.630  12.976
37878W        W 6272  44.596   6.466  14.033
37879W        W 6273  36.943  31.618   0.462
37880W        W 6274  35.894  44.770   1.905
37881W        W 6275   4.794  27.715  14.722
37882W        W 6276  41.828  39.487  12.565
37883W        W 6277  29.381  16.129   2.632
37884W        W 6278  17.210   7.331  14.770
37885W        W 6279  40.616  26.805  13.343
37886W        W 6280  24.645  22.545  14.519
37887W        W 6281  11.397  37.628   1.387
37888W        W 6282  43.553  37.902   1.969
37889W        W 6283   1.326   7.603  14.341
37890W        W 6284  29.670  35.566   1.295
37891W        W 6285   5.770  42.564   0.500
37892W        W 6286  32.394  26.484   2.572
37893W        W 6287   1.457   5.780  11.621
37894W        W 6288  31.196  40.353  13.472
37895W        W 6289  35.367   4.677   3.708
37896W        W 6290  43.448  37.618  13.809
37897W        W 6291  39.145  44.744  13.499
37898W        W 6292   1.173  15.617  13.462
37899W        W 6293  43.469  37.082  13.790
37900W        W 6294  23.586  35.168   1.737
37901W        W 6295  35.892   9.179   3.467
37902W        W 6296  37.430  43.044   3.085
37903W        W 6297   7.123  16.872  11.688
37904W        W 6298  25.162  32.461   2.720
37905W        W 6299  29.593  41.972  13.435
37906W        W 6300  36.600  28.846  13.440
37907W        W 6301  17.939  17.630  10.817
37908W        W 6302  21.589  20.933   3.431
37909W        W 6303  23.702   4.432  11.460
37910W        W 6304   4.224  40.861  13.444
37911W        W 6305  41.274  15.337  11.734
37912W        W 6306  21.303  36.972   0.651
37913W        W 6307  12.956   2.477  11.523
37914W        W 6308  43.992  20.571  10.735
37915W        W 6309  35.668  31.408  14.770
37916W        W 6310  11.844  21.505   4.353
37917W        W 6311   6.114  26.520   2.661
37918W        W 6312   0.481  36.626  10.194
37919W        W 6313  26.816   9.322  14.380
37920W        W 6314  39.520   6.883   1.792
37921W        W 6315  34.959  29.152  14.254
37922W        W 6316  21.250  22.189  12.975
37923W        W 6317  37.175  17.659  13.862
37924W        W 6318  33.087  43.373   1.251
37925W        W 6319  17.570   7.315  14.370
37926W        W 6320  28.613  22.520  11.155
37927W        W 6321  25.936   3.585   3.643
37928W        W 6322  24.205  17.174   0.995
37929W        W 6323  43.247   3.776  13.284
37930W        W 6324   5.179  23.020  10.954
37931W        W 6325  40.392   0.754   2.115
37932W        W 6326  42.480  30.426  11.602
37933W        W 6327  27.075  37.497  13.381
37934W        W 6328  24.700  17.200   1.934
37935W        W 6329  36.528  36.598  13.047
37936W        W 6330   5.244   1.465  11.681
37937W        W 6331  22.207   2.494  12.194
37938W        W 6332  27.690  30.718  14.299
37939W        W 6333  44.801   9.418  14.562
37940W        W 6334  14.057  37.479  11.125
37941W        W 6335  36.965  21.766   3.358
37942W        W 6336   1.844  18.041   2.898
37943W        W 6337  30.356  30.499   3.832
37944W        W 6338  35.324   7.282   4.639
37945W        W 6339  13.652   7.315   0.045
37946W        W 6340  38.033  36.872   4.174
37947W        W 6341  10.058   9.714   0.140
37948W        W 6342  28.609  14.339  11.563
37949W        W 6343  27.874  11.436  12.597
37950W        W 6344  25.768  21.205  13.390
37951W        W 6345  38.780  44.909  13.884
37952W        W 6346  38.382   9.167  11.695
37953W        W 6347  18.815   4.143   1.729
37954W        W 6348   3.440  35.943  13.833
37955W        W 6349  21.850  39.314   0.831
37956W        W 6350  38.096  11.351   2.121
37957W        W 6351  24.615  34.538  11.083
37958W        W 6352   8.357  25.153  11.647
37959W        W 6353   3.881  16.446   2.002
37960W        W 6354  14.839  22.563  13.281
37961W        W 6355  26.581  17.205   2.090
37962W        W 6356  28.684   3.160   2.163
37963W        W 6357  25.141   4.681   2.809
37964W        W 6358   4.510  37.661  12.554
37965W        W 6359  40.321  30.924  13.607
37966W        W 6360   4.189  39.515   3.202
37967W        W 6361  32.357  35.012   1.872
37968W        W 6362  17.930   8.728   1.444
37969W        W 6363  39.735  25.299  14.260
37970W        W 6364   9.982  33.949  10.873
37971W        W 6365  33.466  15.234  10.705
37972W        W 6366  19.284   8.659  12.507
37973W        W 6367  15.589  36.119   1.280
37974W        W 6368  11.594  11.360   1.632
37975W        W 6369  42.188  10.313   2.220
37976W        W 6370  16.729  20.317  14.717
37977W        W 6371  37.583   6.210   0.458
37978W        W 6372  24.737  29.633  13.015
37979W        W 6373  26.532  19.634  14.994
37980W        W 6374  39.272   9.761   1.391
37981W        W 6375   0.833  22.591  11.959
37982W        W 6376  40.415  12.759  12.290
37983W        W 6377  33.540  24.995  14.498
37984W        W 6378  43.978  21.731  14.993
37985W        W 6379  14.845   2.193  14.372
37986W        W 6380   4.233  18.291  14.511
37987W        W 6381  28.131  21.502   2.570
37988W        W 6382  26.269   4.322   0.770
37989W        W 6383  43.398   7.793  12.772
37990W        W 6384   7.368  14.212   3.250
37991W        W 6385  34.049  26.176  14.970
37992W        W 6386  16.278  38.903   3.800
37993W        W 6387  38.382  11.387   1.675
37994W        W 6388   2.762  20.734   1.266
37995W        W 6389  43.665   6.154  12.971
37996W        W 6390  42.637  20.650  10.742
37997W        W 6391  23.252   4.004   1.073
37998W        W 6392  23.649  10.944   3.131
37999W        W 6393  10.635  30.148  14.361
38000W        W 6394  15.575  40.399  10.858
38001W        W 6395  37.506  21.267   4.905
38002W        W 6396  20.679  12.910  14.311
38003W        W 6397   2.366  26.517  12.130
38004W        W 6398   8.952   8.390  13.014
38005W        W 6399  21.690  11.821   2.184
38006W        W 6400   5.481  28.461   2.854
38007W        W 6401  38.866  15.650  13.397
38008W        W 6402  37.570  11.860   3.872
38009W        W 6403  32.081   3.060   0.417
38010W        W 6404   0.549  39.321   9.936
38011W        W 6405  16.042  42.623  12.973
38012W        W 6406  19.376  18.841   4.675
38013W        W 6407  17.077  24.150   4.615
38014W        W 6408  17.658   5.045   4.967
38015W        W 6409  42.684   1.179   2.709
38016W        W 6410   2.310  11.654   0.018
38017W        W 6411  34.880  14.090   2.312
38018W        W 6412  26.251   1.048   4.511
38019W        W 6413   6.119  22.234   0.859
38020W        W 6414   2.408  25.520   1.297
38021W        W 6415  29.423  42.854  10.771
38022W        W 6416  22.028  18.797   1.333
38023W        W 6417  44.481  16.577  13.460
38024W        W 6418  44.362   1.885  11.194
38025W        W 6419  44.683   6.203   1.878
38026W        W 6420   2.942  16.809   0.993
38027W        W 6421  15.528  40.753  10.145
38028W        W 6422   5.915  21.055  13.868
38029W        W 6423  27.119   2.666  14.776
38030W        W 6424   4.218  23.294  13.845
38031W        W 6425  41.439  37.014   0.731
38032W        W 6426  16.179  16.217  12.164
38033W        W 6427  22.266  30.447  10.808
38034W        W 6428   2.253   9.352  12.985
38035W        W 6429  15.006   9.667   3.086
38036W        W 6430   2.278  24.238  12.034
38037W        W 6431  10.014   1.507  12.356
38038W        W 6432  22.878   1.881   2.981
38039W        W 6433  29.694  28.026  12.097
38040W        W 6434   3.012  22.132   0.351
38041W        W 6435  10.125   1.168  11.029
38042W        W 6436  13.469  28.437   4.210
38043W        W 6437  25.773  15.541   3.692
38044W        W 6438  12.213  17.707  11.349
38045W        W 6439  17.167   4.344   0.495
38046W        W 6440  15.679   0.333  14.091
38047W        W 6441  32.890  10.758   0.197
38048W        W 6442  18.356  17.126  12.950
38049W        W 6443  40.327  42.811   1.838
38050W        W 6444   5.430   1.752   1.751
38051W        W 6445  35.060  22.036  13.785
38052W        W 6446  23.501   6.406   0.218
38053W        W 6447  12.705  25.324   1.792
38054W        W 6448  33.638  32.470  12.649
38055W        W 6449  28.903  11.207  12.515
38056W        W 6450  42.838  18.522  14.631
38057W        W 6451  17.333  18.167  12.842
38058W        W 6452   2.882  37.819  11.947
38059W        W 6453  10.608  37.343   4.288
38060W        W 6454  39.049  10.853  14.650
38061W        W 6455  26.264  15.613  10.704
38062W        W 6456  16.325  12.798   3.639
38063W        W 6457  43.793  20.001   3.673
38064W        W 6458  31.334  42.869   2.715
38065W        W 6459  21.166  33.036   0.049
38066W        W 6460  22.577  21.641   0.571
38067W        W 6461  42.036  26.556  14.385
38068W        W 6462  41.243  21.289   1.759
38069W        W 6463  40.269  42.099  11.631
38070W        W 6464  29.203  27.114  12.023
38071W        W 6465  31.688  31.413   0.418
38072W        W 6466  30.678  38.526  11.089
38073W        W 6467  17.921   3.805  12.380
38074W        W 6468  44.402  39.468  10.598
38075W        W 6469  44.574  15.146   4.289
38076W        W 6470  36.924  24.700   3.060
38077W        W 6471  34.135  41.991  13.381
38078W        W 6472   0.007  16.703   2.706
38079W        W 6473  30.617  28.469  11.659
38080W        W 6474  37.810  27.953  10.985
38081W        W 6475  25.046  34.962   3.692
38082W        W 6476  15.645  14.585   1.715
38083W        W 6477  25.671  20.823  11.555
38084W        W 6478  42.243  20.581   2.626
38085W        W 6479  26.082   4.413   2.124
38086W        W 6480  37.462   0.916   1.058
38087W        W 6481  20.155  24.268   0.998
38088W        W 6482  38.517  32.484  12.519
38089W        W 6483  18.165  13.551   4.244
38090W        W 6484  35.591  32.557  13.804
38091W        W 6485  28.079  44.551  12.869
38092W        W 6486  15.285  32.641  13.104
38093W        W 6487  40.998  29.638  14.386
38094W        W 6488   0.388  39.939  11.879
38095W        W 6489  31.044   7.085   5.021
38096W        W 6490  27.990   6.558   4.107
38097W        W 6491  21.187  18.252   3.600
38098W        W 6492  36.464  12.265  11.402
38099W        W 6493  18.440   2.885   3.658
38100W        W 6494  20.323  12.237  10.576
38101W        W 6495  44.447  32.314  13.725
38102W        W 6496  29.603  13.588   4.644
38103W        W 6497  34.363   4.451  12.078
38104W        W 6498  30.906  16.147  14.970
38105W        W 6499   8.814  17.269   4.454
38106W        W 6500  24.051   3.225  13.116
38107W        W 6501  31.466  42.953   1.721
38108W        W 6502  20.524  12.758  12.588
38109W        W 6503  39.654  21.943   1.363
38110W        W 6504   0.411  23.702  14.310
38111W        W 6505  17.914  37.790   1.269
38112W        W 6506   0.240  21.788   0.453
38113W        W 6507  44.431  41.302  12.985
38114W        W 6508   5.704   4.645  14.552
38115W        W 6509  33.992  15.930  12.316
38116W        W 6510  13.229  36.109   1.808
38117W        W 6511   5.315  16.514   1.081
38118W        W 6512  39.535  40.273   2.609
38119W        W 6513  35.166   8.304  14.519
38120W        W 6514   8.835  27.944   2.990
38121W        W 6515  36.123   7.895   2.649
38122W        W 6516  31.756  16.162  13.648
38123W        W 6517  24.269  40.631   0.419
38124W        W 6518  12.805   9.664  13.174
38125W        W 6519   7.658  12.363   1.220
38126W        W 6520  14.175  29.688   4.124
38127W        W 6521  16.010  20.247   9.956
38128W        W 6522   2.939  21.670   1.624
38129W        W 6523  10.910   0.919  10.896
38130W        W 6524  12.144  21.269   0.582
38131W        W 6525  12.789  29.258  14.420
38132W        W 6526  28.103  29.758  12.854
38133W        W 6527   9.306  15.810  11.662
38134W        W 6528  30.502  35.610  10.779
38135W        W 6529  11.923  42.832  12.693
38136W        W 6530  20.399  19.081  11.962
38137W        W 6531  19.644  32.420   4.241
38138W        W 6532   6.647  14.643   3.336
38139W        W 6533  42.851  31.133   2.453
38140W        W 6534   3.282   5.519   0.395
38141W        W 6535  40.103   2.243  14.003
38142W        W 6536  19.422  30.999  10.767
38143W        W 6537  31.421  13.309   3.206
38144W        W 6538  39.772  27.064   2.319
38145W        W 6539  10.643  14.284  13.136
38146W        W 6540  20.511   2.949  12.512
38147W        W 6541   6.645   6.187   4.234
38148W        W 6542  20.172  33.077   0.227
38149W        W 6543  34.550   1.538  11.543
38150W        W 6544  38.674   0.819  14.072
38151W        W 6545   3.744  43.882  14.848
38152W        W 6546  14.251  36.062   4.616
38153W        W 6547   5.845  37.149  12.980
38154W        W 6548  31.651  19.153  11.204
38155W        W 6549  20.556   9.359   0.724
38156W        W 6550  19.386  34.007   4.033
38157W        W 6551  13.280  29.192  11.783
38158W        W 6552  33.349  23.381  13.225
38159W        W 6553   0.406  34.011   4.069
38160W        W 6554  41.271  42.319   0.896
38161W        W 6555   0.950  37.423   5.043
38162W        W 6556  18.859  23.538   4.662
38163W        W 6557  25.044   5.979   3.148
38164W        W 6558  15.470   7.199   0.776
38165W        W 6559   5.813  29.542  13.055
38166W        W 6560   1.262  17.700  13.347
38167W        W 6561   7.435  39.773  14.980
38168W        W 6562  24.984  18.305  13.071
38169W        W 6563  25.680  41.015  11.133
38170W        W 6564  27.671  11.162  14.377
38171W        W 6565   6.650  15.736  11.099
38172W        W 6566  27.102  42.176  13.587
38173W        W 6567  20.476  40.723  14.482
38174W        W 6568  15.742  21.745   1.950
38175W        W 6569  29.175  10.630   1.035
38176W        W 6570  35.408  42.901   2.445
38177W        W 6571  40.532  41.466   4.734
38178W        W 6572  15.604  17.112   2.099
38179W        W 6573   4.769  27.432   3.150
38180W        W 6574  39.275  14.149  10.223
38181W        W 6575  42.702   8.847   0.180
38182W        W 6576  28.086   0.045  10.378
38183W        W 6577  37.379  31.962  13.535
38184W        W 6578  30.550  21.905   3.845
38185W        W 6579   3.016  12.107  12.177
38186W        W 6580  32.524  12.372  11.686
38187W        W 6581   3.362  11.898  12.980
38188W        W 6582  38.167  41.109   3.187
38189W        W 6583  13.762  11.630  12.142
38190W        W 6584  26.675   1.147  10.662
38191W        W 6585  24.377   0.437   2.069
38192W        W 6586  25.741  12.338   2.796
38193W        W 6587   4.318  43.917  13.460
38194W        W 6588   0.057  31.344   2.741
38195W        W 6589  18.826   7.756   9.882
38196W        W 6590  19.609  31.655  13.419
38197W        W 6591   1.480   7.905   1.240
38198W        W 6592   7.711   5.721  12.087
38199W        W 6593  28.187  29.801  12.021
38200W        W 6594  10.198  37.637   4.093
38201W        W 6595  32.107  11.131   3.072
38202W        W 6596   7.756  17.616   2.669
38203W        W 6597  42.441  24.689  13.658
38204W        W 6598  18.070  39.872   3.285
38205W        W 6599  34.379  26.931   0.420
38206W        W 6600  36.843  39.774  14.084
38207W        W 6601  37.819   8.713  12.975
38208W        W 6602  25.075   9.645   0.853
38209W        W 6603  12.560  34.392   1.960
38210W        W 6604  20.454  11.158  13.074
38211W        W 6605  30.035  37.811   3.601
38212W        W 6606  42.405  34.538   1.999
38213W        W 6607   1.974  29.697  10.595
38214W        W 6608  19.522  36.865  10.624
38215W        W 6609  12.853  11.504   1.320
38216W        W 6610  13.672  13.020  14.634
38217W        W 6611   5.420  24.255  10.326
38218W        W 6612  30.590  26.848   0.543
38219W        W 6613   2.209   7.231   2.853
38220W        W 6614   4.898  19.268  10.297
38221W        W 6615  35.268  38.056  12.090
38222W        W 6616   9.478  37.719   3.639
38223W        W 6617  22.661  16.748   3.282
38224W        W 6618  26.546  43.465  14.798
38225W        W 6619  11.326  16.771   1.044
38226W        W 6620  41.640  16.206  14.440
38227W        W 6621   0.022  15.932  14.163
38228W        W 6622  39.666  32.729   2.312
38229W        W 6623  28.042  26.223  11.588
38230W        W 6624  44.348   8.119  12.966
38231W        W 6625  28.046  36.030   4.702
38232W        W 6626   7.152  35.710  12.187
38233W        W 6627  16.521  34.465  12.556
38234W        W 6628  22.581   6.312  14.324
38235W        W 6629  25.451  28.085   2.923
38236W        W 6630  16.315  22.533   2.985
38237W        W 6631   4.093  28.956  12.573
38238W        W 6632  38.628  28.421  12.927
38239W        W 6633   4.270  27.803  13.897
38240W        W 6634  17.721   6.203   4.513
38241W        W 6635  38.064  24.001   4.229
38242W        W 6636   4.979  33.948  14.338
38243W        W 6637  29.692   2.277  14.251
38244W        W 6638  41.245  32.898  12.180
38245W        W 6639  33.014   4.498  12.876
38246W        W 6640  28.367  25.728  11.914
38247W        W 6641  37.916  21.508   4.144
38248W        W 6642  11.815  18.255   2.192
38249W        W 6643  32.803  33.319   0.925
38250W        W 6644  44.171   4.292  12.942
38251W        W 6645  34.497  39.756  12.155
38252W        W 6646  21.475   6.924   3.235
38253W        W 6647  30.399  40.936   2.382
38254W        W 6648  25.177  17.929   3.201
38255W        W 6649  30.398  34.178   4.324
38256W        W 6650  40.146  35.913   0.898
38257W        W 6651  24.918  30.584   2.197
38258W        W 6652  30.405  33.460  10.720
38259W        W 6653   1.307   4.800  10.689
38260W        W 6654  37.036  13.187  10.589
38261W        W 6655  31.735  33.692  14.699
38262W        W 6656   9.644   5.246   3.295
38263W        W 6657  31.552   0.311  14.866
38264W        W 6658  30.922  20.863  11.598
38265W        W 6659  22.157  22.037   4.599
38266W        W 6660  32.360  33.907   4.529
38267W        W 6661  29.187  21.204  11.959
38268W        W 6662  28.840  32.050   2.169
38269W        W 6663  12.690  26.212  11.549
38270W        W 6664  17.614  26.127   0.769
38271W        W 6665  25.028  34.091   2.766
38272W        W 6666   4.270  14.732  13.438
38273W        W 6667  27.920  42.234  13.898
38274W        W 6668  37.505  22.762   0.940
38275W        W 6669  23.012   4.919  11.522
38276W        W 6670  42.786  44.474   0.656
38277W        W 6671  28.183  19.932   3.225
38278W        W 6672   0.420  19.335   2.249
38279W        W 6673  13.502   5.116   4.168
38280W        W 6674   7.362  42.618   2.332
38281W        W 6675   6.730  35.050   4.356
38282W        W 6676  27.037  28.570  14.897
38283W        W 6677  34.800   4.014   1.409
38284W        W 6678  16.318  16.341   0.988
38285W        W 6679   3.819  29.369   1.718
38286W        W 6680  33.447  12.353  12.195
38287W        W 6681  43.959  14.396  11.113
38288W        W 6682   9.597  17.193  12.180
38289W        W 6683   2.200  16.781  11.068
38290W        W 6684  20.822  31.048  11.570
38291W        W 6685  27.144  25.025  14.632
38292W        W 6686   4.230  18.770   1.971
38293W        W 6687  13.423  34.435  14.007
38294W        W 6688  19.383  41.534  10.187
38295W        W 6689  15.535  33.461   3.604
38296W        W 6690  17.178  40.445   4.539
38297W        W 6691  42.915   0.792   2.969
38298W        W 6692  32.106  19.874  11.560
38299W        W 6693  28.130  19.738   4.874
38300W        W 6694  10.353   5.005   5.046
38301W        W 6695  10.773   4.908   3.594
38302W        W 6696  11.823  26.020   3.630
38303W        W 6697   5.300  31.665   3.847
38304W        W 6698  36.442  26.533   0.506
38305W        W 6699  24.698  18.048  10.699
38306W        W 6700  14.162  32.185  13.945
38307W        W 6701  38.520  33.577  12.922
38308W        W 6702   3.675   4.070  13.388
38309W        W 6703  21.577  20.216  12.801
38310W        W 6704  34.406  31.095  10.658
38311W        W 6705   3.678  11.822  12.519
38312W        W 6706   1.564  18.353   2.386
38313W        W 6707  17.608  12.719   0.189
38314W        W 6708   9.726  28.332   2.241
38315W        W 6709  22.513  37.122   2.914
38316W        W 6710   7.605  19.262  14.921
38317W        W 6711   8.672  34.005  12.117
38318W        W 6712  35.518  11.099   0.947
38319W        W 6713  18.737  22.180  14.716
38320W        W 6714  44.324  33.079  10.745
38321W        W 6715  19.192  26.493   3.259
38322W        W 6716  14.147   8.988  13.991
38323W        W 6717  13.549   5.429   1.237
38324W        W 6718  29.499  13.340   0.742
38325W        W 6719  16.767  27.969   4.318
38326W        W 6720   1.992  34.551   1.218
38327W        W 6721   5.514  43.274   1.416
38328W        W 6722   1.219  33.870  12.104
38329W        W 6723   8.029  26.339  14.903
38330W        W 6724  26.021  28.141   3.772
38331W        W 6725   6.192  31.406  11.136
38332W        W 6726  39.291   2.515  11.626
38333W        W 6727  18.703  16.547   3.852
38334W        W 6728  20.180  25.132   3.162
38335W        W 6729   4.902  38.914   0.265
38336W        W 6730   6.103  31.958   4.485
38337W        W 6731  33.447  12.582   0.856
38338W        W 6732  17.991  41.528   2.696
38339W        W 6733   8.335  11.804   2.225
38340W        W 6734  42.340   1.904   3.340
38341W        W 6735  42.781  20.950   1.052
38342W        W 6736  21.352  12.985   4.892
38343W        W 6737  37.021  31.487  12.192
38344W        W 6738   4.198  25.037   1.279
38345W        W 6739  25.521   6.687  10.774
38346W        W 6740   4.820  11.363   1.748
38347W        W 6741  26.646  11.147  10.316
38348W        W 6742   3.578  24.086  13.293
38349W        W 6743  16.127  35.965  12.862
38350W        W 6744  41.469   5.151   0.811
38351W        W 6745  39.394  34.974   2.651
38352W        W 6746  19.522  28.542   5.404
38353W        W 6747  27.503  11.367   4.357
38354W        W 6748  26.503  30.092  14.062
38355W        W 6749  10.208  29.087  14.743
38356W        W 6750  37.064  22.913   0.762
38357W        W 6751  36.076   1.936  12.585
38358W        W 6752   7.803   0.406   3.285
38359W        W 6753  21.167   3.410  14.809
38360W        W 6754   2.883  33.321   0.971
38361W        W 6755  14.263  31.095   0.444
38362W        W 6756   7.729   1.660  12.085
38363W        W 6757  15.102  42.805   3.672
38364W        W 6758  17.181  35.629  13.868
38365W        W 6759   6.069  23.570  13.045
38366W        W 6760   2.281  17.740   2.859
38367W        W 6761  12.098   4.903   3.799
38368W        W 6762  23.566  29.065  13.920
38369W        W 6763  35.577  12.357  11.559
38370W        W 6764  37.782  29.489  12.977
38371W        W 6765  40.449   1.200  12.589
38372W        W 6766  28.744  39.199   4.911
38373W        W 6767  31.110   7.479  11.634
38374W        W 6768  38.403  39.740  11.252
38375W        W 6769  21.957  14.294  11.157
38376W        W 6770  11.630  22.144   0.444
38377W        W 6771  26.570  21.706  14.826
38378W        W 6772   2.511  28.435   1.822
38379W        W 6773  37.632  13.059  11.632
38380W        W 6774  31.015  18.452  12.387
38381W        W 6775  32.421  16.216  14.837
38382W        W 6776  13.429  37.091   3.269
38383W        W 6777   4.536  28.116   1.015
38384W        W 6778  35.003  26.860  12.778
38385W        W 6779  33.837  35.709   2.658
38386W        W 6780   8.828   3.940  13.394
38387W        W 6781  15.730   7.674   4.782
38388W        W 6782  14.097  18.495  11.846
38389W        W 6783  35.830  42.324  11.554
38390W        W 6784   4.946  33.678  14.982
38391W        W 6785  43.153  13.359   4.766
38392W        W 6786  12.917  13.256   1.698
38393W        W 6787  43.351  35.333  13.357
38394W        W 6788  40.786  39.590   9.587
38395W        W 6789  28.591  30.806  14.318
38396W        W 6790  18.277  26.494   1.826
38397W        W 6791  44.419  23.158   2.259
38398W        W 6792  15.145  34.873   3.906
38399W        W 6793   7.326  40.890   3.783
38400W        W 6794   7.089  14.263  10.572
38401W        W 6795  36.698  35.555   3.258
38402W        W 6796  24.331   3.350   1.435
38403W        W 6797  41.058  34.486   0.822
38404W        W 6798  38.843  23.833  12.447
38405W        W 6799  35.151   7.294   3.169
38406W        W 6800  41.450  13.713   3.135
38407W        W 6801   9.376   1.373   1.297
38408W        W 6802  31.640  10.737  11.105
38409W        W 6803   0.698   9.414  13.516
38410W        W 6804  28.794  11.734   0.685
38411W        W 6805  43.332  30.547  10.751
38412W        W 6806   5.379  11.553  13.891
38413W        W 6807  30.194   7.988  10.540
38414W        W 6808  40.823  22.837  14.837
38415W        W 6809  44.974  41.089   0.327
38416W        W 6810  22.004   9.888   4.133
38417W        W 6811   8.435  11.895  13.779
38418W        W 6812   3.398   7.106  10.740
38419W        W 6813   1.041   7.931   2.882
38420W        W 6814  13.679   8.161  14.251
38421W        W 6815   6.110  40.349   1.631
38422W        W 6816  27.792  23.587  10.645
38423W        W 6817  20.608  28.681   2.826
38424W        W 6818   2.488  19.762   0.047
38425W        W 6819  37.556  17.990  14.895
38426W        W 6820   7.889  15.239  13.842
38427W        W 6821  14.253  28.957   2.415
38428W        W 6822  23.663  10.891  11.038
38429W        W 6823  27.393  42.776   4.108
38430W        W 6824   1.777  13.350  13.380
38431W        W 6825  32.016  38.276   0.272
38432W        W 6826  27.872  18.059   1.115
38433W        W 6827  25.084  21.801  14.211
38434W        W 6828  11.764  32.231  13.170
38435W        W 6829   7.469  17.173   4.148
38436W        W 6830  14.635  30.677  14.309
38437W        W 6831  16.450  44.750   0.337
38438W        W 6832  43.900  44.774   0.488
38439W        W 6833  24.710  41.344   1.027
38440W        W 6834  36.475  37.067  10.716
38441W        W 6835   8.008  29.406   3.103
38442W        W 6836   1.814  41.107   0.162
38443W        W 6837  21.290  38.641  12.273
38444W        W 6838  11.407  22.722  14.508
38445W        W 6839  10.308  22.004  13.958
38446W        W 6840   6.703  16.684  13.845
38447W        W 6841  37.156  42.040   0.245
38448W        W 6842  22.080  13.186   5.484
38449W        W 6843  34.279  20.096   0.823
38450W        W 6844  44.967  13.554   4.499
38451W        W 6845  31.768  15.671   2.540
38452W        W 6846  12.912   4.416  10.937
38453W        W 6847  22.155  25.636  12.247
38454W        W 6848  22.771   6.882  12.571
38455W        W 6849  30.627  33.950  10.463
38456W        W 6850  16.310  12.853   0.987
38457W        W 6851  34.319   5.245  13.039
38458W        W 6852  15.890  43.580  14.271
38459W        W 6853  20.179   4.811  13.950
38460W        W 6854  44.442  19.827   2.905
38461W        W 6855  43.017   8.897  13.319
38462W        W 6856  40.893  44.882  14.247
38463W        W 6857  15.575  42.726   5.032
38464W        W 6858  14.307  41.451  10.600
38465W        W 6859  20.085  15.218   0.845
38466W        W 6860   4.278  19.552  12.340
38467W        W 6861  42.506  36.962   0.530
38468W        W 6862   4.554  28.745   4.506
38469W        W 6863  20.780  25.998   0.432
38470W        W 6864   0.432  37.480   4.347
38471W        W 6865  28.482  16.615  11.506
38472W        W 6866  23.096  42.363   2.793
38473W        W 6867  33.882  17.951   1.488
38474W        W 6868  22.542  42.898   3.217
38475W        W 6869  27.099  25.007   0.148
38476W        W 6870  13.850   0.193  10.834
38477W        W 6871   7.310   1.485   3.002
38478W        W 6872  28.039   5.358   2.048
38479W        W 6873  12.837  25.472  13.479
38480W        W 6874  38.076  15.655   4.283
38481W        W 6875  27.893  33.488  14.384
38482W        W 6876  41.341  20.787   1.634
38483W        W 6877  26.045  20.913  11.215
38484W        W 6878   8.987  27.175   2.254
38485W        W 6879  27.109  44.434   2.168
38486W        W 6880  15.774   0.357   3.543
38487W        W 6881  44.869   1.998  14.906
38488W        W 6882  22.994  16.098   2.258
38489W        W 6883  36.027  37.711   4.188
38490W        W 6884  32.902  41.846  11.102
38491W        W 6885  32.996   8.332  11.417
38492W        W 6886  34.662  28.212   4.931
38493W        W 6887  18.492  39.901  12.386
38494W        W 6888  32.882  16.576  13.760
38495W        W 6889  26.993  20.269  13.662
38496W        W 6890   5.028  10.762  12.414
38497W        W 6891  40.725  39.054  11.612
38498W        W 6892  33.409   1.503   2.253
38499W        W 6893  14.964  39.564  11.485
38500W        W 6894  43.368   4.242  13.471
38501W        W 6895  33.521  18.784   1.187
38502W        W 6896  35.445  10.649   2.226
38503W        W 6897   8.633  25.932   2.884
38504W        W 6898   7.949  32.467  13.979
38505W        W 6899  22.497  42.384  10.542
38506W        W 6900  29.849  26.658   2.321
38507W        W 6901  17.327  40.076   4.186
38508W        W 6902  27.001   4.352  10.626
38509W        W 6903  30.049  28.455   4.097
38510W        W 6904  35.579   9.013   3.855
38511W        W 6905  24.456  14.552   3.051
38512W        W 6906  18.282  32.171   2.420
38513W        W 6907  39.425  12.863   0.270
38514W        W 6908  21.702  18.894  14.718
38515W        W 6909  28.404   0.409  13.483
38516W        W 6910  14.120  13.137   1.253
38517W        W 6911  32.913  40.943  11.219
38518W        W 6912   3.764  27.082  12.717
38519W        W 6913  38.807  20.965  14.519
38520W        W 6914  31.416   1.520  11.924
38521W        W 6915  34.931   8.748   3.660
38522W        W 6916   1.594   3.828   3.410
38523W        W 6917  40.467  39.847  12.906
38524W        W 6918  31.624   6.490   2.828
38525W        W 6919  30.959  25.658  10.463
38526W        W 6920  15.757  14.827  11.764
38527W        W 6921  11.886  43.182   5.099
38528W        W 6922  14.387  25.606  11.577
38529W        W 6923  27.519  31.602   3.745
38530W        W 6924   7.684   7.743  13.885
38531W        W 6925   2.966   8.078   3.349
38532W        W 6926  22.040  24.615  13.763
38533W        W 6927   8.604  27.562   4.199
38534W        W 6928  35.055  41.104  13.811
38535W        W 6929  31.445   7.217  12.061
38536W        W 6930  12.306  18.214   3.352
38537W        W 6931  31.137  35.099   0.298
38538W        W 6932  31.228  26.532   3.616
38539W        W 6933   6.112  29.121   0.060
38540W        W 6934  30.114  32.780  12.614
38541W        W 6935   2.862  42.054   3.586
38542W        W 6936  43.484   4.071   2.396
38543W        W 6937   3.760  20.491  14.848
38544W        W 6938  31.206   2.492   4.591
38545W        W 6939   4.712  27.943  10.694
38546W        W 6940  18.422  12.659  10.789
38547W        W 6941  37.912  44.664   0.301
38548W        W 6942  36.943  24.414   2.600
38549W        W 6943   7.248  22.279   3.609
38550W        W 6944  40.937  27.613  13.090
38551W        W 6945  38.510  34.435  13.937
38552W        W 6946  31.207   0.905  12.943
38553W        W 6947   5.021   3.799  13.820
38554W        W 6948  37.283  41.558   3.242
38555W        W 6949  32.076  36.418  10.721
38556W        W 6950  43.041  22.687  13.559
38557W        W 6951   7.101  31.085   2.888
38558W        W 6952  30.570  14.753   0.668
38559W        W 6953  10.434  19.944  13.944
38560W        W 6954  41.214  43.057   3.454
38561W        W 6955  24.097  25.919   2.911
38562W        W 6956  37.305   6.741  10.662
38563W        W 6957  39.373  14.976  12.566
38564W        W 6958  31.073  25.126  11.332
38565W        W 6959  19.124  24.960   3.216
38566W        W 6960   6.994  31.952  11.088
38567W        W 6961  20.454  21.125  10.206
38568W        W 6962  39.464  30.385  14.941
38569W        W 6963   6.122  29.236   4.059
38570W        W 6964  10.819   4.969  12.501
38571W        W 6965  39.059  19.221   3.183
38572W        W 6966   7.305  17.455   4.943
38573W        W 6967  21.654  38.537   3.549
38574W        W 6968  10.461  37.925   2.842
38575W        W 6969  41.616  14.718  12.996
38576W        W 6970  33.558  17.073   0.006
38577W        W 6971  39.030  30.183   1.396
38578W        W 6972   7.801  25.935  11.070
38579W        W 6973   0.919   5.353   4.106
38580W        W 6974  13.768  26.454   1.848
38581W        W 6975  13.070   5.858   0.005
38582W        W 6976   3.705  12.577   2.698
38583W        W 6977  16.061  14.158   4.716
38584W        W 6978  10.898  36.589  14.920
38585W        W 6979  21.553  21.939   1.562
38586W        W 6980  39.044  34.596   2.799
38587W        W 6981  41.897   7.488   4.101
38588W        W 6982  33.148  42.937   3.341
38589W        W 6983   4.468   5.382  11.187
38590W        W 6984  32.116  11.225   3.582
38591W        W 6985   8.473  33.656   0.814
38592W        W 6986  30.254   7.620   1.755
38593W        W 6987  37.352  40.931   2.412
38594W        W 6988  37.546   1.834   4.581
38595W        W 6989  21.274  27.872  13.955
38596W        W 6990   9.201  27.695  13.329
38597W        W 6991  43.666  39.386   4.088
38598W        W 6992   9.884  33.139  14.858
38599W        W 6993  18.771  29.673  12.963
38600W        W 6994  43.833  31.137  13.452
38601W        W 6995  35.946  42.997  10.769
38602W        W 6996  16.728   0.263   1.216
38603W        W 6997  29.417  14.681  11.019
38604W        W 6998  36.418  10.505   2.119
38605W        W 6999  33.894  23.101   3.727
38606W        W 7000  23.434  37.392   0.826
38607W        W 7001  43.210  38.475   3.729
38608W        W 7002  44.218   2.335   1.738
38609W        W 7003  19.135   1.768  11.899
38610W        W 7004  35.001  28.165   1.286
38611W        W 7005  24.508  18.508  10.535
38612W        W 7006   3.573  11.657  14.259
38613W        W 7007  15.737  36.897  12.831
38614W        W 7008  39.811  24.221  13.267
38615W        W 7009  33.987  42.997   2.241
38616W        W 7010   0.497  28.561   3.322
38617W        W 7011   4.227   0.765  13.064
38618W        W 7012   6.776  25.181   0.984
38619W        W 7013  30.172  35.643   2.105
38620W        W 7014  34.625   5.454  13.409
38621W        W 7015  18.901  28.330  10.315
38622W        W 7016  29.933   0.159   2.855
38623W        W 7017  21.012  27.416   1.189
38624W        W 7018  18.730  29.457   0.368
38625W        W 7019  30.524   5.242  14.095
38626W        W 7020  27.230  43.967   3.667
38627W        W 7021  23.256  13.381  13.944
38628W        W 7022  31.556  23.091   3.588
38629W        W 7023  18.076  37.578   3.199
38630W        W 7024   5.671   9.491  12.490
38631W        W 7025   2.539  31.463   1.769
38632W        W 7026   8.628   6.540  11.449
38633W        W 7027   8.629  10.155   0.863
38634W        W 7028  14.351  10.402   0.104
38635W        W 7029  25.539  28.904  14.910
38636W        W 7030  38.428  19.264  12.617
38637W        W 7031  29.625  18.844  14.405
38638W        W 7032  35.372  43.894   2.119
38639W        W 7033  35.376  40.347  10.817
38640W        W 7034   5.673   6.286   3.269
38641W        W 7035  39.952  10.871  11.990
38642W        W 7036  34.632  14.606   0.023
38643W        W 7037  40.412  38.064   0.039
38644W        W 7038  25.404  20.997  14.716
38645W        W 7039   4.509  33.452   3.019
38646W        W 7040   1.656  44.250   2.761
38647W        W 7041  24.129  20.472   4.196
38648W        W 7042  23.516  32.382   1.699
38649W        W 7043  12.590   2.802  12.316
38650W        W 7044   2.085  34.303  11.183
38651W        W 7045  43.541  18.663  13.873
38652W        W 7046  35.629  18.606   4.612
38653W        W 7047  23.120  32.919  14.673
38654W        W 7048  14.695  28.393   2.470
38655W        W 7049  37.375  17.169   3.137
38656W        W 7050  34.642  32.805  11.042
38657W        W 7051  19.157  24.900   4.261
38658W        W 7052  24.665   8.391  11.856
38659W        W 7053  38.540  16.576  10.710
38660W        W 7054  15.236  24.702  11.568
38661W        W 7055  31.051  30.859   1.118
38662W        W 7056  18.220  30.689   0.682
38663W        W 7057  25.346  24.677  14.744
38664W        W 7058  42.908  23.735  11.593
38665W        W 7059   6.640   6.515  11.905
38666W        W 7060  11.588  41.362   4.948
38667W        W 7061  38.009  24.995  14.368
38668W        W 7062  11.131  37.407   3.876
38669W        W 7063  34.105  18.142  14.906
38670W        W 7064  27.642   0.410  12.985
38671W        W 7065  18.598  12.541  14.320
38672W        W 7066  32.213  29.981  11.340
38673W        W 7067   8.344  28.607  10.882
38674W        W 7068  12.457  28.148   3.987
38675W        W 7069   2.067  27.732  10.684
38676W        W 7070  13.233  41.527  12.453
38677W        W 7071  25.032   8.951   3.139
38678W        W 7072  33.555  18.395  13.665
38679W        W 7073  38.582  20.550  12.391
38680W        W 7074  14.113  29.852  12.872
38681W        W 7075  14.174  34.881   3.409
38682W        W 7076  35.669   0.340   0.778
38683W        W 7077   6.442  37.606  14.391
38684W        W 7078   3.254  44.434  12.871
38685W        W 7079  11.618   1.328   0.308
38686W        W 7080  12.180   5.850   2.236
38687W        W 7081  28.636  12.612   4.181
38688W        W 7082  18.184  35.067   1.732
38689W        W 7083  41.037  19.006   1.160
38690W        W 7084  15.676  17.970  14.046
38691W        W 7085  36.060  20.731  12.979
38692W        W 7086  44.583  11.055   0.809
38693W        W 7087  14.990   4.685  11.595
38694W        W 7088  31.436  13.719   0.954
38695W        W 7089  33.027  17.861   2.667
38696W        W 7090  16.198  24.708   4.607
38697W        W 7091  14.234  16.555   1.211
38698W        W 7092  37.409  32.660  14.921
38699W        W 7093  44.482  36.602  11.650
38700W        W 7094   6.005   8.405   0.665
38701W        W 7095   6.401  26.130   1.896
38702W        W 7096   5.836  27.497  11.867
38703W        W 7097  26.165  19.007   2.224
38704W        W 7098  42.807  36.869  11.638
38705W        W 7099   8.372  42.786   3.826
38706W        W 7100  38.592  26.634  12.601
38707W        W 7101  28.897   4.239   4.193
38708W        W 7102  42.527  25.159  12.838
38709W        W 7103   5.414  15.502  14.030
38710W        W 7104  36.794  25.110   3.775
38711W        W 7105  25.571  13.853   0.708
38712W        W 7106   2.855   3.524  12.497
38713W        W 7107  24.124  30.642   2.705
38714W        W 7108  28.718   1.197   2.334
38715W        W 7109  12.263  42.753  14.157
38716W        W 7110  44.017   8.927   1.334
38717W        W 7111   6.815   2.525  14.753
38718W        W 7112  23.312  12.740  14.544
38719W        W 7113   7.149  10.810  11.602
38720W        W 7114  31.125   3.909  12.550
38721W        W 7115   4.220   5.355  10.214
38722W        W 7116  27.127  20.111   2.368
38723W        W 7117  12.858  28.551  12.848
38724W        W 7118   1.145  33.795   5.021
38725W        W 7119  22.598  30.532   1.290
38726W        W 7120  18.057  27.955  12.660
38727W        W 7121  19.098  38.545  14.796
38728W        W 7122  30.436  39.094   1.696
38729W        W 7123  37.866  40.988  11.606
38730W        W 7124  17.636  30.440   4.707
38731W        W 7125  38.593  39.442   0.370
38732W        W 7126  15.376  27.599   0.935
38733W        W 7127  10.732  23.702  14.792
38734W        W 7128  22.550  23.869  14.846
38735W        W 7129  44.201  17.354  13.860
38736W        W 7130  22.579   4.525   2.791
38737W        W 7131  13.423  31.205  11.320
38738W        W 7132  20.360  25.089  11.152
38739W        W 7133  43.313   4.821   4.718
38740W        W 7134  36.361  27.730   2.419
38741W        W 7135  11.932  21.260  11.187
38742W        W 7136  42.741   2.183  13.332
38743W        W 7137  13.212  25.007  12.568
38744W        W 7138  11.844   2.273  10.792
38745W        W 7139  41.474  22.141  11.843
38746W        W 7140  18.044  18.666  14.358
38747W        W 7141  40.812   0.967  11.178
38748W        W 7142   4.339  24.305   0.467
38749W        W 7143   1.840  14.907   1.703
38750W        W 7144   8.201  17.025   2.182
38751W        W 7145  21.219  34.316   2.200
38752W        W 7146   9.630  10.285  10.504
38753W        W 7147  36.828   3.278   2.769
38754W        W 7148  25.296   7.109  12.681
38755W        W 7149  16.355  41.640  12.965
38756W        W 7150  44.063  43.525   3.258
38757W        W 7151  10.171  28.446  11.344
38758W        W 7152  35.491  32.349   1.936
38759W        W 7153  14.452   1.494  13.702
38760W        W 7154  41.062  18.058  11.784
38761W        W 7155  11.440  37.139   1.185
38762W        W 7156  10.477   5.814  12.893
38763W        W 7157  42.849  10.743  12.458
38764W        W 7158  34.660  13.488  11.736
38765W        W 7159   4.473  43.914   0.443
38766W        W 7160  32.531  12.261  12.204
38767W        W 7161   7.580  39.594  13.931
38768W        W 7162   4.908   5.860   0.387
38769W        W 7163   0.625   2.039   1.577
38770W        W 7164  28.298  31.866   4.601
38771W        W 7165   7.161  19.747  14.894
38772W        W 7166  17.674  44.058  14.386
38773W        W 7167  27.690  38.023   1.797
38774W        W 7168  32.556   1.042  14.556
38775W        W 7169  30.528  42.471   2.364
38776W        W 7170  34.978  26.418   2.528
38777W        W 7171   5.439  13.503   1.499
38778W        W 7172  25.562  20.634   4.216
38779W        W 7173  23.185  24.499   0.582
38780W        W 7174  32.357  27.097  14.937
38781W        W 7175  29.811   6.852   3.608
38782W        W 7176   7.710   2.855  13.368
38783W        W 7177  19.265  28.911  13.039
38784W        W 7178  10.370  19.541  12.434
38785W        W 7179  43.964   1.435  14.826
38786W        W 7180  24.093  37.441  10.930
38787W        W 7181  36.765  11.168   3.614
38788W        W 7182  26.277  16.012   4.063
38789W        W 7183   4.842  38.552   3.393
38790W        W 7184  15.557  31.497  10.797
38791W        W 7185   2.185  44.366   0.319
38792W        W 7186  39.285   1.535  12.359
38793W        W 7187  42.450  42.221  12.432
38794W        W 7188  21.619   5.395  12.393
38795W        W 7189   2.053  34.714  14.063
38796W        W 7190  26.692   7.027  11.050
38797W        W 7191  13.661   4.871   2.583
38798W        W 7192  28.427  27.175   1.744
38799W        W 7193  43.531   8.666  14.866
38800W        W 7194   9.829   2.735  14.110
38801W        W 7195  20.933  43.439  14.273
38802W        W 7196  22.769  37.041  11.609
38803W        W 7197  37.633  11.797   0.939
38804W        W 7198  16.948  32.265  13.376
38805W        W 7199  22.242  23.537   3.335
38806W        W 7200   4.413  34.920  13.924
38807W        W 7201   3.525  18.276   4.551
38808W        W 7202  42.717  14.782   3.689
38809W        W 7203  10.182  44.427  14.608
38810W        W 7204  20.142   7.086  13.076
38811W        W 7205   9.233  39.147   1.853
38812W        W 7206  10.885  17.991   3.330
38813W        W 7207  18.631   2.761   3.185
38814W        W 7208   6.566   9.950   2.705
38815W        W 7209   2.816  10.151   0.732
38816W        W 7210  32.898  33.542   3.262
38817W        W 7211  14.631  44.504   1.487
38818W        W 7212  15.271  37.460  11.176
38819W        W 7213   0.232  23.586   0.327
38820W        W 7214  38.067  25.404  11.527
38821W        W 7215  11.489  40.256  11.029
38822W        W 7216  12.094   6.445   1.004
38823W        W 7217   1.897   9.584  12.635
38824W        W 7218   2.362  23.464  13.529
38825W        W 7219  25.636  21.122   0.229
38826W        W 7220   6.896  17.147  13.609
38827W        W 7221   9.769  36.017   4.921
38828W        W 7222  16.024  28.533  12.664
38829W        W 7223  33.296  21.346   2.860
38830W        W 7224  11.164  22.681  11.655
38831W        W 7225  30.397  33.106  14.464
38832W        W 7226  18.343   0.300   1.741
38833W        W 7227  37.090  30.921  14.900
38834W        W 7228  24.227   3.663   1.854
38835W        W 7229  25.115  44.012  14.046
38836W        W 7230  29.187  19.424   2.150
38837W        W 7231  28.070  15.552  12.135
38838W        W 7232  42.996  34.429  10.180
38839W        W 7233  36.049  27.518   0.750
38840W        W 7234  36.574  44.328   0.018
38841W        W 7235  33.969   5.347   0.967
38842W        W 7236  44.390  44.626  13.697
38843W        W 7237  41.985  41.417   0.160
38844W        W 7238   8.069  26.960   4.560
38845W        W 7239  28.099  11.432  14.304
38846W        W 7240  24.157  13.872  12.107
38847W        W 7241  11.687   4.047   3.519
38848W        W 7242  12.719  21.539  14.526
38849W        W 7243  43.928  12.462   4.679
38850W        W 7244  13.897  36.519  10.976
38851W        W 7245  40.756  32.669  11.508
38852W        W 7246  37.292   9.560   2.160
38853W        W 7247  14.290  44.152  11.614
38854W        W 7248   0.231   3.316   3.315
38855W        W 7249  13.733   3.294   4.612
38856W        W 7250  13.969  23.797   3.701
38857W        W 7251  12.063   0.534  10.432
38858W        W 7252   6.693  10.929  11.848
38859W        W 7253  33.615  39.748   4.659
38860W        W 7254  32.152  26.577  10.287
38861W        W 7255  35.881  19.656   1.277
38862W        W 7256  16.042  40.353  11.633
38863W        W 7257  20.008  35.543   0.578
38864W        W 7258  23.556   3.251  11.865
38865W        W 7259  27.894  30.881   0.306
38866W        W 7260   0.998  39.171   2.268
38867W        W 7261  13.043   1.284  11.706
38868W        W 7262  26.753   6.042   3.786
38869W        W 7263   7.905  27.257  12.463
38870W        W 7264  21.614  24.699   3.200
38871W        W 7265  18.059  17.199   3.673
38872W        W 7266  27.782  23.658   4.909
38873W        W 7267  27.430  26.729   4.568
38874W        W 7268  10.993  40.249  11.007
38875W        W 7269   6.774  27.565   2.128
38876W        W 7270  34.095  18.352   3.307
38877W        W 7271  34.938  34.394   1.877
38878W        W 7272   5.642  44.472   4.035
38879W        W 7273  13.445  11.416  11.064
38880W        W 7274  20.541   7.207  14.821
38881W        W 7275  29.740  35.009  14.752
38882W        W 7276  30.113  38.074   0.487
38883W        W 7277   3.127  34.645   0.915
38884W        W 7278  24.325  19.080   0.312
38885W        W 7279  40.099   9.532  11.652
38886W        W 7280  18.153   1.832  10.891
38887W        W 7281  18.762  38.528   0.234
38888W        W 7282  20.146   9.664   3.737
38889W        W 7283  41.405  13.541  11.614
38890W        W 7284  27.958  18.516   2.394
38891W        W 7285  39.321   6.796   1.314
38892W        W 7286   8.753  30.485   4.989
38893W        W 7287  20.312  34.466  14.561
38894W        W 7288   9.177  29.478   1.495
38895W        W 7289   2.197   2.486  11.943
38896W        W 7290  37.781  10.039   0.522
38897W        W 7291  24.196  28.468   1.445
38898W        W 7292  35.581   8.420  10.613
38899W        W 7293  31.539  20.466   0.513
38900W        W 7294   9.970  22.517  14.456
38901W        W 7295   6.246  33.476  14.481
38902W        W 7296  24.720   4.992  13.928
38903W        W 7297  34.701  42.618   0.087
38904W        W 7298  23.674  41.024   1.463
38905W        W 7299  35.602  26.799   3.709
38906W        W 7300  17.797  22.189   0.258
38907W        W 7301  16.634  38.812   0.393
38908W        W 7302  17.123  32.344  10.747
38909W        W 7303  29.616   6.125  10.869
38910W        W 7304  37.936  19.732  10.677
38911W        W 7305  42.292   2.167   1.667
38912W        W 7306  40.643  22.970   1.024
38913W        W 7307   1.712  24.219   1.400
38914W        W 7308  37.880  26.023  12.471
38915W        W 7309   4.242  22.790  13.941
38916W        W 7310   6.021  20.138   4.779
38917W        W 7311   7.311  10.661   4.869
38918W        W 7312  19.074  26.241  14.680
38919W        W 7313  12.088  21.138   4.619
38920W        W 7314  20.877  42.739   4.053
38921W        W 7315  29.873  14.826   3.567
38922W        W 7316  12.309  35.110  11.131
38923W        W 7317   1.893   4.863  14.120
38924W        W 7318  13.413  23.128  14.024
38925W        W 7319  13.017  10.989   1.247
38926W        W 7320  31.814  43.919   3.212
38927W        W 7321   9.795  20.790   4.940
38928W        W 7322  21.488  28.711   0.898
38929W        W 7323   0.833  38.093   1.373
38930W        W 7324   6.623  28.531   0.259
38931W        W 7325   1.922  44.206  12.923
38932W        W 7326  11.300  44.215   3.699
38933W        W 7327  32.622  43.020  13.687
38934W        W 7328  44.591  38.002  11.961
38935W        W 7329  40.384  23.608   2.750
38936W        W 7330  24.232  13.103  11.756
38937W        W 7331  22.080  23.106   0.867
38938W        W 7332   1.870  44.715  12.858
38939W        W 7333  34.845  16.315   1.429
38940W        W 7334   7.860   3.707   2.434
38941W        W 7335  27.072  22.125  10.968
38942W        W 7336  26.150  13.839  13.846
38943W        W 7337  28.596  33.715  11.056
38944W        W 7338  32.113   9.995  13.575
38945W        W 7339  44.229  20.637   4.213
38946W        W 7340  10.836   3.185  11.110
38947W        W 7341  32.422  27.161   3.711
38948W        W 7342  14.960   2.404   3.680
38949W        W 7343  19.069   1.499  13.556
38950W        W 7344  40.345  38.117   0.974
38951W        W 7345   7.973  26.029  12.657
38952W        W 7346  41.238   7.235  12.515
38953W        W 7347  24.912  20.032  13.999
38954W        W 7348  35.028   6.987  14.052
38955W        W 7349  44.835  27.548  12.560
38956W        W 7350   4.991   0.928   3.360
38957W        W 7351  13.147  43.657  14.349
38958W        W 7352  14.646  16.678   2.857
38959W        W 7353  12.083  33.817   3.285
38960W        W 7354   1.928  26.703  10.699
38961W        W 7355  40.071  26.660  13.291
38962W        W 7356  38.841  25.927  14.386
38963W        W 7357  11.612   4.950  12.500
38964W        W 7358   0.158  26.034   1.394
38965W        W 7359  31.959  43.901   1.813
38966W        W 7360  25.074  43.558   1.718
38967W        W 7361  28.625  30.075   3.309
38968W        W 7362  13.782  28.172   2.665
38969W        W 7363  35.290  31.430   4.642
38970W        W 7364  19.160  16.449   0.150
38971W        W 7365  28.533  31.189  13.786
38972W        W 7366  37.384   5.395   4.515
38973W        W 7367  43.806  25.126  14.356
38974W        W 7368  44.065  36.674   4.146
38975W        W 7369  34.431   8.560   0.263
38976W        W 7370   2.927   1.931   4.134
38977W        W 7371  41.932  36.113   5.324
38978W        W 7372   6.383   0.405   0.294
38979W        W 7373   8.223  12.205   3.720
38980W        W 7374  20.488  18.338  12.608
38981W        W 7375   1.410  14.654   1.869
38982W        W 7376  20.083  41.695  11.560
38983W        W 7377  12.239  33.106   4.398
38984W        W 7378   7.711  13.624   2.759
38985W        W 7379  24.029  21.969   3.383
38986W        W 7380  34.349  42.495  12.469
38987W        W 7381  44.873  18.585   2.629
38988W        W 7382  24.916  31.904   0.301
38989W        W 7383  39.460  38.950   0.512
38990W        W 7384  39.923  22.198   4.031
38991W        W 7385  27.046  42.947  14.603
38992W        W 7386  10.597   4.346   3.676
38993W        W 7387  16.287  40.011  11.920
38994W        W 7388  23.518  38.144   1.032
38995W        W 7389  35.936  36.769   1.488
38996W        W 7390   1.315   3.780  10.461
38997W        W 7391  43.511  16.535  12.344
38998W        W 7392  10.621  23.148   0.226
38999W        W 7393  13.959  42.936   0.774
39000W        W 7394  20.606  26.339  13.318
39001W        W 7395  37.332   3.341   0.002
39002W        W 7396   4.745  20.928   0.800
39003W        W 7397  13.635  33.009  12.929
39004W        W 7398  35.112  37.623  13.415
39005W        W 7399   7.952   8.650  12.321
39006W        W 7400  35.416  11.266   0.462
39007W        W 7401   0.972  13.072  14.802
39008W        W 7402  28.112  25.074  14.191
39009W        W 7403  41.522   7.670  12.399
39010W        W 7404  20.622  17.502  12.049
39011W        W 7405  40.050  10.539   1.587
39012W        W 7406  30.406  39.792   4.632
39013W        W 7407  24.645  20.937   2.836
39014W        W 7408  26.969   8.722   1.747
39015W        W 7409  23.917  36.835  14.683
39016W        W 7410  27.029   5.533   1.355
39017W        W 7411  38.580  21.119   3.626
39018W        W 7412   0.698  32.481  11.465
39019W        W 7413  32.519  29.599   4.635
39020W        W 7414   5.786  21.292  10.743
39021W        W 7415   0.069  38.502  11.217
39022W        W 7416  29.173  30.900   3.701
39023W        W 7417  37.013  15.146   3.631
39024W        W 7418  41.071  31.312  11.560
39025W        W 7419  43.237  37.395   2.625
39026W        W 7420  40.747   2.225  11.570
39027W        W 7421  38.417  40.032   0.950
39028W        W 7422  11.864  22.941  11.245
39029W        W 7423  36.364  29.747  12.500
39030W        W 7424  30.731   7.676  13.375
39031W        W 7425  33.806  19.083  11.310
39032W        W 7426  16.706  15.859  13.866
39033W        W 7427  30.400  28.572   1.026
39034W        W 7428  26.073  15.774   2.754
39035W        W 7429  23.109   6.702  13.459
39036W        W 7430  19.736  34.608   2.308
39037W        W 7431  31.634  41.987  10.437
39038W        W 7432  30.572  21.657   0.925
39039W        W 7433  25.088   6.215  12.828
39040W        W 7434   8.926  20.180  11.674
39041W        W 7435  21.809  43.789   3.792
39042W        W 7436  17.579  12.817  11.519
39043W        W 7437  23.219   5.678  12.603
39044W        W 7438  39.169   5.711  14.581
39045W        W 7439  25.404  11.404  14.688
39046W        W 7440  30.575  29.611   1.378
39047W        W 7441   7.547  41.361   5.054
39048W        W 7442  32.898  30.908   2.603
39049W        W 7443  35.354  17.966   0.530
39050W        W 7444  12.978  30.098  11.404
39051W        W 7445  24.716  11.764  11.400
39052W        W 7446  34.595  28.457  12.539
39053W        W 7447   6.363   7.148   4.556
39054W        W 7448  12.568  27.131   1.756
39055W        W 7449  43.786  39.912   4.764
39056W        W 7450  22.519  12.819   3.695
39057W        W 7451  27.419  14.836   4.088
39058W        W 7452  12.424   3.409  13.087
39059W        W 7453  20.168  42.319   2.762
39060W        W 7454  36.922  14.610   3.515
39061W        W 7455  15.463   2.290   3.654
39062W        W 7456  16.897  15.900   5.084
39063W        W 7457  26.598  30.575   1.398
39064W        W 7458  24.301  13.398  13.975
39065W        W 7459  44.289  38.259   3.618
39066W        W 7460  16.528   9.171  10.634
39067W        W 7461  35.565  38.787  14.984
39068W        W 7462   9.821  10.790   1.160
39069W        W 7463  27.699  35.166   3.810
39070W        W 7464  29.663  44.003   1.715
39071W        W 7465  33.528  30.516  10.324
39072W        W 7466  40.647   3.760  10.941
39073W        W 7467   2.820  35.033   1.899
39074W        W 7468  39.277  34.549  10.757
39075W        W 7469  19.195  19.695  12.145
39076W        W 7470   4.876  44.317  13.919
39077W        W 7471   3.506  40.592  10.429
39078W        W 7472   5.212  15.542  12.629
39079W        W 7473  15.779  31.700  12.622
39080W        W 7474  34.994  27.058   1.212
39081W        W 7475  30.326  42.245  12.516
39082W        W 7476  14.709  26.471   0.484
39083W        W 7477  31.485  27.019   2.758
39084W        W 7478  28.072  35.575   0.343
39085W        W 7479   7.751  31.610  11.248
39086W        W 7480  14.315   7.282   3.589
39087W        W 7481   5.301  25.934   4.965
39088W        W 7482  10.602   3.982   4.555
39089W        W 7483  43.597  22.013   2.788
39090W        W 7484  38.521  25.710   1.214
39091W        W 7485  16.763  24.469   0.857
39092W        W 7486  22.314  41.501  11.620
39093W        W 7487   8.191  23.284   2.831
39094W        W 7488   5.651  36.939   2.536
39095W        W 7489  13.831  27.697  10.650
39096W        W 7490   8.389  35.841  12.119
39097W        W 7491  38.404  12.760  12.050
39098W        W 7492  32.110  27.003  10.582
39099W        W 7493  38.405   4.431  10.689
39100W        W 7494  20.021   9.130  11.568
39101W        W 7495   5.403  17.764  14.795
39102W        W 7496  37.655  29.508   4.897
39103W        W 7497  20.113  38.067  12.386
39104W        W 7498  14.632  11.713  10.892
39105W        W 7499  33.096  36.959   4.763
39106W        W 7500   5.375   3.471  14.520
39107W        W 7501  38.292   8.710  12.765
39108W        W 7502  39.288  31.998  13.305
39109W        W 7503   1.700  13.669   4.628
39110W        W 7504   7.246   2.713  13.985
39111W        W 7505  27.556   9.478  11.461
39112W        W 7506   4.480  42.547   0.742
39113W        W 7507   5.879  18.633  11.958
39114W        W 7508  12.266   8.869   1.744
39115W        W 7509  34.727  15.230   2.903
39116W        W 7510  12.228   0.289  11.580
39117W        W 7511   6.025  34.386   2.217
39118W        W 7512  33.549   5.927  10.256
39119W        W 7513  37.591  35.304  12.252
39120W        W 7514  40.575  36.696   2.188
39121W        W 7515   0.578  40.746  13.855
39122W        W 7516  11.307  19.809  10.548
39123W        W 7517  17.065  10.302  10.131
39124W        W 7518   8.119  32.020   0.224
39125W        W 7519  38.560  31.456  10.906
39126W        W 7520  18.803  23.054  13.843
39127W        W 7521  31.018  40.514  14.901
39128W        W 7522   9.707  35.529   4.128
39129W        W 7523  21.529  39.810  10.989
39130W        W 7524   5.899   4.058  13.296
39131W        W 7525  35.847  31.233   4.076
39132W        W 7526  10.824  34.562  12.521
39133W        W 7527  14.064  16.082   1.361
39134W        W 7528  39.050  13.798   1.271
39135W        W 7529   7.780   1.204  14.417
39136W        W 7530   1.701   4.501  10.830
39137W        W 7531  16.338  42.366   3.557
39138W        W 7532   2.316   4.875   4.234
39139W        W 7533  28.687  42.113   2.278
39140W        W 7534  20.224  21.736   3.243
39141W        W 7535  22.495  41.559   4.548
39142W        W 7536  43.345  26.183  11.637
39143W        W 7537   1.794  42.462  12.524
39144W        W 7538   8.478  25.463   3.158
39145W        W 7539  41.942  29.911  14.081
39146W        W 7540   9.125  24.585  14.348
39147W        W 7541  20.462  13.089  13.859
39148W        W 7542  21.960  35.340  10.630
39149W        W 7543  33.580  19.730   0.263
39150W        W 7544  31.141  41.589   3.853
39151W        W 7545  31.605   4.292   4.258
39152W        W 7546  12.887  37.421  12.749
39153W        W 7547  19.829  42.423   1.825
39154W        W 7548  17.058  17.718  11.967
39155W        W 7549  44.809  38.806   0.908
39156W        W 7550   6.490  33.564  14.930
39157W        W 7551  26.664  43.559   4.127
39158W        W 7552  18.512  21.729  14.932
39159W        W 7553  10.405  19.263  11.588
39160W        W 7554  22.968  28.057  12.144
39161W        W 7555  28.144  43.766  13.012
39162W        W 7556   4.205  31.517  13.442
39163W        W 7557  10.273  16.711   3.838
39164W        W 7558  13.849   7.401   4.284
39165W        W 7559  16.699   7.825   1.196
39166W        W 7560  14.594  12.509  10.361
39167W        W 7561  15.668  36.408  10.128
39168W        W 7562   3.191  35.396  14.889
39169W        W 7563   9.374  17.344  14.900
39170W        W 7564  19.630  20.178  10.162
39171W        W 7565  35.949  32.018   2.834
39172W        W 7566  27.448  14.776   0.771
39173W        W 7567  43.783   9.353  14.446
39174W        W 7568  32.605  31.198   2.011
39175W        W 7569   4.235  22.799  12.927
39176W        W 7570  20.361   9.477  14.158
39177W        W 7571  30.241  35.367  12.546
39178W        W 7572   5.976  30.926   1.438
39179W        W 7573   9.366   8.848   0.362
39180W        W 7574  31.084   3.431   4.591
39181W        W 7575  16.027  13.638   4.918
39182W        W 7576  21.929   4.412   2.280
39183W        W 7577  12.756  29.461   2.173
39184W        W 7578  39.318   3.484  14.763
39185W        W 7579  41.529  16.819   1.203
39186W        W 7580  40.548  10.452   1.731
39187W        W 7581  42.687  32.157   1.341
39188W        W 7582  34.399  32.007  12.226
39189W        W 7583  33.046  22.889  12.521
39190W        W 7584  25.451  40.536   3.310
39191W        W 7585  16.154  35.542   2.440
39192W        W 7586  16.240  35.639  11.731
39193W        W 7587  35.335  34.438   3.669
39194W        W 7588   7.078   5.405   4.574
39195W        W 7589  33.504  25.636  14.064
39196W        W 7590   3.235  37.970  14.751
39197W        W 7591   9.429  11.005   0.888
39198W        W 7592  13.401  31.574   1.943
39199W        W 7593   0.066  40.878  13.806
39200W        W 7594  30.096  42.314   2.598
39201W        W 7595  40.696  26.693   3.989
39202W        W 7596  25.787  27.940  13.911
39203W        W 7597  24.028  31.829  14.354
39204W        W 7598  35.092  42.541   4.300
39205W        W 7599  41.209  11.946  13.038
39206W        W 7600  35.855  30.364  12.960
39207W        W 7601   3.310   0.529   1.354
39208W        W 7602   3.184  34.023   2.174
39209W        W 7603  17.086  24.489  13.234
39210W        W 7604  37.411  36.292   1.998
39211W        W 7605  24.787  11.786   1.282
39212W        W 7606  39.002   8.367   3.167
39213W        W 7607  35.041   7.008   4.138
39214W        W 7608  20.364  39.970   2.187
39215W        W 7609  44.379  20.074  13.380
39216W        W 7610  28.730  29.924  11.585
39217W        W 7611  33.151  12.260  12.853
39218W        W 7612  11.433  21.816   4.363
39219W        W 7613  24.339  43.901   0.294
39220W        W 7614  43.312   7.076  14.992
39221W        W 7615  26.199  27.338   4.994
39222W        W 7616  31.569  39.532  10.673
39223W        W 7617  13.836   0.954   4.674
39224W        W 7618   7.233  36.429   0.774
39225W        W 7619   1.601  36.631   4.197
39226W        W 7620  11.694  10.353   1.457
39227W        W 7621  42.979  42.295   4.175
39228W        W 7622  32.946  31.990   2.822
39229W        W 7623  18.444  15.920  10.110
39230W        W 7624  17.076  15.446   0.987
39231W        W 7625  13.852  11.390   1.915
39232W        W 7626  41.968  42.930  14.317
39233W        W 7627   9.103  22.390   1.865
39234W        W 7628  19.955  24.575  10.558
39235W        W 7629  36.567  28.402  12.055
39236W        W 7630   1.471   7.756  10.495
39237W        W 7631   9.005  28.984   2.603
39238W        W 7632  19.733   2.867  10.765
39239W        W 7633  33.805  39.706  11.633
39240W        W 7634   6.183  37.662  12.009
39241W        W 7635  10.219  44.556   2.136
39242W        W 7636  33.643  19.201  14.915
39243W        W 7637  41.987  24.443   3.161
39244W        W 7638  23.500  11.617  12.982
39245W        W 7639  25.158   2.982   4.046
39246W        W 7640   6.376  14.735  14.056
39247W        W 7641  25.518   5.910   1.742
39248W        W 7642  15.550  29.940   2.184
39249W        W 7643  23.462   3.995  11.538
39250W        W 7644  27.539   2.255  13.994
39251W        W 7645  28.065   3.019  14.947
39252W        W 7646  21.349  20.497   1.240
39253W        W 7647   8.436  19.468   3.364
39254W        W 7648  41.233  28.562   4.621
39255W        W 7649   0.830  36.504   2.818
39256W        W 7650  33.035  14.727  14.047
39257W        W 7651   1.858  28.218  10.661
39258W        W 7652   2.105  43.363  11.638
39259W        W 7653  35.146   1.377  14.061
39260W        W 7654  31.493  26.463   4.076
39261W        W 7655   0.412  27.104   3.791
39262W        W 7656  23.667   7.641  11.899
39263W        W 7657  18.659  15.616  14.628
39264W        W 7658  34.704  32.465   1.676
39265W        W 7659  13.788  36.749   3.063
39266W        W 7660   9.984   2.961   4.200
39267W        W 7661  17.571  20.679   3.297
39268W        W 7662   9.883  38.489  10.580
39269W        W 7663  16.509  26.924   9.902
39270W        W 7664  39.347  11.102   2.008
39271W        W 7665   7.256  44.862   3.995
39272W        W 7666  20.246   0.331   2.763
39273W        W 7667  27.150   6.985   4.553
39274W        W 7668  23.138  42.609   4.215
39275W        W 7669  35.955   5.614   2.470
39276W        W 7670  18.304  38.988  12.120
39277W        W 7671  32.892  21.338  13.540
39278W        W 7672  29.158  40.373  13.731
39279W        W 7673   7.395  33.897   0.063
39280W        W 7674  15.113   6.697   1.510
39281W        W 7675  11.544  36.036   1.804
39282W        W 7676  23.598  34.909  12.310
39283W        W 7677   7.641  23.592  10.535
39284W        W 7678  14.678   2.396  11.606
39285W        W 7679  25.720  43.297   4.383
39286W        W 7680  22.655   0.998  10.593
39287W        W 7681  22.049  23.003   3.022
39288W        W 7682  29.357  40.817   3.832
39289W        W 7683  33.466  11.814   1.283
39290W        W 7684  27.672  33.813  12.413
39291W        W 7685  10.571  40.080  14.496
39292W        W 7686   2.929  22.010  13.967
39293W        W 7687   2.570  25.682  13.571
39294W        W 7688  17.602  20.677   0.787
39295W        W 7689  24.815  26.671   1.694
39296W        W 7690  24.744  44.708  12.928
39297W        W 7691  38.909  35.917   3.582
39298W        W 7692  44.008  26.777  13.905
39299W        W 7693  35.418  30.680  12.090
39300W        W 7694   6.341  30.954   3.288
39301W        W 7695   9.254  36.915  10.694
39302W        W 7696  41.978  15.857   1.863
39303W        W 7697   4.021  10.036  13.280
39304W        W 7698  31.674  19.083  13.939
39305W        W 7699  43.164  10.340  12.263
39306W        W 7700  44.599   9.755  14.066
39307W        W 7701   7.375   1.231   1.647
39308W        W 7702  42.566  34.948  11.632
39309W        W 7703  24.267  20.340   3.692
39310W        W 7704  34.890  20.682   4.356
39311W        W 7705  23.203  42.112  11.649
39312W        W 7706   4.884   7.876   3.611
39313W        W 7707  29.722  27.471   3.639
39314W        W 7708  13.800  30.963  11.028
39315W        W 7709  13.881   7.906   3.487
39316W        W 7710  12.576  25.824   1.917
39317W        W 7711  40.228  17.348  14.495
39318W        W 7712  30.515   6.330   5.063
39319W        W 7713  16.844  42.941   0.702
39320W        W 7714  28.383  24.781   4.607
39321W        W 7715  13.609   4.362   0.656
39322W        W 7716  23.687  43.433   4.641
39323W        W 7717  18.814   4.799   3.630
39324W        W 7718  36.956  28.416   2.226
39325W        W 7719  22.565  24.296   0.848
39326W        W 7720  34.511  11.119   3.079
39327W        W 7721  20.791   2.277   1.418
39328W        W 7722   4.898  36.121  14.842
39329W        W 7723   1.772  15.285  11.649
39330W        W 7724  24.689  25.276  14.800
39331W        W 7725  15.152  31.270   0.418
39332W        W 7726  21.514  15.205  12.496
39333W        W 7727  34.349  43.322   1.607
39334W        W 7728  13.919  41.384  12.463
39335W        W 7729  21.919  39.866  10.654
39336W        W 7730  24.692   0.326  13.804
39337W        W 7731  20.895  24.736   1.435
39338W        W 7732  11.617   7.786  14.977
39339W        W 7733   0.105  44.993   0.128
39340W        W 7734  10.685  20.810   3.415
39341W        W 7735  29.578   5.376   2.295
39342W        W 7736  41.561  30.088  11.698
39343W        W 7737  30.642  42.736  10.612
39344W        W 7738   5.747  30.718   1.898
39345W        W 7739   3.327  14.744  14.974
39346W        W 7740  44.164  27.455   2.028
39347W        W 7741  27.211  41.433   0.739
39348W        W 7742  27.938  43.429  14.660
39349W        W 7743   9.458   2.386   2.197
39350W        W 7744  17.495   4.217   2.795
39351W        W 7745  21.767   2.438   1.055
39352W        W 7746   8.669  39.073  14.035
39353W        W 7747  36.479   4.369  14.112
39354W        W 7748  42.797  26.709  13.832
39355W        W 7749   0.907  23.945   3.255
39356W        W 7750  11.143  36.997   1.579
39357W        W 7751  28.988   1.454  12.694
39358W        W 7752  31.435   5.741   4.539
39359W        W 7753  35.637  44.129   2.920
39360W        W 7754  29.408   2.023   1.656
39361W        W 7755  10.355  37.325  13.387
39362W        W 7756  30.149  40.966  11.024
39363W        W 7757  42.032   9.339  10.775
39364W        W 7758  37.804  41.352  10.673
39365W        W 7759   3.688  34.695  11.163
39366W        W 7760  32.986  28.441  14.849
39367W        W 7761  12.619   1.533  11.640
39368W        W 7762  38.159  38.585   1.250
39369W        W 7763  33.040   8.629  14.028
39370W        W 7764  26.567   6.009  11.152
39371W        W 7765  38.987  39.568   3.344
39372W        W 7766  41.794   3.405  14.391
39373W        W 7767  13.703  44.873  13.060
39374W        W 7768  15.058  28.519  12.190
39375W        W 7769  19.454  25.064   1.866
39376W        W 7770  15.655  42.917   3.705
39377W        W 7771  24.115  42.896  11.945
39378W        W 7772  10.321  30.404   1.905
39379W        W 7773  37.508  29.173   3.102
39380W        W 7774   0.289   4.787  11.546
39381W        W 7775  40.501  12.937   1.387
39382W        W 7776   5.969  27.940  12.680
39383W        W 7777   1.928  30.556   0.480
39384W        W 7778  39.957  36.774  13.418
39385W        W 7779  10.400  19.362   2.429
39386W        W 7780  21.428  33.092  14.586
39387W        W 7781  20.779   9.298   4.188
39388W        W 7782  29.702  18.869  11.195
39389W        W 7783  43.439  28.054  12.196
39390W        W 7784  10.889  13.283   4.652
39391W        W 7785  14.448  12.745   1.378
39392W        W 7786  22.989  28.089   4.473
39393W        W 7787  26.531  13.848   1.441
39394W        W 7788  28.396  18.739  13.933
39395W        W 7789   4.528  15.527   0.382
39396W        W 7790  19.494   9.412   3.812
39397W        W 7791   4.751  22.542   2.217
39398W        W 7792  29.041  38.852   1.708
39399W        W 7793  29.972  26.694  12.064
39400W        W 7794  30.982  36.373   1.709
39401W        W 7795  22.963  21.208  12.450
39402W        W 7796  43.065  43.926  10.698
39403W        W 7797  26.126   3.834  10.553
39404W        W 7798  31.517  28.214  11.963
39405W        W 7799  34.039  18.008   1.987
39406W        W 7800   3.364  26.230   0.792
39407W        W 7801  43.837  44.630   0.979
39408W        W 7802  18.106  26.709   1.327
39409W        W 7803  42.508  10.882  12.080
39410W        W 7804  21.819  40.567   4.190
39411W        W 7805   7.762  22.209  12.438
39412W        W 7806  10.175  28.455   1.432
39413W        W 7807   8.574  35.379  14.419
39414W        W 7808   1.343  43.240  12.217
39415W        W 7809  22.548   5.785   3.674
39416W        W 7810  43.122  41.512   3.701
39417W        W 7811  39.565  20.739  12.597
39418W        W 7812  10.626   7.712  13.823
39419W        W 7813  10.891   4.351  13.384
39420W        W 7814  35.638  20.039  12.929
39421W        W 7815  35.446  10.137   2.369
39422W        W 7816  27.785  21.104  11.087
39423W        W 7817  10.448  14.696  11.170
39424W        W 7818  30.167  13.391  10.453
39425W        W 7819  44.978  44.454   1.477
39426W        W 7820  27.965  23.618   0.468
39427W        W 7821  13.098  42.148   1.863
39428W        W 7822  27.102  32.886   4.005
39429W        W 7823  26.504  41.588   4.147
39430W        W 7824  42.106  15.142   0.561
39431W        W 7825  14.252  36.816   3.306
39432W        W 7826  40.337   7.821   1.166
39433W        W 7827  41.406  41.559   0.277
39434W        W 7828  36.846  14.342  14.384
39435W        W 7829  16.512  24.874   1.162
39436W        W 7830  27.155  23.094  10.576
39437W        W 7831  34.591  32.730   2.188
39438W        W 7832   1.708   4.875  13.626
39439W        W 7833  30.443   1.674  13.394
39440W        W 7834  16.564  36.948  12.489
39441W        W 7835  14.697   3.064  12.826
39442W        W 7836  23.047  25.176  14.758
39443W        W 7837  25.898  37.276   0.911
39444W        W 7838  11.607   7.995   1.568
39445W        W 7839  17.286   7.664   0.430
39446W        W 7840  15.141  18.206  10.149
39447W        W 7841  43.899   9.650  13.856
39448W        W 7842  30.065  35.674   1.584
39449W        W 7843  42.456  32.348  11.985
39450W        W 7844   4.837  35.193  13.773
39451W        W 7845  37.446   8.488   0.066
39452W        W 7846   4.380  31.478  12.598
39453W        W 7847  36.083  44.876  11.467
39454W        W 7848  29.476  34.521  14.845
39455W        W 7849  42.493   8.696  14.557
39456W        W 7850  22.473  33.962  11.718
39457W        W 7851  41.484   2.316   3.759
39458W        W 7852  25.067  25.688  12.852
39459W        W 7853  43.726  14.115  10.731
39460W        W 7854   8.984  11.725   3.831
39461W        W 7855  42.423  38.451  11.232
39462W        W 7856  19.353  26.913  12.975
39463W        W 7857  15.240  44.941   2.403
39464W        W 7858  24.062   1.003  12.945
39465W        W 7859   7.714  35.441   2.960
39466W        W 7860  25.574  21.602   4.846
39467W        W 7861  32.386  38.884  10.233
39468W        W 7862   9.232  19.843   2.357
39469W        W 7863  33.202  12.594   4.846
39470W        W 7864  16.368  36.045   2.912
39471W        W 7865  19.199  26.015   1.665
39472W        W 7866  25.768  21.366   0.883
39473W        W 7867  43.742  20.223  12.563
39474W        W 7868  21.079  11.011   5.157
39475W        W 7869  30.097  23.529   3.664
39476W        W 7870  43.883   3.747  14.051
39477W        W 7871  20.612   6.836   0.196
39478W        W 7872  26.314  34.201  14.746
39479W        W 7873  14.143  31.969   2.700
39480W        W 7874  41.306  20.346  13.044
39481W        W 7875  17.244  34.150   3.618
39482W        W 7876  19.948  17.306  10.646
39483W        W 7877  41.158  14.442  12.945
39484W        W 7878  33.166  38.062   1.339
39485W        W 7879   5.861   5.209  10.571
39486W        W 7880  27.249  36.950   4.740
39487W        W 7881  27.977  19.541  14.572
39488W        W 7882  25.101  23.540   0.272
39489W        W 7883  31.111  37.257   3.262
39490W        W 7884   5.272  31.684   1.483
39491W        W 7885  24.606  15.282   1.828
39492W        W 7886  18.990  25.565  13.845
39493W        W 7887  15.731  30.972  14.845
39494W        W 7888  27.212  36.598  13.983
39495W        W 7889  27.243  10.897  14.442
39496W        W 7890  34.357   8.205  10.875
39497W        W 7891  20.753  41.446  13.636
39498W        W 7892  27.916  30.408   1.741
39499W        W 7893  36.067   7.753   0.673
39500W        W 7894  11.181  29.935   3.274
39501W        W 7895  24.152  35.871  14.076
39502W        W 7896   9.315  29.881  10.996
39503W        W 7897   0.492   2.417  11.856
39504W        W 7898  20.604  38.478   3.583
39505W        W 7899  42.919  23.955   3.861
39506W        W 7900   5.830   8.671   2.906
39507W        W 7901   5.864  23.663  14.540
39508W        W 7902   7.543   7.264  12.304
39509W        W 7903  27.331  22.713   1.558
39510W        W 7904   7.075   4.413   1.626
39511W        W 7905  20.199  15.808   0.380
39512W        W 7906  18.805  31.484   0.773
39513W        W 7907   5.662  24.777  11.756
39514W        W 7908  30.457  14.591  11.639
39515W        W 7909  28.001  11.382   4.528
39516W        W 7910  44.032  41.305   4.700
39517W        W 7911  34.581  14.249  12.734
39518W        W 7912  36.010  31.123  11.744
39519W        W 7913  24.168  44.639  14.091
39520W        W 7914   6.307  13.535  12.494
39521W        W 7915  26.011   1.149  11.056
39522W        W 7916  25.962   4.680  11.117
39523W        W 7917  33.136  19.268  14.852
39524W        W 7918  11.688  16.017   3.701
39525W        W 7919   3.889  25.695   2.179
39526W        W 7920  28.720  42.970  11.523
39527W        W 7921  24.239  20.204  12.997
39528W        W 7922  27.900   7.378   3.597
39529W        W 7923   8.345   7.722  11.231
39530W        W 7924   8.585  35.003   2.859
39531W        W 7925  16.317   1.985   1.338
39532W        W 7926  27.484  10.671  13.514
39533W        W 7927  14.588  22.004   2.301
39534W        W 7928  25.534  26.959  12.403
39535W        W 7929   8.983   8.255  13.982
39536W        W 7930  38.909  14.827  10.886
39537W        W 7931  37.099  35.960  13.436
39538W        W 7932  24.850   2.706  11.089
39539W        W 7933  15.296   6.154   1.629
39540W        W 7934   5.988   6.392   0.761
39541W        W 7935  19.588   1.436  14.457
39542W        W 7936  36.127  22.122   2.185
39543W        W 7937  42.559  43.659   0.679
39544W        W 7938  12.638  21.154  11.540
39545W        W 7939  13.777  38.305  10.840
39546W        W 7940   5.882   4.925  14.959
39547W        W 7941  18.116   6.398  11.379
39548W        W 7942  37.372  32.478   0.438
39549W        W 7943   8.396   7.246   4.922
39550W        W 7944  15.273  31.691  14.401
39551W        W 7945   8.862  17.649  12.101
39552W        W 7946  17.807   3.479  12.774
39553W        W 7947  37.009   0.710   4.528
39554W        W 7948  32.717  10.674  11.970
39555W        W 7949  13.237  21.962   0.761
39556W        W 7950  38.307  41.046   4.681
39557W        W 7951  18.551  20.524  12.614
39558W        W 7952  25.208   1.707   0.739
39559W        W 7953  11.236   9.018   2.420
39560W        W 7954  11.158   8.018   4.527
39561W        W 7955  24.726  18.458   3.750
39562W        W 7956  43.403   1.534   4.810
39563W        W 7957  27.604  38.304  12.676
39564W        W 7958   7.779  39.436   3.707
39565W        W 7959  18.017  38.130   3.981
39566W        W 7960   6.096   8.774  11.946
39567W        W 7961  17.163  17.795   4.071
39568W        W 7962  25.036   9.194  10.553
39569W        W 7963  24.968  42.277  13.270
39570W        W 7964  24.483  14.073   2.224
39571W        W 7965  15.266  19.286   1.770
39572W        W 7966  18.414  44.459  11.870
39573W        W 7967  30.334  13.616  13.415
39574W        W 7968   2.509  41.291   3.250
39575W        W 7969   7.949  26.106   4.505
39576W        W 7970  25.994  37.855   3.737
39577W        W 7971  31.656  42.455   2.750
39578W        W 7972   5.056  35.913   0.288
39579W        W 7973  17.331   3.346   1.506
39580W        W 7974   6.524   2.175   9.894
39581W        W 7975  38.566  31.662  14.027
39582W        W 7976  16.314  28.985  13.850
39583W        W 7977  19.339   0.094   1.566
39584W        W 7978  34.561   7.191  13.870
39585W        W 7979   0.981   4.904  14.766
39586W        W 7980  16.366  27.507   3.619
39587W        W 7981  25.671  26.550  14.503
39588W        W 7982  24.243  27.598  12.517
39589W        W 7983  15.217  20.493   2.854
39590W        W 7984  25.684  40.121   2.079
39591W        W 7985  39.329  40.267  11.163
39592W        W 7986  39.523  20.569  14.870
39593W        W 7987  38.593  40.030  11.655
39594W        W 7988  16.670  41.973  13.172
39595W        W 7989   3.492  11.276   2.997
39596W        W 7990   3.602  28.488   3.737
39597W        W 7991  44.394  33.367  13.137
39598W        W 7992  15.110  15.978   2.682
39599W        W 7993  39.012  16.814  10.797
39600W        W 7994  11.884  22.895  12.795
39601W        W 7995  29.467   9.392   0.251
39602W        W 7996  29.054  42.434   4.356
39603W        W 7997  29.535   2.557   4.376
39604W        W 7998  32.829   7.761  12.741
39605W        W 7999  42.133  23.017   4.826
39606W        W 8000  35.504   6.906   1.847
39607W        W 8001   0.353   7.869   3.352
39608W        W 8002  17.452   0.485  10.331
39609W        W 8003  36.450  40.777   0.853
39610W        W 8004  13.749  23.288  11.096
39611W        W 8005  22.580  14.200   0.055
39612W        W 8006   2.406  19.560  10.737
39613W        W 8007  43.794  40.283   0.701
39614W        W 8008  32.910  13.362   1.780
39615W        W 8009  27.655  26.925  12.203
39616W        W 8010  28.869  27.692  12.650
39617W        W 8011  12.721  24.755  12.605
39618W        W 8012  31.346  38.277  14.493
39619W        W 8013  23.953  40.311   3.972
39620W        W 8014  35.409  28.656  12.014
39621W        W 8015   7.297   3.259   1.902
39622W        W 8016  15.619  38.636  12.554
39623W        W 8017  18.686   6.414  10.075
39624W        W 8018  39.488  37.939   1.515
39625W        W 8019  16.255  34.891  12.395
39626W        W 8020   0.497  19.631  12.662
39627W        W 8021   7.530   3.408  13.544
39628W        W 8022  44.351  39.777   3.655
39629W        W 8023  30.151  13.196  13.996
39630W        W 8024  38.548  44.311  10.872
39631W        W 8025  41.461  21.254   3.326
39632W        W 8026   8.173   2.247  12.071
39633W        W 8027  23.510   8.447  10.659
39634W        W 8028  37.230   3.170   4.999
39635W        W 8029   5.164   5.918   4.293
39636W        W 8030  16.679   2.012  14.369
39637W        W 8031  37.534  29.553  14.328
39638W        W 8032  24.624  11.579   2.611
39639W        W 8033  16.268  25.218   4.639
39640W        W 8034  34.880  40.997   0.072
39641W        W 8035   1.706  31.992  14.650
39642W        W 8036  27.523  41.489   1.679
39643W        W 8037  37.834  19.510  11.533
39644W        W 8038  30.697   3.382   9.839
39645W        W 8039  17.862  36.379   1.871
39646W        W 8040  42.023  27.430   0.895
39647W        W 8041  10.685  44.215  13.954
39648W        W 8042   7.748  14.722  13.368
39649W        W 8043  26.088  11.772   3.597
39650W        W 8044   4.005  39.187  13.838
39651W        W 8045  27.047  11.641   9.749
39652W        W 8046  41.059  24.292  14.517
39653W        W 8047  35.137  24.692   1.355
39654W        W 8048   3.974   1.439   3.690
39655W        W 8049  23.286  33.899   4.121
39656W        W 8050  29.488  18.839   2.277
39657W        W 8051  17.637  33.948   1.229
39658W        W 8052  39.878   6.473  12.466
39659W        W 8053  32.908  41.044   3.604
39660W        W 8054  16.727  33.025   3.136
39661W        W 8055  13.574  13.717   2.312
39662W        W 8056  39.887   8.830   2.280
39663W        W 8057  24.713  16.275   1.927
39664W        W 8058  34.681   5.956   3.317
39665W        W 8059  28.003  17.299  14.860
39666W        W 8060  35.911  14.743  12.438
39667W        W 8061  41.445   9.388   0.242
39668W        W 8062   5.427  23.983  12.761
39669W        W 8063  20.059  33.036  14.298
39670W        W 8064   7.426  30.612   3.634
39671W        W 8065  38.790  16.799  10.317
39672W        W 8066  25.175  27.396   3.647
39673W        W 8067  23.066  43.551  10.878
39674W        W 8068  25.945   4.826  14.469
39675W        W 8069  22.081  24.981  10.652
39676W        W 8070  38.075  37.942   1.832
39677W        W 8071   1.438  41.022  11.677
39678W        W 8072  43.745  33.435  10.651
39679W        W 8073   7.444  19.267   0.817
39680W        W 8074  43.062  37.280  10.829
39681W        W 8075  11.085  23.452  12.053
39682W        W 8076  31.437  14.814  11.564
39683W        W 8077   3.892   4.770  13.848
39684W        W 8078  21.073  21.674   3.919
39685W        W 8079  43.145  30.592   4.109
39686W        W 8080  31.586  36.862   3.901
39687W        W 8081  41.774  31.429  12.056
39688W        W 8082  33.141  34.328   0.753
39689W        W 8083  20.246  30.630   0.440
39690W        W 8084  35.354  20.486  11.808
39691W        W 8085  33.496  10.590  12.520
39692W        W 8086  41.736  24.536   0.833
39693W        W 8087  44.395  22.794   1.848
39694W        W 8088  31.563   8.587  14.319
39695W        W 8089  19.283  29.936  12.905
39696W        W 8090   5.940  25.650   2.188
39697W        W 8091   1.102  12.747  11.435
39698W        W 8092  16.509   9.854   3.338
39699W        W 8093  24.541  38.645  13.853
39700W        W 8094  13.605  30.670  13.617
39701W        W 8095  12.111  37.065  13.002
39702W        W 8096  10.204  24.061   1.325
39703W        W 8097   3.508  20.319  14.422
39704W        W 8098  41.227   0.735   3.000
39705W        W 8099  29.106  40.326  11.646
39706W        W 8100  10.337   8.165   2.673
39707W        W 8101  36.396   3.399   0.182
39708W        W 8102  40.606  20.970   3.394
39709W        W 8103  30.915  40.967   0.876
39710W        W 8104  21.792   0.537  12.097
39711W        W 8105  17.283  42.207  13.779
39712W        W 8106  35.347   5.944  11.621
39713W        W 8107  13.029   3.982  10.696
39714W        W 8108  41.768  16.841   4.137
39715W        W 8109  32.486   4.239  10.688
39716W        W 8110   9.772  35.594   0.915
39717W        W 8111  37.503   1.796  13.527
39718W        W 8112  23.581   6.756  10.710
39719W        W 8113  43.728  26.661   3.313
39720W        W 8114  24.236  32.162  11.227
39721W        W 8115  21.629   7.376  14.043
39722W        W 8116  18.258  44.332  10.603
39723W        W 8117  39.933  21.187   2.394
39724W        W 8118  13.157   9.977   0.916
39725W        W 8119  27.400  33.419  12.676
39726W        W 8120   6.024   9.898   2.254
39727W        W 8121  44.400  23.666   0.807
39728W        W 8122  17.649   9.800  12.208
39729W        W 8123  16.117  35.844  13.380
39730W        W 8124  39.443  36.511   0.757
39731W        W 8125   7.164  28.666  12.424
39732W        W 8126  14.948   4.144   3.820
39733W        W 8127  43.810  36.304  12.123
39734W        W 8128  38.481  44.695  11.623
39735W        W 8129   1.406  36.138   4.109
39736W        W 8130  43.825  12.108  14.367
39737W        W 8131  11.787   9.731   3.750
39738W        W 8132  21.199   7.470   0.785
39739W        W 8133  14.788  14.401  10.711
39740W        W 8134  16.257  36.853  11.919
39741W        W 8135  43.980   9.677   3.799
39742W        W 8136  12.088  26.560   2.143
39743W        W 8137  35.508  13.281   4.532
39744W        W 8138   5.219  24.573   0.903
39745W        W 8139   6.655  18.694  11.533
39746W        W 8140  34.515  18.533  12.353
39747W        W 8141  38.242   5.880   3.787
39748W        W 8142   3.711   2.955   4.107
39749W        W 8143  13.114  14.352  11.147
39750W        W 8144   4.239   8.319  11.401
39751W        W 8145  42.398  40.999   2.321
39752W        W 8146  27.633   8.719   2.027
39753W        W 8147   9.870  32.670   1.333
39754W        W 8148  40.514  21.640  11.208
39755W        W 8149  36.087  11.620  13.871
39756W        W 8150  40.418  44.012  12.921
39757W        W 8151  31.379  44.293   3.851
39758W        W 8152  14.270  35.915   2.692
39759W        W 8153   7.849   2.796  11.994
39760W        W 8154  30.087  37.494  14.772
39761W        W 8155  39.333  19.708  11.674
39762W        W 8156  12.101  31.816  11.243
39763W        W 8157  35.397  39.857   4.705
39764W        W 8158  40.535  37.543  10.622
39765W        W 8159  23.144   0.918   2.749
39766W        W 8160  32.923  23.148  10.751
39767W        W 8161  27.550  13.747   4.664
39768W        W 8162  33.114  12.007  12.386
39769W        W 8163  19.742  37.211   3.214
39770W        W 8164  21.503  15.799   1.730
39771W        W 8165  20.168   1.842   1.514
39772W        W 8166   4.019  36.315  14.467
39773W        W 8167   6.877  12.634   1.474
39774W        W 8168   7.727  27.359   4.526
39775W        W 8169   2.484   9.234  14.474
39776W        W 8170  13.355  41.002   3.145
39777W        W 8171  32.429  18.628   2.785
39778W        W 8172   0.781  22.357  11.516
39779W        W 8173   1.867  19.462  13.989
39780W        W 8174  30.456  36.165   0.004
39781W        W 8175  21.268  33.997  11.047
39782W        W 8176  11.406  25.665  11.607
39783W        W 8177  24.079   3.290   4.228
39784W        W 8178  22.785  24.623   4.129
39785W        W 8179  15.533   8.851  14.014
39786W        W 8180  41.508  26.341  10.575
39787W        W 8181  11.299   6.663   2.598
39788W        W 8182  32.629   9.268  12.171
39789W        W 8183  43.541  15.710  14.006
39790W        W 8184   3.199  15.870  11.193
39791W        W 8185  17.143  28.447   3.301
39792W        W 8186  17.224  39.620   5.312
39793W        W 8187  34.508  16.607   4.158
39794W        W 8188  21.948  27.154  12.471
39795W        W 8189  41.548  38.673  12.661
39796W        W 8190  42.049  13.620   3.705
39797W        W 8191   4.382  23.113   4.952
39798W        W 8192  28.870  43.331  14.042
39799W        W 8193  15.616  15.122   2.316
39800W        W 8194  29.029   2.390   4.542
39801W        W 8195  24.022  38.095   3.731
39802W        W 8196   5.232  10.072  11.709
39803W        W 8197  25.795  23.999  14.353
39804W        W 8198   0.870  33.959   3.765
39805W        W 8199   1.062  32.292   3.495
39806W        W 8200  34.484   4.187   1.866
39807W        W 8201  34.667  18.982  12.545
39808W        W 8202  17.430  25.642  11.129
39809W        W 8203  30.284   2.283  11.230
39810W        W 8204  44.587   4.259   3.600
39811W        W 8205  22.831   4.903  13.029
39812W        W 8206   2.398  33.965   0.524
39813W        W 8207   6.303  43.069  14.855
39814W        W 8208   5.504   0.475   0.390
39815W        W 8209  29.393  17.001   4.395
39816W        W 8210  37.934   5.871   2.644
39817W        W 8211  31.149   5.183   0.771
39818W        W 8212  42.806  37.415   1.749
39819W        W 8213   2.964  24.549  13.931
39820W        W 8214   9.810   8.636  11.932
39821W        W 8215  27.006   3.787   1.657
39822W        W 8216  38.951  41.095   1.375
39823W        W 8217   1.410  28.960  13.603
39824W        W 8218  20.294  41.340  13.931
39825W        W 8219   3.311  34.839   3.637
39826W        W 8220  28.061  38.852  11.536
39827W        W 8221  10.157  43.960   0.551
39828W        W 8222  27.599   0.941   1.708
39829W        W 8223  33.861   7.678   3.789
39830W        W 8224  27.376  32.166  11.512
39831W        W 8225  37.774  12.677  12.972
39832W        W 8226   9.633  18.804  11.595
39833W        W 8227  42.905  17.093   0.339
39834W        W 8228  29.045  11.750   3.598
39835W        W 8229  19.447  31.846   3.554
39836W        W 8230  30.102  31.949  12.072
39837W        W 8231   1.783   6.341  11.075
39838W        W 8232  40.415  33.467  14.082
39839W        W 8233  34.767  39.969   3.298
39840W        W 8234  25.981  26.487  14.923
39841W        W 8235  39.361  33.940   4.451
39842W        W 8236  15.259  40.708   5.107
39843W        W 8237  30.074  37.940   2.348
39844W        W 8238  18.105   9.913  11.030
39845W        W 8239  38.752  22.099   1.242
39846W        W 8240  13.382  27.918  14.397
39847W        W 8241  29.615  25.241   3.636
39848W        W 8242   1.231   5.180   1.209
39849W        W 8243  36.974  37.162   2.338
39850W        W 8244  18.297   5.186   2.309
39851W        W 8245   5.848  14.066  13.028
39852W        W 8246  10.260   1.275   0.935
39853W        W 8247  26.192  35.149  14.943
39854W        W 8248  38.025  44.782   0.831
39855W        W 8249   9.827  33.610   4.290
39856W        W 8250   3.180  13.688  12.550
39857W        W 8251  34.477  25.799  10.429
39858W        W 8252  37.949  29.156   3.381
39859W        W 8253   2.636   4.283   3.129
39860W        W 8254  24.945  12.101   3.344
39861W        W 8255  15.209  30.862  14.194
39862W        W 8256   9.931  43.455   4.356
39863W        W 8257  22.776  17.695  10.617
39864W        W 8258  42.524   2.719  14.408
39865W        W 8259  42.863   7.108   4.092
39866W        W 8260  16.741  34.981   4.567
39867W        W 8261  42.707  15.281   1.787
39868W        W 8262  25.477  15.751  14.841
39869W        W 8263  38.887  32.024   1.683
39870W        W 8264  36.875  29.942  14.965
39871W        W 8265   9.265   9.575   1.257
39872W        W 8266  16.265  22.151   1.995
39873W        W 8267  22.525  28.927   2.853
39874W        W 8268   9.414  40.145   1.759
39875W        W 8269  15.792  44.582  12.549
39876W        W 8270  29.682  11.223   3.349
39877W        W 8271  15.757  39.645   1.856
39878W        W 8272  24.358  10.285   0.007
39879W        W 8273  39.694  21.267   1.946
39880W        W 8274   9.131  15.028   3.216
39881W        W 8275  10.177  42.222   3.576
39882W        W 8276  26.450  20.465  12.625
39883W        W 8277  42.878  36.932  14.308
39884W        W 8278  37.846  31.846  13.345
39885W        W 8279  35.900  44.279   1.234
39886W        W 8280  34.631  42.467  12.056
39887W        W 8281   3.499  10.843   0.769
39888W        W 8282  30.543  30.533   4.995
39889W        W 8283  37.723  13.569  13.583
39890W        W 8284  36.263  18.061  11.609
39891W        W 8285   2.713  25.119   2.660
39892W        W 8286  13.615  26.475  11.149
39893W        W 8287  19.700  20.171   0.454
39894W        W 8288  29.203   8.236   2.304
39895W        W 8289  43.312  18.545  11.827
39896W        W 8290  15.026   3.982   4.834
39897W        W 8291   5.870  22.869  13.676
39898W        W 8292  17.965   7.163  10.686
39899W        W 8293  23.100  24.501  11.170
39900W        W 8294  34.103  33.008   4.284
39901W        W 8295   8.668   2.814  13.977
39902W        W 8296  13.804  37.995  14.356
39903W        W 8297   9.050  19.875   0.004
39904W        W 8298  34.310  12.784   1.834
39905W        W 8299  40.443  12.666   2.323
39906W        W 8300  34.894   2.445  11.526
39907W        W 8301  38.497  30.296  13.052
39908W        W 8302  34.665   9.330  12.083
39909W        W 8303  27.675  26.711   0.455
39910W        W 8304  14.430  15.684   1.365
39911W        W 8305  44.338  32.319  11.142
39912W        W 8306  39.121  22.462  14.978
39913W        W 8307   4.708  15.523  12.573
39914W        W 8308  13.416  10.230   3.938
39915W        W 8309  25.354  41.259   4.109
39916W        W 8310  37.411  35.877   2.369
39917W        W 8311  24.670  17.357   2.867
39918W        W 8312  33.995  40.545   4.861
39919W        W 8313   9.133   2.336  14.667
39920W        W 8314  44.276   8.876  10.356
39921W        W 8315  20.623  19.137   0.719
39922W        W 8316  12.724  22.449  13.187
39923W        W 8317  39.427  36.031   3.668
39924W        W 8318  19.755  31.422   3.588
39925W        W 8319  27.551  12.864  14.575
39926W        W 8320  27.577  43.216  13.331
39927W        W 8321  33.115  23.160  14.904
39928W        W 8322  15.715   2.933   1.879
39929W        W 8323   6.329  34.969   0.871
39930W        W 8324  15.082   2.246   4.148
39931W        W 8325  27.374  24.576   0.145
39932W        W 8326   4.457  25.400   3.321
39933W        W 8327  35.676  39.570  11.963
39934W        W 8328  36.979   7.358  13.938
39935W        W 8329   5.647   2.188  14.904
39936W        W 8330  17.873   7.717   1.836
39937W        W 8331  21.631  12.647  11.142
39938W        W 8332  24.774  15.581   3.656
39939W        W 8333   4.955  37.636  11.678
39940W        W 8334   2.664  25.618   1.760
39941W        W 8335  44.462   2.481   3.159
39942W        W 8336   6.233  25.560  11.995
39943W        W 8337  24.965  18.148   2.603
39944W        W 8338   1.681   1.796   2.296
39945W        W 8339  20.834  33.463   2.235
39946W        W 8340  31.645  29.982   0.704
39947W        W 8341  12.603  13.582  11.202
39948W        W 8342  15.176  26.694  14.810
39949W        W 8343  20.089  34.405  10.738
39950W        W 8344  35.008   4.476   1.193
39951W        W 8345  26.736  41.063   0.453
39952W        W 8346  30.345  39.120   3.341
39953W        W 8347  30.940  41.899   2.736
39954W        W 8348   1.382  16.247  10.318
39955W        W 8349  10.752   4.412   0.328
39956W        W 8350  17.657  22.108  13.863
39957W        W 8351   2.693   3.911  11.850
39958W        W 8352  19.279  20.477  14.356
39959W        W 8353  19.290  37.033   3.859
39960W        W 8354   2.837  23.642  10.942
39961W        W 8355  27.935   8.632  11.136
39962W        W 8356  42.721  29.158   2.118
39963W        W 8357  26.746  39.949  14.983
39964W        W 8358  14.598  26.731  11.055
39965W        W 8359  24.525  22.092  11.861
39966W        W 8360  25.948  25.862  13.527
39967W        W 8361  34.690  29.016   1.944
39968W        W 8362   6.200   8.953   5.190
39969W        W 8363  21.981   8.703   0.799
39970W        W 8364  33.286  24.050  14.879
39971W        W 8365   0.057   1.219   1.572
39972W        W 8366  35.561   7.645   2.812
39973W        W 8367  12.906  14.404   1.335
39974W        W 8368  32.626  41.952  14.297
39975W        W 8369  17.171   1.848   3.676
39976W        W 8370  24.086  43.846   3.092
39977W        W 8371   0.298  36.312   0.295
39978W        W 8372  15.347  20.446   1.518
39979W        W 8373  25.792   4.509   0.762
39980W        W 8374  21.437  23.719  10.962
39981W        W 8375  17.378   8.182   0.933
39982W        W 8376  22.107  40.313  14.863
39983W        W 8377  28.121   1.271  10.823
39984W        W 8378  42.001  28.212   0.432
39985W        W 8379  15.706   7.308   4.063
39986W        W 8380  31.447  35.413   1.699
39987W        W 8381  10.637   1.201   2.685
39988W        W 8382  38.846  38.470  11.503
39989W        W 8383  10.933  11.265   0.971
39990W        W 8384  40.903  24.523   1.480
39991W        W 8385  40.834  20.264  13.506
39992W        W 8386  37.011  38.387   0.469
39993W        W 8387  31.360   5.159  12.936
39994W        W 8388  39.885  39.898   0.867
39995W        W 8389  12.898   1.094   0.755
39996W        W 8390  38.377  34.298   3.702
39997W        W 8391  29.442  34.030   2.949
39998W        W 8392  44.424  33.914   5.133
39999W        W 8393  13.090  14.215   0.883
40000W        W 8394  43.792  40.851  10.492
40001W        W 8395   3.030  15.033  12.506
40002W        W 8396  23.666   8.168   1.757
40003W        W 8397  28.048  42.832   2.428
40004W        W 8398  15.516  11.916  11.199
40005W        W 8399  26.434   3.800  14.542
40006W        W 8400  11.796  34.659  14.751
40007W        W 8401   4.110  27.345   3.634
40008W        W 8402  39.057  19.162   1.296
40009W        W 8403  23.327  23.316  13.875
40010W        W 8404  29.346  41.609   4.131
40011W        W 8405  40.269  15.718  13.476
40012W        W 8406  29.194   6.723  11.982
40013W        W 8407   8.766  13.904  10.681
40014W        W 8408  42.882  19.052   4.008
40015W        W 8409  19.734  15.358   2.837
40016W        W 8410  31.453  29.436  11.102
40017W        W 8411  23.280  29.999  14.056
40018W        W 8412  13.352  17.526  12.082
40019W        W 8413  28.048   4.801  10.259
40020W        W 8414  33.397   8.763   4.770
40021W        W 8415  31.908  37.521   5.226
40022W        W 8416  17.904  40.764  13.081
40023W        W 8417  10.282  17.937   2.784
40024W        W 8418  13.626  33.023  14.454
40025W        W 8419  20.360   5.565   4.006
40026W        W 8420  20.092   0.826  12.128
40027W        W 8421  26.988   3.003   2.338
40028W        W 8422  39.896  18.723  12.399
40029W        W 8423  13.785  39.364   0.971
40030W        W 8424  14.655  24.962  12.340
40031W        W 8425  34.607   6.271   0.584
40032W        W 8426  29.955  10.276   0.264
40033W        W 8427  40.807  38.060  11.193
40034W        W 8428  12.246  22.157   3.347
40035W        W 8429   2.089  41.236   2.792
40036W        W 8430  28.237  31.481  12.540
40037W        W 8431   7.452  43.940  11.519
40038W        W 8432   4.861   1.269   0.084
40039W        W 8433  21.798  41.071   2.973
40040W        W 8434  36.386  16.527  13.678
40041W        W 8435  15.521  23.544  10.779
40042W        W 8436  43.219  23.566   4.154
40043W        W 8437   8.309   5.303  12.505
40044W        W 8438   9.838  19.624   3.971
40045W        W 8439  28.823  11.050   3.687
40046W        W 8440  15.055   9.139  14.278
40047W        W 8441  30.187   5.157   0.929
40048W        W 8442  38.944  14.739  11.396
40049W        W 8443  24.023  38.329  14.014
40050W        W 8444  43.024   8.485  12.054
40051W        W 8445   5.861  14.818  13.581
40052W        W 8446  31.914  11.662  13.309
40053W        W 8447   6.549   7.148  12.602
40054W        W 8448  29.887  32.610   1.528
40055W        W 8449  32.037  20.138  14.911
40056W        W 8450  42.560  42.729  12.455
40057W        W 8451  11.420  42.863  10.386
40058W        W 8452  10.900  44.823   3.057
40059W        W 8453  18.540   7.214  13.833
40060W        W 8454  23.084  42.966   3.225
40061W        W 8455  28.910  16.063  11.221
40062W        W 8456  11.756  27.480  11.561
40063W        W 8457  33.209  43.879  11.640
40064W        W 8458  43.244  16.731   4.634
40065W        W 8459  39.542  34.417   1.704
40066W        W 8460  27.072  31.497  13.852
40067W        W 8461  16.063  24.128  12.187
40068W        W 8462  34.488   2.390  13.752
40069W        W 8463   4.728  28.030  13.868
40070W        W 8464  16.690  29.214  14.631
40071W        W 8465  22.583  16.060  10.369
40072W        W 8466  12.587  10.650  14.548
40073W        W 8467   2.492  44.547   1.954
40074W        W 8468  41.004   7.284   4.120
40075W        W 8469  38.263  22.554  13.993
40076W        W 8470  39.467  22.961  13.142
40077W        W 8471   2.215  28.427   3.706
40078W        W 8472   3.523  37.373  12.394
40079W        W 8473   2.850  43.902  13.310
40080W        W 8474  42.566  17.115  14.912
40081W        W 8475  25.011  11.641  13.578
40082W        W 8476  12.117  33.784  11.448
40083W        W 8477   5.390  27.568   1.517
40084W        W 8478  42.554  13.600   4.078
40085W        W 8479  28.659  37.859   0.494
40086W        W 8480  33.086  16.550   2.178
40087W        W 8481  23.179  22.592   2.575
40088W        W 8482  40.369  33.180   3.882
40089W        W 8483  35.564  31.412  12.549
40090W        W 8484  23.345  27.712  10.726
40091W        W 8485  12.862  27.567   1.850
40092W        W 8486  44.974  44.385  10.627
40093W        W 8487   9.661  34.096   4.102
40094W        W 8488  13.320   0.273  14.735
40095W        W 8489  11.595  41.391  13.500
40096W        W 8490  24.842  33.362   4.611
40097W        W 8491  36.114  25.713  13.506
40098W        W 8492  26.634   9.784   4.352
40099W        W 8493  18.031  43.277   2.739
40100W        W 8494  29.781  28.399   3.650
40101W        W 8495   2.144  17.731  11.054
40102W        W 8496  25.250  37.198   2.189
40103W        W 8497  18.610  32.063   2.877
40104W        W 8498  26.677  33.134   3.306
40105W        W 8499  16.069  32.556   4.586
40106W        W 8500  14.230  35.113  14.964
40107W        W 8501  30.913   3.498  14.382
40108W        W 8502  15.196  28.376   0.421
40109W        W 8503   3.897  35.342  12.527
40110W        W 8504  43.857   3.059   4.967
40111W        W 8505  40.815   4.370  13.188
40112W        W 8506  10.520  18.707   0.438
40113W        W 8507  39.921  32.018   0.201
40114W        W 8508  25.066   2.454  12.120
40115W        W 8509  17.352   8.880  14.257
40116W        W 8510   4.814  36.479   2.915
40117W        W 8511  21.409   8.241   1.222
40118W        W 8512   6.018  20.230  12.829
40119W        W 8513  18.586  36.476  11.076
40120W        W 8514  10.794  16.267  13.419
40121W        W 8515  38.254  32.152  13.289
40122W        W 8516  36.803  27.017  13.736
40123W        W 8517   7.683  15.645  13.554
40124W        W 8518   5.310  29.590   3.975
40125W        W 8519  15.730   7.639   5.330
40126W        W 8520  30.572   1.252   0.849
40127W        W 8521   7.052  30.225   2.697
40128W        W 8522   9.437  39.696  10.406
40129W        W 8523  43.591   1.484   1.908
40130W        W 8524   2.198  32.055   3.060
40131W        W 8525  24.110  20.806   1.305
40132W        W 8526  11.339   8.235   0.889
40133W        W 8527  20.497   1.514   3.191
40134W        W 8528  28.492  18.236  12.241
40135W        W 8529  44.091  37.442   3.621
40136W        W 8530  35.936   5.324  11.687
40137W        W 8531  43.283  32.670   0.663
40138W        W 8532   0.098  16.192  10.767
40139W        W 8533  30.223   0.392   2.234
40140W        W 8534  39.870  11.877  12.958
40141W        W 8535   8.936  12.392   1.024
40142W        W 8536  43.965  40.395  11.329
40143W        W 8537  39.958   0.164  14.453
40144W        W 8538   3.187  26.518  13.501
40145W        W 8539  31.651  31.436  11.934
40146W        W 8540   5.595  41.932  12.547
40147W        W 8541  40.263   9.063  14.860
40148W        W 8542  22.527   2.878   3.773
40149W        W 8543  30.494  23.096   1.622
40150W        W 8544  13.597  10.393  13.591
40151W        W 8545  32.031   2.984   4.689
40152W        W 8546   7.635  32.657   3.881
40153W        W 8547  12.770   8.164  12.826
40154W        W 8548  15.049  34.801   2.366
40155W        W 8549  33.197  31.507   3.732
40156W        W 8550  18.676  40.086  11.047
40157W        W 8551  31.531  39.223   0.354
40158W        W 8552   9.832   4.033   0.728
40159W        W 8553  21.459  42.010   3.898
40160W        W 8554  18.005  43.383  12.761
40161W        W 8555  10.360  27.445   1.208
40162W        W 8556  26.536  29.435  14.392
40163W        W 8557  41.008  23.240  14.505
40164W        W 8558  36.874  40.611   1.344
40165W        W 8559   9.873  37.392  13.553
40166W        W 8560  17.627  15.066  12.984
40167W        W 8561   7.630   4.174   2.354
40168W        W 8562  29.278  25.792  13.839
40169W        W 8563   6.297  29.074  11.901
40170W        W 8564  18.969  22.177   3.313
40171W        W 8565  37.372  16.829   0.064
40172W        W 8566   6.686  19.464  13.006
40173W        W 8567   4.584  22.059   3.444
40174W        W 8568  13.662  26.020  14.533
40175W        W 8569  20.805  42.967  13.475
40176W        W 8570  38.513  34.448   1.792
40177W        W 8571  23.885  25.026  12.985
40178W        W 8572   9.561   2.989  11.394
40179W        W 8573   4.925  39.390  11.811
40180W        W 8574  30.904  24.711   4.235
40181W        W 8575   5.684  10.215   0.296
40182W        W 8576   9.404  18.741   1.237
40183W        W 8577  36.299  12.958  13.611
40184W        W 8578  11.566  37.923  10.652
40185W        W 8579  24.206  32.137   3.524
40186W        W 8580  32.904   3.825   3.572
40187W        W 8581  20.040  30.965   4.174
40188W        W 8582  18.735  42.676  10.979
40189W        W 8583  34.607  38.804   4.647
40190W        W 8584  22.310   9.322  11.438
40191W        W 8585  17.044  40.947  13.369
40192W        W 8586   8.374  23.756  12.934
40193W        W 8587  35.486   1.607   2.483
40194W        W 8588  32.192  44.404   4.024
40195W        W 8589  27.431  40.479  11.195
40196W        W 8590  27.105  29.678  13.358
40197W        W 8591  30.620   4.310   3.245
40198W        W 8592  34.332  15.869   9.843
40199W        W 8593   8.788  10.406   1.292
40200W        W 8594  10.330   1.713  13.135
40201W        W 8595  22.691   4.339  10.927
40202W        W 8596  12.302  39.060   2.293
40203W        W 8597  41.425  43.395  12.642
40204W        W 8598  18.573  25.645   0.319
40205W        W 8599  33.605   6.040  11.154
40206W        W 8600   8.984  33.589   0.680
40207W        W 8601   8.110  35.489  12.887
40208W        W 8602   0.545   6.847  14.966
40209W        W 8603  30.644  13.700   2.699
40210W        W 8604  40.223  39.722  11.005
40211W        W 8605   4.379  21.216   2.569
40212W        W 8606  33.091  10.770   3.741
40213W        W 8607  30.785  31.449  11.623
40214W        W 8608  38.411   9.283  10.791
40215W        W 8609  16.663  20.044   2.773
40216W        W 8610   5.226  10.377   0.501
40217W        W 8611  43.938  15.658   4.863
40218W        W 8612  23.651  39.146  11.909
40219W        W 8613  37.836   1.682  12.011
40220W        W 8614  23.007  44.185   0.439
40221W        W 8615  22.106  44.978   2.725
40222W        W 8616  20.035   2.498   0.672
40223W        W 8617   3.836   4.164   1.276
40224W        W 8618  37.961  44.847  12.862
40225W        W 8619  33.689  36.481  14.130
40226W        W 8620  32.300  15.586  12.212
40227W        W 8621  14.584  36.918  10.771
40228W        W 8622  14.620  26.275   0.948
40229W        W 8623  27.780  30.033   0.883
40230W        W 8624  42.091  23.245  13.555
40231W        W 8625   4.660  37.978   4.070
40232W        W 8626  13.337  36.607   1.796
40233W        W 8627  16.008  20.073  11.255
40234W        W 8628  11.231  32.878  12.904
40235W        W 8629  24.708  26.530  14.033
40236W        W 8630  42.958   4.253   2.356
40237W        W 8631  43.422  34.664   1.869
40238W        W 8632  20.732  41.710  14.644
40239W        W 8633   5.245  11.869  12.968
40240W        W 8634  19.309  37.011  14.002
40241W        W 8635  43.862  37.807  14.066
40242W        W 8636   8.076  43.430   3.288
40243W        W 8637  30.534  29.590   3.381
40244W        W 8638   8.286  42.683   1.206
40245W        W 8639  10.167  35.655  12.110
40246W        W 8640  29.936  13.731  10.772
40247W        W 8641  17.023  10.166  11.478
40248W        W 8642  32.654   3.535   0.802
40249W        W 8643  26.475  21.596  13.796
40250W        W 8644  14.672  33.067   2.883
40251W        W 8645   3.788  25.012   0.234
40252W        W 8646  30.714   4.888   2.181
40253W        W 8647  39.011   3.351   1.865
40254W        W 8648   4.230  15.250  13.753
40255W        W 8649  18.874  37.457  10.317
40256W        W 8650  21.276  15.279   0.397
40257W        W 8651  15.689  11.311  14.844
40258W        W 8652  22.260   2.523   2.464
40259W        W 8653  16.982  13.721   1.380
40260W        W 8654  12.035  29.373   3.210
40261W        W 8655  18.680  16.131  13.042
40262W        W 8656  31.604   4.584  10.172
40263W        W 8657   4.908  22.589   0.432
40264W        W 8658  36.912  29.661   3.078
40265W        W 8659  11.191  36.122  12.107
40266W        W 8660   3.448  42.295   2.602
40267W        W 8661  40.018  24.052   0.778
40268W        W 8662   0.870  15.813   1.166
40269W        W 8663  26.447  24.752  12.741
40270W        W 8664  21.452  14.293   2.349
40271W        W 8665   3.796  17.019   4.965
40272W        W 8666  29.188  10.772  12.528
40273W        W 8667  37.945   6.790   1.533
40274W        W 8668  12.072  22.590  10.933
40275W        W 8669  31.786  22.967  11.747
40276W        W 8670  24.985  23.149   1.251
40277W        W 8671  42.742  20.467  14.300
40278W        W 8672   1.897  33.261  13.621
40279W        W 8673   1.541  16.214  14.493
40280W        W 8674  34.022  10.564   2.508
40281W        W 8675  28.237  16.724  13.998
40282W        W 8676  22.776  19.253   1.311
40283W        W 8677  19.056  22.150  14.114
40284W        W 8678  37.639  19.172  12.847
40285W        W 8679  23.638  27.272   2.286
40286W        W 8680  13.725  34.680  10.980
40287W        W 8681   7.818   5.481  13.289
40288W        W 8682  25.074  19.314   4.416
40289W        W 8683  22.305  10.792  12.507
40290W        W 8684  10.455  39.404  12.037
40291W        W 8685   2.846   2.234  14.515
40292W        W 8686  19.730  42.317   4.173
40293W        W 8687   0.506  12.652  11.804
40294W        W 8688  17.927  35.874   1.741
40295W        W 8689  42.575   0.748   2.384
40296W        W 8690  43.419   4.746  13.136
40297W        W 8691  37.310  23.646   0.601
40298W        W 8692  16.186  18.935  13.765
40299W        W 8693  36.860  44.870  12.183
40300W        W 8694  26.911   1.415  11.066
40301W        W 8695  28.944  21.196   2.630
40302W        W 8696   6.886   6.837   4.455
40303W        W 8697  35.054  15.383   1.236
40304W        W 8698  16.517  26.463  13.014
40305W        W 8699  15.365   0.447  12.225
40306W        W 8700  16.762  22.649  14.068
40307W        W 8701  26.680  10.874   1.456
40308W        W 8702  12.215  22.156  11.978
40309W        W 8703  38.054   1.603  10.702
40310W        W 8704  15.027  23.405   0.974
40311W        W 8705   9.951  29.461  14.497
40312W        W 8706   8.707  41.944  10.947
40313W        W 8707  13.612  17.803  13.479
40314W        W 8708  22.036  35.044   1.440
40315W        W 8709  39.513  34.091  14.797
40316W        W 8710  18.129  14.792  10.842
40317W        W 8711   3.204  13.088  11.545
40318W        W 8712  38.540  15.241  13.488
40319W        W 8713  21.577  29.808   5.063
40320W        W 8714  14.925  15.193   5.011
40321W        W 8715  25.983  28.851   1.162
40322W        W 8716  24.256   4.938  12.973
40323W        W 8717   1.042  22.695   2.956
40324W        W 8718   8.541  44.371  13.105
40325W        W 8719  19.436   7.755   5.040
40326W        W 8720  35.379   4.761   0.743
40327W        W 8721  43.772   6.431   3.563
40328W        W 8722  23.581  19.547  13.404
40329W        W 8723  24.528   1.034  13.151
40330W        W 8724  26.916  22.465  14.445
40331W        W 8725  25.526   5.275   4.674
40332W        W 8726   1.930   0.219  12.974
40333W        W 8727  28.956  10.308  12.471
40334W        W 8728   1.562  13.801  10.747
40335W        W 8729  42.830  28.480  11.530
40336W        W 8730  25.283  37.913   2.872
40337W        W 8731  10.376   1.408  11.456
40338W        W 8732  34.445  18.908   4.045
40339W        W 8733  15.618  16.148  14.463
40340W        W 8734   0.623  23.071   1.724
40341W        W 8735   0.831  43.552  13.601
40342W        W 8736  12.851  19.241   3.443
40343W        W 8737  12.091  12.853  11.151
40344W        W 8738  32.362  34.597   4.125
40345W        W 8739   8.285  44.920  12.155
40346W        W 8740  34.006  10.927   4.638
40347W        W 8741  34.854  13.101  11.124
40348W        W 8742  11.256  41.271   3.629
40349W        W 8743  29.372   5.622   2.746
40350W        W 8744   7.264  16.554  12.095
40351W        W 8745  40.678   4.996   3.664
40352W        W 8746  26.623  24.291   3.564
40353W        W 8747  15.254  15.226   1.930
40354W        W 8748  27.416  32.509   3.672
40355W        W 8749  19.961  25.102   1.853
40356W        W 8750  26.928   0.156  11.620
40357W        W 8751  13.635  35.499  12.091
40358W        W 8752  43.854  40.040   2.439
40359W        W 8753  21.688   1.367   0.509
40360W        W 8754  40.593  22.962  14.292
40361W        W 8755  22.059  36.015   3.121
40362W        W 8756   5.652  39.054   3.525
40363W        W 8757  36.561  15.913  10.946
40364W        W 8758  27.248  23.001   2.419
40365W        W 8759  34.949  19.224   3.329
40366W        W 8760  31.729  21.315  11.022
40367W        W 8761  17.595  33.306  14.012
40368W        W 8762   7.016  28.064  11.372
40369W        W 8763   1.050  31.322  14.886
40370W        W 8764  16.880  10.453   4.040
40371W        W 8765  15.068  11.349  14.903
40372W        W 8766  19.490   2.122  11.704
40373W        W 8767  33.615  18.836   0.301
40374W        W 8768  24.308  21.275  12.421
40375W        W 8769  44.788  17.794   1.723
40376W        W 8770  40.592  32.547   2.672
40377W        W 8771   3.358  24.751   4.877
40378W        W 8772  35.395  36.932   4.156
40379W        W 8773   6.530  30.382  11.184
40380W        W 8774   5.353  12.146  12.499
40381W        W 8775   9.352  44.312   2.412
40382W        W 8776  39.072  22.763   2.489
40383W        W 8777  31.068  37.517   2.181
40384W        W 8778  42.270  21.899   4.100
40385W        W 8779  20.958  41.065  12.024
40386W        W 8780  32.390   8.454   0.715
40387W        W 8781   0.164  35.898  10.771
40388W        W 8782   5.342  33.603   1.791
40389W        W 8783  31.527  43.004   5.004
40390W        W 8784  39.938   5.997   0.661
40391W        W 8785  44.953   4.118   3.259
40392W        W 8786  36.452  36.124   1.518
40393W        W 8787  32.022   4.061   1.623
40394W        W 8788  12.863  17.944   3.620
40395W        W 8789  42.885  29.930  14.047
40396W        W 8790  33.138  38.589   3.200
40397W        W 8791  12.773  27.803   2.830
40398W        W 8792  18.239  40.386   4.946
40399W        W 8793   5.662  12.757   1.917
40400W        W 8794  11.287  19.042  14.989
40401W        W 8795  19.290   1.542   0.871
40402W        W 8796  29.877  18.663  13.997
40403W        W 8797  31.104  34.961   1.330
40404W        W 8798  40.962  21.625   1.473
40405W        W 8799  37.071  42.306  12.134
40406W        W 8800   7.671  29.033  11.182
40407W        W 8801  24.523  19.208   5.040
40408W        W 8802  15.255   2.011  10.621
40409W        W 8803  22.743  34.423  14.281
40410W        W 8804  42.042   3.881   4.641
40411W        W 8805   9.520  41.629  14.325
40412W        W 8806  43.090  38.866   4.043
40413W        W 8807   3.722  19.141  13.653
40414W        W 8808  26.645  35.415   1.103
40415W        W 8809   8.133  15.731   4.169
40416W        W 8810  18.278  35.581   2.855
40417W        W 8811   3.198  23.947   1.178
40418W        W 8812  39.001  34.010   4.067
40419W        W 8813  33.420  37.741   1.624
40420W        W 8814  25.978  25.657   0.262
40421W        W 8815  34.178  39.475   1.886
40422W        W 8816  30.018  13.339   2.678
40423W        W 8817  31.952  15.091   2.379
40424W        W 8818  18.301  41.071   1.002
40425W        W 8819  25.494   6.210   3.273
40426W        W 8820  27.925  11.791  11.945
40427W        W 8821  42.032  11.410   1.897
40428W        W 8822   7.165  13.982  13.463
40429W        W 8823  27.135  19.157  11.537
40430W        W 8824  38.106   9.794   3.867
40431W        W 8825  27.064  20.040  12.143
40432W        W 8826   3.165   4.316   2.652
40433W        W 8827  39.432  26.597  13.622
40434W        W 8828   9.815  33.428  13.490
40435W        W 8829  37.700   2.378  14.173
40436W        W 8830  10.861  41.101   1.907
40437W        W 8831  13.594  21.428   3.835
40438W        W 8832   3.266   8.362   3.671
40439W        W 8833  15.853  28.623   2.753
40440W        W 8834  37.948  39.517  11.598
40441W        W 8835  44.487   4.474   1.352
40442W        W 8836  35.917  10.208  14.491
40443W        W 8837  12.269  22.794   0.998
40444W        W 8838  28.489  21.107   1.834
40445W        W 8839  17.657  27.793  14.365
40446W        W 8840  35.761  37.461  12.606
40447W        W 8841  26.969  36.584   0.704
40448W        W 8842  20.186   3.980  13.376
40449W        W 8843  32.577  32.378  12.049
40450W        W 8844  36.071  23.371  14.781
40451W        W 8845  26.423   2.439   3.969
40452W        W 8846  40.899  39.908  12.596
40453W        W 8847  39.558  43.942   2.700
40454W        W 8848   5.752  19.488  12.852
40455W        W 8849  11.720  22.354  14.887
40456W        W 8850   3.439   6.290   0.658
40457W        W 8851  33.780  23.340  14.555
40458W        W 8852  33.364  23.769   1.933
40459W        W 8853  11.454  18.684   2.279
40460W        W 8854  13.834  36.440   0.268
40461W        W 8855   3.930  18.377  10.684
40462W        W 8856  40.884  15.035   4.384
40463W        W 8857  37.464  20.661   3.065
40464W        W 8858  10.633  39.899  11.396
40465W        W 8859  11.763   1.904  11.181
40466W        W 8860  18.049   1.911  14.804
40467W        W 8861  16.647  21.598  14.098
40468W        W 8862  12.019  44.175   4.224
40469W        W 8863  29.738  17.293   3.149
40470W        W 8864   5.813  29.046   4.723
40471W        W 8865  13.123  21.498  11.548
40472W        W 8866  29.665  10.570  10.626
40473W        W 8867  40.836  39.453   1.808
40474W        W 8868   2.422  30.666   2.145
40475W        W 8869  22.281  34.094   3.204
40476W        W 8870  12.144  38.754   4.724
40477W        W 8871  40.008  42.348   4.363
40478W        W 8872   5.231  27.216  13.023
40479W        W 8873  16.572  14.840   3.932
40480W        W 8874  32.146   4.156   3.834
40481W        W 8875  39.222   6.739  11.926
40482W        W 8876  16.569  18.306   5.474
40483W        W 8877  23.566  14.074   0.274
40484W        W 8878  25.543   1.887   1.769
40485W        W 8879  41.100  18.953   4.769
40486W        W 8880  23.595   5.241   4.140
40487W        W 8881  27.217  38.871   4.507
40488W        W 8882  10.469  29.624  12.508
40489W        W 8883   0.495  22.522  12.480
40490W        W 8884  17.776  33.449  12.623
40491W        W 8885   1.401  40.367   2.295
40492W        W 8886  44.392  38.898  14.611
40493W        W 8887  21.871   2.818   2.258
40494W        W 8888  42.727   9.560  11.988
40495W        W 8889  43.318   7.983  13.769
40496W        W 8890  43.390  22.620   2.156
40497W        W 8891  21.033  17.653  14.733
40498W        W 8892  29.114  20.281  12.120
40499W        W 8893  38.088  40.017  11.570
40500W        W 8894  43.473  21.475   1.192
40501W        W 8895  12.247  19.980   3.716
40502W        W 8896   3.304  28.741  12.993
40503W        W 8897  27.084   9.950   5.380
40504W        W 8898  30.673  20.173   4.508
40505W        W 8899  15.887  10.352   4.090
40506W        W 8900  24.539  28.646  13.423
40507W        W 8901   6.373  25.880  11.242
40508W        W 8902   1.392   6.221  11.383
40509W        W 8903  26.147  17.128   2.397
40510W        W 8904  33.521  28.545  13.170
40511W        W 8905   0.933  13.394  10.656
40512W        W 8906  28.471  24.154   1.649
40513W        W 8907  36.751  10.651  12.052
40514W        W 8908  27.261   2.575   3.508
40515W        W 8909  17.918  29.308   1.246
40516W        W 8910  16.495   0.841   3.720
40517W        W 8911  15.765  10.716  10.515
40518W        W 8912  35.129   7.802   0.896
40519W        W 8913  13.746   9.129  14.581
40520W        W 8914  40.440  17.179  10.728
40521W        W 8915   1.899  21.472  11.310
40522W        W 8916   3.279  35.509   0.800
40523W        W 8917  24.764  24.771  12.012
40524W        W 8918   3.294  20.583   0.411
40525W        W 8919  12.176  21.691   3.590
40526W        W 8920   7.749  40.549   3.701
40527W        W 8921  32.623  29.389   2.406
40528W        W 8922  35.364   8.899   1.289
40529W        W 8923  37.491  35.624   4.298
40530W        W 8924  24.571   3.301   3.204
40531W        W 8925   2.404  15.313  13.389
40532W        W 8926  41.899  24.878   2.430
40533W        W 8927  15.395  31.523   2.164
40534W        W 8928  42.270  35.266   3.762
40535W        W 8929   7.062  11.484  12.408
40536W        W 8930  17.327  11.940   3.685
40537W        W 8931  23.717  37.376  10.558
40538W        W 8932  33.069  43.434   2.255
40539W        W 8933  21.503  18.019  11.899
40540W        W 8934   6.430   6.311  12.365
40541W        W 8935   4.543  20.647   4.153
40542W        W 8936  40.292   4.869  11.580
40543W        W 8937  41.302   5.871   1.665
40544W        W 8938  21.923  42.821  11.386
40545W        W 8939   5.198   8.133   2.827
40546W        W 8940  28.188  37.010   9.964
40547W        W 8941   3.238  27.152   0.854
40548W        W 8942  11.617  10.866   1.481
40549W        W 8943  35.096  13.310  10.706
40550W        W 8944  36.760   8.187  12.064
40551W        W 8945  30.060  38.155   4.465
40552W        W 8946   4.359  43.810   2.850
40553W        W 8947  44.406  34.034  14.457
40554W        W 8948  35.180  22.210  12.741
40555W        W 8949   1.995  26.462  13.922
40556W        W 8950   9.804   5.246   4.966
40557W        W 8951  33.038  25.027  13.308
40558W        W 8952   7.874  11.604   0.054
40559W        W 8953   5.411  20.995  12.458
40560W        W 8954  22.502   1.399  13.196
40561W        W 8955   4.269  27.192  11.352
40562W        W 8956  39.878  27.083   4.608
40563W        W 8957   5.224  31.152  14.795
40564W        W 8958  16.559  12.024   2.198
40565W        W 8959  44.420  36.150  14.556
40566W        W 8960  39.957  44.400  12.749
40567W        W 8961  21.299  43.502  10.675
40568W        W 8962  20.906  15.224  11.123
40569W        W 8963  20.041  34.970  11.883
40570W        W 8964  36.457  35.604  10.734
40571W        W 8965   4.610   4.105   3.157
40572W        W 8966   7.140   2.779  11.248
40573W        W 8967   3.544   6.482  13.506
40574W        W 8968  37.564  12.297   0.768
40575W        W 8969   0.978   7.118  12.624
40576W        W 8970  17.276  24.817  12.304
40577W        W 8971   3.857  42.506   2.342
40578W        W 8972  25.249  39.908  12.056
40579W        W 8973  29.501  35.582  14.097
40580W        W 8974  12.408  28.052   0.321
40581W        W 8975  15.150  10.937   1.236
40582W        W 8976  40.298   3.114  12.547
40583W        W 8977  29.438  13.854   4.231
40584W        W 8978   3.944  14.715   0.061
40585W        W 8979   6.595   1.025   9.942
40586W        W 8980  29.147  29.656   1.121
40587W        W 8981   4.153   8.018   4.268
40588W        W 8982  22.203  25.122  13.716
40589W        W 8983  16.819  14.679   4.364
40590W        W 8984   3.512  33.322  13.896
40591W        W 8985   2.568  30.156  11.377
40592W        W 8986  16.121  16.799   0.877
40593W        W 8987  34.690   6.714   1.574
40594W        W 8988  33.385  40.726   3.915
40595W        W 8989  18.352  40.972  12.983
40596W        W 8990  36.400  12.610  10.549
40597W        W 8991  29.671  27.161   4.082
40598W        W 8992  22.006   4.939  12.487
40599W        W 8993  15.198  26.169  14.885
40600W        W 8994  44.333  16.887   0.337
40601W        W 8995  35.690  23.059   0.001
40602W        W 8996   1.495  18.016  13.005
40603W        W 8997  27.965  33.573  13.872
40604W        W 8998  25.886  24.169  10.746
40605W        W 8999  38.838  23.255   9.969
40606W        W 9000  31.600   3.338   1.155
40607W        W 9001  17.043   1.814   0.564
40608W        W 9002  24.124   6.034   0.985
40609W        W 9003  14.759  13.372  13.874
40610W        W 9004  24.165  21.083  10.789
40611W        W 9005  21.437  33.616   0.368
40612W        W 9006  27.738  41.924  10.520
40613W        W 9007  28.862  25.651   4.071
40614W        W 9008  22.217  26.946  11.439
40615W        W 9009  40.129  22.066   0.902
40616W        W 9010  19.582  14.861  10.411
40617W        W 9011  34.308  44.296  11.627
40618W        W 9012  16.346   8.836  13.474
40619W        W 9013  35.012  10.287  12.157
40620W        W 9014   1.290   3.755   4.758
40621W        W 9015  39.311  22.605   1.174
40622W        W 9016  29.488  22.150  12.854
40623W        W 9017  23.710  38.991   0.791
40624W        W 9018  44.992  41.923   2.389
40625W        W 9019  33.381   9.309  11.055
40626W        W 9020   7.245  15.755   4.415
40627W        W 9021  27.712  33.714   4.611
40628W        W 9022  38.416  27.578  13.088
40629W        W 9023   4.281  15.243   1.960
40630W        W 9024  20.388  28.128  12.925
40631W        W 9025  37.562  33.004   3.697
40632W        W 9026  37.140   7.238  12.920
40633W        W 9027  26.760  37.555   1.413
40634W        W 9028  23.047  40.509  13.377
40635W        W 9029  11.880  20.796   2.834
40636W        W 9030   1.386  23.581  12.548
40637W        W 9031  31.037  35.920  12.466
40638W        W 9032  37.467   3.146   1.735
40639W        W 9033  10.283  44.381   9.773
40640W        W 9034  17.038   5.235   1.298
40641W        W 9035   5.211  40.552   4.875
40642W        W 9036  35.608  15.092  14.320
40643W        W 9037  40.299   5.138  12.410
40644W        W 9038  22.582  27.102   0.810
40645W        W 9039  17.332   1.492  14.268
40646W        W 9040  26.192  35.086   4.822
40647W        W 9041  39.798  37.558   3.259
40648W        W 9042  39.120  37.773   2.339
40649W        W 9043  39.795  17.312  12.094
40650W        W 9044  26.572  28.920  14.353
40651W        W 9045  19.637  44.887  10.810
40652W        W 9046  31.068  19.284  14.982
40653W        W 9047   2.377  19.061   1.216
40654W        W 9048   4.848  16.794   1.230
40655W        W 9049  34.134  29.520   1.186
40656W        W 9050  13.401  10.180  10.777
40657W        W 9051  22.269  39.000  14.459
40658W        W 9052  33.500   1.322  12.917
40659W        W 9053  24.864  39.678  13.748
40660W        W 9054  38.988  30.700   1.457
40661W        W 9055  28.751   7.706   0.874
40662W        W 9056  37.995  18.659  14.141
40663W        W 9057   9.943   2.562  13.438
40664W        W 9058  25.726   5.953   2.798
40665W        W 9059  20.735   8.387  13.292
40666W        W 9060  35.702   4.438  11.538
40667W        W 9061  35.163   4.343   4.839
40668W        W 9062  31.667   9.983   4.098
40669W        W 9063   1.420  21.224  12.985
40670W        W 9064  30.483   5.971  11.088
40671W        W 9065  12.896  19.137  14.306
40672W        W 9066   4.366   0.957   2.837
40673W        W 9067  19.720  44.205  12.976
40674W        W 9068  24.074   6.368  14.281
40675W        W 9069  28.260   8.368   3.210
40676W        W 9070   3.874  13.133   0.837
40677W        W 9071  29.757   0.238  12.535
40678W        W 9072  25.288  36.260  13.838
40679W        W 9073   7.778  41.411   0.517
40680W        W 9074  28.188  40.083  13.434
40681W        W 9075  32.388  20.913  14.711
40682W        W 9076  29.983   9.458  13.931
40683W        W 9077  44.137  44.434   9.983
40684W        W 9078  25.398   4.596   0.451
40685W        W 9079  36.017   2.821  10.581
40686W        W 9080  18.336   8.144   4.094
40687W        W 9081  19.834   7.771  12.414
40688W        W 9082   3.812   4.653  11.993
40689W        W 9083  30.364  26.178  14.965
40690W        W 9084  37.447  25.073  12.406
40691W        W 9085  43.811  41.604  13.497
40692W        W 9086  34.162  39.894   1.185
40693W        W 9087  24.633  19.449   1.687
40694W        W 9088  38.075  11.757   3.785
40695W        W 9089   6.017  28.124   0.969
40696W        W 9090  31.111  18.591   2.168
40697W        W 9091   7.466  38.375   0.297
40698W        W 9092  36.406  24.937   4.085
40699W        W 9093   9.752  44.761   2.173
40700W        W 9094  41.405   0.315  14.399
40701W        W 9095  36.579  31.106   1.886
40702W        W 9096  43.327  31.982   4.189
40703W        W 9097  22.554  36.235   0.244
40704W        W 9098  41.855  27.216  13.925
40705W        W 9099  35.332  36.282  14.614
40706W        W 9100  15.479  44.197  12.721
40707W        W 9101  43.503  31.722   2.864
40708W        W 9102  21.115  26.633  14.896
40709W        W 9103  10.945  44.506   0.902
40710W        W 9104  21.423   5.357   3.159
40711W        W 9105  37.439  34.546   5.003
40712W        W 9106   8.233  22.012   1.675
40713W        W 9107  35.590  42.208  12.421
40714W        W 9108  32.919  38.574   0.702
40715W        W 9109  12.152  40.360  13.304
40716W        W 9110   7.007   1.798   3.598
40717W        W 9111  40.422  25.102  12.459
40718W        W 9112  11.205  40.250  13.921
40719W        W 9113   2.279  26.753  12.597
40720W        W 9114  29.064   2.895   3.098
40721W        W 9115  16.702   7.191   4.156
40722W        W 9116  12.716  19.158   0.745
40723W        W 9117   8.422  23.625   3.613
40724W        W 9118   4.756  17.407  14.091
40725W        W 9119  14.808  21.507   2.181
40726W        W 9120  14.941  38.772   2.700
40727W        W 9121  34.857  10.494  12.618
40728W        W 9122  10.237  10.774  11.591
40729W        W 9123  23.787  19.108   2.675
40730W        W 9124  41.258   6.846  11.859
40731W        W 9125  20.666  13.420  14.251
40732W        W 9126  42.761  10.696  10.843
40733W        W 9127  39.415   8.761   4.554
40734W        W 9128  17.730  41.099  10.358
40735W        W 9129   0.316  35.018   0.198
40736W        W 9130   1.225  28.392  11.034
40737W        W 9131  42.875  26.009  12.925
40738W        W 9132   0.517  13.123  10.436
40739W        W 9133  38.969  34.171   3.075
40740W        W 9134   0.538   0.426   1.750
40741W        W 9135  38.491  44.740   1.399
40742W        W 9136  21.435  17.178   0.364
40743W        W 9137  20.855  41.163   0.896
40744W        W 9138  34.710  21.591   2.627
40745W        W 9139  44.799   7.168   4.547
40746W        W 9140  10.833  32.523  13.890
40747W        W 9141   0.821   0.809   4.333
40748W        W 9142  13.675  11.638  14.099
40749W        W 9143  35.461  28.510  10.574
40750W        W 9144  10.189  10.718   2.283
40751W        W 9145   2.273  29.473  13.462
40752W        W 9146  24.732  13.138  13.919
40753W        W 9147   7.982  22.583   0.834
40754W        W 9148  16.286  20.951  13.319
40755W        W 9149  42.747  16.646  10.658
40756W        W 9150  14.004  20.051   0.477
40757W        W 9151  40.628   8.225   0.475
40758W        W 9152  32.277  16.279  13.443
40759W        W 9153  30.859  14.349  12.526
40760W        W 9154  39.336   9.116   3.729
40761W        W 9155  38.948   5.808  13.090
40762W        W 9156  40.142  13.700   3.572
40763W        W 9157  43.367  36.407   3.994
40764W        W 9158   7.704   7.885   1.477
40765W        W 9159   9.471  23.283   2.774
40766W        W 9160  18.000   5.719  12.230
40767W        W 9161   5.723  15.529   0.909
40768W        W 9162  28.463  31.120  12.077
40769W        W 9163   6.396  27.909   4.591
40770W        W 9164   5.338   0.393   1.344
40771W        W 9165  26.739  28.825   1.810
40772W        W 9166   8.217  26.967  10.667
40773W        W 9167  34.554  18.074  12.680
40774W        W 9168  24.309  17.795   0.721
40775W        W 9169  33.391  40.423   2.632
40776W        W 9170   9.014  30.638  13.658
40777W        W 9171  30.458  44.096  14.500
40778W        W 9172  11.831   7.341   1.949
40779W        W 9173  42.323   9.895  13.782
40780W        W 9174  21.019  29.375   4.368
40781W        W 9175  41.869  36.919   0.975
40782W        W 9176  42.941  44.488  12.446
40783W        W 9177  19.962  34.017  11.986
40784W        W 9178  42.049  25.755   1.429
40785W        W 9179   4.819  30.582  13.031
40786W        W 9180  36.030  40.535   4.427
40787W        W 9181   3.391  13.407  14.827
40788W        W 9182  11.575  36.630   3.343
40789W        W 9183  25.132  40.430   4.694
40790W        W 9184  27.573  37.474   4.151
40791W        W 9185  37.506  15.281   4.567
40792W        W 9186  25.139  28.588  11.624
40793W        W 9187  12.072  22.190  13.287
40794W        W 9188  40.563  14.737  10.755
40795W        W 9189   6.988  30.309   3.210
40796W        W 9190   8.283  35.013  10.833
40797W        W 9191  35.392  16.254   1.915
40798W        W 9192   0.566  28.103   2.684
40799W        W 9193  15.599  29.942  13.251
40800W        W 9194  30.607  37.106  10.856
40801W        W 9195   6.807  15.878   4.074
40802W        W 9196  32.195  20.711   3.737
40803W        W 9197  19.688  37.794  12.491
40804W        W 9198  19.485  34.035   3.533
40805W        W 9199  19.611  37.829   3.135
40806W        W 9200  35.478  20.829  14.852
40807W        W 9201  19.572   5.682  12.257
40808W        W 9202  29.957  28.454   1.322
40809W        W 9203   2.371   8.136  13.484
40810W        W 9204  26.534  13.523  10.782
40811W        W 9205   5.002  16.996   1.932
40812W        W 9206  16.584  19.147  11.682
40813W        W 9207   5.669  36.852   3.043
40814W        W 9208  34.826  12.024  13.504
40815W        W 9209  42.732   8.957  10.160
40816W        W 9210  33.397   8.324   0.861
40817W        W 9211  10.106  35.905  12.611
40818W        W 9212  43.507  42.265  13.132
40819W        W 9213   0.442  41.876  11.582
40820W        W 9214  12.934  37.983   1.010
40821W        W 9215   9.095  16.269  11.810
40822W        W 9216  28.994  27.010  12.473
40823W        W 9217  30.708  34.069  11.637
40824W        W 9218  18.141  10.701   2.411
40825W        W 9219  32.892  44.255   0.801
40826W        W 9220   7.221  34.449   1.790
40827W        W 9221  31.517  36.370  13.099
40828W        W 9222  30.961   6.040   4.522
40829W        W 9223  28.534  16.561   3.481
40830W        W 9224  20.030  35.621  14.522
40831W        W 9225   3.398  23.599   3.125
40832W        W 9226  17.020  14.508   3.869
40833W        W 9227  44.250  26.018  10.588
40834W        W 9228  24.387  30.234   0.546
40835W        W 9229  25.420  28.953   1.823
40836W        W 9230  22.038  10.334  12.412
40837W        W 9231  24.668  29.556   2.203
40838W        W 9232   7.513  15.166  13.503
40839W        W 9233  10.549  20.170   1.907
40840W        W 9234  19.633  42.350   2.312
40841W        W 9235  28.529   6.445   3.486
40842W        W 9236  43.805  32.605   0.781
40843W        W 9237  12.767  20.005  11.103
40844W        W 9238   8.053  35.958  13.955
40845W        W 9239  28.941  28.111   1.692
40846W        W 9240  32.989  32.308   1.919
40847W        W 9241  26.584  40.875  14.580
40848W        W 9242  36.345  37.571  10.781
40849W        W 9243  38.318   0.338  12.470
40850W        W 9244  44.316  16.653  14.876
40851W        W 9245   0.841   2.244   0.476
40852W        W 9246  33.511  25.238   2.248
40853W        W 9247  14.799  33.694   4.675
40854W        W 9248  44.506  10.294   3.277
40855W        W 9249  36.534  24.541   3.410
40856W        W 9250  44.443  11.615  12.088
40857W        W 9251  33.705  12.735  11.949
40858W        W 9252  44.575  11.225   1.704
40859W        W 9253   7.182  32.334   1.934
40860W        W 9254  18.285  16.549  10.756
40861W        W 9255  36.481   5.348   4.601
40862W        W 9256  18.659  25.760  13.420
40863W        W 9257  33.814   8.620  13.551
40864W        W 9258  30.587   9.326  14.636
40865W        W 9259  11.377  39.355  10.469
40866W        W 9260  27.541  43.292  13.854
40867W        W 9261   2.370  19.344   4.670
40868W        W 9262   0.393  15.144  13.930
40869W        W 9263  27.635  39.594   0.174
40870W        W 9264  12.412   0.519   4.112
40871W        W 9265  26.154  41.028  10.907
40872W        W 9266  25.201   9.725   3.636
40873W        W 9267  29.957  39.065   0.292
40874W        W 9268   5.837   6.939   4.537
40875W        W 9269  42.995  21.294   1.381
40876W        W 9270  14.753  43.358   0.472
40877W        W 9271  37.492  23.169   2.933
40878W        W 9272  34.904   6.800   0.089
40879W        W 9273  10.427  39.293   3.175
40880W        W 9274  12.124  24.707   1.397
40881W        W 9275  34.067  14.740   1.637
40882W        W 9276  30.642  40.533   4.181
40883W        W 9277  36.380   2.296   3.206
40884W        W 9278  43.913  42.503   1.396
40885W        W 9279  16.072  39.499   0.661
40886W        W 9280  23.357  25.574  14.913
40887W        W 9281  22.056   3.170   0.277
40888W        W 9282  15.173  40.571  11.148
40889W        W 9283  15.302  18.084   0.741
40890W        W 9284  20.759  22.718  10.944
40891W        W 9285  10.109  30.508  12.612
40892W        W 9286  14.330  30.568   0.506
40893W        W 9287   0.010  22.925   0.794
40894W        W 9288  22.951  29.408  11.205
40895W        W 9289  18.141  32.164  12.102
40896W        W 9290  21.650  44.436  10.561
40897W        W 9291  14.562  40.013   1.329
40898W        W 9292  43.492  23.692  11.038
40899W        W 9293   0.936  17.245  12.145
40900W        W 9294   6.767  21.657  12.622
40901W        W 9295  27.274  18.243  14.329
40902W        W 9296  28.920   3.215   1.007
40903W        W 9297  24.080  24.952  11.009
40904W        W 9298  10.191  21.295  12.536
40905W        W 9299  33.185  31.567  13.456
40906W        W 9300  30.106  12.915   3.842
40907W        W 9301   1.794  16.798   0.200
40908W        W 9302   0.305  33.102  12.454
40909W        W 9303  10.907  19.118   0.887
40910W        W 9304  14.222  25.463  13.907
40911W        W 9305  35.141  20.436  14.785
40912W        W 9306  25.504  21.699  13.466
40913W        W 9307  35.462  29.606  10.807
40914W        W 9308  41.394  44.504   2.833
40915W        W 9309   1.242  18.717  12.140
40916W        W 9310   2.476   0.900   2.685
40917W        W 9311   6.706  40.276  13.328
40918W        W 9312   5.345  38.156   0.307
40919W        W 9313  44.684  11.092  10.634
40920W        W 9314  37.711  22.916   3.307
40921W        W 9315  30.011  12.337  10.700
40922W        W 9316   2.490  16.732   4.537
40923W        W 9317  25.839  13.171  12.531
40924W        W 9318  17.165   4.216  13.933
40925W        W 9319   7.291  34.090   4.376
40926W        W 9320   5.682  18.621   0.969
40927W        W 9321  13.821   5.270   1.666
40928W        W 9322  35.633  12.129  11.058
40929W        W 9323  40.539  26.654   2.525
40930W        W 9324  42.422  17.786  10.388
40931W        W 9325  27.302  16.560   1.372
40932W        W 9326  31.448  32.486  12.948
40933W        W 9327   4.512  27.080   1.426
40934W        W 9328  39.026  13.862  13.858
40935W        W 9329  11.871   4.303  14.387
40936W        W 9330  23.610  38.406   4.729
40937W        W 9331  11.875   8.403  13.371
40938W        W 9332  44.213  36.934  11.920
40939W        W 9333   0.234  13.829   0.821
40940W        W 9334  43.619  19.560   0.881
40941W        W 9335   2.351  27.153  13.525
40942W        W 9336  32.053   5.591  11.564
40943W        W 9337  31.010  34.378  12.068
40944W        W 9338  34.176  28.200   4.688
40945W        W 9339   0.843  13.527  12.459
40946W        W 9340  23.586   7.478  13.425
40947W        W 9341   2.219  36.029  12.061
40948W        W 9342  20.725  28.728   1.588
40949W        W 9343   1.093   8.874  10.688
40950W        W 9344  31.981   6.439  13.598
40951W        W 9345  10.584  31.707   4.157
40952W        W 9346  23.613  14.171   0.806
40953W        W 9347  39.807  31.511   5.040
40954W        W 9348  18.304  20.091   4.230
40955W        W 9349  22.210   6.692   2.842
40956W        W 9350  43.575  43.803  11.991
40957W        W 9351  40.084  17.248  14.013
40958W        W 9352  34.503  16.660   4.657
40959W        W 9353  30.632  20.214   1.971
40960W        W 9354  44.314  14.509  13.415
40961W        W 9355  44.596  14.291  12.217
40962W        W 9356   1.107  27.924  11.179
40963W        W 9357  22.522  12.833   2.223
40964W        W 9358  33.152  30.666   3.924
40965W        W 9359   3.928  38.882  12.945
40966W        W 9360  28.215  37.733  14.726
40967W        W 9361  12.861   2.272   2.959
40968W        W 9362  24.816  10.398  14.290
40969W        W 9363  23.497  17.023  14.080
40970W        W 9364  11.333   2.422  13.584
40971W        W 9365  14.343  42.112   4.000
40972W        W 9366  14.390   5.244  10.712
40973W        W 9367  31.488  38.916  13.500
40974W        W 9368   3.262  16.290  11.500
40975W        W 9369   8.841  31.120  12.624
40976W        W 9370  24.363  44.374  10.061
40977W        W 9371  37.904  23.001   2.659
40978W        W 9372  16.099  10.985  13.922
40979W        W 9373  29.620  34.988   1.941
40980W        W 9374  35.301  13.307  12.350
40981W        W 9375  29.571  32.573   2.441
40982W        W 9376  19.431  20.633   0.512
40983W        W 9377   1.371  11.479   2.195
40984W        W 9378  27.588  25.050  14.918
40985W        W 9379  17.690  27.089  12.785
40986W        W 9380  21.414  40.309  12.092
40987W        W 9381   5.465  19.850   0.315
40988W        W 9382  27.450  35.821  11.046
40989W        W 9383   0.579  32.508  10.775
40990W        W 9384  15.904  41.829  12.098
40991W        W 9385  21.370   9.456  14.227
40992W        W 9386  28.471   7.508  13.910
40993W        W 9387  40.029  30.888   1.337
40994W        W 9388  20.090   7.693   2.858
40995W        W 9389  30.701  28.475  14.629
40996W        W 9390  17.541  33.104   0.230
40997W        W 9391  27.729   9.870  14.848
40998W        W 9392   8.439  31.992   4.634
40999W        W 9393  23.600   4.463  11.976
41000W        W 9394  21.532  21.491   1.278
41001W        W 9395   6.781  10.447  11.687
41002W        W 9396   9.908   1.885   3.302
41003W        W 9397  11.066  30.787   1.187
41004W        W 9398  10.686  35.087   2.229
41005W        W 9399  26.447   4.470  11.202
41006W        W 9400  41.574  38.133   1.696
41007W        W 9401   5.648  34.025   0.742
41008W        W 9402  38.884  36.687   1.621
41009W        W 9403  24.953  23.254   2.584
41010W        W 9404  31.951  21.682  13.152
41011W        W 9405  38.345   9.229  12.845
41012W        W 9406  13.787   4.034  14.839
41013W        W 9407  18.144  43.764   4.491
41014W        W 9408  40.020   3.909  14.342
41015W        W 9409  11.575  29.682  11.229
41016W        W 9410  39.007  44.026   0.434
41017W        W 9411  30.430  10.763  12.836
41018W        W 9412  20.102   6.664  13.964
41019W        W 9413  10.225  27.138  11.037
41020W        W 9414  44.294   7.954   1.910
41021W        W 9415  10.842  33.960  14.747
41022W        W 9416  30.309  23.657  14.326
41023W        W 9417  27.206  29.091  14.738
41024W        W 9418  28.986  21.138   1.174
41025W        W 9419  24.463   6.932  13.500
41026W        W 9420  16.294   5.330   2.701
41027W        W 9421  38.341  41.871   3.836
41028W        W 9422   5.298   7.764   1.389
41029W        W 9423  15.213  25.499   1.216
41030W        W 9424  27.908   2.740  12.299
41031W        W 9425  44.140  14.979  12.682
41032W        W 9426   1.342  26.125  11.413
41033W        W 9427  21.248   9.731  11.063
41034W        W 9428  35.029   9.452  12.564
41035W        W 9429  22.684   9.682   0.361
41036W        W 9430  15.826   0.561   0.928
41037W        W 9431   8.200  39.075   1.115
41038W        W 9432   1.520  35.629   4.145
41039W        W 9433  22.628  43.532   0.527
41040W        W 9434  16.027  24.587  12.954
41041W        W 9435   4.475   6.043   2.470
41042W        W 9436  17.844  38.140  11.612
41043W        W 9437  16.705  20.504  13.292
41044W        W 9438   4.653  41.367   5.107
41045W        W 9439   8.945   2.804  14.428
41046W        W 9440   3.312  19.813   3.822
41047W        W 9441  17.326  42.994  10.605
41048W        W 9442   9.606   9.223  12.269
41049W        W 9443  15.419   7.775  14.255
41050W        W 9444  18.391  10.010   4.083
41051W        W 9445  30.521  30.549   1.749
41052W        W 9446  31.045  40.559   3.840
41053W        W 9447  36.822  16.420   1.571
41054W        W 9448   5.198   7.080   3.844
41055W        W 9449  15.620  27.497  11.720
41056W        W 9450  24.435  38.471   4.393
41057W        W 9451  31.941   1.892   2.905
41058W        W 9452   4.456  44.894  13.358
41059W        W 9453  26.452  13.165  14.884
41060W        W 9454  12.655  29.735  13.435
41061W        W 9455  44.942  19.590  10.652
41062W        W 9456  21.251  25.644   1.757
41063W        W 9457   0.325  21.895  13.629
41064W        W 9458  44.930  12.253  12.485
41065W        W 9459  34.672  42.825  13.414
41066W        W 9460  36.362  34.544   4.604
41067W        W 9461  24.529   1.014   0.451
41068W        W 9462  11.184  37.447  12.421
41069W        W 9463   1.296   7.843   1.713
41070W        W 9464   0.488  31.559  12.194
41071W        W 9465   5.773  33.223   3.585
41072W        W 9466   6.904  33.424  13.846
41073W        W 9467   9.974  13.269  10.523
41074W        W 9468  20.136  13.330   2.340
41075W        W 9469   4.650   4.586  10.297
41076W        W 9470   2.827  15.404   4.616
41077W        W 9471   7.955  10.432  11.588
41078W        W 9472  40.007  34.547   1.852
41079W        W 9473  28.905  27.502  12.161
41080W        W 9474   6.541   5.930  11.534
41081W        W 9475  39.077  38.493  13.062
41082W        W 9476  31.599  33.792   3.226
41083W        W 9477  20.063   9.526   0.484
41084W        W 9478   2.953  33.655  12.116
41085W        W 9479   5.216  17.550  13.815
41086W        W 9480  41.090  18.830  12.410
41087W        W 9481  40.764   7.435  12.533
41088W        W 9482  29.640   0.920  12.231
41089W        W 9483  31.535  36.440   4.204
41090W        W 9484  10.218   0.877   0.602
41091W        W 9485  33.663   3.944  12.299
41092W        W 9486  39.518  40.555   4.799
41093W        W 9487  38.409  44.786  10.720
41094W        W 9488  30.401  14.586  12.533
41095W        W 9489  22.742  36.388  10.829
41096W        W 9490   4.724  39.345   4.330
41097W        W 9491   9.874   8.826  12.449
41098W        W 9492  24.547  14.356  12.443
41099W        W 9493  25.200  41.051   1.321
41100W        W 9494   5.834  41.200  11.093
41101W        W 9495  16.687   1.124   4.538
41102W        W 9496  39.316  29.891   3.242
41103W        W 9497  22.985   0.044   2.445
41104W        W 9498   5.975  14.788  11.259
41105W        W 9499  37.808   1.109  11.967
41106W        W 9500  36.065   7.845  14.882
41107W        W 9501  24.959  13.298   1.956
41108W        W 9502   6.679  31.581   1.161
41109W        W 9503  12.727   4.998  13.387
41110W        W 9504  40.161  42.981  11.517
41111W        W 9505  29.919  22.740  14.194
41112W        W 9506   8.337  41.752   1.139
41113W        W 9507   5.455   8.303  13.032
41114W        W 9508  40.575  42.922   0.968
41115W        W 9509  21.230  39.836   4.108
41116W        W 9510  27.539  41.188   2.099
41117W        W 9511  30.280  43.452   3.984
41118W        W 9512   5.425   7.291   4.313
41119W        W 9513  28.818  19.584  12.994
41120W        W 9514   2.466   9.313   4.755
41121W        W 9515  26.050  22.268  12.778
41122W        W 9516   2.828  11.694  13.928
41123W        W 9517  21.611  21.180   3.876
41124W        W 9518  16.520  16.748   2.175
41125W        W 9519   3.720  30.014  13.375
41126W        W 9520  24.089  14.618  14.550
41127W        W 9521  27.433  26.642   3.244
41128W        W 9522   6.686  40.314  11.435
41129W        W 9523   6.665  20.958   3.668
41130W        W 9524   8.426  28.935   0.357
41131W        W 9525  37.463  44.607   5.081
41132W        W 9526  21.188  18.961   4.149
41133W        W 9527  26.773  36.482   2.836
41134W        W 9528  28.127   2.863  11.709
41135W        W 9529   4.658  23.062   3.521
41136W        W 9530  22.574   8.192  13.001
41137W        W 9531  17.722  29.999  12.072
41138W        W 9532  27.758   9.871  13.064
41139W        W 9533  31.661   5.518  13.280
41140W        W 9534  23.961  25.932   5.036
41141W        W 9535  27.058   3.656   0.644
41142W        W 9536  13.295  34.838   3.453
41143W        W 9537  32.014  37.707   4.119
41144W        W 9538   6.276  19.519  11.841
41145W        W 9539  44.554  42.050   4.959
41146W        W 9540  41.011  39.957  11.364
41147W        W 9541  27.102  15.406  11.602
41148W        W 9542  27.739   9.322   1.687
41149W        W 9543  37.930   1.758  10.208
41150W        W 9544  10.866  33.498   1.760
41151W        W 9545  15.028  42.265   3.353
41152W        W 9546  10.273  16.837  11.927
41153W        W 9547  18.183   5.801   4.015
41154W        W 9548  20.976   3.724  10.645
41155W        W 9549  40.870  17.496   1.678
41156W        W 9550   8.361  10.136  14.367
41157W        W 9551  17.772  16.589   1.325
41158W        W 9552  24.230   1.449  12.215
41159W        W 9553  24.077  27.218  13.794
41160W        W 9554  41.540   3.276   4.148
41161W        W 9555  42.840  13.894   3.357
41162W        W 9556  42.448  32.859  10.744
41163W        W 9557   9.174  34.553  11.673
41164W        W 9558  35.981  40.493  11.984
41165W        W 9559  28.079  15.038   4.710
41166W        W 9560  13.833  24.526   3.320
41167W        W 9561  21.792  18.630   1.829
41168W        W 9562  16.694  29.720  12.507
41169W        W 9563   0.281  40.739   2.682
41170W        W 9564   6.581   3.321   1.307
41171W        W 9565  38.220  24.261   2.158
41172W        W 9566  32.217  22.194  12.002
41173W        W 9567  24.608  20.123   2.306
41174W        W 9568  41.613  42.173  12.014
41175W        W 9569   4.719   2.726   2.306
41176W        W 9570  29.601  20.233  12.026
41177W        W 9571   3.427  30.907   4.512
41178W        W 9572  44.262  42.902   4.107
41179W        W 9573   2.159  11.604   5.069
41180W        W 9574  40.367  14.838  11.611
41181W        W 9575  37.797   8.870   1.122
41182W        W 9576   6.801  36.356  12.514
41183W        W 9577  16.135  23.721   3.336
41184W        W 9578  13.092   0.258   1.350
41185W        W 9579  43.363  23.150  11.203
41186W        W 9580   0.227  18.239   3.372
41187W        W 9581  21.221  36.392   0.284
41188W        W 9582   0.887  17.737   2.657
41189W        W 9583  26.869  11.355   1.310
41190W        W 9584  39.260   1.026   2.774
41191W        W 9585  33.354  32.064  10.990
41192W        W 9586   5.058  44.883  14.229
41193W        W 9587  40.439  41.704   2.746
41194W        W 9588  35.571  20.510  13.043
41195W        W 9589  35.004  20.722   0.593
41196W        W 9590  25.517   2.290  13.991
41197W        W 9591   1.353  34.900   2.402
41198W        W 9592  19.081  27.418   0.296
41199W        W 9593  35.917  39.606  14.777
41200W        W 9594  32.040  11.130   1.159
41201W        W 9595  24.296  24.764   3.810
41202W        W 9596  12.724  29.682   2.798
41203W        W 9597  22.976  28.407  13.810
41204W        W 9598  26.067  43.487   2.175
41205W        W 9599   5.671  10.717  11.554
41206W        W 9600  16.730  43.552  14.185
41207W        W 9601  35.463   3.772   3.711
41208W        W 9602  29.108  22.082  11.958
41209W        W 9603  18.207  40.990   2.871
41210W        W 9604  32.800  27.554  11.196
41211W        W 9605  35.955  16.258   3.241
41212W        W 9606  12.173  24.600   3.706
41213W        W 9607  15.276  36.933   5.041
41214W        W 9608  13.072  39.821  14.779
41215W        W 9609  40.886  24.269   1.037
41216W        W 9610  44.110  37.270  14.732
41217W        W 9611  43.311   0.815  14.714
41218W        W 9612  39.185  41.000  14.995
41219W        W 9613  35.384  19.660   3.245
41220W        W 9614  15.723  24.808  14.281
41221W        W 9615  43.678  42.064  14.870
41222W        W 9616  31.671   5.359  12.324
41223W        W 9617  38.769  19.732   2.451
41224W        W 9618  44.884  41.241   3.100
41225W        W 9619  28.461  44.211   1.428
41226W        W 9620  17.043  28.694   1.475
41227W        W 9621   5.251  39.437  12.393
41228W        W 9622  15.517  23.419  13.207
41229W        W 9623  23.802  12.571   1.876
41230W        W 9624  30.747  21.038  12.068
41231W        W 9625   7.713   2.791   2.211
41232W        W 9626   9.066  28.501  10.350
41233W        W 9627  26.006  39.347   3.848
41234W        W 9628  30.047  24.223   0.204
41235W        W 9629  22.622  40.768  13.494
41236W        W 9630  33.077  30.244   4.604
41237W        W 9631  17.746  17.817  14.448
41238W        W 9632  16.856  22.915   2.269
41239W        W 9633  44.461   7.485   1.780
41240W        W 9634   9.438  29.128   0.574
41241W        W 9635   0.284  21.948  14.126
41242W        W 9636  37.033   1.519  12.473
41243W        W 9637   2.788  30.726   0.447
41244W        W 9638   9.659  29.694   2.178
41245W        W 9639  21.593  16.418  11.143
41246W        W 9640  31.796  30.455  13.781
41247W        W 9641  13.265  31.239   4.072
41248W        W 9642   8.288  30.065   3.158
41249W        W 9643  32.125   7.943   3.703
41250W        W 9644  15.796  28.069  12.918
41251W        W 9645  24.159   9.750   2.246
41252W        W 9646   0.478   1.275   1.219
41253W        W 9647  24.852   9.688  10.693
41254W        W 9648  16.132  29.748   1.250
41255W        W 9649  38.016   4.662   4.294
41256W        W 9650   9.803  34.457  11.044
41257W        W 9651  12.562  35.007   4.169
41258W        W 9652  28.395  23.703   1.908
41259W        W 9653   9.226   2.868  12.728
41260W        W 9654  27.676  27.147   3.136
41261W        W 9655  26.184   2.059  11.133
41262W        W 9656  36.142   0.035   4.093
41263W        W 9657   5.917  37.373  13.511
41264W        W 9658  36.126  19.484  13.464
41265W        W 9659  10.138  11.188   0.457
41266W        W 9660  29.433  14.557   4.910
41267W        W 9661  18.206   9.772  14.601
41268W        W 9662   3.916  12.291   5.457
41269W        W 9663  22.777  19.580   0.861
41270W        W 9664  37.561   4.512   4.070
41271W        W 9665  37.155  12.296   0.418
41272W        W 9666  31.475  25.045   4.102
41273W        W 9667   7.722  41.801   2.327
41274W        W 9668  31.287   7.495   1.888
41275W        W 9669  18.078  10.155   2.333
41276W        W 9670  10.326  17.062  14.973
41277W        W 9671   4.411  18.566  10.666
41278W        W 9672  44.006  33.073   0.696
41279W        W 9673  39.905  21.811  14.612
41280W        W 9674   0.218  14.837   3.703
41281W        W 9675  29.530   0.243   0.891
41282W        W 9676  37.542  27.361  14.423
41283W        W 9677  32.405  39.060   1.817
41284W        W 9678  26.673  26.000  10.477
41285W        W 9679  41.742  32.985  12.011
41286W        W 9680  44.836   3.292   0.713
41287W        W 9681  37.947  27.159  14.979
41288W        W 9682   9.907   9.606  12.027
41289W        W 9683   3.823   7.664  11.994
41290W        W 9684  31.571   3.033  11.588
41291W        W 9685   6.416  44.766  12.525
41292W        W 9686   7.499  34.576  11.218
41293W        W 9687  41.021   0.726  13.289
41294W        W 9688  18.167  21.500   3.149
41295W        W 9689  19.210   5.256  12.418
41296W        W 9690  17.931  13.225  11.467
41297W        W 9691  32.066  36.852   3.713
41298W        W 9692  24.174  18.744   1.389
41299W        W 9693   6.978  36.255   0.225
41300W        W 9694   8.082  19.998  12.719
41301W        W 9695  18.761  24.115  14.664
41302W        W 9696   7.361   5.493  11.161
41303W        W 9697  32.298  30.158   3.622
41304W        W 9698  29.231  21.857  11.499
41305W        W 9699  43.472  34.791   3.992
41306W        W 9700  25.473  15.060   0.311
41307W        W 9701  40.136  27.519  11.062
41308W        W 9702  40.373  29.111   3.274
41309W        W 9703  14.697  44.276  11.299
41310W        W 9704   7.818  13.172  12.401
41311W        W 9705   2.831  30.449   2.388
41312W        W 9706  26.915   5.677   2.483
41313W        W 9707  34.914  16.597   0.316
41314W        W 9708  32.065  43.076  10.963
41315W        W 9709  22.838  44.791  11.501
41316W        W 9710  23.908  15.077  10.847
41317W        W 9711   1.357  40.539  13.325
41318W        W 9712   5.230   5.412   2.158
41319W        W 9713  37.369   7.502  11.565
41320W        W 9714  27.604  22.185  12.041
41321W        W 9715  15.568  32.067  11.637
41322W        W 9716   3.347  13.508   1.040
41323W        W 9717  28.384  39.369   3.950
41324W        W 9718  14.800   5.246  14.815
41325W        W 9719  20.936  44.836   0.933
41326W        W 9720  29.185  11.147  12.953
41327W        W 9721  37.978  38.254   4.199
41328W        W 9722  16.809   3.835   3.643
41329W        W 9723  15.215  41.046  14.920
41330W        W 9724  13.873   5.947   2.567
41331W        W 9725  40.400  32.534  12.638
41332W        W 9726  38.096   5.678  12.852
41333W        W 9727  16.007  23.363  10.740
41334W        W 9728  39.224  36.316   1.802
41335W        W 9729  26.560   2.419  12.141
41336W        W 9730  23.547  41.338  13.356
41337W        W 9731  19.636  13.357   3.614
41338W        W 9732   0.446  23.270  11.584
41339W        W 9733  26.616  25.976  11.388
41340W        W 9734  10.666  42.034   3.691
41341W        W 9735   2.942  11.365  12.174
41342W        W 9736  15.248  35.585  14.852
41343W        W 9737  44.937   8.269   3.384
41344W        W 9738  25.979  21.604  13.633
41345W        W 9739   8.537  35.326   0.231
41346W        W 9740   4.872  33.382   1.904
41347W        W 9741  11.035   8.211   0.495
41348W        W 9742  13.085   6.508   2.255
41349W        W 9743  22.541  12.311   2.080
41350W        W 9744   2.956   8.231  11.094
41351W        W 9745  39.489  44.909   3.496
41352W        W 9746  29.457   7.338  14.503
41353W        W 9747  15.572   0.284   2.181
41354W        W 9748  42.779  41.531   3.303
41355W        W 9749  30.674  37.520   4.153
41356W        W 9750  20.471  43.391  11.214
41357W        W 9751  37.847  25.906  13.339
41358W        W 9752  33.519   8.256   3.128
41359W        W 9753  21.720   9.049   1.632
41360W        W 9754  34.958  29.592   2.592
41361W        W 9755  10.005   4.999   4.136
41362W        W 9756  17.672   3.324   4.159
41363W        W 9757   1.505  12.737  11.762
41364W        W 9758  16.885  27.440   0.915
41365W        W 9759  11.639   4.541   4.566
41366W        W 9760   1.530  42.902  12.588
41367W        W 9761  37.588  33.509  12.912
41368W        W 9762   9.355  16.003   0.407
41369W        W 9763  34.849   3.298   0.843
41370W        W 9764  23.557  43.082  10.748
41371W        W 9765  29.458  43.250   5.468
41372W        W 9766  43.559  28.127  10.265
41373W        W 9767  15.711  32.439   0.540
41374W        W 9768  37.759  21.080   2.868
41375W        W 9769  33.024   4.674   4.067
41376W        W 9770  39.877   7.258   1.803
41377W        W 9771   3.643  18.706   3.324
41378W        W 9772  38.942  21.467  14.507
41379W        W 9773  10.740  41.025   3.596
41380W        W 9774  32.792   2.742  11.928
41381W        W 9775  12.871   0.488  13.368
41382W        W 9776  40.545  41.027   1.978
41383W        W 9777  18.693  13.894  13.435
41384W        W 9778  11.891  39.168   2.869
41385W        W 9779   2.147  38.513   3.258
41386W        W 9780  31.458  35.705  12.182
41387W        W 9781  22.570  39.138   0.381
41388W        W 9782  10.335  31.620   2.386
41389W        W 9783  27.983  11.410  10.178
41390W        W 9784  34.302  12.094  12.190
41391W        W 9785  27.721  19.611  12.165
41392W        W 9786  29.285   6.875   3.628
41393W        W 9787  42.801  27.762   3.529
41394W        W 9788   8.012  22.232  12.906
41395W        W 9789  27.947  21.673  13.058
41396W        W 9790  14.599  43.304  12.046
41397W        W 9791  29.697  41.287   3.667
41398W        W 9792  20.529  42.538  10.808
41399W        W 9793  26.948  12.523  12.413
41400W        W 9794  17.728   1.788   1.896
41401W        W 9795   6.823  42.104  11.203
41402W        W 9796  38.235  17.888  10.905
41403W        W 9797  22.057   8.240  12.562
41404W        W 9798  39.025   7.807   0.963
41405W        W 9799  18.201   3.306   0.387
41406W        W 9800  14.890  17.171   3.090
41407W        W 9801  43.870   5.549   1.457
41408W        W 9802  34.032  13.123   2.139
41409W        W 9803  31.608  43.383  12.160
41410W        W 9804   0.402  30.380  11.927
41411W        W 9805  32.378  21.149   1.241
41412W        W 9806  23.128  43.090  13.863
41413W        W 9807  14.705  27.703  14.377
41414W        W 9808  19.583  19.525   3.938
41415W        W 9809  32.550   3.819  12.492
41416W        W 9810  40.835  14.295   1.210
41417W        W 9811  29.205  10.842  10.711
41418W        W 9812  41.835  36.407   1.746
41419W        W 9813   1.758  39.166  11.623
41420W        W 9814  30.581   1.180  13.616
41421W        W 9815  40.059   4.401   4.689
41422W        W 9816  20.997  12.064  13.381
41423W        W 9817  26.106   2.980   4.575
41424W        W 9818  36.981   8.276  14.975
41425W        W 9819   4.369  25.178   9.792
41426W        W 9820  34.398  36.644  14.838
41427W        W 9821  22.492  12.314  14.356
41428W        W 9822  33.119   4.841  12.488
41429W        W 9823  24.790  30.899   3.796
41430W        W 9824  29.641  31.096   2.568
41431W        W 9825  14.633   4.951  13.933
41432W        W 9826  33.869  33.321  13.487
41433W        W 9827   9.340   4.340   4.119
41434W        W 9828   6.939  16.406   1.866
41435W        W 9829  37.486   3.262   3.671
41436W        W 9830  31.452  21.648   1.254
41437W        W 9831  24.600  39.279   2.777
41438W        W 9832  24.502  22.689  11.081
41439W        W 9833   0.972  23.975   2.245
41440W        W 9834  44.357  35.488  13.881
41441W        W 9835  20.897   1.356   4.118
41442W        W 9836  43.316  44.733   1.761
41443W        W 9837  42.816  37.017   0.116
41444W        W 9838   6.708  11.432  11.993
41445W        W 9839   6.687  26.159   2.352
41446W        W 9840  14.324  24.475   0.889
41447W        W 9841  10.852  21.406   3.348
41448W        W 9842  24.324  15.631   4.442
41449W        W 9843  33.423  22.999   2.235
41450W        W 9844  31.527  37.367   1.032
41451W        W 9845  22.130  20.124  12.480
41452W        W 9846  43.869  17.557   3.917
41453W        W 9847  11.215   6.388   1.670
41454W        W 9848   3.128  28.014  13.461
41455W        W 9849  33.497   3.780  13.325
41456W        W 9850   7.787  12.243  14.215
41457W        W 9851  28.585  19.204   4.735
41458W        W 9852  40.888   5.125   1.344
41459W        W 9853   9.414  11.083  14.948
41460W        W 9854  30.113  42.751   2.275
41461W        W 9855  14.442  15.139  11.105
41462W        W 9856  23.775  10.062   3.624
41463W        W 9857  32.058  17.852   2.065
41464W        W 9858  33.395  22.557   0.900
41465W        W 9859  33.637  27.004   4.568
41466W        W 9860  11.986  15.809  10.197
41467W        W 9861  15.524  43.778  10.730
41468W        W 9862   6.987  11.327   1.766
41469W        W 9863  31.445  24.700  13.363
41470W        W 9864   3.485  15.565  11.545
41471W        W 9865  20.187  36.637   2.214
41472W        W 9866  42.970  18.043  14.780
41473W        W 9867  28.189  28.440  11.463
41474W        W 9868  21.587  35.284   0.955
41475W        W 9869  22.138   3.405  13.156
41476W        W 9870  26.373  35.892  10.350
41477W        W 9871  34.580  10.697  13.031
41478W        W 9872  32.718  26.253   2.219
41479W        W 9873  14.621   0.830  11.252
41480W        W 9874  26.415   2.104   1.637
41481W        W 9875  42.774  31.487   4.487
41482W        W 9876  23.418   9.305  13.102
41483W        W 9877  13.327  39.173   0.634
41484W        W 9878   5.008   0.298   1.995
41485W        W 9879  36.751  35.644   2.268
41486W        W 9880  16.313  11.458  13.844
41487W        W 9881  10.077  36.168   2.016
41488W        W 9882  41.052  13.174   2.727
41489W        W 9883  28.544   1.080  11.018
41490W        W 9884  10.648   4.929   1.127
41491W        W 9885  25.382  24.131  10.864
41492W        W 9886  23.981  32.762  12.577
41493W        W 9887  42.561  40.098  12.975
41494W        W 9888  30.228  18.823  11.997
41495W        W 9889  13.347  22.927   2.010
41496W        W 9890  14.583   9.669   3.370
41497W        W 9891  36.362  15.814  14.382
41498W        W 9892  11.183  37.078  14.999
41499W        W 9893   7.911  32.196  14.797
41500W        W 9894  42.802   4.331   1.843
41501W        W 9895  10.813  14.361  11.653
41502W        W 9896  35.946   6.869   0.528
41503W        W 9897  44.465   1.090  14.113
41504W        W 9898  26.334   1.650   1.378
41505W        W 9899  32.092   4.809  10.186
41506W        W 9900   4.938   6.902  12.099
41507W        W 9901  39.579  26.277   5.078
41508W        W 9902  43.838  39.983   1.416
41509W        W 9903  27.901  34.568   2.741
41510W        W 9904  22.559   8.321  12.372
41511W        W 9905  27.518   8.774   1.523
41512W        W 9906  27.180  29.628   1.913
41513W        W 9907  30.005   5.141  12.910
41514W        W 9908  13.937  43.901   1.188
41515W        W 9909  22.163  22.469  14.702
41516W        W 9910   0.142   3.204   4.119
41517W        W 9911  10.180  26.929  13.108
41518W        W 9912   2.711  39.036  10.226
41519W        W 9913  24.264  37.262   1.439
41520W        W 9914  41.412  15.809  11.897
41521W        W 9915  42.017  18.036  14.500
41522W        W 9916  13.927  40.470  13.935
41523W        W 9917  21.495  40.451   1.789
41524W        W 9918   1.221  29.136   4.843
41525W        W 9919  16.799  28.421  10.732
41526W        W 9920  33.102  15.149  14.332
41527W        W 9921  39.470  28.625   2.938
41528W        W 9922  11.118   4.380  13.864
41529W        W 9923  21.019   2.720   1.273
41530W        W 9924  20.614  28.131  11.571
41531W        W 9925   0.772  43.404   4.567
41532W        W 9926   1.594  38.111  14.253
41533W        W 9927   9.190   1.477  13.856
41534W        W 9928  23.100  18.569   2.948
41535W        W 9929  15.402  15.137  13.910
41536W        W 9930   0.370  29.641  13.424
41537W        W 9931  17.823  10.177  11.886
41538W        W 9932  41.405  20.208   2.798
41539W        W 9933  20.559  31.393  14.377
41540W        W 9934   5.991  20.699   1.916
41541W        W 9935  37.594  34.453  11.853
41542W        W 9936  36.447   2.928  14.908
41543W        W 9937  17.080  42.995  12.450
41544W        W 9938  27.235  26.877   4.097
41545W        W 9939  31.592   0.975   1.490
41546W        W 9940   6.809   1.046   0.750
41547W        W 9941  33.768   9.360   3.153
41548W        W 9942   0.500  14.887  11.071
41549W        W 9943   7.949  24.935  11.886
41550W        W 9944   8.661   2.895   4.565
41551W        W 9945  30.936   4.828  12.745
41552W        W 9946  41.600  27.979   3.752
41553W        W 9947   3.295  21.802  12.014
41554W        W 9948   6.646  44.284  11.594
41555W        W 9949  41.918  18.486  13.930
41556W        W 9950  17.679  14.821   2.629
41557W        W 9951  10.383  22.925   2.960
41558W        W 9952  44.174  23.073  14.370
41559W        W 9953  35.457  35.620   0.875
41560W        W 9954  15.079  37.603  12.788
41561W        W 9955  35.496   8.433   2.503
41562W        W 9956  39.822  14.244  14.482
41563W        W 9957  42.696  26.708   1.317
41564W        W 9958   9.282   2.220   2.662
41565W        W 9959  37.778  19.375  11.012
41566W        W 9960  37.271  30.195   0.177
41567W        W 9961  29.563  43.879  12.100
41568W        W 9962   3.797  43.225   0.843
41569W        W 9963  36.605  11.241  10.728
41570W        W 9964  19.662  40.444   4.735
41571W        W 9965  25.388   7.300   1.338
41572W        W 9966  37.920  18.272  13.358
41573W        W 9967  33.968  25.122   4.621
41574W        W 9968  24.865   9.382   0.183
41575W        W 9969  20.660  16.667   1.351
41576W        W 9970   3.730   8.617   2.891
41577W        W 9971  32.713   6.893   3.146
41578W        W 9972   4.314  42.799  10.471
41579W        W 9973  14.395  30.972   0.942
41580W        W 9974   7.934   5.828  10.600
41581W        W 9975  16.517   4.293  12.409
41582W        W 9976  10.111  38.886   3.065
41583W        W 9977  18.674   7.857   4.965
41584W        W 9978  25.779  17.754  11.157
41585W        W 9979  28.687  15.346  13.501
41586W        W 9980  39.160  19.693  11.173
41587W        W 9981   5.977   9.187   3.063
41588W        W 9982  22.761  20.379   2.310
41589W        W 9983  12.810  29.652   4.963
41590W        W 9984  30.876  22.432  12.065
41591W        W 9985  38.868   4.740   3.131
41592W        W 9986  29.995  11.423  12.460
41593W        W 9987  16.837  19.088  12.110
41594W        W 9988  35.560  21.898  10.748
41595W        W 9989  43.944  28.109  12.376
41596W        W 9990   6.661   4.867  12.081
41597W        W 9991  24.546  23.587  12.637
41598W        W 9992  15.217  18.587   5.003
41599W        W 9993  37.422  39.560  11.534
41600W        W 9994  16.765  34.053  12.317
41601W        W 9995  25.889  28.945  11.379
41602W        W 9996   5.831  40.775   4.215
41603W        W 9997  20.803  43.539   1.463
41604W        W 9998   5.004  31.338   9.901
41605W        W 9999  25.254  17.827   1.299
41606W        W10000  30.503  10.760  13.882
41607W        W10001  14.616  37.084   1.279
41608W        W10002  33.320   1.926  10.741
41609W        W10003  13.749  22.040   2.937
41610W        W10004  37.807  30.607  11.503
41611W        W10005  41.499  33.397  14.425
41612W        W10006  23.397  25.452   3.571
41613W        W10007  29.682  42.178  11.076
41614W        W10008  40.148  42.336   3.836
41615W        W10009  17.266  21.238   4.980
41616W        W10010  34.711  35.101  10.802
41617W        W10011  25.069   3.137  14.017
41618W        W10012  15.807   3.250  12.129
41619W        W10013  35.123  44.459   0.013
41620W        W10014  31.468  25.646   1.877
41621W        W10015  32.323  34.407   1.252
41622W        W10016  31.089   6.645  12.484
41623W        W10017  44.868  22.490  11.693
41624W        W10018  13.711  26.131  11.590
41625W        W10019  40.929  38.980  10.904
41626W        W10020  14.838  28.892  14.877
41627W        W10021  36.727  28.945   2.492
41628W        W10022  27.667   3.331  14.763
41629W        W10023  40.272  30.652  14.426
41630W        W10024   1.499  24.734  12.065
41631W        W10025  26.171  20.667  11.659
41632W        W10026  15.704   4.384  10.675
41633W        W10027  12.804  21.491   2.245
41634W        W10028  12.424  16.056  12.844
41635W        W10029  30.818   8.713  10.692
41636W        W10030  38.002   7.255  12.896
41637W        W10031  12.945   0.631   4.163
41638W        W10032  23.373  27.035   2.682
41639W        W10033  44.359  42.214  12.889
41640W        W10034   0.078  10.269   3.268
41641W        W10035  11.473  17.570   4.312
41642W        W10036  30.426  29.267   1.740
41643W        W10037  36.023  25.707   3.133
41644W        W10038  40.809  10.660   3.827
41645W        W10039  18.716  41.684  14.381
41646W        W10040  27.673  10.564  12.648
41647W        W10041  26.665  32.436   4.229
41648W        W10042  28.694  35.855  11.024
41649W        W10043  43.011   9.347  13.073
41650W        W10044  26.420  11.690   0.403
41651W        W10045   3.021  13.760   2.446
41652W        W10046   5.632  12.652   0.756
41653W        W10047  11.941  24.775  11.659
41654W        W10048  17.255  22.229  11.579
41655W        W10049  44.219  23.002   1.292
41656W        W10050   2.881  21.389  10.174
41657W        W10051   2.963  28.064   0.170
41658W        W10052  28.041   7.123   2.750
41659W        W10053  28.852  44.997   1.225
41660W        W10054  20.115  41.016  10.741
41661W        W10055   1.835  27.568   0.705
41662W        W10056   0.143  36.463   2.037
41663W        W10057  23.708  33.647  12.875
41664W        W10058  17.306   1.340   3.664
41665W        W10059  11.016  23.443   0.466
41666W        W10060   6.429   8.290  11.209
41667W        W10061   8.779  23.382   3.306
41668W        W10062  11.777  32.850   4.191
41669W        W10063  23.298   4.735   0.522
41670W        W10064  37.895  38.549  12.457
41671W        W10065   8.817  25.768  11.150
41672W        W10066  38.377  10.912  13.352
41673W        W10067  21.262  26.939  10.913
41674W        W10068  31.887  32.679   4.068
41675W        W10069  43.210  14.717  14.134
41676W        W10070  41.973   0.357   2.817
41677W        W10071  36.313  11.149  13.967
41678W        W10072   0.260  17.690   1.858
41679W        W10073   9.480   8.421  13.877
41680W        W10074  21.497  40.269   2.808
41681W        W10075  15.523   9.744  12.940
41682W        W10076  15.302  42.428   2.081
41683W        W10077  25.507  24.221  12.382
41684W        W10078  19.052  17.042   2.724
41685W        W10079   5.747   5.443  13.537
41686W        W10080  21.020   5.386   2.815
41687W        W10081   2.215  39.530  14.550
41688W        W10082  10.849  32.225   4.367
41689W        W10083  23.685  42.922   1.629
41690W        W10084  18.244  26.676   2.921
41691W        W10085  10.832  31.471  13.947
41692W        W10086   7.044  17.224   2.802
41693W        W10087   2.421  11.622  13.601
41694W        W10088  19.530  33.669  12.129
41695W        W10089  37.335  12.326   1.779
41696W        W10090  41.728  38.756   3.976
41697W        W10091  13.691   1.451  14.482
41698W        W10092  15.288  28.548   4.180
41699W        W10093   0.865  30.971  11.191
41700W        W10094  15.130  41.792  14.277
41701W        W10095  20.599   1.688  13.405
41702W        W10096  17.562  34.894   2.857
41703W        W10097  12.135   1.169  12.815
41704W        W10098  26.762   7.272  14.982
41705W        W10099   4.065   6.334   2.403
41706W        W10100  34.834  18.997   1.411
41707W        W10101  42.329  40.598  11.609
41708W        W10102  40.686   7.451   2.891
41709W        W10103  17.956  35.602  13.611
41710W        W10104  23.933  26.847  13.444
41711W        W10105  10.400  24.006  12.059
41712W        W10106  10.604  20.219   4.132
41713W        W10107   4.179   3.434   3.722
41714W        W10108  42.663   1.086   5.075
41715W        W10109  31.110   0.443   2.683
41716W        W10110  16.474  32.404   4.938
41717W        W10111   0.726   3.792  12.552
41718W        W10112  15.049  26.508  11.087
41719W        W10113  21.856   7.295  12.835
41720W        W10114   3.538  14.394  13.929
41721W        W10115  21.587  35.912  12.410
41722W        W10116  40.865  23.192   3.642
41723W        W10117  43.851  14.205  11.596
41724W        W10118  36.819   8.400  11.600
41725W        W10119   6.847   1.444  13.991
41726W        W10120   4.937  40.888  10.839
41727W        W10121  31.532  40.053  10.526
41728W        W10122  15.151  30.358   0.480
41729W        W10123  33.932   0.691  11.647
41730W        W10124  32.534   1.733   2.208
41731W        W10125  15.058  16.761   9.884
41732W        W10126   4.603  19.190  12.583
41733W        W10127  41.777   2.059   1.411
41734W        W10128  27.524  32.938   1.289
41735W        W10129  26.598  10.662  13.924
41736W        W10130  33.923  12.672   1.511
41737W        W10131  15.349   9.294   0.768
41738W        W10132  36.085  28.926   1.968
41739W        W10133  27.672   0.115  13.820
41740W        W10134  20.008   6.391  13.503
41741W        W10135  40.494  32.166  12.981
41742W        W10136  13.450  37.333  12.179
41743W        W10137   8.714  16.233  14.884
41744W        W10138   4.695  17.571   4.753
41745W        W10139   0.457  27.290  11.213
41746W        W10140  25.219  44.394   1.602
41747W        W10141  28.429  42.882  11.098
41748W        W10142   6.271  11.785  11.631
41749W        W10143   6.393  29.066   0.503
41750W        W10144  16.473   2.882   2.357
41751W        W10145   0.133   5.130   0.332
41752W        W10146  39.101  11.217  13.784
41753W        W10147  27.479  41.088   1.199
41754W        W10148   1.379  25.827  12.382
41755W        W10149  37.403  40.491   4.176
41756W        W10150  19.622  23.642   2.241
41757W        W10151  25.060   3.877  14.484
41758W        W10152   5.828  42.244   4.305
41759W        W10153  31.803  28.796   1.185
41760W        W10154  31.909  28.448  14.207
41761W        W10155   7.023  10.834  13.806
41762W        W10156  16.753   9.341  12.897
41763W        W10157   8.782  43.726  11.784
41764W        W10158   6.192  25.666   1.733
41765W        W10159  15.325  18.745   4.534
41766W        W10160  43.176   6.837   1.221
41767W        W10161   9.367  22.462   3.982
41768W        W10162  27.380  40.017  11.867
41769W        W10163  24.928   7.336  10.926
41770W        W10164  36.081  36.226   0.266
41771W        W10165   7.424   3.731   2.139
41772W        W10166  13.117  19.988  14.555
41773W        W10167  33.958  34.213   2.905
41774W        W10168  34.629  30.616  10.500
41775W        W10169  35.080  21.863  11.288
41776W        W10170  13.564   9.710   2.279
41777W        W10171  28.848   9.059   3.268
41778W        W10172  26.134  40.805  13.343
41779W        W10173  23.273  42.460   3.746
41780W        W10174  12.384  38.526   2.377
41781W        W10175  13.099  17.922  14.900
41782W        W10176   1.725  43.911   4.418
41783W        W10177  30.476  44.125   3.353
41784W        W10178   3.751  13.887  13.411
41785W        W10179  27.399  12.665   3.738
41786W        W10180  16.536  20.346   3.643
41787W        W10181  13.114  39.009   0.156
41788W        W10182   8.286  16.116   1.656
41789W        W10183  34.654  22.508   0.169
41790W        W10184  43.908   5.638   4.283
41791W        W10185  38.809  17.104   0.548
41792W        W10186  32.452  40.380  10.573
41793W        W10187  29.523  29.226  12.919
41794W        W10188  41.202  36.539   1.622
41795W        W10189  39.251  23.692  12.138
41796W        W10190  24.318  44.480   4.573
41797W        W10191   9.688  41.380   2.761
41798W        W10192   1.814  21.167  14.334
41799W        W10193   1.425  13.188  11.999
41800W        W10194  25.572  14.352  13.449
41801W        W10195  37.880  34.813   1.814
41802W        W10196  44.934  37.637  12.115
41803W        W10197  16.265   2.258  14.546
41804W        W10198  18.443  42.499   3.175
41805W        W10199  15.026   3.795   2.462
41806W        W10200  33.016  25.005   2.178
41807W        W10201  42.457  35.477   3.315
41808W        W10202  44.263  16.366   0.339
41809W        W10203  24.274  26.326   5.163
41810W        W10204  40.373  31.041  12.079
41811W        W10205  19.534  15.854   1.226
41812W        W10206  11.712  26.710   5.068
41813W        W10207  24.277  37.921  10.746
41814W        W10208  37.816  35.991   4.488
41815W        W10209  18.492  32.701   0.172
41816W        W10210  37.179  42.801  11.045
41817W        W10211  25.959  37.466  14.294
41818W        W10212  11.393  24.020   4.781
41819W        W10213  16.334  37.519   0.875
41820W        W10214   3.453  18.594  13.923
41821W        W10215  27.630   3.006  13.307
41822W        W10216   2.475   6.903  10.838
41823W        W10217  23.465  30.264  11.593
41824W        W10218  12.411  30.490   2.483
41825W        W10219   3.272  23.388   4.468
41826W        W10220  19.521  17.717  14.857
41827W        W10221  12.464  28.599  11.649
41828W        W10222   9.752  32.120   3.090
41829W        W10223  28.577  10.784   1.240
41830W        W10224  27.952   0.991   3.591
41831W        W10225   9.721  24.984  14.343
41832W        W10226  30.596  24.252  11.490
41833W        W10227  16.346  12.699  14.492
41834W        W10228   7.346  34.784   2.493
41835W        W10229  26.092  19.710   1.798
41836W        W10230  14.325  13.177  12.642
41837W        W10231   8.264  16.066   1.144
41838W        W10232  23.517  40.269   3.309
41839W        W10233  15.327  36.096   4.614
41840W        W10234  20.577  24.256   3.137
41841W        W10235  16.676  37.523  13.337
41842W        W10236   4.607   4.362   1.805
41843W        W10237   0.923  16.485   0.323
41844W        W10238  42.357  29.486  11.400
41845W        W10239  16.114  22.032   3.468
41846W        W10240  29.506  41.385  10.603
41847W        W10241  15.243  39.636   0.158
41848W        W10242  11.259  44.910   4.894
41849W        W10243  41.790  43.055   2.728
41850W        W10244   1.405  38.848  12.838
41851W        W10245  17.199  34.634   4.516
41852W        W10246  40.282  21.384   4.793
41853W        W10247  17.265  24.564   0.668
41854W        W10248  11.937  31.241   1.460
41855W        W10249  39.327  34.880   1.759
41856W        W10250  24.216   4.355  12.991
41857W        W10251  16.959  20.190  12.905
41858W        W10252  21.139  14.881   4.210
41859W        W10253  25.565  12.688   0.981
41860W        W10254  27.290  44.907   2.672
41861W        W10255   6.368  17.436  13.402
41862W        W10256  31.665   7.213   2.284
41863W        W10257  12.297  12.814   3.764
41864W        W10258   0.013  23.630  12.138
41865W        W10259  31.445  22.659   0.073
41866W        W10260   2.435  37.340   1.461
41867W        W10261   3.319  14.477   3.606
41868W        W10262  24.203  21.342  11.218
41869W        W10263   3.738  13.270   1.342
41870W        W10264  43.847   0.796   2.718
41871W        W10265  36.030  39.482  13.042
41872W        W10266  44.305  44.483   0.702
41873W        W10267  36.173  18.169  10.451
41874W        W10268  32.456  16.668   2.886
41875W        W10269   3.421  28.012   2.723
41876W        W10270  20.268   3.265   0.282
41877W        W10271  43.864  12.587   3.978
41878W        W10272   8.409  35.454   4.494
41879W        W10273  30.673  16.045  14.354
41880W        W10274  38.492  21.478  12.439
41881W        W10275  21.141  39.915  12.257
41882W        W10276  17.356  43.114  10.025
41883W        W10277  27.492  34.317  13.736
41884W        W10278   5.757  34.058  12.539
41885W        W10279  30.127   2.867   3.747
41886W        W10280  27.221  17.765   1.627
41887W        W10281  31.906  13.510   3.134
41888W        W10282  27.189  41.861  10.708
41889W        W10283   1.224  40.769   2.562
41890W        W10284  18.250  26.245  14.920
41891W        W10285  22.662   9.916  13.554
41892W        W10286  44.308  37.045  11.434
41893W        W10287  29.247   1.699   4.879
41894W        W10288  13.223   3.501  10.584
41895W        W10289  33.478  32.036  13.389
41896W        W10290  33.396   0.820  11.580
41897W        W10291   0.537  42.533   3.835
41898W        W10292   1.888  13.615   9.903
41899W        W10293   6.326  40.384   2.190
41900W        W10294  41.759   7.905   0.470
41901W        W10295  25.732   7.159   3.184
41902W        W10296  27.198  10.981   1.406
41903W        W10297   7.384  39.397   0.828
41904W        W10298   4.436  11.326  10.404
41905W        W10299  42.835   6.983  14.793
41906W        W10300  17.020  26.524   3.561
41907W        W10301  42.996   9.238  14.045
41908W        W10302  17.074  25.664   3.700
41909W        W10303   4.712   5.834  10.956
41910W        W10304  42.797  42.361   2.828
41911W        W10305  29.566  33.025   4.404
41912W        W10306  22.682   8.161  14.438
41913W        W10307  27.239  22.759   3.541
41914W        W10308  32.252   4.761  10.697
41915W        W10309  26.477  15.493  14.945
41916W        W10310  27.106  40.912  13.632
41917W        W10311  40.280  40.456   1.321
41918W        W10312  44.522   4.645   2.642
41919W        W10313  22.125  29.759  13.558
41920W        W10314  26.937  18.714   3.152
41921W        W10315   8.569  17.128  11.937
41922W        W10316  18.531   5.019   4.914
41923W        W10317  25.565   4.379  11.024
41924W        W10318  20.134  12.743  12.123
41925W        W10319  11.669  41.001  10.733
41926W        W10320  43.047  20.765  12.368
41927W        W10321  33.033  22.412   1.252
41928W        W10322   1.967   3.364  11.217
41929W        W10323  25.819  34.604   0.385
41930W        W10324   9.886  38.945   0.742
41931W        W10325  29.260  21.945  13.858
41932W        W10326  36.554  24.952   0.295
41933W        W10327  15.651  12.911  12.093
41934W        W10328  23.100   8.744   0.552
41935W        W10329  31.006   5.006   1.290
41936W        W10330  25.439  18.500   2.408
41937W        W10331  10.598  30.420   3.205
41938W        W10332  44.633  17.271   0.072
41939W        W10333  27.536  40.962  11.064
41940W        W10334   3.286  34.652  12.537
41941W        W10335  43.812   5.176   0.490
41942W        W10336   9.963  31.602   9.846
41943W        W10337  13.316  19.287   4.635
41944W        W10338  22.081  23.193  13.535
41945W        W10339   7.138  22.295  10.244
41946W        W10340  39.836  20.274   0.721
41947W        W10341   1.392  15.181   5.033
41948W        W10342  12.912  34.170  11.219
41949W        W10343  39.507  20.266  12.305
41950W        W10344   5.857  35.621   0.240
41951W        W10345  11.146  16.339  12.823
41952W        W10346  14.037  40.767  14.375
41953W        W10347  34.912  21.122   2.045
41954W        W10348  13.521   7.504   1.647
41955W        W10349   1.972  43.195  11.164
41956W        W10350  37.518   0.429  14.375
41957W        W10351  38.129   9.650  11.193
41958W        W10352  12.693  40.555  10.422
41959W        W10353  44.282  12.589   3.355
41960W        W10354  24.061  33.927  14.601
41961W        W10355  33.860  44.838  14.066
41962W        W10356  26.169  32.623  13.111
41963W        W10357  20.552  27.932   0.462
41964W        W10358  26.210   8.283  11.933
41965W        W10359  34.664  20.882  13.867
41966W        W10360  23.694   1.794   1.467
41967W        W10361   4.856  22.762  12.860
41968W        W10362  42.716  23.727   1.948
41969W        W10363   5.445  29.600  10.557
41970W        W10364  43.649  27.391   2.755
41971W        W10365  25.574  33.756   4.731
41972W        W10366  26.123  12.186  13.857
41973W        W10367  26.688  25.625   4.691
41974W        W10368  24.699  36.504  13.022
41975W        W10369  18.587  40.368  13.922
41976W        W10370   2.073  22.470  11.931
41977W        W10371   1.649  19.863   4.585
41978W        W10372  12.526   6.015  13.580
41979W        W10373  11.131  21.223  11.128
41980W        W10374  16.754  12.656   4.863
41981W        W10375  13.823  29.229  11.023
41982W        W10376   5.420  31.111   0.716
41983W        W10377  30.664  12.806  11.065
41984W        W10378  30.785   9.453   3.633
41985W        W10379  41.843  29.650  13.616
41986W        W10380  39.471  37.501   3.675
41987W        W10381  44.519   1.388  10.776
41988W        W10382  42.255  26.803   2.894
41989W        W10383   7.137  41.485   4.097
41990W        W10384  31.147  42.450  10.963
41991W        W10385   5.524  26.608  13.840
41992W        W10386   1.587  32.770   0.808
41993W        W10387  19.272  15.013  14.513
41994W        W10388   6.612  43.899   0.675
41995W        W10389  21.775  26.486   1.569
41996W        W10390  27.179   2.263   0.396
41997W        W10391  30.792  34.871  12.056
41998W        W10392  39.798  20.761  14.460
41999W        W10393  30.727  34.514  13.422
42000W        W10394  36.473   7.803   4.607
42001W        W10395   2.561  28.163   2.912
42002W        W10396  32.373   3.832  12.981
42003W        W10397   0.221   6.310   0.369
42004W        W10398  14.838  17.965  13.865
42005W        W10399  27.151   4.962  11.601
42006W        W10400  21.506   7.816   1.743
42007W        W10401  31.306  28.439   0.398
42008W        W10402  25.076  32.917   0.470
42009W        W10403  12.458  35.809   2.246
42010W        W10404   9.290  35.372   2.351
42011W        W10405  23.242  27.148  12.488
42012W        W10406  36.944  10.795  13.554
42013W        W10407  13.866  16.893  13.500
42014W        W10408  20.078  13.100   0.926
42015W        W10409  44.057  22.047  11.946
42016W        W10410  15.134   8.436   4.486
42017W        W10411   3.829  28.353   2.785
42018W        W10412   5.585   1.190   2.397
42019W        W10413  23.199  26.480   5.051
42020W        W10414  13.434  34.410   0.855
42021W        W10415   2.278   0.791   1.320
42022W        W10416  32.482  24.649  13.550
42023W        W10417  28.637  12.870  12.162
42024W        W10418   1.921  21.429  13.892
42025W        W10419  23.125  32.224  13.491
42026W        W10420   9.277  32.668   3.540
42027W        W10421  12.826  27.745  14.444
42028W        W10422   7.817   5.730   4.137
42029W        W10423  24.235  39.044  14.015
42030W        W10424  19.942  18.821  10.320
42031W        W10425  40.889  17.490   0.774
42032W        W10426  11.847  15.994   1.719
42033W        W10427  24.147  28.512   3.269
42034W        W10428  38.862  43.729   4.424
42035W        W10429  37.736  14.052   3.681
42036W        W10430  19.104  41.446   1.252
42037W        W10431   8.383  34.733  12.298
42038W        W10432   2.297  25.138  12.104
42039W        W10433   2.315  39.249  14.117
42040W        W10434  35.490  22.222   1.047
42041W        W10435  27.156  25.049  14.104
42042W        W10436  44.286  35.338   3.676
42043W        W10437  24.118  10.788  11.255
42044W        W10438  10.795  26.648   3.821
42045W        W10439   0.278   4.520  12.969
42046W        W10440  39.118  16.830  14.812
42047W        W10441  13.092  12.267   1.135
42048W        W10442  34.919  28.833  13.792
42049W        W10443  24.918  18.789  12.957
42050W        W10444   3.264   1.897  12.969
42051W        W10445  40.906  16.944  10.745
42052W        W10446  12.744  14.875  12.038
42053W        W10447  33.709  15.708   1.182
42054W        W10448  24.644  33.210  11.961
42055W        W10449   0.612  10.235   3.201
42056W        W10450  32.028   4.755  13.315
42057W        W10451  33.653  21.163   1.238
42058W        W10452  38.958  35.584  13.551
42059W        W10453  42.233  28.327  13.587
42060W        W10454  24.973   1.200   3.595
42061W        W10455   4.342  43.501  11.588
42062W        W10456   7.708   6.438   3.259
42063W        W10457  13.098  15.982   0.403
42064W        W10458  29.901  11.700   3.218
42065W        W10459   2.403  41.336   2.352
42066W        W10460  43.011  23.210  13.401
42067W        W10461  33.947   5.408   0.043
42068W        W10462  35.809  11.420  12.358
42069W        W10463   0.790  16.694   3.447
42070W        W10464  42.824   7.380  13.541
42071W        W10465  30.961  43.932   2.626
42072W        W10466  19.478  10.725  13.942
42073W        W10467  32.442  41.461  10.850
42074W        W10468  32.637  44.864   2.795
42075W        W10469  28.906  19.128   2.991
42076W        W10470   7.708   8.106  12.079
42077W        W10471   2.399  16.741   1.424
42078W        W10472  35.332   5.497  12.990
42079W        W10473  24.021  32.422   2.270
42080W        W10474  40.398   1.255   2.498
42081W        W10475  23.898  19.829  13.110
42082W        W10476   4.623   0.409  13.173
42083W        W10477  26.381  37.492   4.662
42084W        W10478  10.100   9.910  12.434
42085W        W10479   0.352  29.022   1.107
42086W        W10480  39.397  38.431   2.340
42087W        W10481   3.897  32.956   4.614
42088W        W10482  20.592  38.835   4.859
42089W        W10483  33.403  17.006  12.046
42090W        W10484  26.954  26.503   1.885
42091W        W10485  28.090   7.858   2.796
42092W        W10486   3.471  41.766  11.198
42093W        W10487  33.358  42.422  12.444
42094W        W10488  12.883   6.922  13.411
42095W        W10489   7.537  14.815   0.229
42096W        W10490  14.888  10.206  10.418
42097W        W10491   3.894  33.073   1.912
42098W        W10492  35.897  11.294  14.903
42099W        W10493  11.625  29.193  14.208
42100W        W10494  15.594  10.259  11.180
42101W        W10495  10.193  42.605   4.434
42102W        W10496  13.848   3.621   4.166
42103W        W10497   6.794  28.023  14.316
42104W        W10498  32.991   1.240   3.195
42105W        W10499   1.053   3.268  14.357
42106W        W10500   7.103  25.944  14.704
42107W        W10501  18.007  38.493   3.221
42108W        W10502  41.854  40.279  10.992
42109W        W10503  34.389  18.854   1.659
42110W        W10504   3.653  21.652  13.440
42111W        W10505  11.346  33.941  14.433
42112W        W10506  27.736   4.983   1.683
42113W        W10507  12.155  39.857  11.317
42114W        W10508  18.519  14.204   4.269
42115W        W10509  18.511  10.192   3.157
42116W        W10510  17.285   0.321   4.476
42117W        W10511  18.727  42.815  12.792
42118W        W10512   1.991  24.562   2.699
42119W        W10513  32.475  15.276  13.006
42120W        W10514  11.369  13.883  12.960
42121W        W10515  17.276   1.977  11.102
42122W        W10516  13.413  42.069   3.244
42123W        W10517  22.267  43.218   0.336
42124W        W10518   7.685  18.606   1.398
42125W        W10519  18.153  27.455   2.406
42126W        W10520  13.176  34.047  14.945
42127W        W10521  23.672  39.756  14.930
42128W        W10522  17.371  25.150   3.777
42129W        W10523  25.636  22.976   0.917
42130W        W10524  38.823  29.459   3.843
42131W        W10525  18.585   2.241   1.826
42132W        W10526   7.141  31.949  13.388
42133W        W10527  12.482  20.902  13.298
42134W        W10528  24.724  42.950   0.374
42135W        W10529   4.486  26.799  14.929
42136W        W10530  31.879  33.585  11.907
42137W        W10531  30.017  19.975  11.516
42138W        W10532  40.682  31.289   2.507
42139W        W10533  12.206  33.659  13.528
42140W        W10534  32.469  44.594  11.670
42141W        W10535  29.202  13.666   1.334
42142W        W10536  24.663  33.086   0.921
42143W        W10537  22.294  15.098   0.408
42144W        W10538  15.205   6.795   2.836
42145W        W10539   5.191  16.993   2.395
42146W        W10540  42.722  35.312   1.390
42147W        W10541  41.063  19.302   3.160
42148W        W10542  41.652   9.340  12.172
42149W        W10543   0.933  19.153   0.989
42150W        W10544  36.068  38.881   0.876
42151W        W10545  27.494  29.684  12.952
42152W        W10546   3.249  19.075  13.909
42153W        W10547  14.082  33.415  13.780
42154W        W10548   2.145  18.164  13.627
42155W        W10549  26.680  26.574   2.745
42156W        W10550  43.816  17.127   3.600
42157W        W10551   7.760  21.018  10.131
42158W        W10552  24.154  25.211   1.471
42159W        W10553   1.973  40.009  11.120
42160W        W10554   3.188  26.719   2.336
42161W        W10555  26.455  20.017   3.395
42162W        W10556  12.785   6.587  12.589
42163W        W10557  25.354   1.897  12.814
42164W        W10558  35.930  22.411  11.963
42165W        W10559  17.103   3.437   3.297
42166W        W10560  42.505  23.103   2.247
42167W        W10561  24.906  36.519   1.893
42168W        W10562   4.990  26.727   0.555
42169W        W10563  30.781  16.448  13.381
42170W        W10564  20.037  16.124  11.943
42171W        W10565  14.140  33.575  14.999
42172W        W10566   0.949  26.626  14.594
42173W        W10567  25.590   2.456   4.281
42174W        W10568  17.998  15.982   3.289
42175W        W10569   9.460   8.241   1.944
42176W        W10570  43.210  20.802  11.671
42177W        W10571  14.358  37.597   4.548
42178W        W10572   2.952  21.143   0.234
42179W        W10573   3.463   8.063   5.010
42180W        W10574  23.035   2.308  14.395
42181W        W10575   9.142  34.656   0.432
42182W        W10576   0.674  24.997   0.928
42183W        W10577  32.439   0.478  13.316
42184W        W10578  40.106  39.338  13.297
42185W        W10579  24.419   9.404  12.092
42186W        W10580  17.082  36.505  11.884
42187W        W10581  13.688  37.771  11.979
42188W        W10582  33.849  37.897  12.170
42189W        W10583  11.355  31.657   3.730
42190W        W10584  23.918  11.304  11.249
42191W        W10585  43.201   2.328  13.163
42192W        W10586  10.646  16.568  10.698
42193W        W10587  30.107  28.134  11.760
42194W        W10588  32.536   8.781  13.994
42195W        W10589   3.717  10.914  14.996
42196W        W10590  44.279  30.057   0.012
42197W        W10591  23.177  27.601   2.789
42198W        W10592  33.518  28.324  14.949
42199W        W10593  29.695  20.577  10.782
42200W        W10594   0.524   6.192  11.511
42201W        W10595  44.212  13.777   2.846
42202W        W10596   2.602  29.753   1.322
42203W        W10597  42.615   3.798   3.611
42204W        W10598   3.969  18.636   4.276
42205W        W10599  23.033  12.731   3.731
42206W        W10600  10.575  16.984   4.145
42207W        W10601   6.576  30.057   0.198
42208W        W10602  15.189   3.770  14.960
42209W        W10603  35.525   0.720   4.084
42210W        W10604  18.786  16.603   2.855
42211W        W10605  25.957  43.197   1.731
42212W        W10606  42.483   5.244  13.471
42213W        W10607   2.704  12.995   5.105
42214W        W10608  10.089  23.599  12.013
42215W        W10609  30.407  12.547  12.481
42216W        W10610  41.077  39.491   1.329
42217W        W10611  30.868  37.291   9.881
42218W        W10612   9.619   7.284  10.835
42219W        W10613  24.533  35.541   0.800
42220W        W10614  13.599  43.591  12.787
42221W        W10615  21.554  42.802   0.398
42222W        W10616  12.684   9.999   3.080
42223W        W10617   5.702  22.926   1.156
42224W        W10618  10.872  25.133   3.223
42225W        W10619  17.496   9.061  10.890
42226W        W10620  14.214   7.493   4.669
42227W        W10621  35.976   1.683   2.160
42228W        W10622  12.262  10.035  13.557
42229W        W10623   7.210  15.503   1.862
42230W        W10624   9.845  43.373   2.469
42231W        W10625   5.839   7.201   2.413
42232W        W10626   9.711  41.877   4.676
42233W        W10627   0.250   4.847  14.612
42234W        W10628  23.949   4.005  14.805
42235W        W10629  17.303  41.076   1.418
42236W        W10630  24.943  18.253   2.106
42237W        W10631   3.437  36.108   0.778
42238W        W10632  25.252  27.403  14.524
42239W        W10633  23.694  23.559  14.119
42240W        W10634  43.474   8.664  11.485
42241W        W10635  37.119  24.135   0.485
42242W        W10636  24.510  11.699  12.379
42243W        W10637  21.730   4.820  10.651
42244W        W10638  10.184   9.387   4.645
42245W        W10639  42.035  40.478   4.593
42246W        W10640  24.680  14.402   1.211
42247W        W10641  31.879  25.507  12.856
42248W        W10642  35.152  20.804  12.142
42249W        W10643  10.221  37.333   3.626
42250W        W10644  31.349  38.467   2.385
42251W        W10645   8.600  23.539  13.614
42252W        W10646  16.813  14.788   2.489
42253W        W10647  26.739  43.874  10.600
42254W        W10648   7.081  24.982   3.880
42255W        W10649   8.793  39.762   1.304
42256W        W10650  28.145  29.005   1.987
42257W        W10651  17.833  42.899  10.462
42258W        W10652  37.887  35.330   1.697
42259W        W10653   6.618  28.494  11.479
42260W        W10654  11.204   8.517   2.364
42261W        W10655   0.457  40.346  10.679
42262W        W10656  13.545  44.024  13.672
42263W        W10657  23.245  35.345   2.898
42264W        W10658  14.300  35.633   0.021
42265W        W10659   9.901  15.672   2.957
42266W        W10660  21.563  16.665   3.819
42267W        W10661   9.630  23.033  10.670
42268W        W10662  30.915  10.975   0.958
42269W        W10663  12.380  13.792  13.032
42270W        W10664  35.145  28.022   4.950
42271W        W10665  33.087   1.751  11.649
42272W        W10666  17.704  43.947  14.925
42273W        W10667  12.273  22.796  14.442
42274W        W10668  43.440  36.154   4.437
42275W        W10669  24.984   1.160   2.715
42276W        W10670  33.513   7.387  14.548
42277W        W10671  39.942  21.928  12.092
42278W        W10672   3.858  18.081  12.669
42279W        W10673   7.180  12.362   4.571
42280W        W10674  29.430  16.594  13.399
42281W        W10675  12.194  40.509   4.840
42282W        W10676   6.211  23.533  10.534
42283W        W10677  16.721   2.772   1.851
42284W        W10678  40.642  36.152   4.008
42285W        W10679  38.283   2.505  10.720
42286W        W10680  18.790  39.355   2.649
42287W        W10681  30.614  30.071  14.917
42288W        W10682  43.934  10.797   2.636
42289W        W10683  36.407  43.495  10.412
42290W        W10684  39.043  26.929   0.483
42291W        W10685  14.839  33.422  14.253
42292W        W10686   6.816  12.416   0.521
42293W        W10687   1.488   2.193   4.138
42294W        W10688   3.450  41.942   0.232
42295W        W10689   5.213  42.761  11.562
42296W        W10690  34.472   5.649  11.591
42297W        W10691  36.946   4.190  13.146
42298W        W10692   2.044  14.009   2.767
42299W        W10693  34.076   3.747  11.494
42300W        W10694  15.848   8.734  13.599
42301W        W10695  19.670  25.605  14.533
42302W        W10696  40.166  21.885   3.650
42303W        W10697  10.903  10.822   1.891
42304W        W10698  22.193  28.865   2.199
42305W        W10699  27.471  31.982   4.112
42306W        W10700  39.782  35.165  13.806
42307W        W10701  11.757   3.794   0.965
42308W        W10702  22.512  36.618   3.181
42309W        W10703  18.595  32.327  11.169
42310W        W10704  44.618  36.984   1.661
42311W        W10705   9.595   9.808  11.594
42312W        W10706  27.558  35.117   1.285
42313W        W10707  20.182  14.695   3.838
42314W        W10708  43.718  35.496   3.675
42315W        W10709  18.603  26.970  12.988
42316W        W10710  32.489  37.156   3.682
42317W        W10711   9.360   9.251  14.085
42318W        W10712  36.438  35.959  10.353
42319W        W10713  26.500  31.718  12.064
42320W        W10714   1.268  39.912   3.490
42321W        W10715  42.978  22.593   4.419
42322W        W10716  42.799  28.736   3.229
42323W        W10717  36.578  21.438   1.711
42324W        W10718   3.198  39.167  13.445
42325W        W10719   2.813  35.596   3.726
42326W        W10720  27.697  21.227  14.993
42327W        W10721  11.151  11.550   4.460
42328W        W10722  44.825  35.479   5.063
42329W        W10723  17.251  32.361  14.322
42330W        W10724  44.006  38.287  13.844
42331W        W10725   2.260  24.212   4.954
42332W        W10726  23.237  37.464   2.263
42333W        W10727  34.581  36.396   0.277
42334W        W10728  40.973  15.562   4.398
42335W        W10729  21.307   3.755  14.233
42336W        W10730   8.893   1.910   0.874
42337W        W10731  33.668   7.478  12.836
42338W        W10732  10.930  20.290   0.519
42339W        W10733  44.405   1.738  14.811
42340W        W10734   8.546  14.350  10.756
42341W        W10735  35.929  42.006  12.017
42342W        W10736  27.043  39.761   1.954
42343W        W10737  41.346  20.478   1.194
42344W        W10738   1.880   3.232  12.600
42345W        W10739   7.831  38.619   3.341
42346W        W10740  16.656  18.798   2.215
42347W        W10741  31.657  31.922  12.085
42348W        W10742  33.431  41.926   4.065
42349W        W10743   8.185  29.275  13.062
42350W        W10744  24.770  15.416  12.493
42351W        W10745  10.157   9.627   3.127
42352W        W10746  36.900   3.706   1.543
42353W        W10747   9.381  12.926   3.724
42354W        W10748  28.166  17.428   0.351
42355W        W10749  24.535  32.936   4.588
42356W        W10750   4.341  36.292   0.916
42357W        W10751  32.202  20.073   0.415
42358W        W10752  38.421  31.336   4.114
42359W        W10753  42.998  15.682   1.658
42360W        W10754  39.458  16.761  13.130
42361W        W10755  19.756  18.489   3.807
42362W        W10756  11.097  12.782   0.157
42363W        W10757  13.263  14.394   0.020
42364W        W10758  10.106  29.127  12.089
42365W        W10759   5.518  17.406   3.244
42366W        W10760  27.073   6.426   1.312
42367W        W10761  20.072   3.687   3.776
42368W        W10762   4.965   1.813   4.519
42369W        W10763  33.623  40.997   1.771
42370W        W10764   0.802  37.383   3.606
42371W        W10765  35.048  28.123  11.228
42372W        W10766  24.048  41.828   1.995
42373W        W10767  19.269  42.128   0.961
42374W        W10768   7.189  16.527  10.928
42375W        W10769   4.251  15.343   3.654
42376W        W10770  42.096  33.111   1.208
42377W        W10771  28.129  19.033   4.188
42378W        W10772   8.934  34.976  13.496
42379W        W10773  34.219  18.619   2.869
42380W        W10774  38.304  29.456  13.016
42381W        W10775  24.569   0.900   2.225
42382W        W10776  14.611  33.805   0.076
42383W        W10777  29.577  39.807  12.429
42384W        W10778  33.137  33.294  12.587
42385W        W10779   5.977  18.329  13.991
42386W        W10780  15.336  26.718   0.713
42387W        W10781   0.498  21.513   3.767
42388W        W10782  16.229  25.428   2.868
42389W        W10783   3.438   0.997  11.800
42390W        W10784   2.414   6.861  13.905
42391W        W10785  44.284  24.762  11.919
42392W        W10786  38.211   8.398  14.964
42393W        W10787   2.986  31.047   3.108
42394W        W10788  33.800  23.081   2.949
42395W        W10789  35.766  32.796  12.469
42396W        W10790  14.524  20.279  12.540
42397W        W10791  17.079  19.620   4.391
42398W        W10792  32.182  13.023  14.474
42399W        W10793  19.214  29.435   3.656
42400W        W10794  43.343   8.911  11.918
42401W        W10795  22.466   4.978   1.446
42402W        W10796   0.184  31.485   0.820
42403W        W10797  35.754  14.724   0.929
42404W        W10798  43.224  42.284  14.737
42405W        W10799  19.972   1.513   3.092
42406W        W10800  25.971  12.546  13.450
42407W        W10801  20.985  25.760  11.746
42408W        W10802  11.618  32.973  11.141
42409W        W10803  15.378   0.857   1.145
42410W        W10804  12.991  16.291  11.001
42411W        W10805  17.660  26.562  13.024
42412W        W10806  24.746  30.800   4.800
42413W        W10807  31.124  44.574   0.655
42414W        W10808  22.170  31.106   2.696
42415W        W10809   1.316  28.921  14.099
42416W        W10810   0.010  21.983   4.407
42417W        W10811   8.342   4.306   3.701
42418W        W10812  33.120   1.007   1.385
42419W        W10813  31.549  19.078  14.839
42420W        W10814  32.505  18.868   3.628
42421W        W10815  28.937  27.490   4.230
42422W        W10816   8.378   1.940  11.292
42423W        W10817  25.622  12.036   0.751
42424W        W10818   1.866  26.642  11.983
42425W        W10819  44.705   4.407  10.315
42426W        W10820  12.162  32.155  10.872
42427W        W10821  32.601  41.454  13.108
42428W        W10822  15.841  24.601   5.024
42429W        W10823  27.014  44.203   2.651
42430W        W10824  35.414   5.756  14.941
42431W        W10825  42.566  23.160   0.345
42432W        W10826  13.401  27.761  11.959
42433W        W10827  26.806  38.081   0.227
42434W        W10828  39.441  15.086  10.696
42435W        W10829  26.446  22.563  12.589
42436W        W10830  14.856  23.054   4.641
42437W        W10831  33.204  43.698  13.023
42438W        W10832  25.762  29.433  13.004
42439W        W10833  34.044  17.210  10.361
42440W        W10834  37.559  11.640  13.424
42441W        W10835  31.180  30.502  13.075
42442W        W10836  19.013  25.753   4.502
42443W        W10837  31.198  27.638   3.744
42444W        W10838  23.966  40.483   3.128
42445W        W10839  30.198  44.547   2.137
42446W        W10840  38.572  20.743  14.012
42447W        W10841  14.535  40.916  12.980
42448W        W10842  13.744  27.474  12.837
42449W        W10843   8.777  28.107  11.221
42450W        W10844   7.125   2.274  12.055
42451W        W10845  44.533  12.630   1.507
42452W        W10846  16.026  16.078   3.663
42453W        W10847   4.785   3.395   0.748
42454W        W10848  25.083  32.033   1.225
42455W        W10849  37.545  16.685   3.238
42456W        W10850  44.941  41.590   3.473
42457W        W10851  23.002  10.834  14.235
42458W        W10852   7.504  16.182   4.233
42459W        W10853  37.526  18.736  14.331
42460W        W10854  14.014  32.654   0.576
42461W        W10855  13.619  43.416   4.115
42462W        W10856  30.085  27.698  13.908
42463W        W10857  31.740  14.548   2.649
42464W        W10858  32.982  40.834   2.259
42465W        W10859   1.350  27.974  13.024
42466W        W10860  15.837  44.664  12.022
42467W        W10861  39.335   3.656   3.748
42468W        W10862   4.042  35.702   4.307
42469W        W10863  15.078   8.327  13.243
42470W        W10864  42.883  39.477   3.432
42471W        W10865   9.214  34.852  12.079
42472W        W10866   3.128  19.701   1.334
42473W        W10867  41.860  44.401  12.200
42474W        W10868  12.409  12.999   1.069
42475W        W10869  11.394  27.123  12.511
42476W        W10870   3.300  13.871   1.418
42477W        W10871  14.332  22.566  12.037
42478W        W10872   0.720  32.934  14.849
42479W        W10873  16.542  26.227   1.734
42480W        W10874  30.142   1.948   1.281
42481W        W10875  38.381  43.319  13.370
42482W        W10876  38.319  32.887  12.746
42483W        W10877  13.316   0.253   4.152
42484W        W10878  19.652  31.133  14.742
42485W        W10879  36.139   8.878   2.395
42486W        W10880  44.766   5.260   4.366
42487W        W10881  13.307  32.607   3.959
42488W        W10882  10.204  44.401  14.071
42489W        W10883  13.935  19.281  11.829
42490W        W10884  11.401   6.156  14.474
42491W        W10885  16.171   0.289  11.611
42492W        W10886  26.604  28.667  13.899
42493W        W10887  28.173   4.287   1.278
42494W        W10888  16.300  32.114   1.299
42495W        W10889   1.690  24.067  14.867
42496W        W10890  44.502  13.093  14.856
42497W        W10891  25.895   7.782  14.399
42498W        W10892   8.258  10.383   3.645
42499W        W10893  14.602  27.011  12.948
42500W        W10894  39.013  19.797   4.622
42501W        W10895  39.030  26.080  10.645
42502W        W10896   7.900  13.676   4.677
42503W        W10897  12.665  38.873   3.148
42504W        W10898  40.382  23.045   4.399
42505W        W10899  33.053  20.129   2.350
42506W        W10900  21.263  32.166   3.633
42507W        W10901  38.468  34.343  12.355
42508W        W10902   6.976  31.565  14.018
42509W        W10903  13.615  19.618  10.993
42510W        W10904  31.862   0.904  10.411
42511W        W10905   0.966  10.064   0.940
42512W        W10906  34.017  18.460   1.382
42513W        W10907  16.888  17.607   0.455
42514W        W10908  24.190  39.297   3.315
42515W        W10909  19.136  13.081   1.845
42516W        W10910   0.536  32.990  10.575
42517W        W10911  43.307  43.161  10.612
42518W        W10912  28.117  30.417   0.464
42519W        W10913  13.168  25.926  14.400
42520W        W10914  14.180   3.394  12.183
42521W        W10915  42.806   8.861  13.770
42522W        W10916  17.051  37.461  12.124
42523W        W10917  12.023  16.261   1.308
42524W        W10918  10.370  25.532  12.393
42525W        W10919  17.734  10.598  13.608
42526W        W10920   1.804  22.591   1.896
42527W        W10921  23.535   3.004  12.302
42528W        W10922  27.145  30.110  14.609
42529W        W10923  36.884  38.012   2.696
42530W        W10924  33.292   1.313   3.612
42531W        W10925  42.092   8.459  13.505
42532W        W10926  30.304  36.633   0.183
42533W        W10927  22.850  14.300  12.131
42534W        W10928  39.393   1.747  13.100
42535W        W10929   8.112   3.464   0.467
42536W        W10930  14.193   7.456  13.839
42537W        W10931   7.195  34.863   0.315
42538W        W10932  22.717  42.853  10.350
42539W        W10933  23.117  23.927   4.546
42540W        W10934  40.857  11.503   1.870
42541W        W10935  38.886  29.959  12.968
42542W        W10936  10.740  35.197   0.907
42543W        W10937  26.334  34.775  12.552
42544W        W10938  36.511  22.811  13.510
42545W        W10939  18.852   8.316   4.848
42546W        W10940  28.537  42.864   2.634
42547W        W10941  10.336  27.188  12.637
42548W        W10942  21.604   9.749   4.885
42549W        W10943  44.339  24.637  14.912
42550W        W10944   2.909  34.051  14.358
42551W        W10945  27.432  10.809  11.672
42552W        W10946  33.937  33.343   3.289
42553W        W10947  14.166   1.404  14.190
42554W        W10948  16.175   4.755   1.266
42555W        W10949  31.591  18.069  11.165
42556W        W10950  13.353  32.614   3.445
42557W        W10951  42.403   9.928   1.956
42558W        W10952  28.658  19.561   3.816
42559W        W10953  29.122  19.226  13.294
42560W        W10954  35.856   4.892  14.984
42561W        W10955  40.451  29.937   3.177
42562W        W10956  32.147  22.906  13.543
42563W        W10957  21.547   8.798  13.249
42564W        W10958  18.071   0.967  10.622
42565W        W10959   0.515   7.088  12.879
42566W        W10960  41.431  19.077  13.482
42567W        W10961  40.211  20.497   1.241
42568W        W10962  29.202  42.032   1.399
42569W        W10963  17.817  20.840   4.373
42570W        W10964   7.741   7.595  11.918
42571W        W10965  39.531  37.558  13.246
42572W        W10966  34.604   0.365  13.892
42573W        W10967  41.549  32.656   4.103
42574W        W10968  27.530  33.888  14.033
42575W        W10969  13.732  32.318  13.306
42576W        W10970  26.976   8.413  10.693
42577W        W10971   6.173  28.631  13.380
42578W        W10972  19.770  29.918  13.071
42579W        W10973   4.245   5.156   4.507
42580W        W10974   7.230  25.680   4.466
42581W        W10975   5.562  28.459  11.470
42582W        W10976  27.159  42.583   4.524
42583W        W10977  10.130  27.634   4.599
42584W        W10978  30.037  29.605  12.394
42585W        W10979   9.709  21.646   3.683
42586W        W10980  31.403  21.884   1.707
42587W        W10981  37.991  41.943  13.453
42588W        W10982  37.441  25.440   3.247
42589W        W10983  38.647  44.773  13.407
42590W        W10984  37.661  39.873   3.598
42591W        W10985   5.757  36.950  14.905
42592W        W10986  35.341  20.934  10.574
42593W        W10987  35.654  10.292   1.914
42594W        W10988  29.722  11.696   5.056
42595W        W10989  37.674   3.299   4.600
42596W        W10990  19.092  11.895   3.607
42597W        W10991  12.415  43.850   2.134
42598W        W10992   7.471  16.765   1.299
42599W        W10993   5.120  12.927   5.519
42600W        W10994   8.798  24.360   4.505
42601W        W10995  40.777  31.869   3.762
42602W        W10996  10.601  42.870  13.042
42603W        W10997   0.081   2.830   2.003
42604W        W10998   3.924  36.202  12.213
42605W        W10999   6.217  24.860   1.568
42606W        W11000   2.867  22.153   4.090
42607W        W11001  18.555   8.582  14.861
42608W        W11002  15.626  25.444   0.268
42609W        W11003   0.900  33.898   1.877
42610W        W11004  44.012   3.907   3.507
42611W        W11005  15.547  30.105   0.704
42612W        W11006   2.755  20.980  13.910
42613W        W11007  35.666   6.420   0.838
42614W        W11008  14.138  37.319   4.194
42615W        W11009  40.994  14.508  11.019
42616W        W11010  41.828  23.695  14.298
42617W        W11011  39.611  30.046   4.187
42618W        W11012  44.755  11.420  12.457
42619W        W11013  14.706   7.376  13.941
42620W        W11014  27.704  10.176   4.579
42621W        W11015  31.617  26.649   0.491
42622W        W11016  11.870  29.022   2.272
42623W        W11017  24.636   8.686   3.307
42624W        W11018   6.748  39.563   0.344
42625W        W11019  43.747  11.721   4.267
42626W        W11020  14.446   0.666   5.041
42627W        W11021  26.506  17.609   2.667
42628W        W11022  39.005  20.012  14.309
42629W        W11023  16.363   5.220   1.854
42630W        W11024  23.066  30.762   1.306
42631W        W11025  24.166   9.320  12.543
42632W        W11026   8.774  44.196  14.020
42633W        W11027  44.491   6.679   2.192
42634W        W11028  43.413  38.748  12.018
42635W        W11029  29.250  11.508   0.657
42636W        W11030  43.433   0.385   0.491
42637W        W11031  17.697  37.900  11.171
42638W        W11032  20.212  41.440   2.415
42639W        W11033  18.247  38.967   1.805
42640W        W11034  31.912  15.536   3.674
42641W        W11035  37.783  43.340   3.710
42642W        W11036   5.763   1.704   9.812
42643W        W11037   8.108  35.934   5.096
42644W        W11038  23.032  35.496  10.543
42645W        W11039  31.620  19.047   0.867
42646W        W11040  21.150  38.007   4.694
42647W        W11041  13.724  39.396   3.212
42648W        W11042  21.295   3.890  12.848
42649W        W11043  27.386  16.096   1.594
42650W        W11044   1.719  41.865   1.292
42651W        W11045  34.699  43.477   1.939
42652W        W11046   2.407   6.837   1.772
42653W        W11047   4.716  18.779  12.857
42654W        W11048  20.536  36.652  11.578
42655W        W11049   3.299  10.591  12.558
42656W        W11050  17.275  31.315  14.935
42657W        W11051  32.056  36.472  12.210
42658W        W11052  25.490  24.130  11.872
42659W        W11053  44.282   8.150  14.276
42660W        W11054   0.323   8.742   3.864
42661W        W11055  34.457   3.524  14.464
42662W        W11056   3.683   5.014  12.333
42663W        W11057  14.067   1.096  13.776
42664W        W11058  38.861  33.448  14.813
42665W        W11059  37.911  41.196  13.927
42666W        W11060   4.905  34.198  13.886
42667W        W11061  13.714  19.594  10.471
42668W        W11062   4.346  31.224  14.814
42669W        W11063  30.941  19.178  14.477
42670W        W11064  40.563  18.065  11.951
42671W        W11065  27.230  17.734   3.183
42672W        W11066   6.871  12.680   4.865
42673W        W11067  41.885  42.090   1.703
42674W        W11068   1.244  32.104  11.360
42675W        W11069   1.424  43.405  11.092
42676W        W11070  34.209  43.732   0.822
42677W        W11071  27.027  31.920  11.805
42678W        W11072  41.041  33.616  14.342
42679W        W11073  23.014  34.507  10.501
42680W        W11074  10.931  13.276  13.523
42681W        W11075  34.623   3.535   0.371
42682W        W11076  26.070   5.493   4.638
42683W        W11077   6.775   9.349  13.126
42684W        W11078  39.893  44.310  11.108
42685W        W11079  40.105  15.597   3.673
42686W        W11080   5.704  30.225  11.060
42687W        W11081  22.284  18.081   5.094
42688W        W11082   9.295   5.304  14.235
42689W        W11083  19.597  19.378  10.782
42690W        W11084  35.628  20.319  14.833
42691W        W11085  36.880  44.901   2.738
42692W        W11086  44.780  10.749   1.632
42693W        W11087  18.787  15.769   1.908
42694W        W11088  19.445  37.430   5.014
42695W        W11089   8.143  27.598  13.100
42696W        W11090  11.637   1.739  11.686
42697W        W11091   0.575  31.434  13.776
42698W        W11092  24.715   6.200   2.810
42699W        W11093   7.140   0.277  12.633
42700W        W11094  12.733  35.181  12.333
42701W        W11095   0.397  29.251  11.196
42702W        W11096  26.475  29.215  11.236
42703W        W11097  44.339  16.431  11.150
42704W        W11098  16.259  25.373   1.270
42705W        W11099  15.429  20.716  12.023
42706W        W11100  27.208  30.073   0.131
42707W        W11101  30.293   4.537  11.159
42708W        W11102  21.491   1.775  11.893
42709W        W11103   0.427   0.925  12.133
42710W        W11104  42.241  22.152   3.256
42711W        W11105  34.623   5.971  14.204
42712W        W11106  20.266  24.914   3.625
42713W        W11107  13.911  30.556  10.722
42714W        W11108   0.934  39.103   1.404
42715W        W11109  25.429  16.031   3.536
42716W        W11110   6.328  25.796  13.288
42717W        W11111  26.605  27.845  11.407
42718W        W11112  36.020  43.844   1.484
42719W        W11113  17.697  39.848  12.915
42720W        W11114  29.667  34.486  12.645
42721W        W11115  10.776  23.392  13.759
42722W        W11116  13.887  19.529   3.777
42723W        W11117  10.791  23.268   4.653
42724W        W11118  29.086  30.051   0.773
42725W        W11119   8.259   0.938  10.963
42726W        W11120  14.639   7.717   2.333
42727W        W11121  41.329  20.028  12.652
42728W        W11122  38.062  36.535   2.318
42729W        W11123  22.768  38.777  13.504
42730W        W11124  15.200  16.521   4.709
42731W        W11125  25.759  40.393   1.207
42732W        W11126  16.506  30.568   0.516
42733W        W11127  18.605  36.144   3.257
42734W        W11128  13.534   8.471  13.334
42735W        W11129  39.026  19.424   4.286
42736W        W11130  17.108  28.439   5.060
42737W        W11131  39.636  19.543  11.033
42738W        W11132  36.069  10.894   0.943
42739W        W11133  34.180  21.334  13.051
42740W        W11134  25.646  16.363  13.511
42741W        W11135   2.008   9.460   4.067
42742W        W11136  21.754  28.200   1.390
42743W        W11137  12.373  34.452  13.846
42744W        W11138  17.771  44.454   4.601
42745W        W11139  13.846   0.528   2.604
42746W        W11140  11.909  40.010  13.656
42747W        W11141  27.454   2.160   4.419
42748W        W11142  33.065  38.332  12.546
42749W        W11143  23.113  20.367  14.404
42750W        W11144  28.681  35.320   1.812
42751W        W11145  41.977  32.453  12.093
42752W        W11146  16.599  32.050   3.563
42753W        W11147  41.579   6.311   2.203
42754W        W11148  39.006   9.902  14.979
42755W        W11149  23.819  30.517  13.324
42756W        W11150   1.262  35.707   3.158
42757W        W11151  29.139  11.718   4.113
42758W        W11152  22.222  37.848   3.853
42759W        W11153   2.160  20.541  14.649
42760W        W11154  23.724  17.590  13.416
42761W        W11155  35.806  28.573  14.948
42762W        W11156  19.224  38.789  12.932
42763W        W11157   8.770   1.023   2.157
42764W        W11158  15.843  15.875  13.825
42765W        W11159   5.417  12.122   3.312
42766W        W11160   0.378   3.931  12.117
42767W        W11161   6.290   7.770  14.860
42768W        W11162  36.663  31.692  14.836
42769W        W11163  43.300   6.156   2.758
42770W        W11164  39.143   3.524   1.370
42771W        W11165  18.587  44.366  11.402
42772W        W11166  31.218  20.762  12.416
42773W        W11167  42.915   9.105  12.105
42774W        W11168  20.871  13.257  13.395
42775W        W11169  40.523  14.274   4.515
42776W        W11170  15.455   3.353   0.918
42777W        W11171  39.031  23.797   2.270
42778W        W11172   7.162  13.756   3.108
42779W        W11173   9.895  39.538  12.021
42780W        W11174  44.471  22.492  12.366
42781W        W11175  33.443   9.295   4.740
42782W        W11176  32.145   3.753  13.981
42783W        W11177  29.782  17.606  12.799
42784W        W11178  39.499  44.292   0.499
42785W        W11179  38.153  25.067  13.039
42786W        W11180  40.325   3.519  11.258
42787W        W11181  29.364   8.337   5.059
42788W        W11182  31.426  39.519  14.835
42789W        W11183  35.140  28.548  10.959
42790W        W11184  17.189  22.812  13.774
42791W        W11185   1.241  30.807  12.900
42792W        W11186  42.518  19.308  10.965
42793W        W11187  22.570  20.896   2.193
42794W        W11188   8.179  41.792   0.317
42795W        W11189  28.967  43.884  11.447
42796W        W11190  17.701  10.469  12.855
42797W        W11191  16.664   6.437   1.578
42798W        W11192  36.492  26.655   1.908
42799W        W11193  18.555   5.748  13.063
42800W        W11194  44.759  18.591   4.109
42801W        W11195   0.976  34.069  14.498
42802W        W11196  31.117  29.046   0.938
42803W        W11197  43.533  29.514   3.116
42804W        W11198  30.697  28.664  12.949
42805W        W11199   1.325  44.080  10.939
42806W        W11200  21.136   9.636   4.671
42807W        W11201  16.816  38.458   4.233
42808W        W11202  22.640  38.344  12.057
42809W        W11203  14.281  29.904  13.890
42810W        W11204  21.579  24.911   3.719
42811W        W11205  19.023  16.155   0.946
42812W        W11206  33.562  27.779   3.086
42813W        W11207  37.080  30.955   0.848
42814W        W11208  25.283  26.244   2.609
42815W        W11209   3.302  41.128  14.919
42816W        W11210  13.125   3.954  13.483
42817W        W11211   1.391  23.582  11.521
42818W        W11212  30.124  28.211  13.840
42819W        W11213  20.677  30.067   1.021
42820W        W11214  19.323   8.831   2.639
42821W        W11215   6.270  34.135   4.664
42822W        W11216  34.895  13.199  12.683
42823W        W11217  40.012  26.522  11.436
42824W        W11218  26.549   3.956  11.216
42825W        W11219  25.757  19.818  13.016
42826W        W11220  44.865  42.009   0.888
42827W        W11221   3.669  25.803   0.893
42828W        W11222  41.951   3.046   1.306
42829W        W11223  37.923   0.753   1.726
42830W        W11224  29.968  12.061  14.897
42831W        W11225  15.316  29.428   0.739
42832W        W11226  17.680  42.926   1.891
42833W        W11227   1.963  30.986   3.218
42834W        W11228  37.845  29.008   0.364
42835W        W11229  34.196  10.183  11.469
42836W        W11230  20.703  30.362   0.449
42837W        W11231   5.611  24.623   4.217
42838W        W11232   5.247   2.552   1.196
42839W        W11233  38.487  33.340  14.459
42840W        W11234  21.628   5.293   0.972
42841W        W11235  41.874  19.548   5.159
42842W        W11236  42.225  13.469  12.055
42843W        W11237  32.895   6.651   4.585
42844W        W11238  31.559  41.813   3.603
42845W        W11239  14.519   2.234   3.862
42846W        W11240   6.447  39.092   4.636
42847W        W11241  12.378  43.374  12.014
42848W        W11242   0.793  15.289   2.937
42849W        W11243  32.043   6.330  11.190
42850W        W11244  17.620  28.840  14.381
42851W        W11245  40.812  32.527   0.450
42852W        W11246  15.048  24.923  13.438
42853W        W11247  35.405  16.410   0.284
42854W        W11248  32.973  19.473  12.987
42855W        W11249  22.221  35.187  13.925
42856W        W11250  25.651   6.197  11.597
42857W        W11251  13.915  41.506   2.345
42858W        W11252  35.814  18.449   0.050
42859W        W11253  36.107  44.385  10.167
42860W        W11254  23.236  19.206  14.501
42861W        W11255   9.435  42.361   2.526
42862W        W11256  36.520  42.705   0.438
42863W        W11257  35.984   3.026  13.120
42864W        W11258  26.363  25.449   3.259
42865W        W11259  11.680   9.299   1.585
42866W        W11260  25.271  40.839  11.926
42867W        W11261  22.773  22.700   3.396
42868W        W11262   8.158   4.425   1.898
42869W        W11263  28.892   9.396  10.694
42870W        W11264  26.014   0.015  12.638
42871W        W11265  33.588   3.105  11.923
42872W        W11266   0.417  26.646   0.457
42873W        W11267   9.771  43.821  10.959
42874W        W11268   5.749  21.213   3.336
42875W        W11269  41.644   5.836  13.497
42876W        W11270  13.252  26.425   2.839
42877W        W11271  10.267   3.823   4.159
42878W        W11272  40.472  16.137  12.630
42879W        W11273  13.355  14.671  13.733
42880W        W11274  32.425  10.229  11.088
42881W        W11275   7.174   4.197   2.085
42882W        W11276  12.622  38.345   0.811
42883W        W11277  35.654  35.079  12.141
42884W        W11278  11.625   0.431  12.739
42885W        W11279  15.976  18.598  11.144
42886W        W11280   6.246  15.977   3.140
42887W        W11281  10.371  15.849   4.212
42888W        W11282   0.241  10.903  13.921
42889W        W11283  33.615   2.006   2.256
42890W        W11284  32.008  40.049   2.819
42891W        W11285  11.665  23.518   2.787
42892W        W11286   4.925  22.268  12.115
42893W        W11287  38.011   0.408  14.548
42894W        W11288  22.485  19.635   0.405
42895W        W11289  44.500  42.801   1.814
42896W        W11290   3.711  15.747  13.541
42897W        W11291  19.711  37.293  12.376
42898W        W11292  12.749  30.356   0.317
42899W        W11293  12.652  31.137   1.701
42900W        W11294  21.245   4.853   0.405
42901W        W11295  17.155  19.317   0.334
42902W        W11296  15.231   3.847   0.869
42903W        W11297  33.655   1.376  12.030
42904W        W11298  44.367  13.294   0.695
42905W        W11299  23.119  36.350   1.432
42906W        W11300  10.666  23.130   1.208
42907W        W11301  40.975  25.529  13.614
42908W        W11302   9.857  29.423  13.396
42909W        W11303   6.671  36.511   1.972
42910W        W11304   9.817  40.889  12.503
42911W        W11305  30.640  18.817   2.196
42912W        W11306  18.131  24.017  12.382
42913W        W11307  15.480  23.966   4.581
42914W        W11308  33.494  28.073  12.949
42915W        W11309  16.422   1.382   1.969
42916W        W11310   1.470  11.384  14.380
42917W        W11311  35.078  41.243  14.303
42918W        W11312  14.275   4.464  13.082
42919W        W11313  28.906  43.392  12.371
42920W        W11314  26.144  38.223   4.151
42921W        W11315  30.466  26.682  12.161
42922W        W11316  11.628  40.022  14.100
42923W        W11317  40.427  16.581  14.743
42924W        W11318  33.388  25.686   3.160
42925W        W11319   0.859   1.779   2.802
42926W        W11320  39.915   6.087   1.202
42927W        W11321   2.696  31.505  12.455
42928W        W11322  16.309  24.589  11.999
42929W        W11323   9.136  39.039  11.539
42930W        W11324  42.275  35.856  13.498
42931W        W11325  37.477  17.985   1.296
42932W        W11326  31.974   6.881   1.366
42933W        W11327  33.862  22.224   3.004
42934W        W11328  31.512  37.280  12.399
42935W        W11329  28.899  15.224  14.967
42936W        W11330  41.837   3.907   0.074
42937W        W11331   9.644  28.733   4.182
42938W        W11332  32.409  39.314  13.765
42939W        W11333  29.578  43.955   3.097
42940W        W11334  28.937  26.584   1.005
42941W        W11335   6.291  14.884  13.019
42942W        W11336   1.440  29.053   3.431
42943W        W11337  12.302  43.834   3.693
42944W        W11338  22.969   8.846  11.509
42945W        W11339   9.766  43.752  12.429
42946W        W11340  11.371  18.191  11.269
42947W        W11341  18.543  33.902  12.127
42948W        W11342   4.219   6.645  11.901
42949W        W11343  22.387   3.455   3.183
42950W        W11344  13.774  27.542   3.919
42951W        W11345   7.295   2.376  11.554
42952W        W11346  37.343  41.425  12.450
42953W        W11347  29.278  43.452  13.720
42954W        W11348  36.432  26.473   4.756
42955W        W11349  29.180  38.431   3.699
42956W        W11350  27.708   1.828   0.011
42957W        W11351  27.179   0.954  10.684
42958W        W11352  25.887  22.201   1.261
42959W        W11353  10.283  39.124  13.828
42960W        W11354   3.927   0.768   1.854
42961W        W11355  11.771  35.596  11.583
42962W        W11356  15.842   8.166   0.873
42963W        W11357  12.616  38.967   0.302
42964W        W11358   3.214  35.672   4.769
42965W        W11359  11.677  25.636  14.789
42966W        W11360  24.638  41.836  13.986
42967W        W11361  44.294  31.855  14.582
42968W        W11362  29.628  19.250   3.784
42969W        W11363  25.179   3.667   1.329
42970W        W11364  27.541  10.442   2.822
42971W        W11365  24.137  41.837   1.466
42972W        W11366  20.648   4.774  14.788
42973W        W11367  17.518  21.693   4.238
42974W        W11368  11.144  39.597   2.665
42975W        W11369  38.564   3.468  11.612
42976W        W11370  23.781  34.928  12.782
42977W        W11371  39.385  24.284  11.456
42978W        W11372  42.266  16.431   1.016
42979W        W11373  15.614   8.612   4.412
42980W        W11374  41.543  31.980  12.043
42981W        W11375   8.229  33.435   2.695
42982W        W11376  14.680  29.310   2.426
42983W        W11377  43.687  13.815   2.820
42984W        W11378  43.451  11.888  13.554
42985W        W11379  16.640  37.394  10.352
42986W        W11380  33.935   9.918  10.323
42987W        W11381   6.398  28.542   4.638
42988W        W11382   2.341  35.482  13.315
42989W        W11383  26.970   5.194  12.584
42990W        W11384  20.449  14.541  11.429
42991W        W11385  26.231  12.361   2.966
42992W        W11386  37.989  30.456   2.740
42993W        W11387  33.031  35.396   1.855
42994W        W11388   5.956  27.025   1.383
42995W        W11389   6.745   6.886   3.574
42996W        W11390  30.448  31.198  12.519
42997W        W11391  37.407  39.521  10.477
42998W        W11392  42.011  42.264   3.291
42999W        W11393  16.016  12.159   1.856
43000W        W11394  16.076  14.317  11.934
43001W        W11395  14.119   9.361   1.178
43002W        W11396   6.204  23.620   0.764
43003W        W11397  31.008  35.188  13.943
43004W        W11398   0.218   8.801  13.069
43005W        W11399  24.109  33.122   1.390
43006W        W11400  24.526  16.088   4.597
43007W        W11401  25.787  21.023  14.357
43008W        W11402  15.101  21.245   3.390
43009W        W11403   6.715  40.586  11.870
43010W        W11404  25.176  37.277  10.050
43011W        W11405  17.704  28.342   1.778
43012W        W11406   2.876   1.307  12.939
43013W        W11407  24.798  19.927   1.865
43014W        W11408  21.067  19.000   0.435
43015W        W11409  30.667  31.443   1.822
43016W        W11410   4.454  15.779  13.081
43017W        W11411   2.864   8.317   1.950
43018W        W11412  26.880  44.951   3.745
43019W        W11413  29.904   8.870  12.860
43020W        W11414  30.663  24.233  12.494
43021W        W11415   3.519  43.778  11.485
43022W        W11416  43.026  13.091   0.404
43023W        W11417  34.607  18.083  14.982
43024W        W11418  41.924  30.221   0.619
43025W        W11419  24.900  11.118  13.009
43026W        W11420  30.404   2.943   2.981
43027W        W11421  39.964   1.743  10.947
43028W        W11422   4.299  20.278   3.164
43029W        W11423  29.878  18.130  13.606
43030W        W11424  26.010  14.025   2.348
43031W        W11425  33.582  39.835  10.113
43032W        W11426   9.947  17.762  12.200
43033W        W11427  43.539  13.398  14.535
43034W        W11428  41.932   6.976   0.771
43035W        W11429  22.477  41.113  10.331
43036W        W11430  36.393  28.174  10.297
43037W        W11431   8.023  24.818  11.388
43038W        W11432  30.795  43.008  12.122
43039W        W11433  43.740  23.596   2.383
43040W        W11434  39.342  39.354  10.771
43041W        W11435  17.724  33.018   1.232
43042W        W11436   3.361   5.054   4.219
43043W        W11437  36.001  42.836  11.591
43044W        W11438  23.896  18.793  14.617
43045W        W11439  17.005  15.031  12.117
43046W        W11440   7.130  34.481  10.894
43047W        W11441   0.427  11.047   4.332
43048W        W11442   3.062  39.811  14.303
43049W        W11443   6.688  17.142   4.354
43050W        W11444  21.480  12.648   0.704
43051W        W11445   1.141  13.226   0.306
43052W        W11446  15.047  36.886  10.529
43053W        W11447  23.669  37.175  13.456
43054W        W11448  29.018   1.223   1.875
43055W        W11449  19.436  11.166   4.153
43056W        W11450  34.901   3.723   3.622
43057W        W11451  37.122  40.227  13.982
43058W        W11452  21.054   5.092   4.663
43059W        W11453  40.291  25.528   0.934
43060W        W11454  17.721  41.098   2.789
43061W        W11455  11.898   9.666   4.267
43062W        W11456  35.194   2.408   3.847
43063W        W11457  33.068  25.653  12.104
43064W        W11458  21.612  10.118   2.355
43065W        W11459   2.709  12.384   1.498
43066W        W11460  12.379  19.703  13.914
43067W        W11461  34.432  33.416   3.388
43068W        W11462  17.220   3.855  10.679
43069W        W11463  32.634  27.125   0.909
43070W        W11464  20.076   6.449   1.336
43071W        W11465   7.694   1.952  13.902
43072W        W11466   7.233  35.549   0.936
43073W        W11467  42.651  12.274   3.551
43074W        W11468   2.943  38.001  12.916
43075W        W11469  38.021  29.979  10.713
43076W        W11470  34.417  10.247  12.806
43077W        W11471  31.578  38.047  12.562
43078W        W11472  15.252   1.030  13.426
43079W        W11473  10.486  44.486   0.047
43080W        W11474  11.345  27.158   0.358
43081W        W11475  21.084   9.106   4.585
43082W        W11476  36.863  26.089   1.457
43083W        W11477  25.214  32.830   2.295
43084W        W11478  19.934  34.867  11.393
43085W        W11479  34.381  17.174   1.431
43086W        W11480   9.824  34.635   3.023
43087W        W11481  12.815  11.149   1.714
43088W        W11482  20.672   5.314   4.938
43089W        W11483  25.007  22.249  11.650
43090W        W11484  17.545  26.713  11.999
43091W        W11485  39.322  14.792   4.413
43092W        W11486  14.573  11.948   3.194
43093W        W11487  36.682  44.684   4.101
43094W        W11488   8.613   5.253  11.891
43095W        W11489  27.975  41.744   1.652
43096W        W11490   7.675  17.221   4.620
43097W        W11491  22.684  43.279   2.636
43098W        W11492   4.290  13.992   0.360
43099W        W11493   2.529  19.288  12.082
43100W        W11494  32.957  29.554  10.969
43101W        W11495  15.359  31.513   0.000
43102W        W11496  29.360   8.850   1.051
43103W        W11497   0.576  44.979  12.838
43104W        W11498   0.738  19.154  12.502
43105W        W11499  41.223  10.421  11.072
43106W        W11500  28.672   0.836   4.075
43107W        W11501  21.945  22.545   4.530
43108W        W11502  35.885  40.310  12.640
43109W        W11503  23.255   3.775   2.345
43110W        W11504   2.722  28.424   3.385
43111W        W11505  15.039  17.995  11.503
43112W        W11506  40.668  18.069   4.521
43113W        W11507   6.843  21.215   0.825
43114W        W11508  33.649  40.735  14.030
43115W        W11509  19.203  32.243   2.768
43116W        W11510  26.720  42.085  10.917
43117W        W11511   4.270  27.710  10.640
43118W        W11512  32.637  27.728  11.664
43119W        W11513   3.684  44.782   4.095
43120W        W11514  37.171  39.987   0.898
43121W        W11515  35.274  43.724  14.271
43122W        W11516  10.404  27.736  14.413
43123W        W11517  27.258  33.371   2.302
43124W        W11518  21.683  18.844  12.284
43125W        W11519   9.517  23.944   3.223
43126W        W11520  21.017  37.803   3.296
43127W        W11521  18.296  12.017   1.249
43128W        W11522  27.242  32.579   1.967
43129W        W11523  27.634   1.399  13.007
43130W        W11524   3.540  35.582   4.329
43131W        W11525  31.362  22.159   3.769
43132W        W11526  38.264  14.194  13.513
43133W        W11527   1.289  20.722  13.041
43134W        W11528  35.631  43.532  13.923
43135W        W11529  19.255  10.116   2.212
43136W        W11530  24.931  19.616  11.083
43137W        W11531  37.124  11.233  12.752
43138W        W11532  10.696  13.261   4.163
43139W        W11533  39.761  23.587  12.429
43140W        W11534  22.087  19.208   4.060
43141W        W11535  18.518   6.686  14.869
43142W        W11536   4.957  18.154  11.183
43143W        W11537  27.177   0.758  11.649
43144W        W11538  28.595   3.461   2.588
43145W        W11539  26.519  27.946   2.916
43146W        W11540   6.818   0.610  13.546
43147W        W11541  13.749   7.007  12.581
43148W        W11542  25.042  22.599  13.765
43149W        W11543  21.330   6.368  12.978
43150W        W11544  30.848  28.114   1.338
43151W        W11545  27.595  18.842   3.944
43152W        W11546  34.902  27.345  12.969
43153W        W11547  37.076  39.426   0.861
43154W        W11548   0.686   7.443   5.074
43155W        W11549  33.418  42.556   1.919
43156W        W11550  35.551   3.646  11.006
43157W        W11551  26.655  31.365   2.764
43158W        W11552  38.982  43.578  11.263
43159W        W11553  31.685  16.552  11.120
43160W        W11554   4.912   6.806  13.109
43161W        W11555  35.382  32.163  12.822
43162W        W11556  39.810   4.326  11.237
43163W        W11557  32.392  25.966  12.588
43164W        W11558  17.661  32.442  12.218
43165W        W11559  14.659  41.561  13.408
43166W        W11560  42.215  23.593   4.136
43167W        W11561   7.541   7.822  14.381
43168W        W11562   9.884  25.819   4.507
43169W        W11563  30.886   3.657  12.130
43170W        W11564  12.162  43.431  11.563
43171W        W11565  35.811   0.418  11.566
43172W        W11566  19.206   5.342   2.158
43173W        W11567  30.582  23.461   1.246
43174W        W11568  40.844  41.783  13.137
43175W        W11569  15.288  23.453   4.711
43176W        W11570   8.597  27.644   3.699
43177W        W11571  42.778  24.980  10.705
43178W        W11572  36.402   0.648  13.233
43179W        W11573  16.041   6.362  13.509
43180W        W11574  30.552   7.679  10.768
43181W        W11575  32.139  12.185  14.485
43182W        W11576   6.469  23.622   2.691
43183W        W11577  34.147  22.646   3.724
43184W        W11578  22.978  41.673  13.856
43185W        W11579  29.499  23.949   4.228
43186W        W11580  16.340  29.602  14.446
43187W        W11581  42.470  12.773  13.611
43188W        W11582  10.073  11.833   4.114
43189W        W11583   4.679  10.875   1.590
43190W        W11584  34.600  16.664   2.171
43191W        W11585  36.086  30.424  12.215
43192W        W11586  36.454  36.565   0.422
43193W        W11587  27.407  32.673   0.436
43194W        W11588  28.517  42.531   0.070
43195W        W11589  28.242  41.009  14.371
43196W        W11590  34.928   7.643   0.435
43197W        W11591  38.289  30.399   3.164
43198W        W11592  44.345  23.009  11.658
43199W        W11593  22.244  13.865   3.300
43200W        W11594  28.597  24.602   2.841
43201W        W11595   3.537   1.422  14.528
43202W        W11596  24.848   0.766  12.131
43203W        W11597  41.970   8.105  11.067
43204W        W11598  11.617  24.590  12.061
43205W        W11599  25.567  14.213   1.716
43206W        W11600  41.992  18.643   0.707
43207W        W11601  37.524  14.334  11.389
43208W        W11602  26.151  26.673   2.714
43209W        W11603  33.831  24.691   4.309
43210W        W11604  17.062  41.397   4.996
43211W        W11605  34.144  15.696   3.784
43212W        W11606  15.745  12.244  13.905
43213W        W11607  42.491  27.548   0.708
43214W        W11608   8.704  15.075   2.904
43215W        W11609  28.634  21.604   0.977
43216W        W11610  41.720  34.257  13.074
43217W        W11611  37.539   5.777   0.901
43218W        W11612  39.812   4.832   4.550
43219W        W11613   4.754   8.599   0.471
43220W        W11614  25.559  14.557   1.270
43221W        W11615  17.781  41.530   4.029
43222W        W11616  18.038  40.368  11.167
43223W        W11617   3.762  40.313  14.724
43224W        W11618   8.624  21.923   4.850
43225W        W11619  42.208   8.449   1.937
43226W        W11620   4.058  25.757  11.028
43227W        W11621  18.132  44.288   1.195
43228W        W11622  43.137  16.702  12.641
43229W        W11623  18.334  41.429   4.428
43230W        W11624  32.347  15.079  11.520
43231W        W11625  44.874  22.235  14.804
43232W        W11626  32.693  27.892   3.988
43233W        W11627   1.504  21.708  12.160
43234W        W11628   7.166  23.730  13.581
43235W        W11629  40.390  28.491  10.735
43236W        W11630  39.151  10.948   4.499
43237W        W11631  15.142   7.997   0.640
43238W        W11632  39.050  22.467  12.129
43239W        W11633  11.411  25.002   3.510
43240W        W11634  17.284  16.351   1.324
43241W        W11635  34.667  25.659   0.731
43242W        W11636   3.372  20.564  12.738
43243W        W11637   7.164  41.170   0.962
43244W        W11638   5.203  39.527  12.884
43245W        W11639  34.973  28.333  12.882
43246W        W11640  25.719  19.737  13.529
43247W        W11641  21.357  40.999   2.647
43248W        W11642  23.725  11.294   3.593
43249W        W11643  16.218  31.442   1.909
43250W        W11644  20.545  25.725   1.280
43251W        W11645  37.055  24.667   3.600
43252W        W11646   2.186   7.984  14.909
43253W        W11647  20.732   8.680   1.276
43254W        W11648  33.638  36.979  10.578
43255W        W11649   4.270  20.785   2.289
43256W        W11650  29.976  32.071   1.674
43257W        W11651  30.376  40.730  14.382
43258W        W11652  43.474   8.695   2.594
43259W        W11653  13.277  16.845   4.062
43260W        W11654   7.419  25.522   1.032
43261W        W11655  19.258  20.313   3.895
43262W        W11656  43.340   9.944  11.975
43263W        W11657  18.119  32.111  14.076
43264W        W11658   1.735  36.050  13.081
43265W        W11659  40.732  25.143  10.764
43266W        W11660  21.477  23.092  14.268
43267W        W11661  11.593  18.089  13.926
43268W        W11662  32.570  43.438  14.041
43269W        W11663  27.728  32.078   3.652
43270W        W11664  19.166  33.467   2.130
43271W        W11665  14.820   6.276   2.861
43272W        W11666   5.384  23.730   2.150
43273W        W11667  32.080  30.267  12.275
43274W        W11668   1.142  26.671  12.683
43275W        W11669  23.697   9.336   4.430
43276W        W11670  12.807  17.271   3.286
43277W        W11671  21.619  22.588  12.978
43278W        W11672  12.190  37.862  13.971
43279W        W11673  18.694  42.522  12.363
43280W        W11674  37.115  25.130  12.883
43281W        W11675  28.199  42.448   4.759
43282W        W11676  27.669  27.164  13.697
43283W        W11677  13.059  23.838   3.559
43284W        W11678  41.360  38.468  14.369
43285W        W11679   6.289  29.991   4.621
43286W        W11680  40.472  11.857   1.903
43287W        W11681  38.071   3.806   3.014
43288W        W11682  34.659  33.306  10.931
43289W        W11683  42.290  10.198   0.922
43290W        W11684  17.172  42.710   4.513
43291W        W11685  12.077  11.335   2.531
43292W        W11686   2.366  19.071  10.490
43293W        W11687   3.705   5.845  10.942
43294W        W11688  16.269  29.243   1.250
43295W        W11689   0.372  43.820   4.585
43296W        W11690   4.879  29.350  14.670
43297W        W11691  14.157   8.144  10.694
43298W        W11692  13.580   0.070  10.405
43299W        W11693  35.393  37.312   3.156
43300W        W11694  24.504  25.211  11.144
43301W        W11695   6.937  24.220   0.762
43302W        W11696  23.543   2.376  14.302
43303W        W11697  43.881  17.733   3.433
43304W        W11698  29.509  25.327  14.504
43305W        W11699  12.711  43.273   4.596
43306W        W11700   9.824  26.993   1.914
43307W        W11701  30.325  41.419  11.232
43308W        W11702  21.736  30.448   2.376
43309W        W11703  10.877  23.119   3.827
43310W        W11704  16.277  32.888  11.686
43311W        W11705  10.737  23.436  14.280
43312W        W11706  17.202   6.799  14.890
43313W        W11707  43.719  38.074  11.628
43314W        W11708  40.719  15.595  14.935
43315W        W11709  23.169  44.386  11.513
43316W        W11710   2.704  41.083  14.148
43317W        W11711  41.116  14.003  11.678
43318W        W11712  15.652  19.145   2.684
43319W        W11713   0.355  23.920   3.775
43320W        W11714  21.004  25.765   0.836
43321W        W11715   6.646  31.922   0.479
43322W        W11716  29.879  35.290  12.942
43323W        W11717  11.363  14.199   3.733
43324W        W11718  38.650  32.433   1.451
43325W        W11719   0.239  11.711  14.732
43326W        W11720  25.055   3.234   3.592
43327W        W11721  12.966  20.472  14.463
43328W        W11722  34.357   9.921   2.740
43329W        W11723   6.624  44.553  10.641
43330W        W11724  24.861  37.643   3.864
43331W        W11725  26.567   2.356   4.975
43332W        W11726  29.363  16.352  11.142
43333W        W11727  18.834   8.714  14.424
43334W        W11728   0.319   6.873   3.204
43335W        W11729   7.300   6.729  10.688
43336W        W11730  28.871  43.319   0.009
43337W        W11731  29.706  37.993   1.438
43338W        W11732  36.885  37.408  12.799
43339W        W11733  28.281  18.264   4.538
43340W        W11734  15.863  13.064  10.771
43341W        W11735  33.662  28.686   0.755
43342W        W11736  28.047  27.189   2.138
43343W        W11737  33.360  23.277  13.953
43344W        W11738  21.618  39.278   1.289
43345W        W11739   5.924  40.126  12.337
43346W        W11740   8.302   5.303  10.658
43347W        W11741  15.961  21.206   1.939
43348W        W11742  40.555  44.906  11.549
43349W        W11743  25.836  36.573   0.311
43350W        W11744  36.480  16.445   4.646
43351W        W11745  35.081  40.531   0.217
43352W        W11746  42.326  13.218   1.355
43353W        W11747   3.073   3.674   1.202
43354W        W11748  27.961   8.339   3.648
43355W        W11749   9.903   2.392   1.951
43356W        W11750   8.356   5.248   1.321
43357W        W11751  24.991  31.920  12.067
43358W        W11752  25.064  33.581  11.074
43359W        W11753   8.869  35.553  10.370
43360W        W11754  40.767  37.492   0.516
43361W        W11755   0.577  22.939   3.638
43362W        W11756  35.558  37.932  10.670
43363W        W11757  12.422  12.086  12.033
43364W        W11758  38.509  19.713  10.231
43365W        W11759  32.098   5.858   1.490
43366W        W11760  38.322  22.552   2.262
43367W        W11761  22.869  29.511   2.330
43368W        W11762  14.675  19.095  11.354
43369W        W11763  38.347  16.893   0.366
43370W        W11764  43.414  44.726   1.252
43371W        W11765   3.088   7.402  11.034
43372W        W11766  40.321  42.345  11.193
43373W        W11767  40.718  35.642  12.875
43374W        W11768  37.582  32.170  12.035
43375W        W11769  16.799  15.692   2.695
43376W        W11770  19.909  25.565   4.744
43377W        W11771  30.107   1.779   2.202
43378W        W11772  34.509  10.230  12.322
43379W        W11773  14.506  35.831  14.318
43380W        W11774  20.987   5.433  13.162
43381W        W11775  14.398  20.662  14.377
43382W        W11776  12.193   9.132  11.916
43383W        W11777   6.719  14.313   2.488
43384W        W11778   1.047   9.909   4.863
43385W        W11779  20.292  25.601   3.376
43386W        W11780  25.467  14.734   2.713
43387W        W11781  16.740  22.135  14.235
43388W        W11782  16.054  22.784  11.532
43389W        W11783   6.573  13.567   9.818
43390W        W11784  21.586  15.319   0.814
43391W        W11785  41.042  44.473  13.956
43392W        W11786  43.057  44.806   2.220
43393W        W11787  18.557   3.213   1.931
43394W        W11788   9.370  14.099   2.218
43395W        W11789   2.669  40.335  13.400
43396W        W11790  33.870  39.601   2.281
43397W        W11791  19.013   6.315   2.396
43398W        W11792  39.056  26.765  12.403
43399W        W11793  16.778  14.717   3.008
43400W        W11794  27.615   1.383   4.525
43401W        W11795  27.984  20.138  10.942
43402W        W11796  39.344  40.672   3.855
43403W        W11797  23.087  20.756   3.122
43404W        W11798   7.808  40.764  14.301
43405W        W11799  18.769   6.220  14.824
43406W        W11800   5.002  25.850   0.535
43407W        W11801  36.073  36.366  12.931
43408W        W11802  13.647  23.245   3.389
43409W        W11803   6.031  15.593   4.869
43410W        W11804  29.514  37.477  14.532
43411W        W11805  25.225   1.480  12.537
43412W        W11806  20.601   2.777   0.022
43413W        W11807  36.439   8.338  14.409
43414W        W11808  43.490  39.061  11.585
43415W        W11809  42.681  14.865  13.986
43416W        W11810   8.236  21.052   0.981
43417W        W11811  30.437  35.968  13.349
43418W        W11812  13.037   9.828  13.616
43419W        W11813  36.517  16.100   4.120
43420W        W11814   4.104  12.866   4.211
43421W        W11815  33.470  33.467  14.273
43422W        W11816  19.464  39.554   1.695
43423W        W11817  27.563  28.932   2.461
43424W        W11818  22.939  30.566   1.761
43425W        W11819  13.854  12.196   3.594
43426W        W11820   3.919   4.514   0.879
43427W        W11821  31.153  14.059  13.989
43428W        W11822  25.964  21.592  13.081
43429W        W11823  27.009  42.289   1.356
43430W        W11824  33.080  34.839  14.478
43431W        W11825   4.004  13.329  12.431
43432W        W11826  26.804  11.166   3.694
43433W        W11827  23.726  23.648   1.360
43434W        W11828   4.815  33.456  12.007
43435W        W11829  27.288  17.189   0.529
43436W        W11830  10.091   8.010   0.789
43437W        W11831  17.429  38.669   5.000
43438W        W11832  16.284  31.745   2.324
43439W        W11833  38.375  26.416   0.819
43440W        W11834  38.824  20.534  13.491
43441W        W11835  36.912  41.242  14.864
43442W        W11836  19.606   1.441  11.098
43443W        W11837   4.169  35.120  13.503
43444W        W11838   1.089  29.138   2.549
43445W        W11839  30.889  27.545  12.620
43446W        W11840  23.568  35.294  11.532
43447W        W11841  32.969  32.906  10.966
43448W        W11842  39.999  10.022   1.723
43449W        W11843  22.641  12.867   2.746
43450W        W11844  31.427  33.643  11.600
43451W        W11845  23.750  26.423  13.009
43452W        W11846  31.981   7.056  14.956
43453W        W11847   2.615  27.655  10.597
43454W        W11848   7.516  14.601   2.563
43455W        W11849   5.010  31.039   2.237
43456W        W11850  27.541  34.386   0.766
43457W        W11851  31.022  38.584   3.681
43458W        W11852  21.569   6.354  14.375
43459W        W11853  28.717  19.807   3.284
43460W        W11854  27.029   2.259  13.120
43461W        W11855  13.594  17.741  10.924
43462W        W11856  40.910  36.314  11.521
43463W        W11857  36.904  29.564   4.161
43464W        W11858  31.450  42.726  14.995
43465W        W11859  25.263  29.603  13.065
43466W        W11860   1.309  44.502  11.228
43467W        W11861  23.982  23.442  13.716
43468W        W11862  30.839  32.260   2.760
43469W        W11863  33.850  42.318   1.761
43470W        W11864  21.476   9.258  11.116
43471W        W11865  35.599  15.706   3.322
43472W        W11866  29.847  24.190  13.011
43473W        W11867  42.710  22.700   1.939
43474W        W11868  18.204  34.622  14.730
43475W        W11869  12.888  27.149  11.608
43476W        W11870   3.979   5.316   2.651
43477W        W11871  22.053  43.490   4.133
43478W        W11872   2.274  29.881  11.040
43479W        W11873  13.219  12.131  14.415
43480W        W11874   7.340  38.958  14.564
43481W        W11875  33.925   7.299   5.011
43482W        W11876  10.618  25.110  14.846
43483W        W11877  27.221  12.303   0.993
43484W        W11878  42.839  40.820  13.767
43485W        W11879  18.128  10.164  12.358
43486W        W11880   2.017  26.398  12.991
43487W        W11881  39.791   4.691   0.261
43488W        W11882  34.857  14.267   3.748
43489W        W11883  26.980  29.768  12.835
43490W        W11884  44.169  36.229   0.043
43491W        W11885  31.751  19.137   1.497
43492W        W11886  39.249  20.581   0.398
43493W        W11887  36.585  31.129   4.594
43494W        W11888  22.619  20.267   0.028
43495W        W11889  23.290   3.744  12.893
43496W        W11890  27.220  40.280   3.184
43497W        W11891  15.735  26.200   2.727
43498W        W11892  21.603  43.316  13.614
43499W        W11893  32.677  40.868   1.328
43500W        W11894  25.163  25.778  11.170
43501W        W11895  41.706  42.669  13.953
43502W        W11896  18.042  34.912  14.308
43503W        W11897   9.880   9.650  12.921
43504W        W11898  12.780  28.100   1.843
43505W        W11899   4.427  23.147  14.908
43506W        W11900  30.072  29.875  11.077
43507W        W11901  13.320  32.973   2.651
43508W        W11902   4.829  38.089   0.760
43509W        W11903  19.796  15.549   0.156
43510W        W11904  42.586  18.446  13.282
43511W        W11905  27.069   1.352   5.329
43512W        W11906  26.472  35.167  14.403
43513W        W11907  21.940  12.092   4.762
43514W        W11908  15.109  16.481   2.740
43515W        W11909   0.060  17.312  12.096
43516W        W11910  29.172  12.897  12.140
43517W        W11911   9.218  28.278  14.756
43518W        W11912  39.230  12.525   3.697
43519W        W11913  39.866  11.164  12.405
43520W        W11914  31.080   3.305   1.953
43521W        W11915   8.487  36.095   1.830
43522W        W11916  18.785  34.351  12.061
43523W        W11917  37.871  43.958   4.595
43524W        W11918  11.060  32.537  11.581
43525W        W11919  24.766  42.095   0.315
43526W        W11920   9.759  24.585   1.672
43527W        W11921   7.447   8.336  11.006
43528W        W11922  32.690   8.404   2.614
43529W        W11923   3.131   1.290  14.228
43530W        W11924  25.699  35.314   4.967
43531W        W11925  44.564   5.297  11.457
43532W        W11926  10.769  15.608  12.259
43533W        W11927  32.514  22.784   4.599
43534W        W11928  24.050   3.176   3.222
43535W        W11929  33.350  39.323   2.688
43536W        W11930  13.191   7.383   4.918
43537W        W11931   1.246  11.522   2.709
43538W        W11932   1.940  20.006   0.760
43539W        W11933  23.542   0.341  14.885
43540W        W11934   6.684  37.547  11.151
43541W        W11935   2.013   1.344  10.718
43542W        W11936  16.037  17.223   0.287
43543W        W11937   8.157  29.660   1.809
43544W        W11938   0.634  11.743   3.377
43545W        W11939  30.398  17.153  11.047
43546W        W11940  12.168  13.860  11.094
43547W        W11941  32.896   3.674   2.762
43548W        W11942  10.343  41.752  13.016
43549W        W11943  42.305  30.918   3.762
43550W        W11944  24.527   0.929   4.133
43551W        W11945  31.602  13.876  13.081
43552W        W11946  13.422  39.667   0.750
43553W        W11947  41.263  39.998   3.284
43554W        W11948  23.527   4.339  10.439
43555W        W11949  15.207  20.603  10.573
43556W        W11950  18.459   4.636   3.232
43557W        W11951  13.235  12.918  11.965
43558W        W11952   6.408  33.023   1.974
43559W        W11953  31.046  10.289  12.457
43560W        W11954   5.283  26.658  10.556
43561W        W11955  44.796  41.054   4.954
43562W        W11956  42.063   0.378  13.796
43563W        W11957  21.682  19.084  13.305
43564W        W11958  21.622  12.112  11.132
43565W        W11959  36.952  31.594   3.428
43566W        W11960   1.656  43.877   1.810
43567W        W11961  32.906   0.724   4.114
43568W        W11962  17.905  25.568   3.260
43569W        W11963   9.203  15.260   0.851
43570W        W11964  23.777  32.990   3.303
43571W        W11965  10.925  15.075   1.397
43572W        W11966   5.523  35.903   0.531
43573W        W11967  33.450  15.832  14.163
43574W        W11968  36.095   2.239  12.012
43575W        W11969  28.650   9.754   1.459
43576W        W11970  35.406   1.595   3.622
43577W        W11971  29.786  33.403  14.074
43578W        W11972  35.777  17.039  12.961
43579W        W11973  29.683  32.221  11.919
43580W        W11974  22.000  11.049   4.961
43581W        W11975  24.263   1.888  14.413
43582W        W11976  29.890  28.046   1.705
43583W        W11977   4.629  44.926   2.098
43584W        W11978  14.228  27.658  12.969
43585W        W11979   1.517   8.171  12.991
43586W        W11980  11.878  20.465  13.985
43587W        W11981  12.807  28.574  14.826
43588W        W11982  41.035  40.995   4.237
43589W        W11983  28.091  25.073  11.111
43590W        W11984  18.045  14.691  13.555
43591W        W11985  17.268   2.732   1.855
43592W        W11986  13.114  30.003  14.793
43593W        W11987  11.587   1.048   4.130
43594W        W11988  31.316   5.680  12.070
43595W        W11989  39.351  22.338  11.556
43596W        W11990  25.208  43.900  12.892
43597W        W11991   7.708   6.201  14.106
43598W        W11992  17.953   8.881   3.764
43599W        W11993  34.840  35.124   2.318
43600W        W11994  31.104  24.636   0.855
43601W        W11995  15.113  40.222   1.199
43602W        W11996  21.675  44.652   2.369
43603W        W11997  23.271  39.432  11.694
43604W        W11998  38.040  24.554   1.759
43605W        W11999  44.361  18.028  10.729
43606W        W12000  31.168   9.189   3.405
43607W        W12001   3.374  12.912  13.964
43608W        W12002  30.936   3.597   2.788
43609W        W12003   4.009  32.167   2.820
43610W        W12004  27.775  36.531   3.901
43611W        W12005  43.110   2.039  12.508
43612W        W12006  18.055   9.739   4.859
43613W        W12007  21.603  40.542  11.658
43614W        W12008   3.372  22.322  12.160
43615W        W12009  18.493  25.183  12.065
43616W        W12010  29.162  43.432   4.135
43617W        W12011  37.337  18.323  11.174
43618W        W12012   1.768  31.646   4.868
43619W        W12013  38.624  15.592  11.544
43620W        W12014  27.072  21.115   3.342
43621W        W12015  26.192  41.968   4.568
43622W        W12016  43.912  35.006  12.441
43623W        W12017   5.927   8.251  13.910
43624W        W12018  35.815  33.792   2.830
43625W        W12019   6.869  10.230   1.025
43626W        W12020  13.302   9.546   2.694
43627W        W12021  34.128  41.796  14.255
43628W        W12022  22.674  31.210   2.969
43629W        W12023  30.511  12.044  13.633
43630W        W12024  31.129  24.551   2.298
43631W        W12025  37.864  26.544   2.125
43632W        W12026  25.493   3.619  14.119
43633W        W12027  16.140  17.029  10.671
43634W        W12028  16.712   7.953   3.124
43635W        W12029  17.859  37.788   0.357
43636W        W12030  29.850  15.704  13.880
43637W        W12031  14.723  12.388  14.258
43638W        W12032   7.089   9.276   3.912
43639W        W12033  44.417   5.379   3.221
43640W        W12034  32.868   3.109  11.121
43641W        W12035  42.526  12.594  14.100
43642W        W12036  31.060   4.759  12.223
43643W        W12037  21.525  19.225   0.650
43644W        W12038   9.185   6.729  13.547
43645W        W12039   3.950  31.229  11.456
43646W        W12040  44.853  23.679   2.805
43647W        W12041   2.866  31.435   1.006
43648W        W12042   1.348  38.763  11.020
43649W        W12043   8.675  42.500   4.660
43650W        W12044  30.363  15.786  10.951
43651W        W12045  32.405  27.578   1.109
43652W        W12046   3.171  18.149  13.901
43653W        W12047  22.727  39.740  13.184
43654W        W12048  18.733  28.547   3.579
43655W        W12049  19.080   6.638   4.644
43656W        W12050  12.160   8.150  12.559
43657W        W12051  19.214  11.669  12.677
43658W        W12052  34.130  37.833  14.464
43659W        W12053   1.022  16.074  10.660
43660W        W12054  30.045  39.322  14.237
43661W        W12055   2.097  16.085   9.845
43662W        W12056   1.312  22.162   0.714
43663W        W12057  38.722   8.621  12.476
43664W        W12058  40.519  12.459   3.702
43665W        W12059   8.132  29.917  14.342
43666W        W12060  10.327  43.068  11.558
43667W        W12061   7.746  20.054   1.845
43668W        W12062   9.965  40.077  12.102
43669W        W12063  20.762  33.461   1.326
43670W        W12064  18.343  24.352   2.289
43671W        W12065   2.489  11.277   0.337
43672W        W12066  16.757   0.211  10.648
43673W        W12067  16.172   0.773   4.150
43674W        W12068  44.926   7.409  14.559
43675W        W12069   1.001  26.954  11.684
43676W        W12070  20.048  30.018  13.497
43677W        W12071  17.860  31.254  10.811
43678W        W12072  11.088   9.215   2.890
43679W        W12073  41.067  17.391  12.986
43680W        W12074   4.245  22.447  12.499
43681W        W12075  23.541  30.197  14.465
43682W        W12076  21.317   5.155  14.492
43683W        W12077   8.422  17.718   0.452
43684W        W12078  22.484  15.695   4.072
43685W        W12079  33.095   8.777   0.961
43686W        W12080  30.326  27.584  14.357
43687W        W12081   1.553   5.843  13.913
43688W        W12082  14.646  27.533   2.094
43689W        W12083  28.004   0.498  13.885
43690W        W12084  38.064  29.928  13.154
43691W        W12085  36.388   5.952  14.063
43692W        W12086  12.739   9.733   1.624
43693W        W12087  31.718  38.433   2.029
43694W        W12088  17.779  36.699   3.134
43695W        W12089  30.655  33.560  14.507
43696W        W12090   4.215   9.907  11.507
43697W        W12091  37.527  41.096  12.098
43698W        W12092  40.132   1.137   3.706
43699W        W12093  16.142   9.271   1.232
43700W        W12094   6.734   4.684   0.322
43701W        W12095  12.688   3.639  13.501
43702W        W12096  11.294  24.173  11.989
43703W        W12097  36.524  15.330   0.783
43704W        W12098  16.324  29.404  12.697
43705W        W12099  32.537  38.030  11.499
43706W        W12100  33.170  28.971  14.373
43707W        W12101   7.772  40.237   4.941
43708W        W12102  41.715   5.833   2.699
43709W        W12103  14.652  44.000  14.279
43710W        W12104   9.662  35.919  10.745
43711W        W12105  37.279  36.067  10.609
43712W        W12106  41.663   8.986   3.664
43713W        W12107  39.815  39.289   0.006
43714W        W12108   1.279  19.655  14.464
43715W        W12109  20.326  10.795   1.957
43716W        W12110   1.295  33.046   3.551
43717W        W12111  33.744  11.407  12.807
43718W        W12112   0.375  27.459  13.404
43719W        W12113  44.546   8.165   4.587
43720W        W12114  11.724  37.260   2.769
43721W        W12115  43.987  37.590  12.493
43722W        W12116  13.172  26.736   4.558
43723W        W12117  34.999  16.101   0.164
43724W        W12118  38.390  29.251   0.479
43725W        W12119  42.719  10.909   4.216
43726W        W12120  42.783  39.303   2.261
43727W        W12121  14.380  44.970  11.966
43728W        W12122  42.277  27.814   3.663
43729W        W12123  17.052   5.721  12.917
43730W        W12124  10.668  18.455  14.718
43731W        W12125  40.097  17.831   1.285
43732W        W12126  22.439  37.005  14.839
43733W        W12127  17.125  40.011   0.505
43734W        W12128  27.464  16.704   0.549
43735W        W12129   1.324  22.881  10.435
43736W        W12130  21.506  31.401   1.495
43737W        W12131  23.088  32.403  14.043
43738W        W12132  30.979  15.689  14.688
43739W        W12133  16.765  28.378   1.841
43740W        W12134   6.151  35.626   3.825
43741W        W12135   0.565   5.226  11.732
43742W        W12136  35.370  32.887   1.935
43743W        W12137   7.748  25.717  13.523
43744W        W12138  34.923  36.408  12.946
43745W        W12139  32.911  39.047   0.424
43746W        W12140  36.071  34.712  14.037
43747W        W12141   8.625  26.155   0.707
43748W        W12142   8.383   7.603   3.157
43749W        W12143  43.549  33.630  11.181
43750W        W12144   3.519   2.914  14.299
43751W        W12145  25.804  13.789   1.931
43752W        W12146  17.363  21.149   3.204
43753W        W12147  39.920  22.981  11.958
43754W        W12148  29.054  17.509   0.270
43755W        W12149  15.864  20.583  11.317
43756W        W12150  41.077   8.109   2.212
43757W        W12151  14.167  44.254   2.381
43758W        W12152  40.431   2.975  11.194
43759W        W12153  12.237  18.555  12.191
43760W        W12154  11.327  34.171   4.273
43761W        W12155  24.914  30.210   1.361
43762W        W12156  16.256   9.812   4.676
43763W        W12157  21.565  30.038  13.501
43764W        W12158  42.485  17.340   3.714
43765W        W12159  25.600   5.859  13.797
43766W        W12160  12.135  43.884  14.969
43767W        W12161  29.881  24.073   3.323
43768W        W12162  27.656   7.150   1.183
43769W        W12163  37.424  25.056   4.208
43770W        W12164  34.127  25.450  11.886
43771W        W12165   5.880  15.744  10.393
43772W        W12166  10.170  24.901   2.900
43773W        W12167  33.497  25.110  13.132
43774W        W12168  39.285   6.217  11.246
43775W        W12169  39.131   7.227  13.510
43776W        W12170   2.732  19.358   1.492
43777W        W12171  20.212  20.224  13.775
43778W        W12172   9.513  17.517   4.865
43779W        W12173   1.054  27.045  14.880
43780W        W12174  16.584  28.097   0.210
43781W        W12175  19.729   8.572   4.111
43782W        W12176  12.677  18.262  14.884
43783W        W12177  15.177  24.311  10.625
43784W        W12178  10.059   9.497  13.365
43785W        W12179  42.802  13.903  11.562
43786W        W12180  22.090  18.197  13.029
43787W        W12181  19.551  23.672  13.034
43788W        W12182  10.144   6.114   4.949
43789W        W12183  43.617  32.505   3.540
43790W        W12184   3.476  19.835  13.357
43791W        W12185  17.989  43.332   3.676
43792W        W12186  23.408  35.947   1.276
43793W        W12187   0.929  31.987  10.107
43794W        W12188  28.597   8.334   0.077
43795W        W12189  38.066  42.380   2.346
43796W        W12190  37.810   5.932  12.475
43797W        W12191  25.027  10.261   0.095
43798W        W12192   1.838  16.452  10.158
43799W        W12193  16.892  23.638   4.534
43800W        W12194  23.702  36.984   4.234
43801W        W12195  28.124   9.692   1.542
43802W        W12196  20.807  25.720   4.346
43803W        W12197  21.599   7.268  11.581
43804W        W12198  31.306   4.686   0.732
43805W        W12199  13.389  26.085   1.979
43806W        W12200  14.094  33.566   0.867
43807W        W12201  12.793  38.532  14.094
43808W        W12202  33.571   9.350  12.059
43809W        W12203  33.141  21.781   2.602
43810W        W12204  36.685   5.703   1.288
43811W        W12205   0.969  28.283   4.647
43812W        W12206  26.584   7.377   0.496
43813W        W12207  17.741   9.699  14.402
43814W        W12208  43.144   7.767   2.299
43815W        W12209  24.989  38.333   1.247
43816W        W12210  25.586  26.652   2.160
43817W        W12211   8.695  30.648  11.006
43818W        W12212  23.610  22.691   4.486
43819W        W12213  32.819  14.884  12.904
43820W        W12214  34.888   0.612   1.827
43821W        W12215  25.035   9.357  11.063
43822W        W12216  35.107  17.675   3.589
43823W        W12217  28.220  18.671  12.074
43824W        W12218  14.131  44.368  14.957
43825W        W12219  40.575  13.341   3.511
43826W        W12220  42.454  33.097   3.130
43827W        W12221  19.299   4.048   3.634
43828W        W12222  27.790  39.686  13.343
43829W        W12223  13.838  27.680   0.811
43830W        W12224  12.259  18.556   1.354
43831W        W12225  20.977  21.054   1.569
43832W        W12226  15.307  12.159  10.753
43833W        W12227  31.847  26.876   4.876
43834W        W12228   7.812   1.214  11.147
43835W        W12229  40.468  41.996  10.410
43836W        W12230  13.672   0.491   3.739
43837W        W12231  26.448  21.517  13.301
43838W        W12232  40.827   1.948  13.011
43839W        W12233  20.676  10.791   0.219
43840W        W12234  41.210  24.192  13.380
43841W        W12235  14.129  17.052  13.055
43842W        W12236  27.350   5.897   2.349
43843W        W12237   8.531   5.313   0.587
43844W        W12238  20.617  41.089  10.926
43845W        W12239  12.806  23.012   3.748
43846W        W12240  34.482  22.191   4.815
43847W        W12241   0.793   1.499  14.917
43848W        W12242  24.451  28.885   1.617
43849W        W12243   5.339  18.108   1.323
43850W        W12244   9.763   0.813   0.359
43851W        W12245  36.492  26.019   0.643
43852W        W12246  22.090  38.304   0.430
43853W        W12247  33.249  22.691   1.845
43854W        W12248  17.839  20.454  10.767
43855W        W12249   8.984   0.543   1.153
43856W        W12250  15.680  11.930   4.220
43857W        W12251  18.132  27.193   0.058
43858W        W12252   0.463  17.057  14.261
43859W        W12253  35.255  44.268   1.467
43860W        W12254   0.422  32.044  11.964
43861W        W12255  13.697  20.613  12.477
43862W        W12256  20.056  17.660   3.174
43863W        W12257   2.819  17.233   3.857
43864W        W12258  26.389  18.606   3.267
43865W        W12259  39.781  41.879   4.644
43866W        W12260  18.214   1.361   3.230
43867W        W12261  43.802  32.999  12.737
43868W        W12262  26.062  14.777  11.150
43869W        W12263   7.363   5.507  13.512
43870W        W12264   5.417  14.536   1.334
43871W        W12265  35.517  13.103  14.845
43872W        W12266   8.923  12.753  11.255
43873W        W12267  38.359   6.755  13.577
43874W        W12268   0.593  24.517   2.730
43875W        W12269   1.187  17.988   4.154
43876W        W12270  17.671  42.443  14.511
43877W        W12271  28.163  36.390   0.823
43878W        W12272  16.714  37.035  11.054
43879W        W12273   5.928  31.889   3.154
43880W        W12274  25.222  41.804   0.387
43881W        W12275  25.313  13.651   1.886
43882W        W12276   3.783   0.040  12.981
43883W        W12277  22.466   0.801   0.929
43884W        W12278  31.526  22.664  10.955
43885W        W12279  38.260  36.360   1.012
43886W        W12280   8.590  37.754  12.023
43887W        W12281  11.067  43.006  14.988
43888W        W12282  43.315  15.422  13.624
43889W        W12283  39.436  33.665  12.516
43890W        W12284  39.949   9.644   2.664
43891W        W12285  12.849  44.073   0.323
43892W        W12286   2.845   9.108  13.782
43893W        W12287   7.874  28.418  13.003
43894W        W12288  17.160  23.807   1.449
43895W        W12289   6.406  22.668   3.960
43896W        W12290  28.720  42.458  11.064
43897W        W12291  12.283  32.329   0.721
43898W        W12292   1.454   2.284   3.161
43899W        W12293  26.100  21.328  14.066
43900W        W12294  13.694  29.316   1.389
43901W        W12295   9.503  32.853   3.120
43902W        W12296  21.052   6.397   3.736
43903W        W12297  42.948  27.446   4.904
43904W        W12298  37.739   6.523   4.033
43905W        W12299  18.671  32.014   0.826
43906W        W12300  42.587   5.751   2.328
43907W        W12301   7.168  29.554  11.958
43908W        W12302  27.086   2.883   3.899
43909W        W12303  18.802  26.110   0.456
43910W        W12304  38.868   5.971  12.524
43911W        W12305  17.392  21.062  10.243
43912W        W12306  36.851  37.989  12.097
43913W        W12307   4.381  35.641   2.489
43914W        W12308  25.201   2.875  12.392
43915W        W12309   5.362  22.990  13.453
43916W        W12310  27.949  43.220  14.184
43917W        W12311   7.415  16.207   0.220
43918W        W12312  30.046   8.170  11.474
43919W        W12313  39.040  39.180   0.273
43920W        W12314  10.869  33.726  12.428
43921W        W12315  24.506  38.142   1.321
43922W        W12316  26.934   4.794  14.582
43923W        W12317  12.909   9.750  14.974
43924W        W12318  11.263  23.254  12.492
43925W        W12319  18.182   1.218   2.723
43926W        W12320  31.406  43.579   3.255
43927W        W12321   3.435  31.830  11.991
43928W        W12322  23.082   9.834  11.608
43929W        W12323  40.240  28.967  10.439
43930W        W12324  32.506  44.908  13.912
43931W        W12325  17.353  28.502  11.635
43932W        W12326   2.710  34.531   1.927
43933W        W12327  16.699  38.849   2.863
43934W        W12328  44.527   3.161  11.557
43935W        W12329  36.996  17.098  11.563
43936W        W12330  15.563  34.914   2.535
43937W        W12331  36.471  23.630   3.688
43938W        W12332   8.955   3.849  10.344
43939W        W12333  26.450  33.078   1.869
43940W        W12334  29.890  37.012   1.016
43941W        W12335   4.503   4.906   4.884
43942W        W12336  21.236  39.616   2.166
43943W        W12337   9.172  43.004  11.313
43944W        W12338  39.968  11.162  13.284
43945W        W12339  17.545   6.742   0.923
43946W        W12340  29.949  25.627   2.378
43947W        W12341  13.126   5.989   2.375
43948W        W12342  26.554  19.593   2.893
43949W        W12343  19.329  13.035  12.814
43950W        W12344  33.432  11.427  14.814
43951W        W12345  37.139  27.254  14.065
43952W        W12346  38.966  21.603   0.412
43953W        W12347  16.977   3.278   2.806
43954W        W12348  33.137  22.128  10.734
43955W        W12349   7.779   8.334   4.553
43956W        W12350  33.617  33.090   2.974
43957W        W12351  16.660  16.973   1.740
43958W        W12352  43.587   0.908  10.655
43959W        W12353  24.490  16.191   3.632
43960W        W12354  39.792  13.720   1.733
43961W        W12355  44.896  38.278   0.860
43962W        W12356  17.678  10.628   1.721
43963W        W12357  22.226  38.098   0.897
43964W        W12358  11.818   6.739  14.031
43965W        W12359  33.915  21.903   1.071
43966W        W12360  27.530  11.877   4.296
43967W        W12361  12.645  26.564   3.424
43968W        W12362  14.093  19.427   2.659
43969W        W12363  36.374  33.324   0.894
43970W        W12364   1.287  42.286   0.438
43971W        W12365   1.652  13.760   2.390
43972W        W12366  21.071  42.857   2.133
43973W        W12367  28.710  29.546   2.553
43974W        W12368  39.807   8.407   0.812
43975W        W12369  36.811  30.503   0.863
43976W        W12370  30.169  14.048  12.073
43977W        W12371  32.699  35.634  14.361
43978W        W12372  32.541  31.249  10.662
43979W        W12373   6.896  27.600  11.542
43980W        W12374  26.176  40.956  12.835
43981W        W12375  38.412  19.157   1.126
43982W        W12376  10.167   6.748   1.261
43983W        W12377   2.281  20.060  10.644
43984W        W12378  31.625  12.672  13.861
43985W        W12379  31.116  41.488   0.819
43986W        W12380  40.134  35.161   3.154
43987W        W12381   5.731  38.000  10.614
43988W        W12382  31.715  28.645  12.864
43989W        W12383   7.692  35.608   4.960
43990W        W12384  38.815  24.452  13.516
43991W        W12385  35.179  18.268  10.283
43992W        W12386  29.949  19.417  12.988
43993W        W12387  13.239  26.197   1.491
43994W        W12388   9.053   1.701  13.408
43995W        W12389  16.384  35.025   2.278
43996W        W12390  37.070   3.862   3.705
43997W        W12391   1.719   0.800  10.775
43998W        W12392  18.271  37.918   3.584
43999W        W12393   7.132  28.859   2.667
44000W        W12394  20.477  18.153  10.662
44001W        W12395  43.801  44.562  14.884
44002W        W12396  17.210  36.961   9.789
44003W        W12397  42.406  42.289  13.457
44004W        W12398   6.729  10.928  11.349
44005W        W12399  39.068   5.651  11.077
44006W        W12400  14.783  34.816  13.135
44007W        W12401  44.571  16.686   1.723
44008W        W12402  18.740  14.980  10.482
44009W        W12403  20.505  35.773   4.223
44010W        W12404  10.117  32.143   4.128
44011W        W12405  23.820  31.020   3.748
44012W        W12406  34.893  19.127   1.890
44013W        W12407  29.659  35.496   1.873
44014W        W12408   3.990   2.921   3.669
44015W        W12409  34.542  33.692  12.772
44016W        W12410  35.799   3.904  10.630
44017W        W12411   6.839   8.535  11.461
44018W        W12412  22.647  12.574  14.858
44019W        W12413  16.845  34.025  13.403
44020W        W12414   5.262  25.092   0.001
44021W        W12415  37.342   1.368   0.233
44022W        W12416  22.010  31.186  13.473
44023W        W12417  12.641   1.115   0.297
44024W        W12418   3.690  12.188  11.149
44025W        W12419  27.946  33.210   3.194
44026W        W12420   7.726  24.024  11.586
44027W        W12421   3.893  34.944   4.717
44028W        W12422  39.377  37.059   4.904
44029W        W12423  15.299   4.235   5.194
44030W        W12424  14.766  15.628   0.954
44031W        W12425   3.813  23.015  13.139
44032W        W12426  22.021  30.208   4.266
44033W        W12427   6.564  12.399  12.911
44034W        W12428  38.091  19.741   0.846
44035W        W12429   2.793  33.161   4.630
44036W        W12430  25.734  16.779   3.633
44037W        W12431  37.159  27.718  13.845
44038W        W12432  31.429  13.587   4.043
44039W        W12433  16.991   3.933  11.132
44040W        W12434  44.778  26.750   4.033
44041W        W12435  31.910  39.706  12.972
44042W        W12436  10.884  10.028   0.430
44043W        W12437  27.720  31.464  13.452
44044W        W12438  17.228  31.524  11.866
44045W        W12439  21.528  21.971   4.959
44046W        W12440  31.226  37.946  11.060
44047W        W12441   1.705  10.859   1.243
44048W        W12442  26.661  30.378   2.745
44049W        W12443  17.225  16.327   4.146
44050W        W12444  27.889   7.955   4.931
44051W        W12445  29.779  21.965  13.848
44052W        W12446  38.221   0.255   2.928
44053W        W12447  33.810  17.552  13.483
44054W        W12448  30.382   7.204  10.699
44055W        W12449  24.230  11.415   3.727
44056W        W12450  31.397  28.455  12.461
44057W        W12451   6.425  35.961  12.493
44058W        W12452  27.829  37.110  12.049
44059W        W12453  42.704  12.651  12.330
44060W        W12454  28.202   1.911   2.164
44061W        W12455  13.343  32.469  12.065
44062W        W12456  11.433  36.054   2.360
44063W        W12457  11.796  10.799  12.984
44064W        W12458  26.982  15.031   3.141
44065W        W12459   6.717  28.807  11.083
44066W        W12460  22.772  34.344  11.479
44067W        W12461   9.120  37.865  12.022
44068W        W12462  16.044  30.436   2.859
44069W        W12463   5.457  39.985   3.313
44070W        W12464  18.272  24.758  11.156
44071W        W12465  32.122  17.067  10.603
44072W        W12466  35.538  14.595  14.739
44073W        W12467  10.199  33.369  14.488
44074W        W12468  23.671  26.395   1.331
44075W        W12469  39.864   8.388  12.036
44076W        W12470  21.038  32.692  11.430
44077W        W12471  25.054  37.030  12.519
44078W        W12472  35.029   0.559   2.734
44079W        W12473  15.608  37.808  13.777
44080W        W12474  37.888  25.215   2.178
44081W        W12475  25.456   8.890  12.510
44082W        W12476   7.586  35.281   1.778
44083W        W12477   6.725  12.194   3.746
44084W        W12478  18.191  31.885  10.164
44085W        W12479  18.284   0.989  14.927
44086W        W12480  18.878  41.337   1.732
44087W        W12481  13.541   6.231  12.112
44088W        W12482   7.227  39.597  13.548
44089W        W12483  11.550  33.672   4.501
44090W        W12484  16.007  25.472  13.861
44091W        W12485  26.546  19.182  10.779
44092W        W12486  27.215  18.698   1.754
44093W        W12487  22.578   2.745   2.803
44094W        W12488  25.654  26.000  10.789
44095W        W12489  19.101  38.504  11.876
44096W        W12490  21.189   7.870  13.026
44097W        W12491   4.028   6.297  14.426
44098W        W12492  29.411   4.793  10.367
44099W        W12493  32.821  42.943   5.158
44100W        W12494   7.360  39.892   3.335
44101W        W12495  44.066  28.076  10.316
44102W        W12496  23.080  16.062  14.931
44103W        W12497  37.451  23.206  11.794
44104W        W12498   3.191  26.061  12.292
44105W        W12499  31.471  33.126   0.752
44106W        W12500   9.691  15.903   1.281
44107W        W12501  30.551  33.904   3.304
44108W        W12502  28.640  34.401   3.723
44109W        W12503  19.156   9.783   2.711
44110W        W12504  25.909  40.290   4.295
44111W        W12505  29.948  14.023  11.201
44112W        W12506  30.181  43.896   1.557
44113W        W12507  19.825  25.286  13.997
44114W        W12508   5.381   6.237  14.107
44115W        W12509  20.556  32.970   1.266
44116W        W12510   3.820  21.877  11.616
44117W        W12511  32.605  40.461  12.453
44118W        W12512  37.018   1.050   1.335
44119W        W12513  37.077  43.295  13.873
44120W        W12514   6.696  15.359  11.449
44121W        W12515  33.349   8.149   4.159
44122W        W12516  39.397  24.427   3.429
44123W        W12517  26.921  24.572  10.766
44124W        W12518   4.313  27.189   0.716
44125W        W12519  31.206  12.882  11.114
44126W        W12520  33.026  34.248  10.696
44127W        W12521  43.607  32.012  10.566
44128W        W12522  24.247  38.888   4.127
44129W        W12523  28.013  30.453  11.411
44130W        W12524  22.440  18.193   0.128
44131W        W12525  16.321   2.040  11.022
44132W        W12526   7.934  12.857  12.917
44133W        W12527   4.713   9.838   1.638
44134W        W12528  26.289  18.144  10.799
44135W        W12529  29.968  18.543   3.831
44136W        W12530  28.774   8.886   5.132
44137W        W12531  20.142  15.518  12.960
44138W        W12532  31.047   2.310  13.043
44139W        W12533   8.711  10.590   1.863
44140W        W12534  33.370  28.142  13.468
44141W        W12535  29.677  13.273  10.615
44142W        W12536   1.473  19.024  11.174
44143W        W12537  20.595  12.802   4.581
44144W        W12538  26.932   3.372  11.593
44145W        W12539  26.275  39.354   4.314
44146W        W12540   9.945  43.702   2.100
44147W        W12541  43.385  25.954   0.221
44148W        W12542   6.604  30.437   4.142
44149W        W12543  35.018  37.985   1.925
44150W        W12544  15.563  22.731  13.977
44151W        W12545   2.322  25.971  14.289
44152W        W12546   2.383  17.267  11.004
44153W        W12547  26.642   4.332  14.462
44154W        W12548  13.711  44.186  10.572
44155W        W12549  27.369   5.775   1.643
44156W        W12550   3.202  28.800   2.296
44157W        W12551  41.125  22.951   1.242
44158W        W12552  38.483  41.798  13.473
44159W        W12553   7.389  29.564  12.445
44160W        W12554  24.593  42.482  10.718
44161W        W12555   8.378  23.061  14.782
44162W        W12556  43.856  33.042   0.194
44163W        W12557  28.133  24.393  12.173
44164W        W12558  41.076   1.045  12.105
44165W        W12559  17.511  11.489  14.886
44166W        W12560  38.574  15.890  12.004
44167W        W12561  10.183  19.086   0.194
44168W        W12562  33.369  17.644   0.850
44169W        W12563   4.341  23.571  11.956
44170W        W12564  26.538  39.028  13.706
44171W        W12565  35.849  21.927   4.489
44172W        W12566   8.581  31.631  11.803
44173W        W12567   9.264  34.922   4.190
44174W        W12568   0.426  36.114  10.253
44175W        W12569   4.318  19.617   0.756
44176W        W12570   0.969  35.394  13.876
44177W        W12571  29.557   5.705   0.530
44178W        W12572   4.196  42.389   1.649
44179W        W12573   0.932   6.237  14.182
44180W        W12574  33.805  20.933   0.679
44181W        W12575  22.895  12.658  10.669
44182W        W12576  34.671  10.883  14.382
44183W        W12577  43.074  43.959  12.089
44184W        W12578   8.912  42.345   1.664
44185W        W12579  28.797  31.311   1.707
44186W        W12580  41.048  15.288   2.107
44187W        W12581  17.104  16.211  12.849
44188W        W12582  14.390  33.455  13.298
44189W        W12583  33.219  38.991   2.276
44190W        W12584  33.400   3.715  14.943
44191W        W12585  16.077   0.484  11.141
44192W        W12586   9.508  37.878  11.188
44193W        W12587  29.395  23.868   3.140
44194W        W12588  13.845  31.349   2.136
44195W        W12589  14.310  20.983   2.689
44196W        W12590  37.339  26.760  12.597
44197W        W12591  33.056  30.013   2.843
44198W        W12592  15.824  19.134   0.512
44199W        W12593   1.027  42.993  11.236
44200W        W12594  27.692  32.529  14.492
44201W        W12595  37.250  29.955   1.313
44202W        W12596   8.662  10.740   4.609
44203W        W12597  21.845   5.652  13.328
44204W        W12598  43.402   5.807  11.662
44205W        W12599  41.039   9.783  12.464
44206W        W12600  37.122  19.564   0.813
44207W        W12601  28.900  36.914  11.204
44208W        W12602  24.777  11.354   3.873
44209W        W12603  34.620  42.544   3.328
44210W        W12604  33.331  43.067   1.989
44211W        W12605  14.046  31.730   3.656
44212W        W12606  16.233  21.037   2.402
44213W        W12607   1.848   8.249   4.278
44214W        W12608  32.962   2.424   4.638
44215W        W12609  38.011  23.264  12.938
44216W        W12610   8.818  28.537   3.232
44217W        W12611  31.930  23.794   2.727
44218W        W12612  28.485  39.453   0.683
44219W        W12613   8.375   3.785   3.167
44220W        W12614  15.814  19.409  11.992
44221W        W12615  39.762  26.304  14.499
44222W        W12616  40.938   4.484  12.682
44223W        W12617  20.001   6.286  10.610
44224W        W12618  24.186  16.331   0.484
44225W        W12619   6.538  26.678  14.714
44226W        W12620  13.774  20.958  11.114
44227W        W12621  19.230  18.620   2.887
44228W        W12622  12.182  35.949  11.568
44229W        W12623  39.524  26.533   1.426
44230W        W12624   7.029  12.847  11.451
44231W        W12625   8.322  36.423  13.324
44232W        W12626  32.240  16.846   2.395
44233W        W12627  34.893  17.626  13.463
44234W        W12628  36.369  11.306   0.728
44235W        W12629  14.153  42.702   3.182
44236W        W12630   7.445  43.044  12.726
44237W        W12631  21.221  26.579   4.149
44238W        W12632  11.574  21.563  12.365
44239W        W12633  17.574   8.815   5.009
44240W        W12634  34.053  10.585  12.930
44241W        W12635  14.313  21.370   2.314
44242W        W12636  37.285  41.865   2.459
44243W        W12637  37.313  21.713  11.083
44244W        W12638  25.905  12.594   3.283
44245W        W12639  26.943   3.254   0.980
44246W        W12640  25.254  12.374  11.833
44247W        W12641  34.403  11.084  14.787
44248W        W12642  19.029  30.341  12.416
44249W        W12643  19.667  21.268  12.128
44250W        W12644   8.246   6.872   4.340
44251W        W12645  22.090   9.923   2.181
44252W        W12646  11.650  21.479  13.802
44253W        W12647   5.639  12.985   1.134
44254W        W12648  17.578  20.535   2.778
44255W        W12649   7.431  18.540   0.290
44256W        W12650  12.809  26.217   2.627
44257W        W12651   5.465  35.420  11.950
44258W        W12652  15.377   4.139   1.268
44259W        W12653   8.135  36.808   3.160
44260W        W12654  44.284  18.117   2.207
44261W        W12655  37.510  27.827  13.450
44262W        W12656  11.613  29.963  13.337
44263W        W12657  22.666  30.118  10.638
44264W        W12658   0.867  29.473  14.906
44265W        W12659  30.200  25.189   1.375
44266W        W12660  15.655  34.501  13.863
44267W        W12661  11.484  22.195   4.020
44268W        W12662  26.659   3.724   4.071
44269W        W12663  19.288  33.926   0.118
44270W        W12664   4.523  42.937   9.989
44271W        W12665  12.742  23.528   0.984
44272W        W12666   3.282  29.300  12.885
44273W        W12667  17.200   7.699   4.893
44274W        W12668  26.513  14.783   3.952
44275W        W12669  25.527  23.478   4.152
44276W        W12670   6.756  24.216   2.038
44277W        W12671  40.367  13.567  11.709
44278W        W12672   2.873   5.718  11.334
44279W        W12673  18.358  44.691  13.463
44280W        W12674  11.428  28.224   0.344
44281W        W12675  36.124  27.018   2.001
44282W        W12676  32.098  44.787  14.259
44283W        W12677  10.324  17.007   2.893
44284W        W12678  25.726  27.002  13.413
44285W        W12679  39.533  32.448  12.165
44286W        W12680  18.358  37.620  10.471
44287W        W12681   7.225  32.609   1.378
44288W        W12682  39.049  14.120   0.823
44289W        W12683  20.091  39.131  10.523
44290W        W12684  21.212  17.271  13.052
44291W        W12685   4.436  27.497  13.423
44292W        W12686  19.632  43.313   1.909
44293W        W12687  10.777  25.191  12.391
44294W        W12688  11.989  16.126   2.192
44295W        W12689   0.333   9.214   2.686
44296W        W12690  16.550  15.748  11.473
44297W        W12691  21.071  25.687  13.071
44298W        W12692  37.067  22.478   0.465
44299W        W12693  34.048  22.206  12.183
44300W        W12694  11.911  28.570  13.527
44301W        W12695  32.639  28.618  11.579
44302W        W12696  22.123   7.204  12.413
44303W        W12697  18.781  19.194   4.146
44304W        W12698  33.463   7.427   1.025
44305W        W12699  12.350  41.911   2.976
44306W        W12700  14.569  24.964   1.384
44307W        W12701  21.701  28.983  10.137
44308W        W12702  43.437  23.737   4.942
44309W        W12703  16.806  19.139  11.215
44310W        W12704  31.725  25.177   1.124
44311W        W12705  14.365   9.072  11.148
44312W        W12706  39.794   8.818  10.729
44313W        W12707  26.452   9.806   1.286
44314W        W12708  14.370  19.034  11.931
44315W        W12709  24.705  28.413   1.601
44316W        W12710  37.817  12.265  12.620
44317W        W12711  42.981   4.996  12.460
44318W        W12712   1.528  39.378   2.639
44319W        W12713  34.453  18.374   4.049
44320W        W12714   7.798  18.593  10.861
44321W        W12715  25.302  27.282  11.175
44322W        W12716  44.901   6.709  11.086
44323W        W12717  39.955  39.330   1.752
44324W        W12718  32.416  37.660   1.575
44325W        W12719  38.731  35.480   0.990
44326W        W12720  24.351  24.985  14.541
44327W        W12721  37.867  13.279  13.147
44328W        W12722  15.669   3.899  10.498
44329W        W12723  13.913  33.229   4.353
44330W        W12724  11.660  40.571   1.306
44331W        W12725   7.065   7.254  12.514
44332W        W12726  39.297   7.309  14.013
44333W        W12727  43.106  38.740  11.585
44334W        W12728  21.024  28.095  11.181
44335W        W12729  35.590  32.236   1.420
44336W        W12730  30.882  39.036  10.264
44337W        W12731  12.212   5.397   0.874
44338W        W12732   5.279  22.894   0.841
44339W        W12733  33.835  19.975  12.416
44340W        W12734  35.020  41.551   1.671
44341W        W12735  37.075  27.129  11.575
44342W        W12736  40.983  26.289  12.117
44343W        W12737  39.978  20.176   3.727
44344W        W12738  42.771   4.610   0.422
44345W        W12739  23.963  35.524   2.637
44346W        W12740  13.289  23.539  13.274
44347W        W12741  31.427  21.148   2.456
44348W        W12742  41.766   0.186  12.822
44349W        W12743  18.580  30.693  10.660
44350W        W12744   8.641   9.229  13.347
44351W        W12745   7.127   0.779   1.702
44352W        W12746  33.083  27.000   1.877
44353W        W12747  34.513  13.697   0.788
44354W        W12748  11.380   9.994  13.708
44355W        W12749  38.321  35.594   1.821
44356W        W12750  11.793   8.343  11.655
44357W        W12751  38.843  20.722   2.249
44358W        W12752  32.666   1.229   0.029
44359W        W12753  17.946   9.202   2.222
44360W        W12754  44.071  44.519  13.301
44361W        W12755  15.596   7.790   2.344
44362W        W12756   6.877  32.030   0.982
44363W        W12757  10.522  25.542  11.182
44364W        W12758   2.825  42.306  11.670
44365W        W12759   0.454  21.009  13.516
44366W        W12760  24.265  27.138  12.237
44367W        W12761  40.556  26.705  14.472
44368W        W12762  17.143   9.819  10.633
44369W        W12763  21.669  37.553   1.228
44370W        W12764  31.109  36.759   2.589
44371W        W12765   2.044  11.346   4.608
44372W        W12766   3.297  23.064   4.049
44373W        W12767  35.574  12.602  14.733
44374W        W12768  40.369  13.278  13.558
44375W        W12769  35.465  43.281   0.408
44376W        W12770  20.250  21.800  12.457
44377W        W12771  33.909  22.786  11.860
44378W        W12772   7.757  12.415   0.612
44379W        W12773  30.404  21.444   3.588
44380W        W12774   9.397  19.756   4.960
44381W        W12775  38.341   1.096  11.996
44382W        W12776  13.440  22.475   3.697
44383W        W12777   2.413  41.845  12.752
44384W        W12778  17.237  26.696   1.245
44385W        W12779  27.482   6.576  10.584
44386W        W12780  37.145   0.682   3.620
44387W        W12781  41.399  43.006  12.991
44388W        W12782   5.063  41.102   3.083
44389W        W12783  24.220  27.206  14.676
44390W        W12784  44.734  19.111  13.450
44391W        W12785  29.841   3.026  13.820
44392W        W12786  16.014   4.879  11.113
44393W        W12787  23.654  44.328  12.520
44394W        W12788  24.108   8.892   2.627
44395W        W12789   9.725  37.307  14.528
44396W        W12790  44.821  35.030   0.405
44397W        W12791  25.449   1.944   3.329
44398W        W12792  15.269  17.199  10.757
44399W        W12793  13.098  35.981  11.270
44400W        W12794  21.719  12.306   2.342
44401W        W12795  33.515   8.777   3.237
44402W        W12796   1.357   5.752   4.488
44403W        W12797  40.674  27.721  14.951
44404W        W12798  40.315  35.843   2.308
44405W        W12799  27.644  33.578  13.129
44406W        W12800  34.075  28.969   0.052
44407W        W12801   2.292  28.206   2.242
44408W        W12802  25.163  44.715   2.561
44409W        W12803   5.192  30.402   4.681
44410W        W12804  12.837  39.294  11.901
44411W        W12805  41.545  42.022  11.514
44412W        W12806   6.448  16.258   2.751
44413W        W12807  23.690  35.544   3.072
44414W        W12808   1.295  32.633   1.743
44415W        W12809   1.326   5.388  13.366
44416W        W12810   8.245  31.522   0.314
44417W        W12811   4.228   6.349  14.975
44418W        W12812  24.131   7.929   0.785
44419W        W12813   2.085  22.886  11.156
44420W        W12814  33.588  15.852  12.742
44421W        W12815  11.300  29.125   0.562
44422W        W12816   9.180   6.296   4.602
44423W        W12817  11.668  16.300   0.914
44424W        W12818  23.996  25.055   4.658
44425W        W12819  25.667   7.213   2.168
44426W        W12820   5.295  24.823   3.567
44427W        W12821  18.726  35.653  14.237
44428W        W12822  19.088  30.638  10.563
44429W        W12823  18.440  42.924   4.100
44430W        W12824  40.373  28.019  13.834
44431W        W12825  19.213  28.178   5.166
44432W        W12826  44.917  13.175   4.875
44433W        W12827   3.592  24.640  12.118
44434W        W12828  42.832  19.110   4.515
44435W        W12829   6.476  34.739   1.337
44436W        W12830  33.692  17.384   3.986
44437W        W12831   6.076  35.518  13.907
44438W        W12832   6.385  25.519   0.927
44439W        W12833  24.177   3.554  14.934
44440W        W12834  28.103  15.077   3.697
44441W        W12835  40.540  22.710   2.767
44442W        W12836  12.558  30.699  12.038
44443W        W12837  11.375  31.085  13.455
44444W        W12838  24.286  38.625  11.464
44445W        W12839  41.398  35.462   0.889
44446W        W12840  26.609   7.785  11.735
44447W        W12841  33.923  18.550  11.548
44448W        W12842  20.998  20.821  12.480
44449W        W12843  25.554  39.135  11.166
44450W        W12844   2.026  34.458   2.754
44451W        W12845  26.508  22.179   3.723
44452W        W12846  15.484   3.763  10.974
44453W        W12847   5.967  26.768   0.902
44454W        W12848  13.222   8.690   4.933
44455W        W12849  24.110  27.388   4.199
44456W        W12850  14.188  27.278  12.557
44457W        W12851   1.664   7.668  13.124
44458W        W12852  13.495  30.447  12.021
44459W        W12853   4.688  40.116  11.533
44460W        W12854   8.079   5.901   2.735
44461W        W12855  27.902  29.616   0.308
44462W        W12856  18.088   2.904   1.241
44463W        W12857  39.874  30.079  11.199
44464W        W12858  43.235  35.078  12.921
44465W        W12859   0.881  37.269  10.608
44466W        W12860  26.393  26.863  12.501
44467W        W12861  43.348   8.684   0.790
44468W        W12862   7.004  26.459  13.742
44469W        W12863   1.143  33.599   0.593
44470W        W12864  15.112  15.119   2.433
44471W        W12865  21.189  41.811  10.699
44472W        W12866  16.462  44.819   3.834
44473W        W12867  19.871  35.804  12.308
44474W        W12868  12.839  11.932  13.148
44475W        W12869   2.187   4.160   3.371
44476W        W12870  24.541  43.189   0.801
44477W        W12871  19.502  11.223  14.170
44478W        W12872  38.779   5.198   3.348
44479W        W12873  33.059  25.744  11.140
44480W        W12874  26.107  43.078  13.833
44481W        W12875  29.386  19.502   0.671
44482W        W12876   3.882  32.031   1.912
44483W        W12877   5.956  34.195   0.343
44484W        W12878  13.214  44.671   3.419
44485W        W12879  14.697  22.040   3.180
44486W        W12880  15.658   6.645   0.746
44487W        W12881  13.336   8.436   4.292
44488W        W12882   6.818   6.369   0.781
44489W        W12883  35.354  27.231  11.024
44490W        W12884  38.510  23.651  13.391
44491W        W12885  23.866  34.826   0.945
44492W        W12886  27.463   5.129  14.893
44493W        W12887   6.985   4.892  13.369
44494W        W12888  24.708  38.093   0.386
44495W        W12889  27.616  25.112   3.535
44496W        W12890  10.665  19.202   4.028
44497W        W12891  36.491  27.975  13.387
44498W        W12892  25.213  11.865  14.542
44499W        W12893  37.999  18.378  10.729
44500W        W12894  35.233  29.098   3.340
44501W        W12895   2.019  22.043   0.208
44502W        W12896  40.539  43.506  12.052
44503W        W12897   4.461  39.965  14.354
44504W        W12898  32.022   8.135   0.854
44505W        W12899  29.112  19.157   0.364
44506W        W12900  19.006  25.666   0.674
44507W        W12901   9.548   5.411  14.731
44508W        W12902  22.643  39.936  11.195
44509W        W12903  13.316  25.524   2.626
44510W        W12904  18.262  15.333   1.185
44511W        W12905  27.133  26.711  10.614
44512W        W12906  23.502  20.554  12.796
44513W        W12907  31.454  26.440   2.269
44514W        W12908  23.697  33.221   0.453
44515W        W12909  19.635  18.110   0.182
44516W        W12910  39.355  28.373   4.797
44517W        W12911   9.032  41.901   1.895
44518W        W12912   4.340  19.960  10.837
44519W        W12913  12.172  11.952   1.680
44520W        W12914  37.142   7.657   2.384
44521W        W12915  15.757  18.152  13.437
44522W        W12916  16.061  15.406  14.522
44523W        W12917   2.196  29.226  11.528
44524W        W12918   6.776  20.585   4.492
44525W        W12919   5.501  25.286  13.800
44526W        W12920  19.847   5.734   4.089
44527W        W12921   1.899  31.075  13.432
44528W        W12922  40.183  18.727   1.139
44529W        W12923  40.252  34.901  14.169
44530W        W12924  30.486   8.787   0.249
44531W        W12925  17.101  41.226  11.512
44532W        W12926  24.100  25.249  12.469
44533W        W12927  37.909   8.589   0.331
44534W        W12928  27.492  21.780  10.394
44535W        W12929  13.997  32.620  14.382
44536W        W12930  41.410   2.218  14.899
44537W        W12931  16.807  18.721  11.509
44538W        W12932  15.262   4.639   2.125
44539W        W12933  21.664   7.698   2.858
44540W        W12934  31.165  33.819  13.516
44541W        W12935  29.950  23.758  11.579
44542W        W12936  19.562   5.335  10.716
44543W        W12937  26.742  28.533   0.836
44544W        W12938  33.474  29.072   2.308
44545W        W12939   9.310  25.093   2.837
44546W        W12940   6.680  36.567  10.751
44547W        W12941  37.535   9.232  13.885
44548W        W12942  36.770  39.424  12.315
44549W        W12943  37.386  44.531   3.380
44550W        W12944   4.734   1.018   5.182
44551W        W12945   5.927  31.862  11.149
44552W        W12946  19.360  16.345   3.240
44553W        W12947  34.501  33.378  12.358
44554W        W12948  37.270  14.817   0.007
44555W        W12949  41.705  27.972  11.972
44556W        W12950  35.922  19.043   3.467
44557W        W12951  26.087  23.123   0.738
44558W        W12952  21.645   0.199  11.111
44559W        W12953  43.320  28.555   3.031
44560W        W12954   9.755   1.868  12.648
44561W        W12955  10.933   0.137   1.344
44562W        W12956  13.596  15.802   0.286
44563W        W12957  37.027  34.529   1.688
44564W        W12958   1.425   9.906   0.770
44565W        W12959   9.699  29.558   2.737
44566W        W12960  21.954  26.746   3.658
44567W        W12961  25.449   3.343   2.089
44568W        W12962  21.233  39.530   5.005
44569W        W12963  27.765  18.317  14.427
44570W        W12964   4.930  15.174  12.964
44571W        W12965  42.219  21.637  12.121
44572W        W12966  33.666  16.662  13.329
44573W        W12967  26.139  42.128   1.715
44574W        W12968   7.822   2.732  10.976
44575W        W12969   7.870   4.337  13.384
44576W        W12970  42.072   6.494   4.429
44577W        W12971  33.655  32.158   1.315
44578W        W12972  10.594   3.610   1.441
44579W        W12973   0.752  26.220  10.162
44580W        W12974   8.397  30.989  13.029
44581W        W12975   4.535   5.717   3.716
44582W        W12976  18.815  12.857   0.705
44583W        W12977  38.048  38.338   3.689
44584W        W12978  11.790  33.459   2.162
44585W        W12979   2.698  39.720  11.644
44586W        W12980  12.506  32.921  11.532
44587W        W12981  11.278   6.950  12.024
44588W        W12982  44.325  12.177   1.349
44589W        W12983  33.108  10.800  14.716
44590W        W12984  42.408  12.849  10.441
44591W        W12985  33.068   5.423   1.494
44592W        W12986   5.053   6.901   3.352
44593W        W12987  29.602  34.853   3.724
44594W        W12988  35.693  17.279   0.962
44595W        W12989  10.402  32.958   2.332
44596W        W12990  39.013  20.709   0.882
44597W        W12991   6.726   5.407  12.077
44598W        W12992  22.204  16.179   0.772
44599W        W12993  11.348  42.022   0.307
44600W        W12994   9.105  16.375  13.883
44601W        W12995  20.743  24.437   0.859
44602W        W12996  30.814   4.768   0.853
44603W        W12997  13.678  13.093   1.622
44604W        W12998  16.191   4.683   3.835
44605W        W12999   1.775  26.516   2.873
44606W        W13000   3.516  30.947   2.265
44607W        W13001  18.448   6.007   4.709
44608W        W13002  26.052  30.152   2.268
44609W        W13003   4.342  21.313   1.563
44610W        W13004   6.483  25.094   0.555
44611W        W13005   1.955   1.281   3.356
44612W        W13006  13.216  23.039  13.059
44613W        W13007  11.274  20.062  11.082
44614W        W13008  39.403  22.579   0.661
44615W        W13009  14.623  13.544  13.407
44616W        W13010  41.361   1.387   4.020
44617W        W13011   2.626  28.175  13.440
44618W        W13012  43.868   6.881   4.351
44619W        W13013   2.373  30.414  12.549
44620W        W13014  27.375  14.887  12.449
44621W        W13015  37.816  33.680   4.237
44622W        W13016  21.483  31.022  10.585
44623W        W13017  36.809  13.867   2.308
44624W        W13018   1.797  12.146  13.943
44625W        W13019  38.670  13.778   4.209
44626W        W13020  31.145  15.925  11.574
44627W        W13021  33.449   0.578  13.530
44628W        W13022  24.845  21.915   1.731
44629W        W13023   4.818  40.852  12.789
44630W        W13024  33.710  30.093   2.236
44631W        W13025   8.650  37.786  13.854
44632W        W13026  21.323  42.906  13.447
44633W        W13027  15.299  34.231  11.545
44634W        W13028   7.625  35.694   0.223
44635W        W13029  36.332  11.820  12.089
44636W        W13030   4.536   6.613  12.308
44637W        W13031  24.513  21.237   3.293
44638W        W13032  16.692  42.775  14.759
44639W        W13033  36.067   3.684   2.527
44640W        W13034  29.091   1.717  11.089
44641W        W13035  37.866  23.960  14.342
44642W        W13036  43.909  35.772   1.007
44643W        W13037  21.678   3.504  10.740
44644W        W13038   1.250  35.868  13.045
44645W        W13039  29.505  11.390  10.966
44646W        W13040  16.339  23.628   2.421
44647W        W13041  37.494  34.454  13.901
44648W        W13042  18.302   2.376  12.193
44649W        W13043  36.402  25.298  11.352
44650W        W13044  11.375  29.079   4.286
44651W        W13045  44.479  18.684  13.610
44652W        W13046   1.829  10.815   4.153
44653W        W13047  39.328  25.202   3.152
44654W        W13048  33.591  25.913  11.038
44655W        W13049  25.270  36.989   4.411
44656W        W13050  40.519  43.842   1.588
44657W        W13051   0.812  36.939   4.950
44658W        W13052  42.753  13.896   1.741
44659W        W13053  32.636  30.442  13.824
44660W        W13054   4.852  34.946  10.420
44661W        W13055  14.130  42.109  11.185
44662W        W13056  23.964  23.290  12.378
44663W        W13057  13.365  18.109   0.608
44664W        W13058  31.487  32.387  11.111
44665W        W13059  23.977  31.535   0.924
44666W        W13060  14.916  27.086   1.978
44667W        W13061   1.284  28.785   0.305
44668W        W13062  18.693   6.401   2.860
44669W        W13063  27.477  39.472  12.033
44670W        W13064  18.265  34.700  13.450
44671W        W13065  42.877  39.037   1.838
44672W        W13066  19.214   9.313  10.936
44673W        W13067  27.556  37.360   0.892
44674W        W13068  19.522  13.041   2.215
44675W        W13069  27.642  35.383   2.840
44676W        W13070  41.447   9.247   2.738
44677W        W13071   4.355   2.243  12.375
44678W        W13072  18.310  12.865   0.707
44679W        W13073  14.050  14.349   1.749
44680W        W13074  10.787   6.457  11.183
44681W        W13075   0.771  19.660   4.082
44682W        W13076  34.760  42.816  11.394
44683W        W13077  24.689  10.696   1.804
44684W        W13078  24.705  21.586   2.391
44685W        W13079  21.400  21.922   1.006
44686W        W13080  36.855  20.410  11.188
44687W        W13081  32.571  19.016  12.561
44688W        W13082  28.034  26.476  14.931
44689W        W13083   0.755  33.365   2.891
44690W        W13084  12.816  23.967   0.733
44691W        W13085  35.593  27.169   2.441
44692W        W13086   1.407   7.477   4.765
44693W        W13087  39.427   6.276   1.249
44694W        W13088  42.118  34.924  14.518
44695W        W13089  41.509   6.228  14.758
44696W        W13090  35.199  15.941   2.263
44697W        W13091  41.427  38.505  11.224
44698W        W13092  31.577  30.917  11.249
44699W        W13093  11.788  11.308   2.116
44700W        W13094   8.811  28.049   3.898
44701W        W13095  26.509  12.956   3.941
44702W        W13096  10.554  39.335  14.233
44703W        W13097  19.577   9.817   4.564
44704W        W13098  27.584  30.331  12.126
44705W        W13099  22.931  28.604   2.813
44706W        W13100  20.232  43.962  14.500
44707W        W13101  16.141  14.607  13.572
44708W        W13102   7.337   7.584   0.721
44709W        W13103  13.165  14.649  13.263
44710W        W13104  25.569  11.506   0.964
44711W        W13105  43.575  41.788   3.424
44712W        W13106  32.440  44.890   1.928
44713W        W13107  10.177  11.102  12.452
44714W        W13108  39.352   1.995   2.844
44715W        W13109  35.898   1.398  14.768
44716W        W13110  42.962  23.755  13.380
44717W        W13111  24.675  14.792   1.575
44718W        W13112  40.976  26.180   0.963
44719W        W13113  33.114  41.462   0.362
44720W        W13114  21.933  30.454   1.890
44721W        W13115   0.650  17.356   1.852
44722W        W13116  37.819   9.217   1.519
44723W        W13117  41.783  37.395   1.710
44724W        W13118  23.106   7.403   3.707
44725W        W13119  38.652   1.794   3.651
44726W        W13120  28.990   0.980   3.693
44727W        W13121   6.281  27.674  13.101
44728W        W13122  32.902  21.631  11.944
44729W        W13123  12.598   7.055   0.496
44730W        W13124  36.823  16.873   4.502
44731W        W13125  13.185  19.144  12.901
44732W        W13126  40.039  16.150   2.944
44733W        W13127  33.549  16.279  10.990
44734W        W13128  15.087  22.451   4.906
44735W        W13129  14.315  40.568   2.826
44736W        W13130   7.718  15.173   0.771
44737W        W13131   4.329  30.651   3.623
44738W        W13132  17.632  41.282  11.412
44739W        W13133  12.152   3.709   1.346
44740W        W13134  26.694  13.901   3.790
44741W        W13135  24.237  18.791  13.650
44742W        W13136  19.708  35.920  10.993
44743W        W13137  42.540  40.497   3.724
44744W        W13138  43.558  27.187  13.510
44745W        W13139  27.191  29.008   1.617
44746W        W13140  42.791  17.066  10.969
44747W        W13141  43.516   4.152   0.276
44748W        W13142  30.150  29.450   2.146
44749W        W13143  31.970   8.219  13.427
44750W        W13144  42.310  22.582   1.176
44751W        W13145  34.969  43.942   4.593
44752W        W13146  17.582  25.635   3.705
44753W        W13147   2.190  29.103   0.757
44754W        W13148  12.578  36.403   4.775
44755W        W13149   1.117  42.112  11.086
44756W        W13150  34.536  11.938   1.061
44757W        W13151  40.391  34.061  14.705
44758W        W13152  16.228  43.730  11.258
44759W        W13153  20.236   1.006   3.309
44760W        W13154  10.226   4.660   4.554
44761W        W13155  36.827   6.602   3.224
44762W        W13156  35.590   5.407   4.702
44763W        W13157  41.447  21.989   1.446
44764W        W13158  23.010  14.515  14.397
44765W        W13159  21.683  26.094  10.601
44766W        W13160   6.934  14.922   4.230
44767W        W13161  10.622   9.677   2.878
44768W        W13162   6.591   8.892   4.143
44769W        W13163   0.915   3.167  13.237
44770W        W13164   5.247  24.314   4.465
44771W        W13165  13.548  38.052   1.835
44772W        W13166  13.862  10.748  12.597
44773W        W13167  21.267  20.654  12.904
44774W        W13168  31.841  23.848   0.022
44775W        W13169  34.967   4.854  12.099
44776W        W13170  15.438  10.182   4.912
44777W        W13171   9.759   5.841  12.576
44778W        W13172  36.473  20.671   2.173
44779W        W13173  36.043  28.208  12.139
44780W        W13174  40.277   6.025   1.918
44781W        W13175   3.298  10.237   1.745
44782W        W13176  13.931  25.717   3.300
44783W        W13177   0.898   7.656   0.423
44784W        W13178  30.994  11.351  11.592
44785W        W13179  42.406   5.260   0.741
44786W        W13180  29.182  25.563   0.437
44787W        W13181  39.127  24.755  12.602
44788W        W13182  42.891  25.944   3.862
44789W        W13183  32.829   4.164   1.349
44790W        W13184  23.130  21.721  12.088
44791W        W13185  28.259  30.486   9.854
44792W        W13186  21.625  21.561   4.665
44793W        W13187  44.724  28.730   0.833
44794W        W13188  17.797   8.858  14.509
44795W        W13189   3.865  32.405   0.936
44796W        W13190   3.273  10.081  12.615
44797W        W13191  24.478  33.508  12.362
44798W        W13192   5.686  32.854  13.419
44799W        W13193   2.298  25.624   3.401
44800W        W13194  31.573  12.650  14.761
44801W        W13195  12.632  12.517   3.432
44802W        W13196  42.426  41.464  11.888
44803W        W13197  28.017   9.578   0.570
44804W        W13198   2.276  30.464   1.689
44805W        W13199  30.710   2.542  11.345
44806W        W13200   5.745  43.309   1.881
44807W        W13201  14.031   9.880  11.857
44808W        W13202  30.328  22.781  13.834
44809W        W13203  39.395  27.084   1.421
44810W        W13204  15.203  15.239   3.867
44811W        W13205  23.639  40.731  10.916
44812W        W13206  29.913   3.170   4.223
44813W        W13207  44.146  36.987   2.685
44814W        W13208  24.157  28.373   4.195
44815W        W13209   3.919  36.055  14.044
44816W        W13210  30.805  10.653   1.385
44817W        W13211   9.038  38.307  14.661
44818W        W13212  11.629  19.259  11.272
44819W        W13213   2.512   1.061   0.025
44820W        W13214   9.018  42.959  14.705
44821W        W13215   0.873  30.412  10.651
44822W        W13216  42.200  13.063  12.931
44823W        W13217  28.983  43.406   2.567
44824W        W13218  34.742  41.836   3.708
44825W        W13219  44.539   9.641   0.832
44826W        W13220  28.914  16.761  12.870
44827W        W13221  38.331  41.457   2.077
44828W        W13222  10.766  33.078  13.070
44829W        W13223  42.809  38.050  14.494
44830W        W13224   4.465  27.402   4.896
44831W        W13225  11.364  11.465   0.662
44832W        W13226  10.202  26.262   4.473
44833W        W13227  17.993  14.224  14.828
44834W        W13228   1.229  31.227  14.347
44835W        W13229  24.830   0.729   3.715
44836W        W13230  43.770   6.879   0.352
44837W        W13231   2.892  30.497  10.591
44838W        W13232  15.756  36.576  13.381
44839W        W13233   3.200  12.083   4.985
44840W        W13234  35.797  16.589   3.756
44841W        W13235  13.407  22.629  10.190
44842W        W13236  23.577  14.705  13.766
44843W        W13237   3.952  44.428   0.875
44844W        W13238  15.522  23.226   0.948
44845W        W13239  29.033  40.962  12.969
44846W        W13240   6.231  41.918   1.145
44847W        W13241  37.314   1.917   3.262
44848W        W13242   0.795   9.363  12.054
44849W        W13243   7.130   4.957  11.934
44850W        W13244   8.753   0.961   0.152
44851W        W13245  20.538  15.270  13.705
44852W        W13246   7.936  17.336  11.974
44853W        W13247  43.283  22.799  14.378
44854W        W13248  21.578  33.819   1.764
44855W        W13249   1.999  19.263  10.822
44856W        W13250  10.178  44.981  11.603
44857W        W13251  17.687  33.112  10.932
44858W        W13252  39.807  20.560  10.799
44859W        W13253  13.137  39.327  12.480
44860W        W13254  23.666  43.319  10.303
44861W        W13255  41.648  35.176   0.467
44862W        W13256  31.136  21.158  10.756
44863W        W13257  23.923  23.596   0.864
44864W        W13258  41.817  21.499  13.030
44865W        W13259  23.183   4.437  11.653
44866W        W13260  24.242  43.008  11.129
44867W        W13261   9.513  26.697   1.652
44868W        W13262   1.205  39.533   4.764
44869W        W13263   7.377   6.456  10.265
44870W        W13264  23.287  12.034  11.872
44871W        W13265  41.882  14.123  14.200
44872W        W13266  29.213  32.070  14.916
44873W        W13267  25.794  16.846   1.735
44874W        W13268   9.425  21.267   2.115
44875W        W13269  28.064  32.484  11.467
44876W        W13270  20.071  25.571   1.105
44877W        W13271   7.234  23.957  14.750
44878W        W13272  15.365   4.520   0.391
44879W        W13273  32.249  27.035   3.209
44880W        W13274   0.338  39.389  13.113
44881W        W13275  13.276  34.688  11.642
44882W        W13276  18.797  31.614   1.967
44883W        W13277  20.940  14.786   4.672
44884W        W13278  20.715   7.686   0.013
44885W        W13279  34.116  37.147   4.446
44886W        W13280  29.852  17.201  14.118
44887W        W13281  35.034  38.025   4.709
44888W        W13282  28.065  31.046  11.263
44889W        W13283  10.870  32.492   2.555
44890W        W13284   4.166  21.690  10.930
44891W        W13285  28.624  15.841  14.354
44892W        W13286  37.813  11.331  11.387
44893W        W13287  20.504   2.821   3.596
44894W        W13288   1.241  17.599   1.654
44895W        W13289  31.635   8.667   3.587
44896W        W13290  23.747  27.394   0.490
44897W        W13291  33.492   5.475  11.989
44898W        W13292  12.134  25.532   4.180
44899W        W13293  39.469   4.933   4.162
44900W        W13294  12.351  29.119   1.349
44901W        W13295  33.455  27.971  11.938
44902W        W13296  42.506  42.524   4.161
44903W        W13297  34.152  31.371   1.160
44904W        W13298  12.837   2.456   4.795
44905W        W13299  19.857  19.077  14.528
44906W        W13300  23.043  13.760  12.480
44907W        W13301  30.611  27.689  13.936
44908W        W13302   4.273  14.439   5.055
44909W        W13303  38.192  17.181  13.452
44910W        W13304  10.605  18.206   1.218
44911W        W13305  39.313  22.946  14.571
44912W        W13306  25.466  22.082   3.297
44913W        W13307  10.373   0.558   2.247
44914W        W13308   2.932  18.180  12.879
44915W        W13309   5.626  26.034   3.254
44916W        W13310  14.223  26.199   4.826
44917W        W13311   1.846  36.646   3.518
44918W        W13312  24.765  27.446   0.520
44919W        W13313  14.238   4.208  12.619
44920W        W13314   3.482  16.544   3.681
44921W        W13315  36.008  23.019   2.367
44922W        W13316  44.728  43.571  14.725
44923W        W13317  38.433  23.917  13.817
44924W        W13318   7.710   1.141  13.434
44925W        W13319  30.567  12.195   3.615
44926W        W13320  33.397  16.791   0.396
44927W        W13321   4.183  38.075  12.520
44928W        W13322   0.385  12.510   0.317
44929W        W13323  22.772  15.081   0.196
44930W        W13324  12.738   5.706  10.801
44931W        W13325  20.521  17.505  11.183
44932W        W13326  43.807  36.021  12.546
44933W        W13327  10.632   5.713   0.024
44934W        W13328  20.003  17.690   4.545
44935W        W13329  42.869  30.450  10.070
44936W        W13330  14.130  41.814  12.668
44937W        W13331  44.923  20.192   4.486
44938W        W13332  34.061  11.352   4.297
44939W        W13333  35.208  12.265  14.547
44940W        W13334  33.589  13.340   2.225
44941W        W13335  34.432  34.634   4.191
44942W        W13336  24.512  20.053   4.583
44943W        W13337  44.306  16.393   2.482
44944W        W13338  16.277  11.832   4.683
44945W        W13339  12.589  16.653  14.371
44946W        W13340   7.100  26.850   1.804
44947W        W13341  13.859  25.232   1.774
44948W        W13342  23.491  12.305  14.334
44949W        W13343   1.500  30.238  14.596
44950W        W13344   4.715  15.403   0.867
44951W        W13345   0.882  29.607  13.486
44952W        W13346  18.144   2.432   0.968
44953W        W13347  26.788  29.260  10.501
44954W        W13348  33.390  43.444  10.457
44955W        W13349   3.588  16.308  14.787
44956W        W13350  36.622  15.231  11.525
44957W        W13351  19.481  35.007  14.954
44958W        W13352  25.785   3.922  12.933
44959W        W13353  42.420  25.532  13.147
44960W        W13354   5.665  38.769  12.594
44961W        W13355  29.011  25.964  11.659
44962W        W13356  29.614  42.315  12.882
44963W        W13357  28.499  36.126  12.474
44964W        W13358  14.255  23.991   0.748
44965W        W13359   2.493  37.038   4.586
44966W        W13360   1.915  23.271   2.378
44967W        W13361  18.786  34.921   0.849
44968W        W13362   8.231  43.210   1.184
44969W        W13363  12.479   6.153  14.440
44970W        W13364  27.668  29.838   1.824
44971W        W13365  32.628  14.095   1.199
44972W        W13366  19.618  25.028  14.421
44973W        W13367  13.217  39.334  13.828
44974W        W13368  35.547  20.284   2.414
44975W        W13369  27.560  17.343  11.216
44976W        W13370  32.047   7.161  12.482
44977W        W13371   0.092  35.812   3.639
44978W        W13372   8.095   5.047  14.806
44979W        W13373  44.044  43.253   0.999
44980W        W13374  26.505  12.168  10.467
44981W        W13375  22.313   4.832  13.103
44982W        W13376  30.012  23.230  14.352
44983W        W13377  26.420   4.325  12.450
44984W        W13378  23.683   2.953  11.443
44985W        W13379  26.625   6.436   2.541
44986W        W13380  14.159  22.306   1.058
44987W        W13381  38.419  17.345   0.843
44988W        W13382  10.656   8.766  10.872
44989W        W13383   6.047   7.446  11.333
44990W        W13384  28.380  20.416  12.068
44991W        W13385  26.189  37.446  10.724
44992W        W13386  24.397  30.236  12.125
44993W        W13387  29.481  33.497  11.198
44994W        W13388  17.560  10.304  14.726
44995W        W13389  12.848   8.302   4.147
44996W        W13390  35.108  30.468  14.842
44997W        W13391  19.967  42.727  11.564
44998W        W13392  26.231  22.602   3.785
44999W        W13393  11.243  23.964   3.793
45000W        W13394  11.770  16.777   4.101
45001W        W13395  12.818  12.750   4.499
45002W        W13396  44.861   6.190  13.552
45003W        W13397  25.583  22.654  13.928
45004W        W13398   3.888  26.570  11.454
45005W        W13399   1.000   1.844  13.052
45006W        W13400  18.164  22.289   3.504
45007W        W13401  15.318  35.937   2.836
45008W        W13402  12.648   3.460   2.093
45009W        W13403  24.687  40.520  10.797
45010W        W13404  26.914  20.212   2.846
45011W        W13405  16.282  26.094   3.727
45012W        W13406  36.956   2.432  11.893
45013W        W13407  21.759  31.964   3.589
45014W        W13408  12.656   4.832   2.294
45015W        W13409  33.932  22.442  11.473
45016W        W13410  44.348   5.792  11.490
45017W        W13411  10.388   5.152  11.510
45018W        W13412  41.753  17.334   0.969
45019W        W13413  40.851  25.966   2.297
45020W        W13414  31.444  27.361   2.363
45021W        W13415  16.604  24.810   1.757
45022W        W13416  35.363  11.649   1.730
45023W        W13417  20.732   3.934   4.121
45024W        W13418  44.045  28.693   2.124
45025W        W13419  38.152   2.342  12.701
45026W        W13420  29.151  19.464  11.648
45027W        W13421  24.137  10.558  11.765
45028W        W13422  21.321  43.746  10.221
45029W        W13423  42.126  12.315   3.600
45030W        W13424   3.768  27.891  14.808
45031W        W13425   7.975  26.089  11.822
45032W        W13426  25.825  34.729   4.751
45033W        W13427  27.961  21.388  14.505
45034W        W13428   1.973  24.002  10.771
45035W        W13429  40.042  11.830   3.682
45036W        W13430  36.100  34.978   0.470
45037W        W13431  38.542   3.913   3.321
45038W        W13432  26.659  14.798  11.475
45039W        W13433  21.191   1.337  12.027
45040W        W13434   2.523  24.080  13.074
45041W        W13435  29.102   3.747   4.667
45042W        W13436  25.041   1.975   1.748
45043W        W13437  20.217  38.580  13.770
45044W        W13438   6.674   8.929  12.841
45045W        W13439   9.600  33.154  11.604
45046W        W13440  11.913  34.936  13.115
45047W        W13441  23.487  24.663   1.239
45048W        W13442  39.100  21.703   1.371
45049W        W13443  22.736  37.344   9.873
45050W        W13444  16.579  14.237   4.516
45051W        W13445  33.133   6.170   2.294
45052W        W13446  33.832   2.512   4.762
45053W        W13447  20.620   4.463   2.855
45054W        W13448  25.531  22.953   4.173
45055W        W13449  39.622   9.811  11.659
45056W        W13450  10.800  41.298   2.392
45057W        W13451  44.792  35.298  10.217
45058W        W13452  11.608  34.639   2.032
45059W        W13453  32.338  44.986   4.473
45060W        W13454   0.283  25.578   1.183
45061W        W13455  21.771  21.055   1.435
45062W        W13456  31.107  29.595  14.440
45063W        W13457   1.142  44.358  12.537
45064W        W13458  21.091   4.499  14.988
45065W        W13459  38.253  33.965  13.912
45066W        W13460  36.859  22.814  11.969
45067W        W13461  20.131  17.176  11.978
45068W        W13462  30.494   0.778   1.984
45069W        W13463   0.299  44.321   1.882
45070W        W13464  13.974  13.442  12.313
45071W        W13465  37.790  44.892   4.638
45072W        W13466  11.110  16.232   1.792
45073W        W13467   1.805  28.229  13.122
45074W        W13468  24.515   5.396   2.381
45075W        W13469  40.924  10.132   4.089
45076W        W13470   9.228   6.160   0.997
45077W        W13471  32.123   9.086   0.726
45078W        W13472  18.251  33.335   1.175
45079W        W13473  17.539  36.105  14.933
45080W        W13474  27.693  18.700   3.452
45081W        W13475  14.297  10.520  11.013
45082W        W13476  18.480  40.435  13.008
45083W        W13477  29.921  43.475  14.976
45084W        W13478   6.595  39.523  12.312
45085W        W13479  21.019  42.324   3.794
45086W        W13480  44.971  18.118  12.912
45087W        W13481   8.844  19.587   0.408
45088W        W13482  42.840  36.613   0.886
45089W        W13483   1.161  21.185   2.775
45090W        W13484  25.549  38.644  10.273
45091W        W13485   9.904  19.093   0.760
45092W        W13486  18.644  28.180   2.279
45093W        W13487   2.892  36.080  14.398
45094W        W13488  37.633  27.141  10.726
45095W        W13489  42.331  13.803  10.693
45096W        W13490  19.080  30.530  14.205
45097W        W13491  11.805  42.406  11.123
45098W        W13492  32.490  24.454   3.211
45099W        W13493  23.735  19.589  14.902
45100W        W13494  33.110  13.454  12.459
45101W        W13495  17.621  22.728  11.150
45102W        W13496  37.011  41.888  13.101
45103W        W13497  42.251  38.988  10.382
45104W        W13498  44.521  37.885   1.162
45105W        W13499  36.959  28.581   3.658
45106W        W13500  24.649   9.206   4.500
45107W        W13501  29.071   4.221   0.828
45108W        W13502  39.016  37.687  12.425
45109W        W13503  38.059  40.639  13.963
45110W        W13504  11.617  16.711   3.175
45111W        W13505  43.284  17.033  11.523
45112W        W13506  43.416  18.057   1.810
45113W        W13507  37.747  34.015  14.001
45114W        W13508   7.868  29.085   1.353
45115W        W13509  41.151   8.643  14.845
45116W        W13510  24.631  22.308   4.077
45117W        W13511   8.181  28.964  12.615
45118W        W13512  22.410  36.027  13.441
45119W        W13513  35.088   9.707   2.164
45120W        W13514  26.272   1.599   3.594
45121W        W13515  21.648  10.439   3.734
45122W        W13516  44.658   6.034   3.711
45123W        W13517   5.990   5.243   3.248
45124W        W13518  22.307  25.159   2.304
45125W        W13519  10.809  19.837  13.603
45126W        W13520  26.902   8.174   0.895
45127W        W13521  40.124  12.259  14.067
45128W        W13522  42.208   4.221  12.440
45129W        W13523  13.360  39.507  13.358
45130W        W13524  19.047  36.312  12.989
45131W        W13525  28.210  40.304  13.968
45132W        W13526   3.369  44.993   0.490
45133W        W13527   1.699   3.861  12.166
45134W        W13528   3.347  41.939   3.826
45135W        W13529  13.757  29.227  13.944
45136W        W13530   7.795  33.887  14.278
45137W        W13531  27.033  28.141  11.272
45138W        W13532  33.862  37.403   4.051
45139W        W13533  30.994  22.086   0.150
45140W        W13534  12.104   0.422   2.253
45141W        W13535  31.944  32.074   3.598
45142W        W13536  30.177  40.551   0.199
45143W        W13537  38.842  39.555  14.935
45144W        W13538  10.945  27.108  13.875
45145W        W13539  40.501  37.940   0.522
45146W        W13540  29.380  23.494  14.855
45147W        W13541  42.492  10.824   3.753
45148W        W13542  30.204  28.714  13.014
45149W        W13543  20.489  30.738   2.222
45150W        W13544  21.945  34.884  13.617
45151W        W13545  33.676  41.790   2.337
45152W        W13546   5.197  39.547   3.194
45153W        W13547  28.141  26.011  13.141
45154W        W13548   5.907  34.657  11.594
45155W        W13549  34.197   3.015  12.902
45156W        W13550  10.333   0.296   1.212
45157W        W13551  35.890  43.533  13.421
45158W        W13552  44.439  19.707  10.712
45159W        W13553  28.545  44.528   3.751
45160W        W13554  42.619  31.661  13.775
45161W        W13555  13.337  25.433  13.686
45162W        W13556  22.663  15.842   0.359
45163W        W13557  25.429  12.023  12.139
45164W        W13558  36.703   7.362   3.290
45165W        W13559   5.790  27.530  12.366
45166W        W13560  13.812  23.711   2.400
45167W        W13561  39.601  18.873  11.126
45168W        W13562  14.046  29.155  14.537
45169W        W13563   5.334  27.137  10.246
45170W        W13564  15.915  29.517  12.403
45171W        W13565  29.447   8.646   0.569
45172W        W13566  22.271  41.355   3.236
45173W        W13567  39.317   4.766   4.680
45174W        W13568  32.862  32.322  11.591
45175W        W13569  30.853  13.605   4.820
45176W        W13570  37.908  18.072  10.103
45177W        W13571  13.805  43.294  10.833
45178W        W13572  12.397  26.076   2.344
45179W        W13573  41.743  21.012   1.887
45180W        W13574  35.664   2.845  12.433
45181W        W13575  15.011   2.954   2.251
45182W        W13576   2.298   7.047   0.894
45183W        W13577  42.286  29.390   0.536
45184W        W13578  37.431  36.956  13.450
45185W        W13579  41.616  25.888   4.133
45186W        W13580  20.172   2.267   0.213
45187W        W13581  15.752   9.727  10.527
45188W        W13582  28.864  41.912   4.244
45189W        W13583   2.383   1.202  11.605
45190W        W13584  12.936  24.098   2.757
45191W        W13585  39.916   8.295  14.436
45192W        W13586  22.786  29.631   3.244
45193W        W13587  43.703   4.348  14.848
45194W        W13588   6.407  30.432   1.146
45195W        W13589  42.029   4.174   1.442
45196W        W13590  36.121   0.248  12.954
45197W        W13591   0.723  27.463  12.530
45198W        W13592  19.135  33.983   2.220
45199W        W13593   3.812  27.648  10.410
45200W        W13594   4.909  23.600   3.930
45201W        W13595   6.716  12.535   2.360
45202W        W13596  25.108  29.578   4.449
45203W        W13597  31.960  23.956   3.757
45204W        W13598  26.665  37.389   3.685
45205W        W13599  36.345  27.374  14.520
45206W        W13600  25.179   3.766   4.475
45207W        W13601  18.763  36.605  12.679
45208W        W13602  22.639  23.292   4.809
45209W        W13603  26.067  24.603   0.469
45210W        W13604  34.988  22.094  11.759
45211W        W13605   4.151   7.311   1.258
45212W        W13606  22.325  21.269  13.085
45213W        W13607  38.569  32.013   0.503
45214W        W13608  43.869  25.977   5.016
45215W        W13609   1.859  12.240   0.386
45216W        W13610  16.592  22.780   1.848
45217W        W13611  29.148  33.050   1.870
45218W        W13612  35.651  34.568  12.176
45219W        W13613  24.923  28.596  11.178
45220W        W13614  15.767  10.225  10.692
45221W        W13615  32.158  22.488   0.610
45222W        W13616  31.511  40.790   3.650
45223W        W13617  28.545  34.102  12.611
45224W        W13618   8.901  13.522   3.716
45225W        W13619  37.594  43.183  14.741
45226W        W13620   5.838  14.868   3.678
45227W        W13621  28.089  36.053  12.148
45228W        W13622  13.123  13.643  13.496
45229W        W13623  34.322  31.459   4.901
45230W        W13624  22.464  18.318  13.464
45231W        W13625   9.281  35.870  12.075
45232W        W13626  16.520  22.577  10.715
45233W        W13627   0.235   5.819  13.575
45234W        W13628  40.861  35.737  11.630
45235W        W13629  19.143  43.511   1.909
45236W        W13630   4.562  43.010  14.288
45237W        W13631  42.673  34.330  10.589
45238W        W13632  44.417  35.327   2.353
45239W        W13633   2.198  12.750   4.546
45240W        W13634  35.293  10.702  10.772
45241W        W13635  24.460   9.688  13.338
45242W        W13636  36.222  30.019   1.434
45243W        W13637   3.852   2.714   1.345
45244W        W13638  29.151  13.740  11.403
45245W        W13639  25.651  43.198  14.975
45246W        W13640  40.850   9.582  12.043
45247W        W13641  24.328  10.316  14.466
45248W        W13642  18.658  27.339  14.231
45249W        W13643  26.709   1.336   0.261
45250W        W13644  28.111   0.682  11.525
45251W        W13645  20.937  16.563   0.918
45252W        W13646  38.347  27.104  12.872
45253W        W13647  44.335   9.469   4.099
45254W        W13648   2.198  38.834   1.242
45255W        W13649  34.776  28.669  11.277
45256W        W13650  39.282   3.320   2.704
45257W        W13651  22.687  15.640  10.672
45258W        W13652  32.475  32.684  14.559
45259W        W13653  21.581  33.768  10.685
45260W        W13654  31.097  40.016  14.538
45261W        W13655  37.036  22.505   2.789
45262W        W13656   7.004  13.774  10.143
45263W        W13657  29.839  28.302  12.541
45264W        W13658  17.066  41.838  10.413
45265W        W13659  28.139  25.679  12.752
45266W        W13660  32.025  42.880   2.433
45267W        W13661   2.890  28.316   1.475
45268W        W13662  21.992  14.758  12.983
45269W        W13663  35.107  42.039  11.084
45270W        W13664   8.958  21.971   1.543
45271W        W13665  27.513  11.971   1.301
45272W        W13666  32.542   9.694  14.243
45273W        W13667  22.058  16.833  13.219
45274W        W13668  10.688  21.637  13.529
45275W        W13669  21.465   8.306   3.164
45276W        W13670  22.037  22.260  12.086
45277W        W13671  27.725  41.362   0.808
45278W        W13672  37.332  24.939   3.240
45279W        W13673  43.621   5.884  14.412
45280W        W13674  44.961  10.539   3.686
45281W        W13675  37.462   9.326   4.528
45282W        W13676  34.893  39.743   1.311
45283W        W13677  21.072  11.232  12.157
45284W        W13678  12.224  10.430  14.881
45285W        W13679  11.806   9.859   2.441
45286W        W13680  35.846   1.934   1.157
45287W        W13681  32.883  40.164  10.788
45288W        W13682  36.977  10.768  12.996
45289W        W13683   1.806  35.696   3.220
45290W        W13684  21.205  32.050   1.589
45291W        W13685  14.528  16.063  11.169
45292W        W13686  23.692  40.269  14.986
45293W        W13687  44.303  26.189  11.818
45294W        W13688  25.080   4.463   2.341
45295W        W13689  43.937   0.434  12.556
45296W        W13690  34.956  37.563   0.045
45297W        W13691  20.563  12.169   0.461
45298W        W13692  16.575  30.647   1.877
45299W        W13693  43.046  15.502   0.690
45300W        W13694  33.292  22.944   5.179
45301W        W13695  13.636  15.127   2.248
45302W        W13696  35.438  16.908   1.979
45303W        W13697   4.938  15.167  12.073
45304W        W13698  11.938   0.743  12.454
45305W        W13699   4.492  43.366   4.534
45306W        W13700   1.027  13.217   2.706
45307W        W13701  19.465  20.169  11.247
45308W        W13702  35.664  43.344   3.118
45309W        W13703  25.927  42.302   4.120
45310W        W13704  20.531  17.342   0.855
45311W        W13705  42.323   7.994  11.936
45312W        W13706  28.344  19.630   2.836
45313W        W13707   5.375  26.013   1.913
45314W        W13708  24.102   0.439   3.351
45315W        W13709  11.100  19.268   1.774
45316W        W13710  26.283  16.714   1.454
45317W        W13711  16.116  35.181  11.020
45318W        W13712  25.311  13.719  12.613
45319W        W13713  43.102  44.348   4.250
45320W        W13714   5.618  37.447  14.812
45321W        W13715  40.476  12.303   2.824
45322W        W13716  10.650  37.537  14.298
45323W        W13717   1.799  21.352   2.283
45324W        W13718  15.707  22.767  11.157
45325W        W13719   8.360  29.884   4.188
45326W        W13720  26.062  33.985   0.754
45327W        W13721  34.680  24.470   4.628
45328W        W13722  19.339  24.758  11.184
45329W        W13723  22.703   1.214  11.070
45330W        W13724   5.837  43.362  14.808
45331W        W13725   0.717  29.639  11.299
45332W        W13726   5.387   1.525   4.368
45333W        W13727  41.760  15.065   1.856
45334W        W13728  40.939  16.583  14.890
45335W        W13729   4.006  12.177   4.621
45336W        W13730   6.054  22.525   1.266
45337W        W13731  43.783  27.223   3.341
45338W        W13732  30.561  28.911   4.093
45339W        W13733  12.198   6.949   4.191
45340W        W13734  30.674  13.362  13.927
45341W        W13735   3.692  34.918  14.457
45342W        W13736   9.998   5.551   1.712
45343W        W13737  22.387  38.215   4.182
45344W        W13738   8.522   0.401  14.354
45345W        W13739  25.130  41.405   4.549
45346W        W13740  17.764  24.935  14.978
45347W        W13741  26.569   9.741   3.401
45348W        W13742  15.368  36.076   0.066
45349W        W13743   7.059  13.384  11.515
45350W        W13744  18.713  42.272  12.822
45351W        W13745  30.369  16.558  12.597
45352W        W13746  19.721  25.405   2.865
45353W        W13747  43.855   2.969  13.130
45354W        W13748  10.359   7.869  11.909
45355W        W13749   5.897  32.835   1.865
45356W        W13750  14.716  14.921  10.720
45357W        W13751  10.444   0.601   0.228
45358W        W13752  32.028  23.484   4.723
45359W        W13753  11.865  14.812  14.835
45360W        W13754  43.704  26.750  11.128
45361W        W13755  10.255  35.782   3.660
45362W        W13756   9.264  35.077   1.269
45363W        W13757  23.237  43.211   1.652
45364W        W13758   9.811  10.565  11.819
45365W        W13759  30.970  27.459   4.162
45366W        W13760   9.726  37.417  11.237
45367W        W13761  22.145  14.891  11.957
45368W        W13762  44.727  42.822   2.770
45369W        W13763  23.138  36.650  11.735
45370W        W13764  30.796  38.806  11.713
45371W        W13765  16.606   9.645   4.173
45372W        W13766  32.837  33.874  11.746
45373W        W13767  24.731  12.810   4.550
45374W        W13768  12.716  16.565   0.709
45375W        W13769  22.829  19.465  11.943
45376W        W13770   9.347  16.540  11.045
45377W        W13771   2.516  32.998   4.204
45378W        W13772  30.600  30.906   4.635
45379W        W13773  19.745  16.884   2.819
45380W        W13774  36.044  21.649   2.937
45381W        W13775  31.557   7.972  10.848
45382W        W13776  15.817   1.469  11.341
45383W        W13777  14.827  43.998  13.298
45384W        W13778  35.663  34.158   3.287
45385W        W13779  26.606  41.135   4.374
45386W        W13780  40.328  43.330  13.458
45387W        W13781  26.691  42.625  14.425
45388W        W13782  17.044  26.193  13.523
45389W        W13783   7.186  34.830  14.788
45390W        W13784  18.767  34.599  12.914
45391W        W13785  22.663  32.981  10.200
45392W        W13786  34.595  33.491   2.901
45393W        W13787   7.129  11.842   1.793
45394W        W13788  25.752  42.342   2.802
45395W        W13789   5.351  42.472   4.208
45396W        W13790  17.752  28.091  11.467
45397W        W13791  14.792  33.981   1.380
45398W        W13792  31.614  42.430  10.749
45399W        W13793  35.830  17.742   3.167
45400W        W13794   5.745  36.855   2.023
45401W        W13795  37.172  41.526   4.765
45402W        W13796  34.285  17.657  14.855
45403W        W13797  24.112   9.776   0.812
45404W        W13798  22.046  33.797  14.959
45405W        W13799  14.777  43.381  11.570
45406W        W13800  35.622  22.207   4.075
45407W        W13801  37.613   2.835   1.349
45408W        W13802  12.256  27.647  13.876
45409W        W13803  24.984  17.132  14.179
45410W        W13804  40.342  15.599   4.131
45411W        W13805  28.057  42.926  10.701
45412W        W13806   4.764  30.910  11.166
45413W        W13807   7.493  31.911   1.645
45414W        W13808   1.177   3.974  12.838
45415W        W13809   9.430   2.512  13.307
45416W        W13810  31.108   7.244   2.282
45417W        W13811  25.737  19.568   0.931
45418W        W13812  40.384   1.469  14.382
45419W        W13813   8.807  10.325  13.543
45420W        W13814   9.448  22.209   1.489
45421W        W13815  21.077  36.359  13.903
45422W        W13816  22.152  23.771  13.557
45423W        W13817  24.071  30.905   0.258
45424W        W13818  28.413  21.316   4.137
45425W        W13819  12.222  44.831   0.404
45426W        W13820  18.609  19.565   1.860
45427W        W13821  12.147   1.832  14.754
45428W        W13822  28.548  41.163  10.856
45429W        W13823  40.100  18.593  14.379
45430W        W13824   5.158  20.084   1.641
45431W        W13825  38.137   9.195   0.130
45432W        W13826  34.443  16.810  11.885
45433W        W13827   5.991   1.526   1.199
45434W        W13828  34.946  13.770   4.031
45435W        W13829  18.998  24.997  10.785
45436W        W13830  12.568  30.719   2.015
45437W        W13831  44.444  14.292   1.284
45438W        W13832  42.977  33.068   1.417
45439W        W13833   4.275   5.856  13.637
45440W        W13834   1.334  23.051   0.756
45441W        W13835  29.883  28.669   0.849
45442W        W13836  15.830  22.973  13.072
45443W        W13837   4.509  10.482   1.292
45444W        W13838  35.985  33.189  11.658
45445W        W13839   8.202  32.911   2.698
45446W        W13840  36.638  44.462   2.843
45447W        W13841  23.666  31.715  13.953
45448W        W13842  16.577  15.213  13.042
45449W        W13843  24.574   6.174  14.486
45450W        W13844  39.430   1.179   4.035
45451W        W13845   7.861   6.537   1.366
45452W        W13846  30.216   2.293   1.668
45453W        W13847   6.201   3.171   0.400
45454W        W13848  31.917   4.215  11.388
45455W        W13849  29.930  24.159  12.214
45456W        W13850  40.677  16.778  11.673
45457W        W13851  15.384   4.243  13.899
45458W        W13852  33.363  19.787   1.138
45459W        W13853   0.206  20.108   0.701
45460W        W13854   7.230  41.781   4.934
45461W        W13855  19.368  25.160   3.630
45462W        W13856   0.887  28.654  11.885
45463W        W13857   2.875   7.003  13.186
45464W        W13858  16.879   2.580  13.367
45465W        W13859  44.978  20.712  12.414
45466W        W13860  32.438  20.032  14.603
45467W        W13861   1.760   5.686  13.458
45468W        W13862  27.303  20.774   0.917
45469W        W13863  26.423   2.371  10.793
45470W        W13864  15.658  27.022  11.503
45471W        W13865  11.377  44.312   0.677
45472W        W13866   3.670  39.861  14.984
45473W        W13867   4.222  19.089  13.441
45474W        W13868  20.047   7.336  12.616
45475W        W13869   3.385  15.446   4.485
45476W        W13870  17.711  34.578  11.212
45477W        W13871  33.678  28.163   2.313
45478W        W13872  41.823  39.971  12.370
45479W        W13873   0.414  28.504   4.657
45480W        W13874  20.310  31.105  11.647
45481W        W13875  42.363   1.029  13.741
45482W        W13876  14.368  11.426  14.493
45483W        W13877  29.995  35.169   0.363
45484W        W13878   5.792   0.924   2.016
45485W        W13879  27.897  43.338   1.696
45486W        W13880  40.553  29.466  13.127
45487W        W13881  33.718  34.090  13.724
45488W        W13882  28.665  11.121  12.981
45489W        W13883  33.114  44.448  12.062
45490W        W13884  14.292   1.736   0.059
45491W        W13885  21.164  11.366   1.922
45492W        W13886  36.981  23.137   2.193
45493W        W13887   6.219  42.897  13.906
45494W        W13888  31.893   9.706  12.700
45495W        W13889  14.545   9.922  11.814
45496W        W13890  33.069  34.302  11.616
45497W        W13891  25.530   8.433   2.050
45498W        W13892  32.178  35.918   1.410
45499W        W13893   3.446  32.370  12.989
45500W        W13894  40.747  19.322   4.707
45501W        W13895  39.813   0.779  13.154
45502W        W13896  43.271   1.361   2.331
45503W        W13897   9.872  20.637  10.973
45504W        W13898  13.200   7.349  10.942
45505W        W13899  43.020   5.049  13.916
45506W        W13900  25.578   2.740   1.462
45507W        W13901  25.679  27.615   2.741
45508W        W13902  28.878   9.024  13.999
45509W        W13903  37.834  21.945   1.797
45510W        W13904   8.764  19.863  12.549
45511W        W13905   4.823  24.905   9.686
45512W        W13906  40.366  25.875  14.820
45513W        W13907  26.087  27.148   2.429
45514W        W13908  22.936  38.300  13.388
45515W        W13909  16.275  35.598  10.713
45516W        W13910  18.658  31.220  11.270
45517W        W13911  16.184  20.396  12.155
45518W        W13912  24.222  42.792   9.834
45519W        W13913   3.875  27.439   4.123
45520W        W13914  16.641  20.723  10.987
45521W        W13915  30.623  30.927   3.678
45522W        W13916  20.098  42.288   3.697
45523W        W13917  27.233   6.891  14.004
45524W        W13918  34.670   2.475   3.786
45525W        W13919   2.374  39.120  13.019
45526W        W13920  21.711  19.988   0.424
45527W        W13921  25.440   4.903  14.467
45528W        W13922  27.928  38.870  10.678
45529W        W13923  14.816  19.408   3.676
45530W        W13924  30.466  44.100  11.230
45531W        W13925  11.731  10.665  13.998
45532W        W13926  11.316  38.315  13.049
45533W        W13927   1.897  38.740   4.736
45534W        W13928  13.206  19.246   2.169
45535W        W13929  33.223  44.291  10.747
45536W        W13930  36.775   7.736   2.024
45537W        W13931  36.603  20.740  14.826
45538W        W13932  19.063  13.800   3.108
45539W        W13933  38.789  20.725   1.395
45540W        W13934  18.976  13.771   2.606
45541W        W13935  25.715  43.347  12.560
45542W        W13936  10.663  29.678  11.239
45543W        W13937   1.556  29.547   2.187
45544W        W13938  43.520  29.894  11.641
45545W        W13939  30.699  40.346   0.288
45546W        W13940   3.761  39.016   1.848
45547W        W13941  19.214  14.260  12.199
45548W        W13942  44.261  26.753  11.202
45549W        W13943   0.859  19.900  13.037
45550W        W13944  14.736  36.018   1.294
45551W        W13945  27.485   3.244  13.849
45552W        W13946   3.812   8.394  10.576
45553W        W13947  11.883  43.004  10.184
45554W        W13948  41.854  43.886   2.464
45555W        W13949   0.053   4.673   0.048
45556W        W13950   1.793  14.344  12.492
45557W        W13951  30.997  30.782  11.652
45558W        W13952  15.064  39.949  10.384
45559W        W13953  28.932  19.683   0.465
45560W        W13954  22.075  40.812   3.809
45561W        W13955   2.027  11.147  11.144
45562W        W13956  24.545  41.707  12.185
45563W        W13957  32.980  10.765  10.715
45564W        W13958   1.969   4.839  12.048
45565W        W13959  16.052  36.892  11.014
45566W        W13960  44.018  39.768  14.834
45567W        W13961  28.682  10.078  14.515
45568W        W13962  32.817  44.860  11.982
45569W        W13963  11.089  42.863  11.873
45570W        W13964  36.525  25.949   3.104
45571W        W13965   4.525  12.666  11.319
45572W        W13966  18.712   2.226  12.479
45573W        W13967   1.968   1.803  10.999
45574W        W13968  42.419  36.318  14.367
45575W        W13969  38.954  13.611  11.094
45576W        W13970  36.151  42.500   3.488
45577W        W13971  10.206  20.504   3.237
45578W        W13972  23.516  35.834  12.622
45579W        W13973   4.074  31.028  10.348
45580W        W13974  42.462   2.714   2.937
45581W        W13975  19.220  44.340   3.823
45582W        W13976  14.965  30.587  10.861
45583W        W13977  43.301  35.177   3.676
45584W        W13978  23.570  31.503  10.733
45585W        W13979  12.709  10.176  13.835
45586W        W13980  29.744  34.498   2.833
45587W        W13981  34.821   6.095  10.831
45588W        W13982  13.997  33.867   3.757
45589W        W13983  16.612  14.439   0.025
45590W        W13984   7.923  40.834   4.092
45591W        W13985   4.727  38.381   1.198
45592W        W13986  40.574  34.534  11.734
45593W        W13987  11.242  38.708  13.899
45594W        W13988  34.610   7.215  12.978
45595W        W13989  29.623  31.543   2.843
45596W        W13990  32.641  29.961  11.696
45597W        W13991  32.898   0.716  12.838
45598W        W13992  12.248  24.158  14.918
45599W        W13993  27.602  12.192  14.443
45600W        W13994  13.133  26.355   3.347
45601W        W13995   5.917  25.964   3.707
45602W        W13996  16.156  26.654  12.092
45603W        W13997   8.903  25.172   3.128
45604W        W13998  24.719   1.403  13.817
45605W        W13999  36.561  13.556  14.249
45606W        W14000  32.864  28.190  13.398
45607W        W14001  42.823  15.214   4.825
45608W        W14002   6.930  13.840   3.616
45609W        W14003  38.973  27.547  10.508
45610W        W14004  38.138  12.394   0.279
45611W        W14005  30.586  22.567   4.619
45612W        W14006  22.671  35.960  14.193
45613W        W14007  38.484   1.070  11.149
45614W        W14008  38.501  10.654   4.158
45615W        W14009  20.561   2.942   1.218
45616W        W14010  17.569  39.400  13.845
45617W        W14011  30.027  23.639  10.593
45618W        W14012  40.382  21.860  14.855
45619W        W14013  13.491  33.994   3.680
45620W        W14014   0.126   8.986   3.100
45621W        W14015  30.643  14.329  14.829
45622W        W14016  27.945  19.255   2.854
45623W        W14017  38.233  36.367   3.244
45624W        W14018  44.406  40.405   3.234
45625W        W14019   2.829   3.352   3.334
45626W        W14020   2.198  36.229  11.588
45627W        W14021  39.514   9.296   1.260
45628W        W14022  37.292  18.991   1.191
45629W        W14023  30.959  18.072   4.417
45630W        W14024  33.953  19.238  14.039
45631W        W14025  15.217  34.633  11.915
45632W        W14026  34.177  22.255  13.014
45633W        W14027  22.617   5.927  10.777
45634W        W14028  16.861  13.557   2.427
45635W        W14029  13.419  30.125   0.218
45636W        W14030  13.399  20.677   2.646
45637W        W14031   1.244  39.033   3.159
45638W        W14032   5.341  11.355  12.923
45639W        W14033  28.694  43.981  11.886
45640W        W14034   7.241  35.921  13.832
45641W        W14035  38.522  43.725   1.311
45642W        W14036  42.884   7.738  13.930
45643W        W14037  29.711  17.697  10.582
45644W        W14038  36.632  44.654  13.036
45645W        W14039   6.703  14.175  10.245
45646W        W14040  40.529  30.887  13.109
45647W        W14041  22.287  33.368   0.116
45648W        W14042  23.517  44.424   2.159
45649W        W14043  19.202  26.028   0.143
45650W        W14044  19.218  34.914  14.509
45651W        W14045  28.995   1.326  12.188
45652W        W14046  17.426  41.475   2.598
45653W        W14047  12.353  39.345   2.764
45654W        W14048  43.313  27.127  14.363
45655W        W14049  15.706  34.677  13.049
45656W        W14050  39.260  25.542  12.098
45657W        W14051  15.384  20.487  12.572
45658W        W14052   0.368   0.319   4.829
45659W        W14053  14.079  39.228  10.627
45660W        W14054  11.921  18.109   0.421
45661W        W14055  14.741  25.106   0.480
45662W        W14056  15.519  28.623  11.011
45663W        W14057  40.849   1.364   4.211
45664W        W14058  17.101  12.732   3.063
45665W        W14059  30.137  13.108  14.527
45666W        W14060  17.164  30.561   3.360
45667W        W14061  30.861   0.903   2.739
45668W        W14062  27.501  18.772  11.608
45669W        W14063  20.983  18.640  11.543
45670W        W14064  23.808  13.117   3.550
45671W        W14065   9.654   7.734  12.525
45672W        W14066  20.617   8.673   0.228
45673W        W14067  26.090  41.238   1.626
45674W        W14068  26.640   1.651  14.087
45675W        W14069  10.717   3.480  13.008
45676W        W14070  42.388  10.594  14.802
45677W        W14071   6.689  11.165   2.172
45678W        W14072   2.232  26.294   2.782
45679W        W14073  34.333  30.924  14.950
45680W        W14074  23.738  19.192  12.432
45681W        W14075  18.869  21.241   4.140
45682W        W14076   7.762  43.426  14.953
45683W        W14077   6.148   5.131  13.604
45684W        W14078   6.727  26.549   0.244
45685W        W14079  28.275  14.143  14.385
45686W        W14080  36.720  39.274  11.055
45687W        W14081   5.441   1.774  10.435
45688W        W14082  39.899  20.638   4.145
45689W        W14083   1.155   5.733  12.025
45690W        W14084  36.593  31.902   2.195
45691W        W14085  39.170  18.437  11.532
45692W        W14086   4.859  23.500  13.789
45693W        W14087   1.727  36.016  12.190
45694W        W14088  43.338  12.841  10.735
45695W        W14089  31.123   9.659  11.123
45696W        W14090  13.305  35.446   2.314
45697W        W14091  28.680  16.310   1.282
45698W        W14092  19.603   6.304   2.922
45699W        W14093  23.027  18.071   3.134
45700W        W14094  16.984  10.172   1.002
45701W        W14095  18.725  12.838  11.171
45702W        W14096   3.735  13.594   0.692
45703W        W14097  32.631  21.658  12.403
45704W        W14098  32.618  43.727   0.560
45705W        W14099  20.317  24.564  10.966
45706W        W14100   8.007  11.870  12.126
45707W        W14101   4.849   1.707   2.778
45708W        W14102  19.825  15.657   0.698
45709W        W14103  29.574  35.527  14.873
45710W        W14104  29.588  25.517  12.854
45711W        W14105  18.009  27.444  11.412
45712W        W14106  19.493   9.745  12.083
45713W        W14107  36.196  28.045   2.805
45714W        W14108  22.505  26.931   4.616
45715W        W14109   0.851  32.908  13.976
45716W        W14110  11.223  36.570  11.849
45717W        W14111  11.595   6.425  11.651
45718W        W14112  29.704  14.261  13.788
45719W        W14113  38.740  42.821  14.761
45720W        W14114  35.499  14.827   1.769
45721W        W14115  23.053  23.197  11.802
45722W        W14116   5.859   2.555  11.041
45723W        W14117  42.459  24.299   4.584
45724W        W14118  31.929   5.194  12.945
45725W        W14119   1.927  22.426  13.853
45726W        W14120  15.136  20.984  13.947
45727W        W14121  32.108  22.117  10.552
45728W        W14122   0.417  19.568   2.759
45729W        W14123  41.472  26.949   0.851
45730W        W14124   4.210  28.929   1.311
45731W        W14125  19.790  33.045  12.380
45732W        W14126  39.451  29.660  12.284
45733W        W14127  18.401  24.975  13.510
45734W        W14128  41.932  14.177  10.685
45735W        W14129  33.016   7.888  10.635
45736W        W14130   9.872  19.513   1.704
45737W        W14131   5.731  34.626   0.205
45738W        W14132  21.004  27.060  12.539
45739W        W14133   2.336  31.820   2.198
45740W        W14134  20.628  10.096  12.174
45741W        W14135  14.952   5.105   3.679
45742W        W14136  34.076  43.170  14.494
45743W        W14137  18.046  31.779   4.116
45744W        W14138  43.296  13.228  11.110
45745W        W14139  15.216  12.218  13.993
45746W        W14140   1.024   2.406  12.561
45747W        W14141  42.589  44.979   0.199
45748W        W14142  11.593  23.345   2.295
45749W        W14143  44.373  33.171   0.284
45750W        W14144  39.048  19.991  13.451
45751W        W14145  10.706  44.268   4.841
45752W        W14146  27.244  21.490  14.973
45753W        W14147   7.673  29.185  14.862
45754W        W14148  12.671   0.018  11.518
45755W        W14149   3.778  33.659   0.454
45756W        W14150  35.447  12.060   2.402
45757W        W14151  23.889  28.059   3.204
45758W        W14152  12.084  41.151   2.347
45759W        W14153  35.683  29.203   3.516
45760W        W14154   0.850  39.270  13.877
45761W        W14155  12.562  37.907  11.486
45762W        W14156  36.890   6.406  10.592
45763W        W14157   0.880  31.936   2.746
45764W        W14158  44.516  24.685  12.794
45765W        W14159  33.897  23.490   0.258
45766W        W14160   6.526  16.935  13.351
45767W        W14161  14.120  10.286  12.620
45768W        W14162   5.877  28.543   4.623
45769W        W14163  28.050  20.037   2.425
45770W        W14164  35.051  26.468   9.963
45771W        W14165  31.620  14.359  12.923
45772W        W14166  15.516  41.883  13.429
45773W        W14167  40.369  10.178  14.852
45774W        W14168   8.942   6.793   2.165
45775W        W14169  38.492  24.744   1.484
45776W        W14170   3.523  29.448   4.754
45777W        W14171  35.894  33.388   1.552
45778W        W14172  40.230  20.336   2.876
45779W        W14173  21.257   9.170   4.084
45780W        W14174  18.205  27.072  14.067
45781W        W14175  42.560  39.190  10.762
45782W        W14176   2.083  34.896  12.427
45783W        W14177  39.802   0.831   4.638
45784W        W14178  44.265  31.483   2.295
45785W        W14179  25.141  41.421   3.678
45786W        W14180  16.872  37.815  11.589
45787W        W14181  16.320   8.985   3.602
45788W        W14182  28.236  32.957   3.570
45789W        W14183  33.655   6.633   0.889
45790W        W14184   9.613   0.931   4.165
45791W        W14185  22.481  43.086  12.085
45792W        W14186  40.377  44.495  13.690
45793W        W14187  33.401  30.014  10.435
45794W        W14188  16.281  18.110  11.984
45795W        W14189  24.238  13.652   1.263
45796W        W14190  20.092  20.441   4.666
45797W        W14191  37.738  37.957   0.066
45798W        W14192  44.488  12.371   0.278
45799W        W14193  11.609  12.222  12.522
45800W        W14194   7.451  26.031  10.669
45801W        W14195  29.646   8.125  10.661
45802W        W14196  43.820  15.014   0.751
45803W        W14197  10.222  23.218  12.344
45804W        W14198  27.281  36.074  11.473
45805W        W14199  22.388   3.517   2.353
45806W        W14200  33.653  16.776   4.859
45807W        W14201  24.287  19.744   1.412
45808W        W14202  19.733  43.501  10.711
45809W        W14203  27.724  31.504   4.217
45810W        W14204  14.659   9.847  11.258
45811W        W14205  13.069  44.864   4.383
45812W        W14206  29.457  43.298   4.591
45813W        W14207  37.579  38.016  10.698
45814W        W14208  34.767  37.153   2.269
45815W        W14209  11.157  10.919  11.181
45816W        W14210  43.485  40.484  11.635
45817W        W14211  24.642  41.690   0.650
45818W        W14212  34.399  13.149  11.465
45819W        W14213  32.416  15.721   0.011
45820W        W14214   8.915  26.451  13.922
45821W        W14215  27.170  31.959   4.533
45822W        W14216  29.944  22.423  11.617
45823W        W14217  25.655   6.927   0.259
45824W        W14218  43.280   3.387   1.812
45825W        W14219   1.941  31.863   0.651
45826W        W14220   6.411  12.811   0.498
45827W        W14221  34.921  28.255  12.214
45828W        W14222  32.614  15.600  12.619
45829W        W14223  24.731  25.251  13.746
45830W        W14224  17.655   9.668   3.942
45831W        W14225  22.113  26.578   2.102
45832W        W14226  38.868  10.192  10.112
45833W        W14227  30.812  36.509   0.252
45834W        W14228  36.029  22.762  14.060
45835W        W14229  23.281  13.327   2.338
45836W        W14230  25.036  42.462   4.638
45837W        W14231   4.726  21.103  11.607
45838W        W14232  31.834  15.765  12.295
45839W        W14233   9.781  14.551  12.233
45840W        W14234  36.842  24.016   3.798
45841W        W14235  44.358  11.074  13.112
45842W        W14236   7.722   6.286   0.489
45843W        W14237   7.251  37.147  12.479
45844W        W14238   1.367   2.357   4.619
45845W        W14239   7.154  39.440  11.121
45846W        W14240  16.121  40.652   4.580
45847W        W14241  42.511  10.663   0.803
45848W        W14242  42.719  30.157  11.236
45849W        W14243  42.470  28.157   2.294
45850W        W14244  12.291  41.923   2.474
45851W        W14245   7.592   0.821   1.908
45852W        W14246  31.383   1.977   2.251
45853W        W14247  13.257  36.980  10.436
45854W        W14248  12.916  29.046  10.610
45855W        W14249  22.489  20.022   1.768
45856W        W14250  24.428  35.432  10.736
45857W        W14251  34.328  16.734  14.731
45858W        W14252   8.675  20.294   0.697
45859W        W14253  39.832  14.403   5.169
45860W        W14254  31.587  38.890  11.912
45861W        W14255  35.020  43.949   3.573
45862W        W14256   8.005  31.448   0.928
45863W        W14257  26.112  13.138   4.231
45864W        W14258  17.771  30.448   0.854
45865W        W14259   0.380  30.393  12.954
45866W        W14260  13.095   3.401   1.826
45867W        W14261  20.071  37.384  11.943
45868W        W14262  42.363  14.638  14.826
45869W        W14263  18.238   1.507   4.628
45870W        W14264  21.875  24.561  14.251
45871W        W14265  13.915   5.041  10.705
45872W        W14266  34.064  43.471   4.032
45873W        W14267  42.195  24.767  12.801
45874W        W14268   7.728  12.382  11.980
45875W        W14269  32.637  29.023  14.350
45876W        W14270  32.066   1.103   0.784
45877W        W14271   9.282  40.335  12.162
45878W        W14272  39.742  36.377   1.729
45879W        W14273  13.132   5.951  10.052
45880W        W14274  26.629  34.207   0.349
45881W        W14275  40.973   7.061  13.481
45882W        W14276  14.593  33.518   1.468
45883W        W14277  34.511  31.886   4.627
45884W        W14278   0.894  44.889   3.320
45885W        W14279  33.389   7.655  11.913
45886W        W14280  14.680  16.604   0.974
45887W        W14281  44.422  14.408  14.222
45888W        W14282  13.325   4.998   0.514
45889W        W14283  23.655  11.832  14.450
45890W        W14284  17.567  28.204   5.038
45891W        W14285  38.364  11.770  12.988
45892W        W14286  40.748  37.364   3.268
45893W        W14287  26.064  17.912  14.820
45894W        W14288  31.539  29.082   3.310
45895W        W14289  16.961   4.832   2.252
45896W        W14290  41.510  34.702   2.554
45897W        W14291  37.622  39.074  11.546
45898W        W14292  32.030  16.280   4.217
45899W        W14293   4.247  23.471  14.337
45900W        W14294  12.366   4.489   4.221
45901W        W14295  44.284  39.803   2.271
45902W        W14296  25.009   0.810   0.281
45903W        W14297  15.259   6.079   4.555
45904W        W14298  33.838   9.172  12.461
45905W        W14299  25.317  10.432  14.229
45906W        W14300  24.809  22.736  11.647
45907W        W14301  42.712  27.028   2.838
45908W        W14302  39.780  31.536   0.385
45909W        W14303   1.931  33.766  11.206
45910W        W14304   2.640  22.568   1.268
45911W        W14305  24.109  30.863  12.053
45912W        W14306   2.592   3.959  10.641
45913W        W14307  18.820   3.660   1.949
45914W        W14308   4.945  25.000   0.807
45915W        W14309  11.674  39.787  11.098
45916W        W14310  41.073  28.187   1.932
45917W        W14311  34.652  33.843  13.486
45918W        W14312  39.943  26.869   0.699
45919W        W14313  33.219  41.852   1.406
45920W        W14314  31.562  11.774  13.654
45921W        W14315  25.495  17.664   4.477
45922W        W14316  18.967  15.454  12.970
45923W        W14317  21.945  35.511   3.161
45924W        W14318  26.453  28.595   4.533
45925W        W14319  15.895  43.476  10.510
45926W        W14320  11.259  38.887  11.821
45927W        W14321  20.684  25.026  14.606
45928W        W14322  26.532  39.083  12.020
45929W        W14323  35.193   5.855   1.472
45930W        W14324  21.782  23.405  12.288
45931W        W14325  39.426  12.628  12.145
45932W        W14326   2.479  30.414   3.747
45933W        W14327  24.914  13.128  14.850
45934W        W14328  37.855  21.484   3.275
45935W        W14329  10.250  41.105   3.699
45936W        W14330   1.271  31.439  13.529
45937W        W14331  28.127  25.365  12.322
45938W        W14332  22.494  25.252   4.052
45939W        W14333  35.360  43.053   0.907
45940W        W14334  27.793   2.235  13.560
45941W        W14335  33.561  13.388  11.725
45942W        W14336   8.600  26.992  11.831
45943W        W14337   4.430  27.427  12.638
45944W        W14338  16.802   5.678   0.355
45945W        W14339  30.479  34.399   0.196
45946W        W14340  42.477  33.730  14.444
45947W        W14341  18.732  23.002  10.705
45948W        W14342   4.327   0.728   4.191
45949W        W14343  16.854  30.755  11.094
45950W        W14344  42.704  18.496  11.097
45951W        W14345  44.766  42.523   4.974
45952W        W14346  15.247  20.966  12.429
45953W        W14347   2.182   6.175   1.159
45954W        W14348  23.221  16.778  10.580
45955W        W14349  34.824   5.976  12.535
45956W        W14350  30.922   6.630  10.765
45957W        W14351  22.677  28.138   0.082
45958W        W14352   2.730  35.950  12.060
45959W        W14353  16.697  10.541   1.201
45960W        W14354  39.947  38.054  11.092
45961W        W14355  19.809  23.611  13.479
45962W        W14356  25.993  39.664   0.794
45963W        W14357   0.815  24.718  14.472
45964W        W14358  24.430  32.590   2.005
45965W        W14359   8.645   6.317  10.643
45966W        W14360  35.088  20.046  13.940
45967W        W14361  44.112  13.738   5.049
45968W        W14362  38.834  40.044   3.143
45969W        W14363  34.828  11.014   0.047
45970W        W14364   4.721   4.960  12.403
45971W        W14365  42.966   7.350  14.271
45972W        W14366  22.228  42.432   0.910
45973W        W14367  32.802   6.679  14.396
45974W        W14368   9.868  10.833   1.691
45975W        W14369  43.292  18.151   0.849
45976W        W14370  27.051  41.984  12.714
45977W        W14371  36.876  21.418  11.165
45978W        W14372  35.494  41.056  13.492
45979W        W14373  11.732  36.890   2.349
45980W        W14374   3.424   6.543   2.662
45981W        W14375  41.996  15.018  12.809
45982W        W14376  14.482   8.375  13.881
45983W        W14377  35.845   4.786   3.557
45984W        W14378  10.549  11.716   3.078
45985W        W14379  36.826  34.309   2.135
45986W        W14380   0.869  23.102   2.690
45987W        W14381  16.153  32.510  12.473
45988W        W14382  11.856  16.579  13.960
45989W        W14383  37.000  12.256   3.328
45990W        W14384  24.563  42.015   3.977
45991W        W14385  40.537  40.375   0.868
45992W        W14386  14.726  17.242   4.625
45993W        W14387   6.932  28.283  12.936
45994W        W14388   0.652  17.588  10.946
45995W        W14389  35.048  28.496   0.699
45996W        W14390  30.659  18.213   4.823
45997W        W14391  28.670  22.559  14.557
45998W        W14392  31.485  10.665   4.649
45999W        W14393  43.409   3.476   4.118
46000W        W14394  27.300  42.271   4.072
46001W        W14395  27.520  26.399  14.888
46002W        W14396  26.691   1.874  12.277
46003W        W14397   2.721   0.695  10.787
46004W        W14398   5.861   6.849  10.246
46005W        W14399  18.005  21.481  11.182
46006W        W14400   3.700   8.785  10.889
46007W        W14401   3.512  32.063  12.557
46008W        W14402  44.843  14.131   0.989
46009W        W14403  27.043  35.903   3.373
46010W        W14404  40.825  10.764  14.303
46011W        W14405  25.718  44.785   1.031
46012W        W14406  35.924   8.820  14.529
46013W        W14407   4.806  11.343   0.839
46014W        W14408  36.828  37.896  11.604
46015W        W14409  13.181  10.010  13.164
46016W        W14410  15.394  31.020   4.274
46017W        W14411  32.321  37.378  12.861
46018W        W14412  35.529  33.287  11.150
46019W        W14413   3.431  14.107   1.854
46020W        W14414  33.613  29.859  13.140
46021W        W14415   9.358  30.963   0.748
46022W        W14416  30.600  41.981  12.088
46023W        W14417  23.167  34.870   3.128
46024W        W14418  14.461  21.073  10.594
46025W        W14419  43.826  17.996  13.125
46026W        W14420  35.791  40.964   0.246
46027W        W14421  40.402   9.407   2.786
46028W        W14422   1.829  16.128  14.907
46029W        W14423  14.495  32.534  14.458
46030W        W14424   5.922   1.291  11.107
46031W        W14425  22.558  24.130   4.260
46032W        W14426  40.153  18.239  11.699
46033W        W14427  11.347  43.840  11.135
46034W        W14428  28.628  24.427   4.106
46035W        W14429  27.209  14.565   4.849
46036W        W14430   2.262  13.711  12.474
46037W        W14431  10.462   2.451  14.726
46038W        W14432  20.249  43.520  10.760
46039W        W14433   9.664  23.152  12.869
46040W        W14434  10.144  39.060  11.247
46041W        W14435  32.693  16.077   0.275
46042W        W14436  42.264  40.428   0.462
46043W        W14437  15.322   8.718  14.477
46044W        W14438  30.623  23.454  12.129
46045W        W14439  26.020  21.528   2.094
46046W        W14440  42.904  27.436   1.022
46047W        W14441  13.595  41.769  12.747
46048W        W14442  25.172  32.101   3.104
46049W        W14443  43.332  39.274  14.392
46050W        W14444  28.389  17.054   3.351
46051W        W14445  12.246  21.615   0.203
46052W        W14446   5.562  40.948   3.168
46053W        W14447  29.601  15.523   4.233
46054W        W14448  38.132   3.330  13.369
46055W        W14449  21.728  42.271   1.665
46056W        W14450  22.090  31.616   0.132
46057W        W14451  14.964  21.230  12.786
46058W        W14452  15.738  21.835  14.986
46059W        W14453   2.460  10.383   3.275
46060W        W14454  29.159  13.236   3.783
46061W        W14455  24.069  22.011   3.903
46062W        W14456  19.781  18.054   1.897
46063W        W14457  21.119   5.890   3.835
46064W        W14458  20.034  17.985   0.467
46065W        W14459   8.761  23.926  13.297
46066W        W14460   0.258  21.295   1.272
46067W        W14461  29.426  28.136   0.288
46068W        W14462  38.692  38.984   4.525
46069W        W14463  41.348  11.581   0.561
46070W        W14464   1.872  18.212   1.026
46071W        W14465  11.870  29.624   0.926
46072W        W14466  18.426   9.182   4.801
46073W        W14467  26.445  32.353   4.766
46074W        W14468   4.712  22.718   4.992
46075W        W14469  28.722  27.682   2.869
46076W        W14470   3.530  13.057  10.662
46077W        W14471  22.523   3.131  13.397
46078W        W14472  34.904  35.020   4.192
46079W        W14473   6.764  16.123   3.144
46080W        W14474  40.464  39.352  13.894
46081W        W14475  20.491  38.818   0.919
46082W        W14476   7.902  17.175   3.230
46083W        W14477  38.076  22.593   3.416
46084W        W14478  12.558   5.993   4.223
46085W        W14479  30.692  13.792  12.967
46086W        W14480  13.851  13.562   3.892
46087W        W14481   3.258  38.954   3.200
46088W        W14482   8.737  40.345   4.586
46089W        W14483  38.473  39.987   4.654
46090W        W14484  29.037  31.109   1.315
46091W        W14485  13.988  43.956  11.983
46092W        W14486  11.359   6.218   3.530
46093W        W14487  33.141   7.727  13.693
46094W        W14488  31.158  22.793  12.432
46095W        W14489  23.076  17.233  11.243
46096W        W14490  12.674   6.949   3.282
46097W        W14491  19.974  42.598   1.311
46098W        W14492   5.203  43.725   3.813
46099W        W14493  38.428  11.260   3.073
46100W        W14494  19.557  31.975  12.488
46101W        W14495  22.671  33.864   1.167
46102W        W14496  44.623  22.318   4.282
46103W        W14497  33.637   1.216  14.730
46104W        W14498   9.367  42.297   1.991
46105W        W14499   6.495  36.498   4.234
46106W        W14500  23.286   2.764  14.557
46107W        W14501   3.270  42.306   2.112
46108W        W14502  18.082  30.596   4.544
46109W        W14503  19.938  35.460  11.163
46110W        W14504  14.441  16.369  12.652
46111W        W14505  12.100   5.212   3.046
46112W        W14506   0.925  12.290   2.734
46113W        W14507  41.626  36.049   0.480
46114W        W14508  11.868  16.788  10.153
46115W        W14509  11.741  38.505  12.238
46116W        W14510  24.260   5.682  11.961
46117W        W14511  44.785  19.797  13.806
46118W        W14512   1.806  24.066   2.732
46119W        W14513   3.143  37.948   1.143
46120W        W14514  23.959  21.106  13.839
46121W        W14515   6.027   9.357  14.229
46122W        W14516  32.181  22.273   2.653
46123W        W14517  13.140  44.419   2.634
46124W        W14518  26.480  22.733  13.478
46125W        W14519  34.026  23.729   4.279
46126W        W14520  39.003  13.771   2.164
46127W        W14521  40.802   1.642   1.269
46128W        W14522  36.061  18.464  11.389
46129W        W14523  39.824  32.825  12.576
46130W        W14524  18.126  21.264   3.630
46131W        W14525  14.786   8.875  11.612
46132W        W14526  29.382  27.469  13.609
46133W        W14527  20.961   1.197  12.952
46134W        W14528  41.974  14.266  11.696
46135W        W14529  10.558   1.870  10.824
46136W        W14530  31.637  27.692  11.565
46137W        W14531  24.578  32.431   3.706
46138W        W14532  10.771  42.939  10.735
46139W        W14533  37.001  17.358  12.014
46140W        W14534  20.546  21.233   0.451
46141W        W14535  24.979  34.543   3.079
46142W        W14536  42.289  32.735  14.406
46143W        W14537  12.332   2.289   2.173
46144W        W14538  36.099  39.512   1.194
46145W        W14539  22.388  16.997   3.740
46146W        W14540  21.425   8.564   9.948
46147W        W14541  21.185  33.332  12.741
46148W        W14542   4.941   1.832  14.886
46149W        W14543   0.218   2.424   1.678
46150W        W14544  36.701   5.733   0.357
46151W        W14545  32.086  15.538  10.390
46152W        W14546  24.969  14.049  14.860
46153W        W14547  39.382  38.420  11.433
46154W        W14548  21.379   5.290  11.179
46155W        W14549  11.980  18.740   2.297
46156W        W14550   3.934  30.221   2.832
46157W        W14551  26.485  21.960   3.251
46158W        W14552  29.126  39.238  11.664
46159W        W14553  12.254  26.070   3.872
46160W        W14554  43.086  23.154   0.267
46161W        W14555   1.878  43.572   1.247
46162W        W14556  34.026  13.681  11.055
46163W        W14557  28.402  26.033   2.640
46164W        W14558  43.764  12.322  13.003
46165W        W14559  14.874  36.254   0.016
46166W        W14560  19.124   8.726  10.518
46167W        W14561   1.408  21.247  11.211
46168W        W14562   1.009  39.949   4.251
46169W        W14563  12.762   3.743   3.244
46170W        W14564  25.149  32.935   1.007
46171W        W14565   0.234  44.484  11.944
46172W        W14566  13.048  14.110   1.724
46173W        W14567   7.818  38.827   4.736
46174W        W14568   8.209  12.173   0.533
46175W        W14569  36.155  31.261   0.232
46176W        W14570  22.961  16.027  11.513
46177W        W14571  10.446  18.518  13.399
46178W        W14572   1.909   1.964   0.919
46179W        W14573  29.295  21.039  11.036
46180W        W14574  32.892  33.030   3.684
46181W        W14575  26.308  27.090  11.976
46182W        W14576  43.676  41.353   3.680
46183W        W14577  41.291   6.729   0.452
46184W        W14578  16.360   2.479  10.736
46185W        W14579  16.762  23.304  11.180
46186W        W14580   3.350  24.041  11.463
46187W        W14581  24.513   5.427   1.861
46188W        W14582   6.227  23.990  11.397
46189W        W14583  13.369  43.295   0.084
46190W        W14584  34.520  44.755   1.717
46191W        W14585  44.562   3.292  12.115
46192W        W14586  13.865   2.760  11.638
46193W        W14587  28.434  17.170   4.857
46194W        W14588   2.220  24.234   1.601
46195W        W14589  30.174   4.810   0.074
46196W        W14590  40.727  11.806  14.557
46197W        W14591  39.666  24.419   0.960
46198W        W14592   7.603  44.352  10.838
46199W        W14593   6.444  36.103  13.456
46200W        W14594  29.031   8.417   0.348
46201W        W14595  33.018  17.052   2.110
46202W        W14596  11.684  32.140   1.362
46203W        W14597  41.016  10.116   3.155
46204W        W14598  35.124  31.388  13.910
46205W        W14599  15.732  22.600   4.495
46206W        W14600  18.057  37.825  14.739
46207W        W14601   2.472  12.068   2.680
46208W        W14602  13.520  15.303  11.905
46209W        W14603  28.061  15.533   3.408
46210W        W14604   9.884  21.204   2.344
46211W        W14605  29.909  24.671  12.001
46212W        W14606  33.919  23.922   2.149
46213W        W14607  38.358  27.946   3.443
46214W        W14608  44.995  34.053  14.335
46215W        W14609  24.308  39.828   1.992
46216W        W14610  36.608  30.045   0.912
46217W        W14611   1.486  12.883   1.089
46218W        W14612  24.220  13.652   4.986
46219W        W14613   4.159   5.937   4.012
46220W        W14614  33.807   3.262  11.487
46221W        W14615   6.526  14.454   2.902
46222W        W14616   5.661  42.773   1.304
46223W        W14617  10.856  27.306   1.340
46224W        W14618  36.351  30.013  13.906
46225W        W14619  20.615  31.323  11.150
46226W        W14620  31.923  17.826   3.625
46227W        W14621  24.489   9.782  12.445
46228W        W14622  25.278  34.609   0.358
46229W        W14623  42.793  32.878  14.517
46230W        W14624  25.713  31.110   2.341
46231W        W14625  22.477  42.865   2.357
46232W        W14626  43.802  43.336  14.086
46233W        W14627  33.514   4.675   3.209
46234W        W14628  35.381  23.572  12.190
46235W        W14629  26.089  39.547   1.773
46236W        W14630  38.981  13.332  14.031
46237W        W14631  34.618  17.535   3.620
46238W        W14632  17.165  43.469  10.430
46239W        W14633  12.817   5.211   1.949
46240W        W14634  26.218  14.217  12.030
46241W        W14635   6.553   2.504   1.649
46242W        W14636   3.693  12.669  14.313
46243W        W14637   3.854  24.124  11.612
46244W        W14638  31.194   8.368   3.583
46245W        W14639   3.522   7.741   1.208
46246W        W14640  40.545  25.030   4.015
46247W        W14641  37.851  23.977   1.927
46248W        W14642  31.396  43.873  13.486
46249W        W14643   4.171   9.233  13.052
46250W        W14644   1.462  38.604  13.927
46251W        W14645  31.035  35.603  10.653
46252W        W14646  40.104  14.119   0.833
46253W        W14647  26.599  43.887  13.863
46254W        W14648  40.887  29.758   2.328
46255W        W14649  21.712  29.325  12.879
46256W        W14650  27.107  19.538  12.993
46257W        W14651  44.018  13.367   2.015
46258W        W14652  36.379   5.881   2.622
46259W        W14653  26.911   8.605   2.632
46260W        W14654  42.374  16.026   2.339
46261W        W14655  34.452  21.107  14.405
46262W        W14656  20.097  21.170   1.506
46263W        W14657  38.305  23.532   4.191
46264W        W14658  41.999   4.291   3.157
46265W        W14659  39.295  24.793   0.851
46266W        W14660  34.405  40.171  13.498
46267W        W14661  31.947   2.794  10.853
46268W        W14662  32.219  11.963   1.881
46269W        W14663  23.692  20.559   2.286
46270W        W14664   5.541   3.828  13.701
46271W        W14665  18.314  12.137   2.305
46272W        W14666  39.633  28.497   3.401
46273W        W14667  37.989  33.347  14.559
46274W        W14668  42.354  24.939   4.636
46275W        W14669  20.500  16.835  13.400
46276W        W14670  25.016  31.487  14.442
46277W        W14671  19.728  27.197  12.124
46278W        W14672  42.889  25.541  12.050
46279W        W14673   9.743   3.527   0.895
46280W        W14674  15.391  30.115  12.656
46281W        W14675  17.772  27.856  13.087
46282W        W14676  10.732  42.591   4.310
46283W        W14677  33.890  30.513   0.868
46284W        W14678  40.228   2.157  12.634
46285W        W14679  20.531  26.108   3.590
46286W        W14680   7.510  38.397   4.768
46287W        W14681  19.009  31.669   0.279
46288W        W14682  31.425  25.116   2.600
46289W        W14683  43.843  44.433  12.438
46290W        W14684  12.630  43.505  12.459
46291W        W14685  21.344  17.831   2.669
46292W        W14686  25.684  41.912   0.734
46293W        W14687  14.216  35.467  10.802
46294W        W14688  35.352  38.404  12.453
46295W        W14689  20.921   4.419   3.276
46296W        W14690  42.280  44.709  12.110
46297W        W14691   7.667  32.874  12.786
46298W        W14692   4.522  41.904   4.591
46299W        W14693  39.445  23.762  11.518
46300W        W14694  17.971  40.559  12.047
46301W        W14695  17.826  20.685   5.160
46302W        W14696  25.501   3.623   0.880
46303W        W14697  10.175  21.777   5.029
46304W        W14698   8.963  18.834   2.386
46305W        W14699  42.598  10.363   1.308
46306W        W14700   3.223  38.376   2.311
46307W        W14701  35.632  13.825   2.727
46308W        W14702   4.035  41.013   4.565
46309W        W14703  28.254  31.776   1.154
46310W        W14704  13.790  22.515  12.476
46311W        W14705  29.400  38.844  13.816
46312W        W14706   2.962   9.339   4.933
46313W        W14707   3.449  23.300  13.873
46314W        W14708   9.796  38.469  12.854
46315W        W14709   0.783  12.643   5.023
46316W        W14710  16.595  37.378  11.544
46317W        W14711   6.831  22.914   4.610
46318W        W14712  43.008  42.075   2.141
46319W        W14713  25.107   1.989  14.931
46320W        W14714  37.858  13.596  12.447
46321W        W14715  34.886   7.275  12.471
46322W        W14716  44.043  18.498  13.979
46323W        W14717   1.793  36.475   0.241
46324W        W14718  16.448  40.085   1.793
46325W        W14719  38.580   0.026  12.033
46326W        W14720   4.150   2.860   2.325
46327W        W14721  23.025  22.516  11.009
46328W        W14722  29.643  33.714   4.427
46329W        W14723  25.925  36.453   3.264
46330W        W14724  39.538  20.307   1.723
46331W        W14725  44.491  27.467  11.963
46332W        W14726  16.411   2.705   4.978
46333W        W14727  10.302  26.519   0.842
46334W        W14728  31.619   7.438  14.759
46335W        W14729  40.934  35.847  14.773
46336W        W14730   6.173  16.487  11.426
46337W        W14731  18.609   9.794   1.262
46338W        W14732   4.221  15.754   1.249
46339W        W14733  39.651  18.935   2.338
46340W        W14734  24.321  40.748  12.306
46341W        W14735  22.497  41.553  13.129
46342W        W14736   7.410  22.688   1.940
46343W        W14737  41.874  16.578  10.724
46344W        W14738  44.153  31.884  12.048
46345W        W14739  30.659  39.364   0.261
46346W        W14740  29.964  37.935  11.661
46347W        W14741  26.467   5.334  12.446
46348W        W14742   0.087  39.002   4.624
46349W        W14743  22.737  36.849   1.041
46350W        W14744  28.388   7.243   3.523
46351W        W14745  19.329   4.769  12.402
46352W        W14746  22.900  25.003  12.865
46353W        W14747  29.927  19.854   4.418
46354W        W14748  41.419  41.262   2.783
46355W        W14749  18.378  12.047   3.431
46356W        W14750  21.559  30.947   2.289
46357W        W14751  26.861  30.598   3.175
46358W        W14752  24.532  24.180  11.408
46359W        W14753   3.199  24.738   0.986
46360W        W14754  43.410  27.575   3.268
46361W        W14755   4.700  35.969  13.416
46362W        W14756  40.299  32.689   3.727
46363W        W14757  19.029  25.719  11.147
46364W        W14758   9.921  29.730   4.193
46365W        W14759  22.984  28.105  10.665
46366W        W14760  21.077  11.225  13.089
46367W        W14761  37.344  23.916   3.198
46368W        W14762  38.688  18.306   4.063
46369W        W14763  39.939  21.051  14.013
46370W        W14764  38.242  20.154  13.028
46371W        W14765  36.207  18.119   0.032
46372W        W14766  10.341  21.067   2.119
46373W        W14767  15.595  14.284   4.936
46374W        W14768  33.353  11.070   0.177
46375W        W14769   7.929   3.462  12.634
46376W        W14770  22.751   4.512  13.994
46377W        W14771   7.839  44.837   3.226
46378W        W14772   7.679  25.603   2.852
46379W        W14773  33.213  26.453  12.862
46380W        W14774  12.126  26.195  11.664
46381W        W14775  10.187   5.506   4.179
46382W        W14776  28.879   9.683  11.122
46383W        W14777  44.526  38.534  10.350
46384W        W14778  15.288  33.342  13.503
46385W        W14779  30.065  26.478   1.864
46386W        W14780  25.803  42.319  14.034
46387W        W14781   3.290  18.823  11.567
46388W        W14782  21.506  18.597   3.840
46389W        W14783  40.433   7.305   0.928
46390W        W14784  33.183  12.723  13.909
46391W        W14785   3.685   7.254   1.457
46392W        W14786   0.044  23.732  10.786
46393W        W14787   4.306  13.331  11.975
46394W        W14788  41.248  17.181   0.430
46395W        W14789  17.250   7.836  14.940
46396W        W14790  26.752  27.830   1.928
46397W        W14791  31.111  27.071  12.645
46398W        W14792  22.594   7.725   0.389
46399W        W14793   0.517  36.405  11.947
46400W        W14794  38.531  22.965  14.075
46401W        W14795  31.996   4.344  11.889
46402W        W14796  39.604  44.476  14.012
46403W        W14797  18.510  10.921  13.951
46404W        W14798  10.351  22.095  10.298
46405W        W14799  35.001  16.488  10.808
46406W        W14800  20.592   7.594  11.947
46407W        W14801   5.842  12.182   0.818
46408W        W14802  10.156  33.881  14.568
46409W        W14803   6.266   5.191  12.030
46410W        W14804  15.118  18.110  14.753
46411W        W14805  19.833  37.300  11.494
46412W        W14806  36.896  29.603  12.459
46413W        W14807  21.461   2.510  10.651
46414W        W14808  17.307  12.870  12.891
46415W        W14809  40.532   6.912   1.600
46416W        W14810   0.205  44.804  11.081
46417W        W14811  27.508   9.280  13.896
46418W        W14812  14.235   6.570   0.154
46419W        W14813   1.732  12.146  12.585
46420W        W14814  19.734   7.421   0.204
46421W        W14815  26.814  40.477  13.820
46422W        W14816  22.572  37.858   2.212
46423W        W14817  31.686  32.960  12.915
46424W        W14818  28.513  30.286   0.836
46425W        W14819  17.781  26.047  11.310
46426W        W14820  16.296  17.825  11.548
46427W        W14821   8.229  31.823  10.564
46428W        W14822  41.558  31.354   1.698
46429W        W14823   4.496  28.099  12.124
46430W        W14824  19.186  43.178  13.953
46431W        W14825  39.704  36.609   3.179
46432W        W14826  11.387  15.808   1.656
46433W        W14827  34.457  26.417  13.554
46434W        W14828   5.967  35.137   3.119
46435W        W14829  23.978  33.500  13.292
46436W        W14830  35.376   4.922  13.745
46437W        W14831   8.919   7.979  14.425
46438W        W14832  15.541   4.915  14.002
46439W        W14833  20.692  38.154   2.243
46440W        W14834  21.427  30.912   3.407
46441W        W14835   0.473  37.961  14.987
46442W        W14836  24.659  44.266  13.987
46443W        W14837   0.193  23.094   3.304
46444W        W14838  18.321  44.770   2.867
46445W        W14839   1.389  34.381  12.902
46446W        W14840   7.293   7.004   5.278
46447W        W14841   6.598  44.842   1.689
46448W        W14842   7.146   1.731  12.045
46449W        W14843  26.246  43.943  11.988
46450W        W14844  27.992  16.323   4.558
46451W        W14845  22.245   8.136   4.820
46452W        W14846  16.313  18.601   4.181
46453W        W14847   1.602   3.939   0.952
46454W        W14848  20.646  22.173  14.307
46455W        W14849  29.033  37.753   1.759
46456W        W14850  19.547  40.356  10.703
46457W        W14851  28.563  29.664   4.122
46458W        W14852  36.802  28.650   4.178
46459W        W14853   2.331  14.643   3.822
46460W        W14854  16.735  29.094  12.831
46461W        W14855   1.498  26.343  14.008
46462W        W14856  34.001  10.309  10.653
46463W        W14857  21.729  34.877  12.498
46464W        W14858  34.734  12.638  11.974
46465W        W14859  29.429  39.778   3.936
46466W        W14860  24.538  41.367   2.873
46467W        W14861  24.102   0.759   2.414
46468W        W14862  23.543   4.309   0.717
46469W        W14863  31.731  23.111  13.201
46470W        W14864  40.017  44.748   3.525
46471W        W14865  11.395  31.034   2.857
46472W        W14866  15.439  14.041   2.086
46473W        W14867  42.466  15.214   2.859
46474W        W14868   3.659   6.387   1.385
46475W        W14869  37.437  43.996   2.765
46476W        W14870  33.180   2.398  14.214
46477W        W14871  12.866  20.608   4.553
46478W        W14872  17.634  34.485   4.254
46479W        W14873  20.174   4.354  14.391
46480W        W14874  11.397  26.137   3.355
46481W        W14875  41.041  23.036   0.299
46482W        W14876  29.634  13.575  11.521
46483W        W14877  15.795  33.570   4.447
46484W        W14878  35.171   3.681   1.633
46485W        W14879   4.066  17.605  11.663
46486W        W14880  24.744  39.897  12.037
46487W        W14881  17.075  31.649   4.832
46488W        W14882  35.478   2.319   4.308
46489W        W14883  33.915   6.300   1.247
46490W        W14884   9.162  20.082   1.909
46491W        W14885  31.966  17.781   2.577
46492W        W14886   0.224  44.801   3.834
46493W        W14887  27.613  25.947  11.351
46494W        W14888   2.034  16.516  10.657
46495W        W14889  23.728  42.396  11.265
46496W        W14890  39.818  44.620   2.659
46497W        W14891  43.181  12.104  11.360
46498W        W14892   6.316  29.629  13.072
46499W        W14893  41.093  13.386  10.599
46500W        W14894  13.046  40.855  11.288
46501W        W14895  12.059   5.370   9.739
46502W        W14896  27.156   0.209  12.945
46503W        W14897  17.307   6.819  10.997
46504W        W14898   4.310   4.423  10.728
46505W        W14899  21.417  36.861  10.670
46506W        W14900  43.234  26.539  13.529
46507W        W14901   2.522  15.164  14.728
46508W        W14902   1.032  29.464   3.703
46509W        W14903  40.827  11.200   4.030
46510W        W14904  35.900   3.366  14.371
46511W        W14905   2.479  11.216  11.963
46512W        W14906  19.653  19.818  13.828
46513W        W14907  33.016   3.829   1.726
46514W        W14908  10.639  36.111  11.033
46515W        W14909   7.154  40.615   2.778
46516W        W14910  33.952  43.905   3.728
46517W        W14911  19.347  31.941   2.353
46518W        W14912   9.416  16.596  11.561
46519W        W14913  37.130   1.554   1.280
46520W        W14914  22.525  43.885   1.822
46521W        W14915  15.095  23.690  13.072
46522W        W14916  39.830  17.147   2.729
46523W        W14917  10.854   6.930  13.389
46524W        W14918  41.485  18.786  13.907
46525W        W14919   4.904  34.142   0.244
46526W        W14920  13.269   1.778  11.993
46527W        W14921  21.483  10.323   0.693
46528W        W14922  10.838   4.324  14.297
46529W        W14923  13.179  43.452   2.034
46530W        W14924  42.942  17.908  10.413
46531W        W14925  26.513   4.695   3.337
46532W        W14926  14.084  43.310   4.544
46533W        W14927  28.553  22.499  10.119
46534W        W14928   8.910  16.289   0.375
46535W        W14929  18.153  43.887  13.565
46536W        W14930   6.403  22.707   0.900
46537W        W14931   9.150  19.041   1.951
46538W        W14932  25.756  38.468   3.231
46539W        W14933  20.357   0.566  11.206
46540W        W14934  21.219  38.662  13.554
46541W        W14935  32.071   4.254  13.153
46542W        W14936  27.581  40.304  12.620
46543W        W14937   5.601  14.393  13.452
46544W        W14938  41.350   9.673  10.736
46545W        W14939  28.616  35.942   4.778
46546W        W14940  36.283  19.955  14.323
46547W        W14941  21.249  13.791   1.308
46548W        W14942  20.395   5.261  14.861
46549W        W14943  39.043   6.497  10.460
46550W        W14944  21.393  19.732  12.762
46551W        W14945  21.814  11.284  14.721
46552W        W14946  10.768  18.253   2.921
46553W        W14947  26.688  43.007   2.367
46554W        W14948  13.750   6.182   1.749
46555W        W14949  41.134  31.041   1.570
46556W        W14950   3.413  16.655   5.005
46557W        W14951  14.701  11.293  14.096
46558W        W14952   7.302  10.935   1.907
46559W        W14953  44.111   2.314  12.994
46560W        W14954  14.120  13.170  14.485
46561W        W14955  42.913   6.161   1.868
46562W        W14956  34.503  29.543   2.822
46563W        W14957  44.360  31.782   3.677
46564W        W14958  25.180   3.508  11.230
46565W        W14959   1.756  22.104   0.996
46566W        W14960  34.922  26.808   5.174
46567W        W14961  44.428  32.982   2.547
46568W        W14962  33.134  22.039  13.074
46569W        W14963  26.665  19.269  12.943
46570W        W14964  25.785   4.746   2.375
46571W        W14965   1.553  40.373   2.782
46572W        W14966   0.537  18.208   2.105
46573W        W14967  43.290   2.924  11.267
46574W        W14968  24.266  24.118  14.456
46575W        W14969   1.371  11.282  12.964
46576W        W14970  20.215   4.101  11.058
46577W        W14971   3.449  22.733   1.843
46578W        W14972   2.301  40.040   4.900
46579W        W14973  20.613  31.331  13.431
46580W        W14974  30.622  27.581  11.664
46581W        W14975  21.154   9.629   2.691
46582W        W14976   3.514  11.258  10.776
46583W        W14977  22.216  35.314  14.437
46584W        W14978  38.453  27.458  14.987
46585W        W14979  17.487  12.498   2.299
46586W        W14980  22.858   8.832   1.003
46587W        W14981   2.088   0.231  11.547
46588W        W14982  40.964  22.150  11.918
46589W        W14983  37.048  10.925   3.275
46590W        W14984  34.385  27.429  11.267
46591W        W14985  39.067   3.810   2.752
46592W        W14986  32.814   6.829   2.619
46593W        W14987  28.948   0.377   4.086
46594W        W14988  37.581  23.184   3.715
46595W        W14989  31.239  21.310  11.224
46596W        W14990   8.963  32.688   3.133
46597W        W14991  40.826  21.677   4.656
46598W        W14992  36.381   1.276  13.389
46599W        W14993  29.640  36.009  13.849
46600W        W14994   4.178  10.900   1.370
46601W        W14995  15.250  17.569  13.953
46602W        W14996  40.170   5.384  11.576
46603W        W14997  27.689  21.418   3.313
46604W        W14998  32.014  35.165  13.852
46605W        W14999  31.973  39.250   4.412
46606W        W15000  38.345  35.576  11.087
46607W        W15001  17.816  42.213   5.532
46608W        W15002   8.287  13.322  11.113
46609W        W15003   8.604  26.255  11.193
46610W        W15004  13.658  23.337  12.925
46611W        W15005  33.794  40.437   1.837
46612W        W15006  28.106  41.963   4.569
46613W        W15007  11.424  35.148   3.217
46614W        W15008  37.058  33.107  10.676
46615W        W15009   5.464  32.191  14.803
46616W        W15010  41.186   1.300   1.270
46617W        W15011  14.362  26.977  11.444
46618W        W15012  23.192  31.009   4.658
46619W        W15013  13.052   4.865  11.621
46620W        W15014  33.455  34.912  12.649
46621W        W15015  31.124  29.991  13.163
46622W        W15016  14.708  14.754  13.545
46623W        W15017  44.686  28.524   1.694
46624W        W15018  34.702  33.333   3.803
46625W        W15019  26.571  36.330  13.574
46626W        W15020  25.847  16.580  11.475
46627W        W15021  41.809  36.963  14.890
46628W        W15022  27.168  40.948  13.116
46629W        W15023  36.857  19.675   4.487
46630W        W15024   0.981   1.290  14.466
46631W        W15025  39.777  43.480  11.656
46632W        W15026   8.561   2.774   0.742
46633W        W15027  26.553  27.386   0.880
46634W        W15028  31.647  14.984   0.358
46635W        W15029  40.869  41.742  14.062
46636W        W15030   4.787  23.343  12.012
46637W        W15031  33.918  14.109  13.004
46638W        W15032  27.073  32.124   1.778
46639W        W15033  37.923   4.796   0.569
46640W        W15034  37.093  29.141   4.422
46641W        W15035  25.027  42.466   3.271
46642W        W15036  17.193  24.153   0.310
46643W        W15037  39.400   0.918  14.400
46644W        W15038  17.535  42.170   5.089
46645W        W15039  25.053  10.437   4.152
46646W        W15040  39.227  37.602   4.997
46647W        W15041   5.479  11.084   4.136
46648W        W15042  16.967  17.342  14.294
46649W        W15043   6.385  14.066  12.487
46650W        W15044  31.846  43.482   4.109
46651W        W15045   4.992  29.174  11.340
46652W        W15046   3.614  27.455   3.629
46653W        W15047  30.512  21.066   2.455
46654W        W15048  20.380  23.121   1.385
46655W        W15049  13.546  29.918  14.443
46656W        W15050  26.661  12.804   4.420
46657W        W15051  14.115  32.514   4.341
46658W        W15052   5.494  24.008  12.252
46659W        W15053  22.558  24.614  12.939
46660W        W15054  26.666  36.163   4.629
46661W        W15055   5.662  29.549  12.048
46662W        W15056  32.006  13.377  14.114
46663W        W15057  41.507  11.236   4.490
46664W        W15058  11.745  17.558  12.660
46665W        W15059  25.721  13.735  11.554
46666W        W15060  39.373  23.107  10.395
46667W        W15061  37.526  44.561  12.886
46668W        W15062  40.331  39.863   3.569
46669W        W15063  23.802   2.785  14.511
46670W        W15064  16.472  37.411   2.245
46671W        W15065  25.492  28.630  12.570
46672W        W15066  35.925  14.133  14.431
46673W        W15067  13.404  16.338   4.102
46674W        W15068  30.443  35.930   4.087
46675W        W15069   1.465   7.668   2.672
46676W        W15070  22.579  36.391   3.682
46677W        W15071  27.111  12.775   4.141
46678W        W15072   8.257  37.950  14.799
46679W        W15073  40.860  25.682   0.938
46680W        W15074  10.555  13.148  13.992
46681W        W15075  30.839  39.940   1.906
46682W        W15076   5.659   5.926  14.898
46683W        W15077  27.041  34.023  14.545
46684W        W15078  42.416  33.362  10.611
46685W        W15079  25.964   6.787   2.053
46686W        W15080  24.106   0.228  11.658
46687W        W15081  42.134   5.175   4.408
46688W        W15082   5.789  13.169   1.635
46689W        W15083  40.835   3.321  11.183
46690W        W15084  39.924   3.364   1.937
46691W        W15085  33.336   4.898  14.432
46692W        W15086  40.504   9.043  14.397
46693W        W15087  27.917   1.167  11.284
46694W        W15088  30.653  19.141   3.816
46695W        W15089  12.191  29.691   1.348
46696W        W15090  37.810  28.327  12.465
46697W        W15091  34.937  42.333  11.492
46698W        W15092  24.937   9.258  12.010
46699W        W15093  28.895  29.045   1.679
46700W        W15094   4.836  21.240  10.612
46701W        W15095  35.967  24.676   3.269
46702W        W15096  38.833  42.935  12.490
46703W        W15097   9.767  21.319   3.284
46704W        W15098  30.451  34.861  11.252
46705W        W15099  34.328  17.935   3.102
46706W        W15100   6.176  36.482   0.428
46707W        W15101  42.848   8.191   2.370
46708W        W15102  35.027  13.397   1.810
46709W        W15103  31.810  34.409  14.808
46710W        W15104  22.056  16.605   3.886
46711W        W15105  38.556  28.688  10.734
46712W        W15106  10.259  18.194   3.765
46713W        W15107  41.765  37.727   1.298
46714W        W15108  22.180   4.438   1.848
46715W        W15109  20.796  13.854  15.000
46716W        W15110  11.803  35.581   1.865
46717W        W15111   5.568   6.361   1.060
46718W        W15112  19.359  16.870  14.308
46719W        W15113  29.446   4.909   4.440
46720W        W15114  43.806  28.760   1.595
46721W        W15115  38.849  35.193   1.434
46722W        W15116  15.570  40.273  11.359
46723W        W15117  42.931  44.888   1.485
46724W        W15118  11.872  19.759   2.809
46725W        W15119   9.843  44.468  13.482
46726W        W15120   6.705  18.936  14.047
46727W        W15121   9.780  20.277  13.383
46728W        W15122  30.450  21.508  14.531
46729W        W15123  44.341  25.770   5.088
46730W        W15124  39.818  21.179  11.439
46731W        W15125   6.459  37.105   2.794
46732W        W15126  12.325  24.228   4.348
46733W        W15127  15.125   9.920   0.068
46734W        W15128  22.489   4.509   9.985
46735W        W15129   4.070  10.492   2.638
46736W        W15130  28.400   3.876  11.190
46737W        W15131   0.175  43.750   2.594
46738W        W15132  30.001  25.076   0.083
46739W        W15133  14.841  11.835  14.882
46740W        W15134  35.019  27.880   2.148
46741W        W15135  37.826   7.354   3.852
46742W        W15136  41.144  34.596  12.197
46743W        W15137  36.343   7.979   2.168
46744W        W15138  33.543   6.937   2.351
46745W        W15139  13.124   8.982  13.928
46746W        W15140  12.358  25.132   4.438
46747W        W15141   3.040   8.060   1.057
46748W        W15142  13.784  43.100  11.742
46749W        W15143  17.394   1.460   1.664
46750W        W15144  36.658  38.997   3.204
46751W        W15145  22.783  30.322   2.189
46752W        W15146   7.302  26.085   0.195
46753W        W15147  18.839  38.483  13.281
46754W        W15148  44.853  14.798  13.353
46755W        W15149  31.167  13.367   2.403
46756W        W15150  43.100  13.821  11.968
46757W        W15151   5.220  32.656  13.564
46758W        W15152  40.545  44.037  12.049
46759W        W15153  20.035  29.605  14.163
46760W        W15154   8.863  33.442   4.514
46761W        W15155  22.230  33.417  14.571
46762W        W15156  38.407  43.305   0.542
46763W        W15157  40.974  31.576  13.830
46764W        W15158   3.866  36.585   3.331
46765W        W15159  37.856   4.108   4.867
46766W        W15160   6.072  39.559  11.146
46767W        W15161  34.282  19.546   4.713
46768W        W15162  28.793  21.614   1.941
46769W        W15163  12.997  28.942   0.282
46770W        W15164  12.700  37.407  11.448
46771W        W15165   1.211  23.998  11.173
46772W        W15166  28.938  34.982   2.878
46773W        W15167  34.939  20.637   3.392
46774W        W15168   7.406  30.315   4.584
46775W        W15169  26.830  17.856   4.073
46776W        W15170   6.213  23.574  14.913
46777W        W15171  14.072  21.021  11.557
46778W        W15172  14.579  35.452  13.369
46779W        W15173  29.108  10.565  11.147
46780W        W15174  43.594   8.792   3.492
46781W        W15175  17.878  28.145  14.032
46782W        W15176  37.550  29.612  12.266
46783W        W15177  20.350  36.079  13.593
46784W        W15178  20.193  19.813   1.762
46785W        W15179  35.337  18.734   0.804
46786W        W15180  18.058  20.014  11.974
46787W        W15181   9.437  25.709   2.363
46788W        W15182  36.545  12.106   2.872
46789W        W15183   6.059  41.442  14.935
46790W        W15184  37.417  32.558  14.314
46791W        W15185   8.974  14.726   1.268
46792W        W15186   6.237   8.643   3.825
46793W        W15187   9.548   5.136   2.184
46794W        W15188  28.912   8.706  12.560
46795W        W15189  31.486  22.089   2.869
46796W        W15190   6.848  32.175   3.654
46797W        W15191  31.646  37.073   4.906
46798W        W15192  14.162  26.554   2.187
46799W        W15193  17.139  19.465   1.164
46800W        W15194  38.366  28.156   4.900
46801W        W15195  29.158  42.759   1.967
46802W        W15196  38.456  34.712  11.406
46803W        W15197  30.446  39.035  11.006
46804W        W15198  44.361   5.959  12.399
46805W        W15199  29.290   2.528   1.688
46806W        W15200  12.691   6.215   3.721
46807W        W15201  41.454  21.789   0.762
46808W        W15202  41.018   2.969   3.699
46809W        W15203  29.341  38.249  13.826
46810W        W15204  42.883  38.305  12.511
46811W        W15205   9.967  26.069   1.557
46812W        W15206  44.063   0.674   1.541
46813W        W15207  17.560   4.778  14.973
46814W        W15208  16.522  39.335   0.934
46815W        W15209   4.940   7.976  10.732
46816W        W15210  32.348  32.981   4.546
46817W        W15211  32.111   7.583   0.838
46818W        W15212  23.709  21.537   2.058
46819W        W15213  13.701  44.470  14.298
46820W        W15214   8.275   0.194   2.348
46821W        W15215  17.921   5.370   4.051
46822W        W15216  25.419   6.805   1.209
46823W        W15217   5.705  27.871  13.640
46824W        W15218  12.938  16.122  12.961
46825W        W15219  39.858  28.640  14.752
46826W        W15220  29.968  16.266  12.682
46827W        W15221  41.075   7.742   4.769
46828W        W15222  43.761   6.962   4.921
46829W        W15223  21.772  40.674   2.637
46830W        W15224   7.970  20.724   4.690
46831W        W15225  29.697  14.720   0.426
46832W        W15226   4.767  22.144  13.453
46833W        W15227  33.313   9.126   2.259
46834W        W15228  27.047   3.826  12.848
46835W        W15229  35.678  43.974  13.282
46836W        W15230  25.132  18.702  11.194
46837W        W15231  11.226  19.680  12.397
46838W        W15232  28.879  20.382  14.324
46839W        W15233   3.482   5.427  13.314
46840W        W15234  31.475  40.528   3.180
46841W        W15235  42.914  42.544   0.397
46842W        W15236  44.101  41.397  14.909
46843W        W15237   7.822  26.026   2.569
46844W        W15238  37.922  33.295   2.923
46845W        W15239  25.565   2.866   2.908
46846W        W15240  23.345  25.122   1.470
46847W        W15241  37.801  25.609   2.840
46848W        W15242   7.919  35.269  12.460
46849W        W15243  12.894  15.745   2.416
46850W        W15244  22.009  22.276   2.730
46851W        W15245  17.043   8.310  14.915
46852W        W15246  13.935  44.900  14.067
46853W        W15247   5.898  17.654  14.576
46854W        W15248  17.247  10.921   1.669
46855W        W15249  35.868  12.889  12.626
46856W        W15250  43.187  40.502  14.940
46857W        W15251  33.069  37.951  11.080
46858W        W15252  28.970  24.004  13.348
46859W        W15253  10.667  10.889  11.902
46860W        W15254  37.999  11.226   4.521
46861W        W15255  25.195  33.627   2.958
46862W        W15256  14.696  33.078  11.131
46863W        W15257  34.527  33.234   2.068
46864W        W15258  22.270  22.700  10.680
46865W        W15259  19.868  44.801   3.842
46866W        W15260  14.887   2.313  10.811
46867W        W15261  39.579   8.160  14.810
46868W        W15262   0.941  44.253  13.022
46869W        W15263  16.097  22.162   3.951
46870W        W15264  24.819  33.075  13.088
46871W        W15265  33.185  16.041   3.769
46872W        W15266  17.340   2.329  12.241
46873W        W15267  17.675  31.564   4.436
46874W        W15268  24.552  12.318  14.461
46875W        W15269  26.958   5.221   3.767
46876W        W15270  37.285  22.804  13.025
46877W        W15271   7.946  34.807  13.801
46878W        W15272  37.465  26.590   1.805
46879W        W15273   1.713  40.604  11.891
46880W        W15274  25.088  42.066  14.140
46881W        W15275   0.926  19.411  12.908
46882W        W15276  27.962  28.889   3.813
46883W        W15277  30.369  29.527   0.899
46884W        W15278  19.526   0.087  12.207
46885W        W15279  38.332  31.908   3.263
46886W        W15280   2.348   2.677  12.403
46887W        W15281  44.926  16.033   0.203
46888W        W15282   1.719  42.916   3.318
46889W        W15283  23.131  26.904   0.856
46890W        W15284   5.793  18.315  10.634
46891W        W15285  13.456  42.938   4.270
46892W        W15286  30.034  36.309   4.862
46893W        W15287  14.432  16.270   4.284
46894W        W15288   4.599  15.819   1.917
46895W        W15289  35.590  25.915  13.812
46896W        W15290  30.995  21.369  11.673
46897W        W15291   2.423   1.695  10.722
46898W        W15292   4.871  27.139   4.081
46899W        W15293  20.167  11.778   2.109
46900W        W15294  38.842   4.155   4.434
46901W        W15295   5.609  42.212   3.842
46902W        W15296   6.399   6.971   0.438
46903W        W15297  41.041  39.930  14.888
46904W        W15298  32.883  10.426  13.675
46905W        W15299  38.907   3.064   1.441
46906W        W15300  27.131  32.086  13.761
46907W        W15301   1.599  12.596   3.714
46908W        W15302   3.387  25.747   2.291
46909W        W15303  39.431   6.463   4.609
46910W        W15304  25.984  42.033  13.190
46911W        W15305  28.609  10.121   4.522
46912W        W15306  24.871  24.282  10.691
46913W        W15307  12.210  18.204  11.500
46914W        W15308  22.304  26.110   3.774
46915W        W15309  28.545  34.050   2.428
46916W        W15310  15.918  16.608   4.987
46917W        W15311  34.956  43.952   1.808
46918W        W15312  41.903   1.270  13.542
46919W        W15313  42.516  19.822  12.296
46920W        W15314  28.236  13.625  11.620
46921W        W15315   5.523  20.272  14.012
46922W        W15316   2.952  35.055  10.612
46923W        W15317  32.856   5.631   4.394
46924W        W15318  36.821  43.282   0.816
46925W        W15319   3.955  28.943  11.261
46926W        W15320  38.300  11.968   1.917
46927W        W15321  31.549  35.895   3.684
46928W        W15322   2.246  22.316  14.835
46929W        W15323  38.597  42.285   4.174
46930W        W15324  13.933  29.766   1.355
46931W        W15325  13.358   0.910  10.499
46932W        W15326  24.165  19.870   2.435
46933W        W15327   2.469  16.176  12.011
46934W        W15328  21.524  33.314   1.734
46935W        W15329  24.521  38.221   2.814
46936W        W15330  28.617  21.593   2.843
46937W        W15331  32.665   5.704  14.932
46938W        W15332   9.596  25.233  10.273
46939W        W15333  29.457   1.017  11.761
46940W        W15334   5.286   7.894   0.421
46941W        W15335  41.954  39.535   1.852
46942W        W15336  36.531  40.878  14.901
46943W        W15337  28.397   4.960   4.635
46944W        W15338   0.553  26.578  12.975
46945W        W15339   7.100  19.290   4.116
46946W        W15340  20.278  35.939   3.558
46947W        W15341  34.636  37.809   1.295
46948W        W15342  28.888  11.279   4.152
46949W        W15343   5.966  27.346  14.276
46950W        W15344  38.450   5.860  13.384
46951W        W15345  17.789   7.703  10.631
46952W        W15346   4.507  20.035  14.764
46953W        W15347  18.754  36.069   4.525
46954W        W15348  18.867  18.384   1.374
46955W        W15349  13.154  31.400  12.009
46956W        W15350  16.582   0.494  12.855
46957W        W15351  12.796  24.009   4.191
46958W        W15352  13.106   7.621  14.966
46959W        W15353  40.315   2.927  12.054
46960W        W15354  29.246   1.014   3.241
46961W        W15355  26.454  13.095   1.709
46962W        W15356   3.971  27.982  11.271
46963W        W15357   4.754   5.453  12.527
46964W        W15358  17.067   5.745   4.558
46965W        W15359  22.697   4.914  14.314
46966W        W15360  27.144  41.509  11.676
46967W        W15361  42.317   8.740  12.419
46968W        W15362  31.581  22.685   1.364
46969W        W15363  43.851   1.174  11.250
46970W        W15364   2.592  11.917  14.309
46971W        W15365  25.488  16.265  11.236
46972W        W15366  30.207  42.946   0.859
46973W        W15367  22.572  41.046   1.337
46974W        W15368   2.472  21.317   4.079
46975W        W15369   4.722  31.920   1.673
46976W        W15370  23.858  27.960   4.072
46977W        W15371  33.000  32.807   1.797
46978W        W15372   6.419  30.663  11.601
46979W        W15373  28.664  35.905  13.818
46980W        W15374  39.775   5.234  13.191
46981W        W15375   8.935  30.152  13.070
46982W        W15376   9.331  33.590  11.639
46983W        W15377  44.451  41.769  12.204
46984W        W15378  26.532  18.157  14.900
46985W        W15379   2.799  26.131   3.629
46986W        W15380  39.995  16.585   1.516
46987W        W15381  35.861  15.881  14.223
46988W        W15382  18.217  12.958  11.785
46989W        W15383  31.567  30.121   3.234
46990W        W15384  20.595  12.200   2.936
46991W        W15385   2.721  37.578  12.678
46992W        W15386  29.946  42.725   4.083
46993W        W15387   9.847  27.283   4.297
46994W        W15388  32.177  12.913   0.304
46995W        W15389  26.497   8.421  11.010
46996W        W15390  17.703  20.996  10.666
46997W        W15391  30.670  36.292  12.097
46998W        W15392  15.833  27.391   0.115
46999W        W15393  21.978  11.653   2.651
47000W        W15394   2.911  20.500  11.189
47001W        W15395  14.292  23.412  13.921
47002W        W15396   0.372  29.856   2.775
47003W        W15397  15.825   6.424  12.584
47004W        W15398  25.993  18.582  10.761
47005W        W15399   4.691  20.154   4.388
47006W        W15400  40.585  12.169   4.537
47007W        W15401  29.529  11.486  12.075
47008W        W15402  34.059  16.010   0.356
47009W        W15403   3.503  21.306  10.655
47010W        W15404  10.733  36.292   3.404
47011W        W15405  19.104   9.611   2.233
47012W        W15406  12.208  30.677  11.683
47013W        W15407  19.540   8.948  11.615
47014W        W15408   1.844  23.470  10.782
47015W        W15409  10.652  16.246   1.009
47016W        W15410  11.149  16.223  11.131
47017W        W15411  29.378  17.153  14.993
47018W        W15412   1.267   2.231  14.747
47019W        W15413   1.438  19.074   4.232
47020W        W15414   3.742  20.659  12.351
47021W        W15415  14.162  10.628   4.209
47022W        W15416   9.485  19.570   3.160
47023W        W15417   6.231  32.955   2.842
47024W        W15418  23.999  29.642  12.428
47025W        W15419  24.414  18.357  12.386
47026W        W15420   3.624  18.705  11.024
47027W        W15421  37.861  23.990   2.988
47028W        W15422  15.421  37.925  12.589
47029W        W15423  11.224  26.746  13.532
47030W        W15424  29.657   5.824  12.751
47031W        W15425  33.442  37.242   2.201
47032W        W15426  37.930  31.406   2.168
47033W        W15427  34.540  22.930   2.222
47034W        W15428  25.397  10.701   3.795
47035W        W15429   0.340  13.124  13.505
47036W        W15430  34.310  43.542  14.228
47037W        W15431  36.016  17.091  10.741
47038W        W15432  17.385  32.876   4.235
47039W        W15433  27.040  18.797   1.001
47040W        W15434  33.606   6.782   4.868
47041W        W15435  27.661  12.717   2.372
47042W        W15436   8.900  31.522   0.917
47043W        W15437  21.634   2.187  11.017
47044W        W15438  32.102  40.481  12.197
47045W        W15439  36.436  29.318  13.417
47046W        W15440  18.746   6.766   2.376
47047W        W15441  39.431  21.532   3.266
47048W        W15442  33.162  40.033   0.293
47049W        W15443  14.983  31.050  13.780
47050W        W15444  17.200  11.198   0.797
47051W        W15445  40.748  44.734   1.785
47052W        W15446  32.387  35.921  12.263
47053W        W15447  16.596  36.296   1.306
47054W        W15448  16.066  25.497   0.811
47055W        W15449  35.806   4.438   1.410
47056W        W15450   2.226   1.402   1.951
47057W        W15451  10.499  13.584  13.536
47058W        W15452  38.355   7.205  10.604
47059W        W15453  43.336   8.077  12.314
47060W        W15454  33.605  23.548  12.827
47061W        W15455  30.847  27.395  13.569
47062W        W15456  43.523  27.995  12.690
47063W        W15457  24.187   6.689  12.567
47064W        W15458   3.803  31.394  10.988
47065W        W15459  42.466  26.468   0.345
47066W        W15460  16.508  14.111   0.843
47067W        W15461   9.115  42.420  13.899
47068W        W15462  44.069   9.660   1.045
47069W        W15463  28.134  14.207  13.346
47070W        W15464   0.862  38.505  11.506
47071W        W15465  35.287  14.299   2.648
47072W        W15466   8.749  36.746  13.947
47073W        W15467  38.656  11.399  10.363
47074W        W15468  16.633  23.521  14.839
47075W        W15469  22.694   0.369  14.864
47076W        W15470   1.001   1.231  12.504
47077W        W15471  24.229   1.418   0.281
47078W        W15472  41.083  31.374   3.720
47079W        W15473  23.686  10.715   2.552
47080W        W15474  20.163  43.393  13.804
47081W        W15475  24.155  18.877  13.137
47082W        W15476  31.618   2.522   1.698
47083W        W15477  16.989  29.444  10.335
47084W        W15478  44.248   7.611  12.850
47085W        W15479  28.751  34.542   4.610
47086W        W15480  33.633   3.559   1.876
47087W        W15481  10.247  36.940   1.427
47088W        W15482   4.872  38.896   4.528
47089W        W15483  39.870   3.384   2.435
47090W        W15484  25.287  39.715  13.452
47091W        W15485  42.459  30.635  12.078
47092W        W15486  35.095  19.615   1.961
47093W        W15487   6.284  34.891   4.125
47094W        W15488  20.701  20.669   1.813
47095W        W15489  28.347  23.047  12.042
47096W        W15490   5.455  33.113  12.315
47097W        W15491   6.905  42.001  12.112
47098W        W15492  23.060  17.264  10.744
47099W        W15493  39.052  23.274   2.284
47100W        W15494   7.461  41.872  13.717
47101W        W15495  22.670  42.302   4.351
47102W        W15496   4.231  16.040   4.153
47103W        W15497  32.872   0.444   0.609
47104W        W15498  16.157  14.203  11.176
47105W        W15499  19.557  18.448  11.644
47106W        W15500  43.742  19.360   3.749
47107W        W15501  43.912  25.662   0.255
47108W        W15502  22.091  16.578  14.476
47109W        W15503   8.681   3.999  14.332
47110W        W15504  10.394   8.853  14.983
47111W        W15505  23.496  18.665   0.523
47112W        W15506  41.892  36.611  13.009
47113W        W15507  28.248  31.394   2.671
47114W        W15508  39.823  16.803  13.931
47115W        W15509  42.368  32.563   1.861
47116W        W15510  15.159  28.271  10.793
47117W        W15511  22.839   0.905   1.276
47118W        W15512  16.794  10.653  14.247
47119W        W15513  39.800   5.738   3.214
47120W        W15514  18.661  27.232   3.101
47121W        W15515  18.228  27.037  12.641
47122W        W15516  27.518   4.392   0.334
47123W        W15517  21.898  25.322  10.245
47124W        W15518  29.686  41.346  13.077
47125W        W15519  41.791  31.946  13.809
47126W        W15520  16.305  34.476  13.064
47127W        W15521  13.171  42.328   0.111
47128W        W15522  27.545  30.619  11.547
47129W        W15523  18.415  19.265   2.308
47130W        W15524  10.348  30.101  13.350
47131W        W15525  19.520  42.343   1.387
47132W        W15526  16.508  39.798   4.573
47133W        W15527  29.555  20.686  11.791
47134W        W15528  37.441   6.395   4.822
47135W        W15529   2.934   2.407   0.359
47136W        W15530  41.028  34.170   2.739
47137W        W15531  28.980  31.654  12.005
47138W        W15532  20.177  20.737  14.505
47139W        W15533  34.530  37.822   4.757
47140W        W15534  16.488  41.288   2.862
47141W        W15535  37.466  40.998   4.140
47142W        W15536  13.649  10.379  11.187
47143W        W15537  44.183  31.307   0.824
47144W        W15538  14.523   7.025  12.247
47145W        W15539  40.818  43.597  10.697
47146W        W15540  19.045  26.905   0.191
47147W        W15541  32.202  13.839  14.284
47148W        W15542   7.684  28.860  12.001
47149W        W15543  18.927  15.151   3.615
47150W        W15544  25.744  20.670  13.972
47151W        W15545  13.310  29.501  14.034
47152W        W15546  15.357  34.100  13.995
47153W        W15547  41.851  44.091  12.619
47154W        W15548  11.602  15.762  13.818
47155W        W15549  16.787  28.423  11.500
47156W        W15550  12.065  42.865   2.320
47157W        W15551  31.594  22.987   2.640
47158W        W15552  17.224  27.201   2.612
47159W        W15553  42.783  14.344   4.623
47160W        W15554   4.212  18.765  11.583
47161W        W15555  19.174  17.404   3.093
47162W        W15556  12.801  32.445   4.129
47163W        W15557  25.182  33.956  13.585
47164W        W15558  32.438  35.010   0.037
47165W        W15559   2.474   0.224  10.739
47166W        W15560  40.004  13.270   2.690
47167W        W15561   7.189  17.188  14.381
47168W        W15562  35.268  43.253   9.942
47169W        W15563  21.019  22.998  14.466
47170W        W15564  19.081  10.802   3.983
47171W        W15565  21.614  43.818   4.289
47172W        W15566  22.892  36.385  14.442
47173W        W15567  19.738  43.890  13.800
47174W        W15568  22.694  19.109  14.477
47175W        W15569  43.396  33.556  10.296
47176W        W15570  10.825  30.112  10.595
47177W        W15571  27.616   2.877  12.797
47178W        W15572  22.781  17.756   2.776
47179W        W15573  17.106   8.255   2.889
47180W        W15574  12.352  14.886   2.374
47181W        W15575  22.219  36.520  14.969
47182W        W15576  41.159   3.803   4.939
47183W        W15577  35.122  24.658  13.894
47184W        W15578  13.961   7.744  12.078
47185W        W15579  16.814  24.013  12.499
47186W        W15580   4.297   6.967   4.238
47187W        W15581  29.592  17.891   4.638
47188W        W15582   6.217  27.039  11.526
47189W        W15583   8.086  41.013  13.885
47190W        W15584  31.786  27.063  14.848
47191W        W15585  24.199   6.281  13.797
47192W        W15586  26.929  18.628   0.525
47193W        W15587  19.930  17.082  13.722
47194W        W15588  21.506  40.826  14.344
47195W        W15589  30.545  39.804  14.481
47196W        W15590   7.756  35.430   3.565
47197W        W15591  15.772   8.003  13.874
47198W        W15592  40.204  21.764  13.897
47199W        W15593  36.464  22.045  14.390
47200W        W15594  13.289  21.799   3.161
47201W        W15595   1.762   8.700  11.148
47202W        W15596  26.385  12.666   2.012
47203W        W15597  40.594  12.109  12.165
47204W        W15598   8.868  31.951  11.509
47205W        W15599  27.228  15.011   3.613
47206W        W15600  34.694  27.408   1.455
47207W        W15601  35.771   3.856   3.268
47208W        W15602  11.705  14.115  11.195
47209W        W15603  27.983  13.026   0.721
47210W        W15604  24.598  14.385  13.469
47211W        W15605  20.384  36.944   1.814
47212W        W15606  19.211  29.170   0.690
47213W        W15607  18.953  15.675   3.498
47214W        W15608  21.205  18.275  12.987
47215W        W15609   0.940  16.988  13.475
47216W        W15610  13.626  33.794  14.818
47217W        W15611  18.322  33.072   4.589
47218W        W15612  32.721  38.643   4.520
47219W        W15613  15.362  21.607  14.702
47220W        W15614  20.733   7.130  13.304
47221W        W15615  43.516  25.484  12.501
47222W        W15616   3.312   3.657   4.637
47223W        W15617   1.365  19.709  12.661
47224W        W15618  44.746  25.979  13.051
47225W        W15619  38.342  10.759   0.820
47226W        W15620   6.297  38.330   1.582
47227W        W15621  31.949  30.068   4.282
47228W        W15622  32.528  24.227   2.389
47229W        W15623  42.539  37.312  11.678
47230W        W15624  14.817  12.283  12.485
47231W        W15625  40.026  44.245  14.882
47232W        W15626  31.686  22.736  12.408
47233W        W15627   4.313  28.865   0.292
47234W        W15628   6.445  30.896  13.398
47235W        W15629   0.312   9.580  12.052
47236W        W15630  25.061  35.486   0.813
47237W        W15631  23.604  33.516  12.099
47238W        W15632  26.969   5.032   0.611
47239W        W15633  38.889  20.242   2.876
47240W        W15634   6.186  14.121   4.041
47241W        W15635  21.941  18.625  14.335
47242W        W15636  10.817  25.237   2.282
47243W        W15637  11.355  15.068   3.683
47244W        W15638  16.632   5.536   1.478
47245W        W15639  26.600  37.447   4.194
47246W        W15640  24.080  38.505   0.505
47247W        W15641  40.554  17.719  14.275
47248W        W15642  34.441  20.817   2.765
47249W        W15643  10.120   2.275  11.141
47250W        W15644  31.806  21.695   0.006
47251W        W15645  18.993  29.932   2.249
47252W        W15646  33.075   8.379   4.551
47253W        W15647  41.971  23.367   9.948
47254W        W15648  36.092  17.850  12.097
47255W        W15649  39.846  35.741  10.688
47256W        W15650  44.108  17.789   1.428
47257W        W15651  40.936   1.644  13.518
47258W        W15652  12.268  35.386  12.542
47259W        W15653   6.897  30.693   1.217
47260W        W15654   2.925  35.072   3.893
47261W        W15655  16.856  15.318  12.562
47262W        W15656  12.705  10.768  11.948
47263W        W15657  17.051  35.327  12.540
47264W        W15658   1.986   5.359   1.851
47265W        W15659  39.514   3.015  14.768
47266W        W15660  22.281  12.949   1.209
47267W        W15661   8.177  32.190   2.108
47268W        W15662   0.902  33.432   1.607
47269W        W15663   6.216  20.239  11.583
47270W        W15664  27.938  41.456  14.320
47271W        W15665   0.699  43.175  11.623
47272W        W15666   6.954  43.032  11.352
47273W        W15667   5.394   2.040   4.327
47274W        W15668  36.318  32.166   3.172
47275W        W15669   9.293  27.190   3.583
47276W        W15670  33.999  13.483  13.860
47277W        W15671  36.655  17.252   2.174
47278W        W15672  38.560  38.885   4.047
47279W        W15673  10.920   9.689   1.896
47280W        W15674  41.573   5.440   1.782
47281W        W15675  13.203  37.284   2.283
47282W        W15676  27.134   2.181  11.134
47283W        W15677   3.910  29.638   2.136
47284W        W15678  15.359  15.107  11.567
47285W        W15679   9.694  15.465  11.597
47286W        W15680  34.968  22.933   3.946
47287W        W15681  10.063  25.853   9.710
47288W        W15682  35.008   3.434   4.108
47289W        W15683  14.331  30.421   3.016
47290W        W15684  30.406  34.856   1.605
47291W        W15685  27.803  17.093   0.671
47292W        W15686   2.741   3.434  11.551
47293W        W15687  25.739  20.318  12.917
47294W        W15688   0.380  33.007   3.118
47295W        W15689  34.681   7.987   2.769
47296W        W15690  44.471  25.237   5.001
47297W        W15691   9.729  10.740   0.164
47298W        W15692  22.564  28.019   1.988
47299W        W15693  35.617  15.634   2.336
47300W        W15694   4.858   0.310  11.240
47301W        W15695  14.717  21.836   3.699
47302W        W15696  41.702  25.167  14.289
47303W        W15697  11.430  27.198   3.574
47304W        W15698  16.539   7.103   2.828
47305W        W15699  38.537  42.197  10.492
47306W        W15700   8.134  22.615  13.351
47307W        W15701  32.397  38.530  11.561
47308W        W15702  28.618   9.590  13.306
47309W        W15703  12.181  37.190  12.100
47310W        W15704   5.843  18.154  11.531
47311W        W15705  16.468  25.274  11.136
47312W        W15706  33.399  42.451  11.602
47313W        W15707   1.055  14.594   0.281
47314W        W15708  42.700  21.989  13.254
47315W        W15709  19.237  34.422  10.686
47316W        W15710  29.142  23.924  12.518
47317W        W15711  30.385  41.452   4.102
47318W        W15712   1.763  14.348   5.175
47319W        W15713  21.283   1.306   2.809
47320W        W15714  39.858  32.983   1.213
47321W        W15715  41.759  35.542   1.339
47322W        W15716   1.928  16.319  11.125
47323W        W15717  22.738   7.820  12.662
47324W        W15718  33.169  36.089   2.360
47325W        W15719  23.429  22.654   3.998
47326W        W15720  31.115  37.255   4.210
47327W        W15721  36.399  34.343   0.918
47328W        W15722  36.705  15.052  12.535
47329W        W15723   3.670  41.461  12.400
47330W        W15724  27.942  22.626  12.509
47331W        W15725  13.254   4.818   4.694
47332W        W15726  24.370  33.123   2.383
47333W        W15727   8.279  37.508   4.946
47334W        W15728  21.547  19.666  13.255
47335W        W15729  24.815   4.935   2.424
47336W        W15730  24.936  42.385   2.327
47337W        W15731  25.160   1.222   0.543
47338W        W15732  16.015   8.653  13.105
47339W        W15733  20.580   6.214   2.417
47340W        W15734  11.622   6.149   4.369
47341W        W15735  17.815  10.545   0.820
47342W        W15736   3.235  17.567   4.043
47343W        W15737  35.955  12.255   2.257
47344W        W15738  22.559  44.269   4.047
47345W        W15739  26.674  30.091   0.032
47346W        W15740  37.240  11.672  12.017
47347W        W15741  26.541  21.378  11.930
47348W        W15742  23.222  35.382  14.454
47349W        W15743  16.032  27.657   3.211
47350W        W15744  16.312  35.510  13.029
47351W        W15745  44.758  30.483   2.788
47352W        W15746  23.442  40.008   1.421
47353W        W15747   7.714  23.143  11.673
47354W        W15748  18.252  30.372  10.429
47355W        W15749  42.466  41.015  14.051
47356W        W15750  27.977  11.381   1.847
47357W        W15751  31.923  30.945  14.363
47358W        W15752  22.494  40.446  13.886
47359W        W15753  38.332  21.270   1.175
47360W        W15754  33.637   9.258  12.919
47361W        W15755  26.764  37.835   2.646
47362W        W15756  43.878  11.931   4.920
47363W        W15757  32.121  27.772   2.011
47364W        W15758  25.610  21.222  13.887
47365W        W15759   9.222  34.384   2.433
47366W        W15760  43.965  23.923   0.929
47367W        W15761   2.760  24.600   3.410
47368W        W15762  43.424  32.223  11.051
47369W        W15763  22.099  36.296   0.504
47370W        W15764  43.275  37.405   3.126
47371W        W15765  37.934  42.788   0.884
47372W        W15766  22.194  33.350   2.438
47373W        W15767  13.212  15.763   0.943
47374W        W15768  38.052  30.096   0.552
47375W        W15769  11.614  39.395   2.498
47376W        W15770  34.482  39.074  11.524
47377W        W15771  40.494  42.890   2.688
47378W        W15772  31.097  31.973  12.919
47379W        W15773   2.961  17.054  13.258
47380W        W15774  20.376  39.647   4.122
47381W        W15775  27.174  16.654   4.788
47382W        W15776   0.432   6.574  12.992
47383W        W15777   0.553   6.715   4.118
47384W        W15778  20.984  41.933  11.226
47385W        W15779  18.011  31.571   1.304
47386W        W15780  39.319   0.720   4.848
47387W        W15781   3.733  40.331  10.822
47388W        W15782  34.110  21.780   2.729
47389W        W15783  34.896  30.834   3.141
47390W        W15784  18.370  33.409   1.700
47391W        W15785  37.097   9.182   0.814
47392W        W15786  15.178  44.927  12.367
47393W        W15787  29.801   9.302   3.610
47394W        W15788  26.965  14.624  13.396
47395W        W15789  38.106  16.850  10.700
47396W        W15790  38.082  32.148   2.732
47397W        W15791  30.197  21.178  12.084
47398W        W15792  28.702  27.154  14.309
47399W        W15793  33.555  20.259   1.407
47400W        W15794  20.309  26.102   0.907
47401W        W15795  36.627  17.403   4.555
47402W        W15796   9.190  21.749   4.767
47403W        W15797  28.240  43.352  10.956
47404W        W15798  21.799  31.636   4.572
47405W        W15799  22.604  43.334   4.500
47406W        W15800  26.176  16.402  11.048
47407W        W15801   5.678  30.984  14.545
47408W        W15802  12.970   1.947   4.717
47409W        W15803   9.343  37.034   1.278
47410W        W15804  18.585  42.737   2.742
47411W        W15805  42.012  31.387   3.574
47412W        W15806  19.159  13.334   1.383
47413W        W15807  39.838   6.642   1.249
47414W        W15808   0.951   6.674  12.905
47415W        W15809   2.437  38.579   1.690
47416W        W15810  20.202  44.418   2.720
47417W        W15811  29.609   2.774  14.192
47418W        W15812  30.452  37.061  14.718
47419W        W15813  23.026   6.706  14.325
47420W        W15814  39.776   8.563  11.566
47421W        W15815  42.354   2.389  13.614
47422W        W15816  12.720  17.617  11.537
47423W        W15817   1.896  17.268  11.155
47424W        W15818  20.385  16.668  10.120
47425W        W15819  39.273  35.498   2.851
47426W        W15820  28.371  11.191   2.786
47427W        W15821   6.638  42.957  11.755
47428W        W15822   4.211   5.777  10.969
47429W        W15823  42.800  12.282  13.798
47430W        W15824  11.394  24.982  13.853
47431W        W15825  13.806   5.796  11.210
47432W        W15826   6.778  40.244  14.777
47433W        W15827  40.838  38.441   2.144
47434W        W15828  26.596  34.625   2.286
47435W        W15829   1.280  17.235   4.492
47436W        W15830  43.464   2.759   3.327
47437W        W15831  32.490  26.699   9.898
47438W        W15832  28.750  22.742   2.079
47439W        W15833  32.510  11.372   2.829
47440W        W15834   8.413  15.907  13.997
47441W        W15835   7.945  10.334   0.272
47442W        W15836  15.278  43.797   2.956
47443W        W15837  25.474  20.347  13.361
47444W        W15838  23.670  39.563   0.780
47445W        W15839  24.566  36.026  13.794
47446W        W15840  17.133  24.030   1.941
47447W        W15841  44.363   5.847  14.834
47448W        W15842  20.100  23.431   4.120
47449W        W15843  21.288  21.024   1.150
47450W        W15844  35.908  26.687  13.997
47451W        W15845   5.377  41.425   3.364
47452W        W15846  29.569  39.038  11.234
47453W        W15847  38.389  29.978  14.272
47454W        W15848  42.417  36.510  12.339
47455W        W15849  10.567  26.740  12.444
47456W        W15850  36.929  21.037   0.976
47457W        W15851  39.682  31.141   0.807
47458W        W15852  32.011   3.619   1.286
47459W        W15853   4.743   1.744   1.248
47460W        W15854  28.226  14.048  11.332
47461W        W15855   1.081  21.426  12.136
47462W        W15856  35.511  27.091  12.451
47463W        W15857  35.291  13.662  13.111
47464W        W15858   8.797  13.182  14.409
47465W        W15859  20.250  22.808  13.922
47466W        W15860   1.250  30.642   4.153
47467W        W15861  21.729  12.128   1.452
47468W        W15862  34.026  11.166   0.510
47469W        W15863  16.479  41.486   1.546
47470W        W15864   9.810  35.087   3.277
47471W        W15865  39.848  37.478  14.852
47472W        W15866   5.676  18.180  12.145
47473W        W15867  34.922   3.473   4.634
47474W        W15868  22.827  40.905  12.093
47475W        W15869  34.997  18.780   0.401
47476W        W15870   9.834  37.018   1.093
47477W        W15871   9.262  15.385  13.958
47478W        W15872  31.996  19.848  12.496
47479W        W15873   2.701  16.789  11.052
47480W        W15874  37.386   4.572  12.503
47481W        W15875  41.598  41.152  14.369
47482W        W15876  12.865  13.798   4.578
47483W        W15877  19.511  17.985  13.895
47484W        W15878  17.424  38.914  11.070
47485W        W15879  41.658  32.719  12.448
47486W        W15880   7.150  28.663   3.913
47487W        W15881  28.351  36.604  12.635
47488W        W15882  36.628  21.027   3.610
47489W        W15883  26.990  33.638   4.104
47490W        W15884  43.055  14.333   1.688
47491W        W15885   9.479   5.649   2.735
47492W        W15886   7.636   5.439   1.924
47493W        W15887   3.225  15.087  11.478
47494W        W15888   9.121  13.186  12.046
47495W        W15889   7.260  24.219   0.309
47496W        W15890  30.669  13.976   3.166
47497W        W15891   1.490  26.147   0.263
47498W        W15892  39.525  39.741  13.932
47499W        W15893   7.518   6.268  14.622
47500W        W15894  39.179  39.508  13.064
47501W        W15895  32.625  34.154  14.977
47502W        W15896  33.295  20.269   0.953
47503W        W15897  32.812  39.136  14.058
47504W        W15898  27.150  37.337   3.889
47505W        W15899  12.826  40.401   0.548
47506W        W15900  16.106  35.640   4.308
47507W        W15901  24.081  20.022   0.721
47508W        W15902  27.632   8.740   3.648
47509W        W15903  20.110  28.688   2.874
47510W        W15904  39.559  11.396  11.588
47511W        W15905  31.195  22.612   4.331
47512W        W15906  13.296  31.924  10.776
47513W        W15907  43.229  21.115  13.858
47514W        W15908  40.327  17.105   2.819
47515W        W15909  22.124  41.212  13.677
47516W        W15910  43.349  27.328  14.846
47517W        W15911  28.569  16.609   0.012
47518W        W15912  34.655  22.236  10.524
47519W        W15913  34.924   5.794   2.478
47520W        W15914  39.955  36.898   0.508
47521W        W15915  11.967  31.940   0.921
47522W        W15916  44.998   3.656   3.001
47523W        W15917  44.378   2.244  14.897
47524W        W15918  25.217  15.318   0.860
47525W        W15919  28.059  35.437   4.104
47526W        W15920  26.526   4.890   0.367
47527W        W15921  19.792   1.453  14.970
47528W        W15922  22.766  39.400   2.788
47529W        W15923  21.824   6.538  12.899
47530W        W15924  42.760  29.222  10.669
47531W        W15925  27.657  21.309  14.045
47532W        W15926  39.783   1.359  12.306
47533W        W15927  20.559  16.367  11.601
47534W        W15928   2.758  28.432   0.454
47535W        W15929  15.046  17.812  14.359
47536W        W15930   5.768   7.769  14.777
47537W        W15931  10.700  30.185  11.102
47538W        W15932  37.168  10.280  12.978
47539W        W15933  37.081  44.992   1.385
47540W        W15934  22.239  26.137   4.266
47541W        W15935   9.616   0.829   2.318
47542W        W15936  22.009  33.116   1.761
47543W        W15937  23.213   2.248  12.432
47544W        W15938  11.725  36.226  13.600
47545W        W15939  23.471  22.685  11.201
47546W        W15940  12.611  28.997  12.900
47547W        W15941  17.886   7.839  10.106
47548W        W15942   3.446   7.789  14.298
47549W        W15943   7.794  17.728   4.708
47550W        W15944  24.274   5.676   2.834
47551W        W15945  10.499  14.978   0.525
47552W        W15946  18.358  34.280   0.235
47553W        W15947  29.362  20.563  14.317
47554W        W15948  39.559  18.845   3.841
47555W        W15949  29.436   5.920   1.389
47556W        W15950  39.331  15.125   1.627
47557W        W15951  25.022  39.964   0.277
47558W        W15952  28.466  20.088   3.637
47559W        W15953  11.810  29.891   4.086
47560W        W15954  28.056  19.284   4.650
47561W        W15955  24.747  43.959   3.711
47562W        W15956  19.679  42.881  13.159
47563W        W15957   7.768  21.704  13.064
47564W        W15958  33.610  30.870  12.204
47565W        W15959  42.397  28.607   1.369
47566W        W15960   9.289  44.069   3.261
47567W        W15961   0.053   1.703  14.467
47568W        W15962  40.546  30.071   0.900
47569W        W15963  41.104  43.401   1.093
47570W        W15964  11.412  41.850   3.185
47571W        W15965  22.108  23.325   4.121
47572W        W15966  38.879   4.491   1.235
47573W        W15967  23.109  41.031  13.337
47574W        W15968  32.385  13.861   4.250
47575W        W15969   6.704  23.099   4.120
47576W        W15970  19.604   3.921   2.420
47577W        W15971  35.064  10.425   0.023
47578W        W15972  38.561  32.171  14.041
47579W        W15973  13.948   7.972   1.264
47580W        W15974  29.595   5.577   3.258
47581W        W15975  41.826  27.156  10.959
47582W        W15976  11.172  20.398  14.384
47583W        W15977  18.191   6.240   4.321
47584W        W15978  20.721  34.349  12.344
47585W        W15979   6.561   8.429  10.696
47586W        W15980  35.919   8.187   1.180
47587W        W15981   2.275  19.143   2.273
47588W        W15982  15.294   3.294  11.236
47589W        W15983  18.162  22.574  11.550
47590W        W15984   1.115  35.864   4.481
47591W        W15985  43.556   8.302   4.292
47592W        W15986   7.918  18.991   0.259
47593W        W15987  19.283  21.524  14.420
47594W        W15988  31.729  41.363  11.600
47595W        W15989   0.502  44.516   1.373
47596W        W15990   5.142  14.682   2.659
47597W        W15991  40.540  14.228  14.794
47598W        W15992  34.485  28.752  12.130
47599W        W15993  29.918  25.446  13.650
47600W        W15994  28.937   5.072   3.749
47601W        W15995  34.890  13.328   2.749
47602W        W15996  20.569   3.757   4.597
47603W        W15997  34.314  19.203  11.233
47604W        W15998  18.684  42.223  11.908
47605W        W15999   3.496  20.294  13.626
47606W        W16000   4.302  21.428  12.810
47607W        W16001  16.390  33.625   2.289
47608W        W16002  31.143   3.097  13.529
47609W        W16003   2.018  29.692   3.760
47610W        W16004  19.058  12.101   0.712
47611W        W16005  41.036  38.819  13.491
47612W        W16006  34.522  12.801  12.873
47613W        W16007   2.831  20.512   4.841
47614W        W16008   5.191   8.390  14.391
47615W        W16009  38.925  33.158   3.163
47616W        W16010  21.899  27.023   2.870
47617W        W16011   6.810  18.171   1.878
47618W        W16012  44.871  42.873   0.413
47619W        W16013  13.807  14.812   1.017
47620W        W16014  31.443  25.118  12.205
47621W        W16015   7.486   1.932  13.410
47622W        W16016  32.234  15.149   3.239
47623W        W16017  12.164  11.270  10.803
47624W        W16018  43.746  42.203   0.412
47625W        W16019   2.288   3.414  14.005
47626W        W16020  11.636  18.616   4.807
47627W        W16021  30.098   6.469   3.833
47628W        W16022  44.903  23.984   3.267
47629W        W16023  31.439   0.224  13.502
47630W        W16024   2.895  23.638  12.620
47631W        W16025  41.829  10.284   4.009
47632W        W16026   4.891  38.556  12.206
47633W        W16027  24.048   2.382  12.010
47634W        W16028  26.966  38.299  13.955
47635W        W16029   5.471  26.143   4.093
47636W        W16030  19.158  35.849   0.460
47637W        W16031  35.797  11.109  11.357
47638W        W16032   4.191  30.146  10.772
47639W        W16033  36.909  35.438  11.147
47640W        W16034  14.675  31.005  10.666
47641W        W16035  33.634  28.657   3.088
47642W        W16036   1.310  14.757   4.070
47643W        W16037  23.571   3.891  14.410
47644W        W16038  23.253   7.350  14.619
47645W        W16039   7.215  27.458   2.688
47646W        W16040  44.483  38.605   5.048
47647W        W16041   2.555   1.057   5.004
47648W        W16042  10.002  40.876   4.092
47649W        W16043  43.274  14.034   3.076
47650W        W16044  17.739  24.382   0.474
47651W        W16045  44.933  33.920   3.859
47652W        W16046  35.261  34.796  11.916
47653W        W16047  37.485  26.938  13.856
47654W        W16048  40.507   6.838   3.743
47655W        W16049   2.742  39.519   0.780
47656W        W16050  19.623  40.143  11.177
47657W        W16051  38.332  10.844  11.947
47658W        W16052  24.927  16.928   2.413
47659W        W16053  26.570  42.012   1.309
47660W        W16054  18.805   0.933  12.706
47661W        W16055  12.788  28.639  13.353
47662W        W16056  44.315  26.177  12.827
47663W        W16057  28.578  29.935  14.839
47664W        W16058   2.846   0.239  12.803
47665W        W16059  24.785  10.693  13.842
47666W        W16060  42.486  11.777   1.313
47667W        W16061   9.855   6.272  14.874
47668W        W16062  20.030  23.983   0.224
47669W        W16063  27.546  11.318   3.161
47670W        W16064  22.006   1.512  13.272
47671W        W16065   7.787   7.843   0.751
47672W        W16066  42.724  21.180  11.122
47673W        W16067  37.236  24.012   0.994
47674W        W16068  38.914   5.698   1.754
47675W        W16069  37.778  37.569  11.618
47676W        W16070  33.997  42.299  14.000
47677W        W16071  44.027  29.730  11.584
47678W        W16072  27.158  15.803   4.210
47679W        W16073   3.242  42.871   1.378
47680W        W16074   3.981   9.706   1.463
47681W        W16075  10.342   4.310  14.504
47682W        W16076   1.509  30.106  11.587
47683W        W16077  17.094  37.384  13.070
47684W        W16078  18.018   6.631  14.760
47685W        W16079  42.045  17.541  12.419
47686W        W16080  37.541   2.866  14.923
47687W        W16081  26.100  34.048   4.092
47688W        W16082  33.668  24.123   1.726
47689W        W16083  21.830   5.844  10.568
47690W        W16084  44.752  25.832   0.436
47691W        W16085  19.185   6.780  11.537
47692W        W16086  20.178   4.749  14.990
47693W        W16087   5.748  25.088  13.378
47694W        W16088  33.335  43.309  13.378
47695W        W16089  13.825  26.224   3.374
47696W        W16090  24.624   9.643   5.801
47697W        W16091  31.424   7.465   4.226
47698W        W16092  16.117  31.236   2.379
47699W        W16093  12.886  39.424  14.428
47700W        W16094   2.255  12.735   2.201
47701W        W16095  39.350  35.089   1.297
47702W        W16096  25.689  22.629   3.795
47703W        W16097  22.536  16.590   4.598
47704W        W16098  21.984  22.185   0.973
47705W        W16099  17.858  15.000   1.231
47706W        W16100   5.239  36.344  12.115
47707W        W16101   6.173  21.046   1.537
47708W        W16102  36.787  20.809  13.434
47709W        W16103  32.322  32.337   3.237
47710W        W16104  21.744  19.658   0.882
47711W        W16105  36.359  12.294  12.394
47712W        W16106  32.693  23.664   3.139
47713W        W16107  24.664  30.308   3.189
47714W        W16108   8.405  19.654   4.881
47715W        W16109  19.247   5.939  11.944
47716W        W16110  23.069  26.587   2.347
47717W        W16111  28.841   1.416   5.014
47718W        W16112  41.336  31.983  11.089
47719W        W16113  41.687   8.292  14.293
47720W        W16114   8.269  37.068   4.046
47721W        W16115  21.712  44.165  12.436
47722W        W16116  39.779   8.214   1.934
47723W        W16117   4.188  20.211  12.208
47724W        W16118  43.963  13.165   0.316
47725W        W16119  26.760   9.272  10.456
47726W        W16120  42.294  31.405   4.697
47727W        W16121  27.651  26.134  13.324
47728W        W16122  38.987  40.710   0.460
47729W        W16123  12.924  23.017  10.985
47730W        W16124  17.217  15.193   1.954
47731W        W16125   7.769  22.305   3.776
47732W        W16126  13.789  38.956  12.891
47733W        W16127  25.135   3.679   0.372
47734W        W16128  43.941  31.614   0.391
47735W        W16129  39.538  22.078  12.975
47736W        W16130  30.702  31.662  10.231
47737W        W16131  22.135   7.959  13.077
47738W        W16132   5.278   1.937   2.615
47739W        W16133  35.387  19.178   3.080
47740W        W16134  30.591  37.920  14.574
47741W        W16135  27.699  44.603   3.732
47742W        W16136  25.941  21.507   4.446
47743W        W16137  33.600  40.958   2.910
47744W        W16138  24.866   2.449   1.873
47745W        W16139  42.344   0.885  14.252
47746W        W16140  36.485  39.334  13.941
47747W        W16141   2.999  28.833  13.835
47748W        W16142  31.048  19.259  13.000
47749W        W16143   9.857   8.543  14.407
47750W        W16144  23.267   8.954  11.057
47751W        W16145  29.498  16.375  11.942
47752W        W16146  28.988   4.839  14.442
47753W        W16147   9.130  40.596   2.660
47754W        W16148  36.055  25.951   1.087
47755W        W16149  22.804  10.737  11.537
47756W        W16150  25.303  10.357   2.767
47757W        W16151  19.232  10.188  11.906
47758W        W16152   6.372  42.537   5.022
47759W        W16153  44.173  15.594  10.784
47760W        W16154  30.982  26.062   3.536
47761W        W16155  21.520  32.492  11.077
47762W        W16156   5.179  39.447   0.371
47763W        W16157  21.877  12.879  12.949
47764W        W16158   4.459  19.117  10.558
47765W        W16159  14.723   5.743  11.029
47766W        W16160  33.286  33.449   1.014
47767W        W16161  31.743  34.022  11.662
47768W        W16162  19.374  15.179  12.653
47769W        W16163  37.367  28.560  13.340
47770W        W16164  31.068  30.710  12.150
47771W        W16165  36.446   6.475  13.894
47772W        W16166  13.696  42.423  14.052
47773W        W16167  16.727  41.740  14.875
47774W        W16168  31.962  23.044  12.755
47775W        W16169  19.528   8.794   3.102
47776W        W16170   5.489  36.334  12.617
47777W        W16171  23.068  27.966   1.838
47778W        W16172  18.285  31.076   4.600
47779W        W16173  16.636  20.836   3.622
47780W        W16174  37.334  40.855   4.622
47781W        W16175  23.526  40.122  13.040
47782W        W16176  28.453  29.023   3.690
47783W        W16177  25.461  36.330   0.605
47784W        W16178   7.150   7.169   4.165
47785W        W16179   0.352  33.477  11.816
47786W        W16180  13.034  39.978   0.291
47787W        W16181  12.786  39.613   2.805
47788W        W16182  20.033  30.710   0.910
47789W        W16183  10.739  43.888   2.713
47790W        W16184  33.739  25.072  10.108
47791W        W16185  10.002  17.284  12.956
47792W        W16186  36.490   7.536   5.071
47793W        W16187  16.578  34.359   1.489
47794W        W16188  20.070  21.216   2.053
47795W        W16189   1.096   9.675  12.334
47796W        W16190  25.522  37.087  13.102
47797W        W16191  18.147  30.555   2.162
47798W        W16192  23.778   8.643   3.549
47799W        W16193  12.273  11.077  14.444
47800W        W16194   9.158   8.085   0.752
47801W        W16195  14.680  33.285  12.008
47802W        W16196   2.401   9.325  13.918
47803W        W16197   5.883  24.152  12.564
47804W        W16198  37.172  32.839  11.122
47805W        W16199  30.964  12.547  13.864
47806W        W16200  14.166  40.028  13.782
47807W        W16201  29.394  28.873  11.201
47808W        W16202  37.838  14.872   0.769
47809W        W16203   2.227   1.930  12.704
47810W        W16204  30.107  29.369   1.315
47811W        W16205  42.425   1.596  11.584
47812W        W16206  39.107   9.386  10.611
47813W        W16207  33.772  16.665  12.454
47814W        W16208   8.008  12.406  13.204
47815W        W16209  21.670   5.859  14.276
47816W        W16210  34.427   9.665  13.998
47817W        W16211  23.038  29.114   3.646
47818W        W16212   9.154   8.299  12.216
47819W        W16213  13.336   2.238  13.341
47820W        W16214   7.744  14.292  12.094
47821W        W16215  42.745   9.827   4.172
47822W        W16216  28.070   3.327   2.780
47823W        W16217  16.878  16.153  11.555
47824W        W16218  12.693  36.568   0.306
47825W        W16219  13.240  44.061  10.956
47826W        W16220  37.575  10.926  11.148
47827W        W16221  17.364  23.933   4.232
47828W        W16222  36.462  32.947   2.842
47829W        W16223  17.084  14.894  11.554
47830W        W16224  39.772   9.321  12.013
47831W        W16225  15.569   1.935  13.057
47832W        W16226   8.754  43.886  13.116
47833W        W16227   9.663  43.482   3.912
47834W        W16228  19.963  43.749   2.200
47835W        W16229  16.770  20.415  12.421
47836W        W16230   1.034  19.294  11.204
47837W        W16231   8.588  40.486  14.564
47838W        W16232  15.273  10.629   0.812
47839W        W16233  15.269  27.072   4.597
47840W        W16234  36.538  20.911  12.996
47841W        W16235   4.022   7.891  14.312
47842W        W16236  10.166  42.941  13.475
47843W        W16237  21.430  21.241  11.177
47844W        W16238  17.630  29.983   4.965
47845W        W16239  28.134  35.871  11.658
47846W        W16240  34.990  22.575   2.280
47847W        W16241  29.503  43.398   1.339
47848W        W16242   8.887  25.051   5.892
47849W        W16243  42.515  36.009  13.951
47850W        W16244  37.260   7.361  13.498
47851W        W16245   3.891  28.040  10.762
47852W        W16246   6.736  44.764   1.138
47853W        W16247   8.507  21.909   1.262
47854W        W16248  30.014  11.324  13.373
47855W        W16249  18.621   0.558   3.686
47856W        W16250  30.916  18.804   1.748
47857W        W16251  13.741  39.734  13.632
47858W        W16252   0.269  10.742   3.336
47859W        W16253  28.936  33.021  13.828
47860W        W16254  28.184  33.656  10.267
47861W        W16255  19.039  37.964  12.520
47862W        W16256  38.393   3.382  10.246
47863W        W16257  26.013  24.693  13.467
47864W        W16258  13.831   5.790   0.763
47865W        W16259  39.902  15.071   0.457
47866W        W16260  40.825  35.879   2.145
47867W        W16261   9.916  42.473  13.450
47868W        W16262  44.337   7.600  11.496
47869W        W16263  31.111   6.739   1.376
47870W        W16264   3.209  21.208  11.643
47871W        W16265  31.703  12.885  12.939
47872W        W16266  29.068   0.835  12.037
47873W        W16267  15.824  40.262   2.826
47874W        W16268  32.999   5.430  14.025
47875W        W16269  42.821  36.364  10.806
47876W        W16270   3.731  37.742   2.748
47877W        W16271  39.879  18.985  14.100
47878W        W16272   1.244   6.412  10.342
47879W        W16273  25.152  35.925   0.517
47880W        W16274  11.784  22.726   0.235
47881W        W16275   7.015  23.584  11.163
47882W        W16276  13.418   2.156  12.472
47883W        W16277  11.402  19.158   3.148
47884W        W16278  42.456  20.236  13.131
47885W        W16279  34.183   3.807   0.458
47886W        W16280  34.413  17.766   2.301
47887W        W16281  29.368  16.732   2.975
47888W        W16282  23.950   5.872   1.863
47889W        W16283   2.274   7.951  12.076
47890W        W16284   5.259  37.017   1.256
47891W        W16285  18.704   3.903  14.421
47892W        W16286  33.388  27.731   2.277
47893W        W16287  41.874   0.970  14.955
47894W        W16288  32.570  14.548  13.939
47895W        W16289   9.994   8.809   4.578
47896W        W16290   3.861   1.357  11.066
47897W        W16291  27.138  12.200   2.416
47898W        W16292  36.641   5.358  12.446
47899W        W16293  18.245  26.490   4.293
47900W        W16294  21.984  12.341  12.537
47901W        W16295  23.155  21.454   0.816
47902W        W16296   7.695  21.999  14.945
47903W        W16297  44.158  28.396   1.703
47904W        W16298  38.857  37.505  10.711
47905W        W16299  22.688  18.272   1.628
47906W        W16300  26.320   5.658  12.008
47907W        W16301  16.213  15.048   3.582
47908W        W16302  10.176  11.548   2.128
47909W        W16303  36.414  15.932  10.145
47910W        W16304  20.776   0.875   0.767
47911W        W16305   1.657  33.554   0.621
47912W        W16306  39.480  30.948   1.263
47913W        W16307  20.984  41.377  11.623
47914W        W16308   2.199  36.019  13.926
47915W        W16309  33.718  38.990   1.306
47916W        W16310   9.554   6.108  11.636
47917W        W16311  18.503  19.447  13.584
47918W        W16312   9.668  11.758  12.399
47919W        W16313  16.612  24.266   2.653
47920W        W16314  13.547  41.903   1.763
47921W        W16315  17.084  42.512   1.265
47922W        W16316  34.337  22.513  14.297
47923W        W16317  44.947  18.164   3.898
47924W        W16318  30.547  39.282  14.412
47925W        W16319  40.699  33.043  14.851
47926W        W16320  18.014  20.575   0.464
47927W        W16321  38.378   2.591   0.855
47928W        W16322  26.701  35.071   4.053
47929W        W16323  31.352  38.933   3.258
47930W        W16324   3.388  43.409  11.828
47931W        W16325  34.118  23.790   3.767
47932W        W16326  22.065  39.544   0.339
47933W        W16327  19.994  39.316   0.321
47934W        W16328  16.721  37.911   2.181
47935W        W16329  26.642  43.689  14.334
47936W        W16330  20.023   6.985  12.133
47937W        W16331  34.925  36.849   1.407
47938W        W16332  17.285   4.419   2.342
47939W        W16333  35.506   4.841   1.245
47940W        W16334  39.349  20.424   2.216
47941W        W16335   5.355  28.558  14.521
47942W        W16336  35.090   9.898  14.883
47943W        W16337   8.343  11.401   3.379
47944W        W16338  19.143  19.650  13.023
47945W        W16339  32.156  28.835  14.418
47946W        W16340  16.120  38.551  13.821
47947W        W16341  33.809  19.605  14.388
47948W        W16342  10.830   3.003   3.224
47949W        W16343  26.683  12.949   2.556
47950W        W16344  14.541   8.825   0.909
47951W        W16345  40.350   7.788   3.663
47952W        W16346  43.545  24.162   0.687
47953W        W16347  43.261  29.689   0.286
47954W        W16348  35.787  11.174  13.884
47955W        W16349  11.655  25.944  13.938
47956W        W16350  13.781  34.784   1.111
47957W        W16351  41.269   1.819   1.443
47958W        W16352  37.065  21.702  12.911
47959W        W16353  22.020   1.708   3.628
47960W        W16354  23.701   0.638  12.885
47961W        W16355  14.333  13.399   0.791
47962W        W16356   0.900  14.699  13.160
47963W        W16357  44.995   5.262  14.372
47964W        W16358  35.577  17.910   1.806
47965W        W16359  39.179   8.569  13.087
47966W        W16360   5.670  29.798  12.524
47967W        W16361  20.677  20.801  14.249
47968W        W16362  41.876  13.214   4.847
47969W        W16363  41.748  24.217  13.383
47970W        W16364  37.691  32.198  12.544
47971W        W16365  34.959  20.863  11.201
47972W        W16366  24.007  18.701  10.385
47973W        W16367  18.776  19.946  11.965
47974W        W16368  22.191  25.658   4.441
47975W        W16369  14.236  19.775   2.293
47976W        W16370   7.764  36.975  14.248
47977W        W16371  29.902  33.122   3.265
47978W        W16372  14.987   9.737  13.047
47979W        W16373  30.778   3.664  14.879
47980W        W16374  34.290  33.545  13.203
47981W        W16375  26.359  26.403   1.785
47982W        W16376  23.602  13.566   3.679
47983W        W16377   8.858   4.840  10.178
47984W        W16378  14.141  28.601  13.075
47985W        W16379  39.605  11.584  10.343
47986W        W16380  43.883  23.484   0.663
47987W        W16381  28.255  37.359   4.863
47988W        W16382   6.529   9.770   4.112
47989W        W16383  26.263  35.846   3.947
47990W        W16384  35.000  38.716   1.380
47991W        W16385   0.321   1.215  13.695
47992W        W16386  44.455  15.010   2.865
47993W        W16387  31.390  41.507   1.863
47994W        W16388  28.211   0.496   3.596
47995W        W16389  19.157  22.237  11.747
47996W        W16390  11.258   5.005   1.760
47997W        W16391  30.416   3.330   3.724
47998W        W16392  39.483  18.241  13.007
47999W        W16393  42.482  18.678   4.092
48000W        W16394  17.383   1.708  12.567
48001W        W16395  34.928  25.611   4.456
48002W        W16396  11.384   0.743   3.150
48003W        W16397  13.144  15.347   2.779
48004W        W16398  43.263   6.667   0.317
48005W        W16399  27.611   0.016   0.151
48006W        W16400   1.228  18.069  11.489
48007W        W16401  35.524   8.367   1.491
48008W        W16402  38.980  37.015  14.400
48009W        W16403  22.736  22.532  10.578
48010W        W16404  33.662  26.138   3.150
48011W        W16405  18.210  27.238   1.945
48012W        W16406  39.694  15.095   1.984
48013W        W16407  40.429   2.463   0.308
48014W        W16408  28.673  33.697  10.534
48015W        W16409  27.933  37.922  12.960
48016W        W16410  15.902  20.649  11.818
48017W        W16411   5.172  36.281   1.868
48018W        W16412  31.171   0.697   4.049
48019W        W16413   5.453  36.137  13.776
48020W        W16414  21.098  24.504   0.487
48021W        W16415  10.571  42.327  12.558
48022W        W16416   6.616  28.620   3.810
48023W        W16417  19.021   4.296  14.359
48024W        W16418  28.534  23.297   0.273
48025W        W16419  25.205  10.615  14.708
48026W        W16420   8.679  17.851   2.188
48027W        W16421  12.019  28.084   3.751
48028W        W16422  19.299  39.017   4.060
48029W        W16423   5.959  20.079  14.722
48030W        W16424  37.085  25.981  12.858
48031W        W16425  30.007  20.455  11.661
48032W        W16426  43.360  12.343  10.571
48033W        W16427  13.005  37.329   3.075
48034W        W16428   0.903  27.983   4.239
48035W        W16429  15.814  32.774   0.927
48036W        W16430  40.816  23.204  13.410
48037W        W16431  39.772  21.455   5.123
48038W        W16432  12.217  14.266   3.928
48039W        W16433   4.330  40.757   0.245
48040W        W16434   4.356  34.824   3.042
48041W        W16435  36.518  27.057   1.206
48042W        W16436  30.674  24.279   5.041
48043W        W16437  42.782   7.898   0.461
48044W        W16438  30.789  27.199  11.924
48045W        W16439  22.091  13.605   2.726
48046W        W16440   6.936  15.373   2.808
48047W        W16441  43.783  30.142  13.374
48048W        W16442  35.110  21.107  12.921
48049W        W16443   3.695  33.966   3.146
48050W        W16444  30.038  36.457   3.513
48051W        W16445  29.885  18.520   2.327
48052W        W16446  27.073  43.092   2.029
48053W        W16447  12.228   5.164  11.288
48054W        W16448  26.223  42.549  12.299
48055W        W16449  37.497  17.175   3.811
48056W        W16450  31.345  36.463  13.577
48057W        W16451  44.808  15.047  11.082
48058W        W16452  38.714   8.004  14.441
48059W        W16453  34.034  11.662   3.875
48060W        W16454  32.640  16.644  13.309
48061W        W16455  18.866  28.823   2.751
48062W        W16456  18.233  24.731  14.875
48063W        W16457   6.909  24.992  13.140
48064W        W16458  34.089  27.394   2.850
48065W        W16459   5.226  36.261   4.677
48066W        W16460  23.655  42.528   2.844
48067W        W16461  41.951  14.844  14.575
48068W        W16462  32.969  29.176   3.966
48069W        W16463  17.566  27.096   0.773
48070W        W16464   8.801  28.822  10.695
48071W        W16465  32.921  32.116   5.067
48072W        W16466  14.056  38.795  12.491
48073W        W16467  23.796  14.776   3.131
48074W        W16468  12.288  33.331   3.439
48075W        W16469   9.661  39.606  12.500
48076W        W16470  21.028  25.536  14.090
48077W        W16471   6.464   9.428  11.428
48078W        W16472  33.577  28.599   1.628
48079W        W16473  19.223  40.018  14.502
48080W        W16474  40.397  41.110  12.578
48081W        W16475   2.289   6.368  13.887
48082W        W16476  15.046  36.965  11.030
48083W        W16477  38.564   3.031   0.515
48084W        W16478  32.306  18.279   0.813
48085W        W16479  20.407  37.433   4.909
48086W        W16480  36.838  38.816   4.679
48087W        W16481  23.970  36.962  10.734
48088W        W16482  14.310  33.002  13.570
48089W        W16483   0.594  19.143   4.096
48090W        W16484  24.507  18.541   2.272
48091W        W16485  21.216  21.541   4.980
48092W        W16486  42.457   6.068  11.474
48093W        W16487  25.933  28.322   0.292
48094W        W16488   0.344  36.028   4.062
48095W        W16489   4.416  30.419   1.220
48096W        W16490  15.712   0.356  10.617
48097W        W16491  29.408  13.393  13.312
48098W        W16492   4.013   2.796   0.863
48099W        W16493  18.405  19.842  11.294
48100W        W16494  30.236  16.057  12.259
48101W        W16495   6.519  27.033   4.102
48102W        W16496   1.905   2.254   2.184
48103W        W16497   2.097  34.788   3.604
48104W        W16498   6.390   1.364   2.821
48105W        W16499  25.844   4.767  10.209
48106W        W16500  33.711  41.303   2.192
48107W        W16501  15.365  19.221  14.306
48108W        W16502  19.584  33.006   1.244
48109W        W16503  43.939  18.774  13.550
48110W        W16504  26.537  17.008  13.068
48111W        W16505  17.252  28.080   4.631
48112W        W16506  26.994  19.686   4.714
48113W        W16507  42.309  22.135   2.122
48114W        W16508  19.471  20.674  12.271
48115W        W16509  14.557  41.330   1.702
48116W        W16510  23.019  18.588  11.563
48117W        W16511  43.843  17.766  12.220
48118W        W16512  15.662  29.610   2.857
48119W        W16513  43.132  32.478   3.359
48120W        W16514  12.809  19.710  10.686
48121W        W16515   8.785  44.942  13.843
48122W        W16516  31.036  33.903   0.750
48123W        W16517   2.178  22.062  14.393
48124W        W16518  17.700  15.619  12.018
48125W        W16519  29.766  41.642  12.498
48126W        W16520  13.260  38.372  12.928
48127W        W16521  36.453   4.714   0.849
48128W        W16522   0.325  13.411   3.569
48129W        W16523   2.965  44.084   0.310
48130W        W16524  20.136  17.384   4.979
48131W        W16525  26.658   9.612  14.807
48132W        W16526  15.538  39.621  14.374
48133W        W16527  24.211  12.128  12.527
48134W        W16528  26.780  24.725   3.818
48135W        W16529  44.842  33.385  11.405
48136W        W16530  34.913  23.837  11.948
48137W        W16531  29.113  18.137   0.845
48138W        W16532   2.717  29.399   3.360
48139W        W16533   6.253  22.570  12.912
48140W        W16534  16.705   4.800   1.274
48141W        W16535  42.532   1.300  11.181
48142W        W16536   0.057  39.271  11.244
48143W        W16537  27.970  42.729  14.036
48144W        W16538  18.091  22.954  11.125
48145W        W16539   7.837  41.860   1.278
48146W        W16540  24.690   5.156   0.291
48147W        W16541  28.634  24.043   0.609
48148W        W16542  40.245  14.575  13.096
48149W        W16543  41.373  15.138   3.641
48150W        W16544   4.408  27.721   3.439
48151W        W16545  23.741  42.886  11.174
48152W        W16546   2.261  39.328   2.174
48153W        W16547  37.661  13.951   4.271
48154W        W16548   8.918  44.039  14.504
48155W        W16549  15.135   9.833  12.555
48156W        W16550  16.304  42.047  14.978
48157W        W16551  15.354   6.910   4.936
48158W        W16552  22.066  14.101  13.800
48159W        W16553  22.366   5.214  10.698
48160W        W16554   2.678   8.785  10.612
48161W        W16555  23.934  14.176  14.926
48162W        W16556  41.841   1.403   1.895
48163W        W16557  37.046  37.762  14.309
48164W        W16558  43.893  31.392   3.191
48165W        W16559   9.661   0.964  11.132
48166W        W16560  25.026   6.854   4.408
48167W        W16561  13.848  36.680  12.661
48168W        W16562   8.259   8.072   0.800
48169W        W16563  40.583   7.914  12.487
48170W        W16564   2.489  24.636   2.510
48171W        W16565  41.715   7.722   1.442
48172W        W16566  33.220  23.937   5.151
48173W        W16567  19.681  37.934   2.110
48174W        W16568  14.812  22.511  11.867
48175W        W16569  17.551  29.451  10.314
48176W        W16570  20.842  24.077  12.060
48177W        W16571   7.083  15.741   4.952
48178W        W16572  38.417   8.096   2.744
48179W        W16573  31.061  40.114  11.175
48180W        W16574   3.260  19.107   4.392
48181W        W16575  27.208  22.090  12.487
48182W        W16576  13.665  13.592   1.803
48183W        W16577  23.364  34.066  12.930
48184W        W16578   3.852  10.277  11.580
48185W        W16579  31.988  13.089  13.679
48186W        W16580  43.518  30.430   2.350
48187W        W16581  16.122  14.080   3.088
48188W        W16582   7.031  39.254  14.887
48189W        W16583  18.514  19.038   1.861
48190W        W16584   0.818  17.748  13.050
48191W        W16585  13.741   7.900  10.431
48192W        W16586  42.767  28.219   3.307
48193W        W16587  16.301  38.738  14.997
48194W        W16588  31.483   3.281   3.648
48195W        W16589  42.386  27.056   2.445
48196W        W16590  10.344  28.102   4.151
48197W        W16591  29.163  12.906   2.828
48198W        W16592   6.973  12.974   1.108
48199W        W16593   1.003   2.705   2.839
48200W        W16594  23.943  37.589   4.174
48201W        W16595  18.192  28.172   1.695
48202W        W16596   9.892  23.695   2.674
48203W        W16597  25.134  33.076  13.536
48204W        W16598   1.792  28.786  13.929
48205W        W16599   5.151  11.893   2.320
48206W        W16600   4.736   0.314   0.929
48207W        W16601  25.049  37.970  11.460
48208W        W16602   2.530  32.486   0.800
48209W        W16603  41.724   9.680   2.659
48210W        W16604  41.185  22.993  11.567
48211W        W16605  27.950   2.739   1.889
48212W        W16606  31.132   2.904   0.468
48213W        W16607   1.361   7.862   0.300
48214W        W16608  23.820  17.582  12.873
48215W        W16609  44.370   8.641   2.733
48216W        W16610  37.433   6.135  10.616
48217W        W16611   9.265  13.832   3.936
48218W        W16612  16.310  37.953  11.578
48219W        W16613  38.477  27.607  10.653
48220W        W16614   5.023   7.096   4.719
48221W        W16615  24.962  27.118   5.045
48222W        W16616  33.152   6.467   4.166
48223W        W16617  30.017  40.310  13.792
48224W        W16618   9.794  37.424   3.341
48225W        W16619  11.799  38.449  11.272
48226W        W16620  40.152  37.088  12.968
48227W        W16621  14.258  10.415  14.055
48228W        W16622  42.450   1.327   1.069
48229W        W16623   2.543   7.837   3.152
48230W        W16624  19.341  14.643   3.218
48231W        W16625   6.850  17.575   3.123
48232W        W16626   4.194  26.551   2.523
48233W        W16627   4.760  40.445   3.618
48234W        W16628  24.605  16.693  10.360
48235W        W16629  28.944  31.620  14.957
48236W        W16630  43.816  17.902  11.727
48237W        W16631  24.362  16.632  13.803
48238W        W16632  24.170  36.060  10.410
48239W        W16633  40.013  37.830  12.550
48240W        W16634   0.278  35.958   2.208
48241W        W16635   7.774  25.604   1.883
48242W        W16636  40.362   8.958  12.425
48243W        W16637  40.481   1.955   4.671
48244W        W16638  31.932  26.482  12.101
48245W        W16639  42.990  44.980  12.563
48246W        W16640  18.928   5.219  10.774
48247W        W16641  16.129  13.110   2.802
48248W        W16642  27.596  31.456   2.855
48249W        W16643   5.151  32.447  11.183
48250W        W16644  42.974   7.446   0.215
48251W        W16645  35.390  21.403  10.781
48252W        W16646  41.507  24.485  10.788
48253W        W16647   9.703  43.970  12.882
48254W        W16648   4.863  41.585   3.232
48255W        W16649   8.481  21.766  12.048
48256W        W16650  41.009   6.430   0.815
48257W        W16651  35.076  33.072  13.605
48258W        W16652   5.853  39.762  14.922
48259W        W16653  29.984  43.310  11.198
48260W        W16654  15.806  10.813   0.160
48261W        W16655   1.524  18.782  13.391
48262W        W16656   2.783  26.430  10.463
48263W        W16657   5.226  30.911   0.264
48264W        W16658  34.516   8.888   2.626
48265W        W16659  13.460  26.340   3.741
48266W        W16660  30.409  31.640  11.055
48267W        W16661  43.102  19.146  10.709
48268W        W16662  42.379  23.856  11.678
48269W        W16663  40.443   8.787  13.816
48270W        W16664  40.606   3.577  14.731
48271W        W16665  23.555  44.221  11.174
48272W        W16666  35.518  24.884  12.316
48273W        W16667   0.827   8.026  14.627
48274W        W16668   7.933   3.945   1.980
48275W        W16669  35.120  31.530  11.205
48276W        W16670   5.916   2.865  13.878
48277W        W16671  32.930  25.662   2.847
48278W        W16672  41.599  10.382  14.350
48279W        W16673  10.657  23.215   3.346
48280W        W16674   7.787   0.831   0.281
48281W        W16675  39.512  37.514  12.319
48282W        W16676   6.380  41.243  11.240
48283W        W16677  29.119  38.580   2.880
48284W        W16678  31.554  30.535  12.092
48285W        W16679  44.826  36.336   2.967
48286W        W16680   3.702  32.343   2.427
48287W        W16681   8.841  24.682  14.758
48288W        W16682  28.457  31.788   2.932
48289W        W16683  35.919  41.608  14.852
48290W        W16684   3.727  41.963  10.774
48291W        W16685  43.170   9.216   1.417
48292W        W16686   8.285  11.187  14.270
48293W        W16687  21.269  21.871  12.567
48294W        W16688   5.806   1.292  14.778
48295W        W16689  34.892  36.004   4.091
48296W        W16690   7.391  34.852  11.643
48297W        W16691  41.383   7.474   2.400
48298W        W16692  24.511   3.289  11.909
48299W        W16693  41.970   1.449   0.859
48300W        W16694   7.824  17.572  14.420
48301W        W16695   8.243  14.532   4.753
48302W        W16696  34.184  43.942   4.221
48303W        W16697  39.577  10.850  11.618
48304W        W16698  37.756   3.351   2.770
48305W        W16699  15.630  27.479  11.205
48306W        W16700  38.468  30.799  13.209
48307W        W16701   7.095  40.024  11.574
48308W        W16702   6.961  29.437   3.249
48309W        W16703  26.469   4.639   4.254
48310W        W16704  14.640  29.656  11.226
48311W        W16705  22.127   3.343  12.614
48312W        W16706  18.232  22.761  14.023
48313W        W16707  21.764   3.395  11.598
48314W        W16708  36.515  28.540   4.632
48315W        W16709   6.868   1.691  11.073
48316W        W16710   2.357  18.036  14.996
48317W        W16711  40.544   9.818  14.025
48318W        W16712  26.136  14.656  11.640
48319W        W16713  31.524  26.051  13.333
48320W        W16714  15.270  11.216  10.757
48321W        W16715  38.164  36.048   4.095
48322W        W16716  44.253   3.039  13.441
48323W        W16717  33.943  19.496  12.486
48324W        W16718  33.550  36.074  10.343
48325W        W16719  10.885  28.393  13.190
48326W        W16720  22.985  24.974  14.215
48327W        W16721  20.766   1.745   0.095
48328W        W16722   6.749   7.938  11.386
48329W        W16723  13.121  26.435  13.419
48330W        W16724  18.470  31.313  14.485
48331W        W16725  13.395  22.487  10.698
48332W        W16726  38.742  15.413  10.293
48333W        W16727  24.852   8.570  11.415
48334W        W16728  26.720  43.804  12.069
48335W        W16729  21.683  18.444  14.984
48336W        W16730  42.286   6.933  11.077
48337W        W16731  31.113  41.228   2.179
48338W        W16732   5.663  44.627   1.873
48339W        W16733  41.794   4.814   1.701
48340W        W16734  33.587   6.445   2.199
48341W        W16735  38.098  27.941   0.335
48342W        W16736  34.105  43.327  12.057
48343W        W16737  32.373  33.095   0.753
48344W        W16738  23.053   7.994  13.104
48345W        W16739  20.375  36.915   1.018
48346W        W16740   8.202  36.801  12.420
48347W        W16741  29.037  34.077   2.638
48348W        W16742  28.977  27.589   3.328
48349W        W16743   0.786   5.730   2.339
48350W        W16744  16.589  31.143   3.143
48351W        W16745  22.628   5.409   0.570
48352W        W16746   0.046  34.380   1.345
48353W        W16747  36.059  15.583   2.640
48354W        W16748  34.878  12.729  12.460
48355W        W16749  14.055  21.245   1.862
48356W        W16750  33.172  35.279   0.543
48357W        W16751  33.093  40.555   4.337
48358W        W16752  29.491  33.486  10.143
48359W        W16753  27.161  32.178  11.043
48360W        W16754  24.099  29.899   0.278
48361W        W16755  44.005  23.915  11.038
48362W        W16756  28.199  19.258   0.516
48363W        W16757  36.572  20.565  12.052
48364W        W16758  13.408  23.445   2.213
48365W        W16759  27.003  36.712   1.203
48366W        W16760  24.038  23.784   4.066
48367W        W16761  14.126   1.468   3.109
48368W        W16762  44.366  34.466   3.317
48369W        W16763   7.917  19.327   3.776
48370W        W16764  33.650  34.416   0.854
48371W        W16765  27.689  15.766  13.546
48372W        W16766  20.467   5.856  12.082
48373W        W16767  43.032  42.529   1.857
48374W        W16768   6.679  15.136   2.411
48375W        W16769   0.573  34.396   1.300
48376W        W16770  34.799  36.042   3.195
48377W        W16771  19.738  31.160  13.292
48378W        W16772  39.793   8.735   4.884
48379W        W16773  34.390   5.305   4.181
48380W        W16774  14.285  40.990  10.836
48381W        W16775  28.160  39.018   0.831
48382W        W16776   7.428  41.050  12.488
48383W        W16777  35.009   5.893  13.029
48384W        W16778  25.502  34.033  10.398
48385W        W16779   4.034  39.712   2.427
48386W        W16780  41.913  18.473  14.740
48387W        W16781  15.844   9.845  11.029
48388W        W16782  41.344  42.783   2.775
48389W        W16783   1.911  13.662   1.406
48390W        W16784   7.212  23.437  14.914
48391W        W16785   0.142  44.501  14.876
48392W        W16786  44.215  38.124   3.096
48393W        W16787  16.752  16.818   3.799
48394W        W16788   4.161  17.815  11.219
48395W        W16789  32.390  20.862  11.698
48396W        W16790  23.999   2.861   2.774
48397W        W16791  21.762   6.486  12.021
48398W        W16792  13.128   9.833  14.526
48399W        W16793  39.202  42.841   4.634
48400W        W16794  41.816  22.794   1.321
48401W        W16795  43.356  37.974   3.785
48402W        W16796  42.440  40.733  12.577
48403W        W16797  21.262  28.446   4.690
48404W        W16798  29.907   9.193  13.466
48405W        W16799  14.184  42.878  13.661
48406W        W16800  31.391  32.907  11.185
48407W        W16801   8.659  14.641  13.787
48408W        W16802  32.993  25.561  13.367
48409W        W16803  25.336  37.995  10.621
48410W        W16804  18.560  41.875   5.093
48411W        W16805  17.566  23.166   1.806
48412W        W16806  44.300  16.388  13.918
48413W        W16807   0.940  25.228   0.523
48414W        W16808  42.376  24.479   0.079
48415W        W16809  28.982  36.927   2.191
48416W        W16810  11.683  31.518  11.213
48417W        W16811  43.194   5.746   3.695
48418W        W16812   2.485  12.266   4.506
48419W        W16813  28.608  11.275   1.439
48420W        W16814   6.889  15.513  13.968
48421W        W16815  33.673   5.739   4.035
48422W        W16816  34.519  37.957  13.364
48423W        W16817  25.216   0.953  11.483
48424W        W16818  31.049  20.010  12.415
48425W        W16819  20.265  43.996   1.847
48426W        W16820  24.728  43.180   5.287
48427W        W16821  19.168  21.252  10.892
48428W        W16822  21.712  41.847  14.419
48429W        W16823   8.263  31.939  11.529
48430W        W16824  16.015  44.394  14.972
48431W        W16825  39.582   5.799  11.210
48432W        W16826  42.247  21.468  13.937
48433W        W16827  30.435  10.224  11.214
48434W        W16828  21.253  32.315  11.744
48435W        W16829  32.807  25.576  14.810
48436W        W16830  20.757  18.434   1.853
48437W        W16831  33.975   3.226   1.674
48438W        W16832  19.686  20.133   4.590
48439W        W16833   3.253  34.513   1.925
48440W        W16834  13.552  23.238   0.511
48441W        W16835   4.160  27.064   0.233
48442W        W16836   3.234  19.191   1.459
48443W        W16837  35.024   8.409   4.457
48444W        W16838  37.276  36.463  13.491
48445W        W16839  39.525  41.904   1.215
48446W        W16840   2.713  10.885   4.238
48447W        W16841   7.720  28.078  10.259
48448W        W16842   7.759  40.188   3.109
48449W        W16843  19.992  23.806  13.927
48450W        W16844  21.144  42.173   4.655
48451W        W16845  30.540  12.160  13.125
48452W        W16846  34.482  20.801  10.639
48453W        W16847  31.298  26.082  13.801
48454W        W16848   5.218  37.184  11.470
48455W        W16849   9.903  24.584   0.312
48456W        W16850  12.387   6.551  13.454
48457W        W16851  41.210  24.580   0.733
48458W        W16852   9.412   7.410  12.861
48459W        W16853   9.153   8.646  11.296
48460W        W16854  19.716  36.339  14.533
48461W        W16855  31.169  24.758  14.505
48462W        W16856   8.381   8.830  12.599
48463W        W16857  37.241  15.433   4.140
48464W        W16858  26.634  20.930   4.067
48465W        W16859  31.825  21.209   1.235
48466W        W16860  44.426  35.946   0.886
48467W        W16861   8.267  31.735   3.758
48468W        W16862  13.709  34.888   3.147
48469W        W16863  28.114  44.744  13.361
48470W        W16864  18.560   2.720  12.530
48471W        W16865  27.335  35.973   1.775
48472W        W16866   8.119  40.367  14.435
48473W        W16867  34.986   8.280   0.016
48474W        W16868  35.377  36.453  14.115
48475W        W16869  15.825   2.941   4.205
48476W        W16870  12.369  28.143   2.929
48477W        W16871  42.019  11.308   4.529
48478W        W16872  18.050  11.598  13.843
48479W        W16873  16.047  15.284  13.053
48480W        W16874   1.835  37.005   3.106
48481W        W16875  17.277  32.945   0.960
48482W        W16876   0.287   5.349  14.850
48483W        W16877  17.413  14.631  12.800
48484W        W16878  19.921  27.872   3.690
48485W        W16879  23.727  12.314  14.814
48486W        W16880  35.461  28.963   1.467
48487W        W16881  10.198  33.415  12.728
48488W        W16882  41.180  11.315   2.241
48489W        W16883  41.294  26.743   4.072
48490W        W16884  28.456  26.011  14.980
48491W        W16885  25.010  38.046   5.421
48492W        W16886   4.622  30.088  12.077
48493W        W16887  34.857  30.443  13.865
48494W        W16888  38.864   8.642   1.284
48495W        W16889  19.619  25.835   1.427
48496W        W16890   3.756  30.494   2.410
48497W        W16891  11.405  19.161  14.460
48498W        W16892  37.108  31.019   4.571
48499W        W16893  17.629  21.143   0.523
48500W        W16894  11.130   1.783  11.730
48501W        W16895  15.641  37.158  12.387
48502W        W16896  35.876  19.752   0.292
48503W        W16897  17.089  38.306   1.566
48504W        W16898  10.611   5.170  10.677
48505W        W16899  24.069   0.737  13.362
48506W        W16900  19.813   2.934   0.883
48507W        W16901  19.225  20.938   0.906
48508W        W16902  30.603  39.549   3.161
48509W        W16903  13.959  34.450   0.761
48510W        W16904  22.767   9.234   3.205
48511W        W16905  29.677  11.074   0.545
48512W        W16906  21.939  10.163   0.470
48513W        W16907   9.563  40.274  14.410
48514W        W16908  19.221  33.864  10.679
48515W        W16909   2.650   3.637  13.183
48516W        W16910  10.621  34.628   3.537
48517W        W16911  38.645  40.954   3.203
48518W        W16912   8.873  13.308   0.665
48519W        W16913  24.972  23.947   1.598
48520W        W16914  42.927  35.480  14.107
48521W        W16915  22.523  21.202   4.720
48522W        W16916  35.724   4.134  11.113
48523W        W16917  18.131  40.043  14.622
48524W        W16918  20.151  30.213   3.602
48525W        W16919  18.744  32.230  12.855
48526W        W16920  18.222  33.863   2.759
48527W        W16921   9.409   0.066   3.298
48528W        W16922  18.350  23.478   2.430
48529W        W16923  43.263  34.874   9.769
48530W        W16924  18.692  18.778   2.890
48531W        W16925   0.012  28.613  13.596
48532W        W16926  32.967  44.034   0.305
48533W        W16927  39.777  22.489   4.434
48534W        W16928   2.422  39.329   1.311
48535W        W16929  30.000  16.443  12.029
48536W        W16930  36.298   0.158   5.014
48537W        W16931  39.949  28.446   0.512
48538W        W16932  42.774  22.960   3.757
48539W        W16933   0.885  32.984   3.857
48540W        W16934  40.265  37.573  11.831
48541W        W16935  31.856  10.390  14.023
48542W        W16936  11.030   6.203   2.129
48543W        W16937  36.605  32.566   3.247
48544W        W16938  25.607  27.955  11.671
48545W        W16939   2.897   9.416  10.791
48546W        W16940   0.528  11.355   4.741
48547W        W16941  38.826  27.738  11.400
48548W        W16942  42.371  41.517  11.010
48549W        W16943   0.760  41.205  13.483
48550W        W16944   5.690  21.953   0.745
48551W        W16945  38.083  22.783  12.149
48552W        W16946   3.431  19.178  11.213
48553W        W16947  36.099  33.647  11.490
48554W        W16948  21.725  19.582   1.711
48555W        W16949   4.767  40.392  14.353
48556W        W16950  28.925  36.970   1.265
48557W        W16951  18.599  17.575   1.287
48558W        W16952   8.215  12.770  11.957
48559W        W16953  28.443  27.123   3.578
48560W        W16954  44.903   2.020   1.751
48561W        W16955  43.325  36.534   2.000
48562W        W16956   4.036  43.191   4.692
48563W        W16957  33.126  24.478   3.861
48564W        W16958  34.852   7.762   3.223
48565W        W16959  41.262  24.087   3.785
48566W        W16960  29.422   9.209  13.794
48567W        W16961  33.314  42.862  14.939
48568W        W16962  37.275  41.398   2.696
48569W        W16963  43.841   2.526  13.947
48570W        W16964  25.198  13.126   0.303
48571W        W16965  30.057  38.443   2.930
48572W        W16966  13.808  33.363  12.010
48573W        W16967  12.331  34.733  13.373
48574W        W16968   3.403  27.946  10.607
48575W        W16969  18.646  32.037  11.845
48576W        W16970   7.131   3.244  11.559
48577W        W16971   7.971  42.383  13.365
48578W        W16972  27.970   4.798   1.244
48579W        W16973   7.172   1.362   4.459
48580W        W16974  22.267  22.688   3.365
48581W        W16975  25.078  29.934   0.317
48582W        W16976  24.220  29.546   3.325
48583W        W16977  43.042  43.580  12.856
48584W        W16978  18.064  29.890  12.421
48585W        W16979  31.439   7.346  13.364
48586W        W16980  11.807   5.976   0.352
48587W        W16981  29.079  44.893   0.365
48588W        W16982   0.007   2.433  14.333
48589W        W16983   8.552  13.942  13.318
48590W        W16984  32.947  29.060  12.162
48591W        W16985   9.831  24.984  11.440
48592W        W16986  37.042  17.574   3.171
48593W        W16987  32.621  11.706  13.856
48594W        W16988  10.938  20.242  12.426
48595W        W16989  16.353  34.007  13.259
48596W        W16990  34.979  29.751   3.988
48597W        W16991  20.061  22.545   3.815
48598W        W16992  14.256  16.296   4.791
48599W        W16993  29.937  14.355   0.162
48600W        W16994  30.578  38.870  12.351
48601W        W16995  26.841  39.760  10.691
48602W        W16996  43.874  40.440   1.177
48603W        W16997  34.025  41.678  11.595
48604W        W16998   0.878  25.143   1.375
48605W        W16999  28.702  28.541  12.891
48606W        W17000  11.170  34.133   0.120
48607W        W17001  22.492  29.963   2.980
48608W        W17002  42.586  15.850  12.915
48609W        W17003  15.566   1.730   2.198
48610W        W17004  22.653  31.672  13.968
48611W        W17005   1.290  26.036   4.990
48612W        W17006  40.158   7.150   3.058
48613W        W17007  13.098   6.371   0.737
48614W        W17008  13.724  14.759  11.855
48615W        W17009   6.104   8.190  10.813
48616W        W17010  16.129  35.878   3.322
48617W        W17011  30.120  11.134  10.254
48618W        W17012   2.511  18.499   1.211
48619W        W17013  26.122  25.293  12.014
48620W        W17014  28.460   9.435   3.234
48621W        W17015   1.950   4.833  14.640
48622W        W17016  29.844  27.981  10.779
48623W        W17017  24.987   7.337   3.304
48624W        W17018  33.019   6.021   2.807
48625W        W17019  28.710  32.925   0.910
48626W        W17020   3.369  28.504  11.283
48627W        W17021   4.170  21.571  14.479
48628W        W17022   0.855  14.793   3.120
48629W        W17023  40.964  16.636   4.547
48630W        W17024  17.917  15.864  10.145
48631W        W17025   3.204  44.758   3.859
48632W        W17026   6.441  38.214  12.640
48633W        W17027  42.078   8.197   1.292
48634W        W17028   0.461  10.643  12.030
48635W        W17029  42.924  38.562   5.420
48636W        W17030  16.547   5.783  13.867
48637W        W17031  41.242  26.574  12.549
48638W        W17032  25.157  24.538   0.238
48639W        W17033  17.659  19.727  13.927
48640W        W17034  10.402  14.089  12.568
48641W        W17035  26.394  26.049   4.807
48642W        W17036   0.228  16.306  14.899
48643W        W17037   4.266  26.022  14.108
48644W        W17038  18.009  37.255  10.354
48645W        W17039   4.518   1.938  13.536
48646W        W17040   5.454  31.898   2.888
48647W        W17041   6.695  34.921   0.498
48648W        W17042  24.788   1.208   1.863
48649W        W17043  32.979  30.110   1.925
48650W        W17044  28.561  36.171  10.654
48651W        W17045  34.115  29.991   4.553
48652W        W17046   6.877  34.420   1.359
48653W        W17047  12.321   9.449  10.944
48654W        W17048  34.926  22.701  14.769
48655W        W17049  39.317   9.905  11.269
48656W        W17050  14.117  11.894  14.009
48657W        W17051   5.860  42.942  10.776
48658W        W17052  43.145  41.749   0.538
48659W        W17053  20.364  16.582   4.023
48660W        W17054  23.635  24.436  12.440
48661W        W17055  16.280  14.127   3.608
48662W        W17056   2.176  12.513   2.742
48663W        W17057  35.557  27.601  13.198
48664W        W17058   6.470   5.473  13.865
48665W        W17059  42.882   8.703   3.206
48666W        W17060  38.034  30.999   1.238
48667W        W17061  12.239  31.589   1.210
48668W        W17062  15.475   5.457   0.395
48669W        W17063  33.420  11.085   4.022
48670W        W17064  41.027   4.755   2.709
48671W        W17065  32.648  36.179   1.452
48672W        W17066  18.087  18.609   1.536
48673W        W17067  10.361   1.919   0.294
48674W        W17068   2.414   7.832   2.642
48675W        W17069  43.981  40.534  11.828
48676W        W17070  34.209  16.997   1.935
48677W        W17071  16.129  26.243   3.263
48678W        W17072  39.914  24.609   0.529
48679W        W17073   0.478  13.993   3.399
48680W        W17074  29.185  42.619  12.917
48681W        W17075  37.363  40.531  11.628
48682W        W17076  34.462  42.768   0.501
48683W        W17077  30.063   3.645   5.087
48684W        W17078  12.121  30.445   2.032
48685W        W17079  44.294   4.659   0.705
48686W        W17080  35.444  11.696  12.818
48687W        W17081  14.860  27.744  13.636
48688W        W17082   0.072  29.695   1.040
48689W        W17083  23.440  19.100  13.241
48690W        W17084  35.927  32.923   2.798
48691W        W17085  38.264  19.109   3.615
48692W        W17086  33.507   2.816  14.905
48693W        W17087   5.881  11.161  11.408
48694W        W17088   6.009  36.614   4.326
48695W        W17089  39.239  16.821  13.849
48696W        W17090  10.448  34.792   5.047
48697W        W17091   2.127  42.706  11.111
48698W        W17092  22.997  34.575   1.874
48699W        W17093  26.465  10.359   0.270
48700W        W17094   7.907  37.394  10.672
48701W        W17095  36.572  19.403   1.968
48702W        W17096  24.037  39.647  13.461
48703W        W17097  35.131  44.927  12.941
48704W        W17098  14.210  13.742  14.762
48705W        W17099  16.017  15.229  12.206
48706W        W17100   1.361   8.383   3.397
48707W        W17101  38.925  21.240   2.341
48708W        W17102  40.065  13.860   1.287
48709W        W17103  24.905   4.090  11.585
48710W        W17104  22.198  34.570   2.642
48711W        W17105   5.704  15.854   3.374
48712W        W17106  11.070  33.566   0.789
48713W        W17107  33.487  10.832   1.276
48714W        W17108  36.141  40.629   1.859
48715W        W17109  28.529  16.351  11.068
48716W        W17110  11.575  17.623   2.874
48717W        W17111   3.590  37.837   1.411
48718W        W17112  20.494   6.321   3.777
48719W        W17113  43.789  20.528   3.050
48720W        W17114  20.596  24.766   3.226
48721W        W17115   3.346   7.837  12.062
48722W        W17116   7.341  30.822   4.618
48723W        W17117   8.887  43.397  14.477
48724W        W17118  12.229  15.698   1.936
48725W        W17119   4.846  16.596   2.237
48726W        W17120  19.560  11.122   3.275
48727W        W17121  42.110  24.217  11.222
48728W        W17122  38.599   0.374  13.359
48729W        W17123  35.906  39.062   4.827
48730W        W17124   4.416  21.290   3.073
48731W        W17125   8.398  42.605   0.710
48732W        W17126  11.845   1.794  10.596
48733W        W17127   3.740  43.012   3.584
48734W        W17128  38.922   6.480   1.317
48735W        W17129   2.808  43.319  13.101
48736W        W17130  15.209  31.035   2.187
48737W        W17131   6.247  42.380  13.746
48738W        W17132  33.941  11.859   1.485
48739W        W17133   6.659   7.324   2.786
48740W        W17134  29.444  17.515  11.010
48741W        W17135  15.509  41.022  12.978
48742W        W17136  21.241  25.569  13.558
48743W        W17137  35.777   1.200   2.284
48744W        W17138  35.519   1.705  13.866
48745W        W17139  38.778   9.781   0.449
48746W        W17140  17.768  42.991  11.335
48747W        W17141  11.838   6.176  10.682
48748W        W17142  33.831   3.849   1.420
48749W        W17143   1.958  38.698  13.521
48750W        W17144  27.053  11.811   2.755
48751W        W17145  32.549  24.787   2.285
48752W        W17146  22.951   4.279   2.244
48753W        W17147  39.377  41.293  11.186
48754W        W17148  35.342  32.412   4.407
48755W        W17149  38.475   5.969  10.653
48756W        W17150  19.021  38.348  13.748
48757W        W17151  21.084  43.437   1.898
48758W        W17152  29.994   3.132  14.322
48759W        W17153  19.819  15.303  11.730
48760W        W17154  11.574  33.451   0.783
48761W        W17155  14.274  13.789   4.903
48762W        W17156  10.235  33.798  12.372
48763W        W17157  25.146  17.824  14.748
48764W        W17158  15.159  23.575  13.596
48765W        W17159  42.263   1.237   1.632
48766W        W17160  35.985  14.953  14.657
48767W        W17161  27.602  31.921  13.098
48768W        W17162  27.147  35.047  11.532
48769W        W17163  42.439  14.625   0.804
48770W        W17164  26.466  13.487   4.037
48771W        W17165   5.297  35.624  14.620
48772W        W17166  35.163   9.208  12.137
48773W        W17167   0.518  37.827   3.742
48774W        W17168  15.577  19.000   3.228
48775W        W17169  34.291  11.533   1.262
48776W        W17170  17.870  30.398  12.944
48777W        W17171  31.093  10.402  13.385
48778W        W17172  39.295  26.011   0.253
48779W        W17173  25.497  22.092   3.849
48780W        W17174  25.340  36.124  11.624
48781W        W17175  37.509  29.991   4.173
48782W        W17176  36.022   7.426   2.829
48783W        W17177  35.972  43.042  14.574
48784W        W17178  12.259  18.820   2.831
48785W        W17179  24.226  10.534  10.826
48786W        W17180  28.124  35.079  13.924
48787W        W17181  21.116  14.243   4.603
48788W        W17182  17.073  14.616  12.407
48789W        W17183  11.116   8.429   4.190
48790W        W17184   6.665  23.291  14.841
48791W        W17185  25.523   3.229   0.059
48792W        W17186  26.736   1.684  14.878
48793W        W17187  10.975  22.200   3.861
48794W        W17188  36.944  38.270  10.954
48795W        W17189  39.873  14.681   2.612
48796W        W17190  27.567  19.786   0.791
48797W        W17191   7.244  29.848  14.410
48798W        W17192  11.173  42.246   1.188
48799W        W17193  17.432  13.610  11.943
48800W        W17194   8.403   7.135   1.522
48801W        W17195  37.654  34.164   2.917
48802W        W17196   9.372  38.424  14.283
48803W        W17197  10.672  37.727   2.421
48804W        W17198  36.442  21.152   1.243
48805W        W17199  14.269  22.601  10.831
48806W        W17200  44.244  40.062  13.936
48807W        W17201  21.740  34.618   1.447
48808W        W17202  17.282   8.286   4.259
48809W        W17203  27.966   5.869   4.886
48810W        W17204  27.923  32.545   3.524
48811W        W17205   5.477  34.062  12.116
48812W        W17206  26.185   0.490   3.707
48813W        W17207  15.107  12.639   4.343
48814W        W17208  22.284  44.834  12.416
48815W        W17209  27.544  43.438   0.831
48816W        W17210  37.039  12.799   4.196
48817W        W17211  15.564  36.922   1.712
48818W        W17212  37.661   1.539   0.594
48819W        W17213  22.142   4.528   0.883
48820W        W17214  19.075  41.041   3.154
48821W        W17215  25.243  20.765   0.209
48822W        W17216  19.409  43.101   4.960
48823W        W17217  42.347  28.900  10.776
48824W        W17218  15.097   9.364   0.260
48825W        W17219   2.467  39.065   0.865
48826W        W17220  38.008  17.603  14.303
48827W        W17221  17.152   4.250  14.496
48828W        W17222  16.646  20.513  11.922
48829W        W17223  29.556  29.036  10.745
48830W        W17224   1.711   2.021   3.686
48831W        W17225  17.148   5.890   4.073
48832W        W17226  42.790  31.003   0.273
48833W        W17227  15.664   1.204  12.418
48834W        W17228  24.472  20.038  14.413
48835W        W17229  16.593   7.359   1.417
48836W        W17230  34.001  15.743   2.878
48837W        W17231   0.651  13.534  13.873
48838W        W17232   8.411  31.757   0.911
48839W        W17233   0.549  37.853  10.872
48840W        W17234  13.401  36.636   0.890
48841W        W17235  11.319  29.080   1.575
48842W        W17236  34.536  33.358   0.262
48843W        W17237  11.051   1.676  12.438
48844W        W17238  40.220  32.008  11.071
48845W        W17239  19.635  44.441   3.542
48846W        W17240  32.833  36.747   4.385
48847W        W17241  27.313  13.024  10.755
48848W        W17242  29.033  23.216   0.159
48849W        W17243  23.027   8.740   4.215
48850W        W17244  35.626   3.209   0.456
48851W        W17245  34.275  40.927   4.114
48852W        W17246   3.511   0.986  11.009
48853W        W17247   3.452   2.407   1.476
48854W        W17248  42.939  22.616   2.898
48855W        W17249  44.605  15.784  13.878
48856W        W17250   9.546  33.418  12.073
48857W        W17251  32.199  32.941  13.788
48858W        W17252  20.665  39.391   0.058
48859W        W17253   3.242  35.182  13.451
48860W        W17254  29.436  24.402  14.943
48861W        W17255  10.521   0.004   1.649
48862W        W17256   2.143  30.105   0.745
48863W        W17257  24.228  13.753   0.242
48864W        W17258  21.755  16.322   1.692
48865W        W17259   7.958  25.428  11.200
48866W        W17260  25.474  24.297   5.094
48867W        W17261  31.791   7.407   1.789
48868W        W17262  23.199   5.166   1.343
48869W        W17263  18.638  14.121  14.461
48870W        W17264  33.622   2.446   3.917
48871W        W17265  34.662  13.163  13.721
48872W        W17266  32.876   9.362  14.410
48873W        W17267  37.303  37.514  13.713
48874W        W17268  43.387   3.189   1.343
48875W        W17269   9.795  13.792   0.064
48876W        W17270   1.775  38.606  10.790
48877W        W17271  38.516  27.923  12.057
48878W        W17272  39.906  31.125  11.122
48879W        W17273  18.076   6.647  14.056
48880W        W17274  25.802  22.085  13.199
48881W        W17275  36.090  24.030   0.577
48882W        W17276  24.561  21.066  14.588
48883W        W17277  32.759  11.147   4.701
48884W        W17278  44.030   6.394  13.335
48885W        W17279  39.829  22.491   0.936
48886W        W17280  10.950  33.693   0.287
48887W        W17281   8.147  36.974   0.560
48888W        W17282  10.268  43.610   0.184
48889W        W17283  15.220  13.745   2.901
48890W        W17284   8.631  38.693   2.312
48891W        W17285   8.708  31.485  14.471
48892W        W17286  19.225  41.027   4.055
48893W        W17287  19.646  41.886  13.221
48894W        W17288  29.209  16.695   0.733
48895W        W17289  35.882  21.549   4.853
48896W        W17290  29.172   9.854   2.695
48897W        W17291  40.441  26.889   0.924
48898W        W17292  28.065  33.410   3.695
48899W        W17293  13.681  34.387  11.888
48900W        W17294  26.402   8.875   4.143
48901W        W17295  40.739  21.236  14.307
48902W        W17296   1.174  17.814  12.649
48903W        W17297   3.274  12.577   4.744
48904W        W17298  11.903  15.815   4.135
48905W        W17299  43.624  29.496   1.292
48906W        W17300  20.080  33.931  10.990
48907W        W17301  17.594  41.901   2.795
48908W        W17302  27.803   4.974   4.077
48909W        W17303  42.031  36.874   4.183
48910W        W17304   7.792  19.184   4.613
48911W        W17305  42.954  23.202  11.548
48912W        W17306  36.776  15.111   2.641
48913W        W17307  24.159   2.358  13.438
48914W        W17308  22.753  44.474   3.226
48915W        W17309  15.143   5.473  12.930
48916W        W17310  17.918  36.312  14.059
48917W        W17311  43.962  25.217   2.233
48918W        W17312  28.625   1.341   0.970
48919W        W17313  43.284  41.702  10.564
48920W        W17314  23.131   4.521  10.737
48921W        W17315  19.601  38.905   0.402
48922W        W17316  11.778   6.167  12.945
48923W        W17317   9.930   3.909   3.237
48924W        W17318   5.354   4.322  12.623
48925W        W17319  40.355  25.158   4.463
48926W        W17320   1.490  24.511   2.862
48927W        W17321  18.494  22.290   3.094
48928W        W17322  36.862  28.190   4.496
48929W        W17323  18.357  28.358  12.834
48930W        W17324  38.723  37.827   4.023
48931W        W17325  25.044  36.422  11.275
48932W        W17326  32.145  23.624   3.174
48933W        W17327   0.410   4.013  12.982
48934W        W17328   7.167  25.197  11.637
48935W        W17329  34.048  31.620  12.141
48936W        W17330  19.492  29.085  12.598
48937W        W17331  22.135  12.178  10.924
48938W        W17332   7.913   0.494   1.664
48939W        W17333   8.826  26.867  12.644
48940W        W17334  40.245   3.858  13.002
48941W        W17335  23.974  21.276   4.691
48942W        W17336  29.438   9.729   3.197
48943W        W17337  26.961   3.290  13.967
48944W        W17338   4.303  44.803   0.386
48945W        W17339  16.089  12.785   3.198
48946W        W17340  40.543  13.806   2.203
48947W        W17341  20.301  20.210   5.282
48948W        W17342   2.217  29.053   2.775
48949W        W17343  18.608  40.468   4.584
48950W        W17344  29.139  11.652  13.844
48951W        W17345  22.180  12.148  13.002
48952W        W17346  31.952   7.721   2.330
48953W        W17347  24.587  27.081  10.461
48954W        W17348   0.475  37.953  14.221
48955W        W17349  41.849  26.404   2.328
48956W        W17350  44.244  40.351  12.647
48957W        W17351  34.599  21.605  12.139
48958W        W17352  23.680  44.703  11.118
48959W        W17353  14.647  44.453   0.067
48960W        W17354  43.271  33.406   2.230
48961W        W17355  23.700  43.035   2.548
48962W        W17356  34.171  33.743   3.046
48963W        W17357  40.013  44.463  10.616
48964W        W17358  35.400  39.617   0.217
48965W        W17359   0.129  16.107  11.999
48966W        W17360  31.015   5.228  14.904
48967W        W17361  16.666  42.174  10.487
48968W        W17362  19.714  38.081   1.123
48969W        W17363  28.921  15.833  12.922
48970W        W17364   3.372  31.102  14.721
48971W        W17365   5.876  15.392   0.013
48972W        W17366  32.875  16.955   2.997
48973W        W17367  21.405  21.754  11.013
48974W        W17368  18.226  29.242  11.097
48975W        W17369   6.747  27.309   9.830
48976W        W17370  10.256  31.454   3.807
48977W        W17371  30.884  34.322   4.500
48978W        W17372   3.017  13.523  11.280
48979W        W17373  40.356  15.007   3.049
48980W        W17374   3.702   9.374  13.938
48981W        W17375   9.184  34.494  13.156
48982W        W17376  39.439  14.583  11.480
48983W        W17377  30.036  29.571   3.155
48984W        W17378  28.000   4.665  12.859
48985W        W17379  22.094  13.851   1.684
48986W        W17380  33.135   5.181   3.771
48987W        W17381  21.493   7.965   4.186
48988W        W17382  24.476  39.476   0.275
48989W        W17383   2.970  15.359   1.730
48990W        W17384  30.245   8.826  12.467
48991W        W17385  26.339  20.346   5.113
48992W        W17386   4.902  18.011   2.821
48993W        W17387   5.825  43.913  14.897
48994W        W17388  10.121   7.252   1.325
48995W        W17389  36.056  42.652  14.183
48996W        W17390  10.718   6.763   1.770
48997W        W17391  27.010  30.173  14.062
48998W        W17392  43.976  27.536  11.966
48999W        W17393  22.593  43.182  11.580
49000W        W17394  20.159  25.127  14.459
49001W        W17395  26.432  28.432   2.774
49002W        W17396  11.663  28.761   1.852
49003W        W17397   6.603  20.111  12.592
49004W        W17398  38.442  10.647   2.366
49005W        W17399   4.170  26.260  11.757
49006W        W17400  33.993  35.493   4.472
49007W        W17401  39.862  32.303  11.348
49008W        W17402   4.791   6.357   0.495
49009W        W17403  21.200  33.683   5.022
49010W        W17404  24.551   0.013  14.306
49011W        W17405  29.142  11.088  11.174
49012W        W17406  34.028  11.161  11.901
49013W        W17407  39.981  34.328  14.901
49014W        W17408  10.685  31.194   3.955
49015W        W17409  22.882  10.614   2.934
49016W        W17410   2.245  16.220   0.219
49017W        W17411   5.461  11.051  12.530
49018W        W17412   6.632   2.921   4.050
49019W        W17413  36.434  28.275   1.204
49020W        W17414  23.926   7.449  12.568
49021W        W17415   2.969  43.994   4.216
49022W        W17416  17.712  18.683   4.088
49023W        W17417  36.108  13.743   0.760
49024W        W17418  24.066  15.214   3.275
49025W        W17419  21.780  25.074   0.435
49026W        W17420  23.596  32.647  12.881
49027W        W17421  28.368  30.479  14.985
49028W        W17422  13.888  11.904   5.071
49029W        W17423  13.022  30.518  12.534
49030W        W17424  40.876  12.760  12.057
49031W        W17425   7.092   8.418   4.479
49032W        W17426  43.720   8.311  13.591
49033W        W17427  36.514  26.804   5.257
49034W        W17428  43.910  38.807   1.081
49035W        W17429  27.632  11.629   3.828
49036W        W17430  14.261  26.967  13.942
49037W        W17431  24.215  41.482   9.893
49038W        W17432  19.033  43.952  10.889
49039W        W17433  16.972  24.952   5.055
49040W        W17434  21.895  43.270  14.482
49041W        W17435  22.978  38.534  11.602
49042W        W17436  43.803  16.314   1.003
49043W        W17437  12.653   0.951  11.611
49044W        W17438  31.952  22.978   2.265
49045W        W17439  13.865  27.023  13.630
49046W        W17440  20.115  33.037   0.939
49047W        W17441  29.499  31.431   4.832
49048W        W17442   2.305  28.052   4.822
49049W        W17443  44.402  21.266   3.025
49050W        W17444  10.723  34.241   2.587
49051W        W17445  23.672  22.776  10.745
49052W        W17446  14.289  22.532   0.249
49053W        W17447   4.725  13.631   0.390
49054W        W17448   6.908  37.618  10.687
49055W        W17449  35.565  42.744  14.357
49056W        W17450  11.822  13.769   4.580
49057W        W17451  27.760  41.682   2.135
49058W        W17452   3.041   0.806  12.074
49059W        W17453   2.796  26.165  12.622
49060W        W17454  35.175  39.484  12.061
49061W        W17455  19.112  20.053   1.761
49062W        W17456  11.677  24.761  12.553
49063W        W17457  41.013   2.189  11.089
49064W        W17458  12.678  26.716   2.911
49065W        W17459  24.546  14.532   2.510
49066W        W17460  11.156  37.338   0.445
49067W        W17461  41.733  14.236  13.112
49068W        W17462  33.645  30.105   0.650
49069W        W17463  12.728   2.358  13.117
49070W        W17464  23.966  28.411   0.406
49071W        W17465  18.696  25.572   4.056
49072W        W17466   1.464   5.321  11.380
49073W        W17467  44.099  43.989  13.324
49074W        W17468  37.927  27.403  12.946
49075W        W17469  39.760  12.693   0.977
49076W        W17470  22.463  38.565  11.631
49077W        W17471   5.319  23.435  10.625
49078W        W17472   2.552  29.445  14.521
49079W        W17473   9.128   4.819  13.433
49080W        W17474  11.504  11.839   4.705
49081W        W17475   3.239  23.073  11.201
49082W        W17476  40.068   8.210   0.381
49083W        W17477  11.313  12.999   4.760
49084W        W17478  44.910  43.480   1.002
49085W        W17479  26.506   1.024  11.116
49086W        W17480   4.730  41.436  11.221
49087W        W17481   0.041  43.932  11.998
49088W        W17482  14.793  21.057  12.195
49089W        W17483  11.889   9.204  14.338
49090W        W17484  24.012  30.120   0.963
49091W        W17485  19.033  43.914  13.410
49092W        W17486  40.676  29.894   1.475
49093W        W17487   8.718  15.013  14.945
49094W        W17488  20.906  15.613  13.352
49095W        W17489  26.089  30.171   0.875
49096W        W17490  41.306   0.488   3.498
49097W        W17491  30.359   2.956   2.469
49098W        W17492  32.975  20.971   1.999
49099W        W17493  13.940  27.372   1.713
49100W        W17494  12.152   9.579  13.329
49101W        W17495  18.675  21.038   0.571
49102W        W17496   9.643  26.753  12.387
49103W        W17497   9.906  18.152   1.910
49104W        W17498   7.558  21.419  11.159
49105W        W17499  44.690  20.649   4.495
49106W        W17500  20.617   1.011   2.400
49107W        W17501  16.692  31.196   1.323
49108W        W17502  27.977  38.861  13.971
49109W        W17503  27.674   8.323  14.681
49110W        W17504   5.715   5.997  11.180
49111W        W17505   9.683  25.987  13.343
49112W        W17506  43.257  35.434   1.488
49113W        W17507  38.993  15.574   0.294
49114W        W17508  39.964  16.658  12.899
49115W        W17509  44.016   8.349   0.505
49116W        W17510  23.253  20.242   0.443
49117W        W17511  22.085  30.087   2.664
49118W        W17512  25.181  11.244   0.658
49119W        W17513  26.234  20.048  14.361
49120W        W17514  18.025  11.712   3.176
49121W        W17515   8.378  28.068  12.394
49122W        W17516  16.264  37.589  14.078
49123W        W17517  35.783  18.805  14.071
49124W        W17518   7.199  31.054   1.980
49125W        W17519  10.880  21.023   4.929
49126W        W17520   4.455  21.723  11.361
49127W        W17521  41.981  35.877   4.538
49128W        W17522   0.962   6.859   1.687
49129W        W17523  13.438  36.344  14.902
49130W        W17524  10.825  41.943   0.255
49131W        W17525  39.833  35.988  11.967
49132W        W17526  23.969  34.372  14.920
49133W        W17527   4.824  30.445   0.914
49134W        W17528   7.151  37.750  11.149
49135W        W17529   2.302  26.323  10.664
49136W        W17530   7.054  19.090  11.362
49137W        W17531  15.130  39.630  12.058
49138W        W17532  16.553  11.855  14.799
49139W        W17533  42.348  36.400   1.911
49140W        W17534  13.291   4.760  14.616
49141W        W17535   6.006  26.850   2.276
49142W        W17536   8.700  16.230  11.092
49143W        W17537  44.459  24.286   3.212
49144W        W17538  28.798   8.386  12.157
49145W        W17539  17.899  33.442   1.995
49146W        W17540  32.106  15.171  13.868
49147W        W17541   8.405  19.719   4.366
49148W        W17542  38.958   0.399   0.546
49149W        W17543  36.461  18.699  12.406
49150W        W17544  15.778   8.271   2.276
49151W        W17545  12.397  23.611  11.037
49152W        W17546   4.793  20.055   2.017
49153W        W17547  10.128  19.153  12.064
49154W        W17548  21.058  39.254  13.821
49155W        W17549  14.397  21.098   0.796
49156W        W17550  40.573  30.092   4.577
49157W        W17551  43.503   7.170   2.487
49158W        W17552  22.197  20.129  14.341
49159W        W17553   7.932  42.726   2.214
49160W        W17554   9.705  17.532  12.586
49161W        W17555  41.103   1.986   3.713
49162W        W17556  32.974   7.246   2.873
49163W        W17557  35.677  35.320  11.691
49164W        W17558   7.883  40.508  10.558
49165W        W17559  24.392  43.920   2.176
49166W        W17560  18.229  29.586  14.349
49167W        W17561  24.020  16.331  10.753
49168W        W17562  40.048  40.843  13.007
49169W        W17563  25.951   4.457   4.202
49170W        W17564  35.129  33.039  10.927
49171W        W17565  11.908  25.687  11.584
49172W        W17566  44.872  23.732   3.775
49173W        W17567  37.089  14.133  12.674
49174W        W17568  44.979  21.395   4.599
49175W        W17569  12.657  27.066   2.277
49176W        W17570  39.411  18.587  14.977
49177W        W17571   1.889   2.225  14.606
49178W        W17572  39.947  35.556  11.685
49179W        W17573  21.810  15.632   4.636
49180W        W17574  15.208  11.372  12.506
49181W        W17575  15.039  29.006  13.432
49182W        W17576  37.410  20.822  11.175
49183W        W17577   7.304  43.354   0.177
49184W        W17578   5.863  27.823   4.730
49185W        W17579  44.447  39.464   1.750
49186W        W17580  13.098  17.148   2.288
49187W        W17581  20.535  44.820  14.045
49188W        W17582  28.199  42.312  14.706
49189W        W17583   7.751   0.402  11.616
49190W        W17584  25.957  39.954   0.343
49191W        W17585  16.201   9.952  10.672
49192W        W17586  23.820  26.330  13.522
49193W        W17587   4.390   4.037   1.420
49194W        W17588  13.685  35.846   1.727
49195W        W17589  41.369  25.113   4.576
49196W        W17590  21.504  44.213   3.925
49197W        W17591   2.728  38.841   3.225
49198W        W17592  19.462  37.133   4.594
49199W        W17593  23.301  24.680   4.087
49200W        W17594  13.706  43.415  13.268
49201W        W17595   1.020  10.568   3.748
49202W        W17596  27.263  15.588  14.561
49203W        W17597  44.917  23.542  13.460
49204W        W17598  16.825  27.933  12.713
49205W        W17599   5.163  38.997  14.789
49206W        W17600   8.884   4.703  13.910
49207W        W17601   8.151  20.575   0.750
49208W        W17602  18.474  12.113  10.646
49209W        W17603  35.064   8.462  10.700
49210W        W17604   4.628  39.909  13.426
49211W        W17605  40.071  34.423  13.369
49212W        W17606  20.035  12.518   1.875
49213W        W17607  34.664   4.312  12.915
49214W        W17608  13.403   6.740   0.518
49215W        W17609   8.660  36.008  11.497
49216W        W17610  23.455  35.413   4.014
49217W        W17611  29.610   7.948   2.244
49218W        W17612  12.198   7.258  12.357
49219W        W17613  13.363  35.618   2.795
49220W        W17614  11.476   9.568   2.794
49221W        W17615  38.079  12.633   1.119
49222W        W17616  18.155   6.747   0.264
49223W        W17617  44.806   0.235   0.478
49224W        W17618  15.443  11.179   2.350
49225W        W17619  32.896  19.707  14.661
49226W        W17620  11.121   5.491   4.155
49227W        W17621  23.664  38.902   4.091
49228W        W17622  27.158   3.165  13.457
49229W        W17623  23.307  15.781  12.977
49230W        W17624  34.825  13.976  10.504
49231W        W17625  43.752  43.476   2.381
49232W        W17626  19.297  10.086  13.356
49233W        W17627  24.689  32.475  10.637
49234W        W17628  30.212  10.820   1.439
49235W        W17629  26.069  27.032   0.868
49236W        W17630  21.395   6.153  11.175
49237W        W17631  25.442  34.057   3.082
49238W        W17632  13.921  29.587   2.730
49239W        W17633   5.052  35.998  11.448
49240W        W17634  24.681   0.544   0.593
49241W        W17635  21.604  28.662   3.766
49242W        W17636   3.454  19.773  12.066
49243W        W17637  13.679  28.936  12.523
49244W        W17638   1.283   7.508  12.431
49245W        W17639  12.357  41.248   3.217
49246W        W17640  18.370  19.219   4.448
49247W        W17641  34.532  23.396  12.723
49248W        W17642  40.306  26.910  14.903
49249W        W17643  30.116  41.716   0.836
49250W        W17644  24.533  15.094   0.440
49251W        W17645  41.420  23.228   1.974
49252W        W17646   1.518  20.641   3.989
49253W        W17647   8.107  35.885  10.643
49254W        W17648  33.919  34.279   1.901
49255W        W17649  11.936   4.760  13.868
49256W        W17650  20.111  10.158  11.475
49257W        W17651  33.332   6.881   2.847
49258W        W17652  36.399  14.836  14.961
49259W        W17653  16.319  28.124   2.085
49260W        W17654  37.750  44.565  14.461
49261W        W17655  42.927  22.570  14.058
49262W        W17656  26.016   8.715  12.172
49263W        W17657   7.812  27.416  13.427
49264W        W17658  12.247  36.303   2.109
49265W        W17659  36.438  30.886  11.557
49266W        W17660  31.665  21.403   1.671
49267W        W17661  15.808  40.829  10.601
49268W        W17662  13.262  20.811   3.121
49269W        W17663  13.339   9.510  13.300
49270W        W17664  16.018   4.253  13.395
49271W        W17665  17.646  37.825   2.773
49272W        W17666   7.307  44.072   3.332
49273W        W17667  32.350  10.845  13.347
49274W        W17668  33.437   3.447   1.379
49275W        W17669  41.648   9.805   4.780
49276W        W17670  23.566   5.497  13.036
49277W        W17671   5.260   1.405   3.455
49278W        W17672  19.204  14.486  12.971
49279W        W17673  34.380   9.776  13.020
49280W        W17674  15.935  40.556  13.213
49281W        W17675   9.815  35.517   3.593
49282W        W17676  33.610  31.246  14.469
49283W        W17677  24.987   6.932   2.208
49284W        W17678  10.167  18.179  11.068
49285W        W17679  11.248   3.207   3.649
49286W        W17680  32.989  27.636   3.227
49287W        W17681   5.202  28.907   2.775
49288W        W17682  27.913  37.603   4.524
49289W        W17683  35.166  39.192   2.331
49290W        W17684  25.286   7.845   1.741
49291W        W17685  26.387  44.340  13.949
49292W        W17686  28.449  11.869  11.987
49293W        W17687   1.154   9.465  14.892
49294W        W17688  42.531  44.961  10.777
49295W        W17689  14.533  44.278  10.792
49296W        W17690  14.187  14.587  11.985
49297W        W17691  20.188  33.484  10.751
49298W        W17692   1.048  44.045  12.070
49299W        W17693  22.941  26.228  12.487
49300W        W17694  16.636  40.922   1.983
49301W        W17695   1.416   7.941   3.678
49302W        W17696  37.161  35.085   3.740
49303W        W17697  37.625   5.496  12.769
49304W        W17698   0.993  31.790  10.621
49305W        W17699  39.033  33.392   0.309
49306W        W17700  30.860  41.010   0.069
49307W        W17701   9.089   6.657  14.063
49308W        W17702  25.966  44.505  12.476
49309W        W17703   6.528  28.788   1.269
49310W        W17704  36.951   6.497   2.725
49311W        W17705   9.106  31.842  11.953
49312W        W17706  29.946  27.602   4.088
49313W        W17707  26.002  30.556  10.450
49314W        W17708  39.865  23.475   0.828
49315W        W17709   0.363  44.945   3.346
49316W        W17710   6.246   1.498  12.922
49317W        W17711  11.351  15.212  11.614
49318W        W17712  30.593  33.667   0.947
49319W        W17713  44.922  20.720  11.415
49320W        W17714   1.971   0.751  13.056
49321W        W17715  16.134  30.642  14.675
49322W        W17716  28.531  19.013   1.834
49323W        W17717  13.691  21.206  14.400
49324W        W17718  41.174  15.622   4.893
49325W        W17719   6.941  25.678   0.214
49326W        W17720  28.159  34.119   0.278
49327W        W17721  23.111  13.420  14.876
49328W        W17722  22.914  44.924  12.797
49329W        W17723  26.595   6.416   1.534
49330W        W17724   2.406  26.028   2.368
49331W        W17725  17.634   9.466  12.603
49332W        W17726  27.203   2.908  11.653
49333W        W17727   7.957  22.784   3.853
49334W        W17728  29.393  38.624  13.007
49335W        W17729  23.558  27.239  13.321
49336W        W17730  34.188  42.993   4.231
49337W        W17731   3.347  26.928   3.572
49338W        W17732  30.767  17.778  12.634
49339W        W17733   9.329   6.239  10.761
49340W        W17734  36.506  12.633   3.406
49341W        W17735  29.862  24.039  13.713
49342W        W17736  37.416  41.965  14.801
49343W        W17737  36.089  39.807  11.741
49344W        W17738  40.565  41.251   1.240
49345W        W17739  34.919   0.836  10.742
49346W        W17740  21.049  25.661  11.232
49347W        W17741  42.315   8.893  10.934
49348W        W17742  38.446  15.460   0.328
49349W        W17743  23.508  11.368   0.339
49350W        W17744  15.615  10.794  11.030
49351W        W17745  42.845  35.268   2.323
49352W        W17746  13.740  25.053  10.779
49353W        W17747  32.641  36.847  13.726
49354W        W17748  19.184  32.255   4.000
49355W        W17749  42.981  35.325   3.238
49356W        W17750   5.252  16.557  11.049
49357W        W17751  20.129   8.473   0.306
49358W        W17752  30.643  10.672  14.849
49359W        W17753  43.587  15.743  12.858
49360W        W17754  15.181   5.203   9.874
49361W        W17755  14.267  26.776  11.889
49362W        W17756   5.404  43.417   2.322
49363W        W17757  32.435  19.496  12.474
49364W        W17758  12.811  38.395   3.751
49365W        W17759  43.064   5.568   2.626
49366W        W17760  44.319   9.239  14.284
49367W        W17761  31.897   6.346   1.348
49368W        W17762  24.021   4.919  11.502
49369W        W17763  22.487  15.641  12.551
49370W        W17764  34.460   8.728  12.829
49371W        W17765   7.890  20.691   1.202
49372W        W17766   2.203  38.021  11.453
49373W        W17767  14.372  37.230  13.415
49374W        W17768   8.060  41.507  11.186
49375W        W17769  32.357  23.569  14.710
49376W        W17770  40.037   3.298   1.441
49377W        W17771  15.820  31.029  13.411
49378W        W17772  19.579   8.453  10.561
49379W        W17773  31.400  27.504  12.570
49380W        W17774  21.545  12.720  14.334
49381W        W17775  20.017   9.780   1.785
49382W        W17776   4.393  20.097   2.320
49383W        W17777  14.259  11.512  10.588
49384W        W17778  20.784  44.492  12.270
49385W        W17779  13.323  19.323  13.852
49386W        W17780  28.304  31.786  11.577
49387W        W17781  18.093  16.093  10.862
49388W        W17782   8.277  11.670   0.722
49389W        W17783  14.100  23.986  12.140
49390W        W17784   6.433  38.235   3.071
49391W        W17785  10.438  42.490  13.491
49392W        W17786  12.857  10.904   4.542
49393W        W17787  23.078  38.605  10.595
49394W        W17788  29.619  44.726   0.833
49395W        W17789  32.861  38.432  12.047
49396W        W17790  12.962  42.367   0.587
49397W        W17791  25.423  42.782  14.800
49398W        W17792  12.230  16.916  14.070
49399W        W17793  15.188  44.081  12.014
49400W        W17794  28.167  38.803   3.767
49401W        W17795   6.270  29.908  10.515
49402W        W17796  13.024   6.876  10.945
49403W        W17797  14.291  22.246  12.446
49404W        W17798  29.764  19.168  12.456
49405W        W17799  39.394   0.380  14.302
49406W        W17800  21.402  23.733   3.176
49407W        W17801   0.273  16.871  12.594
49408W        W17802  13.699  26.699   2.776
49409W        W17803  23.816  10.641   4.910
49410W        W17804   1.376   1.228  13.839
49411W        W17805   2.044  23.133   4.882
49412W        W17806  28.442  32.520   3.367
49413W        W17807   6.872  22.145   1.261
49414W        W17808   5.807   5.936  12.074
49415W        W17809  32.152  11.244  14.490
49416W        W17810  31.580  29.403   3.724
49417W        W17811  24.076   0.201   2.387
49418W        W17812  20.791  29.193  10.760
49419W        W17813  22.255   3.844  12.898
49420W        W17814  27.223  28.617   2.666
49421W        W17815   2.830   1.798   3.133
49422W        W17816   5.864  12.095   0.314
49423W        W17817  32.507   1.840   1.300
49424W        W17818  39.843  44.976   3.101
49425W        W17819  16.063  13.069   0.248
49426W        W17820  30.196  17.053   3.233
49427W        W17821  36.469  31.504  13.428
49428W        W17822  13.675  23.752   1.911
49429W        W17823   7.216  20.694  12.518
49430W        W17824   7.815  11.293  14.042
49431W        W17825  32.716  41.949   1.410
49432W        W17826  31.972   6.679  14.600
49433W        W17827  31.404   1.206  12.495
49434W        W17828  12.512   5.292  10.080
49435W        W17829  20.671  32.991   0.147
49436W        W17830  30.974  29.653  12.822
49437W        W17831   9.916  12.356   4.027
49438W        W17832  38.851  37.577   0.934
49439W        W17833   6.942   6.287   1.716
49440W        W17834  43.473   7.638   2.820
49441W        W17835   6.792  41.019   2.780
49442W        W17836  22.414  42.772  13.402
49443W        W17837  26.085   9.236  11.181
49444W        W17838  42.743  32.096  14.958
49445W        W17839  11.593  23.547   3.637
49446W        W17840   5.203   0.865   2.215
49447W        W17841  36.624  43.026   2.823
49448W        W17842  18.391  22.501   2.127
49449W        W17843  41.417  42.026   2.241
49450W        W17844  17.608   3.459  14.435
49451W        W17845  30.610  11.161   1.343
49452W        W17846  11.373  31.552  12.445
49453W        W17847  22.581  42.696  11.760
49454W        W17848  30.964  26.520   4.065
49455W        W17849  15.702  30.430  14.855
49456W        W17850  27.427   2.575   4.706
49457W        W17851  25.722   2.492  14.426
49458W        W17852  16.687  43.949  11.149
49459W        W17853  42.269   9.263   3.760
49460W        W17854  18.075  15.055  12.580
49461W        W17855  14.414  37.964   4.909
49462W        W17856   7.739   9.213  14.093
49463W        W17857  22.620  32.530   1.808
49464W        W17858  22.818  44.031  13.924
49465W        W17859  38.351  43.533   0.052
49466W        W17860  19.593  26.446  11.622
49467W        W17861  37.896   5.128  12.018
49468W        W17862  11.403  42.039  10.719
49469W        W17863  13.227  35.939  13.496
49470W        W17864  25.629  43.467   0.419
49471W        W17865   5.471   0.375   2.265
49472W        W17866  18.683  23.332   1.950
49473W        W17867  32.580  20.477   2.802
49474W        W17868  20.614   5.119  14.001
49475W        W17869  21.997  15.421  12.564
49476W        W17870  42.682  26.206  12.464
49477W        W17871  24.642  21.552  14.331
49478W        W17872  10.229   7.374  14.899
49479W        W17873  14.714  36.017  10.770
49480W        W17874  15.570  42.422  12.975
49481W        W17875  29.545   5.304  13.580
49482W        W17876   1.861  20.268  11.534
49483W        W17877  22.109   3.947  13.890
49484W        W17878  22.053  14.755   0.767
49485W        W17879  41.488  39.420  11.187
49486W        W17880  38.383  17.648  13.317
49487W        W17881  16.088  40.499  12.703
49488W        W17882  43.349   6.643   4.745
49489W        W17883  43.457  25.036  13.965
49490W        W17884  28.921  13.003   1.896
49491W        W17885   8.768  33.523   4.017
49492W        W17886  36.548  16.160  14.019
49493W        W17887  30.636  40.398  13.475
49494W        W17888  13.305  39.716  10.127
49495W        W17889  29.444   2.079   4.604
49496W        W17890  36.953   7.684   4.857
49497W        W17891  26.523   3.408  11.225
49498W        W17892   0.738  33.890   1.373
49499W        W17893  20.135   8.754   0.891
49500W        W17894  18.096  28.304   0.818
49501W        W17895  14.725  14.668   1.016
49502W        W17896  14.131  15.094  10.702
49503W        W17897  35.838   5.491   0.860
49504W        W17898  24.715   1.913  11.629
49505W        W17899  30.174  17.588   3.219
49506W        W17900   9.757  36.867   1.581
49507W        W17901  21.173   1.413  13.367
49508W        W17902  39.540  31.460   1.997
49509W        W17903  11.139   5.884  14.953
49510W        W17904  28.550  31.442   3.311
49511W        W17905  40.520  25.582   1.904
49512W        W17906   6.169  42.288   3.132
49513W        W17907  37.481  14.647  13.143
49514W        W17908  11.647  37.060   1.731
49515W        W17909  26.243  34.365   3.659
49516W        W17910  40.582   6.977  12.604
49517W        W17911  25.669  42.750   0.263
49518W        W17912   3.887   5.049   1.750
49519W        W17913  34.388  44.835  12.539
49520W        W17914  11.862  22.825  14.733
49521W        W17915  34.474  22.639   4.536
49522W        W17916  43.452  18.882   0.391
49523W        W17917  43.964  16.140   3.911
49524W        W17918   6.552   5.926  13.042
49525W        W17919  40.544   0.217  14.990
49526W        W17920   9.442  27.366  13.000
49527W        W17921  35.333   6.511   5.289
49528W        W17922  19.510  25.138   9.904
49529W        W17923  35.987  32.552   0.203
49530W        W17924  29.048  36.616  12.034
49531W        W17925  13.341   3.739   4.132
49532W        W17926  20.537  38.041   3.269
49533W        W17927  14.198  30.015  11.896
49534W        W17928   0.714  33.560   0.291
49535W        W17929   1.205   4.069   2.694
49536W        W17930  42.809  15.601  12.521
49537W        W17931   4.422  32.901   3.807
49538W        W17932  36.029  24.799  12.990
49539W        W17933  31.507   3.960  11.115
49540W        W17934  38.670  19.729   1.936
49541W        W17935   7.844  43.016  10.349
49542W        W17936  44.384  11.674   1.964
49543W        W17937   4.215  19.008  13.960
49544W        W17938  16.654  18.233   4.328
49545W        W17939  23.619  21.817  12.205
49546W        W17940   6.580  19.007  11.160
49547W        W17941  40.065  43.227  11.996
49548W        W17942   5.497   2.735   1.780
49549W        W17943  20.094  37.869  13.052
49550W        W17944  38.469   2.390  13.581
49551W        W17945  38.545  14.225   3.957
49552W        W17946  30.824  29.138   2.788
49553W        W17947   9.672  36.020   0.199
49554W        W17948   6.289  13.429  14.819
49555W        W17949  44.763  38.909   2.898
49556W        W17950  18.963  26.665   3.684
49557W        W17951  14.198  28.363   3.691
49558W        W17952  34.865  20.075  13.389
49559W        W17953  13.813  17.371  13.303
49560W        W17954  22.277  26.378  14.329
49561W        W17955   9.310  24.969  14.870
49562W        W17956  34.072  26.161   4.588
49563W        W17957   9.258  10.933   3.080
49564W        W17958  44.531   8.644   9.710
49565W        W17959   4.173  41.796  14.406
49566W        W17960  42.020  30.380  12.211
49567W        W17961  24.368  13.301  12.580
49568W        W17962  13.948  17.573   4.301
49569W        W17963   9.713  11.642  14.964
49570W        W17964  37.464   0.884  11.630
49571W        W17965  44.041  34.631   0.344
49572W        W17966   8.062   2.214  14.359
49573W        W17967   4.180  12.851   2.803
49574W        W17968   0.398  22.760  11.596
49575W        W17969  15.228  20.740   3.348
49576W        W17970  26.418  34.444   2.750
49577W        W17971  31.602  38.479   3.383
49578W        W17972  22.939  41.907   4.586
49579W        W17973  44.817  33.618   2.047
49580W        W17974  43.508   6.240   2.262
49581W        W17975  30.102  44.741   4.615
49582W        W17976   7.820   5.871   3.620
49583W        W17977   0.159  44.906   1.307
49584W        W17978  42.858  40.090  10.112
49585W        W17979  37.147  23.716  13.889
49586W        W17980  14.195   4.709  13.560
49587W        W17981  21.609  13.622   3.809
49588W        W17982  28.156  22.997   0.063
49589W        W17983  27.856  33.123   2.275
49590W        W17984   1.220   7.109  14.326
49591W        W17985  38.998  18.742   0.915
49592W        W17986   5.764  29.892   2.297
49593W        W17987  12.038  38.874   3.781
49594W        W17988   2.791  40.133   0.363
49595W        W17989  41.279  29.471   4.202
49596W        W17990   9.697  17.851  11.760
49597W        W17991  16.937   1.447  11.829
49598W        W17992  18.580  18.309  11.165
49599W        W17993  16.696  43.634  13.615
49600W        W17994  21.275  42.092   1.816
49601W        W17995   0.714  31.668   1.727
49602W        W17996  24.510  29.428   4.137
49603W        W17997   1.404  27.508  12.270
49604W        W17998  21.890  32.949   4.768
49605W        W17999  18.808  25.542  12.497
49606W        W18000   4.954  38.129  11.118
49607W        W18001   8.361  32.466  12.991
49608W        W18002   7.241  42.853  11.983
49609W        W18003   3.221  36.063  10.779
49610W        W18004  13.063   6.947   3.606
49611W        W18005  13.782  14.156  12.516
49612W        W18006  18.110  20.066   1.159
49613W        W18007  11.078   1.417   2.884
49614W        W18008  21.518  22.413   1.814
49615W        W18009  17.889  26.863   1.777
49616W        W18010  33.595   2.145  12.797
49617W        W18011  15.076   1.646  12.966
49618W        W18012   6.711  27.470   2.646
49619W        W18013  24.011  36.793  13.868
49620W        W18014  11.741  42.382  12.463
49621W        W18015  20.672  40.977  11.538
49622W        W18016  33.642  26.524  11.998
49623W        W18017  34.608   7.882  11.194
49624W        W18018  28.459  38.980  10.726
49625W        W18019  30.657  15.793   5.037
49626W        W18020  44.889  22.151  13.786
49627W        W18021  11.457  37.959   0.969
49628W        W18022  37.494  19.754   2.568
49629W        W18023  29.688  22.797   0.953
49630W        W18024  26.258  35.632   3.459
49631W        W18025  30.532  37.895  14.041
49632W        W18026  33.489  24.774   0.443
49633W        W18027  14.908  40.390   2.736
49634W        W18028  39.437   7.747   1.376
49635W        W18029  11.135  35.613  12.213
49636W        W18030  35.425   0.475  14.422
49637W        W18031  44.756  21.600  11.881
49638W        W18032  19.091  19.121   2.930
49639W        W18033   1.203  17.071  10.473
49640W        W18034  30.727   3.754   3.834
49641W        W18035  27.684  23.323   2.301
49642W        W18036  14.181  28.715  11.497
49643W        W18037  36.170  24.726   1.392
49644W        W18038  21.886  14.067  12.161
49645W        W18039  31.626  13.566   1.982
49646W        W18040  10.128   4.875  13.237
49647W        W18041  25.755  37.901  13.429
49648W        W18042  23.264  14.707  11.090
49649W        W18043   3.931  37.948   1.029
49650W        W18044  42.510  41.280  13.312
49651W        W18045  44.530   0.203   4.262
49652W        W18046  18.588   9.990  12.171
49653W        W18047  36.063   7.942  14.383
49654W        W18048  23.686   6.371   4.812
49655W        W18049  36.876   7.004  11.511
49656W        W18050   0.406   4.039  14.055
49657W        W18051  41.040   6.466  14.880
49658W        W18052  16.181  19.675   2.107
49659W        W18053   6.604   9.829   0.785
49660W        W18054  22.483   2.517  10.526
49661W        W18055  35.931  13.369  14.778
49662W        W18056  19.858  15.051   1.267
49663W        W18057  19.674   3.991  12.220
49664W        W18058  37.547  25.610   3.723
49665W        W18059  35.134  22.265  12.233
49666W        W18060  22.553  20.778  11.208
49667W        W18061   2.999  10.272   0.243
49668W        W18062  21.037  34.286   2.742
49669W        W18063  44.076  19.166  14.561
49670W        W18064   1.580  36.992  14.406
49671W        W18065   3.757  37.776  14.247
49672W        W18066  10.171  31.140   2.247
49673W        W18067  42.306  43.236  14.593
49674W        W18068   7.547  17.867  14.817
49675W        W18069  36.979  26.557   4.871
49676W        W18070  24.528  21.805   4.026
49677W        W18071  20.683   1.319  10.766
49678W        W18072  42.949   5.395   4.289
49679W        W18073  19.475  34.228  12.068
49680W        W18074  43.763   4.937  11.804
49681W        W18075  36.601  16.768  11.532
49682W        W18076  16.582  10.245  10.857
49683W        W18077  34.904  44.747   2.327
49684W        W18078  23.218   3.453   3.764
49685W        W18079   8.773  24.930  12.995
49686W        W18080  34.020  22.910  14.386
49687W        W18081   3.383  12.411  13.921
49688W        W18082  26.039  34.518   0.883
49689W        W18083   1.055  28.116  10.276
49690W        W18084  42.582   1.316  14.410
49691W        W18085   9.128  30.567   3.613
49692W        W18086   9.294   5.689   4.526
49693W        W18087  15.063  34.449  10.556
49694W        W18088  11.293   6.945   4.074
49695W        W18089  19.862  20.439   2.715
49696W        W18090   3.874  41.957  14.907
49697W        W18091  27.173  15.098  14.426
49698W        W18092  29.896  15.015  14.229
49699W        W18093  21.052  13.437   5.084
49700W        W18094  24.613  31.198  14.607
49701W        W18095  43.773   0.058  14.745
49702W        W18096   1.396  14.814   0.938
49703W        W18097  36.697  14.295   4.540
49704W        W18098  18.730  21.928   2.770
49705W        W18099   7.710  37.547   4.599
49706W        W18100   4.099  22.729  14.898
49707W        W18101   6.359  32.509  13.025
49708W        W18102  32.656  22.240   3.327
49709W        W18103  21.259  41.916   3.028
49710W        W18104  22.081  21.683  10.646
49711W        W18105  37.774   5.734   3.638
49712W        W18106  10.443   7.667  10.947
49713W        W18107  16.420  26.839  10.974
49714W        W18108  25.219  12.740  14.658
49715W        W18109  17.772  10.882  13.165
49716W        W18110  39.448  19.811  13.077
49717W        W18111  36.739  13.201  12.513
49718W        W18112  24.418   2.202   1.764
49719W        W18113  22.653   4.220   0.443
49720W        W18114  15.556   8.513   1.801
49721W        W18115  40.969  23.183  10.748
49722W        W18116   0.632   1.478  11.580
49723W        W18117  28.473   5.345  11.616
49724W        W18118  29.399  23.765   1.850
49725W        W18119  15.215  24.973  11.113
49726W        W18120   4.708   1.136   2.499
49727W        W18121   8.495  26.063  11.655
49728W        W18122  33.867  24.077  11.178
49729W        W18123  35.067  17.134   3.588
49730W        W18124  32.918   2.295   0.245
49731W        W18125  17.243  36.175   3.830
49732W        W18126  28.529  35.981  12.985
49733W        W18127  21.074  44.254   2.352
49734W        W18128  33.463  14.346  14.086
49735W        W18129  10.118  27.970  12.129
49736W        W18130  11.068   4.496   1.793
49737W        W18131  25.465  17.056  14.358
49738W        W18132  17.779  37.402  12.643
49739W        W18133  23.650  40.379  12.519
49740W        W18134  37.259  41.479   1.694
49741W        W18135   8.265   5.034   2.095
49742W        W18136  39.818  11.912   4.485
49743W        W18137  25.763  11.115   3.729
49744W        W18138   3.307   7.169   0.739
49745W        W18139  21.709  21.401  11.589
49746W        W18140   0.092   2.748   0.477
49747W        W18141  21.565  11.925  12.881
49748W        W18142  16.684  19.643   3.201
49749W        W18143   7.294  26.459   1.002
49750W        W18144  30.875  31.557  12.135
49751W        W18145  13.802  18.783  11.128
49752W        W18146   5.475   9.686   4.010
49753W        W18147  17.636  39.312   2.632
49754W        W18148   8.480  13.388   3.220
49755W        W18149  14.767  36.033   2.186
49756W        W18150  32.110  23.740   4.243
49757W        W18151  32.068   7.536   4.620
49758W        W18152  14.820  29.949   3.546
49759W        W18153   9.313  15.017   4.107
49760W        W18154  34.215   9.547  14.477
49761W        W18155  39.266  19.173  10.886
49762W        W18156  26.454  31.651   0.228
49763W        W18157  42.470   2.650  12.497
49764W        W18158  35.880  36.558  14.886
49765W        W18159  30.977  37.160  14.793
49766W        W18160  10.213  38.995   2.193
49767W        W18161   2.987  27.890   4.175
49768W        W18162  18.519  42.467  13.911
49769W        W18163  26.155  34.631  14.978
49770W        W18164  15.885   2.009  11.298
49771W        W18165  22.698  15.206   4.184
49772W        W18166  15.556  25.419   2.223
49773W        W18167   2.876   1.930  10.902
49774W        W18168   2.244  27.453   3.608
49775W        W18169   3.267   0.389  13.072
49776W        W18170  24.665  11.548   0.813
49777W        W18171  16.839  30.372   4.704
49778W        W18172  25.237  20.327   4.582
49779W        W18173  39.048  37.794   3.616
49780W        W18174  17.720   4.536   0.622
49781W        W18175  19.495   4.444  10.390
49782W        W18176  19.667  17.037   1.886
49783W        W18177  35.405  39.956  13.302
49784W        W18178  40.002  38.835   1.727
49785W        W18179  22.544  16.907  13.467
49786W        W18180  43.503  32.841   4.138
49787W        W18181  36.482   5.858   4.694
49788W        W18182   7.503   7.695   3.456
49789W        W18183  16.071  18.096   1.289
49790W        W18184  33.341  13.293  14.786
49791W        W18185  30.657  20.563   4.843
49792W        W18186  44.797  31.483  12.408
49793W        W18187  38.970  11.387   0.789
49794W        W18188  19.079   3.797   2.402
49795W        W18189  18.046   7.944  11.649
49796W        W18190   4.932  27.779   2.817
49797W        W18191   6.007  25.683  10.962
49798W        W18192  18.606  23.081  14.748
49799W        W18193  13.661  10.101   0.860
49800W        W18194  20.959   9.266  11.206
49801W        W18195  27.619  30.179  14.405
49802W        W18196  30.819   9.845  11.900
49803W        W18197  10.639  21.743   4.747
49804W        W18198  26.683  38.383   1.749
49805W        W18199  33.994  24.084  14.454
49806W        W18200  10.189  16.232   1.744
49807W        W18201   9.401  17.666   2.410
49808W        W18202  40.281  24.308   2.100
49809W        W18203  30.172  39.486   2.902
49810W        W18204  43.393  41.003  12.396
49811W        W18205  10.826  14.614   0.740
49812W        W18206   8.193  13.212  13.570
49813W        W18207  20.056  23.557  14.812
49814W        W18208  37.999  27.604  13.415
49815W        W18209  19.865  14.101   4.771
49816W        W18210   9.567  30.079   0.771
49817W        W18211  29.722  10.526  13.470
49818W        W18212  22.049  22.497   1.392
49819W        W18213  14.102  22.790  11.637
49820W        W18214  19.997  31.571  11.705
49821W        W18215  11.775  10.129   4.075
49822W        W18216  32.578  22.552  11.935
49823W        W18217   2.318  21.072  13.111
49824W        W18218  20.530   2.077   1.822
49825W        W18219  36.751  30.480   3.408
49826W        W18220  13.155   1.285  11.200
49827W        W18221  36.282  39.418  10.847
49828W        W18222   6.164  44.488  11.570
49829W        W18223  10.247  30.928   1.182
49830W        W18224   0.747   4.968  10.161
49831W        W18225  38.006  43.397   2.342
49832W        W18226  42.075  24.069  14.855
49833W        W18227  32.955   6.925  11.591
49834W        W18228  17.987  20.119  11.158
49835W        W18229   3.677  33.132  14.827
49836W        W18230   3.251   4.419   1.823
49837W        W18231  25.232  21.614   0.754
49838W        W18232   7.947  21.939  11.188
49839W        W18233   3.552   8.843  10.393
49840W        W18234  22.199  37.388   9.889
49841W        W18235  22.933  23.594  14.673
49842W        W18236  11.364   9.445  12.014
49843W        W18237  14.632  24.735   2.785
49844W        W18238  35.576   0.243  13.943
49845W        W18239  37.598  13.598   3.917
49846W        W18240  12.317  16.689   1.541
49847W        W18241  38.994   4.677   2.625
49848W        W18242  31.542  23.211   3.096
49849W        W18243  30.559  36.395   0.914
49850W        W18244  12.077   2.942  14.304
49851W        W18245   4.321  16.227   5.157
49852W        W18246   0.317  30.590  12.473
49853W        W18247   8.309  28.087   0.264
49854W        W18248  35.620  23.179   0.951
49855W        W18249   0.584  31.964   2.200
49856W        W18250  42.253  28.113   1.338
49857W        W18251  13.925  43.257  14.396
49858W        W18252  16.308  39.454  11.152
49859W        W18253  14.441  31.188   1.435
49860W        W18254  40.369   7.114   4.748
49861W        W18255  32.511  29.664  14.936
49862W        W18256   4.369   0.306   3.139
49863W        W18257  16.523  28.756  12.519
49864W        W18258   7.780  30.731  14.783
49865W        W18259  40.773  37.478   2.764
49866W        W18260   4.432  25.187   5.445
49867W        W18261  36.920  35.748  13.882
49868W        W18262  39.315   6.274  12.572
49869W        W18263  34.228  14.364  14.813
49870W        W18264  15.108  16.290  14.332
49871W        W18265  35.957  22.915  11.180
49872W        W18266  21.541   1.339  13.004
49873W        W18267  10.320  34.693   1.871
49874W        W18268  43.263  14.708  11.763
49875W        W18269  14.805   4.026   2.872
49876W        W18270  33.356   2.540   4.943
49877W        W18271  21.008  27.799  13.458
49878W        W18272  22.247  43.068   2.819
49879W        W18273  10.539  39.243  14.736
49880W        W18274  24.621   9.028   9.949
49881W        W18275  26.005  11.102  12.966
49882W        W18276  14.514  15.211   1.160
49883W        W18277  39.919  22.325  11.203
49884W        W18278  21.621  10.575  11.036
49885W        W18279  19.126  14.730  11.711
49886W        W18280  44.388  15.336   0.418
49887W        W18281   4.100  15.742  10.260
49888W        W18282  19.360  41.861  14.932
49889W        W18283  16.302  24.598   3.664
49890W        W18284  27.664  25.992  11.858
49891W        W18285  40.170   9.043   1.898
49892W        W18286  35.528   2.926   3.640
49893W        W18287   7.216  43.471  11.505
49894W        W18288  39.421  39.640   3.065
49895W        W18289  28.611  44.144  13.865
49896W        W18290  35.129  44.404  11.184
49897W        W18291  29.777  29.498  10.828
49898W        W18292   6.107  39.374  12.400
49899W        W18293   8.352  44.061   1.730
49900W        W18294  40.109   9.594   4.467
49901W        W18295  24.218   4.370  14.528
49902W        W18296  28.660  38.086   0.969
49903W        W18297  17.387  35.412  11.183
49904W        W18298  21.352  36.715   5.245
49905W        W18299   9.985   0.393  13.465
49906W        W18300   4.159   7.981  13.787
49907W        W18301  14.564   4.209   4.723
49908W        W18302  20.353   8.182   2.145
49909W        W18303  41.455  16.836   4.553
49910W        W18304   0.389  30.337   1.680
49911W        W18305   4.207   0.967   3.727
49912W        W18306  30.215  40.370  12.612
49913W        W18307  32.217  26.564   3.606
49914W        W18308   8.945  17.028   2.543
49915W        W18309  40.956  37.800   3.897
49916W        W18310  32.036  33.850  13.323
49917W        W18311   7.966  32.851   3.141
49918W        W18312  31.438   2.947   1.441
49919W        W18313  21.474  14.809   3.340
49920W        W18314  10.440  21.313   5.046
49921W        W18315  35.664   2.667  12.923
49922W        W18316  10.151   1.484  10.619
49923W        W18317  10.154  26.986  12.183
49924W        W18318  25.673  12.055  11.698
49925W        W18319  10.243  20.646   0.293
49926W        W18320  22.025   3.030   1.291
49927W        W18321  16.497   4.293   3.713
49928W        W18322   3.442  29.914   3.671
49929W        W18323  41.111  39.899   1.968
49930W        W18324   6.634   2.638  10.077
49931W        W18325  13.739  23.231   1.875
49932W        W18326   3.715  42.145   3.040
49933W        W18327   9.259  15.481   2.320
49934W        W18328  44.336  42.389   3.679
49935W        W18329   4.732   5.974   0.875
49936W        W18330   3.043  40.847   2.733
49937W        W18331  26.867  12.522   2.085
49938W        W18332  15.038  18.698  11.042
49939W        W18333   2.780  10.086   1.716
49940W        W18334  41.751  14.670   4.120
49941W        W18335  19.592  38.583  12.072
49942W        W18336  41.754  26.048  13.332
49943W        W18337   2.187  27.869   0.381
49944W        W18338  23.380   9.330   2.174
49945W        W18339   1.777  35.912  11.678
49946W        W18340  43.965  30.127  12.899
49947W        W18341   9.294  18.559   2.082
49948W        W18342   5.816   2.296   4.134
49949W        W18343  44.381  21.604  11.530
49950W        W18344  43.786  11.244   1.242
49951W        W18345  15.188  39.134  12.048
49952W        W18346  37.000  32.706  12.959
49953W        W18347  20.341  26.004   4.080
49954W        W18348  34.493  35.878   2.010
49955W        W18349  26.599  10.768   1.939
49956W        W18350  23.564  34.053  14.391
49957W        W18351  16.782   4.333  11.982
49958W        W18352  21.519  35.789  11.693
49959W        W18353   1.961  18.725  13.035
49960W        W18354   1.847  34.423  12.605
49961W        W18355  43.348  16.164   4.553
49962W        W18356  37.418   4.908  13.397
49963W        W18357  13.268  32.131   0.357
49964W        W18358  20.937   4.764   4.112
49965W        W18359  29.672  42.433  14.414
49966W        W18360   9.971  26.663   3.432
49967W        W18361  22.087  40.507   0.833
49968W        W18362  28.485  43.716  11.269
49969W        W18363   7.831   8.206  11.579
49970W        W18364   8.236  28.479  12.665
49971W        W18365  10.736  22.018  12.283
49972W        W18366  34.304  12.549   4.130
49973W        W18367  19.503  38.880   2.303
49974W        W18368  35.123  22.004   4.206
49975W        W18369  38.807  42.925   1.690
49976W        W18370  11.926  34.736  12.037
49977W        W18371  10.239  25.751   1.898
49978W        W18372  16.341   5.689   3.557
49979W        W18373  13.301  17.785  13.954
49980W        W18374  10.742   9.813  14.568
49981W        W18375  33.628  25.995   2.652
49982W        W18376   1.795  18.868  14.039
49983W        W18377   4.363  43.978  11.745
49984W        W18378  36.371  17.260  14.938
49985W        W18379  32.946  41.938   0.955
49986W        W18380  38.400  14.556  13.174
49987W        W18381  35.347   5.302   0.824
49988W        W18382   6.150  29.477   4.510
49989W        W18383  11.291  32.788  13.810
49990W        W18384  10.877   1.922   2.263
49991W        W18385  37.988  34.987   1.320
49992W        W18386  24.017  14.265   0.441
49993W        W18387  24.067  27.353  13.296
49994W        W18388  37.016  29.097   3.890
49995W        W18389  22.861  14.880  13.013
49996W        W18390  40.966  21.071  14.764
49997W        W18391  19.247  40.033   4.994
49998W        W18392  31.693   1.486   0.776
49999W        W18393  23.027  18.147  10.732
50000W        W18394  38.080  39.872  12.492
50001W        W18395  16.753  23.127  14.254
50002W        W18396  18.755  11.541  14.497
50003W        W18397  12.116  44.611  10.926
50004W        W18398  37.486  24.032   1.454
50005W        W18399  34.940  17.067   2.616
50006W        W18400  19.499   1.193  13.083
50007W        W18401   5.760  32.403   1.206
50008W        W18402  25.158  44.923   1.642
50009W        W18403  29.121   0.445  11.238
50010W        W18404  13.377  10.317   0.477
50011W        W18405   8.831  39.043   4.599
50012W        W18406  12.414   1.409   4.176
50013W        W18407  37.899  22.750   3.877
50014W        W18408  30.665   1.361  11.618
50015W        W18409  14.167  31.618   1.320
50016W        W18410   9.873  41.787   1.536
50017W        W18411  20.017  34.366  11.235
50018W        W18412  30.251   0.632   3.610
50019W        W18413   5.893  13.134   2.169
50020W        W18414  34.480  26.660   4.068
50021W        W18415  37.037  24.132   1.717
50022W        W18416  34.139  35.555   3.971
50023W        W18417  31.245  40.547   0.860
50024W        W18418   6.962  24.225  13.979
50025W        W18419  27.431  29.651   0.955
50026W        W18420   3.449  30.476  10.668
50027W        W18421  33.114   5.659   3.183
50028W        W18422  41.467  18.695   2.378
50029W        W18423  19.369  30.693   2.644
50030W        W18424  20.928   9.563  11.625
50031W        W18425   9.108  13.292  14.822
50032W        W18426  20.468  44.531   3.140
50033W        W18427   7.254  22.695  12.041
50034W        W18428  42.123   2.674   0.393
50035W        W18429  33.694  24.025  11.661
50036W        W18430  34.457  33.392   4.245
50037W        W18431  39.495  10.097  12.097
50038W        W18432  24.106  44.125  12.423
50039W        W18433  24.095  36.275  13.767
50040W        W18434  16.345  15.219  11.230
50041W        W18435  21.193  24.189  11.624
50042W        W18436  37.523   5.739   1.827
50043W        W18437  21.977  20.300   2.869
50044W        W18438   1.853  27.930   2.163
50045W        W18439  12.495  44.258  11.713
50046W        W18440  39.265  41.177   3.646
50047W        W18441  17.610  38.183   4.794
50048W        W18442   0.760  17.147  11.664
50049W        W18443  28.483   9.133   4.235
50050W        W18444   1.790  26.504   0.970
50051W        W18445   8.485  27.030   2.956
50052W        W18446  30.379  10.121   4.159
50053W        W18447   5.177  11.076  14.591
50054W        W18448  10.697  40.075   0.222
50055W        W18449  27.266  14.071  12.760
50056W        W18450  20.488  22.204   4.678
50057W        W18451  29.162  39.496  13.120
50058W        W18452  26.047  22.059  11.422
50059W        W18453  23.609  29.467   2.911
50060W        W18454  23.050  44.929   1.125
50061W        W18455  29.681  24.915   2.380
50062W        W18456  44.792  35.859   3.173
50063W        W18457  20.630  36.771   0.027
50064W        W18458   6.707  32.704   2.759
50065W        W18459  30.912  44.128   3.663
50066W        W18460  15.639  35.473   4.106
50067W        W18461  18.339   5.256  14.043
50068W        W18462  24.545  13.248   1.139
50069W        W18463  44.940  43.022  12.507
50070W        W18464  13.322  18.614  11.037
50071W        W18465  44.369  35.230  10.543
50072W        W18466  31.891  30.080   2.825
50073W        W18467   5.671  13.604  13.145
50074W        W18468  44.309  44.867  11.271
50075W        W18469  11.576  14.973   0.527
50076W        W18470   4.483  20.030   3.576
50077W        W18471  35.833  35.541  14.121
50078W        W18472   1.680  31.010  11.082
50079W        W18473  14.041  24.765   3.725
50080W        W18474  13.131  41.957   4.557
50081W        W18475  38.988  23.435  13.389
50082W        W18476  41.501   4.730  12.328
50083W        W18477  35.027   1.799  11.370
50084W        W18478  26.204  19.086   0.445
50085W        W18479   2.497  41.910   0.715
50086W        W18480  28.684  18.257  11.763
50087W        W18481  32.140  36.900  13.513
50088W        W18482  28.139  31.389   0.356
50089W        W18483   0.475  29.502   4.566
50090W        W18484  37.223   6.726   4.442
50091W        W18485  18.998  23.614   2.683
50092W        W18486   0.250  11.605   0.231
50093W        W18487  15.157  43.977   2.456
50094W        W18488  14.313  34.607   3.818
50095W        W18489  25.032  20.237  12.513
50096W        W18490  36.344  20.974  14.458
50097W        W18491   4.403  31.473   0.282
50098W        W18492  21.334  41.839  13.500
50099W        W18493  43.773  35.400  12.110
50100W        W18494  26.120   3.842   3.242
50101W        W18495  15.518   0.266  14.588
50102W        W18496  38.976  14.721   2.176
50103W        W18497  29.704  44.992   3.298
50104W        W18498   3.676  44.801   3.582
50105W        W18499  17.515   1.479  11.972
50106W        W18500  36.077  37.583   4.677
50107W        W18501  28.530  25.800   4.444
50108W        W18502   9.264  33.560   2.752
50109W        W18503  32.054   3.225   2.821
50110W        W18504   4.875  28.372   4.756
50111W        W18505  10.863   7.638   3.448
50112W        W18506   1.648  19.579   0.807
50113W        W18507  42.912   6.731   5.008
50114W        W18508  32.914  42.710   1.913
50115W        W18509   4.393  11.252  12.998
50116W        W18510  34.674   7.858   4.098
50117W        W18511  12.180  39.378  14.053
50118W        W18512  31.405   7.134  12.919
50119W        W18513  36.454  30.920   3.341
50120W        W18514  28.663  36.385   1.760
50121W        W18515  27.073  43.312   0.528
50122W        W18516  39.858  34.035   1.846
50123W        W18517  37.145  33.549  14.259
50124W        W18518  37.840  23.719  14.803
50125W        W18519  42.449  37.800  12.928
50126W        W18520  12.846   2.886   3.764
50127W        W18521  28.200  24.736   1.563
50128W        W18522  16.034  26.739  14.830
50129W        W18523  41.034   6.586  11.448
50130W        W18524  38.505  34.804  14.426
50131W        W18525   7.855  12.991  11.171
50132W        W18526  24.756  44.970  12.054
50133W        W18527  18.834  30.174   3.681
50134W        W18528   5.358  21.469   1.824
50135W        W18529  14.556  24.686   3.641
50136W        W18530  10.541  14.186   0.831
50137W        W18531  23.873  36.494   4.203
50138W        W18532  42.797  43.303  11.560
50139W        W18533  33.630  36.972   4.623
50140W        W18534   5.981  20.074   2.857
50141W        W18535  28.672  38.092   1.859
50142W        W18536  14.817   1.978   3.272
50143W        W18537   8.649  37.169   2.353
50144W        W18538  19.332  41.507   3.177
50145W        W18539  34.353  22.608  12.055
50146W        W18540   1.300  36.009  11.921
50147W        W18541  20.432  20.583   0.766
50148W        W18542  12.861   5.851   2.839
50149W        W18543  17.231  32.275  14.848
50150W        W18544  39.172  36.498   1.213
50151W        W18545  24.981  22.539  11.196
50152W        W18546   1.853  31.153   2.735
50153W        W18547  36.856  30.636  11.743
50154W        W18548  30.742  40.462   0.790
50155W        W18549  33.206  34.625   2.140
50156W        W18550  44.277  35.591  10.937
50157W        W18551  32.344  40.587  13.794
50158W        W18552   6.647   4.216  14.492
50159W        W18553  22.162  40.149  11.059
50160W        W18554  43.689  32.109  12.722
50161W        W18555  37.979   2.242   1.954
50162W        W18556  18.159  19.617   2.619
50163W        W18557   7.720  13.315  13.358
50164W        W18558   9.786  33.185   1.422
50165W        W18559  17.226   9.564  12.000
50166W        W18560   8.286  34.344   2.236
50167W        W18561  23.022   9.663   2.331
50168W        W18562  43.941  33.660   2.803
50169W        W18563  23.019   8.346   2.263
50170W        W18564  26.141  31.842   1.909
50171W        W18565   0.825  18.921  14.761
50172W        W18566   5.177  21.285   2.253
50173W        W18567  16.814  20.026   4.592
50174W        W18568  24.544  42.144   1.638
50175W        W18569   7.883  18.634  12.675
50176W        W18570  33.924  43.978   4.661
50177W        W18571  20.759  24.556  13.314
50178W        W18572  44.502  27.753  11.056
50179W        W18573  39.401  11.663  13.876
50180W        W18574  23.607   2.340   4.923
50181W        W18575  25.425  30.573  14.890
50182W        W18576  16.567   5.150   0.541
50183W        W18577  10.764  25.785   0.393
50184W        W18578  18.844  27.018   4.529
50185W        W18579  17.621  31.916  12.160
50186W        W18580  27.502  33.348  14.034
50187W        W18581  11.363  27.209   1.256
50188W        W18582  35.411  17.671   4.553
50189W        W18583  26.255  25.153  12.494
50190W        W18584   5.331  14.834  13.473
50191W        W18585  40.807  33.060  12.805
50192W        W18586  41.606  15.081  13.364
50193W        W18587  40.806  23.670   1.923
50194W        W18588  23.071  41.747   1.551
50195W        W18589  12.591  40.049   4.549
50196W        W18590  33.358   1.482   1.379
50197W        W18591  17.698   2.924  13.980
50198W        W18592  19.620   8.619   0.835
50199W        W18593   5.281  36.368  11.156
50200W        W18594   3.453  34.963  12.145
50201W        W18595  37.331  12.109  11.779
50202W        W18596  26.087  16.388  11.880
50203W        W18597  26.200  17.332   3.779
50204W        W18598  41.089  17.828   2.604
50205W        W18599  32.587   4.671  14.038
50206W        W18600  14.208   3.185  12.647
50207W        W18601  15.452  20.500   0.171
50208W        W18602  16.270  38.538   3.125
50209W        W18603   0.704   9.024   1.010
50210W        W18604  15.611   5.012   2.138
50211W        W18605  40.461  19.914  11.910
50212W        W18606  33.631  32.535  10.829
50213W        W18607  12.783  26.884   3.763
50214W        W18608  26.171  11.114   4.190
50215W        W18609  10.655   2.229   1.315
50216W        W18610  36.392  12.723  12.668
50217W        W18611  41.419  20.817  14.730
50218W        W18612  29.859  11.118  14.944
50219W        W18613  14.103  30.684  12.603
50220W        W18614  17.660  22.647  13.995
50221W        W18615  22.979   1.417   1.258
50222W        W18616   3.740  34.429   2.823
50223W        W18617  44.729  32.497  11.919
50224W        W18618  43.450  42.815   1.900
50225W        W18619  16.288  44.265   0.396
50226W        W18620   9.776   4.555  14.829
50227W        W18621  18.747  36.058   2.361
50228W        W18622  35.640  40.627  13.980
50229W        W18623  16.194   8.167  14.436
50230W        W18624  14.340   3.198   5.074
50231W        W18625  19.982  11.558   1.630
50232W        W18626  30.028  43.820  11.212
50233W        W18627  12.702  42.149  14.828
50234W        W18628  22.200   2.947   1.890
50235W        W18629   5.167  23.604  11.104
50236W        W18630   1.091  16.062   1.644
50237W        W18631  36.816  26.776   4.249
50238W        W18632  29.761   7.286  12.579
50239W        W18633  30.455  21.069  11.655
50240W        W18634  30.992  11.704   1.972
50241W        W18635   7.209  11.996  12.508
50242W        W18636   9.669  13.720   3.611
50243W        W18637  44.755  23.847  13.072
50244W        W18638  43.850  21.568   1.545
50245W        W18639  43.828  44.552   3.977
50246W        W18640  35.074   6.807   4.621
50247W        W18641  37.557   3.975  10.776
50248W        W18642  27.739  14.156  12.017
50249W        W18643   2.280  34.439  12.286
50250W        W18644   6.448  32.430  11.637
50251W        W18645  29.939   8.751   4.245
50252W        W18646  11.563  33.965   3.417
50253W        W18647   3.274  19.535   3.327
50254W        W18648  23.706  38.777  11.530
50255W        W18649   1.252  44.870   4.054
50256W        W18650  14.160   8.174  14.425
50257W        W18651  30.256  27.135  11.991
50258W        W18652  10.181   5.598   4.919
50259W        W18653  35.142  19.632  11.383
50260W        W18654   3.947   7.672   1.649
50261W        W18655  11.741  16.769   0.709
50262W        W18656   3.454  38.581  11.245
50263W        W18657  43.586  18.197  12.097
50264W        W18658  23.226  40.505  11.644
50265W        W18659  17.479  21.779   0.395
50266W        W18660  12.813   2.439  14.977
50267W        W18661  39.596  28.743   3.864
50268W        W18662  39.008   3.002  13.974
50269W        W18663  33.618  22.630   3.761
50270W        W18664  16.045  39.925  13.542
50271W        W18665  11.597  31.094  12.517
50272W        W18666   3.491  36.075   3.151
50273W        W18667   4.903  36.380   0.975
50274W        W18668  17.497   5.755  12.139
50275W        W18669  30.983  18.234  14.332
50276W        W18670   0.116   2.246   4.243
50277W        W18671   7.900  15.316  11.092
50278W        W18672  29.654  23.755  13.350
50279W        W18673  33.644  22.161  13.102
50280W        W18674  44.216  29.741   4.577
50281W        W18675  14.318  42.545  12.351
50282W        W18676  19.646  23.216  10.929
50283W        W18677  15.262  24.430  12.538
50284W        W18678  43.315  13.114   4.308
50285W        W18679  28.468  28.013  12.677
50286W        W18680  24.330  26.448  13.438
50287W        W18681  39.623   2.263   0.581
50288W        W18682  32.593   3.400  14.291
50289W        W18683  28.799  20.299   4.920
50290W        W18684  12.187  39.048   3.286
50291W        W18685  20.289  24.672   1.866
50292W        W18686  25.128   9.865  11.139
50293W        W18687  15.658  22.287   3.681
50294W        W18688  33.442  42.010   1.909
50295W        W18689   3.948  34.195   4.110
50296W        W18690  36.076   8.762   0.038
50297W        W18691  23.685   8.888  13.248
50298W        W18692  40.013  16.148   1.232
50299W        W18693   2.754   5.343  11.660
50300W        W18694  14.616  18.116   3.454
50301W        W18695  11.681  32.559   2.211
50302W        W18696  14.020  16.944   0.255
50303W        W18697  23.126   4.460  12.182
50304W        W18698  39.959  29.559  11.435
50305W        W18699  25.778  43.273  13.473
50306W        W18700  18.662  38.604   2.248
50307W        W18701   5.851  32.121  10.720
50308W        W18702  23.510   7.730   3.665
50309W        W18703   1.265  32.950   4.527
50310W        W18704  30.765  14.700  11.206
50311W        W18705  16.802  12.979  13.022
50312W        W18706   1.777   5.435   2.704
50313W        W18707  44.456  35.947  13.119
50314W        W18708   3.062  35.563  12.173
50315W        W18709  41.130   8.522  12.883
50316W        W18710  30.021  35.781  11.113
50317W        W18711  35.378   5.820   2.181
50318W        W18712  26.985  31.867   0.334
50319W        W18713  15.662  24.778  11.291
50320W        W18714   8.131  22.380   5.032
50321W        W18715  41.806  10.801   1.346
50322W        W18716   8.158  16.518  13.289
50323W        W18717  10.128  23.646   4.463
50324W        W18718  30.997   4.855  14.534
50325W        W18719   5.482  32.116   3.351
50326W        W18720  28.896  16.262   4.654
50327W        W18721   4.399  42.897  13.475
50328W        W18722  14.507  36.923  11.455
50329W        W18723  33.460   2.052   3.166
50330W        W18724  37.880  31.092   2.628
50331W        W18725  43.900  30.572   1.903
50332W        W18726   8.083   4.925  11.053
50333W        W18727   4.615  38.903   2.111
50334W        W18728  19.763  34.525  12.978
50335W        W18729  19.554  13.662   3.162
50336W        W18730  39.344  40.174   3.076
50337W        W18731  42.348  14.556   2.192
50338W        W18732  23.206   1.655  13.984
50339W        W18733   5.913  21.071   4.740
50340W        W18734   4.805  41.778  12.915
50341W        W18735  40.997   9.288   0.512
50342W        W18736   8.390   9.612  12.059
50343W        W18737   2.994  29.030  13.297
50344W        W18738  11.276  11.776  11.132
50345W        W18739   7.248  43.438   2.662
50346W        W18740  30.235  40.449   0.696
50347W        W18741  32.915  20.922   1.491
50348W        W18742  44.213  26.812   0.083
50349W        W18743  34.439  25.603  12.297
50350W        W18744  24.736   1.489   0.414
50351W        W18745  12.297  10.618   2.265
50352W        W18746  41.597   2.676  11.519
50353W        W18747   4.517  32.057   3.699
50354W        W18748  16.528  15.677  14.332
50355W        W18749  15.345   5.393   1.665
50356W        W18750  33.328  38.544  12.981
50357W        W18751   7.416  33.337   3.287
50358W        W18752  18.681  28.489   0.381
50359W        W18753   5.337   1.761   3.896
50360W        W18754   3.794  36.542   4.306
50361W        W18755   8.899   2.478   9.750
50362W        W18756  22.557  33.849   2.198
50363W        W18757  34.834  20.907  12.529
50364W        W18758  15.561  36.817   3.042
50365W        W18759   0.983  11.624  11.209
50366W        W18760   5.733  37.434   1.295
50367W        W18761  18.205   1.960  13.362
50368W        W18762   3.919  35.038  14.002
50369W        W18763   0.258  12.316  11.494
50370W        W18764  16.140  13.907   2.397
50371W        W18765  45.000  39.061  12.911
50372W        W18766  10.572   8.475  11.677
50373W        W18767  39.952   4.502  11.699
50374W        W18768  42.926  15.290  12.031
50375W        W18769  15.594  36.443   2.659
50376W        W18770   4.094  10.738  11.740
50377W        W18771  28.946   8.726  11.153
50378W        W18772  18.664   7.356   3.934
50379W        W18773   2.477  34.653   0.364
50380W        W18774  39.060   4.224  12.602
50381W        W18775  30.396  14.224   1.411
50382W        W18776  39.369  37.499  10.889
50383W        W18777  13.099   3.207   3.175
50384W        W18778  20.063  44.281  13.371
50385W        W18779  24.099  31.908  12.057
50386W        W18780  14.279   4.391  10.285
50387W        W18781  25.233   9.357  12.477
50388W        W18782  27.376  36.503   0.371
50389W        W18783  26.613   6.549  12.025
50390W        W18784  33.663   6.215  14.889
50391W        W18785  10.938  16.378  13.913
50392W        W18786  30.080  30.069   3.357
50393W        W18787  23.560  42.033   2.162
50394W        W18788  21.703  14.530  11.986
50395W        W18789  24.484   8.351  13.768
50396W        W18790  40.912   8.604   2.334
50397W        W18791  27.737  30.132  12.939
50398W        W18792  42.803   4.702  12.062
50399W        W18793   5.843  41.396  13.776
50400W        W18794  20.412  15.304   1.248
50401W        W18795  39.087   6.481  13.710
50402W        W18796   2.246  26.055   1.483
50403W        W18797  29.090  34.117   3.715
50404W        W18798  10.180  16.527  13.415
50405W        W18799  41.530  23.059  11.964
50406W        W18800  12.462  42.925   0.016
50407W        W18801  35.122  34.641  13.590
50408W        W18802  12.917   1.158   4.182
50409W        W18803  42.901   0.889   0.041
50410W        W18804   4.399  41.676  12.148
50411W        W18805  32.524   0.979  12.581
50412W        W18806  40.274  41.216   0.353
50413W        W18807   1.838  44.545  12.000
50414W        W18808  34.306  23.098  13.084
50415W        W18809  44.681  37.036   2.524
50416W        W18810  43.449  29.691  14.446
50417W        W18811  25.853  42.951   0.701
50418W        W18812  20.423   1.040  11.534
50419W        W18813   3.302  33.428  11.133
50420W        W18814  32.518  14.643   0.439
50421W        W18815  25.663   0.816   3.129
50422W        W18816  29.757  21.588   0.090
50423W        W18817  14.078  14.751   3.257
50424W        W18818  31.645  30.498  14.262
50425W        W18819  16.293  24.006   1.753
50426W        W18820  10.190  35.769  13.320
50427W        W18821  34.073  14.274   4.792
50428W        W18822  21.860   9.321  14.062
50429W        W18823  32.853  15.810  11.632
50430W        W18824  35.086  44.868  11.606
50431W        W18825  33.310  38.418   2.740
50432W        W18826  40.257  13.711   2.653
50433W        W18827  33.911  33.007  11.453
50434W        W18828  38.143  40.353  12.590
50435W        W18829  27.113  43.745   0.852
50436W        W18830   1.939  20.591   3.610
50437W        W18831  42.805  30.917   3.873
50438W        W18832  20.567  21.663  14.259
50439W        W18833   8.309  20.983  12.430
50440W        W18834   5.257  11.069  14.075
50441W        W18835  29.777  31.621  10.718
50442W        W18836  25.771  15.675   2.286
50443W        W18837  29.486  29.903   1.412
50444W        W18838   5.500  30.896   2.325
50445W        W18839  26.021  33.177  11.016
50446W        W18840  34.207  16.562   0.239
50447W        W18841  28.972  38.746   3.343
50448W        W18842  35.417  16.777   4.620
50449W        W18843  11.077   2.758   0.673
50450W        W18844   0.992  33.881   2.810
50451W        W18845   0.129  38.148   5.061
50452W        W18846  18.980  10.986  14.926
50453W        W18847  38.025  30.563  13.817
50454W        W18848  40.746  26.357  10.315
50455W        W18849   4.540  20.223  13.762
50456W        W18850  25.085  19.719  12.437
50457W        W18851   4.741   2.861  14.993
50458W        W18852  39.242  18.072   0.310
50459W        W18853  14.097   1.259   0.209
50460W        W18854  43.988  29.064   4.227
50461W        W18855   6.173  16.644   3.724
50462W        W18856  12.911  13.315  14.809
50463W        W18857  22.146  10.738  14.862
50464W        W18858  10.689  28.648  12.717
50465W        W18859  11.081  22.289  12.593
50466W        W18860  35.008  14.508  12.517
50467W        W18861   4.130  24.994   3.180
50468W        W18862  13.637  41.926  11.214
50469W        W18863  15.105  20.647  14.821
50470W        W18864  26.036   2.416   0.763
50471W        W18865  25.565  21.794   1.348
50472W        W18866  13.069  28.771  11.085
50473W        W18867   5.661  38.859   2.145
50474W        W18868  24.621  17.500   1.043
50475W        W18869  18.544  39.884   4.186
50476W        W18870  11.348  40.923   2.877
50477W        W18871   0.377  26.994   1.275
50478W        W18872   8.792  34.596   4.119
50479W        W18873  24.343  42.879   1.881
50480W        W18874  12.117  26.990   0.832
50481W        W18875  44.686  39.591   4.034
50482W        W18876  14.414  24.696   0.439
50483W        W18877  21.018  23.594  11.991
50484W        W18878   7.217  32.602  12.851
50485W        W18879  34.718  33.428   4.682
50486W        W18880   5.740  33.205   4.549
50487W        W18881  14.811   0.931   4.374
50488W        W18882  25.230  41.691   3.255
50489W        W18883  13.248  35.138  13.793
50490W        W18884  12.805  27.582   0.054
50491W        W18885  21.671   8.396  12.240
50492W        W18886  27.026  20.635   3.128
50493W        W18887  20.583  28.721   3.730
50494W        W18888  25.060   3.391  12.455
50495W        W18889  22.578  44.690   2.468
50496W        W18890  42.521  24.074   2.371
50497W        W18891  32.931  42.396   0.651
50498W        W18892  33.571  17.127  12.519
50499W        W18893  16.670  32.421   1.991
50500W        W18894  32.943  41.291  10.819
50501W        W18895  22.451  36.621   4.136
50502W        W18896  34.855  25.546  10.723
50503W        W18897  12.797  44.994  13.285
50504W        W18898  31.609   7.771   4.633
50505W        W18899  41.873  18.705  11.679
50506W        W18900   2.050  37.988  12.847
50507W        W18901  37.132  38.762   3.220
50508W        W18902  41.471  39.990  11.176
50509W        W18903  42.898  42.585   0.958
50510W        W18904  21.056   9.643   1.344
50511W        W18905   5.646  43.970  12.083
50512W        W18906  15.241  12.186   4.130
50513W        W18907  19.157  30.474   3.446
50514W        W18908   4.729  17.248  10.468
50515W        W18909  44.765  31.537  13.400
50516W        W18910  23.923  20.186  10.596
50517W        W18911  37.273  38.684  11.570
50518W        W18912   7.770  33.848   4.210
50519W        W18913  35.420  13.199   1.000
50520W        W18914  31.332   4.436   2.643
50521W        W18915  30.465  26.089   3.674
50522W        W18916  31.576   0.478   1.361
50523W        W18917  15.333  42.983  14.890
50524W        W18918  18.323   7.108   4.216
50525W        W18919   2.364   6.214   4.664
50526W        W18920   1.939  15.421   3.666
50527W        W18921  44.359   4.060   4.403
50528W        W18922  16.874   2.429  10.628
50529W        W18923  41.304  34.936   0.782
50530W        W18924   3.254  39.131   1.862
50531W        W18925  11.140  30.481   1.644
50532W        W18926  33.111  44.783  12.925
50533W        W18927  32.599  11.276  12.129
50534W        W18928  28.257  32.600   3.930
50535W        W18929  36.826  15.419  12.881
50536W        W18930  15.267  34.428   2.657
50537W        W18931  10.365  30.590  12.170
50538W        W18932   0.640  14.598  13.964
50539W        W18933  31.907  36.058  11.869
50540W        W18934  20.670  37.066  11.189
50541W        W18935  43.830   8.420  11.093
50542W        W18936  22.304  21.089   5.190
50543W        W18937  33.867  17.089   1.401
50544W        W18938  41.310  34.947  13.079
50545W        W18939  11.627  11.726  11.929
50546W        W18940  41.336  17.594   4.045
50547W        W18941  31.158  33.084  11.612
50548W        W18942  23.635  15.486  14.384
50549W        W18943  13.328   1.208   3.059
50550W        W18944  43.572  21.734   2.190
50551W        W18945  19.743  36.350  10.226
50552W        W18946  36.173   2.925  11.512
50553W        W18947  30.776  20.045   2.526
50554W        W18948  35.662  21.060  12.012
50555W        W18949   3.470  27.131   2.327
50556W        W18950   5.640   0.910   0.095
50557W        W18951   0.097  37.409   2.174
50558W        W18952  21.209  30.958   2.675
50559W        W18953  42.342   1.854   4.399
50560W        W18954  38.501  34.867   1.240
50561W        W18955  11.642  15.836  11.996
50562W        W18956  29.721   1.250   1.323
50563W        W18957  22.764  15.740   1.337
50564W        W18958  36.051   0.867   0.485
50565W        W18959  22.756  15.261  14.194
50566W        W18960   5.798   6.064  14.409
50567W        W18961  36.212   3.195   1.106
50568W        W18962  31.375  37.438   4.638
50569W        W18963  20.260  40.645  13.439
50570W        W18964  29.061   0.639  14.316
50571W        W18965  26.072  11.721   1.194
50572W        W18966  32.549  24.963   4.403
50573W        W18967  35.046  32.584  13.858
50574W        W18968  31.986  40.447   1.894
50575W        W18969   4.764   2.798   2.815
50576W        W18970  40.246  32.660   1.376
50577W        W18971   2.002  34.522  10.705
50578W        W18972  25.455  37.103  14.930
50579W        W18973  43.377   9.766  14.335
50580W        W18974  40.526   9.826  12.559
50581W        W18975  29.788  42.845  11.694
50582W        W18976  26.274  28.413  12.129
50583W        W18977  43.891  25.562   3.243
50584W        W18978   1.222  15.849   2.694
50585W        W18979  29.692  14.292  12.022
50586W        W18980   4.386  39.029   0.344
50587W        W18981   6.705  33.286  11.170
50588W        W18982  10.100  27.647  12.532
50589W        W18983   5.613   1.385  10.712
50590W        W18984  41.958  40.015   1.641
50591W        W18985  13.262  39.284   1.283
50592W        W18986  26.152  37.345   3.870
50593W        W18987   4.863   7.643   1.651
50594W        W18988  25.495  37.982  14.878
50595W        W18989  13.971  21.378   2.714
50596W        W18990  27.023  36.923  14.798
50597W        W18991  13.277  38.928  12.885
50598W        W18992  20.278  30.188   0.720
50599W        W18993  37.936  39.902   1.642
50600W        W18994   7.715  27.087  11.568
50601W        W18995  33.135  17.597  14.003
50602W        W18996   1.233  36.909  12.152
50603W        W18997  27.049  33.911  11.143
50604W        W18998  18.141  12.286   3.831
50605W        W18999  31.880   4.298   2.264
50606W        W19000  38.075  13.676   3.731
50607W        W19001  41.896  37.387   4.208
50608W        W19002   2.420  10.109   4.287
50609W        W19003  43.759  37.067   3.575
50610W        W19004   8.965   8.311   3.216
50611W        W19005  41.730  32.340   1.623
50612W        W19006  25.722  43.590  11.234
50613W        W19007  39.470  39.698   4.104
50614W        W19008  13.805  21.492   0.255
50615W        W19009  24.350   6.745   3.618
50616W        W19010  38.061  23.214  10.328
50617W        W19011  36.844  19.610   0.021
50618W        W19012  38.666  38.645   1.407
50619W        W19013  18.275  25.560   1.732
50620W        W19014  42.570  11.964   0.850
50621W        W19015  28.128  30.161  14.626
50622W        W19016  19.888  34.534  12.154
50623W        W19017  44.542  40.823   0.230
50624W        W19018  43.340  41.825  13.485
50625W        W19019  25.208  34.932  14.962
50626W        W19020  42.881  32.514   0.962
50627W        W19021  11.742  15.453   2.845
50628W        W19022  38.572  18.337   3.571
50629W        W19023   6.779  24.086  14.469
50630W        W19024  14.718  33.444  12.894
50631W        W19025  21.611  10.615   3.237
50632W        W19026  40.786   7.820   3.246
50633W        W19027  27.459  19.394   2.683
50634W        W19028  20.984  37.431   0.724
50635W        W19029  25.646  11.029  13.735
50636W        W19030  14.681  20.572   4.549
50637W        W19031   9.817  11.442  12.034
50638W        W19032   8.225   6.203   0.412
50639W        W19033  28.535  11.684  14.285
50640W        W19034  15.845  19.226   3.742
50641W        W19035   7.648  11.242  12.106
50642W        W19036  40.201  36.358  10.208
50643W        W19037  12.426  25.132  14.727
50644W        W19038  37.082  27.741  12.062
50645W        W19039  23.728   9.058   9.809
50646W        W19040  25.428  33.478  13.372
50647W        W19041  30.390  11.147  14.898
50648W        W19042  31.969   3.684  11.138
50649W        W19043  32.625  42.577  11.979
50650W        W19044  24.905   2.923  11.962
50651W        W19045  20.807  16.390   4.216
50652W        W19046  12.649   5.937   1.408
50653W        W19047  13.111  17.032   0.176
50654W        W19048  31.376  16.141   0.945
50655W        W19049  24.682  27.265  12.592
50656W        W19050  37.910  25.509  14.303
50657W        W19051  40.048  26.536   0.233
50658W        W19052  41.389  39.687   4.984
50659W        W19053  33.520  38.543  12.484
50660W        W19054  44.462  42.362   2.747
50661W        W19055  17.577  14.422  14.542
50662W        W19056  32.464  14.361  10.690
50663W        W19057   2.866  34.699  10.985
50664W        W19058  20.947  24.861  12.017
50665W        W19059  39.456  37.644   1.944
50666W        W19060  19.137  10.739  10.634
50667W        W19061   3.550  44.481   4.629
50668W        W19062   5.192  17.159   0.650
50669W        W19063  32.917  32.843   0.041
50670W        W19064   9.186  38.332  11.124
50671W        W19065  38.567   9.280   0.413
50672W        W19066  21.536  34.458  14.962
50673W        W19067  18.078  16.642   4.914
50674W        W19068   1.771  43.229   4.988
50675W        W19069  11.111  43.922   1.800
50676W        W19070  28.046  10.317  13.033
50677W        W19071  34.619  33.512  14.220
50678W        W19072   0.414  12.582  13.553
50679W        W19073  26.043  31.580   4.972
50680W        W19074  17.601   4.959   4.071
50681W        W19075  37.922  16.581  11.966
50682W        W19076  14.817   5.103   5.066
50683W        W19077  44.309  21.214  14.938
50684W        W19078  12.137  26.603   2.748
50685W        W19079  23.765   6.708  13.968
50686W        W19080   5.569  39.309  14.389
50687W        W19081  32.643  29.583  13.525
50688W        W19082  24.713  38.540  14.828
50689W        W19083  26.292  16.874  14.068
50690W        W19084  15.230  36.221  12.382
50691W        W19085  39.142  41.033   3.162
50692W        W19086  38.091  38.086  12.429
50693W        W19087  18.814  26.073   4.093
50694W        W19088   9.155  10.461   2.816
50695W        W19089  41.315  12.395  13.996
50696W        W19090  44.834  11.413  14.918
50697W        W19091  32.577  19.569  11.130
50698W        W19092   8.692   1.485  12.446
50699W        W19093  29.180   9.765  13.144
50700W        W19094   9.687   1.919  13.949
50701W        W19095   6.866  39.569  11.530
50702W        W19096  17.052   3.868  12.847
50703W        W19097  23.258  40.064  14.754
50704W        W19098  43.471   9.891  10.998
50705W        W19099  36.128   9.923   3.371
50706W        W19100  30.316  43.273  13.493
50707W        W19101  28.948  27.679  10.700
50708W        W19102  13.387  27.514   1.704
50709W        W19103  15.387  26.085  11.990
50710W        W19104  13.685  16.029  11.434
50711W        W19105  25.854  11.266  12.522
50712W        W19106  39.865   4.010   0.780
50713W        W19107  44.093  16.753   0.823
50714W        W19108  30.196  20.795  14.733
50715W        W19109  12.161  27.892   2.268
50716W        W19110  40.028  38.330  12.774
50717W        W19111  18.811  41.467   3.304
50718W        W19112  22.827  34.017  13.011
50719W        W19113  12.612  16.429   4.540
50720W        W19114   4.964   4.547  11.467
50721W        W19115  23.419   4.631   1.323
50722W        W19116  42.445   6.813   4.271
50723W        W19117  28.315  11.758   0.849
50724W        W19118  38.988   8.036  13.106
50725W        W19119  18.423   8.081  14.920
50726W        W19120  34.407  24.259   1.177
50727W        W19121  21.436  27.225   4.145
50728W        W19122  44.310  19.626  14.514
50729W        W19123  42.092  38.580  13.892
50730W        W19124  13.474  36.272   4.960
50731W        W19125   7.199  41.742  11.156
50732W        W19126  40.821  30.789   2.439
50733W        W19127  26.155   8.265   3.252
50734W        W19128  16.788  12.579  11.260
50735W        W19129   9.078  25.029   3.645
50736W        W19130  11.124  13.763   3.860
50737W        W19131  25.061  44.848  14.367
50738W        W19132   6.667  43.421  11.540
50739W        W19133  15.689  42.369  11.274
50740W        W19134  14.654  15.711  13.058
50741W        W19135  43.852  36.209   4.059
50742W        W19136  21.134   9.308  10.730
50743W        W19137  23.461  34.910   2.701
50744W        W19138  29.882  29.032   2.362
50745W        W19139  39.025   0.292  10.240
50746W        W19140  26.121  21.687  12.048
50747W        W19141  18.824   1.090  14.016
50748W        W19142  21.411  31.679   2.397
50749W        W19143  10.288  30.129  11.965
50750W        W19144  44.271  27.454   0.855
50751W        W19145  38.559  37.756   4.946
50752W        W19146   0.681   4.362  10.719
50753W        W19147  10.217   8.325   4.569
50754W        W19148  36.382  40.467   1.399
50755W        W19149  36.857  20.943   1.472
50756W        W19150  43.093  19.097   2.194
50757W        W19151  30.350   3.830  12.088
50758W        W19152   1.914  15.420   4.182
50759W        W19153   6.879  10.195   3.885
50760W        W19154  13.776  18.111  10.593
50761W        W19155  25.922  41.936  14.755
50762W        W19156  12.287  32.885  14.849
50763W        W19157  28.219  13.653  14.536
50764W        W19158   6.560  44.421  14.946
50765W        W19159  33.047   5.143   2.424
50766W        W19160  25.873   7.632   3.339
50767W        W19161  17.059  12.244   2.870
50768W        W19162  32.384  25.211  12.030
50769W        W19163  36.607  10.444  11.153
50770W        W19164   6.869   7.623   4.155
50771W        W19165  21.103  23.263  12.627
50772W        W19166  12.406   0.227   1.301
50773W        W19167   8.197  18.027   2.334
50774W        W19168   9.814   7.319   3.213
50775W        W19169   3.976  25.236  13.141
50776W        W19170   9.953  17.586   2.345
50777W        W19171  21.546  31.493   3.390
50778W        W19172  33.502  43.795  12.601
50779W        W19173  13.400  28.168   2.283
50780W        W19174  18.270   6.812  12.419
50781W        W19175  34.531  32.640  13.867
50782W        W19176  33.548  31.648   0.416
50783W        W19177  17.847  34.785  13.183
50784W        W19178  26.642   3.992   1.378
50785W        W19179  18.112  12.579   3.384
50786W        W19180   0.058  21.512   4.090
50787W        W19181  24.122   1.950   0.005
50788W        W19182  22.604  13.194  13.533
50789W        W19183  13.143   3.700  14.446
50790W        W19184   4.851   6.942   2.416
50791W        W19185  26.085   3.618  11.020
50792W        W19186  33.101  39.873  14.270
50793W        W19187  12.468  17.524   1.435
50794W        W19188  31.653  34.573  12.833
50795W        W19189  15.414   3.321   3.111
50796W        W19190   7.920   8.208   1.833
50797W        W19191  10.862  27.594   2.656
50798W        W19192  19.210  28.947   1.241
50799W        W19193  21.767   3.465  13.532
50800W        W19194  14.048  34.338  12.573
50801W        W19195  15.850  41.392  14.588
50802W        W19196  15.662  37.479  13.394
50803W        W19197  28.914  36.455   1.319
50804W        W19198   2.217   0.694  10.669
50805W        W19199  23.940  32.156  13.047
50806W        W19200   7.110  44.870   1.652
50807W        W19201  34.156  24.116   3.049
50808W        W19202  44.889  25.561  10.909
50809W        W19203  41.291  24.012  10.794
50810W        W19204  20.527  11.409   4.222
50811W        W19205  43.331  16.526   4.158
50812W        W19206  28.935   6.909   1.918
50813W        W19207  43.559  30.454   3.272
50814W        W19208  33.004  42.898  12.620
50815W        W19209   5.651  23.137   0.603
50816W        W19210  32.009  23.416   3.624
50817W        W19211  25.583  32.479   2.382
50818W        W19212  36.565  39.542  13.112
50819W        W19213  40.271  22.447   2.215
50820W        W19214  19.079   8.703   2.198
50821W        W19215   8.349   3.145   3.715
50822W        W19216  23.663  21.945   2.395
50823W        W19217   1.811  39.123   2.287
50824W        W19218  36.876  34.881   2.036
50825W        W19219  16.050  33.596   1.254
50826W        W19220  40.830  11.558  13.850
50827W        W19221   4.885   1.371  11.184
50828W        W19222  21.637  23.907  13.614
50829W        W19223   0.939  24.102   4.644
50830W        W19224  18.275  13.875  11.145
50831W        W19225  28.090  22.525   2.628
50832W        W19226  35.546  29.026  14.918
50833W        W19227   9.482   7.711  14.306
50834W        W19228  19.173   7.320  12.228
50835W        W19229  44.915  32.227   1.781
50836W        W19230  23.147  31.342   2.385
50837W        W19231  41.957  31.350  11.142
50838W        W19232  39.507  17.786   4.928
50839W        W19233  16.330  12.046  10.725
50840W        W19234  19.089  39.938  11.374
50841W        W19235   6.681   7.387  12.180
50842W        W19236   0.863  15.310  14.087
50843W        W19237  21.659   4.900   2.964
50844W        W19238   0.139  36.938  10.432
50845W        W19239  21.124  12.612   3.182
50846W        W19240   2.366  33.459  14.773
50847W        W19241  33.547  12.134   1.748
50848W        W19242  31.167  18.787   0.112
50849W        W19243  11.853  44.818  12.387
50850W        W19244  29.614  37.929  10.673
50851W        W19245   1.229  18.668  10.849
50852W        W19246  37.946  27.703  14.341
50853W        W19247  26.967  19.956  13.262
50854W        W19248  35.412  16.261  12.869
50855W        W19249  10.002  30.472  13.508
50856W        W19250  39.758  22.497   2.426
50857W        W19251   2.341  28.057   3.369
50858W        W19252  35.377  23.014  12.946
50859W        W19253  24.450  11.729   4.087
50860W        W19254  26.914  33.082  14.821
50861W        W19255  14.695  28.251   0.418
50862W        W19256  29.124  24.470   3.582
50863W        W19257  14.684  25.273  13.312
50864W        W19258  31.515  13.530   0.427
50865W        W19259  22.464  13.083   1.760
50866W        W19260  38.947   5.129   4.570
50867W        W19261   7.301   8.118  14.949
50868W        W19262  22.522  36.979   2.433
50869W        W19263  31.153  42.279  14.302
50870W        W19264  13.221   5.691  14.502
50871W        W19265  39.257  21.304   1.677
50872W        W19266  26.390  15.648   4.501
50873W        W19267  24.197  29.092   4.398
50874W        W19268  12.098   2.637   3.219
50875W        W19269  17.371  22.700   4.333
50876W        W19270  21.610  16.710   3.290
50877W        W19271   1.527  11.105   2.528
50878W        W19272  23.776  23.319   4.165
50879W        W19273  25.209   1.890  11.472
50880W        W19274  42.454  29.478  11.900
50881W        W19275  10.850  33.576  13.908
50882W        W19276  22.485   6.674   2.398
50883W        W19277  15.971  44.065  12.872
50884W        W19278  23.813  18.024  13.123
50885W        W19279   6.475   5.870   2.405
50886W        W19280  35.158  15.198   0.326
50887W        W19281  27.014  10.596  12.302
50888W        W19282  16.116  22.047  12.836
50889W        W19283  32.434  15.827   4.190
50890W        W19284  39.060  20.107  11.479
50891W        W19285  40.341  34.984  11.092
50892W        W19286  44.062  29.588   2.194
50893W        W19287   5.401   9.707  14.941
50894W        W19288   0.269  31.616  10.678
50895W        W19289   0.273  31.995  14.535
50896W        W19290  30.409   1.706  11.938
50897W        W19291  34.670   0.632  13.031
50898W        W19292   7.580  18.376  14.785
50899W        W19293  40.712  22.224  11.477
50900W        W19294  32.583  34.377   2.618
50901W        W19295  40.787  19.479  13.075
50902W        W19296  16.465  21.151   1.936
50903W        W19297  24.633  10.802   1.313
50904W        W19298  27.905  10.895  14.865
50905W        W19299  19.267  22.110  12.269
50906W        W19300  30.620  19.710   2.148
50907W        W19301  17.088  27.087  11.945
50908W        W19302  29.733   3.295   1.411
50909W        W19303  24.970  18.745   2.376
50910W        W19304  13.835  12.186   1.658
50911W        W19305  21.619   8.176   2.117
50912W        W19306  12.798  43.869  13.458
50913W        W19307  32.654  11.115  14.425
50914W        W19308  24.430  27.211   0.845
50915W        W19309  23.559  20.361   4.342
50916W        W19310   5.925  15.743   3.860
50917W        W19311   1.455  14.861   3.600
50918W        W19312  28.361   1.347  13.532
50919W        W19313  42.024  29.026  14.761
50920W        W19314  25.730  12.759  14.467
50921W        W19315  28.679  23.449   1.327
50922W        W19316   1.799   3.290  12.089
50923W        W19317   7.232  10.866   0.444
50924W        W19318  14.158  16.263   3.654
50925W        W19319  13.202  24.245   1.291
50926W        W19320  44.289  12.775   5.280
50927W        W19321  19.746   7.725  13.812
50928W        W19322  10.642  44.024   0.768
50929W        W19323   4.849  39.916   4.931
50930W        W19324  36.863   8.162   1.753
50931W        W19325  14.789  32.093  11.053
50932W        W19326  29.647  41.540   0.894
50933W        W19327  36.108  27.647  13.944
50934W        W19328  14.783  38.856  13.128
50935W        W19329  10.745  22.106   1.311
50936W        W19330  15.715  38.749  13.068
50937W        W19331  10.462  34.011  13.305
50938W        W19332  23.022  32.620   3.741
50939W        W19333  42.693   6.370   4.190
50940W        W19334  17.665   9.803  10.795
50941W        W19335  11.128  28.825  13.050
50942W        W19336   1.669  39.976  11.538
50943W        W19337   8.786  36.124   2.305
50944W        W19338   3.287   6.066   2.836
50945W        W19339  37.049  11.886   1.640
50946W        W19340  24.942  17.184  11.133
50947W        W19341  23.646   3.509  11.451
50948W        W19342  18.064   8.804  13.044
50949W        W19343  11.882  39.178   0.930
50950W        W19344  41.553  36.655   4.101
50951W        W19345  12.045  39.544   3.207
50952W        W19346  15.224  38.807  11.094
50953W        W19347  12.073  16.639  11.202
50954W        W19348   5.859  28.080   3.702
50955W        W19349  15.917  39.906  10.541
50956W        W19350  38.355  25.903   0.759
50957W        W19351  23.715  25.990   4.113
50958W        W19352   1.586  10.384   3.416
50959W        W19353  10.356  21.885  14.908
50960W        W19354   5.428   4.414   1.361
50961W        W19355  17.539   5.668  14.937
50962W        W19356  35.332  28.549   1.169
50963W        W19357  12.770  33.954  14.260
50964W        W19358  34.751  21.116  12.048
50965W        W19359   5.286  30.731  13.798
50966W        W19360  41.844  14.672  14.071
50967W        W19361  32.402  41.975   4.335
50968W        W19362   6.264  29.658  12.568
50969W        W19363   1.322  32.047   0.394
50970W        W19364  27.584  27.219  11.197
50971W        W19365  38.562  43.052  12.020
50972W        W19366  19.648  13.394  13.904
50973W        W19367  18.700  14.018  10.198
50974W        W19368  42.850  14.440  11.556
50975W        W19369   2.325  37.611   1.891
50976W        W19370  36.380  33.519   0.392
50977W        W19371  43.466  42.789  13.414
50978W        W19372   9.467  12.957   1.186
50979W        W19373  25.616   8.461  11.175
50980W        W19374  14.169  14.357   4.044
50981W        W19375   1.401   8.613  14.296
50982W        W19376  25.648  27.888   0.925
50983W        W19377  39.085  17.926  14.021
50984W        W19378  17.724  13.534   4.529
50985W        W19379  30.442  16.011  13.500
50986W        W19380  33.576   8.205   4.620
50987W        W19381   4.532  22.395  13.034
50988W        W19382  41.885  10.381  13.535
50989W        W19383  16.548  42.355   1.258
50990W        W19384  44.920   2.056   3.800
50991W        W19385   6.411  11.249  13.524
50992W        W19386   7.376  29.880   1.408
50993W        W19387  10.717   2.751   1.356
50994W        W19388  37.043   8.402   1.332
50995W        W19389  39.082   7.375   1.323
50996W        W19390   4.795   3.896   2.717
50997W        W19391   5.753  33.818  13.435
50998W        W19392  16.900   0.429  14.880
50999W        W19393  15.797   8.723  14.996
51000W        W19394  14.694  25.318   0.981
51001W        W19395  10.144  13.344  11.852
51002W        W19396  44.521  15.741   0.970
51003W        W19397  18.583  18.940  13.609
51004W        W19398  43.322  35.470  11.054
51005W        W19399  11.169   2.974  10.743
51006W        W19400   5.014  29.789  11.933
51007W        W19401  39.657  31.591  13.046
51008W        W19402  26.612  20.152   4.727
51009W        W19403   2.172  35.991   2.972
51010W        W19404   2.176  18.730  10.847
51011W        W19405  11.314  14.632  14.855
51012W        W19406  30.466  41.462  12.091
51013W        W19407  30.881  20.103  14.410
51014W        W19408   4.285  16.630  12.034
51015W        W19409  34.460  31.725  13.143
51016W        W19410  15.565  17.296   3.513
51017W        W19411  12.110  43.970  12.097
51018W        W19412  32.456  25.168   3.840
51019W        W19413  10.399   1.196  13.084
51020W        W19414  15.923  10.104  13.320
51021W        W19415   1.888  41.754   2.750
51022W        W19416  30.236  29.202  12.674
51023W        W19417  12.814  19.275   1.256
51024W        W19418  42.069  27.559  11.168
51025W        W19419   0.836   6.879  11.474
51026W        W19420  22.184  20.840   2.883
51027W        W19421  14.431   1.753  14.536
51028W        W19422  24.884  23.910   2.981
51029W        W19423  25.553   4.747  14.950
51030W        W19424  30.129  22.956   3.657
51031W        W19425  44.115   4.736   2.962
51032W        W19426  32.872  33.008   4.586
51033W        W19427   1.009   5.160  11.182
51034W        W19428  41.082  27.498   3.298
51035W        W19429  40.448   0.333   2.913
51036W        W19430   4.800   9.465   1.969
51037W        W19431  35.788  12.452   3.181
51038W        W19432   7.961  28.540   0.993
51039W        W19433  40.139  29.073  11.607
51040W        W19434  17.097  14.400   0.859
51041W        W19435  23.656   6.140   2.631
51042W        W19436  27.948  39.240  14.911
51043W        W19437   4.853  44.562  10.679
51044W        W19438   4.933  24.543  12.656
51045W        W19439  16.720  18.119  11.089
51046W        W19440   2.273   1.438  11.171
51047W        W19441   1.042  18.022   2.247
51048W        W19442  40.965   1.382   3.684
51049W        W19443  35.913  44.563   0.319
51050W        W19444  15.282   3.795   2.926
51051W        W19445   6.712  18.282   0.287
51052W        W19446  21.704   9.227  11.951
51053W        W19447  28.995  43.661  12.782
51054W        W19448  19.365  19.177  14.304
51055W        W19449  22.139  31.019   3.800
51056W        W19450  29.007   6.286  12.162
51057W        W19451   7.926  13.395  12.874
51058W        W19452  38.327  35.949  10.720
51059W        W19453  21.880   8.493   4.670
51060W        W19454  22.797  15.758   2.601
51061W        W19455  20.541   6.182  10.788
51062W        W19456  25.186  39.385  14.060
51063W        W19457  16.197  23.203  14.954
51064W        W19458  12.267   4.694   1.621
51065W        W19459  10.468  32.816   0.294
51066W        W19460  44.671  44.690  14.985
51067W        W19461  38.324   2.872  13.489
51068W        W19462  17.648  38.827   0.224
51069W        W19463  23.163  14.151   5.025
51070W        W19464   3.762  26.454  12.023
51071W        W19465  40.415  38.881   3.162
51072W        W19466  24.747  20.602   2.437
51073W        W19467  35.166  24.338   4.517
51074W        W19468  23.035  12.850   2.310
51075W        W19469   0.931   6.366   1.531
51076W        W19470   1.240  11.371  13.875
51077W        W19471  30.088  33.750   1.760
51078W        W19472  15.611  16.860   4.625
51079W        W19473   3.322  31.232  13.365
51080W        W19474  14.056  32.676  11.665
51081W        W19475  40.105  19.348  11.114
51082W        W19476   0.955  17.367   1.288
51083W        W19477  17.539  23.754   3.659
51084W        W19478   6.099   9.782  11.533
51085W        W19479  32.868   0.989   3.680
51086W        W19480  33.616  34.378   2.330
51087W        W19481  31.113  34.694  13.940
51088W        W19482  10.854  38.130  11.092
51089W        W19483  26.478  12.090  13.061
51090W        W19484  23.537  24.676   1.776
51091W        W19485  23.095  34.149   3.693
51092W        W19486  21.315  31.037  11.449
51093W        W19487   9.860  34.133  14.911
51094W        W19488  10.600   6.299  13.827
51095W        W19489   3.869  33.677   4.078
51096W        W19490  30.903  20.979   5.060
51097W        W19491  22.130  31.385   4.878
51098W        W19492   7.903  23.732   3.691
51099W        W19493   8.827  36.119  11.997
51100W        W19494  12.225  40.167   2.371
51101W        W19495  26.532  26.640   0.174
51102W        W19496  23.066  21.333   3.068
51103W        W19497   6.363  17.792   0.878
51104W        W19498  10.278  24.096   3.719
51105W        W19499  41.914   6.585  11.229
51106W        W19500  38.895  18.940  13.983
51107W        W19501  15.780  27.900   0.043
51108W        W19502   9.494  24.587  11.473
51109W        W19503  28.735  36.904  14.315
51110W        W19504  13.780  17.275  10.788
51111W        W19505  13.548  28.925   0.266
51112W        W19506   9.443  15.066  14.359
51113W        W19507   5.223  30.876  14.305
51114W        W19508  28.764  13.716   2.736
51115W        W19509  27.115  21.092   0.305
51116W        W19510  36.929  37.303   4.505
51117W        W19511  26.865  23.064  12.600
51118W        W19512   7.258   0.684  12.911
51119W        W19513  43.075   3.363  11.596
51120W        W19514  32.097  24.024   1.446
51121W        W19515  13.570  26.797   2.230
51122W        W19516  15.273   3.393   2.242
51123W        W19517   0.321   2.440  10.817
51124W        W19518  10.344  15.783   3.201
51125W        W19519  41.270  31.566  11.944
51126W        W19520   4.263  36.999   4.557
51127W        W19521  20.010   6.944  11.196
51128W        W19522  30.949  27.038  11.374
51129W        W19523  16.499   4.779  12.922
51130W        W19524   5.749  23.803   1.413
51131W        W19525  23.242  21.190  14.534
51132W        W19526  21.243  32.403   0.722
51133W        W19527   7.922  13.978   1.848
51134W        W19528  41.542   8.121  13.049
51135W        W19529  20.984  15.133   5.050
51136W        W19530  17.812   4.359  12.002
51137W        W19531  27.855   4.446   4.223
51138W        W19532  15.208  15.362   0.727
51139W        W19533  28.658  43.802  13.124
51140W        W19534  38.467  21.681  14.475
51141W        W19535  34.883  29.337   1.596
51142W        W19536  18.238  15.736  10.537
51143W        W19537  20.832  22.453   4.346
51144W        W19538  16.995  38.322  12.975
51145W        W19539  32.878  12.736  10.689
51146W        W19540   3.941  16.223  11.110
51147W        W19541  34.961  15.555  14.315
51148W        W19542  38.056   8.046   0.349
51149W        W19543  25.179  21.871  12.546
51150W        W19544   2.465  34.815  10.599
51151W        W19545   9.755  32.109  10.757
51152W        W19546  20.518  42.504  14.325
51153W        W19547  23.495  17.359  11.517
51154W        W19548   7.797  36.089   0.539
51155W        W19549  18.219  43.793   3.679
51156W        W19550  17.318  11.849   4.542
51157W        W19551  32.592  35.990   5.022
51158W        W19552  32.984  22.090  11.684
51159W        W19553  13.775  44.496   0.325
51160W        W19554  16.188  31.776   9.919
51161W        W19555  28.934  20.944  11.578
51162W        W19556  12.845   1.478  14.966
51163W        W19557  22.508   5.751   1.827
51164W        W19558  16.122   3.749  13.364
51165W        W19559   9.816  16.678   0.674
51166W        W19560   8.135   4.928   3.924
51167W        W19561  40.497  36.827   2.671
51168W        W19562  25.920   8.210   3.774
51169W        W19563  14.629  24.143  11.559
51170W        W19564  13.042  38.332   4.227
51171W        W19565  27.839   8.629  12.454
51172W        W19566  40.302  34.826   1.525
51173W        W19567   6.149  41.488   0.881
51174W        W19568  21.791  27.192  10.186
51175W        W19569   1.054   5.180   3.182
51176W        W19570  22.381  12.641  10.686
51177W        W19571  10.157  14.863  12.056
51178W        W19572  40.470  28.323  13.329
51179W        W19573   4.189   2.643   4.877
51180W        W19574  12.130  20.308   3.303
51181W        W19575  42.812   0.407   3.660
51182W        W19576   9.866  30.005  10.736
51183W        W19577  41.746  16.330   4.120
51184W        W19578  15.539   1.708   3.631
51185W        W19579  18.773  13.393  13.912
51186W        W19580   2.348  44.528  12.907
51187W        W19581  26.953   0.814   0.414
51188W        W19582   5.080  38.091   1.685
51189W        W19583  26.489  38.582   2.248
51190W        W19584   4.718  39.951   3.739
51191W        W19585  33.551  44.783   4.641
51192W        W19586  22.291  26.979  12.837
51193W        W19587  25.584   7.341   2.696
51194W        W19588  37.071   0.981  10.800
51195W        W19589  26.497   4.973  11.149
51196W        W19590  15.110  32.291  13.463
51197W        W19591  39.025  25.680  14.969
51198W        W19592  16.351  19.356   1.747
51199W        W19593  40.244  27.384   0.873
51200W        W19594  11.365  39.234  13.108
51201W        W19595  32.728  11.924   0.209
51202W        W19596  21.977  30.551   0.500
51203W        W19597   6.729  20.601  14.304
51204W        W19598  26.411  22.514  11.449
51205W        W19599  19.123  28.163   0.822
51206W        W19600   4.719  33.207  14.800
51207W        W19601  19.282  41.617  10.711
51208W        W19602  25.971  29.639  13.470
51209W        W19603  23.578  33.962   1.325
51210W        W19604  12.334  16.623   3.340
51211W        W19605  23.782   1.511  11.937
51212W        W19606  42.368  28.638   0.533
51213W        W19607   2.370  36.486   3.702
51214W        W19608  32.953  18.470  14.926
51215W        W19609  38.548  22.279  11.058
51216W        W19610  41.578   8.772   1.031
51217W        W19611  25.280  15.278  12.049
51218W        W19612  13.981   6.323   1.086
51219W        W19613  40.064  30.116  12.602
51220W        W19614   0.168  33.867  12.984
51221W        W19615  28.699  27.443   0.889
51222W        W19616  29.627  10.644  11.521
51223W        W19617  42.291  44.540  13.438
51224W        W19618  10.287  26.676  11.271
51225W        W19619  33.083  14.640  14.558
51226W        W19620   6.359  40.366  12.175
51227W        W19621   4.793  29.928   0.953
51228W        W19622  35.970  22.625  13.450
51229W        W19623  17.277  20.327  12.501
51230W        W19624  10.632  36.873  13.804
51231W        W19625   0.088   8.146  12.260
51232W        W19626  36.950  38.451   5.038
51233W        W19627   2.551  18.517  14.964
51234W        W19628  32.680   8.750  11.189
51235W        W19629  43.869  34.004  13.515
51236W        W19630  36.520   8.646   3.356
51237W        W19631   5.737  42.438  11.605
51238W        W19632  10.415  31.616   3.339
51239W        W19633  12.666  12.103   2.918
51240W        W19634   1.870   8.639  11.664
51241W        W19635  44.239  33.335   2.232
51242W        W19636  33.189  30.842  12.495
51243W        W19637  26.514   0.248  14.430
51244W        W19638  14.033  15.159   1.307
51245W        W19639  31.671  41.099  12.309
51246W        W19640  30.623  18.118   2.636
51247W        W19641  42.367  39.945  10.254
51248W        W19642  10.411  38.876   0.687
51249W        W19643  29.025  30.227  14.849
51250W        W19644  10.313  38.791   1.185
51251W        W19645   6.197  40.584  14.252
51252W        W19646  10.688   4.011  13.017
51253W        W19647  35.184   8.112   2.776
51254W        W19648  27.002   4.771  12.929
51255W        W19649  42.468  31.609  13.162
51256W        W19650   1.180  11.797   1.836
51257W        W19651   1.373  24.399  10.704
51258W        W19652  12.687  25.467   5.052
51259W        W19653  19.032   0.024   0.842
51260W        W19654  20.609  24.181  14.406
51261W        W19655   1.251  39.495   4.247
51262W        W19656   2.697  44.937  11.117
51263W        W19657  32.538  29.028  10.764
51264W        W19658  26.089   5.895   4.272
51265W        W19659  42.374  16.527   2.874
51266W        W19660   6.017  23.349   0.329
51267W        W19661  20.553  44.481  13.294
51268W        W19662  42.900  16.168   2.448
51269W        W19663  21.790  24.626  11.492
51270W        W19664  35.920  33.945  10.672
51271W        W19665  44.228  14.824  13.995
51272W        W19666  17.288  23.267  12.435
51273W        W19667  39.859  15.145   4.412
51274W        W19668  22.657  35.066   3.574
51275W        W19669  31.082  28.697  14.307
51276W        W19670  20.028  32.187  12.558
51277W        W19671  43.820  23.951  12.938
51278W        W19672  31.823  41.998   4.983
51279W        W19673  40.358  34.992  11.613
51280W        W19674   4.320   0.391   1.255
51281W        W19675   6.103   5.213   0.350
51282W        W19676  16.042  11.186   3.032
51283W        W19677  44.542  19.574   4.704
51284W        W19678  18.494   6.680  12.931
51285W        W19679  44.477  11.605  13.076
51286W        W19680  28.228   3.745   4.034
51287W        W19681   7.409   7.618   2.267
51288W        W19682   1.523  33.446  11.207
51289W        W19683  37.429   7.413   4.965
51290W        W19684   5.482  42.865   0.802
51291W        W19685  28.456  38.360   4.765
51292W        W19686  25.808  15.613  11.472
51293W        W19687  22.797  19.851   2.218
51294W        W19688   6.499   8.280   1.970
51295W        W19689  41.502  17.046   2.793
51296W        W19690  39.981  40.803   3.237
51297W        W19691   3.722  30.459   1.777
51298W        W19692  22.844  31.640  13.481
51299W        W19693  42.563   8.335   1.192
51300W        W19694   6.114  15.577  12.479
51301W        W19695  37.901  16.683  14.235
51302W        W19696   5.189  38.072   1.171
51303W        W19697  38.216  34.709   3.437
51304W        W19698  40.583   6.200   3.231
51305W        W19699   0.014  17.548  11.326
51306W        W19700   8.724  27.525  11.308
51307W        W19701  25.762  11.890   4.466
51308W        W19702  22.063   8.776  13.545
51309W        W19703  36.574  22.988   1.954
51310W        W19704  23.261  12.750  13.547
51311W        W19705  26.434  39.836  10.991
51312W        W19706  23.030  27.582  11.888
51313W        W19707   1.353  12.346   0.500
51314W        W19708  13.589  32.171   2.461
51315W        W19709  14.576  39.933   2.333
51316W        W19710  20.463  20.021  10.631
51317W        W19711   7.637  36.593   3.349
51318W        W19712  24.072  12.887  13.069
51319W        W19713  12.200  11.241   3.022
51320W        W19714   7.696  29.152  10.332
51321W        W19715  29.277  20.951   2.935
51322W        W19716  43.244   3.693   0.288
51323W        W19717  26.266  32.619   1.664
51324W        W19718  29.830  27.946   1.203
51325W        W19719  27.058  22.934  12.143
51326W        W19720  25.218  13.507   3.410
51327W        W19721   4.660  24.033   5.154
51328W        W19722  10.573  40.234   4.875
51329W        W19723  24.783  22.430   0.884
51330W        W19724  34.118  10.321   1.579
51331W        W19725   1.976   7.159   1.765
51332W        W19726  34.071   9.699  11.668
51333W        W19727  24.049  19.182  14.899
51334W        W19728  13.158  28.596   2.470
51335W        W19729  32.897  10.101   2.422
51336W        W19730  19.639  36.117  11.464
51337W        W19731  41.251  21.357  10.229
51338W        W19732  17.253  16.080  13.791
51339W        W19733  28.270  36.842   3.117
51340W        W19734  15.848  43.039  14.359
51341W        W19735  31.845  24.407  13.164
51342W        W19736  38.949  33.426  10.926
51343W        W19737  16.338  15.308  12.593
51344W        W19738  31.020  33.443   4.202
51345W        W19739  14.905  27.888   2.353
51346W        W19740  43.070  40.461  12.046
51347W        W19741  29.512  15.067  11.582
51348W        W19742  40.501  42.801  11.161
51349W        W19743  14.978   2.140   0.603
51350W        W19744  13.095  11.131   0.746
51351W        W19745   8.300  14.473   0.172
51352W        W19746  13.426  43.262  12.098
51353W        W19747  43.946  42.205   1.904
51354W        W19748  38.862   7.017  14.321
51355W        W19749  35.042   8.578  11.596
51356W        W19750   9.861  16.081   2.145
51357W        W19751  44.081   6.004   0.317
51358W        W19752  17.398   9.314  14.571
51359W        W19753  39.151  12.157  12.033
51360W        W19754   9.796  24.761  14.818
51361W        W19755  33.585  13.154  14.368
51362W        W19756  14.883  41.504   4.954
51363W        W19757  40.287  22.314   4.432
51364W        W19758  39.641   5.769  12.103
51365W        W19759  11.401   6.475  10.625
51366W        W19760  20.784  28.284   1.898
51367W        W19761  31.514  18.292  12.439
51368W        W19762  36.086  26.200   2.958
51369W        W19763   0.503  30.612   3.231
51370W        W19764  26.969   2.523   2.144
51371W        W19765  20.469  39.508   0.507
51372W        W19766  15.135  36.341   1.411
51373W        W19767  21.066  29.736  14.376
51374W        W19768  34.409  43.592  12.991
51375W        W19769  22.088  10.985  14.375
51376W        W19770  33.159  19.263  13.433
51377W        W19771  12.788  36.850   0.725
51378W        W19772  14.698  27.440  13.209
51379W        W19773  12.288  42.210  11.166
51380W        W19774  41.588  41.227  14.889
51381W        W19775  44.700  38.606  12.059
51382W        W19776  20.376  28.897  13.901
51383W        W19777  35.916   3.810  14.027
51384W        W19778  34.387  15.325  13.841
51385W        W19779   0.225  13.800  14.006
51386W        W19780   8.286  13.615   1.903
51387W        W19781   5.408  42.148   4.606
51388W        W19782  24.156  36.897   0.967
51389W        W19783  42.412  16.336   1.513
51390W        W19784   4.279  44.499   3.707
51391W        W19785  13.716  28.473  12.291
51392W        W19786   9.895  29.720   5.100
51393W        W19787  33.297  44.986  12.156
51394W        W19788  16.117  20.097   3.449
51395W        W19789   7.816   5.970  13.127
51396W        W19790  25.529  30.215   0.314
51397W        W19791   5.713  34.860  11.145
51398W        W19792  39.786  33.493   1.361
51399W        W19793  40.419   2.445  11.190
51400W        W19794  40.884  20.332   0.915
51401W        W19795  40.900  32.243  14.807
51402W        W19796   3.901   4.038  10.019
51403W        W19797  11.256  10.246   4.057
51404W        W19798  26.496  39.516  13.896
51405W        W19799  27.874  28.303  11.862
51406W        W19800  41.915   6.696   2.260
51407W        W19801  43.326  12.495  11.651
51408W        W19802  14.678  28.616  14.467
51409W        W19803   2.716  10.823  10.407
51410W        W19804  35.079   8.406  13.502
51411W        W19805  43.114   2.104  13.718
51412W        W19806   1.463  13.190  12.968
51413W        W19807   4.264  30.970  14.336
51414W        W19808  26.135  23.483  11.500
51415W        W19809  43.480   7.139  13.051
51416W        W19810  27.170  16.804   4.288
51417W        W19811  16.435  18.734  10.345
51418W        W19812  11.754  30.296  10.609
51419W        W19813  33.128  24.131  11.664
51420W        W19814  30.103  20.038   3.280
51421W        W19815  35.590  11.927  12.379
51422W        W19816   3.025   8.287   4.852
51423W        W19817  41.609  14.169   0.446
51424W        W19818  14.066  37.737   3.279
51425W        W19819  25.958   3.492  12.664
51426W        W19820  25.632   9.449   4.503
51427W        W19821  29.772   1.028   0.262
51428W        W19822  27.288  34.011   1.811
51429W        W19823   1.901  40.066   0.383
51430W        W19824  16.192  17.131   5.425
51431W        W19825  28.147   8.230  14.352
51432W        W19826  13.249  40.392  14.774
51433W        W19827   7.005  25.086   1.432
51434W        W19828  37.166  40.316   3.031
51435W        W19829  30.311  33.371  13.992
51436W        W19830   5.744  23.295   1.517
51437W        W19831   3.574  37.278   3.802
51438W        W19832   2.089  35.326   2.924
51439W        W19833  13.750  38.757  12.067
51440W        W19834  21.036  19.349   2.749
51441W        W19835  17.100   7.120   3.595
51442W        W19836  10.652  22.924  10.578
51443W        W19837  20.566  39.994  13.804
51444W        W19838   5.348   8.858  14.217
51445W        W19839  40.067  36.851  12.172
51446W        W19840   6.494  31.353   3.757
51447W        W19841   8.913  29.908  11.543
51448W        W19842  39.112  39.286   4.635
51449W        W19843   3.757  38.029  14.690
51450W        W19844  18.956  33.588   0.333
51451W        W19845  27.765  35.757  13.643
51452W        W19846  30.486  24.666   4.585
51453W        W19847  22.932  21.972   4.483
51454W        W19848  17.579   2.122   3.511
51455W        W19849  13.746  20.945   4.698
51456W        W19850  43.465  38.219   2.363
51457W        W19851  17.123  39.996   1.029
51458W        W19852  31.164  35.455  13.499
51459W        W19853  10.889  20.180   0.015
51460W        W19854   2.760  33.399  13.352
51461W        W19855  16.385  16.809   5.065
51462W        W19856  20.225  18.060  12.130
51463W        W19857  26.490  27.490  13.497
51464W        W19858   0.088  31.072  14.886
51465W        W19859  11.946  12.621   2.779
51466W        W19860  10.288  22.688  12.176
51467W        W19861  39.900  38.368   0.841
51468W        W19862  37.550   6.630  14.029
51469W        W19863  29.455  28.404  13.334
51470W        W19864  35.534  15.056  14.957
51471W        W19865  26.309   5.353  13.564
51472W        W19866  24.031  28.588  12.575
51473W        W19867  16.332  24.249  12.644
51474W        W19868  30.849  10.314   1.816
51475W        W19869  32.792  20.557  11.643
51476W        W19870  44.247  35.952  10.551
51477W        W19871  16.297  19.845   4.455
51478W        W19872  20.533  30.316  13.436
51479W        W19873  36.984  20.646  12.964
51480W        W19874  21.895  31.663   2.593
51481W        W19875   7.971   9.807   1.096
51482W        W19876  25.657   4.857  13.952
51483W        W19877  34.796  34.654   1.439
51484W        W19878  43.939  19.602  10.877
51485W        W19879  39.952  27.290   4.126
51486W        W19880  21.595  32.011  12.507
51487W        W19881  29.187  12.359   2.785
51488W        W19882  13.795  14.184   2.221
51489W        W19883  23.562  38.839  11.029
51490W        W19884  16.935  34.636   2.735
51491W        W19885  16.238  13.349   1.139
51492W        W19886  16.596  41.087   3.340
51493W        W19887  12.167  33.971   4.690
51494W        W19888  28.878  33.887   0.754
51495W        W19889  20.302  44.269   4.643
51496W        W19890  15.107  37.766   9.916
51497W        W19891  20.763  26.556   5.398
51498W        W19892  32.064  31.716  11.131
51499W        W19893  36.629  19.991  13.933
51500W        W19894  17.198   4.802   4.942
51501W        W19895  28.452  30.902  11.608
51502W        W19896   8.853  16.003   2.613
51503W        W19897  30.878  32.032  12.447
51504W        W19898  18.898  20.707   2.874
51505W        W19899  24.420  17.130  11.148
51506W        W19900  22.830  42.000   1.152
51507W        W19901  34.318  29.564   0.693
51508W        W19902   7.225  40.261   0.589
51509W        W19903   1.082  12.767  12.714
51510W        W19904   3.389  14.593  11.657
51511W        W19905  35.034  37.969  12.559
51512W        W19906  36.627  19.684   0.982
51513W        W19907   3.499  18.138   1.425
51514W        W19908  34.053   5.938  11.395
51515W        W19909  25.585  34.068   2.591
51516W        W19910  33.528  16.794   2.214
51517W        W19911  29.219   9.869  12.641
51518W        W19912  13.104  16.193  13.444
51519W        W19913  40.766  27.573  12.622
51520W        W19914  36.331  29.970   0.447
51521W        W19915  33.715  20.494  13.892
51522W        W19916   5.614  10.591   4.035
51523W        W19917   9.382   7.372   0.264
51524W        W19918  19.804  34.288   4.230
51525W        W19919  43.400  44.250  14.850
51526W        W19920  23.838  23.345   2.341
51527W        W19921  43.664  27.290   2.022
51528W        W19922  28.578  40.581  10.734
51529W        W19923   9.309   9.972   4.155
51530W        W19924   7.291   9.814  12.511
51531W        W19925  15.380  43.356  10.454
51532W        W19926  43.369  32.422  12.006
51533W        W19927  38.335  27.532   3.819
51534W        W19928  35.227  14.853   5.012
51535W        W19929  43.091  11.524  10.020
51536W        W19930  12.475  16.997  11.044
51537W        W19931  19.728  33.791   1.748
51538W        W19932   4.814  11.864   0.834
51539W        W19933  16.743  35.401   2.391
51540W        W19934  43.386  31.564   3.859
51541W        W19935  44.890   0.474  14.811
51542W        W19936  41.396   3.978   1.932
51543W        W19937  14.380   0.783  14.389
51544W        W19938  26.169  12.190   1.966
51545W        W19939  44.916  10.783   2.687
51546W        W19940  33.413  14.052   2.718
51547W        W19941  13.679  15.972   3.700
51548W        W19942  12.333  22.086   1.775
51549W        W19943  38.973  25.264   4.191
51550W        W19944  21.145  18.546   3.163
51551W        W19945  37.041  11.453   3.190
51552W        W19946  12.644  18.704  14.568
51553W        W19947   3.086   6.556  13.319
51554W        W19948   6.171  39.769   2.950
51555W        W19949  32.826  28.640   0.295
51556W        W19950   5.652  20.160   3.263
51557W        W19951   2.443   7.797  13.888
51558W        W19952  37.599  17.462   4.733
51559W        W19953   4.520  30.034  14.578
51560W        W19954  12.699  10.637   4.126
51561W        W19955   0.667  26.448   4.529
51562W        W19956  10.460  43.679   3.801
51563W        W19957   0.845  42.547   0.286
51564W        W19958  13.724   8.315  12.880
51565W        W19959  32.422  32.979   2.772
51566W        W19960  19.775   1.473   1.491
51567W        W19961  35.565  18.704   3.147
51568W        W19962  14.298  22.102   3.504
51569W        W19963  41.466  31.611  11.424
51570W        W19964  42.562  29.104   3.914
51571W        W19965  42.067  43.654  14.911
51572W        W19966  13.599  42.403  10.999
51573W        W19967  33.273  27.264   1.448
51574W        W19968  32.224  38.432   2.908
51575W        W19969  15.282  34.378   1.641
51576W        W19970  41.777   7.197   2.238
51577W        W19971  16.510   8.435  11.147
51578W        W19972  35.117  23.584   2.309
51579W        W19973  40.382  13.699  10.753
51580W        W19974  27.626   4.309   4.676
51581W        W19975   4.162  33.519   2.633
51582W        W19976  44.904  32.509  14.346
51583W        W19977  25.389  25.489   4.112
51584W        W19978  23.091  32.134   2.857
51585W        W19979  13.113   7.842   4.667
51586W        W19980   8.313  19.240   4.599
51587W        W19981   4.425  33.013   4.828
51588W        W19982  39.314  13.340   1.263
51589W        W19983  23.620  28.326   2.405
51590W        W19984   7.098  39.616  14.090
51591W        W19985  34.171   6.782  11.216
51592W        W19986  11.612   5.358   3.141
51593W        W19987   7.033  13.453   4.451
51594W        W19988  17.098  11.947   0.286
51595W        W19989  15.185  31.174   3.191
51596W        W19990   5.691  40.137  11.862
51597W        W19991  16.037  17.841   2.677
51598W        W19992  39.948  10.188   2.541
51599W        W19993  11.605  34.169  14.818
51600W        W19994  11.223  39.138   4.845
51601W        W19995   2.831  15.582  14.820
51602W        W19996   1.447   8.789   0.619
51603W        W19997  20.086  18.249   0.904
51604W        W19998  41.802   2.964  11.151
51605W        W19999  42.120   0.791   0.360
51606W        W20000  12.069  26.933   4.223
51607W        W20001  11.689  32.913  14.538
51608W        W20002  34.012  26.569   0.410
51609W        W20003  16.523  40.061  13.420
51610W        W20004  23.321  42.574  12.563
51611W        W20005   1.524  38.043   3.092
51612W        W20006  16.549  17.275   0.263
51613W        W20007  26.309  34.992   0.945
51614W        W20008  24.066  27.097   0.184
51615W        W20009  12.273  35.138   4.594
51616W        W20010  18.820  26.053  13.871
51617W        W20011  30.919  12.517   2.171
51618W        W20012  31.996  15.035  13.377
51619W        W20013   4.875  22.191   4.362
51620W        W20014  44.045  39.691  12.165
51621W        W20015  15.504  25.211  13.428
51622W        W20016  22.607  29.137  10.701
51623W        W20017  38.491  27.226   1.272
51624W        W20018  14.701  24.230  13.855
51625W        W20019  22.109  25.898  14.399
51626W        W20020  20.028  27.250   1.747
51627W        W20021  32.497  31.405  11.154
51628W        W20022  42.391   1.542   2.492
51629W        W20023  14.070  44.715  13.383
51630W        W20024  16.327  13.170  12.956
51631W        W20025  22.674  32.111  14.791
51632W        W20026  29.689   5.659   1.787
51633W        W20027  24.953  11.836   3.941
51634W        W20028  39.766  32.934   0.716
51635W        W20029  11.155  35.366  13.089
51636W        W20030  17.522  34.012   4.053
51637W        W20031  32.350  26.494  12.472
51638W        W20032  21.431  22.371  11.431
51639W        W20033  30.093  22.015   1.745
51640W        W20034  11.096  26.441   2.887
51641W        W20035  38.022  41.396   2.778
51642W        W20036   8.141  32.581   1.723
51643W        W20037  31.364  15.173   1.731
51644W        W20038  22.147   2.900  10.427
51645W        W20039  15.861   6.503  14.044
51646W        W20040  17.526  34.408   2.022
51647W        W20041  39.042   6.454   2.136
51648W        W20042  36.822  44.794   1.810
51649W        W20043  32.172   2.875   2.436
51650W        W20044  35.467  29.257  14.440
51651W        W20045  35.615  30.428   3.543
51652W        W20046  12.309  14.636   0.935
51653W        W20047  22.367   9.283   0.383
51654W        W20048   4.209  25.645  12.953
51655W        W20049  33.880  10.395   4.483
51656W        W20050  19.697  17.704   4.084
51657W        W20051  11.854   1.516   3.319
51658W        W20052  13.959  27.213  10.747
51659W        W20053  20.240  32.886   3.316
51660W        W20054  32.195  13.207  12.654
51661W        W20055  27.227  10.212   0.803
51662W        W20056  43.799   1.272  11.766
51663W        W20057  13.950  38.954   3.702
51664W        W20058  40.945  19.691  14.387
51665W        W20059  30.246  32.426  11.935
51666W        W20060   5.219  37.537   1.171
51667W        W20061  18.699  39.954  12.876
51668W        W20062  37.986  19.089  14.978
51669W        W20063  40.484  17.217  11.524
51670W        W20064  40.328  14.263   0.372
51671W        W20065   4.438  44.205   3.217
51672W        W20066   8.658   0.867  14.195
51673W        W20067   6.275  37.017  13.218
51674W        W20068  16.161   1.008   1.687
51675W        W20069  21.741   9.706  11.070
51676W        W20070   4.044   5.477   1.458
51677W        W20071  36.666  15.400   1.286
51678W        W20072  36.404  29.738  14.908
51679W        W20073   5.454  29.596  11.527
51680W        W20074  21.095  35.494   0.808
51681W        W20075  18.321  37.897  11.479
51682W        W20076  14.747  34.565  10.155
51683W        W20077   1.808   4.468   3.210
51684W        W20078  12.248  41.343  14.129
51685W        W20079  35.856  15.858  12.058
51686W        W20080  22.096  33.924   1.902
51687W        W20081  39.766  37.951  12.992
51688W        W20082   4.644   7.294  13.003
51689W        W20083  44.350  18.339   4.258
51690W        W20084  17.563   4.235  11.554
51691W        W20085  30.638   4.746  14.189
51692W        W20086  28.602  24.813  13.294
51693W        W20087  36.536  42.583   3.139
51694W        W20088  31.497   4.278   3.104
51695W        W20089  20.971   5.826  11.954
51696W        W20090  40.788  27.668   0.869
51697W        W20091  33.438  25.361  13.588
51698W        W20092  26.060  23.490   4.734
51699W        W20093   8.310  22.117  13.331
51700W        W20094   0.598  39.079  13.418
51701W        W20095  23.923  35.070   2.866
51702W        W20096  30.881  35.754   3.903
51703W        W20097  22.716  16.218   3.313
51704W        W20098  21.125   8.059   3.835
51705W        W20099  29.424  28.581   0.635
51706W        W20100   8.724  13.840   3.303
51707W        W20101  22.879   8.735   3.268
51708W        W20102   3.935  35.944   0.874
51709W        W20103  30.163  29.765  10.584
51710W        W20104  32.972   9.778  12.976
51711W        W20105  39.980   0.421   2.287
51712W        W20106  41.274  11.895   1.812
51713W        W20107  22.497  34.636  11.172
51714W        W20108   4.776   3.476   4.078
51715W        W20109  44.661  29.985  13.483
51716W        W20110  10.329  38.146  13.814
51717W        W20111  15.001   4.007  14.523
51718W        W20112  43.445  10.389   3.262
51719W        W20113  16.589  22.334  11.986
51720W        W20114  25.183  15.331  11.147
51721W        W20115   0.770  36.395   0.509
51722W        W20116   8.877  42.561  13.433
51723W        W20117   0.181  37.561  12.556
51724W        W20118  33.205   4.839  10.701
51725W        W20119   2.882  43.872  11.692
51726W        W20120  30.291  40.044   0.395
51727W        W20121  25.111  11.648   1.688
51728W        W20122  18.557  31.896  13.517
51729W        W20123  21.592  20.401   0.117
51730W        W20124  35.973  15.928  14.718
51731W        W20125   6.757  40.605  12.919
51732W        W20126   4.379  16.620  13.989
51733W        W20127  41.498  40.989   2.329
51734W        W20128  30.878  28.447  12.519
51735W        W20129  23.005  24.569   1.053
51736W        W20130  27.208  28.046   1.860
51737W        W20131  28.061  30.346   4.017
51738W        W20132  31.075  39.377  11.527
51739W        W20133   8.910   2.014   4.303
51740W        W20134  35.635  36.354   1.394
51741W        W20135  20.992  13.573   2.438
51742W        W20136  27.736   1.174  12.205
51743W        W20137  13.275  34.073  13.010
51744W        W20138  30.142  13.685   1.890
51745W        W20139  19.360   4.545  11.486
51746W        W20140  14.646   7.215   2.113
51747W        W20141   6.220  14.619  11.684
51748W        W20142  21.068  42.798   3.575
51749W        W20143  12.132  44.584  10.418
51750W        W20144  24.395   0.051  14.968
51751W        W20145  27.475  31.998   2.785
51752W        W20146  29.692  29.409  12.053
51753W        W20147   8.270  26.499   4.530
51754W        W20148  42.997  28.239  11.980
51755W        W20149   0.281   5.845  11.056
51756W        W20150  18.703   4.661   1.726
51757W        W20151   8.186   2.708  13.480
51758W        W20152  44.324   3.926   3.903
51759W        W20153  12.829  23.192   2.707
51760W        W20154  23.705   7.620   1.821
51761W        W20155  26.506  39.873   3.767
51762W        W20156  27.574   6.273  11.428
51763W        W20157   8.480  39.181  11.269
51764W        W20158  18.333  14.142  12.606
51765W        W20159  40.932  24.247  13.954
51766W        W20160  10.658  34.342   3.095
51767W        W20161  42.313  35.316  11.884
51768W        W20162  40.092  37.580   1.227
51769W        W20163  42.904  35.456  13.086
51770W        W20164  22.322  18.626   3.562
51771W        W20165  11.280  42.824   1.020
51772W        W20166  12.600   9.254   1.436
51773W        W20167  34.417   0.470  11.637
51774W        W20168  24.758  39.803   4.199
51775W        W20169  39.283  31.621  12.676
51776W        W20170  32.399  42.914   2.856
51777W        W20171  38.457  23.959   1.230
51778W        W20172  40.029  14.724   2.127
51779W        W20173  36.125  43.562  14.872
51780W        W20174  25.828  29.768   2.550
51781W        W20175  11.788   3.366  14.290
51782W        W20176  33.314   2.383  13.720
51783W        W20177  29.779  10.339  11.918
51784W        W20178  20.229  27.846   0.844
51785W        W20179  24.040   6.929  11.362
51786W        W20180  42.521  21.633  12.605
51787W        W20181  20.289  22.463   4.285
51788W        W20182   2.513  36.229   3.283
51789W        W20183  38.520  33.897   2.954
51790W        W20184  18.761  36.259   1.885
51791W        W20185  18.562   0.097   3.231
51792W        W20186  11.772   3.164   3.672
51793W        W20187  10.948  24.419  13.869
51794W        W20188  29.903   0.400  12.062
51795W        W20189  18.640  34.923   3.809
51796W        W20190  19.191  24.018   2.922
51797W        W20191  16.314  31.496   2.796
51798W        W20192  43.628  31.100   4.514
51799W        W20193  42.401  32.867  13.593
51800W        W20194  25.010  27.050  14.227
51801W        W20195  23.083  35.455   4.360
51802W        W20196  35.007   1.369   2.378
51803W        W20197  24.353   7.264  11.542
51804W        W20198  32.142  10.077   0.471
51805W        W20199   4.000  17.686  12.362
51806W        W20200  39.957  43.330   2.180
51807W        W20201   9.698  25.071   0.245
51808W        W20202  20.496  43.306  12.598
51809W        W20203   1.748  26.258   4.470
51810W        W20204  28.674  22.711   3.282
51811W        W20205  37.378  20.999  11.755
51812W        W20206   0.242  12.371   1.376
51813W        W20207  15.283  30.636  14.642
51814W        W20208  27.057   8.041  11.656
51815W        W20209  16.093   5.566   1.008
51816W        W20210   8.461  35.574   2.739
51817W        W20211   4.957  32.131  10.828
51818W        W20212   8.966  14.637   2.911
51819W        W20213  11.503   8.397   0.356
51820W        W20214  14.318  13.644   1.358
51821W        W20215  15.103  22.610  13.734
51822W        W20216  14.297  21.242   1.289
51823W        W20217   4.620  19.972  12.326
51824W        W20218   4.129  26.630   5.131
51825W        W20219  16.115  41.847  12.560
51826W        W20220  40.401   4.706   3.326
51827W        W20221   9.828   9.564  14.387
51828W        W20222  43.176   1.830   4.472
51829W        W20223  20.246  27.340  14.003
51830W        W20224  12.289  12.236   0.236
51831W        W20225  44.704   9.382   2.365
51832W        W20226  32.075  28.744  12.500
51833W        W20227   8.396  38.352   4.545
51834W        W20228   4.470  41.355  13.522
51835W        W20229  29.155   0.424   0.304
51836W        W20230  38.579  22.844   0.518
51837W        W20231  26.213  23.217  14.195
51838W        W20232  39.329   4.270  11.417
51839W        W20233  21.564  20.733  14.215
51840W        W20234   3.252   5.736  14.701
51841W        W20235  24.175  37.596  11.474
51842W        W20236  14.690  11.411  12.102
51843W        W20237  21.713  29.024  13.313
51844W        W20238  43.407   8.073  13.235
51845W        W20239  17.707   6.913   0.466
51846W        W20240  31.556  20.687   1.018
51847W        W20241  38.313  28.574  11.583
51848W        W20242  43.263  31.486  11.696
51849W        W20243  18.350   7.794  11.263
51850W        W20244  41.098  29.573   2.784
51851W        W20245  25.122  23.422   3.549
51852W        W20246  24.330  30.554  11.675
51853W        W20247  38.303  43.652   2.015
51854W        W20248  35.257  21.194   3.610
51855W        W20249   2.919  30.132   3.599
51856W        W20250  42.459  14.323  11.871
51857W        W20251  44.663  26.499  12.161
51858W        W20252  16.247  39.511   2.873
51859W        W20253  40.842  35.214   2.706
51860W        W20254  23.775  33.565   4.048
51861W        W20255   7.879  38.943  12.850
51862W        W20256  19.757  33.646  14.932
51863W        W20257  25.908  34.533   2.773
51864W        W20258  11.210  13.321   4.234
51865W        W20259  36.056   8.916  12.976
51866W        W20260  23.096   3.486   0.965
51867W        W20261  29.899  23.216   4.600
51868W        W20262  15.314  38.030  11.538
51869W        W20263  17.556  11.726   0.388
51870W        W20264  28.080  16.374   4.019
51871W        W20265   4.721   9.453  13.405
51872W        W20266  22.909  26.325  10.693
51873W        W20267   6.076  15.493   3.243
51874W        W20268  17.710  18.743   4.984
51875W        W20269  30.917  32.368  14.882
51876W        W20270  36.029  14.237  10.795
51877W        W20271  41.377  15.787   0.247
51878W        W20272  11.362   5.214  14.494
51879W        W20273  13.283  43.920   1.844
51880W        W20274  27.776  23.380  11.409
51881W        W20275  21.554  40.429  14.979
51882W        W20276  39.403  11.649  12.044
51883W        W20277  13.708  19.661  13.754
51884W        W20278  19.120   8.796  11.056
51885W        W20279  28.974  30.478  13.006
51886W        W20280   4.786   2.464   4.141
51887W        W20281  33.499  37.291   0.730
51888W        W20282   6.897  35.030  11.575
51889W        W20283  27.603   9.935  11.698
51890W        W20284  33.508  23.903  13.368
51891W        W20285  17.626  12.061   3.258
51892W        W20286  24.913  41.330  11.090
51893W        W20287  30.001  24.481   0.686
51894W        W20288  22.958  25.498   3.859
51895W        W20289  34.387  41.802   4.683
51896W        W20290   7.204   2.209   3.850
51897W        W20291  25.334  41.498  13.464
51898W        W20292  21.411  20.247  14.432
51899W        W20293   7.013  22.531   2.760
51900W        W20294  13.236   3.811  11.566
51901W        W20295   3.826  41.208  11.029
51902W        W20296  30.382  19.698   2.639
51903W        W20297  26.702  20.849   2.548
51904W        W20298  21.961  42.316  12.553
51905W        W20299  41.978  42.552  13.501
51906W        W20300  12.270  32.740   3.626
51907W        W20301   0.494  39.297   3.771
51908W        W20302  18.661   1.500  14.315
51909W        W20303  16.553  31.092  13.995
51910W        W20304  25.966  26.704  11.218
51911W        W20305   8.337   0.663  11.418
51912W        W20306   3.369  15.853   2.270
51913W        W20307   4.825  16.579   1.697
51914W        W20308  15.240  26.086  13.026
51915W        W20309  36.068  24.010  13.226
51916W        W20310  42.753  28.212   1.439
51917W        W20311   5.081   9.878  13.311
51918W        W20312   3.166  41.536  13.405
51919W        W20313   1.075  16.729  14.080
51920W        W20314  20.261  18.216   4.534
51921W        W20315  23.672  42.409   4.326
51922W        W20316   4.293   4.887  11.972
51923W        W20317   1.734  11.835   4.292
51924W        W20318  23.581  34.425  12.108
51925W        W20319  42.147  29.314   2.979
51926W        W20320  41.499  44.313  14.739
51927W        W20321  23.573  41.804   3.016
51928W        W20322   8.160  19.761   0.342
51929W        W20323  41.136   4.921  10.850
51930W        W20324  37.711  40.272  12.124
51931W        W20325   2.816  33.893  11.689
51932W        W20326  41.312  42.376  11.188
51933W        W20327  11.684  27.685  12.599
51934W        W20328  44.392  31.822  11.191
51935W        W20329   3.090  30.090   4.082
51936W        W20330  27.439  27.237   4.460
51937W        W20331  42.698  25.558   5.152
51938W        W20332   5.685   4.134   0.362
51939W        W20333  31.514  38.062  10.648
51940W        W20334  29.737  36.592  12.947
51941W        W20335  27.043  36.074   3.843
51942W        W20336  28.029   2.112  14.701
51943W        W20337  22.438  33.157   3.558
51944W        W20338   1.433  15.908  11.923
51945W        W20339   3.436   8.420   4.145
51946W        W20340  16.816  12.087  10.983
51947W        W20341  24.671  40.372   0.233
51948W        W20342  18.760  42.909  13.794
51949W        W20343  34.819   8.962  10.709
51950W        W20344  43.381  28.641  14.447
51951W        W20345   0.145   4.946  11.996
51952W        W20346  14.244  11.652  11.221
51953W        W20347  29.192  44.872   4.170
51954W        W20348  10.702  29.114  12.932
51955W        W20349  19.146  26.246   4.504
51956W        W20350  43.955  30.068   1.974
51957W        W20351  11.159  24.764  12.560
51958W        W20352   8.411  17.114  12.815
51959W        W20353   7.038  30.017  13.397
51960W        W20354  16.736  21.019  11.437
51961W        W20355  44.963  12.223   0.418
51962W        W20356  34.461  20.739  11.159
51963W        W20357  33.841  16.618   1.854
51964W        W20358  40.480  11.816   3.141
51965W        W20359  23.015  26.520  11.176
51966W        W20360  13.850  44.980   2.478
51967W        W20361  31.104  42.080   3.732
51968W        W20362  30.612   2.933  12.525
51969W        W20363  20.469  20.793  12.523
51970W        W20364  17.413  34.466  11.630
51971W        W20365  25.188  40.102  13.790
51972W        W20366  17.140  23.985  11.990
51973W        W20367  11.731   7.306   0.829
51974W        W20368  22.171  38.809   0.361
51975W        W20369  22.213  36.228   2.694
51976W        W20370   7.463   0.251   3.652
51977W        W20371  41.159  13.075  11.316
51978W        W20372  17.558   7.371   1.272
51979W        W20373  23.054  25.999  11.098
51980W        W20374   4.719  43.247  12.872
51981W        W20375  23.119   5.677   3.993
51982W        W20376   9.785  37.427   4.399
51983W        W20377  18.991  16.180  13.855
51984W        W20378   5.051  32.087   3.680
51985W        W20379  12.046   1.879  13.413
51986W        W20380  33.641  28.408  11.666
51987W        W20381  17.198  27.974  12.328
51988W        W20382   3.785  26.572   3.580
51989W        W20383   1.737   9.784   0.362
51990W        W20384  42.985  22.165  13.742
51991W        W20385  41.524   1.300   3.013
51992W        W20386  28.927  43.822   3.251
51993W        W20387  26.887  44.884   2.364
51994W        W20388  11.794  33.947  13.462
51995W        W20389  33.021  30.868   2.105
51996W        W20390   3.507  22.165   0.313
51997W        W20391  41.436   9.402  12.952
51998W        W20392  16.342  19.837  12.571
51999W        W20393  23.147  13.361   3.279
52000W        W20394  37.272   7.922   1.966
52001W        W20395  39.538   4.956  14.881
52002W        W20396   9.458  15.055  13.412
52003W        W20397  43.000  36.109  11.203
52004W        W20398  11.276  20.275   1.376
52005W        W20399  11.283  30.776  13.849
52006W        W20400  27.157  10.059  13.984
52007W        W20401  10.850  44.471  13.024
52008W        W20402  29.526   8.850  13.240
52009W        W20403  34.890   0.276  11.865
52010W        W20404  32.921  16.319  11.628
52011W        W20405  40.362  44.100   4.657
52012W        W20406  36.335  35.445   0.285
52013W        W20407  19.588  13.310   1.751
52014W        W20408  25.409  11.905   3.262
52015W        W20409  19.385  41.257  13.917
52016W        W20410  10.800  23.802  12.385
52017W        W20411  34.421  13.280   2.496
52018W        W20412   8.070  14.558  10.722
52019W        W20413  15.559  17.317  11.379
52020W        W20414  27.109  29.185   2.607
52021W        W20415  10.474  43.340  13.337
52022W        W20416   1.963   4.230  11.208
52023W        W20417  23.043  38.702  12.158
52024W        W20418  14.340  13.789  14.254
52025W        W20419  31.563   8.907   2.726
52026W        W20420  27.234  14.311   1.881
52027W        W20421  10.506  42.978   4.568
52028W        W20422  35.648   9.913  13.244
52029W        W20423  13.503  41.347  11.949
52030W        W20424  26.593  40.580  12.077
52031W        W20425  12.130  17.432  13.970
52032W        W20426  37.230  20.012  14.809
52033W        W20427  19.821  10.657   1.892
52034W        W20428  30.964   6.490   4.833
52035W        W20429  42.717  14.718  11.029
52036W        W20430  35.111  32.459  14.747
52037W        W20431  18.823   3.404  11.184
52038W        W20432  25.250  19.025   2.745
52039W        W20433  44.480  25.321   4.105
52040W        W20434  23.232  24.074  12.391
52041W        W20435   4.227  17.209  10.402
52042W        W20436  14.361   3.220  13.500
52043W        W20437  41.660  17.990  14.130
52044W        W20438  28.196  42.021  13.376
52045W        W20439   2.286  23.973   2.932
52046W        W20440  11.041  10.013  14.937
52047W        W20441  41.302  41.487  10.880
52048W        W20442   1.183   9.769   3.082
52049W        W20443  23.616   3.772  13.484
52050W        W20444  34.944  14.002   4.515
52051W        W20445   3.268  41.455   0.334
52052W        W20446  43.841   6.511   4.677
52053W        W20447  41.355   7.286  11.104
52054W        W20448  40.563  26.642   0.248
52055W        W20449  44.477  42.362  13.569
52056W        W20450   9.393  31.945   2.749
52057W        W20451  18.290   8.391  10.573
52058W        W20452  22.085  16.070   2.656
52059W        W20453   3.906  35.132   0.372
52060W        W20454  13.606  40.094   1.432
52061W        W20455   6.136  32.463  12.039
52062W        W20456   0.440   5.398  10.778
52063W        W20457  38.562  10.727   1.283
52064W        W20458  41.528  18.134   2.739
52065W        W20459  28.153  10.369  14.510
52066W        W20460  35.995   7.430   0.259
52067W        W20461  11.810  43.031   3.305
52068W        W20462  22.460  11.833   1.847
52069W        W20463  43.355   8.489  13.898
52070W        W20464   5.443   0.670   4.778
52071W        W20465  42.822  20.485  12.756
52072W        W20466  34.429  33.820   4.529
52073W        W20467   7.930  19.626   3.345
52074W        W20468   7.281  38.768  13.531
52075W        W20469  41.914   2.224   2.203
52076W        W20470  28.128  43.797   3.940
52077W        W20471   2.315  37.605  12.079
52078W        W20472  18.856  16.290   2.450
52079W        W20473   2.439  27.687  12.392
52080W        W20474  17.627   7.664   0.840
52081W        W20475   9.243  44.503  11.654
52082W        W20476  23.266  12.837   0.477
52083W        W20477  19.510  11.340   1.713
52084W        W20478   3.902  15.319   1.183
52085W        W20479  11.747   9.310  12.995
52086W        W20480  13.997   8.663  11.695
52087W        W20481  18.701  35.424  13.350
52088W        W20482   7.581   2.944  14.908
52089W        W20483  21.039   1.893   4.690
52090W        W20484  16.622   0.489   2.412
52091W        W20485  25.437  16.444  12.165
52092W        W20486  43.759  17.104  13.996
52093W        W20487   3.381  12.455   1.789
52094W        W20488   7.867  27.074   1.174
52095W        W20489   3.404   3.128   4.502
52096W        W20490   8.880  19.770  12.040
52097W        W20491  38.571   1.830  14.308
52098W        W20492  37.008   8.831  11.432
52099W        W20493   4.814  23.754   4.753
52100W        W20494  38.562   2.978  11.486
52101W        W20495  20.823  25.943  10.122
52102W        W20496   2.285  36.749   3.258
52103W        W20497  22.986   5.307   4.818
52104W        W20498   0.988  11.064  11.250
52105W        W20499  16.801   5.549   4.935
52106W        W20500  40.048  34.465   2.798
52107W        W20501  22.756  31.044  11.579
52108W        W20502  21.279  27.908  10.730
52109W        W20503  37.549  19.305   0.226
52110W        W20504   9.424  10.060   1.327
52111W        W20505  26.155  42.999   5.265
52112W        W20506  22.688  20.665   2.767
52113W        W20507  44.935  16.302   3.169
52114W        W20508  34.285   7.232   4.623
52115W        W20509  35.627  36.025  13.958
52116W        W20510  17.012  32.532   0.717
52117W        W20511   0.870  12.346   0.303
52118W        W20512  31.848   1.049  13.602
52119W        W20513  14.121   4.997  13.998
52120W        W20514  12.736   3.926  11.657
52121W        W20515   8.168  26.568  13.375
52122W        W20516  39.052  30.662  13.456
52123W        W20517  12.769  19.216  10.555
52124W        W20518  39.793  20.662   2.862
52125W        W20519   2.004  41.786   0.853
52126W        W20520  22.689   2.310   4.604
52127W        W20521   1.919   9.600   2.795
52128W        W20522  25.707  37.980   4.409
52129W        W20523  11.110  13.917  14.220
52130W        W20524  14.890  31.430   2.344
52131W        W20525  38.105  16.100  12.035
52132W        W20526  40.337  16.613   2.970
52133W        W20527  39.874  32.957   3.755
52134W        W20528  30.373  31.561  12.904
52135W        W20529  25.594   7.960  11.078
52136W        W20530  29.460  22.883  10.575
52137W        W20531  15.469  35.424  12.683
52138W        W20532  40.284   3.158  13.859
52139W        W20533  17.765  29.315  14.231
52140W        W20534  12.798  17.516   4.549
52141W        W20535  27.487  11.321  11.617
52142W        W20536   9.336  30.116  11.955
52143W        W20537   0.132  25.416   3.751
52144W        W20538   1.577  40.352   1.163
52145W        W20539  28.855  28.862  11.185
52146W        W20540  39.508  25.168  13.499
52147W        W20541  31.071   6.819   0.282
52148W        W20542   6.413  27.220  14.829
52149W        W20543   6.328   8.419   3.349
52150W        W20544  41.436  16.693   2.172
52151W        W20545  12.791  16.064   0.835
52152W        W20546  36.847  28.102  11.205
52153W        W20547  33.578   2.245  14.561
52154W        W20548  40.872   0.572   3.762
52155W        W20549  23.438  21.406   1.250
52156W        W20550   1.328  25.983   0.961
52157W        W20551  12.548  36.206  14.971
52158W        W20552  23.730  39.368   2.549
52159W        W20553   5.117   2.220   3.826
52160W        W20554  26.416   7.790  14.516
52161W        W20555  30.067   7.206   2.114
52162W        W20556  19.540  19.479   1.955
52163W        W20557  13.932  15.129  12.174
52164W        W20558   2.683  13.956   3.129
52165W        W20559  18.272  15.603  11.054
52166W        W20560   2.234  36.930   2.767
52167W        W20561  28.595  35.107  10.839
52168W        W20562  15.454  15.885   1.475
52169W        W20563  35.345  27.684   1.742
52170W        W20564   9.307   4.780   0.747
52171W        W20565  14.702  39.885   1.831
52172W        W20566  34.435  24.479  13.159
52173W        W20567  24.001   9.328   3.345
52174W        W20568  11.877  33.715   1.705
52175W        W20569  27.161  44.738  12.050
52176W        W20570  11.929  36.420   4.069
52177W        W20571  28.215  29.343  10.743
52178W        W20572  40.288   8.246   0.871
52179W        W20573  25.214  19.950  13.578
52180W        W20574  30.870   2.796  12.941
52181W        W20575  24.575   8.276   3.029
52182W        W20576  38.752  26.539  10.815
52183W        W20577  36.554  18.165   2.184
52184W        W20578  19.026   9.257  12.421
52185W        W20579  12.265   1.490  12.041
52186W        W20580   6.698  27.504  12.450
52187W        W20581   4.938  35.066   0.693
52188W        W20582  31.061  11.912  13.548
52189W        W20583   0.153   2.857  12.593
52190W        W20584  43.962  37.733  14.567
52191W        W20585  35.558  32.992  14.509
52192W        W20586  19.406  29.193   3.247
52193W        W20587  25.570  15.699   2.753
52194W        W20588  43.355  33.113   1.786
52195W        W20589  36.914  17.994   3.876
52196W        W20590  21.738  29.004   2.393
52197W        W20591  39.549  10.326  11.618
52198W        W20592  22.473  22.925  12.619
52199W        W20593  42.624  37.769  14.060
52200W        W20594  12.163  28.296   1.041
52201W        W20595   3.873  12.124  12.890
52202W        W20596  23.433  36.518   3.320
52203W        W20597   1.948   8.720   0.560
52204W        W20598  39.332   3.983  12.999
52205W        W20599  15.643  41.234  10.280
52206W        W20600  11.126  26.179  10.655
52207W        W20601   9.296  30.424  14.866
52208W        W20602   9.283   2.225   0.691
52209W        W20603   1.183   9.377  14.390
52210W        W20604  23.628   1.881   0.933
52211W        W20605   9.719  23.543   4.142
52212W        W20606  36.672  41.263   0.920
52213W        W20607  29.539  15.309   2.346
52214W        W20608  37.661   5.232   1.818
52215W        W20609  39.980  13.221   4.763
52216W        W20610   8.358  42.041  13.096
52217W        W20611  36.745   9.207  12.166
52218W        W20612   3.288  16.142  14.341
52219W        W20613  28.220   4.016  14.931
52220W        W20614  41.233  11.794   2.708
52221W        W20615  10.904   4.618   4.000
52222W        W20616  18.630  43.997   1.028
52223W        W20617  24.563  18.070  13.249
52224W        W20618  26.958  32.569   2.410
52225W        W20619  19.922   5.136  11.055
52226W        W20620  35.964   0.467   1.841
52227W        W20621  31.405  10.301  10.988
52228W        W20622  42.260  32.230  12.486
52229W        W20623  19.633   0.757   2.703
52230W        W20624   6.399   6.099   0.647
52231W        W20625   8.452   8.411   4.056
52232W        W20626  42.980  17.719   4.360
52233W        W20627  25.964   9.665  14.340
52234W        W20628  44.425   1.867   0.813
52235W        W20629  11.919  11.117  11.216
52236W        W20630   8.791  39.514   1.801
52237W        W20631  38.156  30.091   1.070
52238W        W20632  36.119  14.689  11.075
52239W        W20633  44.403  42.511   4.530
52240W        W20634   9.382  32.152   3.690
52241W        W20635  41.701  21.723   3.654
52242W        W20636  16.746   0.174  13.218
52243W        W20637  19.080  33.107   1.241
52244W        W20638  23.688   7.170   0.872
52245W        W20639   0.724  33.987  12.125
52246W        W20640  11.847  11.736  13.818
52247W        W20641  18.657  12.357   1.759
52248W        W20642  20.736  38.042  14.374
52249W        W20643  13.804  24.623   4.175
52250W        W20644  25.150  24.993  11.710
52251W        W20645   7.965   2.753  11.456
52252W        W20646   4.804  33.696   3.718
52253W        W20647  14.247  35.006   2.924
52254W        W20648  10.963  43.583   0.791
52255W        W20649  39.474   3.498  11.913
52256W        W20650  15.311  10.902  14.820
52257W        W20651   2.946  38.841  11.958
52258W        W20652  40.515  35.920  14.496
52259W        W20653  43.984  17.486  11.502
52260W        W20654  20.054  13.648  13.128
52261W        W20655  26.950  36.531  12.543
52262W        W20656  26.104  18.266   0.785
52263W        W20657  32.492  27.831  12.788
52264W        W20658  37.809  15.706   0.888
52265W        W20659  40.286  14.089  10.418
52266W        W20660   3.482   7.644  10.784
52267W        W20661   0.924  21.537   3.334
52268W        W20662  16.961  17.965  11.526
52269W        W20663  30.410  13.830  11.114
52270W        W20664   5.195  18.816  12.552
52271W        W20665  32.447  29.416   4.159
52272W        W20666   0.322  39.457  10.367
52273W        W20667   9.846  11.642   0.494
52274W        W20668  17.152   5.226   3.686
52275W        W20669  38.987   2.853   0.293
52276W        W20670   9.676  25.444  12.992
52277W        W20671  21.242   8.259   1.749
52278W        W20672   2.997  14.884  13.927
52279W        W20673   4.967  19.607   1.845
52280W        W20674   0.928  20.654   3.279
52281W        W20675  36.924   1.964  12.176
52282W        W20676  40.754  17.901   4.030
52283W        W20677  22.655  32.115   0.662
52284W        W20678  18.592   6.868   0.539
52285W        W20679  38.996  32.481  12.322
52286W        W20680  10.491  37.074  10.981
52287W        W20681  10.890  21.173   0.852
52288W        W20682  43.763  22.888   3.369
52289W        W20683  28.615  26.594  11.050
52290W        W20684  18.321  24.324   1.218
52291W        W20685   2.426   3.205  12.446
52292W        W20686  14.542  33.418  14.707
52293W        W20687  38.156   5.433  13.373
52294W        W20688  37.729  42.493   4.349
52295W        W20689  15.167  34.186  14.544
52296W        W20690  39.429  11.271   3.492
52297W        W20691   8.164  15.051   3.816
52298W        W20692  28.496   8.932   0.955
52299W        W20693  20.139  39.975  13.468
52300W        W20694  14.429  40.394  14.073
52301W        W20695  28.398   2.969   2.640
52302W        W20696  40.274  21.008  14.419
52303W        W20697  20.551   3.424  11.031
52304W        W20698  37.987   3.266   4.189
52305W        W20699  41.261   0.451  12.896
52306W        W20700  17.780  12.608  11.101
52307W        W20701   1.286  40.436  14.755
52308W        W20702  29.094  28.929  12.997
52309W        W20703   4.774  11.200  14.152
52310W        W20704  16.491  27.678   2.315
52311W        W20705  12.927  24.817   1.767
52312W        W20706  19.577  13.550   0.361
52313W        W20707  26.186   6.832   3.581
52314W        W20708  34.212  15.284   2.777
52315W        W20709   7.465  38.314   3.130
52316W        W20710  41.423  19.484  14.438
52317W        W20711  11.884  17.791   2.506
52318W        W20712  28.873  44.047   2.316
52319W        W20713  39.701  11.061   2.414
52320W        W20714   2.231  34.818  11.065
52321W        W20715  11.408  20.561   1.807
52322W        W20716  30.556  14.301   3.615
52323W        W20717  44.903  20.453  14.436
52324W        W20718  44.645  27.146   0.282
52325W        W20719  42.906  33.389   0.423
52326W        W20720  29.759  27.306  12.496
52327W        W20721  42.260  19.168  11.726
52328W        W20722  25.663  16.614   1.270
52329W        W20723  44.505  41.376  11.902
52330W        W20724   2.927  34.692   1.478
52331W        W20725   5.168  19.135   2.646
52332W        W20726  36.573  22.169   3.335
52333W        W20727   9.275  25.113   0.979
52334W        W20728  42.800   5.760   3.351
52335W        W20729  25.329  21.848  10.774
52336W        W20730  35.001  40.418   3.201
52337W        W20731   6.315  34.894   2.797
52338W        W20732  12.917  25.731  12.544
52339W        W20733  26.166  23.575   0.397
52340W        W20734  35.648   2.456  13.432
52341W        W20735  14.072  27.261  11.990
52342W        W20736   9.243  38.151   1.955
52343W        W20737   0.728  26.100  14.780
52344W        W20738  30.414  15.127  12.525
52345W        W20739  42.238  19.973   4.655
52346W        W20740  38.252  42.936  10.262
52347W        W20741  13.855   8.612   2.793
52348W        W20742  34.518  44.967  10.846
52349W        W20743  39.391   9.812  13.471
52350W        W20744   9.093  11.306  13.567
52351W        W20745   7.222  43.992  12.888
52352W        W20746  39.233  31.844   4.520
52353W        W20747  35.005  29.427   2.093
52354W        W20748   8.908  44.348   4.604
52355W        W20749  10.243  36.887  14.911
52356W        W20750  38.953  38.286  10.204
52357W        W20751   7.408  17.289   3.284
52358W        W20752   7.806  28.072   0.179
52359W        W20753  15.342  31.654   3.154
52360W        W20754  19.056  35.986  13.384
52361W        W20755   1.002  31.120   4.082
52362W        W20756  16.357   5.291   3.223
52363W        W20757  23.749  40.958  13.083
52364W        W20758  11.667  17.645   0.939
52365W        W20759  10.666  25.659  13.976
52366W        W20760  30.028  13.297  11.707
52367W        W20761  37.557  38.045   4.553
52368W        W20762  39.004  32.133  12.845
52369W        W20763   0.700  39.562  11.702
52370W        W20764  19.038  29.415   2.179
52371W        W20765  18.017  29.491  13.800
52372W        W20766  43.201  40.373   1.920
52373W        W20767  36.598  12.185   4.107
52374W        W20768  33.117  40.824   2.755
52375W        W20769  36.164  39.992  11.276
52376W        W20770  41.344  17.742   1.675
52377W        W20771  20.951  42.394   1.453
52378W        W20772  39.480  30.089  11.989
52379W        W20773  40.075  22.516   2.830
52380W        W20774  28.483  33.445   0.954
52381W        W20775   4.917   9.098   1.415
52382W        W20776  16.879   6.097   2.769
52383W        W20777  42.297  41.282   3.283
52384W        W20778  13.977   0.161   4.795
52385W        W20779  42.394   8.695   1.525
52386W        W20780  38.871  44.857  10.465
52387W        W20781  43.009   4.783  10.501
52388W        W20782  44.606  32.479  12.419
52389W        W20783  18.413   7.436   4.988
52390W        W20784  41.369  32.088   1.325
52391W        W20785  17.659   7.548  12.011
52392W        W20786  44.791  19.511  11.508
52393W        W20787  39.772  42.605   0.547
52394W        W20788   7.792  19.548   1.842
52395W        W20789  43.206  33.516  12.346
52396W        W20790  12.163   4.962   4.296
52397W        W20791  27.609   0.463   4.625
52398W        W20792  30.134  12.709  11.977
52399W        W20793  38.986   0.283  14.683
52400W        W20794   5.709   2.496   0.914
52401W        W20795  31.447  41.887   0.885
52402W        W20796  29.256   0.208  12.552
52403W        W20797   2.407  19.630  12.893
52404W        W20798  21.028   2.915   3.395
52405W        W20799   7.493   1.923  11.715
52406W        W20800  31.007  32.073   2.320
52407W        W20801  44.191  12.867   2.901
52408W        W20802  26.246  38.581   3.135
52409W        W20803  27.572  44.329   1.445
52410W        W20804  29.610  13.625   1.700
52411W        W20805  16.031  34.078  14.688
52412W        W20806  13.539  26.601  11.655
52413W        W20807   4.643  38.918  10.800
52414W        W20808  26.693  15.638   4.936
52415W        W20809  10.836   8.364   1.735
52416W        W20810  39.823   2.436   2.665
52417W        W20811   8.165  18.302  11.077
52418W        W20812   5.223  43.723  10.777
52419W        W20813  21.460  11.783   1.720
52420W        W20814  31.113   6.425   0.932
52421W        W20815  33.649  35.517  13.407
52422W        W20816   5.832  18.118   2.431
52423W        W20817  37.031  20.821  12.100
52424W        W20818  35.226  13.834  13.961
52425W        W20819  37.516   0.397  13.500
52426W        W20820  31.871   1.285   1.206
52427W        W20821  34.606  44.222  11.214
52428W        W20822  30.231   4.299   3.589
52429W        W20823  13.804   0.826   4.171
52430W        W20824   2.202  10.156  14.427
52431W        W20825   3.327  17.188   5.080
52432W        W20826  13.793   9.770   4.394
52433W        W20827  33.066  43.926   1.973
52434W        W20828  31.064  11.075   3.229
52435W        W20829  25.989   3.456  14.996
52436W        W20830   3.721  21.778  10.613
52437W        W20831  13.684  22.730  12.005
52438W        W20832  38.489  20.279   4.109
52439W        W20833   2.296   8.919  10.297
52440W        W20834  32.776  18.459   0.648
52441W        W20835  21.709  42.492  14.946
52442W        W20836   2.569  34.466  11.882
52443W        W20837  17.760   6.635  12.189
52444W        W20838  26.102  28.456   4.176
52445W        W20839  24.822   4.389   1.898
52446W        W20840  37.963   1.185  14.006
52447W        W20841   0.505   8.781  14.496
52448W        W20842   7.862  10.898  14.400
52449W        W20843  20.775  19.687   0.901
52450W        W20844  18.501  33.983  13.880
52451W        W20845  19.540   6.225  12.293
52452W        W20846  15.537   2.325  11.566
52453W        W20847  43.752  39.438  12.550
52454W        W20848  15.601   4.687  12.972
52455W        W20849  41.975  20.180   0.426
52456W        W20850  27.512  18.028  14.814
52457W        W20851   6.255   9.556   0.260
52458W        W20852  17.138  37.965  12.033
52459W        W20853  38.811  15.193  11.228
52460W        W20854  11.383  33.642  10.304
52461W        W20855   7.002   0.278  13.137
52462W        W20856  25.330  41.469  12.537
52463W        W20857  21.542   0.133   2.355
52464W        W20858  34.442  19.154   0.681
52465W        W20859  28.974  10.628   1.890
52466W        W20860  14.602   0.424  13.483
52467W        W20861  21.407  18.528  12.574
52468W        W20862  14.224  31.677  11.604
52469W        W20863  27.117  42.808  11.662
52470W        W20864  29.678  25.424  10.724
52471W        W20865  33.439  15.478  14.958
52472W        W20866   5.426  32.005   1.066
52473W        W20867  13.048  18.489  10.535
52474W        W20868   6.305   0.502  14.321
52475W        W20869   9.579  29.144  14.317
52476W        W20870  33.068   9.858  11.505
52477W        W20871  42.260  29.480   0.013
52478W        W20872  28.573  35.538   3.955
52479W        W20873   1.424  37.431   0.998
52480W        W20874   1.490  37.115   1.870
52481W        W20875  15.365  23.464   1.425
52482W        W20876  19.703  18.830  14.110
52483W        W20877  34.215  22.049   1.473
52484W        W20878  24.961  20.238  14.486
52485W        W20879   4.932  36.968  13.268
52486W        W20880   8.911  14.359   3.369
52487W        W20881  42.792  14.651  14.461
52488W        W20882   5.436  37.908   3.646
52489W        W20883  34.883  30.692   4.038
52490W        W20884   4.658   5.247  10.730
52491W        W20885  29.946  35.198   4.043
52492W        W20886  29.201  27.494   2.776
52493W        W20887  20.388  17.843   4.866
52494W        W20888   7.573  38.931   3.707
52495W        W20889  37.752  33.811  10.978
52496W        W20890  34.071  37.400  14.760
52497W        W20891  29.003   9.174   4.379
52498W        W20892   7.782  41.479  10.723
52499W        W20893  20.213  19.780  14.920
52500W        W20894  22.698   9.894   0.843
52501W        W20895  23.004   6.214  12.584
52502W        W20896  40.368   2.251   1.760
52503W        W20897  32.478  31.670   2.258
52504W        W20898  23.950  37.755   3.340
52505W        W20899  29.859  25.692  11.122
52506W        W20900  38.083  20.345   4.666
52507W        W20901   6.525  34.617   4.563
52508W        W20902   7.438  23.760   3.922
52509W        W20903   2.947  26.905   3.193
52510W        W20904  11.764  19.649  13.552
52511W        W20905  25.224  11.093  12.096
52512W        W20906  19.112  40.407  14.928
52513W        W20907  15.565  19.537   4.134
52514W        W20908  42.642   7.017   1.927
52515W        W20909   5.045  15.563   2.803
52516W        W20910  35.877  24.439   0.873
52517W        W20911  32.041  29.224   3.586
52518W        W20912  29.208  17.067  13.165
52519W        W20913  21.925   1.887  12.118
52520W        W20914  19.122  33.191  14.509
52521W        W20915   3.516  31.000  11.637
52522W        W20916  29.091  42.917  13.784
52523W        W20917  15.166  20.454   3.799
52524W        W20918  36.786   8.286  13.775
52525W        W20919  16.606  11.504   4.098
52526W        W20920   3.709   2.083  13.170
52527W        W20921   4.353  32.274  14.795
52528W        W20922  39.947  30.040  10.693
52529W        W20923  39.590  43.525   1.347
52530W        W20924   5.175  15.703   0.912
52531W        W20925  10.274  37.911  14.274
52532W        W20926  23.025  29.452  10.664
52533W        W20927  17.134   0.350   0.352
52534W        W20928  32.136  39.932   1.953
52535W        W20929  25.263  27.515   1.813
52536W        W20930  40.195  11.380   0.231
52537W        W20931  42.530  37.673   3.607
52538W        W20932  35.466  32.537   0.259
52539W        W20933  23.222  17.735  13.465
52540W        W20934  37.701  44.373   0.694
52541W        W20935   0.743  24.250  14.738
52542W        W20936   9.700  22.144  13.133
52543W        W20937   0.502   9.347  12.472
52544W        W20938   6.297  24.905   3.733
52545W        W20939  32.080   1.987   2.229
52546W        W20940  43.496  38.128  13.793
52547W        W20941  39.564  25.578   4.767
52548W        W20942  26.284  29.130  12.706
52549W        W20943   4.858  16.768  10.304
52550W        W20944  20.354  13.310  13.383
52551W        W20945  18.170  36.341   0.431
52552W        W20946  28.115  16.780  14.810
52553W        W20947   5.044  20.165   0.249
52554W        W20948   7.517   7.357  12.808
52555W        W20949  21.346  18.245   2.278
52556W        W20950   2.246  35.455   0.809
52557W        W20951  15.990  41.991   4.587
52558W        W20952  19.008  29.959  11.173
52559W        W20953  29.966   4.989   4.644
52560W        W20954   8.268  33.862  10.491
52561W        W20955  30.687  40.088   1.412
52562W        W20956  36.435  39.929   4.974
52563W        W20957  25.099  39.963   3.839
52564W        W20958   6.698  10.143   0.372
52565W        W20959  44.494   1.846   4.041
52566W        W20960  17.377  11.420   2.956
52567W        W20961  23.420  31.896  12.521
52568W        W20962  11.823  25.172  10.746
52569W        W20963  22.650  30.133  11.153
52570W        W20964  28.732  43.023   3.711
52571W        W20965  42.373   6.198  14.765
52572W        W20966  32.891  31.584  13.000
52573W        W20967  43.860  16.738   0.072
52574W        W20968   9.343  22.614   2.288
52575W        W20969  20.173  14.367   2.193
52576W        W20970  17.139  14.354  14.296
52577W        W20971  29.418   0.996  14.481
52578W        W20972  28.853  12.817   3.678
52579W        W20973  44.552  23.768   1.763
52580W        W20974   8.683  20.750  13.390
52581W        W20975   2.432   4.787   0.183
52582W        W20976  28.413  37.046  12.934
52583W        W20977  17.785   4.341   2.358
52584W        W20978  33.026  20.646   0.255
52585W        W20979   5.321  25.977   2.797
52586W        W20980  31.659   9.408   2.777
52587W        W20981   0.398  43.268   0.608
52588W        W20982  24.002  25.010   2.849
52589W        W20983  22.185   1.269   2.663
52590W        W20984   2.967  24.649  14.987
52591W        W20985  30.154  43.704   2.507
52592W        W20986  14.116  34.644  13.219
52593W        W20987  18.208  32.826   1.075
52594W        W20988  27.135  28.235  10.763
52595W        W20989   1.436  16.433   0.759
52596W        W20990  15.297  36.480  13.792
52597W        W20991   0.302  36.889   4.957
52598W        W20992  34.467  20.499   3.190
52599W        W20993  13.319  34.475   2.284
52600W        W20994  23.569  15.266   3.161
52601W        W20995  23.442  17.765   3.878
52602W        W20996  37.595  33.959  12.651
52603W        W20997  31.051  41.494  14.989
52604W        W20998  21.799  27.365   1.734
52605W        W20999   7.973  36.116   1.903
52606W        W21000  20.414  13.064   1.710
52607W        W21001  23.038  34.708   0.725
52608W        W21002   6.610   9.373  10.883
52609W        W21003  37.998   2.288   1.011
52610W        W21004  35.788  43.780  11.918
52611W        W21005  13.601  23.307   1.018
52612W        W21006  29.226  27.480   3.782
52613W        W21007   2.025  27.470   1.200
52614W        W21008  23.706  28.557  12.193
52615W        W21009  25.350  23.719  14.328
52616W        W21010  27.424  23.919  12.623
52617W        W21011  17.843   8.112   0.761
52618W        W21012   7.994   9.697   2.876
52619W        W21013  19.984   5.544   2.621
52620W        W21014  30.521  20.952   3.431
52621W        W21015  39.962   7.293   4.507
52622W        W21016  16.704  24.101  13.013
52623W        W21017  41.962   3.862  12.100
52624W        W21018   8.876   3.071  11.105
52625W        W21019  22.588   2.994  10.743
52626W        W21020  31.514  24.525  10.635
52627W        W21021  39.330  28.096   3.307
52628W        W21022  18.392  14.313  13.486
52629W        W21023  18.197  13.756   3.278
52630W        W21024   7.900  34.478  12.055
52631W        W21025  28.201  41.810  13.888
52632W        W21026  39.087  40.310   1.880
52633W        W21027  29.152  16.234   3.121
52634W        W21028  38.625  26.542   2.905
52635W        W21029  25.551  13.838  13.458
52636W        W21030   6.273   1.254   4.651
52637W        W21031   7.476  25.950  11.951
52638W        W21032  12.102  29.713  13.450
52639W        W21033   5.076  20.230  13.747
52640W        W21034  12.596  12.001   3.420
52641W        W21035  16.203   5.851   2.617
52642W        W21036  11.887  43.859  11.102
52643W        W21037  14.729  19.901   0.307
52644W        W21038  10.729  13.898   3.413
52645W        W21039  39.533  19.925   2.185
52646W        W21040  17.745  23.534  10.767
52647W        W21041  36.628  24.751   1.139
52648W        W21042  27.140   1.462  10.608
52649W        W21043   6.208   6.116   0.174
52650W        W21044  34.402  21.033  13.446
52651W        W21045  24.479  34.935  10.523
52652W        W21046  36.465   4.149   1.745
52653W        W21047  34.558   5.179  12.586
52654W        W21048   9.311  37.622  12.486
52655W        W21049  43.327   9.688   1.228
52656W        W21050   8.827   3.008   1.138
52657W        W21051  10.408  32.014   4.554
52658W        W21052  38.040  26.672  14.824
52659W        W21053  30.125   1.720   4.629
52660W        W21054   1.301  15.589   3.122
52661W        W21055  40.475  43.341   1.761
52662W        W21056  29.164  38.983   3.778
52663W        W21057   3.455  14.126  12.570
52664W        W21058  19.693  39.321   4.672
52665W        W21059  17.219   8.298  11.606
52666W        W21060  39.652  10.287   0.800
52667W        W21061  11.599  33.438  14.434
52668W        W21062  35.916   7.890  10.833
52669W        W21063  14.942  16.410   4.278
52670W        W21064  19.921  23.565   2.673
52671W        W21065  39.367   5.147   0.350
52672W        W21066   1.071  27.223   3.002
52673W        W21067  34.381   2.438  12.448
52674W        W21068  43.381  10.189  10.265
52675W        W21069   5.841   5.117  12.358
52676W        W21070   2.824  20.057   0.684
52677W        W21071  20.534  44.912  12.118
52678W        W21072  38.955   3.754   0.033
52679W        W21073  11.809  37.130  14.250
52680W        W21074  29.550  12.757   2.121
52681W        W21075   2.260  43.292   0.380
52682W        W21076  16.115  15.772   2.012
52683W        W21077  28.973  39.983   3.719
52684W        W21078   3.157  24.619   4.222
52685W        W21079  12.936  19.716   3.659
52686W        W21080  29.597  33.073   4.948
52687W        W21081  18.676   7.649  10.880
52688W        W21082  35.452  43.407   1.298
52689W        W21083  39.035  17.599   0.516
52690W        W21084   4.025  38.890  14.282
52691W        W21085  23.437  19.698  14.455
52692W        W21086  11.490  13.235  10.730
52693W        W21087  33.393   9.331   0.772
52694W        W21088  41.363  22.022   4.947
52695W        W21089  14.899  15.160  13.808
52696W        W21090   6.942  11.353  11.541
52697W        W21091  14.476  18.004   1.419
52698W        W21092  43.468  40.753  14.424
52699W        W21093  20.031  18.653  12.941
52700W        W21094  27.567  30.398   3.826
52701W        W21095  13.290  30.570  13.195
52702W        W21096  40.531  19.258  13.486
52703W        W21097  16.366  16.645  13.961
52704W        W21098  30.179  27.143   4.067
52705W        W21099   4.931  26.714  11.521
52706W        W21100  27.591  40.055   1.478
52707W        W21101  24.132   8.865  14.944
52708W        W21102  37.373  27.670   1.826
52709W        W21103  39.917  25.789  13.949
52710W        W21104  18.047  21.249  14.057
52711W        W21105  36.171  42.558   4.193
52712W        W21106  32.102   3.982   0.589
52713W        W21107  39.000  24.512   4.943
52714W        W21108  44.429  31.919   5.054
52715W        W21109  11.150  33.657   4.183
52716W        W21110  19.203   9.720  11.656
52717W        W21111  23.192   8.421  14.379
52718W        W21112   9.656  13.628  13.866
52719W        W21113   5.373  37.312   1.672
52720W        W21114   2.298   6.308   1.677
52721W        W21115  43.837  10.146   9.986
52722W        W21116   6.367  20.781  12.470
52723W        W21117  22.650  31.326   1.941
52724W        W21118  34.104  18.815   0.473
52725W        W21119   3.393   5.985  13.411
52726W        W21120  24.617  19.168   0.749
52727W        W21121  41.471  18.756  12.078
52728W        W21122  30.468  43.498  11.297
52729W        W21123  10.841  14.211   3.796
52730W        W21124  14.613  26.098  12.449
52731W        W21125  12.609  37.831  12.978
52732W        W21126  34.976  34.929   1.858
52733W        W21127  28.346  23.283  11.375
52734W        W21128  20.487  37.447   0.816
52735W        W21129  34.603  22.160  12.133
52736W        W21130  36.498  41.024  14.382
52737W        W21131  26.916  41.369  14.325
52738W        W21132  36.643  33.056   0.539
52739W        W21133  16.190  38.828   2.165
52740W        W21134  43.347  28.751   0.867
52741W        W21135  27.391  18.530  13.893
52742W        W21136  41.993   3.859  14.576
52743W        W21137  41.348  29.478  11.993
52744W        W21138  33.546  16.282   3.429
52745W        W21139  36.316  40.565  14.518
52746W        W21140   0.620  13.093  10.947
52747W        W21141  11.512  43.120  11.672
52748W        W21142  28.929  39.571   4.038
52749W        W21143  34.335  37.562  11.562
52750W        W21144  26.586  33.618   4.476
52751W        W21145  40.175  16.537  11.064
52752W        W21146  21.959  32.455  14.385
52753W        W21147  39.899  22.481  10.722
52754W        W21148  42.060  25.618  11.688
52755W        W21149  29.226  15.887  12.500
52756W        W21150   2.491   6.652   4.396
52757W        W21151  24.063  23.694  12.713
52758W        W21152  19.083  29.880   4.056
52759W        W21153  41.462   2.500   2.145
52760W        W21154   5.942  25.122  12.014
52761W        W21155   8.259   1.472   1.792
52762W        W21156  17.846  28.347  12.952
52763W        W21157   1.320   4.331  14.071
52764W        W21158  16.440  17.570  13.500
52765W        W21159  21.574  10.296   4.216
52766W        W21160   5.301   3.241  14.974
52767W        W21161   0.011  12.239  13.883
52768W        W21162  30.602  26.205   0.438
52769W        W21163  39.070  17.940  13.022
52770W        W21164  39.123   9.114  13.244
52771W        W21165  24.616  30.225  14.601
52772W        W21166  39.121  10.868   3.577
52773W        W21167  44.770   8.407  14.335
52774W        W21168  12.997  33.668   0.526
52775W        W21169  37.772   6.688  11.724
52776W        W21170   1.759  28.179   0.342
52777W        W21171  43.841  37.874  13.023
52778W        W21172  18.293  32.935   0.593
52779W        W21173   0.788  29.967  14.800
52780W        W21174   2.939  29.883  13.616
52781W        W21175   6.072  31.201  14.815
52782W        W21176  40.562  42.020  10.907
52783W        W21177   2.436  19.291   3.774
52784W        W21178  17.753   3.764   2.794
52785W        W21179  31.169  36.993   0.260
52786W        W21180   1.294   3.669  10.962
52787W        W21181  28.552   7.738   2.235
52788W        W21182  13.756  38.437  13.026
52789W        W21183  14.437  29.219   4.151
52790W        W21184   4.203   4.414   9.744
52791W        W21185  44.425  29.170  11.135
52792W        W21186  18.744  19.416  11.985
52793W        W21187   0.668   4.906   4.884
52794W        W21188  14.651  31.922   2.632
52795W        W21189   9.414  16.873   3.647
52796W        W21190  17.569  44.270   1.074
52797W        W21191  37.601  23.743   2.343
52798W        W21192  18.058  24.486   3.914
52799W        W21193  23.632   9.964  11.966
52800W        W21194  16.080  22.443  11.898
52801W        W21195  34.529  16.518  11.029
52802W        W21196  35.815  30.485   2.981
52803W        W21197  10.858  31.532  11.704
52804W        W21198  40.285  20.172   2.403
52805W        W21199  14.647  11.714   0.361
52806W        W21200  24.527   1.883  12.157
52807W        W21201  37.959  39.310   0.973
52808W        W21202  28.167   0.925  12.452
52809W        W21203  16.289  38.080   2.901
52810W        W21204  40.561  42.310   4.384
52811W        W21205  21.997  34.589  12.128
52812W        W21206  38.003  33.654   1.407
52813W        W21207  20.742  10.584   4.442
52814W        W21208  33.380  31.670   2.282
52815W        W21209  16.310  20.901  11.985
52816W        W21210  38.166   9.843   4.396
52817W        W21211  30.629   1.466  11.103
52818W        W21212   8.215   5.646  12.982
52819W        W21213  25.503  28.998  10.744
52820W        W21214  31.975  42.716   5.077
52821W        W21215   7.750  30.774   0.293
52822W        W21216   5.221  21.274  13.884
52823W        W21217  13.800  42.794   1.904
52824W        W21218  43.541  17.041  12.398
52825W        W21219  15.712   1.684  10.869
52826W        W21220  26.517  15.586  14.083
52827W        W21221   3.475  21.620   1.730
52828W        W21222  24.129  40.790   2.333
52829W        W21223   0.414   2.784  11.173
52830W        W21224  30.756  26.796   1.452
52831W        W21225  27.367  30.600   0.244
52832W        W21226  26.969   0.709   2.769
52833W        W21227  43.748  44.412  14.394
52834W        W21228   2.515  29.879   0.386
52835W        W21229  30.687  25.634   3.802
52836W        W21230  43.853  41.350   1.420
52837W        W21231  15.894  21.291  10.236
52838W        W21232  38.810   2.853   4.071
52839W        W21233  38.543  13.602  13.952
52840W        W21234  24.493   5.430   3.315
52841W        W21235  22.074  31.074   0.286
52842W        W21236  42.507  18.339   1.264
52843W        W21237  28.040   2.711  13.473
52844W        W21238   5.989  40.840   4.790
52845W        W21239  21.529  26.490  10.927
52846W        W21240   3.468  12.901  14.775
52847W        W21241   9.145  42.781   4.875
52848W        W21242   0.523  34.424  10.694
52849W        W21243   1.772  27.316  13.174
52850W        W21244   7.278   5.374   3.679
52851W        W21245  10.276  17.677   0.223
52852W        W21246  27.516  44.799   1.669
52853W        W21247  18.564   5.780   0.772
52854W        W21248  15.669  14.943  13.110
52855W        W21249  13.248   7.008  13.804
52856W        W21250  27.957   9.891  13.543
52857W        W21251  24.343   2.822  11.969
52858W        W21252   8.229  11.189  14.944
52859W        W21253  39.465   5.787   1.443
52860W        W21254   2.802  39.388   3.294
52861W        W21255  36.018  30.855   1.094
52862W        W21256  38.990  35.874   0.708
52863W        W21257  40.273  43.049   1.366
52864W        W21258  13.352  30.614   0.398
52865W        W21259  35.894  39.343  11.564
52866W        W21260  37.880  10.469  12.496
52867W        W21261  16.027  27.631  14.677
52868W        W21262  44.777  22.576   3.298
52869W        W21263  24.458  20.287  13.961
52870W        W21264   4.332  21.241   2.054
52871W        W21265  28.169  26.536   0.451
52872W        W21266  13.499  27.261  11.916
52873W        W21267  37.062  23.458  14.323
52874W        W21268   3.216  25.861   3.777
52875W        W21269   4.244  26.651  12.553
52876W        W21270  15.164  29.810  14.070
52877W        W21271   3.800  41.964   3.524
52878W        W21272  23.248  37.470  14.921
52879W        W21273  36.071  30.474  14.935
52880W        W21274  31.179  32.103  13.869
52881W        W21275   8.335  24.724   1.415
52882W        W21276  28.650  15.666  11.616
52883W        W21277   7.091   3.362   1.424
52884W        W21278  31.884  10.820  11.601
52885W        W21279   4.518  24.158  12.605
52886W        W21280  42.865  19.996  12.630
52887W        W21281  21.030  32.833   0.520
52888W        W21282   4.299   1.508  13.817
52889W        W21283  44.842  16.878   4.751
52890W        W21284  35.144  38.505  11.898
52891W        W21285  26.058  41.232  10.265
52892W        W21286  27.612  16.918  14.700
52893W        W21287  43.535   3.787  11.003
52894W        W21288  18.161  25.748  14.958
52895W        W21289   2.347  10.617  12.584
52896W        W21290  40.469  28.868   3.739
52897W        W21291   4.771  34.018   2.393
52898W        W21292  36.470  32.193   1.765
52899W        W21293  41.538  15.374  13.840
52900W        W21294  23.626  28.792   0.347
52901W        W21295   4.991  22.995  13.826
52902W        W21296  23.725   4.951  12.137
52903W        W21297  28.200  35.021  13.008
52904W        W21298  42.978   3.087   4.071
52905W        W21299   7.717  16.550  13.572
52906W        W21300  26.246  10.238  11.281
52907W        W21301  21.731  42.818   4.309
52908W        W21302   2.815   0.947  14.013
52909W        W21303  13.193  30.954  12.728
52910W        W21304  37.731   4.751   2.005
52911W        W21305  36.842   1.398  13.575
52912W        W21306   0.411  38.500   4.156
52913W        W21307  17.551   7.414   3.595
52914W        W21308  30.665   8.755   2.329
52915W        W21309   5.285  40.297  10.410
52916W        W21310  29.678  37.393  10.337
52917W        W21311   4.634  11.593  14.444
52918W        W21312  39.967  12.238   1.521
52919W        W21313  33.064   4.920   1.631
52920W        W21314  26.762  31.384  14.300
52921W        W21315  41.246  15.322  11.084
52922W        W21316   9.128  29.482  10.275
52923W        W21317  16.725  44.502   0.704
52924W        W21318  23.139  31.861  13.870
52925W        W21319   6.210  13.101  14.396
52926W        W21320  35.534  27.342   3.375
52927W        W21321  17.232  35.209   0.912
52928W        W21322  34.305  14.461   2.962
52929W        W21323  26.643  44.423   2.379
52930W        W21324  15.788  11.418   0.509
52931W        W21325  19.898   1.176  10.768
52932W        W21326  36.656  35.627   1.619
52933W        W21327  37.218  26.316   3.178
52934W        W21328  27.786  37.991   0.395
52935W        W21329  29.287  38.302  12.532
52936W        W21330   6.885  39.992   1.382
52937W        W21331   8.757  13.056   3.519
52938W        W21332  27.462  24.022   1.750
52939W        W21333  33.942  33.383   0.852
52940W        W21334  17.061   5.241   0.376
52941W        W21335  34.479   2.389   2.763
52942W        W21336   0.591  31.915   4.897
52943W        W21337   9.679  15.502  12.531
52944W        W21338   3.359  28.525  14.517
52945W        W21339  36.140   0.914   3.306
52946W        W21340  44.290  26.040   0.281
52947W        W21341   3.495  34.443   2.363
52948W        W21342  18.683  41.999  12.381
52949W        W21343  31.229  32.580   2.311
52950W        W21344  43.784  15.915  11.120
52951W        W21345  32.990  12.555  13.439
52952W        W21346  24.400  15.492   2.319
52953W        W21347   2.699  44.445  12.416
52954W        W21348  21.252  26.941  11.428
52955W        W21349  14.515  31.996   1.203
52956W        W21350  18.597  20.484   4.573
52957W        W21351   9.894  20.353   3.624
52958W        W21352  26.447   1.067   2.779
52959W        W21353   9.217  43.565   1.905
52960W        W21354  40.071  28.857   4.079
52961W        W21355  27.748   6.908  14.031
52962W        W21356  18.083  19.221   0.710
52963W        W21357  16.776   8.029  12.067
52964W        W21358  44.273  31.520   4.778
52965W        W21359   1.026  26.606   0.463
52966W        W21360  26.721  31.491  11.636
52967W        W21361  12.763   5.134   3.274
52968W        W21362  33.185   2.317   2.235
52969W        W21363  29.401  29.930   2.283
52970W        W21364   7.388  13.858  13.957
52971W        W21365  14.606  13.912   3.289
52972W        W21366  18.645   6.582  11.954
52973W        W21367  21.673   2.234   3.259
52974W        W21368  41.403  27.138   1.850
52975W        W21369   8.280  22.415  11.584
52976W        W21370  31.405   0.727  13.554
52977W        W21371   2.030   4.194   1.507
52978W        W21372  32.068  35.129  12.373
52979W        W21373  29.170   8.755   4.765
52980W        W21374  20.774  31.663  13.845
52981W        W21375   2.923  42.265   5.034
52982W        W21376   6.259  40.971  12.928
52983W        W21377  41.430  25.169   3.694
52984W        W21378  22.032  21.675   3.283
52985W        W21379  26.606  12.689   0.088
52986W        W21380   1.928  41.350  11.131
52987W        W21381  32.601  10.847  13.814
52988W        W21382  23.799  11.250   0.777
52989W        W21383  42.441  27.634   1.222
52990W        W21384  33.337  15.541   3.725
52991W        W21385  44.001  39.044  11.562
52992W        W21386  22.548  33.937   4.563
52993W        W21387  42.304  20.190  14.518
52994W        W21388  17.733   0.315   4.189
52995W        W21389  23.019  25.795  10.642
52996W        W21390  12.907  39.801   3.276
52997W        W21391  22.657  20.643   1.297
52998W        W21392  16.098  18.922  10.742
52999W        W21393  37.971  23.234  11.885
53000W        W21394  12.422   0.327   0.537
53001W        W21395  33.005  18.194  11.222
53002W        W21396  35.237  43.760  13.447
53003W        W21397  23.137  29.738   1.389
53004W        W21398  36.143  33.378   2.991
53005W        W21399  24.294  33.363   4.054
53006W        W21400  18.232   8.026  12.978
53007W        W21401  29.368  34.120   0.776
53008W        W21402  21.749  30.490   3.350
53009W        W21403  31.626   4.891   0.337
53010W        W21404   6.891  27.722   4.696
53011W        W21405  32.061  43.116   3.827
53012W        W21406  32.649  28.908   0.739
53013W        W21407   0.921   0.398   3.204
53014W        W21408  32.150  32.526   2.774
53015W        W21409   3.368  39.104  11.072
53016W        W21410  15.138   5.823   2.854
53017W        W21411  40.723  20.214   2.740
53018W        W21412  31.134   6.161  10.616
53019W        W21413   7.894  19.724   4.738
53020W        W21414   0.908   0.296   4.180
53021W        W21415  25.985  32.417  14.124
53022W        W21416  35.909  13.864   3.334
53023W        W21417  40.853  37.400  14.966
53024W        W21418  29.842  39.555  11.188
53025W        W21419  36.345  13.671  12.933
53026W        W21420   1.363  30.264  10.618
53027W        W21421  18.309  22.270   0.008
53028W        W21422  31.715  27.475  14.513
53029W        W21423  13.075   9.051  11.512
53030W        W21424   4.836   6.651   0.048
53031W        W21425  38.608  26.004  11.559
53032W        W21426  16.308  21.106  12.836
53033W        W21427  20.952   0.971  12.393
53034W        W21428  29.657  11.592   2.771
53035W        W21429   6.955  35.999   0.925
53036W        W21430  39.185  27.927   4.133
53037W        W21431  39.498  40.248  13.927
53038W        W21432  44.775  37.842  14.068
53039W        W21433  43.568  11.724  10.050
53040W        W21434  33.669  19.778   1.585
53041W        W21435  31.052  39.448  14.323
53042W        W21436  37.765  11.309  12.716
53043W        W21437  23.434  16.738  14.772
53044W        W21438  38.488  10.159  13.536
53045W        W21439  38.277  17.997  12.146
53046W        W21440  27.174  21.978  14.843
53047W        W21441  38.584  14.804   2.909
53048W        W21442  41.618  13.335  10.668
53049W        W21443  14.483  13.282  12.177
53050W        W21444  27.389  17.986  12.992
53051W        W21445  15.362   9.666  10.856
53052W        W21446  21.577  15.129   3.735
53053W        W21447  44.590   4.201  13.766
53054W        W21448   8.850  20.914   4.962
53055W        W21449  11.910   9.148  13.451
53056W        W21450  35.073  19.300   4.507
53057W        W21451   9.900  12.824  14.501
53058W        W21452  42.281  28.709   3.771
53059W        W21453  44.813  38.079   0.385
53060W        W21454  11.077  37.400  14.558
53061W        W21455  15.677   9.260  13.085
53062W        W21456  18.669  43.470  11.940
53063W        W21457  24.152  24.049   4.897
53064W        W21458  17.823  21.277   2.338
53065W        W21459   9.696   1.974  11.099
53066W        W21460  41.453  30.395   1.754
53067W        W21461  38.407  30.131   3.652
53068W        W21462  30.446  10.712   2.312
53069W        W21463   4.780  11.487  10.760
53070W        W21464  39.469  40.788  12.404
53071W        W21465  40.729  12.248   3.273
53072W        W21466  30.591  18.668   4.578
53073W        W21467  22.608  32.060   2.700
53074W        W21468  39.108   1.921   3.429
53075W        W21469  24.313  39.758  12.377
53076W        W21470  17.579  10.898  14.909
53077W        W21471  23.596  17.887  11.464
53078W        W21472   4.899  23.665   2.913
53079W        W21473  32.628   9.185   3.160
53080W        W21474  11.353  17.364  12.941
53081W        W21475  36.861  43.462   4.082
53082W        W21476  13.272  34.458  12.641
53083W        W21477  43.396  32.373   1.086
53084W        W21478  10.152  14.040  11.677
53085W        W21479  39.034  13.138   4.726
53086W        W21480  36.893   2.263  10.340
53087W        W21481  34.854  16.132  13.377
53088W        W21482  42.536  28.903  14.690
53089W        W21483  10.553   4.426   0.908
53090W        W21484   5.577  39.756  11.223
53091W        W21485  43.477  11.788   0.428
53092W        W21486  32.480   3.666   2.450
53093W        W21487   6.836   6.688   2.117
53094W        W21488  40.164  16.187  13.035
53095W        W21489  22.278  17.596   2.912
53096W        W21490  42.093  33.849   1.937
53097W        W21491  27.387  23.185   0.895
53098W        W21492   1.887   8.617  14.053
53099W        W21493  42.221  29.432  10.903
53100W        W21494  42.946  26.138   2.892
53101W        W21495  12.317  34.833  12.431
53102W        W21496  31.463   5.206  13.852
53103W        W21497  43.472  31.523  13.606
53104W        W21498  19.670  26.609   4.147
53105W        W21499  19.160  41.265   3.613
53106W        W21500  14.735  14.467   9.832
53107W        W21501  24.264  23.064  13.901
53108W        W21502   4.387  38.859   2.617
53109W        W21503   7.413  31.249  12.536
53110W        W21504  24.068  10.654  14.754
53111W        W21505  21.675  22.699  14.993
53112W        W21506   3.086  38.446   3.227
53113W        W21507   2.423  44.436  14.854
53114W        W21508  19.642  39.244   1.319
53115W        W21509  21.985  19.187   0.878
53116W        W21510  39.076  34.364  12.934
53117W        W21511  39.740  42.243  11.136
53118W        W21512  34.854  15.327   4.826
53119W        W21513  27.878  28.156  14.976
53120W        W21514  25.972  25.597   0.783
53121W        W21515  19.555  35.933   3.214
53122W        W21516  31.494  21.372  13.500
53123W        W21517  12.682  13.141   2.675
53124W        W21518  26.082   4.621   0.321
53125W        W21519   8.935  38.051  14.209
53126W        W21520  10.609  37.333  11.641
53127W        W21521  39.800   7.172   2.688
53128W        W21522   3.810  37.016  14.911
53129W        W21523   3.620  37.183  10.834
53130W        W21524  22.657   0.929   1.879
53131W        W21525  29.155  25.758  12.987
53132W        W21526  43.792  26.181  13.429
53133W        W21527  44.016  27.348  12.723
53134W        W21528   6.980  32.840  11.174
53135W        W21529   0.727   3.898  11.579
53136W        W21530  33.196  13.258   1.366
53137W        W21531  35.411  13.916   0.430
53138W        W21532  39.521  43.497   2.923
53139W        W21533  40.504   9.910   1.739
53140W        W21534   8.698  15.283  13.089
53141W        W21535   9.610  32.251   4.167
53142W        W21536   1.772  18.333  13.300
53143W        W21537  26.548  38.932   3.665
53144W        W21538  24.774  17.560   2.411
53145W        W21539  38.526  38.449  11.111
53146W        W21540  41.718   6.236   4.136
53147W        W21541  13.983   7.845   2.317
53148W        W21542  41.230   3.883   2.413
53149W        W21543  12.219  30.385  14.050
53150W        W21544  33.558  32.098  10.506
53151W        W21545  19.779  35.153   0.900
53152W        W21546  20.608  43.480  13.473
53153W        W21547   7.166  33.541   1.303
53154W        W21548  25.961   6.173  13.275
53155W        W21549  19.153   4.429   4.344
53156W        W21550  14.851  15.910   4.248
53157W        W21551   9.176  18.055  11.981
53158W        W21552  34.019  16.263   3.688
53159W        W21553  41.578  23.053   2.938
53160W        W21554  11.672  10.679  11.049
53161W        W21555   5.012   9.701   2.375
53162W        W21556  34.571  36.903  14.415
53163W        W21557  40.413  15.111   3.553
53164W        W21558  11.100  18.735  14.606
53165W        W21559  20.038  35.428  10.624
53166W        W21560  29.015  36.010   3.396
53167W        W21561  35.656  41.292  14.490
53168W        W21562  36.981  31.611   3.937
53169W        W21563  39.176  40.703  11.951
53170W        W21564   9.246  32.560   2.742
53171W        W21565  26.641  19.065  11.641
53172W        W21566  13.186   8.192   5.083
53173W        W21567  10.097  20.087   4.066
53174W        W21568  17.089  14.158  12.071
53175W        W21569  20.105  38.470   3.642
53176W        W21570  40.869  35.347  14.715
53177W        W21571   2.289   9.896   1.708
53178W        W21572  18.325  40.400  12.381
53179W        W21573  43.278  10.225   2.767
53180W        W21574  14.945   4.240   2.200
53181W        W21575   6.490  26.861  11.108
53182W        W21576  43.433  34.799  12.517
53183W        W21577  21.089  35.175   4.885
53184W        W21578  22.739  12.749  12.799
53185W        W21579  15.824  19.459   3.255
53186W        W21580  42.674  42.155   1.760
53187W        W21581  43.954  38.535  12.473
53188W        W21582  27.087  34.437  12.734
53189W        W21583  12.336   7.755   0.323
53190W        W21584  23.475  29.045  10.536
53191W        W21585   1.275  30.725   1.713
53192W        W21586  10.642  29.056  14.423
53193W        W21587   1.936  31.376  11.908
53194W        W21588  25.271  44.163  14.911
53195W        W21589  23.946  29.414   5.126
53196W        W21590  24.000   4.146  13.436
53197W        W21591  25.460  35.360   2.839
53198W        W21592   2.008  35.535  14.113
53199W        W21593   9.214  44.594   3.338
53200W        W21594  16.070  17.015   2.288
53201W        W21595  23.639  19.622  12.705
53202W        W21596  14.579  25.686   2.440
53203W        W21597   3.251  33.925  11.046
53204W        W21598  20.150  12.391   3.671
53205W        W21599  44.098  30.940  12.025
53206W        W21600  40.433  33.102  11.514
53207W        W21601  38.117  23.779   2.371
53208W        W21602  20.031  42.683  10.810
53209W        W21603  37.159   6.972   3.463
53210W        W21604  38.891  37.596   1.897
53211W        W21605  10.740  28.606   3.658
53212W        W21606   6.084  13.585  10.063
53213W        W21607  43.667  30.881  14.386
53214W        W21608  10.648  22.446   2.723
53215W        W21609   0.015  33.209   1.808
53216W        W21610  21.835   9.006   4.765
53217W        W21611  10.438  17.752   3.589
53218W        W21612  19.468  35.549   2.102
53219W        W21613   6.686  29.614  12.245
53220W        W21614  32.903  36.889  11.086
53221W        W21615  21.025  12.012  14.315
53222W        W21616  42.862   4.101  13.468
53223W        W21617  17.708  23.445   1.236
53224W        W21618  44.728  21.610   2.602
53225W        W21619  40.335   9.543  12.164
53226W        W21620   2.101  26.499  11.136
53227W        W21621  42.061  40.347  12.016
53228W        W21622  26.107   4.671   1.164
53229W        W21623  30.875  43.629  13.542
53230W        W21624  14.164  10.322  12.096
53231W        W21625  29.626  42.396  10.621
53232W        W21626   9.911  32.195  14.910
53233W        W21627  22.066   7.414  14.309
53234W        W21628  21.534   5.001  12.706
53235W        W21629  41.721  40.732   0.014
53236W        W21630  34.298  27.879  13.376
53237W        W21631  12.431  37.887   1.031
53238W        W21632  24.701  21.471   2.883
53239W        W21633  34.818  19.880  12.639
53240W        W21634  26.520  12.162  14.260
53241W        W21635  31.657   4.249   4.748
53242W        W21636  25.078  12.762   1.838
53243W        W21637   3.106  25.525  13.715
53244W        W21638   2.889  37.110   4.945
53245W        W21639  14.168  42.822  14.635
53246W        W21640  32.010  34.101  11.234
53247W        W21641   6.211  33.425  11.163
53248W        W21642  40.778  42.396  11.984
53249W        W21643  14.062  34.704   0.337
53250W        W21644  25.656   4.032   4.254
53251W        W21645  12.084  19.756   4.177
53252W        W21646  32.478  42.869  12.780
53253W        W21647   7.363  19.029   1.263
53254W        W21648  26.677  16.760  12.462
53255W        W21649   2.707  24.578   3.948
53256W        W21650  42.650  42.817   2.625
53257W        W21651  21.555  31.448  11.284
53258W        W21652  40.430  23.535  13.434
53259W        W21653  40.444   8.970   1.218
53260W        W21654  18.568  37.238  13.339
53261W        W21655  20.609  14.715   4.110
53262W        W21656   5.805  22.791   1.651
53263W        W21657  43.318  33.696   0.325
53264W        W21658   5.979  43.733  14.429
53265W        W21659  14.241   4.983  11.131
53266W        W21660  43.773   7.592  13.063
53267W        W21661  22.044  22.792   4.043
53268W        W21662  19.312  29.803  14.874
53269W        W21663  17.811  36.800  10.491
53270W        W21664  29.850  26.026   4.910
53271W        W21665   6.855  23.105   5.093
53272W        W21666   9.229  28.206   4.694
53273W        W21667   0.326  29.895  12.987
53274W        W21668  32.925  17.037  13.077
53275W        W21669  18.838  16.360  12.587
53276W        W21670  23.275  19.593   2.216
53277W        W21671  19.535  35.133   1.810
53278W        W21672  43.009  43.907  14.818
53279W        W21673  26.399  16.508  11.498
53280W        W21674  42.816  27.014  10.680
53281W        W21675  13.280  31.596   1.416
53282W        W21676  13.171  15.266  14.425
53283W        W21677  23.064  24.139  11.902
53284W        W21678   2.453   7.349   0.469
53285W        W21679  32.098  43.575  10.840
53286W        W21680   6.532   2.311   2.788
53287W        W21681  25.358   3.223   0.543
53288W        W21682   3.368  31.549   1.052
53289W        W21683  29.421  38.560   2.452
53290W        W21684   7.612  10.287   5.069
53291W        W21685  22.290   5.390  12.504
53292W        W21686  30.746  19.108  13.571
53293W        W21687  28.994  41.008   2.903
53294W        W21688  18.559  26.679  14.033
53295W        W21689  24.530  10.181   4.198
53296W        W21690   7.790  40.917   1.735
53297W        W21691  38.867   4.312  11.145
53298W        W21692  29.171  36.990  10.770
53299W        W21693   0.416  15.528  11.561
53300W        W21694  35.355  17.239   4.852
53301W        W21695   0.600  30.172  12.392
53302W        W21696   6.806   2.869   1.969
53303W        W21697  22.757  19.992   4.106
53304W        W21698  29.231  14.397  13.041
53305W        W21699  33.462  27.617  13.795
53306W        W21700  26.846   1.144  14.803
53307W        W21701  24.889  38.535   4.624
53308W        W21702  42.328  34.533   4.404
53309W        W21703  12.608   8.881  12.095
53310W        W21704   4.037  22.272  12.945
53311W        W21705  20.651  15.207  12.204
53312W        W21706  43.462  23.148  12.185
53313W        W21707  28.919   2.891   4.559
53314W        W21708   5.756  19.276   4.327
53315W        W21709  34.756  25.581  14.125
53316W        W21710  11.665  38.445   4.661
53317W        W21711  43.466  18.348  12.937
53318W        W21712  33.947   8.664   2.781
53319W        W21713  33.851   2.328  11.561
53320W        W21714   1.444   6.151  14.334
53321W        W21715  24.590   3.976  14.023
53322W        W21716  35.349  29.945  12.431
53323W        W21717  35.014  44.796   4.777
53324W        W21718  22.767   8.839  10.187
53325W        W21719  44.192   1.631   1.271
53326W        W21720  22.267  23.098   3.688
53327W        W21721   5.800  36.488   3.379
53328W        W21722  16.810  33.367   1.659
53329W        W21723  26.606   1.207  13.796
53330W        W21724  29.974  43.191   4.281
53331W        W21725  42.155  25.475   3.177
53332W        W21726   6.611  22.026   4.111
53333W        W21727  18.708  37.268  11.883
53334W        W21728   4.518  31.353   4.077
53335W        W21729  23.334   5.318  11.854
53336W        W21730  20.106  25.042   1.366
53337W        W21731  18.549   7.794   2.198
53338W        W21732  21.975  33.028   0.384
53339W        W21733  22.236  28.704   4.556
53340W        W21734  42.299  23.465   5.060
53341W        W21735  26.777   7.653   0.921
53342W        W21736   3.903   5.535   0.943
53343W        W21737  35.179  17.771  13.880
53344W        W21738  38.676   3.017  12.764
53345W        W21739  35.496  42.350  11.941
53346W        W21740  17.216   1.248  12.803
53347W        W21741   1.436  42.353   3.113
53348W        W21742  16.965  31.055  10.677
53349W        W21743   6.885  38.286   2.208
53350W        W21744  24.176  36.821   4.547
53351W        W21745  12.689  26.511  11.130
53352W        W21746  34.597  27.445  13.387
53353W        W21747  29.006  16.528   2.706
53354W        W21748   8.300  21.869  10.770
53355W        W21749   5.983  13.272  11.227
53356W        W21750  13.117  33.087  12.931
53357W        W21751  43.824  35.460   0.615
53358W        W21752  13.027  33.607  12.981
53359W        W21753  40.986  36.985  11.934
53360W        W21754  10.685  40.447  13.308
53361W        W21755  23.105  33.094  13.289
53362W        W21756  42.128   5.120   4.937
53363W        W21757   8.854  37.978   4.624
53364W        W21758   7.628  32.085   2.113
53365W        W21759  44.221  44.767   3.621
53366W        W21760   5.195  29.307  11.859
53367W        W21761  12.554  12.260  13.422
53368W        W21762  38.496  27.747   1.267
53369W        W21763  26.568  38.808  12.451
53370W        W21764  32.387   8.166   1.294
53371W        W21765  11.757   3.220  10.007
53372W        W21766  15.761  29.165   4.572
53373W        W21767  13.255   0.861  11.486
53374W        W21768   3.458  37.149  13.629
53375W        W21769  16.978  10.051   3.316
53376W        W21770  10.380   6.447   0.898
53377W        W21771  21.906  14.875  12.444
53378W        W21772  24.095  36.253  11.197
53379W        W21773  22.038  29.150   4.687
53380W        W21774  43.683   4.426   4.791
53381W        W21775   8.635   0.734  10.629
53382W        W21776  29.373  13.343   4.261
53383W        W21777   4.147  31.463   2.178
53384W        W21778  22.167   7.462  13.252
53385W        W21779  14.866   4.812   1.236
53386W        W21780  22.307   2.937   4.249
53387W        W21781  14.200  42.248  13.927
53388W        W21782  10.859  44.017   3.910
53389W        W21783  32.447  15.140   0.743
53390W        W21784  42.901   9.301  12.580
53391W        W21785  22.123  20.686   4.231
53392W        W21786  37.913  13.112  12.665
53393W        W21787  13.610   0.570  14.428
53394W        W21788  43.735   0.018  11.886
53395W        W21789  34.156  42.848  13.444
53396W        W21790  41.282  24.535   2.437
53397W        W21791  33.325  28.473   0.403
53398W        W21792  35.142  18.863  12.660
53399W        W21793  35.530   7.847   4.880
53400W        W21794  42.930  40.676  11.593
53401W        W21795  11.284  11.563  14.778
53402W        W21796  35.279  36.585   1.752
53403W        W21797  17.319  14.323   0.381
53404W        W21798  17.771   6.414   3.501
53405W        W21799  35.899  22.616   1.985
53406W        W21800  22.312  16.080  14.369
53407W        W21801  28.299   2.020   4.393
53408W        W21802  34.118  29.955   2.782
53409W        W21803  12.108  35.917   3.983
53410W        W21804   6.648   6.912  13.849
53411W        W21805   0.868  44.690   0.397
53412W        W21806  40.442  41.305   3.761
53413W        W21807  43.943  10.911   4.611
53414W        W21808  42.834   7.848  11.607
53415W        W21809  40.248  40.085  10.117
53416W        W21810   4.810  15.930  10.728
53417W        W21811  25.556  19.614  12.192
53418W        W21812  35.060  39.519  14.808
53419W        W21813  20.571  18.784  14.041
53420W        W21814   1.205  22.643  14.912
53421W        W21815   5.235   8.655   3.848
53422W        W21816  29.592  12.618   0.195
53423W        W21817  28.476   6.281  12.136
53424W        W21818  26.119   5.127  14.027
53425W        W21819  33.109  40.921   0.659
53426W        W21820  13.718  28.411  12.800
53427W        W21821  19.926   9.140   3.105
53428W        W21822   3.925  37.540   1.753
53429W        W21823   0.883  17.385   4.190
53430W        W21824  21.820  37.175  14.461
53431W        W21825   0.178  18.683   3.846
53432W        W21826  16.949   8.931   1.160
53433W        W21827  26.130  26.739  14.350
53434W        W21828  17.708   7.333  10.272
53435W        W21829  18.559  35.637   3.316
53436W        W21830  22.200  27.393   1.309
53437W        W21831  34.376  38.960  13.354
53438W        W21832  22.096  30.597   2.709
53439W        W21833  17.241   0.648   4.935
53440W        W21834  29.153  40.351   2.295
53441W        W21835  28.503  43.419   0.402
53442W        W21836  42.948  16.218  10.929
53443W        W21837  44.420  28.664   1.265
53444W        W21838  30.466  23.770  11.575
53445W        W21839  44.623   2.340   4.159
53446W        W21840  12.631  18.749  10.728
53447W        W21841  15.733  34.893  13.531
53448W        W21842  12.221  39.597  10.430
53449W        W21843  43.487  15.676  11.467
53450W        W21844   3.752  33.424   0.919
53451W        W21845   0.246  34.913   0.719
53452W        W21846  17.850  34.553   1.034
53453W        W21847   0.232  14.795   0.433
53454W        W21848  30.137  25.018  13.410
53455W        W21849  38.923  12.707  11.204
53456W        W21850  20.973  44.175   3.806
53457W        W21851  20.932   8.569   4.742
53458W        W21852  22.950  25.661   4.852
53459W        W21853   1.888  43.422   4.512
53460W        W21854  20.023  13.946  11.498
53461W        W21855  25.106   3.485   4.053
53462W        W21856  37.897  11.820   2.200
53463W        W21857  10.051   9.901  13.661
53464W        W21858  40.293   5.739   0.956
53465W        W21859  11.446  40.514   1.769
53466W        W21860   0.519  40.011   4.112
53467W        W21861  33.464  31.953   9.975
53468W        W21862  15.612  39.344   0.874
53469W        W21863  37.094  20.524  14.804
53470W        W21864  34.101  20.765  12.111
53471W        W21865  16.664   7.908   3.647
53472W        W21866   5.414  38.528  11.554
53473W        W21867  41.431  39.352   2.449
53474W        W21868  14.460  24.460  14.987
53475W        W21869  17.685  42.455   4.286
53476W        W21870  37.046  24.078   4.753
53477W        W21871   7.892  34.990  10.511
53478W        W21872   9.193   3.756   1.327
53479W        W21873  22.076  36.412   3.832
53480W        W21874  37.592  25.554  11.424
53481W        W21875   4.900  26.103  11.144
53482W        W21876  15.608   1.920   0.724
53483W        W21877   5.915  24.391  11.490
53484W        W21878  15.736  25.316   3.571
53485W        W21879  10.207  16.055   1.266
53486W        W21880  37.459   3.999  13.140
53487W        W21881   2.816  39.422  12.341
53488W        W21882  13.108  18.394   1.589
53489W        W21883  30.372  29.102   2.550
53490W        W21884  39.778  12.903  11.880
53491W        W21885  17.338   9.890   0.366
53492W        W21886  17.591   5.286   0.389
53493W        W21887  33.141  27.062   4.686
53494W        W21888  14.606  12.843   0.089
53495W        W21889  36.377  40.299   3.683
53496W        W21890  37.520  35.296  10.774
53497W        W21891  38.000  15.330  10.697
53498W        W21892  27.160  22.481  11.946
53499W        W21893  42.458  34.833  13.455
53500W        W21894  25.414  43.588  12.154
53501W        W21895  36.144  24.404   1.790
53502W        W21896  42.459   5.031   0.265
53503W        W21897   6.227  33.209   3.290
53504W        W21898  23.065  25.912  12.956
53505W        W21899  40.518  21.190  11.967
53506W        W21900  26.476  12.903   1.086
53507W        W21901  23.766   2.549   4.084
53508W        W21902  32.063  24.839  13.317
53509W        W21903   3.290  39.855   4.719
53510W        W21904  42.595  40.779   4.168
53511W        W21905  28.093  12.239  12.119
53512W        W21906  14.235  40.071  11.006
53513W        W21907  36.235  16.354  14.880
53514W        W21908  36.968  43.287   3.156
53515W        W21909  23.564  20.040   0.808
53516W        W21910   1.729  33.870   1.721
53517W        W21911  41.432  22.275   1.886
53518W        W21912  35.732  34.920   2.750
53519W        W21913  40.750  41.530   0.368
53520W        W21914  28.424   9.687  10.890
53521W        W21915  42.409  43.756   3.628
53522W        W21916   6.947  10.530   0.151
53523W        W21917  37.402  20.754   2.087
53524W        W21918  21.073  18.208   0.905
53525W        W21919  21.075  12.766  12.556
53526W        W21920  33.367  35.110  13.638
53527W        W21921   6.108  25.512  11.510
53528W        W21922   7.840  40.541   1.360
53529W        W21923  41.281  33.851   1.272
53530W        W21924  12.868   5.273  11.894
53531W        W21925   5.848  37.347   1.888
53532W        W21926  22.104  28.786   3.759
53533W        W21927  29.671   8.484   2.283
53534W        W21928  27.632  11.159   4.818
53535W        W21929  31.354  43.294   0.772
53536W        W21930  44.452  31.179  12.657
53537W        W21931  17.755   6.144  12.436
53538W        W21932  17.672  24.968   2.318
53539W        W21933   7.308   3.921  11.883
53540W        W21934  17.520  12.761   4.054
53541W        W21935  35.444  38.885  14.484
53542W        W21936  31.684  12.808   1.504
53543W        W21937   2.619   9.875   5.163
53544W        W21938  38.026  24.172  12.060
53545W        W21939  25.328  12.978   3.432
53546W        W21940   3.881  37.461  13.311
53547W        W21941  44.863  39.874  12.619
53548W        W21942  17.540  37.940  14.004
53549W        W21943  28.973   0.820  10.921
53550W        W21944   7.130  17.123   0.425
53551W        W21945   3.170  21.227   1.891
53552W        W21946  16.113  30.233  14.315
53553W        W21947  15.152  28.656   2.371
53554W        W21948  37.969  23.180  10.861
53555W        W21949  31.077  15.590   4.717
53556W        W21950  28.995  28.552  14.790
53557W        W21951  20.565  19.573  11.878
53558W        W21952  14.959  41.979   4.657
53559W        W21953  26.027  29.525  14.435
53560W        W21954  36.997  20.213   1.599
53561W        W21955  33.387  20.180   4.654
53562W        W21956  10.703  26.959  11.122
53563W        W21957  35.112  17.089  13.453
53564W        W21958  17.999  33.894   0.313
53565W        W21959  30.536  41.444  13.528
53566W        W21960  17.291  36.507   3.066
53567W        W21961  41.836  42.499   4.600
53568W        W21962   5.123  24.588   4.005
53569W        W21963  32.874  20.472   1.228
53570W        W21964  34.638   2.983  13.531
53571W        W21965  24.508  22.331   1.750
53572W        W21966  40.802  33.697  12.024
53573W        W21967  38.604   1.955   0.395
53574W        W21968  40.102  43.744  11.989
53575W        W21969  23.580  24.128  12.004
53576W        W21970   9.607  37.363  14.019
53577W        W21971  18.160  24.523  10.348
53578W        W21972  41.808  18.625   0.222
53579W        W21973   2.738  23.597   1.797
53580W        W21974  17.597   8.706   9.990
53581W        W21975  23.413   2.243  12.933
53582W        W21976  32.637  44.992  13.405
53583W        W21977  33.962  21.611   3.709
53584W        W21978   5.626  15.055  10.934
53585W        W21979  34.381  18.136   0.445
53586W        W21980   0.544  38.412  11.062
53587W        W21981  44.469  27.916  13.978
53588W        W21982  33.942  30.553   2.366
53589W        W21983   2.673   5.175  14.270
53590W        W21984  35.446   6.651   0.384
53591W        W21985  14.064  11.865   1.998
53592W        W21986  43.844  22.769  14.063
53593W        W21987   9.172  26.266   3.573
53594W        W21988  14.060  39.820   4.782
53595W        W21989   8.260  12.881  12.467
53596W        W21990  32.418  19.771   1.904
53597W        W21991  32.900  15.232   2.196
53598W        W21992   3.122  42.356  12.528
53599W        W21993   4.338  25.621   5.706
53600W        W21994  39.565  24.502  13.940
53601W        W21995  27.706  26.192   3.410
53602W        W21996  18.275  21.764   1.702
53603W        W21997   9.341  13.717  12.860
53604W        W21998   3.670  23.477  12.952
53605W        W21999  18.685   5.929   2.601
53606W        W22000   1.212  36.876   2.760
53607W        W22001  25.134   0.287   3.794
53608W        W22002   0.965  38.749  13.066
53609W        W22003  10.426  24.528   1.242
53610W        W22004  21.164   1.624   3.731
53611W        W22005   6.827  24.062   4.044
53612W        W22006  14.420   0.481  11.892
53613W        W22007  18.805   7.616  11.456
53614W        W22008  14.715  21.064  14.390
53615W        W22009  35.960  11.579  11.458
53616W        W22010  10.976  43.972   4.451
53617W        W22011  40.023  21.327  13.541
53618W        W22012  16.988   4.078  12.396
53619W        W22013  33.807   8.666  14.447
53620W        W22014  39.836  24.465   2.708
53621W        W22015   9.119  11.738   2.634
53622W        W22016  30.121  14.139   0.995
53623W        W22017   1.884  10.882   2.202
53624W        W22018  36.567  44.434   4.540
53625W        W22019  12.123  44.266   1.330
53626W        W22020  11.935  37.290   2.108
53627W        W22021  26.384   4.261   1.737
53628W        W22022  21.202  27.516   2.119
53629W        W22023   3.995  36.093   3.314
53630W        W22024  22.904  35.888   1.168
53631W        W22025  24.463   0.787   1.712
53632W        W22026   9.399  12.991  11.513
53633W        W22027  13.582  34.174  12.349
53634W        W22028  35.540  40.587   0.505
53635W        W22029  12.369  12.412   1.565
53636W        W22030   3.033   1.349  14.740
53637W        W22031  42.032  20.496   0.826
53638W        W22032   8.572  30.924  13.540
53639W        W22033  26.472  42.204   4.945
53640W        W22034   3.123  23.174   1.779
53641W        W22035  18.821  42.293   1.811
53642W        W22036  44.930  39.523   4.534
53643W        W22037  17.511  27.001  13.282
53644W        W22038   6.543  17.385   1.885
53645W        W22039  18.715  35.078  14.437
53646W        W22040  33.660  15.170  12.023
53647W        W22041  26.420   7.890  12.216
53648W        W22042  39.428  28.989   4.287
53649W        W22043  20.007  17.499  13.271
53650W        W22044  27.561  36.527  11.563
53651W        W22045  34.917  24.485  11.149
53652W        W22046  40.274   9.971   1.258
53653W        W22047  43.960   2.510  11.182
53654W        W22048  36.067   9.098   0.935
53655W        W22049  25.624   5.688  11.520
53656W        W22050  28.061   8.227  11.523
53657W        W22051  31.543   8.917   1.833
53658W        W22052  43.762  43.943   0.277
53659W        W22053  13.638  11.351  12.935
53660W        W22054   7.622  15.252  11.522
53661W        W22055  13.098   2.777  14.591
53662W        W22056  36.561  36.814   0.865
53663W        W22057   7.260  35.089  12.992
53664W        W22058  32.636  38.115  10.853
53665W        W22059  44.716  13.306   1.353
53666W        W22060  20.688  16.752  10.689
53667W        W22061  27.424  41.470  14.372
53668W        W22062  11.388   2.758  13.048
53669W        W22063   0.306   3.139   0.231
53670W        W22064  30.747  17.446   1.660
53671W        W22065   6.287   7.437  11.838
53672W        W22066  13.769  18.083   2.801
53673W        W22067  27.881  11.408   2.740
53674W        W22068  25.410  28.082  10.815
53675W        W22069  32.970  38.523   2.325
53676W        W22070   0.553  26.098   2.139
53677W        W22071   2.390  24.264  13.986
53678W        W22072  23.014  38.477  13.876
53679W        W22073  11.027  28.711   1.326
53680W        W22074   5.128  33.686   2.256
53681W        W22075  31.598  40.992  14.410
53682W        W22076  34.983  21.737  14.821
53683W        W22077  37.956   2.317   3.786
53684W        W22078  37.537  44.808   3.787
53685W        W22079  15.686  28.605   1.007
53686W        W22080  38.390  42.392  11.013
53687W        W22081  14.735  26.123   4.716
53688W        W22082  35.562  11.745  13.778
53689W        W22083  17.594  31.871  13.041
53690W        W22084  34.159  37.928   1.139
53691W        W22085  37.841  14.492   1.188
53692W        W22086  22.577  22.278   0.882
53693W        W22087   4.891   6.302  12.515
53694W        W22088  38.963  38.268   3.772
53695W        W22089  30.513  40.005   0.905
53696W        W22090  26.493  26.578  12.080
53697W        W22091  41.319  15.834   3.134
53698W        W22092  27.959  26.659  11.851
53699W        W22093  26.030  13.566  10.668
53700W        W22094  12.739   4.797  10.163
53701W        W22095  44.647  16.414   4.634
53702W        W22096  28.022  39.319  12.940
53703W        W22097  32.005   7.874  13.850
53704W        W22098  10.564  23.031   4.263
53705W        W22099   5.970   3.516   3.619
53706W        W22100  19.614  38.363   3.646
53707W        W22101  25.267  35.537   1.367
53708W        W22102   6.750  10.144  13.325
53709W        W22103  22.836   7.400  11.870
53710W        W22104  26.525  12.611   1.509
53711W        W22105   3.909  22.766   3.252
53712W        W22106   8.997   0.272  13.485
53713W        W22107  35.867  26.421  14.444
53714W        W22108  29.576  25.647   1.042
53715W        W22109  23.495  29.668   3.729
53716W        W22110  13.193  43.014   4.711
53717W        W22111  41.933  13.403  11.563
53718W        W22112  38.877  33.306   1.399
53719W        W22113  12.166  23.114   1.405
53720W        W22114   2.311  42.555  12.413
53721W        W22115  38.389  26.207  14.466
53722W        W22116   2.838  16.060   1.362
53723W        W22117  25.638  42.985   2.177
53724W        W22118  12.187  35.932   1.753
53725W        W22119  24.660   3.736   4.567
53726W        W22120  25.818   7.335  10.339
53727W        W22121  37.690   0.464  13.011
53728W        W22122   3.608   4.333   0.512
53729W        W22123   6.166  22.103  14.075
53730W        W22124  28.392  10.046  13.269
53731W        W22125  11.185   9.500  13.771
53732W        W22126  26.098  26.578   2.209
53733W        W22127  29.100  33.590  12.090
53734W        W22128   6.732  19.984   4.577
53735W        W22129   2.914  32.055  12.518
53736W        W22130  17.373  35.729   2.404
53737W        W22131   4.620   9.330   2.846
53738W        W22132  12.188  15.197   1.785
53739W        W22133   3.455  43.394   2.730
53740W        W22134  34.412  37.323  13.168
53741W        W22135  25.921   1.511  14.480
53742W        W22136  19.190  38.170  10.305
53743W        W22137   9.923  20.679  14.292
53744W        W22138   7.108  17.949   1.006
53745W        W22139  41.291  44.332  13.485
53746W        W22140   0.256   0.475   0.372
53747W        W22141  15.800  24.260  12.596
53748W        W22142  38.875  42.509   1.973
53749W        W22143   5.289  18.242  14.538
53750W        W22144  27.731  25.572  13.064
53751W        W22145  26.417  44.804  10.953
53752W        W22146  31.982  17.109  11.973
53753W        W22147  12.347  35.089   0.872
53754W        W22148  31.313  38.917  11.499
53755W        W22149   8.483  35.061   1.657
53756W        W22150  21.000  17.570  14.215
53757W        W22151  18.809  12.342  13.863
53758W        W22152  13.144  13.164   0.284
53759W        W22153  26.556  36.498   1.422
53760W        W22154  39.437  25.177   3.996
53761W        W22155  15.774   1.485  12.874
53762W        W22156  10.922  17.625  11.943
53763W        W22157  15.175  34.670  14.787
53764W        W22158   5.228  33.316  10.455
53765W        W22159  10.815   8.634   4.560
53766W        W22160  28.548  17.361  14.458
53767W        W22161   8.905  10.103   3.116
53768W        W22162   6.382  17.613   3.887
53769W        W22163  40.214  27.880  14.740
53770W        W22164  19.981  22.471  11.395
53771W        W22165   5.589  27.104  10.697
53772W        W22166  34.245   7.616  12.154
53773W        W22167  36.392   7.386  11.595
53774W        W22168   2.509  17.489   2.143
53775W        W22169  11.869  20.664   4.635
53776W        W22170   3.741   9.265  10.700
53777W        W22171   8.066  16.242  11.745
53778W        W22172   6.193  25.246  12.458
53779W        W22173  33.580  42.851   0.527
53780W        W22174  21.916  15.219  11.200
53781W        W22175   0.797  43.923   4.855
53782W        W22176   7.621   5.703   0.919
53783W        W22177  40.745  37.098  12.956
53784W        W22178  26.583   2.607  14.914
53785W        W22179  13.765  22.273   4.417
53786W        W22180  15.242  37.508  14.757
53787W        W22181  16.912  24.669   4.616
53788W        W22182  31.171   9.895   1.797
53789W        W22183  28.881  10.599   3.196
53790W        W22184   6.438   6.585   3.263
53791W        W22185   0.282   9.966   2.906
53792W        W22186  26.496   3.678   4.558
53793W        W22187  31.617   9.969  14.238
53794W        W22188  16.702  14.254  14.534
53795W        W22189  28.379  15.993   2.582
53796W        W22190  25.330  27.931  14.279
53797W        W22191  13.297  13.003   4.488
53798W        W22192  11.181  33.043   1.687
53799W        W22193  11.131  11.342  14.319
53800W        W22194  10.222  22.974   0.516
53801W        W22195  37.920  26.194  11.995
53802W        W22196  15.551  26.474   2.329
53803W        W22197  12.623  41.583  12.966
53804W        W22198   8.435  36.362   1.356
53805W        W22199   4.619  12.190  11.546
53806W        W22200  31.152   2.357  14.034
53807W        W22201   6.309   9.447   3.413
53808W        W22202  28.475  41.500   3.784
53809W        W22203   9.969  32.782   1.831
53810W        W22204  22.288  24.469  11.591
53811W        W22205  36.635  32.851   0.021
53812W        W22206  21.645  13.270  10.565
53813W        W22207   1.032  34.400   2.900
53814W        W22208  11.726  23.515  14.182
53815W        W22209  33.626  15.851   5.061
53816W        W22210  38.309   8.493   0.900
53817W        W22211  37.537  22.136   3.657
53818W        W22212   0.482  30.380   2.308
53819W        W22213   9.320   5.584  12.370
53820W        W22214  20.257  32.685  11.110
53821W        W22215  20.465   2.324   4.977
53822W        W22216  14.788  29.900  10.794
53823W        W22217  39.461  30.187   0.809
53824W        W22218  42.834  13.234   1.352
53825W        W22219  39.542  10.809   0.914
53826W        W22220  35.475  33.352   0.222
53827W        W22221   4.658   6.353  11.060
53828W        W22222  17.510   0.722  11.556
53829W        W22223  33.832  36.739  12.436
53830W        W22224  37.888  35.820  11.968
53831W        W22225  18.165  14.769  12.175
53832W        W22226  16.397  44.140  11.528
53833W        W22227   1.015  15.342   1.394
53834W        W22228  23.308  15.210  14.865
53835W        W22229  42.861  15.572  13.420
53836W        W22230  37.071  18.360  11.998
53837W        W22231   9.422  25.419   3.841
53838W        W22232  32.670  12.777  12.071
53839W        W22233  33.891   7.622   0.409
53840W        W22234  11.222  16.428   2.273
53841W        W22235  12.091  28.093   4.385
53842W        W22236   1.198   4.241   4.559
53843W        W22237  19.405  34.266   0.911
53844W        W22238  25.157  44.438   3.508
53845W        W22239   4.918  32.936   4.112
53846W        W22240  20.438  15.752   4.854
53847W        W22241  41.377  17.739   2.184
53848W        W22242  40.103  31.940   5.102
53849W        W22243  17.533   0.776   2.940
53850W        W22244  34.501  29.043   1.435
53851W        W22245  13.253  32.546  13.035
53852W        W22246  39.312  33.685   2.257
53853W        W22247  25.096  15.887  12.944
53854W        W22248  31.149  11.857  12.480
53855W        W22249  35.658  28.176   4.977
53856W        W22250  41.482  29.930   4.146
53857W        W22251  31.097   2.752  12.467
53858W        W22252  37.835  23.161  11.370
53859W        W22253  10.147  25.077   2.425
53860W        W22254  33.825   6.433  11.419
53861W        W22255  36.930  28.397  10.762
53862W        W22256  30.847  37.537  11.689
53863W        W22257  25.571  14.728  14.841
53864W        W22258  28.436   5.693  14.402
53865W        W22259   6.413   7.083   3.195
53866W        W22260  35.426  25.401   3.763
53867W        W22261  26.364  21.763   0.307
53868W        W22262  40.306  12.662   0.852
53869W        W22263   1.452   0.982  11.165
53870W        W22264  23.399  37.964   0.555
53871W        W22265  26.652  10.248  12.887
53872W        W22266  26.208  25.926   1.769
53873W        W22267  34.468   0.293   1.722
53874W        W22268  17.325  39.735  10.340
53875W        W22269  26.047  30.935   0.543
53876W        W22270  18.350  10.301   3.663
53877W        W22271  18.004  36.390   4.499
53878W        W22272  42.563  24.223   1.837
53879W        W22273  44.438  21.795  12.935
53880W        W22274  22.983  25.033   0.818
53881W        W22275  42.307   5.452   1.209
53882W        W22276  29.001   4.680   2.696
53883W        W22277  10.473   8.152  12.966
53884W        W22278  28.589  28.036  10.205
53885W        W22279  42.395   3.691  10.533
53886W        W22280  28.607  36.071  11.963
53887W        W22281  43.362   6.670   2.631
53888W        W22282  10.986  12.960   3.827
53889W        W22283  22.194  35.836  14.413
53890W        W22284  35.875  35.379   0.056
53891W        W22285   2.787  28.549  10.645
53892W        W22286  21.007  38.477   4.503
53893W        W22287  15.667   4.159  12.992
53894W        W22288   7.438  22.159   9.836
53895W        W22289  32.105   8.207   3.244
53896W        W22290  22.629  37.564   0.451
53897W        W22291  43.590  43.381  13.050
53898W        W22292  22.688  19.826  11.101
53899W        W22293   5.480  40.011   1.097
53900W        W22294  22.646  10.571   4.261
53901W        W22295  12.274  32.020   2.566
53902W        W22296  38.345  16.357  13.544
53903W        W22297  18.753  26.708  12.051
53904W        W22298  27.707  40.205  13.342
53905W        W22299   2.379  43.785   1.406
53906W        W22300  27.446  13.299   4.195
53907W        W22301  17.057  15.198  14.470
53908W        W22302  36.558  43.605   3.211
53909W        W22303  10.788  41.884   1.136
53910W        W22304  30.671  27.978  12.442
53911W        W22305  39.798  20.630   3.607
53912W        W22306  43.253   7.144   0.533
53913W        W22307  40.069  13.779   4.112
53914W        W22308   5.299  28.651  13.359
53915W        W22309  17.881  33.088   4.163
53916W        W22310  20.104  17.523   0.258
53917W        W22311  16.630  10.150  14.214
53918W        W22312  36.916   6.020   4.046
53919W        W22313  33.420  21.561   1.937
53920W        W22314  36.311   3.246   2.757
53921W        W22315  20.675   2.502   4.009
53922W        W22316  38.586  26.217  12.974
53923W        W22317  26.205  24.394   2.385
53924W        W22318  20.418   1.863  12.530
53925W        W22319  12.924  36.029  12.097
53926W        W22320  16.205   9.372  11.863
53927W        W22321  41.214  27.863  14.946
53928W        W22322  21.580  19.679   3.443
53929W        W22323  44.457  30.535   0.443
53930W        W22324  43.022  37.508   0.055
53931W        W22325  26.011  13.099  12.055
53932W        W22326  15.816   9.604   5.434
53933W        W22327   2.706  13.761  12.759
53934W        W22328   1.147  15.608   1.884
53935W        W22329  40.997  14.135  13.825
53936W        W22330  23.967   6.275   0.397
53937W        W22331  38.808   8.312   1.769
53938W        W22332  17.118   0.903  14.970
53939W        W22333  41.277  31.817   2.971
53940W        W22334  38.974  16.278  12.118
53941W        W22335  32.868  16.278  12.445
53942W        W22336  11.968   2.866  11.227
53943W        W22337  23.241  22.145   4.050
53944W        W22338  32.068   1.802  12.581
53945W        W22339  19.565  14.295  14.956
53946W        W22340  41.440  13.230  12.548
53947W        W22341   4.878  12.809   1.400
53948W        W22342   4.745  17.075  14.489
53949W        W22343  39.769   4.019  11.711
53950W        W22344  43.943  20.140  14.252
53951W        W22345   3.491  20.718   1.794
53952W        W22346  35.893  21.948   0.903
53953W        W22347  37.169  18.142  14.576
53954W        W22348  33.404  15.806   3.288
53955W        W22349  23.142   4.223  11.174
53956W        W22350  18.986  35.975   1.486
53957W        W22351  10.226  23.583  13.476
53958W        W22352   1.888  37.282   2.652
53959W        W22353  20.958  21.560  11.971
53960W        W22354   4.472  14.192  14.902
53961W        W22355   2.740  23.274   0.799
53962W        W22356  40.599  20.784   0.919
53963W        W22357  43.890   2.823   4.520
53964W        W22358  10.252  20.451  11.925
53965W        W22359  15.707  43.763  12.532
53966W        W22360   7.800   6.479  12.943
53967W        W22361   7.326  30.103   3.720
53968W        W22362  15.051   2.785  10.426
53969W        W22363  25.072  36.519  12.613
53970W        W22364   5.291  42.718   0.304
53971W        W22365  38.647  26.516   1.724
53972W        W22366  42.343  33.140   2.622
53973W        W22367  40.218  18.852   3.115
53974W        W22368  33.919  33.958  14.600
53975W        W22369  29.804  19.539  14.845
53976W        W22370   0.003  13.539  12.146
53977W        W22371   7.949  15.918   3.713
53978W        W22372   5.954  37.382  14.419
53979W        W22373  33.259  41.078  13.856
53980W        W22374  14.770  27.756   4.739
53981W        W22375  38.593  12.302  13.053
53982W        W22376  10.642   7.534  11.666
53983W        W22377  28.816  30.436   4.489
53984W        W22378  30.087  28.688  14.029
53985W        W22379  17.875  22.666   4.231
53986W        W22380  37.497  33.564   1.284
53987W        W22381   0.026  30.702  12.065
53988W        W22382  44.011   6.272  14.867
53989W        W22383  37.162  44.852   4.145
53990W        W22384  30.142  44.945  12.366
53991W        W22385  38.345  28.512  13.393
53992W        W22386  42.443  17.037   2.830
53993W        W22387  24.447  25.105   4.970
53994W        W22388  43.013  28.392   0.214
53995W        W22389  32.927  25.607   3.395
53996W        W22390  39.747  37.393  14.338
53997W        W22391   8.829  21.926   2.790
53998W        W22392  17.186  23.458  13.344
53999W        W22393  20.067  12.638   4.583
54000W        W22394  14.873  12.170   4.492
54001W        W22395   6.426   5.002   5.324
54002W        W22396  20.653  20.070  14.953
54003W        W22397  44.285  16.801  13.027
54004W        W22398  12.483  32.481   1.945
54005W        W22399  44.551  24.585   4.804
54006W        W22400   0.242  13.981  12.891
54007W        W22401   5.929   8.868   1.920
54008W        W22402  17.567  44.445  12.537
54009W        W22403  19.588  16.864  12.503
54010W        W22404   1.943   5.119   2.325
54011W        W22405  30.142   6.626   4.355
54012W        W22406  10.709  26.226  12.429
54013W        W22407  40.349   9.474   1.402
54014W        W22408  11.271  36.946   2.594
54015W        W22409  33.084  26.709  14.267
54016W        W22410  23.890  15.664  10.001
54017W        W22411  15.756  34.451   1.877
54018W        W22412  34.769  12.246  12.292
54019W        W22413  39.141  19.572  14.516
54020W        W22414  21.572  43.462  14.853
54021W        W22415   9.313  28.834   2.998
54022W        W22416  33.880  27.773   4.569
54023W        W22417  30.047   8.938  12.002
54024W        W22418  22.015  10.299   3.163
54025W        W22419  17.253  11.380  10.716
54026W        W22420  29.225  11.145   0.292
54027W        W22421   6.549  25.723  10.758
54028W        W22422   2.020   1.041   4.654
54029W        W22423  25.922  15.335   0.481
54030W        W22424  34.879   9.283   3.258
54031W        W22425  38.445  41.072   2.761
54032W        W22426  33.075  21.625   4.700
54033W        W22427   5.233  23.412   0.719
54034W        W22428  21.630  10.769  14.823
54035W        W22429  30.881   2.877   3.902
54036W        W22430  26.468  18.300   2.857
54037W        W22431  39.983  16.175   2.445
54038W        W22432   7.174  24.531  12.000
54039W        W22433   0.307  39.963  11.012
54040W        W22434  28.432  20.595  12.556
54041W        W22435  20.961  42.258  10.802
54042W        W22436  10.383   3.346  12.502
54043W        W22437  40.037  33.945   3.948
54044W        W22438  34.893  38.305   0.485
54045W        W22439   9.561  40.561   0.459
54046W        W22440  26.520  43.425  11.278
54047W        W22441  14.596  29.955  13.007
54048W        W22442  32.373  17.539   3.337
54049W        W22443  19.176  28.351   0.315
54050W        W22444  19.614  16.356  14.877
54051W        W22445   2.765  22.115   1.881
54052W        W22446  25.589  38.858   4.573
54053W        W22447   6.979   3.769  12.849
54054W        W22448  42.018  22.636   4.472
54055W        W22449  42.453  42.035   2.226
54056W        W22450  35.736   9.630  12.088
54057W        W22451  41.546  31.146  11.694
54058W        W22452  33.472  42.056  14.005
54059W        W22453  29.474  18.759   3.732
54060W        W22454   7.375  40.650   4.659
54061W        W22455   2.381  33.484   1.904
54062W        W22456  36.335  28.003   3.607
54063W        W22457  29.766   1.500   3.776
54064W        W22458  35.995  21.489   4.256
54065W        W22459  38.989  24.181   0.435
54066W        W22460   4.902  10.703  11.928
54067W        W22461  24.693   1.550  10.597
54068W        W22462   4.940  14.654  12.892
54069W        W22463  37.444   5.451  11.404
54070W        W22464  29.668  11.527   0.337
54071W        W22465  36.243  36.701   3.273
54072W        W22466  31.250  38.796  14.564
54073W        W22467   2.062  23.321   1.239
54074W        W22468  26.192  42.976   2.160
54075W        W22469  23.187  26.164   1.369
54076W        W22470  19.655  36.510  14.027
54077W        W22471   1.994  35.851   4.204
54078W        W22472  33.555  36.458  13.622
54079W        W22473   0.418   7.440  13.744
54080W        W22474   8.134  39.526  13.081
54081W        W22475  21.534  13.714  12.842
54082W        W22476  21.540  16.240  12.470
54083W        W22477   0.507  11.439  11.131
54084W        W22478  25.637  11.575  12.891
54085W        W22479  33.506  35.834  11.151
54086W        W22480   2.700  11.799   4.826
54087W        W22481  30.558   7.204  12.175
54088W        W22482   3.913  37.052  12.449
54089W        W22483  43.347   5.606  11.199
54090W        W22484   0.995  38.051  10.193
54091W        W22485   9.816  27.185   0.411
54092W        W22486  22.530  23.461  12.593
54093W        W22487  41.349  33.580   4.062
54094W        W22488  35.545   1.217   2.820
54095W        W22489  36.954  32.019   1.781
54096W        W22490  37.900   6.243   3.635
54097W        W22491  28.928  37.306   3.255
54098W        W22492  24.790  42.937   2.144
54099W        W22493  33.129  22.964  13.044
54100W        W22494  43.768  43.533   3.704
54101W        W22495  34.022  37.990  10.699
54102W        W22496  14.563  38.328  12.560
54103W        W22497  43.828  12.371  14.827
54104W        W22498   5.720  29.518   4.889
54105W        W22499  34.833  42.025   1.788
54106W        W22500  33.167   4.404   1.018
54107W        W22501  10.389  41.058   2.146
54108W        W22502  37.448  39.368   1.340
54109W        W22503  12.161  20.274  11.140
54110W        W22504   7.359  10.344  12.463
54111W        W22505  19.478   6.840  11.098
54112W        W22506  16.091  41.609   4.959
54113W        W22507  35.841  22.132  11.552
54114W        W22508  38.339  33.504  13.551
54115W        W22509  16.062  32.945  12.148
54116W        W22510  13.132  27.010   0.766
54117W        W22511  32.063   5.014  12.446
54118W        W22512  10.617  40.816   4.061
54119W        W22513   2.963  22.193  12.889
54120W        W22514  41.192  39.407   4.572
54121W        W22515   6.843  40.284   0.945
54122W        W22516  42.985   6.251   1.080
54123W        W22517  34.636  20.311  14.839
54124W        W22518  19.270  19.778  14.927
54125W        W22519  10.588  12.260  12.637
54126W        W22520  35.416  42.348  13.602
54127W        W22521  40.462   3.301  10.807
54128W        W22522  18.511  29.954  14.673
54129W        W22523  20.029  10.439  14.979
54130W        W22524  42.829   8.230  11.208
54131W        W22525  44.141   8.381   1.438
54132W        W22526  40.545  18.786   4.679
54133W        W22527   9.952  41.052  12.017
54134W        W22528  20.614   9.480   2.396
54135W        W22529   2.319  35.460  12.813
54136W        W22530   2.403   7.136   4.575
54137W        W22531  34.480  44.244   0.218
54138W        W22532  10.440   0.410   9.785
54139W        W22533   7.337  43.340  14.658
54140W        W22534  19.326  22.472  12.967
54141W        W22535  36.673  24.190  14.949
54142W        W22536   5.452  33.832  14.482
54143W        W22537  11.335  10.236   2.313
54144W        W22538  12.604  19.127  12.997
54145W        W22539  10.398  22.545   0.312
54146W        W22540  22.024   9.769   3.251
54147W        W22541  35.278  36.283   3.126
54148W        W22542  33.927  43.668  12.853
54149W        W22543   0.274  20.259   3.836
54150W        W22544  43.235  30.292  11.205
54151W        W22545  11.172  42.243  13.039
54152W        W22546  22.255  25.716  10.220
54153W        W22547   9.844  32.145   2.589
54154W        W22548  43.018  28.998  11.464
54155W        W22549   2.978  41.348   4.258
54156W        W22550  33.132  13.334  11.418
54157W        W22551  11.483  30.466   1.234
54158W        W22552  44.251  44.440   1.229
54159W        W22553  25.975  35.503   4.235
54160W        W22554  19.659  31.457  10.673
54161W        W22555   8.462  13.040   4.986
54162W        W22556  28.201  26.435  13.450
54163W        W22557  13.320  27.811   3.668
54164W        W22558  14.124   1.605  12.402
54165W        W22559  17.571  38.367  14.315
54166W        W22560   0.866  21.994  14.812
54167W        W22561  32.697  25.064  12.448
54168W        W22562   1.535  29.466   3.849
54169W        W22563  44.065  44.351   0.256
54170W        W22564  10.268  13.003   3.273
54171W        W22565  32.805  41.021  12.960
54172W        W22566  33.434   9.708   3.594
54173W        W22567   3.823   8.933  14.900
54174W        W22568  28.635  14.366  12.080
54175W        W22569  12.474  19.527   0.443
54176W        W22570  22.206   7.292   4.590
54177W        W22571  10.442  38.917  12.204
54178W        W22572  44.713  19.757   1.735
54179W        W22573  22.467   9.368   1.193
54180W        W22574  34.361  17.782  11.618
54181W        W22575   4.239   5.911   3.304
54182W        W22576   3.956  37.454   4.570
54183W        W22577  11.155  14.665   0.342
54184W        W22578  34.168  18.289   4.802
54185W        W22579  44.546  41.305  10.747
54186W        W22580   4.254  19.700  14.386
54187W        W22581  22.364  20.549  11.606
54188W        W22582   5.913  20.136   0.250
54189W        W22583  37.416  44.869   2.729
54190W        W22584  39.925  14.877  10.675
54191W        W22585  26.241   9.197  10.694
54192W        W22586   2.260  40.044  10.692
54193W        W22587  11.248  39.178   3.546
54194W        W22588  40.318  13.358   3.947
54195W        W22589   4.563  27.931   0.528
54196W        W22590  19.134  40.679  10.757
54197W        W22591  12.720  38.308   3.236
54198W        W22592  31.938  21.811  12.629
54199W        W22593  21.511  24.582  13.834
54200W        W22594  15.795   9.170  11.581
54201W        W22595  36.271   0.241  10.270
54202W        W22596  12.913  11.585  11.626
54203W        W22597  38.565   6.768   4.097
54204W        W22598  20.526  20.995  10.912
54205W        W22599   1.519  43.055   0.822
54206W        W22600  34.137  41.042   3.597
54207W        W22601   5.316  34.787   0.997
54208W        W22602   8.783  43.276   1.120
54209W        W22603  41.789  26.225   1.394
54210W        W22604  24.045   5.370  13.755
54211W        W22605  35.191  20.099   2.099
54212W        W22606  22.027   8.983  13.059
54213W        W22607  36.754   5.023   1.764
54214W        W22608  44.558  13.218  10.752
54215W        W22609  10.292  19.618   1.992
54216W        W22610  26.069  41.514  12.253
54217W        W22611  14.265  22.094   0.594
54218W        W22612  12.638  42.399   1.861
54219W        W22613   4.452  28.955  12.164
54220W        W22614  36.033  10.695  13.091
54221W        W22615  31.504  26.765  10.937
54222W        W22616  29.970  43.405  13.104
54223W        W22617  29.031  19.776   0.970
54224W        W22618  39.944  11.758  13.992
54225W        W22619  10.645  42.244  13.916
54226W        W22620   6.610  22.844   2.638
54227W        W22621  33.592  28.638   4.128
54228W        W22622  28.445  16.695  13.154
54229W        W22623  12.403  24.884   1.799
54230W        W22624   8.306  36.335   2.252
54231W        W22625  30.610  36.507  12.975
54232W        W22626   1.296   4.833  13.940
54233W        W22627   9.184   4.760  11.920
54234W        W22628  20.145  26.056   3.152
54235W        W22629  21.081  20.016  12.467
54236W        W22630  32.591   6.971   4.331
54237W        W22631  26.458   6.395  12.997
54238W        W22632  35.371  19.657   2.390
54239W        W22633  37.664   8.979   5.098
54240W        W22634  17.181  11.957  13.526
54241W        W22635   3.517  29.461  10.733
54242W        W22636  44.990  27.931  14.811
54243W        W22637  13.621  12.643   1.858
54244W        W22638  19.189  16.752   3.718
54245W        W22639   4.471  29.531  14.404
54246W        W22640   6.507  11.334  14.880
54247W        W22641  24.133  40.522  14.924
54248W        W22642  18.109  13.078   1.846
54249W        W22643  44.478  11.938   2.834
54250W        W22644  31.615  32.001  12.990
54251W        W22645  38.966  35.888   4.581
54252W        W22646  14.224  30.436   4.706
54253W        W22647   0.895  25.727  14.027
54254W        W22648  23.048  25.471  14.319
54255W        W22649   7.747  17.333   0.871
54256W        W22650  32.615   5.525  11.833
54257W        W22651  26.350  32.849  10.799
54258W        W22652  27.599  28.733   0.576
54259W        W22653   9.892   5.338   2.827
54260W        W22654  44.867  15.067  12.136
54261W        W22655   0.281  34.382  12.307
54262W        W22656  22.194   1.375   4.516
54263W        W22657  30.468   0.209  14.228
54264W        W22658  22.018  15.999  12.496
54265W        W22659   4.203  44.450  11.896
54266W        W22660  38.334  39.128  12.977
54267W        W22661  18.936  24.431   4.183
54268W        W22662   1.239   2.057  12.089
54269W        W22663  19.611  37.641  12.000
54270W        W22664  27.560  28.554  10.676
54271W        W22665  18.730  44.718  12.191
54272W        W22666  18.503  16.205  14.046
54273W        W22667  15.916  32.472  11.529
54274W        W22668  17.311  36.928  13.040
54275W        W22669  15.058  29.325   1.712
54276W        W22670  35.597  38.454  13.318
54277W        W22671   6.505  25.186  12.885
54278W        W22672   5.677   4.950  12.817
54279W        W22673   8.742   9.182   4.620
54280W        W22674   2.413  21.518   0.812
54281W        W22675  36.715  16.093   0.335
54282W        W22676  21.299  19.337  13.548
54283W        W22677  19.737  33.522  12.610
54284W        W22678   7.884  42.063  12.911
54285W        W22679  33.367  20.587  14.882
54286W        W22680  21.125   4.947   3.145
54287W        W22681  17.145  22.974   2.706
54288W        W22682  18.999  31.587  11.409
54289W        W22683  33.985  11.442  10.663
54290W        W22684  24.216  25.813  10.662
54291W        W22685  32.692   6.306   0.862
54292W        W22686  13.853  31.904  14.659
54293W        W22687  26.196  39.949   4.568
54294W        W22688  36.524   9.625   4.555
54295W        W22689  27.007   8.799  12.013
54296W        W22690  39.252  24.748  10.808
54297W        W22691  39.065  38.654   0.216
54298W        W22692   7.860  30.992  10.500
54299W        W22693  13.320  23.008  14.515
54300W        W22694   0.347  20.423  10.794
54301W        W22695   0.670  24.434   2.210
54302W        W22696  14.659   5.142   9.775
54303W        W22697  17.151  37.070   3.560
54304W        W22698   4.363   2.652   4.388
54305W        W22699   9.259  38.902  11.033
54306W        W22700  15.469  39.020   1.292
54307W        W22701  26.663  27.075   3.293
54308W        W22702   5.924  41.611   0.415
54309W        W22703  17.085   2.355   3.632
54310W        W22704  14.473  28.082   1.386
54311W        W22705   8.335  25.550   1.936
54312W        W22706  13.220  39.860   2.609
54313W        W22707  25.288   2.358  12.581
54314W        W22708  18.274  16.877   0.091
54315W        W22709   2.284   9.259  12.048
54316W        W22710  16.044  22.784  10.649
54317W        W22711   7.753   1.470   3.328
54318W        W22712  27.393  10.204   3.245
54319W        W22713  28.160  21.471  14.042
54320W        W22714  37.877  38.709  10.346
54321W        W22715   7.813  32.585   2.184
54322W        W22716   0.492  38.525  12.492
54323W        W22717  42.092  17.694   3.585
54324W        W22718   0.275  13.115  11.692
54325W        W22719   6.196  26.493  14.347
54326W        W22720  40.005  16.275  10.647
54327W        W22721   2.283  30.639   4.172
54328W        W22722  15.421  15.410   1.226
54329W        W22723   6.769   0.023   3.826
54330W        W22724  10.671   9.096  13.935
54331W        W22725  34.863  18.111   1.472
54332W        W22726  37.570  32.572  10.418
54333W        W22727   8.205  31.003   0.385
54334W        W22728  20.884  21.801  11.069
54335W        W22729  30.774   0.597   3.699
54336W        W22730  44.560   3.794   0.765
54337W        W22731   0.975  17.369   0.043
54338W        W22732   8.735  39.561  14.290
54339W        W22733  14.718  30.302   0.219
54340W        W22734  37.356   9.038  12.975
54341W        W22735  21.246   2.945  12.973
54342W        W22736  40.395   0.253  12.615
54343W        W22737  27.200   0.286  12.058
54344W        W22738  34.820   5.919  13.519
54345W        W22739  29.847   7.221  10.748
54346W        W22740  10.403  40.411  12.897
54347W        W22741  30.327  33.094  11.115
54348W        W22742  41.075  38.697  11.740
54349W        W22743  43.880  17.733   2.288
54350W        W22744  21.976  42.313  10.652
54351W        W22745  35.590  19.434   1.667
54352W        W22746  19.351  40.672   0.306
54353W        W22747  26.172  44.968  13.691
54354W        W22748  17.806   5.915  10.975
54355W        W22749  44.387  17.681   3.437
54356W        W22750  32.719  30.694  12.927
54357W        W22751  14.568  13.347  10.835
54358W        W22752   5.731  41.738   4.742
54359W        W22753  40.667   8.574  14.247
54360W        W22754  11.051  26.727   0.366
54361W        W22755  28.190  10.429   0.098
54362W        W22756  12.097  26.577   0.237
54363W        W22757  14.317   8.392   3.251
54364W        W22758  15.554  44.226   1.332
54365W        W22759  36.779  20.176   4.578
54366W        W22760   0.194  27.048   3.324
54367W        W22761  28.716  25.093   2.789
54368W        W22762   5.656  35.896   2.681
54369W        W22763  34.109  33.045   1.320
54370W        W22764  38.006  37.460   3.130
54371W        W22765  40.419  36.840  11.205
54372W        W22766  16.209  41.728  11.693
54373W        W22767   8.635  43.899   1.307
54374W        W22768  31.944  13.593   4.183
54375W        W22769  26.900  26.504  12.953
54376W        W22770  11.680  33.616  11.641
54377W        W22771  38.051  32.913  10.880
54378W        W22772   0.404  16.079   3.072
54379W        W22773   3.886  12.620  11.319
54380W        W22774  13.427  28.025  10.660
54381W        W22775  42.069  12.786   4.205
54382W        W22776  22.864  43.224   2.154
54383W        W22777  24.901  18.687   0.809
54384W        W22778  39.080  21.798   2.182
54385W        W22779   2.130  39.449   4.348
54386W        W22780  14.683  22.836   0.429
54387W        W22781   3.202   5.766   1.805
54388W        W22782  36.352  17.118   3.119
54389W        W22783  33.452  13.263   3.411
54390W        W22784  32.018  21.551   3.333
54391W        W22785  12.525  16.212   1.289
54392W        W22786   6.734   8.415   4.865
54393W        W22787  35.496  41.913  12.841
54394W        W22788  20.536  12.014  12.539
54395W        W22789  13.026  16.116   1.311
54396W        W22790  32.614  21.383   3.775
54397W        W22791  21.736  31.107  13.049
54398W        W22792  22.247  35.514   1.241
54399W        W22793  25.107  30.413   3.032
54400W        W22794  23.975  26.418   0.852
54401W        W22795  34.924   4.843   3.452
54402W        W22796  11.831  34.914   1.010
54403W        W22797  11.848  24.273  10.816
54404W        W22798  17.289  21.156  12.958
54405W        W22799  30.994   2.834   2.201
54406W        W22800   3.895  32.667   1.403
54407W        W22801  28.702  27.185   3.136
54408W        W22802  10.943   0.546  12.534
54409W        W22803  23.458  35.827  10.624
54410W        W22804  28.441  27.525  11.439
54411W        W22805   9.916  44.340   4.317
54412W        W22806  43.510  34.213  11.453
54413W        W22807   7.853  25.741   0.811
54414W        W22808  28.264  31.476   1.621
54415W        W22809  10.663  22.467  10.087
54416W        W22810   7.838   3.374  14.953
54417W        W22811  34.713  30.293   2.212
54418W        W22812  25.559  12.356   4.643
54419W        W22813  28.416   5.930   2.630
54420W        W22814  28.985  30.761  14.001
54421W        W22815  25.000   0.320  10.329
54422W        W22816  26.358  19.232   1.741
54423W        W22817  19.793   8.698  12.536
54424W        W22818  40.823  28.241  14.972
54425W        W22819  38.955   8.830   1.800
54426W        W22820  41.431  12.160  12.602
54427W        W22821  20.148  19.272  14.958
54428W        W22822  15.889  43.808  11.655
54429W        W22823   5.947  41.690  11.086
54430W        W22824   3.244   3.411  11.624
54431W        W22825  31.022  24.515  14.938
54432W        W22826  19.523  20.715   3.688
54433W        W22827  16.319  18.382  12.848
54434W        W22828  15.226  18.887  13.412
54435W        W22829   5.216  16.582  14.726
54436W        W22830  12.649  23.507   3.344
54437W        W22831  18.067  11.372  13.360
54438W        W22832  35.986   4.473   0.907
54439W        W22833   0.198  24.250   4.166
54440W        W22834  40.115   2.677  12.855
54441W        W22835   5.989  44.351   3.576
54442W        W22836  22.193  28.974  14.427
54443W        W22837  30.900   3.119  12.138
54444W        W22838  25.986  38.542  13.027
54445W        W22839   0.903  40.124   3.773
54446W        W22840  25.528  17.166  12.383
54447W        W22841  29.139  27.181  10.724
54448W        W22842  23.601  14.461   4.561
54449W        W22843  23.870  19.299  13.009
54450W        W22844  38.547  41.485   0.577
54451W        W22845  21.803  11.651   1.190
54452W        W22846  10.671   5.957   3.517
54453W        W22847  10.595  37.792  10.801
54454W        W22848  19.329  37.435   2.933
54455W        W22849  42.521  41.847   0.894
54456W        W22850  40.433  35.110   3.803
54457W        W22851   0.273  34.850   1.225
54458W        W22852  43.904  30.629   4.528
54459W        W22853   5.280  22.040  13.405
54460W        W22854  37.585  15.081   2.308
54461W        W22855  37.835  42.323  14.917
54462W        W22856  24.964  40.804   0.353
54463W        W22857  42.471  36.089  11.090
54464W        W22858   3.795   4.691  14.355
54465W        W22859  24.717  36.186  10.636
54466W        W22860  38.340  16.440   4.638
54467W        W22861  14.237  40.258   4.593
54468W        W22862   9.437  11.776  11.927
54469W        W22863  40.351   0.841   4.626
54470W        W22864   7.117  43.371   3.699
54471W        W22865  42.267   7.899   0.391
54472W        W22866  25.581  17.168  14.883
54473W        W22867  38.115  19.748  11.164
54474W        W22868  24.447  25.995   4.814
54475W        W22869  35.334   4.292   0.523
54476W        W22870  20.640   6.137  11.623
54477W        W22871  14.988   9.727  11.641
54478W        W22872  21.229  30.831  11.912
54479W        W22873  18.261  14.229   0.757
54480W        W22874  18.295   4.132   3.263
54481W        W22875   4.940  44.227   3.084
54482W        W22876   2.687  41.797   3.179
54483W        W22877  41.875  22.050  12.177
54484W        W22878  24.341  31.987  13.357
54485W        W22879   4.936  29.974  13.990
54486W        W22880  20.628  14.749  11.940
54487W        W22881  24.806  43.690  11.228
54488W        W22882  19.653   9.442  10.718
54489W        W22883   8.573  38.996   2.757
54490W        W22884  25.754  31.930   3.206
54491W        W22885  22.327  14.572  12.368
54492W        W22886  11.146  34.217   3.211
54493W        W22887  28.546   6.910   1.590
54494W        W22888   6.685  13.538  13.854
54495W        W22889  12.262  22.664   0.022
54496W        W22890   4.757  33.888  11.160
54497W        W22891   9.821   5.330  14.294
54498W        W22892  21.522  38.519  11.450
54499W        W22893   0.364  10.012  11.132
54500W        W22894  30.280  13.064  11.309
54501W        W22895  11.201  25.291  12.643
54502W        W22896  30.824  24.412  11.064
54503W        W22897  39.573  14.804   1.262
54504W        W22898  38.371  37.909   4.397
54505W        W22899  23.213  26.697  11.626
54506W        W22900  27.041  26.672  12.028
54507W        W22901  15.161   9.313  13.294
54508W        W22902  31.431  40.570  13.923
54509W        W22903  12.906  29.417  13.019
54510W        W22904  35.307  15.197  13.555
54511W        W22905  37.051  40.009  13.374
54512W        W22906  32.041   6.251   4.085
54513W        W22907  27.066  43.439  14.486
54514W        W22908  17.594  13.106   0.936
54515W        W22909  27.465  37.940   3.287
54516W        W22910  22.387  41.073   4.678
54517W        W22911  29.703  24.182  11.735
54518W        W22912   4.953  17.989   0.518
54519W        W22913   3.424   3.943   2.861
54520W        W22914  22.104  17.586   3.401
54521W        W22915  40.020   7.810   0.717
54522W        W22916  25.887   2.924  13.341
54523W        W22917  19.301  34.814   0.905
54524W        W22918  23.895  32.967   2.297
54525W        W22919  43.220   5.603  10.712
54526W        W22920   7.207  44.234  12.248
54527W        W22921  38.981  32.117  13.719
54528W        W22922  29.149  31.633  14.475
54529W        W22923  23.221  42.376  11.202
54530W        W22924   1.242   3.143  11.034
54531W        W22925  15.078   3.232   1.291
54532W        W22926  26.789  17.881  11.127
54533W        W22927  23.269  28.477   1.822
54534W        W22928   9.038  35.104  11.635
54535W        W22929  15.090  40.053   2.363
54536W        W22930  43.104  21.622  13.998
54537W        W22931  42.636  13.363   2.581
54538W        W22932  15.006  28.679  12.665
54539W        W22933  10.224  13.606   4.175
54540W        W22934  31.605  33.578   0.193
54541W        W22935  41.387  21.265   0.764
54542W        W22936  39.486   5.995  14.874
54543W        W22937   0.949   5.518  10.779
54544W        W22938  43.860  28.474  10.582
54545W        W22939  18.108  28.624  13.844
54546W        W22940   6.733   4.214  11.271
54547W        W22941  38.793   4.343   3.443
54548W        W22942  23.787  15.800  12.787
54549W        W22943  42.586  36.442  11.438
54550W        W22944  10.372  38.441   0.382
54551W        W22945  36.543   2.771  11.868
54552W        W22946   4.163  16.445   2.463
54553W        W22947   7.119  42.009  11.619
54554W        W22948  27.332  29.964  11.394
54555W        W22949  13.458  32.743  12.495
54556W        W22950  19.362   3.523   4.350
54557W        W22951   7.601  26.219   4.879
54558W        W22952  10.409  44.483   0.913
54559W        W22953   9.680  16.110   3.164
54560W        W22954   3.503   2.734  12.608
54561W        W22955   3.106  33.376   3.669
54562W        W22956   0.726  14.562   2.651
54563W        W22957  29.699   0.917   3.017
54564W        W22958   6.698  25.268   3.667
54565W        W22959  44.427  40.337   0.412
54566W        W22960  36.862  39.307  14.326
54567W        W22961  36.432  43.016  14.994
54568W        W22962  13.915   1.562   2.375
54569W        W22963   9.067  19.180  12.030
54570W        W22964   0.502  36.020  11.170
54571W        W22965  29.532  19.828   2.205
54572W        W22966   9.771  37.550   4.892
54573W        W22967  36.138  12.016   3.772
54574W        W22968   3.676  24.169  13.835
54575W        W22969  14.909  23.734   2.441
54576W        W22970   4.059  29.863   1.233
54577W        W22971  40.703  25.210   0.895
54578W        W22972  12.458  28.205   1.439
54579W        W22973  10.794  13.330   2.490
54580W        W22974  12.817  32.838   4.907
54581W        W22975  40.736  17.248  14.398
54582W        W22976   4.459  38.231   3.172
54583W        W22977  12.317  40.812   0.259
54584W        W22978  35.144   2.163  10.572
54585W        W22979  42.667   4.461  14.918
54586W        W22980  30.830  16.127  11.201
54587W        W22981  34.422  41.496   0.993
54588W        W22982  10.433   9.936  13.290
54589W        W22983   9.022  26.902  10.078
54590W        W22984   5.195  29.008   1.886
54591W        W22985  35.561  31.205   1.140
54592W        W22986  40.989   3.435  10.689
54593W        W22987   8.417  25.527  13.459
54594W        W22988  20.518  34.984   1.728
54595W        W22989  26.632  27.516  11.957
54596W        W22990  28.934   2.572   0.416
54597W        W22991  29.581  26.139   3.929
54598W        W22992  41.532  17.507  12.634
54599W        W22993  26.993  10.597  14.829
54600W        W22994  19.906  21.676   2.268
54601W        W22995   5.005  21.236   4.788
54602W        W22996  26.144  18.281   0.213
54603W        W22997   7.186   6.600   0.476
54604W        W22998  36.066  25.085  10.596
54605W        W22999  36.115  35.028   2.397
54606W        W23000  19.087  32.698  14.389
54607W        W23001   3.700   3.790  14.769
54608W        W23002  21.294  32.846   9.983
54609W        W23003  33.350  18.791  14.785
54610W        W23004  31.824  26.486  12.600
54611W        W23005  33.057   2.138  11.143
54612W        W23006  36.409   7.193   4.693
54613W        W23007  32.026  14.671   3.307
54614W        W23008   9.334  23.683  11.529
54615W        W23009  30.075   3.390  11.961
54616W        W23010   7.181   1.964  12.941
54617W        W23011  13.286  43.526   0.995
54618W        W23012  44.230  41.724   2.737
54619W        W23013  28.180  26.238  12.087
54620W        W23014  22.918  33.013   0.288
54621W        W23015  33.874  11.110  13.819
54622W        W23016   1.610   2.616  14.860
54623W        W23017   6.971  34.921   3.410
54624W        W23018  34.353  21.533   0.941
54625W        W23019  43.251  27.780  10.559
54626W        W23020   2.150  24.076   1.130
54627W        W23021  25.119  40.377   0.548
54628W        W23022  43.762  38.559   2.095
54629W        W23023  35.047  29.970   2.960
54630W        W23024  10.793  29.140   0.385
54631W        W23025  39.568  15.146  12.116
54632W        W23026  30.112  29.895   0.657
54633W        W23027  18.761  34.163  10.728
54634W        W23028  30.131  14.313  14.699
54635W        W23029  24.161  14.696  12.514
54636W        W23030  18.734  25.002  10.321
54637W        W23031  35.986  15.928   2.122
54638W        W23032  15.295   4.388   4.673
54639W        W23033  34.033   2.987   0.790
54640W        W23034  21.244   8.403  13.449
54641W        W23035  29.098  15.071  14.399
54642W        W23036  44.299  16.621  10.679
54643W        W23037  19.314  32.961   2.225
54644W        W23038   3.777  16.606  13.177
54645W        W23039  30.071  43.988  12.102
54646W        W23040   0.190  30.729  13.402
54647W        W23041  12.204  26.078  14.134
54648W        W23042  32.790   8.846  14.447
54649W        W23043  17.921  28.417   1.297
54650W        W23044   5.864  35.884  13.510
54651W        W23045  31.590  22.207  10.683
54652W        W23046  15.609  31.873  12.121
54653W        W23047   2.142  12.881  14.642
54654W        W23048   1.862  26.812  14.387
54655W        W23049  44.025  35.529   4.088
54656W        W23050  38.075  11.237   3.624
54657W        W23051  41.765  13.259  12.093
54658W        W23052  41.893  13.278   4.075
54659W        W23053  44.820  17.631  13.030
54660W        W23054  13.593  25.460   3.637
54661W        W23055  34.944  14.532  10.610
54662W        W23056   4.202  27.170  11.859
54663W        W23057  19.133  17.742  12.452
54664W        W23058  17.254   5.010  12.449
54665W        W23059   5.691  15.367   3.590
54666W        W23060   7.012   0.526   3.769
54667W        W23061   6.085  14.168  11.488
54668W        W23062  31.933  40.753   3.232
54669W        W23063  41.818   6.644   0.388
54670W        W23064  27.635  20.178   0.425
54671W        W23065  34.304  12.011  13.508
54672W        W23066  20.853  11.798   4.785
54673W        W23067  21.550  23.713   1.608
54674W        W23068  36.404  38.033   4.066
54675W        W23069  12.716  22.279  12.081
54676W        W23070  28.127  23.111  12.620
54677W        W23071  17.311  18.422   1.304
54678W        W23072  20.714  14.102  13.616
54679W        W23073  10.168  20.749  13.389
54680W        W23074   9.885  17.347   0.004
54681W        W23075  30.606  19.698   3.110
54682W        W23076  13.277  10.733   2.629
54683W        W23077  43.196   8.735   1.674
54684W        W23078   0.900  12.091   0.750
54685W        W23079  16.011   2.692   0.027
54686W        W23080   5.212  36.986   4.133
54687W        W23081   3.243  23.915  12.336
54688W        W23082  43.430  41.509  11.561
54689W        W23083  16.830  27.921  13.780
54690W        W23084   5.815  40.265  14.406
54691W        W23085  26.698  13.294  14.454
54692W        W23086  39.019  22.982  11.962
54693W        W23087  21.222   1.184  13.825
54694W        W23088  22.969  36.565  13.119
54695W        W23089  37.358  16.735  13.480
54696W        W23090  35.878  44.967  12.374
54697W        W23091  36.915  28.714   0.616
54698W        W23092  16.070  21.279   4.182
54699W        W23093   5.244  29.533  12.329
54700W        W23094   4.141  30.694   1.549
54701W        W23095  12.150  16.209  10.922
54702W        W23096   3.463  21.120   1.457
54703W        W23097   1.172  40.793  11.297
54704W        W23098  19.544  22.609   3.307
54705W        W23099  44.418  32.395   1.395
54706W        W23100   3.056  17.092  14.703
54707W        W23101  37.365  15.854  14.733
54708W        W23102   7.195  19.518   0.400
54709W        W23103  24.514  19.897   2.815
54710W        W23104  20.084  39.625  10.682
54711W        W23105  26.200  11.216   0.326
54712W        W23106   1.270  13.846   3.742
54713W        W23107   9.957   8.832   3.431
54714W        W23108  41.517  20.049   0.280
54715W        W23109  10.586  43.950   1.727
54716W        W23110  36.435  31.655  11.121
54717W        W23111  26.853  28.080  14.830
54718W        W23112  28.581  42.569   5.132
54719W        W23113  19.581   8.342   0.403
54720W        W23114  27.254  40.052  13.123
54721W        W23115   6.109   6.470   2.401
54722W        W23116  21.344  35.626  13.460
54723W        W23117  42.035   4.291  13.689
54724W        W23118   5.688   0.907   0.615
54725W        W23119  23.634   4.381   0.217
54726W        W23120  43.856   5.770  14.872
54727W        W23121   0.388  41.362   3.351
54728W        W23122   7.830   7.908  14.838
54729W        W23123  34.763  17.667  11.936
54730W        W23124  21.178   0.896  14.261
54731W        W23125  40.543  14.260  11.671
54732W        W23126   5.641   5.801   2.711
54733W        W23127   6.217  37.322  11.195
54734W        W23128  30.720  15.223  13.912
54735W        W23129   1.387  23.384  10.552
54736W        W23130  23.152   9.664   1.813
54737W        W23131  44.025  21.537   4.152
54738W        W23132  23.465  19.787   3.127
54739W        W23133  11.364   5.001  14.972
54740W        W23134  24.973  19.782  11.564
54741W        W23135  31.179  30.457   4.194
54742W        W23136  31.127  34.454   2.065
54743W        W23137  29.084  28.037   2.735
54744W        W23138  11.789  24.050  12.068
54745W        W23139   2.056  14.699   0.473
54746W        W23140   1.919   5.447  11.639
54747W        W23141  36.391  26.442   3.308
54748W        W23142   5.190  28.040  10.567
54749W        W23143  23.716   7.964   4.593
54750W        W23144  38.136  11.672  14.841
54751W        W23145  11.732  38.896  13.046
54752W        W23146  36.698  16.009  12.555
54753W        W23147  24.693  29.325   1.750
54754W        W23148   2.850  21.631  11.650
54755W        W23149  15.046   7.363   2.843
54756W        W23150  30.643  43.263   3.645
54757W        W23151  12.444   7.903  11.241
54758W        W23152  14.325  11.887  14.948
54759W        W23153  22.594  30.935   1.596
54760W        W23154  10.866  31.747   4.602
54761W        W23155  16.505  34.076  14.502
54762W        W23156  17.099   6.290   3.213
54763W        W23157  13.009  39.987   0.820
54764W        W23158  40.509   2.906   3.529
54765W        W23159  31.497   9.900  12.382
54766W        W23160  17.298  14.341  13.442
54767W        W23161   7.099  32.475  14.991
54768W        W23162  18.570  27.540   0.226
54769W        W23163  22.276   5.709   2.732
54770W        W23164   2.275  26.607  13.473
54771W        W23165  29.986  39.816  13.997
54772W        W23166  34.062  19.874  11.964
54773W        W23167  40.984  43.241  12.020
54774W        W23168  16.321  17.266   3.117
54775W        W23169   9.271  26.560  12.677
54776W        W23170  43.862  16.507  12.907
54777W        W23171  19.792   8.362  14.908
54778W        W23172  18.850  38.928  12.058
54779W        W23173  42.844  21.679   1.703
54780W        W23174  44.974  13.071   0.950
54781W        W23175  32.511   2.381   3.436
54782W        W23176   6.451  14.689   2.306
54783W        W23177  38.359   9.057  12.372
54784W        W23178  29.096  20.575  13.022
54785W        W23179  20.256  32.005   1.916
54786W        W23180  32.278  15.464   4.522
54787W        W23181  44.909   3.702  12.000
54788W        W23182  43.759  15.611   3.979
54789W        W23183   2.344  23.624  10.757
54790W        W23184  28.026   1.654   4.147
54791W        W23185  40.896  28.671   0.252
54792W        W23186  20.523  34.769  13.217
54793W        W23187   1.291  28.465  13.855
54794W        W23188  31.281   4.754  10.686
54795W        W23189   8.928  12.644  10.740
54796W        W23190  29.540   3.703  14.973
54797W        W23191  13.718   5.331   0.211
54798W        W23192  10.816   1.791   4.132
54799W        W23193  27.187  36.972  12.431
54800W        W23194  18.683  21.539   2.393
54801W        W23195  13.956  31.101   1.245
54802W        W23196  13.481  19.391  14.788
54803W        W23197  30.015   5.927   0.322
54804W        W23198  24.767  43.347  13.454
54805W        W23199   3.380  34.449   1.420
54806W        W23200  26.583  43.029  10.958
54807W        W23201  36.771  26.148   3.501
54808W        W23202  24.026  24.474  11.157
54809W        W23203  26.683   3.889   2.810
54810W        W23204  33.373   6.310   3.742
54811W        W23205  23.494  44.378   0.507
54812W        W23206  18.337  43.959  13.016
54813W        W23207  43.236  19.125  13.598
54814W        W23208  32.505   0.993   3.331
54815W        W23209  24.511   9.700  14.252
54816W        W23210   3.939   8.146  12.106
54817W        W23211   1.647   2.284   1.718
54818W        W23212  38.074  13.697  11.459
54819W        W23213  10.725  35.539  11.206
54820W        W23214  39.533  44.871  14.382
54821W        W23215  31.429  10.680  14.110
54822W        W23216   0.386   3.377   1.516
54823W        W23217   6.637  28.970  13.330
54824W        W23218  26.091  11.800  11.506
54825W        W23219  10.526  25.195   4.680
54826W        W23220  38.254  17.557   4.121
54827W        W23221  35.324  42.399   3.848
54828W        W23222  13.695  10.638  14.049
54829W        W23223   9.444  40.777  14.519
54830W        W23224  33.447  23.194  10.826
54831W        W23225  34.463  16.868  11.382
54832W        W23226  22.039  29.796  14.392
54833W        W23227  42.475   5.237   4.037
54834W        W23228  13.873  25.057  12.130
54835W        W23229   1.329  38.595   1.713
54836W        W23230  41.851  27.637   5.019
54837W        W23231  22.149  25.372  13.251
54838W        W23232  29.715   8.639  10.764
54839W        W23233  35.846  28.444   2.842
54840W        W23234  39.420  15.082  13.076
54841W        W23235  30.346  16.068   0.802
54842W        W23236  35.042   3.453  12.533
54843W        W23237  38.165  23.680   3.327
54844W        W23238   4.463   4.416  12.136
54845W        W23239  19.309   8.901   4.092
54846W        W23240  42.873   0.301  13.321
54847W        W23241   9.158  17.249   0.362
54848W        W23242  34.520   1.161  12.932
54849W        W23243  16.765  25.957  13.890
54850W        W23244  31.055  28.478   1.684
54851W        W23245  23.279  40.355   0.288
54852W        W23246  44.588  42.997   5.129
54853W        W23247   8.164  42.561  14.820
54854W        W23248  38.135  30.567  10.645
54855W        W23249  44.990  13.548   1.758
54856W        W23250  28.953  17.684  11.076
54857W        W23251   2.010  12.081  12.148
54858W        W23252  22.221  17.870  11.656
54859W        W23253  34.082  24.083  13.175
54860W        W23254  35.057  22.044   3.676
54861W        W23255  10.813   4.435   2.263
54862W        W23256   1.431  42.334  13.873
54863W        W23257  10.272   3.952   2.741
54864W        W23258  37.334  37.164  12.968
54865W        W23259  28.578  22.791   0.371
54866W        W23260  25.133  29.256   1.495
54867W        W23261  30.874  28.534  11.185
54868W        W23262   0.261  15.128  13.414
54869W        W23263  27.706   0.908  12.665
54870W        W23264  23.975  33.025  10.664
54871W        W23265  30.015  39.502   1.563
54872W        W23266   5.719  16.580  13.007
54873W        W23267  19.716  22.324  12.442
54874W        W23268  38.969  10.149  10.958
54875W        W23269  15.807  22.237   2.211
54876W        W23270  43.864  20.213  13.368
54877W        W23271  30.568  11.627  11.552
54878W        W23272   7.118   9.233   1.232
54879W        W23273  30.354  23.156  13.465
54880W        W23274  35.624   3.511   2.260
54881W        W23275  22.332  11.947  12.546
54882W        W23276   7.552  13.901   0.421
54883W        W23277   1.397  22.503  10.780
54884W        W23278  38.550  16.213   1.380
54885W        W23279   8.730  21.112   1.903
54886W        W23280  41.372  18.326   3.192
54887W        W23281  26.749  26.425  10.802
54888W        W23282  44.880  28.952   3.725
54889W        W23283  42.071   7.418  14.610
54890W        W23284  25.243  28.895   3.684
54891W        W23285  34.951  40.252   1.239
54892W        W23286  29.256  17.770  11.503
54893W        W23287   2.447  18.767   3.707
54894W        W23288  40.133   2.517  14.435
54895W        W23289   6.779  13.896   2.764
54896W        W23290  17.036   9.597  11.488
54897W        W23291  19.825  26.109  11.099
54898W        W23292  10.897  18.759  11.884
54899W        W23293  42.517   4.230   2.714
54900W        W23294  19.580  13.849  12.962
54901W        W23295   9.925  15.959  12.312
54902W        W23296  37.724  31.954  13.919
54903W        W23297  17.359  24.938  13.134
54904W        W23298  43.441  34.094  10.933
54905W        W23299   2.349  10.307   0.891
54906W        W23300   4.559  43.874  12.994
54907W        W23301   5.689  42.400   1.667
54908W        W23302   5.411  29.384  12.794
54909W        W23303  39.086   8.815  14.390
54910W        W23304  19.303  23.129  12.451
54911W        W23305  31.574  11.270  13.431
54912W        W23306  28.429   2.706   2.206
54913W        W23307  40.341  41.884  13.337
54914W        W23308   6.233  21.043   4.025
54915W        W23309  28.025  43.381   0.637
54916W        W23310   8.407  16.802   0.493
54917W        W23311  21.173  12.325  12.970
54918W        W23312  12.861  40.673   3.640
54919W        W23313  16.792  41.929   1.133
54920W        W23314   9.372  16.734  12.044
54921W        W23315  42.082  12.915  11.627
54922W        W23316  15.287  25.437  12.422
54923W        W23317  23.324  44.670   3.206
54924W        W23318  30.872  11.117  13.938
54925W        W23319  42.877   7.151   3.575
54926W        W23320  27.509  13.649  12.009
54927W        W23321  44.531   3.019   1.873
54928W        W23322  22.549  14.989   4.652
54929W        W23323   6.045  40.805   3.351
54930W        W23324  14.766  16.874  11.684
54931W        W23325  41.017  21.645   0.967
54932W        W23326  37.705   5.676  14.091
54933W        W23327  16.050  15.993   4.527
54934W        W23328   3.532   8.651   0.897
54935W        W23329  20.215   6.040   0.397
54936W        W23330  24.993  28.758   2.375
54937W        W23331   5.437  26.210  11.164
54938W        W23332  16.612   1.889  13.016
54939W        W23333   2.433   2.509   0.379
54940W        W23334   4.960  12.702  13.856
54941W        W23335  23.544   7.813  13.871
54942W        W23336  38.823   0.935  12.039
54943W        W23337  22.403  15.057  12.603
54944W        W23338   8.672  18.689  10.671
54945W        W23339  10.169  34.919   3.592
54946W        W23340  11.553  30.965  11.828
54947W        W23341  34.336  17.231  12.139
54948W        W23342  31.474  40.370   0.188
54949W        W23343  18.059  24.225   2.738
54950W        W23344  33.139  18.509  12.038
54951W        W23345  23.299  21.284   1.748
54952W        W23346  27.551  12.536  10.731
54953W        W23347  22.101  13.748   3.797
54954W        W23348   3.405   4.380  14.496
54955W        W23349  34.574  12.633  14.097
54956W        W23350   1.867   1.725   0.461
54957W        W23351  43.383  24.600   3.809
54958W        W23352  22.976  43.815  14.831
54959W        W23353   8.780  26.973   0.293
54960W        W23354  42.749  36.027   1.926
54961W        W23355  35.390  29.651   4.735
54962W        W23356  16.761   9.778  13.554
54963W        W23357  18.727  36.420  10.541
54964W        W23358  21.933  38.564  12.928
54965W        W23359  13.149   8.557  11.589
54966W        W23360  27.177  35.095   0.931
54967W        W23361  38.085  14.621   1.678
54968W        W23362  10.304   2.446   2.691
54969W        W23363  17.209  19.304  14.386
54970W        W23364  44.449  11.517   4.156
54971W        W23365   4.801  36.487  13.422
54972W        W23366  12.907  22.081   3.547
54973W        W23367  38.098  31.713   1.788
54974W        W23368  43.755  11.331   0.635
54975W        W23369  33.161  33.466   3.725
54976W        W23370   8.340  40.774  10.677
54977W        W23371   4.226  27.445   2.421
54978W        W23372  19.303  20.287  14.835
54979W        W23373   7.745  36.660  14.867
54980W        W23374   7.864  18.274   0.938
54981W        W23375  42.538  14.319   2.609
54982W        W23376  16.356  22.012  13.485
54983W        W23377  24.175  37.270   3.290
54984W        W23378   6.119   5.954   1.095
54985W        W23379  26.974   6.853   2.211
54986W        W23380  35.352  16.097   4.542
54987W        W23381  31.216   7.800  13.419
54988W        W23382   8.161   0.238  14.671
54989W        W23383   4.415  39.171   4.722
54990W        W23384  17.097  35.613  12.074
54991W        W23385  19.718  42.884   4.076
54992W        W23386  31.418  33.326  11.995
54993W        W23387   9.114  30.904   3.202
54994W        W23388  38.774  15.084  11.740
54995W        W23389   6.772   2.255  13.008
54996W        W23390   3.448  26.613  11.157
54997W        W23391  20.597  17.253   2.838
54998W        W23392  11.464  11.318  11.349
54999W        W23393   0.339  41.262   1.019
55000W        W23394  35.778  31.502   4.524
55001W        W23395   1.350  13.747   1.932
55002W        W23396  35.841  36.508  13.878
55003W        W23397  19.740  15.307   1.994
55004W        W23398  39.582  43.777  13.345
55005W        W23399  39.367   4.319   1.244
55006W        W23400   4.219  15.312   0.764
55007W        W23401  28.409  10.121  10.595
55008W        W23402  13.325  40.960   0.488
55009W        W23403  20.454  41.142  13.339
55010W        W23404  11.469  28.963   3.779
55011W        W23405  29.708  40.472   0.566
55012W        W23406  12.680  21.705   1.752
55013W        W23407  29.430  27.638   0.474
55014W        W23408  10.829   4.520   3.239
55015W        W23409  15.151  43.301  13.781
55016W        W23410  37.031  26.295   0.872
55017W        W23411   5.784  22.316   3.701
55018W        W23412  16.129  38.026  13.824
55019W        W23413  13.630   3.308   3.253
55020W        W23414  18.766  40.295  12.112
55021W        W23415  17.063  26.557  13.073
55022W        W23416   1.415   7.709  10.999
55023W        W23417  42.125  12.666   0.629
55024W        W23418  20.313   2.976   1.787
55025W        W23419   8.827  14.065   3.791
55026W        W23420  40.161  32.901  11.141
55027W        W23421  20.155  35.411  12.133
55028W        W23422  12.878  43.191   2.839
55029W        W23423   6.356  36.023  10.768
55030W        W23424   3.763  20.014   4.121
55031W        W23425   9.266  44.240  12.097
55032W        W23426  26.061  39.527  14.599
55033W        W23427  25.054   9.615  10.225
55034W        W23428  20.984  32.517  13.354
55035W        W23429   4.799   0.379  14.983
55036W        W23430   0.841  10.183  11.227
55037W        W23431  37.405  31.741   3.643
55038W        W23432  38.987  41.532  14.317
55039W        W23433  37.742  24.241   2.369
55040W        W23434  33.867  17.219  14.041
55041W        W23435   7.537   7.309  11.455
55042W        W23436  14.394  32.556   0.194
55043W        W23437   0.308  40.853  11.878
55044W        W23438  27.997  25.551  14.400
55045W        W23439  40.354  21.896   4.742
55046W        W23440   4.690  22.514   1.341
55047W        W23441   7.554  27.078   4.126
55048W        W23442  21.888  31.004   0.770
55049W        W23443   9.218   1.719   1.790
55050W        W23444   7.870  27.067   1.694
55051W        W23445  16.154  44.791   4.843
55052W        W23446  27.638   2.256   3.315
55053W        W23447  31.969  36.156  14.066
55054W        W23448  33.734  17.902  12.139
55055W        W23449  15.966  15.639   0.252
55056W        W23450  17.554   2.782  11.337
55057W        W23451  35.393   0.265  13.371
55058W        W23452  14.311   3.813   4.245
55059W        W23453  44.521  11.360   0.337
55060W        W23454  18.226  16.888   1.365
55061W        W23455  31.448  39.935  12.793
55062W        W23456  35.982   5.777   4.634
55063W        W23457  13.906  37.212  14.813
55064W        W23458   2.481  23.038   1.176
55065W        W23459  14.027  34.106   1.940
55066W        W23460  23.340  25.506   1.856
55067W        W23461  40.135  17.582   2.670
55068W        W23462   8.254  40.774  11.672
55069W        W23463  44.680  19.036  11.716
55070W        W23464  35.557   9.296  12.452
55071W        W23465   1.520  44.299  14.374
55072W        W23466  30.145   3.211  11.469
55073W        W23467  30.736   8.293   0.300
55074W        W23468  31.058  41.970  11.119
55075W        W23469   1.987   0.957   1.759
55076W        W23470   6.450  21.620   3.610
55077W        W23471  38.648  40.032  14.894
55078W        W23472  25.549  39.474   2.748
55079W        W23473   9.812  29.018  12.481
55080W        W23474   1.461  31.726   2.153
55081W        W23475  19.027  41.457  14.879
55082W        W23476   2.909   2.289  12.993
55083W        W23477  25.005  17.555   4.654
55084W        W23478  22.624  18.545   3.974
55085W        W23479  44.461  21.539   9.848
55086W        W23480  42.223  11.806   4.541
55087W        W23481  43.225   7.114  10.276
55088W        W23482  32.070   8.748   2.621
55089W        W23483   3.983  24.606  14.987
55090W        W23484  10.791  18.156  14.320
55091W        W23485   4.125   3.415  10.700
55092W        W23486   9.296  30.946  12.825
55093W        W23487  18.755  24.249   1.995
55094W        W23488  43.586   3.447  14.934
55095W        W23489  32.568  23.143  11.122
55096W        W23490  10.883  41.818   3.222
55097W        W23491  16.600  23.303  11.972
55098W        W23492  23.938  41.950  14.722
55099W        W23493  41.006  38.470  10.786
55100W        W23494  15.615  35.428   2.680
55101W        W23495  17.220  35.988   3.341
55102W        W23496   9.219  31.674  10.669
55103W        W23497  11.625  12.165  13.544
55104W        W23498  36.880   8.295  13.268
55105W        W23499  28.652   4.600   3.835
55106W        W23500  39.450  12.141  14.783
55107W        W23501  37.390   5.241  11.868
55108W        W23502  12.627   7.212   2.853
55109W        W23503  28.078  32.132   3.193
55110W        W23504  27.511  31.377   0.949
55111W        W23505   5.251  29.019  14.798
55112W        W23506  15.173  33.222  10.441
55113W        W23507  25.739  19.422   5.034
55114W        W23508   9.614  28.859  12.019
55115W        W23509  15.158  10.617   4.092
55116W        W23510   9.943  18.705   1.310
55117W        W23511  13.246  38.340  13.940
55118W        W23512  33.284  24.110  10.312
55119W        W23513   5.498   2.195   9.818
55120W        W23514  16.248  16.564  11.413
55121W        W23515  20.968  39.741  10.793
55122W        W23516  28.254  36.052   1.765
55123W        W23517  27.857  19.990  12.513
55124W        W23518   6.416  39.872  10.904
55125W        W23519   3.818   1.556   2.278
55126W        W23520  38.786  34.451  10.635
55127W        W23521  11.922   0.220  13.559
55128W        W23522  29.839  16.086   0.919
55129W        W23523  41.536  14.141   1.024
55130W        W23524  41.583  12.204  11.106
55131W        W23525  29.625  27.467   4.680
55132W        W23526  28.645   9.247   1.570
55133W        W23527  41.255  17.916  13.541
55134W        W23528  18.292  32.790   4.150
55135W        W23529  13.591   7.816  14.951
55136W        W23530  35.347  10.910   2.658
55137W        W23531   9.849  22.553  12.824
55138W        W23532  29.601  32.369   0.277
55139W        W23533  38.599  12.661   1.316
55140W        W23534  32.791  12.099  13.193
55141W        W23535   4.387  29.970   4.643
55142W        W23536  27.016  43.371  12.131
55143W        W23537  16.498  36.935   5.134
55144W        W23538  44.990  35.254   1.378
55145W        W23539   2.263  38.663  14.926
55146W        W23540   6.202  19.528   3.567
55147W        W23541  33.857  24.031  12.139
55148W        W23542  26.548   8.509   1.992
55149W        W23543  22.150  39.193  13.575
55150W        W23544  26.599  43.523   2.321
55151W        W23545  12.248  34.153   0.983
55152W        W23546   7.716  30.960  14.046
55153W        W23547   4.612   8.826   4.403
55154W        W23548  37.347  41.753  11.092
55155W        W23549  36.042  26.529   3.659
55156W        W23550  11.050   9.800   2.585
55157W        W23551  13.301  29.051   2.231
55158W        W23552  44.263   9.777  10.500
55159W        W23553  32.556  27.597  14.117
55160W        W23554  21.170   1.564  14.799
55161W        W23555   9.818   8.900  10.571
55162W        W23556   3.658  34.059  14.855
55163W        W23557   0.263  35.186  11.299
55164W        W23558  27.146  28.023   4.298
55165W        W23559  27.520   2.501   9.710
55166W        W23560   4.414  35.766   1.621
55167W        W23561  38.852  15.680  11.082
55168W        W23562   4.417   1.752  12.507
55169W        W23563  27.131   7.734   3.048
55170W        W23564  20.893  32.645  14.283
55171W        W23565   0.426  12.024   0.542
55172W        W23566  41.209  23.571   4.035
55173W        W23567  17.133  20.053  12.075
55174W        W23568  34.914  16.800  13.864
55175W        W23569   1.300  16.668   3.600
55176W        W23570  42.305  36.901  11.472
55177W        W23571  21.531   2.858   1.266
55178W        W23572  21.777  30.941   1.799
55179W        W23573  26.798   5.456  11.990
55180W        W23574  37.192  19.469   1.331
55181W        W23575  24.718  17.085  13.586
55182W        W23576  11.674   4.849  13.427
55183W        W23577  37.328  43.794  12.276
55184W        W23578  15.481   2.851  12.275
55185W        W23579  44.469  23.596   4.071
55186W        W23580  18.741   9.332  11.144
55187W        W23581  35.953  24.151   3.369
55188W        W23582  20.058  12.157   2.813
55189W        W23583  11.729  21.719   3.900
55190W        W23584   4.704  16.101  12.437
55191W        W23585  43.606  40.599  13.601
55192W        W23586  32.787  38.304   4.143
55193W        W23587  10.938  35.313   3.155
55194W        W23588   2.276  41.482  13.424
55195W        W23589  18.681  11.800  12.487
55196W        W23590  39.851   5.361  11.169
55197W        W23591  20.727  21.203   3.782
55198W        W23592  11.010  12.855   4.348
55199W        W23593  29.462  37.451  13.344
55200W        W23594  19.259  30.851   0.306
55201W        W23595  31.574  44.981  10.623
55202W        W23596  38.373   7.247   1.027
55203W        W23597  26.114  10.775  11.328
55204W        W23598  41.919  26.924   2.266
55205W        W23599  23.805  33.564  11.633
55206W        W23600  34.245   1.804   4.438
55207W        W23601   2.794  19.540  11.093
55208W        W23602  29.774  36.736   0.087
55209W        W23603  17.995   7.756  13.377
55210W        W23604  25.165  19.751   2.867
55211W        W23605  11.583   9.661  14.296
55212W        W23606   4.303  34.782   1.787
55213W        W23607  19.230  43.549   4.181
55214W        W23608  11.062  31.188  12.644
55215W        W23609  41.853   4.163  13.165
55216W        W23610  26.993  40.611   3.784
55217W        W23611   6.381   2.989   1.667
55218W        W23612  44.772  10.156  11.139
55219W        W23613   8.756  11.696  12.571
55220W        W23614  42.431  23.285  13.118
55221W        W23615  29.858   8.717   1.038
55222W        W23616  30.089  30.806   4.831
55223W        W23617  43.821   9.743   4.312
55224W        W23618  43.774  17.213   0.833
55225W        W23619   5.718  11.139   2.391
55226W        W23620  43.891  10.916  12.936
55227W        W23621  40.076   6.203   3.130
55228W        W23622  16.306  23.468  13.414
55229W        W23623   0.802  23.588   0.983
55230W        W23624  19.058   5.102   2.590
55231W        W23625  15.683  27.035  10.354
55232W        W23626  17.414  34.250  10.465
55233W        W23627  18.686  14.192  12.979
55234W        W23628  16.080  35.901   1.973
55235W        W23629  22.258  10.232   0.875
55236W        W23630  40.942   8.301  12.434
55237W        W23631  33.375  10.773  13.360
55238W        W23632   3.209  42.372   1.608
55239W        W23633  25.231  12.735  11.079
55240W        W23634  10.695   0.279   2.941
55241W        W23635   9.092  28.685  12.817
55242W        W23636   1.218  14.364   0.730
55243W        W23637  44.491  22.966  13.362
55244W        W23638  42.966  12.281   0.786
55245W        W23639  42.329  24.169   1.335
55246W        W23640  18.289  41.044  13.922
55247W        W23641   4.528  25.685   0.397
55248W        W23642  33.363  14.035  14.493
55249W        W23643  26.078  20.215   4.075
55250W        W23644   3.562  10.505  10.678
55251W        W23645  36.090  35.605   4.554
55252W        W23646  43.720  25.702   1.318
55253W        W23647  21.765  30.594  10.647
55254W        W23648  29.746   5.794   4.192
55255W        W23649  31.095  14.350   3.709
55256W        W23650  42.506  22.054  11.964
55257W        W23651   2.826  36.530   1.441
55258W        W23652  25.341  15.720   9.806
55259W        W23653  18.717  42.819   1.787
55260W        W23654   3.785  38.466  13.518
55261W        W23655  20.485  10.260   0.815
55262W        W23656   6.750   4.487  13.125
55263W        W23657  24.522  15.847   4.006
55264W        W23658  37.507  29.098   4.125
55265W        W23659  15.788  16.340  11.608
55266W        W23660  17.523   8.318   3.197
55267W        W23661   5.066  40.925  13.626
55268W        W23662  16.241  20.847  14.317
55269W        W23663  33.454  23.764  14.442
55270W        W23664  35.468   1.265   0.040
55271W        W23665  37.918  36.900   0.503
55272W        W23666  42.351  21.270   3.297
55273W        W23667  35.585  28.440   2.410
55274W        W23668  20.752  30.530  13.006
55275W        W23669  38.343  20.619   2.382
55276W        W23670   4.885  36.230  14.330
55277W        W23671  37.941  33.863  14.462
55278W        W23672  12.333  24.471  12.794
55279W        W23673  10.411  35.479   0.328
55280W        W23674  19.301  23.281   4.696
55281W        W23675   0.813   5.785  12.413
55282W        W23676   0.600  25.074  11.568
55283W        W23677  21.301  42.470   4.209
55284W        W23678  11.812  44.811   3.100
55285W        W23679  41.202  21.519   2.324
55286W        W23680  15.511  37.140   1.242
55287W        W23681  22.417  44.914   3.294
55288W        W23682  34.463  25.657   4.145
55289W        W23683   4.401   2.462   2.596
55290W        W23684  42.476  19.749   0.755
55291W        W23685  10.688  24.736  13.510
55292W        W23686  22.204  41.714  13.581
55293W        W23687  30.579  12.871  14.873
55294W        W23688   6.588  21.321   1.756
55295W        W23689  35.352  27.736  11.080
55296W        W23690  28.964  15.446   2.178
55297W        W23691  21.458  22.368  12.522
55298W        W23692  22.826  11.567   3.178
55299W        W23693  26.796  27.561   0.440
55300W        W23694  10.926  17.103   3.805
55301W        W23695  32.857  23.585   5.047
55302W        W23696  19.111  34.132  11.099
55303W        W23697  29.939  10.694   3.685
55304W        W23698  43.171   1.359  10.685
55305W        W23699  44.695  25.967  14.916
55306W        W23700   4.910   8.355   4.130
55307W        W23701  26.009  44.310   0.933
55308W        W23702  34.242  35.944   2.870
55309W        W23703  17.217  19.746  11.670
55310W        W23704   8.822  33.399  11.176
55311W        W23705  13.777   9.615  13.984
55312W        W23706  35.397  44.874   0.817
55313W        W23707   5.176  25.533   1.843
55314W        W23708  38.372  21.543  13.469
55315W        W23709  37.953   3.753   4.025
55316W        W23710  30.027  25.525   4.657
55317W        W23711  21.747   4.148  12.842
55318W        W23712  24.189  24.275   3.999
55319W        W23713  42.411   7.550  11.684
55320W        W23714   4.890  23.142  10.551
55321W        W23715  30.681   4.926  11.903
55322W        W23716  12.763   0.011   1.687
55323W        W23717   0.265  17.703  12.772
55324W        W23718   5.448  14.546  12.508
55325W        W23719  29.536  19.786  10.289
55326W        W23720  21.065  12.578  14.277
55327W        W23721   0.029   4.359  14.601
55328W        W23722  12.358   4.360  12.343
55329W        W23723   3.509   4.112   3.332
55330W        W23724  15.107   9.129   1.844
55331W        W23725  34.899   9.991  12.577
55332W        W23726  31.218  20.608  10.676
55333W        W23727  34.196   3.241   0.325
55334W        W23728  31.905  42.494  13.426
55335W        W23729   8.357   4.521   0.646
55336W        W23730  31.519   6.929  14.739
55337W        W23731  10.211   5.933   2.313
55338W        W23732  16.586  12.501  10.788
55339W        W23733  43.750   5.275   2.383
55340W        W23734  15.045   9.655   0.972
55341W        W23735  23.487   9.681   4.086
55342W        W23736  33.790  29.897   1.282
55343W        W23737  42.951  30.186  10.779
55344W        W23738  14.064  43.716  12.480
55345W        W23739  37.092  40.950   0.992
55346W        W23740  39.769  39.466   9.783
55347W        W23741  39.118  16.110  14.423
55348W        W23742  42.447  24.164   0.494
55349W        W23743   7.381  20.091  13.136
55350W        W23744  37.818  16.546   4.528
55351W        W23745  24.208  15.832  13.125
55352W        W23746   3.644  22.690   4.191
55353W        W23747  42.498   1.014   3.201
55354W        W23748  35.815  41.852   4.600
55355W        W23749   3.248   9.289   3.635
55356W        W23750  35.114   6.803  12.552
55357W        W23751   7.795   9.513  11.786
55358W        W23752  30.867  11.696  14.377
55359W        W23753  33.837   7.698   1.289
55360W        W23754  43.493  23.731   0.974
55361W        W23755  15.349  28.120  14.838
55362W        W23756  25.186  12.372  12.833
55363W        W23757  41.670  30.818  12.102
55364W        W23758  43.695  23.279   3.708
55365W        W23759  40.411  26.134   0.300
55366W        W23760  27.629  37.617  12.121
55367W        W23761  17.617  32.616  11.012
55368W        W23762  26.547  26.850   1.895
55369W        W23763   1.436  24.047  13.393
55370W        W23764   3.705  32.997  12.213
55371W        W23765  44.356  38.852   0.132
55372W        W23766  24.263  35.348  11.206
55373W        W23767  41.411   6.377   1.706
55374W        W23768   6.293  24.082   4.136
55375W        W23769   6.779   8.728   1.269
55376W        W23770  29.641   9.952   1.685
55377W        W23771   2.822  10.324  10.246
55378W        W23772  34.446  12.132   3.179
55379W        W23773   7.135   7.736   0.282
55380W        W23774   3.425  29.422   3.873
55381W        W23775  42.546  13.340   0.398
55382W        W23776   8.461  39.095  12.167
55383W        W23777   7.937  37.994   4.792
55384W        W23778  37.320  32.514   4.928
55385W        W23779  20.269   7.671  13.916
55386W        W23780  37.453  34.366  10.859
55387W        W23781  37.564  34.993   2.337
55388W        W23782   4.900  43.121   3.152
55389W        W23783  40.691  11.092   2.180
55390W        W23784   9.910  38.276  14.132
55391W        W23785  28.225  15.022   1.844
55392W        W23786  14.971   1.961   4.566
55393W        W23787  35.549  31.675   3.199
55394W        W23788  32.840  39.005  10.795
55395W        W23789  33.532  22.079  14.803
55396W        W23790  26.659  40.908   2.808
55397W        W23791  22.047   2.167   0.300
55398W        W23792  24.706  19.045  13.827
55399W        W23793  15.671  38.341  14.978
55400W        W23794  21.009  36.352   2.187
55401W        W23795   0.153  15.210   1.052
55402W        W23796  37.563  32.073  10.603
55403W        W23797  18.265  42.303   2.740
55404W        W23798  26.553  41.695  14.467
55405W        W23799  30.227  42.716   0.227
55406W        W23800  31.854   5.605   4.846
55407W        W23801  38.884  44.112   4.078
55408W        W23802  12.690   9.184   4.691
55409W        W23803  15.792  18.342  12.944
55410W        W23804  10.973  35.032  12.236
55411W        W23805  26.516   1.565   1.850
55412W        W23806  39.038  31.568   3.944
55413W        W23807  42.797  44.872  12.080
55414W        W23808  26.134   5.929  11.528
55415W        W23809  26.074  14.986  13.625
55416W        W23810  39.731  29.927   2.845
55417W        W23811  18.499  19.342  10.792
55418W        W23812  15.150   6.440   0.662
55419W        W23813  12.573  16.308  11.906
55420W        W23814   0.528  41.037  12.564
55421W        W23815  36.628  23.554  14.031
55422W        W23816   0.726  31.391  10.859
55423W        W23817  13.879   7.489  12.529
55424W        W23818  11.752   4.517   3.709
55425W        W23819  30.058  24.503   2.670
55426W        W23820  27.718  30.167   3.359
55427W        W23821  39.763   3.671  13.019
55428W        W23822  25.018  41.983   1.486
55429W        W23823  43.222  13.871   2.575
55430W        W23824   8.859  19.624   4.100
55431W        W23825   4.334  34.853   4.017
55432W        W23826  26.120  40.748  11.823
55433W        W23827  16.307  37.827   0.056
55434W        W23828  12.439  29.386  12.035
55435W        W23829  17.635  39.861   2.656
55436W        W23830  24.969  24.122   4.373
55437W        W23831  12.055  15.287   2.256
55438W        W23832  44.311  24.647  14.030
55439W        W23833  36.095  40.633   3.197
55440W        W23834  44.496  20.584   0.305
55441W        W23835  16.747  29.202   0.155
55442W        W23836  44.207  16.314  12.004
55443W        W23837  34.427  33.938  14.479
55444W        W23838   6.261  27.612   2.464
55445W        W23839  43.493  19.835   4.550
55446W        W23840  34.919  44.334   5.017
55447W        W23841   0.897  21.180  13.726
55448W        W23842  14.223  38.786  14.355
55449W        W23843   7.942  24.484  14.893
55450W        W23844  13.699  31.551   1.125
55451W        W23845  38.319  26.123   2.888
55452W        W23846   0.601  41.816   3.174
55453W        W23847   3.211  42.917  13.783
55454W        W23848   2.381  26.549   1.702
55455W        W23849  21.789  21.925   2.385
55456W        W23850  14.126   3.733  11.683
55457W        W23851  42.393  36.633  11.015
55458W        W23852  23.873  37.338   1.126
55459W        W23853  42.534  26.536  14.249
55460W        W23854  37.375  33.048  12.932
55461W        W23855  32.360  16.998   1.889
55462W        W23856   2.034  30.198  13.502
55463W        W23857  16.640  15.827  10.653
55464W        W23858  20.841  23.758  14.243
55465W        W23859  42.457  33.533  13.212
55466W        W23860  41.640  39.160   4.275
55467W        W23861  35.898  34.620   3.243
55468W        W23862   2.425  18.599   2.211
55469W        W23863  26.229  36.397  14.009
55470W        W23864  21.270  30.590  12.938
55471W        W23865   6.880  28.749   1.701
55472W        W23866  21.268  16.682  13.743
55473W        W23867  19.690  27.970   0.115
55474W        W23868   5.343  25.336   3.569
55475W        W23869  12.353  39.432  11.566
55476W        W23870  39.012   9.395   4.020
55477W        W23871  19.537   1.252  13.609
55478W        W23872   7.882  39.842  14.456
55479W        W23873  43.337   3.361  12.575
55480W        W23874  14.703  11.267  11.114
55481W        W23875   9.672   1.472  11.053
55482W        W23876   9.589  43.845   0.508
55483W        W23877  10.522   0.337  13.486
55484W        W23878  42.826  24.084  10.783
55485W        W23879  20.514   7.402   0.933
55486W        W23880   2.711   7.278   2.665
55487W        W23881  28.125  13.745   1.452
55488W        W23882  15.235  21.480  12.415
55489W        W23883  17.396   6.271  12.071
55490W        W23884   5.335  23.517  12.486
55491W        W23885  26.317   7.390   5.028
55492W        W23886   1.008  13.197   4.294
55493W        W23887  40.095  32.933   4.251
55494W        W23888  43.229  28.143  11.194
55495W        W23889  38.268   6.265   2.770
55496W        W23890  36.378  17.239   1.745
55497W        W23891   6.391  22.295  12.024
55498W        W23892   9.199  26.093   5.194
55499W        W23893  28.498  34.143   3.291
55500W        W23894   1.373  30.937  13.407
55501W        W23895  27.446  16.419  14.588
55502W        W23896  10.262  23.797   1.771
55503W        W23897  36.625   2.057   0.401
55504W        W23898  43.555  24.965  11.191
55505W        W23899  18.761  11.897  14.108
55506W        W23900  16.219  11.667  12.866
55507W        W23901  20.777   6.005   1.671
55508W        W23902  19.813  23.252  11.803
55509W        W23903  16.568   1.318  13.892
55510W        W23904  23.295  40.594  14.816
55511W        W23905  40.994  23.254   0.776
55512W        W23906  30.129   8.728   2.368
55513W        W23907  42.992   6.355  10.745
55514W        W23908  16.443  28.758  13.398
55515W        W23909  17.439  42.509   3.124
55516W        W23910  15.717  41.166   3.217
55517W        W23911  27.805  40.378   4.647
55518W        W23912  31.166  17.933  12.358
55519W        W23913  25.131  16.132  11.905
55520W        W23914  29.494  42.416   4.767
55521W        W23915   7.374   0.907  11.092
55522W        W23916  11.848  35.849   0.391
55523W        W23917  14.769  29.556  11.711
55524W        W23918   4.066   4.778   3.693
55525W        W23919  11.306  26.729   3.272
55526W        W23920   4.937  25.472  11.297
55527W        W23921  21.502   3.788  14.732
55528W        W23922  19.149   2.733   4.155
55529W        W23923   9.199  35.786   4.652
55530W        W23924  10.370  29.378   4.059
55531W        W23925  18.563   3.401   2.834
55532W        W23926  19.907  36.404   4.368
55533W        W23927  43.962  44.850   1.431
55534W        W23928  40.346  43.495   2.964
55535W        W23929  21.056  13.702  12.399
55536W        W23930  33.450   1.496   3.144
55537W        W23931   9.629  12.768  12.517
55538W        W23932   3.696  34.946  13.385
55539W        W23933   2.849  22.558   3.752
55540W        W23934   7.115  41.882   4.431
55541W        W23935  13.103  24.547  12.338
55542W        W23936  26.463  19.647   4.774
55543W        W23937  26.547   0.565   9.883
55544W        W23938   9.172  23.812   0.268
55545W        W23939  18.554  19.236   4.935
55546W        W23940  32.933  44.880  10.929
55547W        W23941  37.541   1.397  12.319
55548W        W23942  24.243  28.279  13.995
55549W        W23943  43.151  35.157  11.451
55550W        W23944   6.264  42.376   1.755
55551W        W23945  42.062  27.903  12.318
55552W        W23946  40.448  27.625   0.447
55553W        W23947  44.941  12.599  13.286
55554W        W23948  38.957  34.618   3.317
55555W        W23949   7.464   6.297  12.401
55556W        W23950  23.775  13.119   4.070
55557W        W23951  18.157   0.970   2.221
55558W        W23952  34.277   5.254   2.861
55559W        W23953   8.800   5.426  10.830
55560W        W23954  39.333  43.352  10.973
55561W        W23955  34.007  16.484  11.118
55562W        W23956  34.070  27.440  14.516
55563W        W23957  13.834  31.901  10.632
55564W        W23958  25.710  40.882   4.136
55565W        W23959  44.820  37.547  14.511
55566W        W23960   7.793  35.517  11.839
55567W        W23961  40.481  30.468   3.301
55568W        W23962  19.439  26.654  14.918
55569W        W23963  17.113  37.996  14.333
55570W        W23964   1.742  18.747  11.581
55571W        W23965   6.639  23.411  10.834
55572W        W23966   1.982   4.743  11.183
55573W        W23967   8.211  10.632   4.384
55574W        W23968  23.654  42.761  12.170
55575W        W23969  19.660  40.821   5.390
55576W        W23970   4.008  21.515   2.816
55577W        W23971  39.581  24.971  12.830
55578W        W23972   2.832  34.571  14.402
55579W        W23973  26.792  38.541  14.399
55580W        W23974  10.873  29.156  12.464
55581W        W23975  36.844  22.061   2.920
55582W        W23976  34.541   9.964  14.399
55583W        W23977  42.824  22.277   0.423
55584W        W23978  22.914  36.029  13.150
55585W        W23979  42.888  29.635   3.362
55586W        W23980   7.624  17.230   0.365
55587W        W23981  23.887  19.994   1.200
55588W        W23982  31.184   1.314   2.628
55589W        W23983  43.818  31.903  14.803
55590W        W23984  35.512  41.974   0.081
55591W        W23985   4.474  39.445   1.835
55592W        W23986  42.529  34.534   3.020
55593W        W23987  44.511   2.534  14.327
55594W        W23988  24.066  21.002   4.191
55595W        W23989  14.362  27.698  13.488
55596W        W23990  12.167  14.796   3.897
55597W        W23991  44.354  34.049  10.437
55598W        W23992   3.506  33.953  12.936
55599W        W23993  10.741  43.742   0.339
55600W        W23994  38.052   1.870   2.322
55601W        W23995  28.627  22.696   3.793
55602W        W23996   3.332   5.286   2.647
55603W        W23997   0.701  42.215   4.791
55604W        W23998  17.493   7.225   4.363
55605W        W23999   0.872  11.860   1.430
55606W        W24000  16.621  17.659   0.903
55607W        W24001  16.141  31.130   1.492
55608W        W24002  15.394  12.944   4.639
55609W        W24003  40.987  30.419   1.485
55610W        W24004  41.469  31.354   0.879
55611W        W24005  38.652   1.626  13.006
55612W        W24006  38.070  15.991  12.530
55613W        W24007  22.594  26.122  10.119
55614W        W24008  36.998   6.622   4.952
55615W        W24009  19.086   3.718   0.312
55616W        W24010   5.285  29.169   0.897
55617W        W24011   2.609  29.669   2.206
55618W        W24012   9.913   9.441   0.551
55619W        W24013  23.006  32.452   3.258
55620W        W24014  12.848   4.447  13.425
55621W        W24015   9.379  19.270  10.724
55622W        W24016  32.310   3.735  10.739
55623W        W24017  26.300  10.659  13.039
55624W        W24018  18.165   5.990   1.702
55625W        W24019  29.143  44.277  10.938
55626W        W24020  44.228   1.265   4.914
55627W        W24021  12.468   9.799  10.617
55628W        W24022  32.954  18.607  11.556
55629W        W24023  21.258  24.456   4.218
55630W        W24024  26.510  43.118   1.184
55631W        W24025   0.064  38.915   1.928
55632W        W24026  12.102  44.394  12.535
55633W        W24027  20.653   5.800   3.092
55634W        W24028  26.933   2.803  12.141
55635W        W24029  37.222  32.120  11.007
55636W        W24030   9.815  30.141  13.967
55637W        W24031  10.382  44.463   1.659
55638W        W24032   9.741   6.387   1.780
55639W        W24033   6.154  23.582   4.933
55640W        W24034   0.233  37.077   9.828
55641W        W24035   2.874  10.591   1.763
55642W        W24036  24.636  38.695  12.965
55643W        W24037  23.503  38.019   3.436
55644W        W24038   5.392  35.801  12.393
55645W        W24039  15.845  37.864  14.234
55646W        W24040  13.969  40.191   2.772
55647W        W24041  18.552  44.974  12.972
55648W        W24042  19.218  37.211  12.048
55649W        W24043   8.550  21.123  11.165
55650W        W24044   0.770  38.008  11.303
55651W        W24045  24.606  38.010   4.602
55652W        W24046  40.267  21.946  11.595
55653W        W24047   5.304  12.547  14.916
55654W        W24048  17.594  11.537   4.861
55655W        W24049  26.507  11.128  13.020
55656W        W24050   8.121   3.046  13.100
55657W        W24051  13.406  43.946   1.285
55658W        W24052  43.302  14.275   4.769
55659W        W24053  40.037  10.572  11.570
55660W        W24054   9.710  15.318  11.114
55661W        W24055   6.690   8.201   2.442
55662W        W24056  32.740  27.159   3.306
55663W        W24057  36.926   9.863  11.677
55664W        W24058  38.432  44.195  11.485
55665W        W24059  18.725   0.206   0.446
55666W        W24060  37.755  23.700  12.794
55667W        W24061  18.024  15.211   0.740
55668W        W24062  30.032  44.206  11.617
55669W        W24063  41.507  33.144  11.568
55670W        W24064   3.809  34.995   3.786
55671W        W24065  23.072  41.949   3.106
55672W        W24066  10.048   3.489   5.262
55673W        W24067  29.784  14.770   4.558
55674W        W24068   9.341  36.445   3.255
55675W        W24069  36.856  43.786   1.739
55676W        W24070  25.464  28.984  11.673
55677W        W24071  39.298   6.880   2.253
55678W        W24072   6.658  27.412   0.763
55679W        W24073  38.059  18.599   3.754
55680W        W24074  14.239  39.490  11.964
55681W        W24075   6.184   2.269  10.687
55682W        W24076   5.648   9.524  13.372
55683W        W24077  29.861   7.326  11.252
55684W        W24078   7.038   9.654  11.165
55685W        W24079  41.738  38.783   3.472
55686W        W24080  12.489   3.484  11.708
55687W        W24081  33.914  43.909  14.101
55688W        W24082  44.609   8.306   1.671
55689W        W24083  21.995  16.407  11.441
55690W        W24084   2.436  33.011  12.050
55691W        W24085  42.978  10.471   1.664
55692W        W24086  31.216  17.480   0.293
55693W        W24087  28.616  12.945  10.985
55694W        W24088   2.450  21.243  12.174
55695W        W24089   4.779  27.459   0.701
55696W        W24090  12.786  33.445  14.309
55697W        W24091  28.014  44.765   1.540
55698W        W24092  16.387  21.808  14.507
55699W        W24093   2.942  40.550  13.000
55700W        W24094  33.177  37.556  14.238
55701W        W24095  22.502  27.639   2.338
55702W        W24096   9.110  20.612  11.446
55703W        W24097   1.544   9.098  14.138
55704W        W24098   8.372  19.057  14.323
55705W        W24099  38.049  11.757  11.564
55706W        W24100  29.754  30.162  13.003
55707W        W24101   0.308  43.062  13.088
55708W        W24102  32.461  31.128   3.036
55709W        W24103  15.597  18.517   0.734
55710W        W24104  10.243  17.228  11.102
55711W        W24105  41.275  22.426  10.865
55712W        W24106  29.863  39.296   3.256
55713W        W24107  23.256  42.853   2.725
55714W        W24108  10.354  24.306  13.018
55715W        W24109   1.807   6.168   1.495
55716W        W24110  31.116   5.713   4.127
55717W        W24111  41.048  29.346  13.012
55718W        W24112  12.288   8.408   0.938
55719W        W24113   1.834  32.190   1.531
55720W        W24114  10.728  38.287  12.883
55721W        W24115   0.670  32.953  13.136
55722W        W24116   2.001  20.955  12.183
55723W        W24117  41.112  15.663  13.835
55724W        W24118  16.746   4.382  11.111
55725W        W24119   7.325   1.759   1.616
55726W        W24120  26.649   2.850  10.821
55727W        W24121   8.409   3.366  10.053
55728W        W24122  26.706  23.473   4.095
55729W        W24123   4.197  21.918  12.546
55730W        W24124  24.333   2.363   2.954
55731W        W24125   8.370  19.242  11.401
55732W        W24126   8.862  16.663  10.855
55733W        W24127  22.272   2.787  14.453
55734W        W24128   0.725  28.504   3.771
55735W        W24129   5.345  37.695   2.047
55736W        W24130  36.500  17.638  11.786
55737W        W24131   5.641  10.344  11.917
55738W        W24132  44.271  22.629   2.376
55739W        W24133  30.100  34.650   3.233
55740W        W24134  39.784  26.466  10.668
55741W        W24135  41.563  13.055  11.656
55742W        W24136  14.809  16.309   1.897
55743W        W24137  21.772  17.760  10.719
55744W        W24138  11.352  13.527   4.689
55745W        W24139  12.161  44.824  12.816
55746W        W24140   2.615  44.020   2.818
55747W        W24141  11.091  33.492  14.394
55748W        W24142  14.285  14.159   1.342
55749W        W24143  25.658  44.484   3.365
55750W        W24144  23.152   0.661  14.968
55751W        W24145  33.984  17.815   4.136
55752W        W24146  30.482  13.030   4.166
55753W        W24147   4.465  30.975  12.813
55754W        W24148   8.764   0.512   2.185
55755W        W24149  20.090  19.504  12.088
55756W        W24150  23.579  22.065  13.162
55757W        W24151  34.396  17.219  13.967
55758W        W24152  16.266   3.018  13.894
55759W        W24153  38.398   4.423   1.057
55760W        W24154  39.047  11.604  13.437
55761W        W24155  29.964  37.779   1.844
55762W        W24156  20.229   1.422  10.434
55763W        W24157  11.050  20.994  12.914
55764W        W24158  18.065   7.159  14.080
55765W        W24159   1.001  43.717  11.083
55766W        W24160  27.458   0.490  13.469
55767W        W24161  41.350   9.930  12.904
55768W        W24162  26.354  38.999  11.234
55769W        W24163  38.928  42.056  12.864
55770W        W24164  24.852   2.376   2.820
55771W        W24165   6.757  44.654  14.296
55772W        W24166  33.034  43.192  14.250
55773W        W24167  12.258   7.415  11.856
55774W        W24168   9.785  34.325   1.655
55775W        W24169  16.888  31.113  11.917
55776W        W24170  37.884  20.954  14.414
55777W        W24171   3.726  13.114  11.511
55778W        W24172  10.257   0.322  13.937
55779W        W24173   0.348  10.688   0.953
55780W        W24174  15.842  24.833   3.712
55781W        W24175   6.677  32.574  14.254
55782W        W24176  33.827  38.785  10.783
55783W        W24177  21.122  43.781   0.227
55784W        W24178  16.474   7.869  10.460
55785W        W24179   4.901  28.858   1.070
55786W        W24180   3.442   0.520   3.627
55787W        W24181   1.840  15.420   1.623
55788W        W24182  32.991   6.427  13.935
55789W        W24183  17.330   0.974  12.017
55790W        W24184  16.058  43.796   0.249
55791W        W24185  13.447  43.773   3.041
55792W        W24186   0.190  22.123   2.491
55793W        W24187  29.970  42.959   3.235
55794W        W24188  29.994  25.053  14.569
55795W        W24189  44.700  30.060   0.329
55796W        W24190  14.358  32.858  12.533
55797W        W24191   9.749   9.195   2.764
55798W        W24192  28.875  35.045   0.869
55799W        W24193  16.797  15.778   2.157
55800W        W24194  24.586  16.064  11.208
55801W        W24195  41.015  25.494   0.463
55802W        W24196  13.867  11.107  10.516
55803W        W24197  41.402  35.466  10.526
55804W        W24198  41.010   5.294   0.457
55805W        W24199  38.461  24.492  11.072
55806W        W24200   5.370  29.439  14.462
55807W        W24201  18.871  25.325   1.067
55808W        W24202  37.356   5.762   4.171
55809W        W24203  20.056  42.202  11.622
55810W        W24204  33.383  30.753  14.487
55811W        W24205  39.290   2.835  12.647
55812W        W24206  29.330  12.675   4.938
55813W        W24207  28.060  30.463   0.982
55814W        W24208   5.501   5.438  14.942
55815W        W24209  41.203  35.952  12.104
55816W        W24210  24.272   3.015   2.352
55817W        W24211  30.517  18.267  11.637
55818W        W24212  22.168  17.370   4.032
55819W        W24213  22.514  32.347   3.156
55820W        W24214   9.736  40.838   1.364
55821W        W24215  20.068  16.523   1.712
55822W        W24216  40.350   0.538  14.438
55823W        W24217  41.295  19.646  13.057
55824W        W24218  42.623   6.267   2.314
55825W        W24219  28.163   2.546   4.165
55826W        W24220  30.961  43.822   3.131
55827W        W24221  32.628  41.313  12.107
55828W        W24222  21.999  13.386   3.232
55829W        W24223  25.706  36.068  11.983
55830W        W24224   8.421  23.771   4.867
55831W        W24225  41.376  33.729   2.677
55832W        W24226  34.029   2.543  14.582
55833W        W24227   4.977  36.810  10.986
55834W        W24228  42.548  23.687   1.421
55835W        W24229   3.499  21.595   2.866
55836W        W24230  16.820  42.414  11.457
55837W        W24231  40.032  38.308   1.734
55838W        W24232  31.486  13.271  11.987
55839W        W24233  41.637  42.927  13.466
55840W        W24234  22.265  15.873   4.638
55841W        W24235  16.088  39.966   0.432
55842W        W24236   7.252  10.845   2.434
55843W        W24237  11.343  35.701  12.704
55844W        W24238  16.153  30.821   3.269
55845W        W24239   3.147   1.023   3.746
55846W        W24240  13.137   4.571   9.902
55847W        W24241  25.900  35.935  13.973
55848W        W24242  34.965   0.105   1.727
55849W        W24243   4.669   4.017   4.045
55850W        W24244  43.198  23.996  13.992
55851W        W24245  11.410  39.284  10.994
55852W        W24246  40.064  27.498  11.580
55853W        W24247   8.235  32.081   4.165
55854W        W24248  28.756  25.558   0.119
55855W        W24249   7.306  14.057  12.950
55856W        W24250   9.669  43.924  11.931
55857W        W24251  33.398   3.325  13.589
55858W        W24252   1.264  35.175   4.085
55859W        W24253  22.701  44.347   4.991
55860W        W24254  27.921  19.213   3.760
55861W        W24255   1.324  29.418   0.811
55862W        W24256  28.070   6.475  13.947
55863W        W24257   1.458  10.850  14.441
55864W        W24258  34.998  26.980   2.243
55865W        W24259  44.583  30.009   0.861
55866W        W24260  44.940  38.543   4.789
55867W        W24261  39.330   0.761   0.440
55868W        W24262  23.506   4.680   2.761
55869W        W24263  30.366  23.016   2.796
55870W        W24264  26.440  43.461  10.720
55871W        W24265   1.146  33.066   3.050
55872W        W24266  44.186  39.010  12.465
55873W        W24267  27.683   1.986  10.723
55874W        W24268   1.962  38.339  13.965
55875W        W24269   8.253  36.431  14.886
55876W        W24270  16.830  14.823  14.768
55877W        W24271  15.880  26.669   1.964
55878W        W24272   9.789  26.257  13.779
55879W        W24273  10.574  40.816  14.954
55880W        W24274  31.109  18.451   1.386
55881W        W24275  14.148  24.341  11.538
55882W        W24276  21.234  33.315  10.673
55883W        W24277   2.939   4.209  10.930
55884W        W24278  20.065  20.449   1.135
55885W        W24279   2.830  43.975  14.312
55886W        W24280  28.943  35.973  13.356
55887W        W24281   5.193  41.946   1.124
55888W        W24282  25.831   3.476  13.176
55889W        W24283  43.547  35.697   1.883
55890W        W24284   2.219  26.365   5.039
55891W        W24285   4.998   5.046  11.555
55892W        W24286  27.512  26.462  12.035
55893W        W24287  16.628  13.124  13.943
55894W        W24288  29.965  24.109  10.825
55895W        W24289  30.263   2.568  12.590
55896W        W24290   3.942   2.972   4.569
55897W        W24291  38.357  35.828  14.525
55898W        W24292   3.408   7.483  13.291
55899W        W24293  20.246  33.631   3.658
55900W        W24294  35.525  11.861  11.477
55901W        W24295  43.777  39.083   1.957
55902W        W24296   9.281  13.967  11.617
55903W        W24297   8.762   9.320   0.713
55904W        W24298  27.788  12.720   4.790
55905W        W24299  13.630  13.369  14.006
55906W        W24300   0.485  20.447  13.500
55907W        W24301  17.337  30.213   1.876
55908W        W24302  29.117  15.845  11.625
55909W        W24303  36.563  19.315   4.253
55910W        W24304  14.244   2.810  14.871
55911W        W24305  25.049  21.748  14.717
55912W        W24306  38.741  31.024  11.169
55913W        W24307  11.438  17.118  12.497
55914W        W24308  35.344  22.675  13.342
55915W        W24309  40.541   5.631  13.387
55916W        W24310  37.849   2.439  11.002
55917W        W24311   8.798  19.430   4.576
55918W        W24312   6.213  14.440   0.268
55919W        W24313  37.009  12.544  13.922
55920W        W24314  36.559  25.648  14.837
55921W        W24315   6.212   8.598  14.238
55922W        W24316  34.986  43.305  10.397
55923W        W24317   9.580  14.624   3.924
55924W        W24318   9.066  15.757  13.096
55925W        W24319  27.074  16.411  13.343
55926W        W24320  33.377  29.085   4.268
55927W        W24321  31.697   4.692   2.023
55928W        W24322  39.985   6.241  12.950
55929W        W24323  21.811  26.038  12.171
55930W        W24324  24.068  43.214  11.556
55931W        W24325   4.194  13.839   0.854
55932W        W24326  25.185   7.863   3.539
55933W        W24327  20.004  15.145  13.908
55934W        W24328  31.650  16.792  10.649
55935W        W24329  17.560  38.883  14.349
55936W        W24330  20.614  16.748   2.290
55937W        W24331  28.544  37.559  11.202
55938W        W24332  32.795   5.573   2.710
55939W        W24333  21.513  42.959   1.406
55940W        W24334   8.081  37.635  12.033
55941W        W24335  42.147   5.287  13.879
55942W        W24336  35.561   0.474   4.541
55943W        W24337  33.503  27.672  12.381
55944W        W24338  19.730  21.778  14.509
55945W        W24339   8.896  24.810   2.146
55946W        W24340  35.395   3.343  14.491
55947W        W24341  42.762   1.963  11.391
55948W        W24342  15.639  21.178  13.897
55949W        W24343  43.149  44.912  14.222
55950W        W24344  38.123  13.443  10.470
55951W        W24345  18.592  23.345   2.893
55952W        W24346  19.935  10.868  13.033
55953W        W24347  18.149  32.568   4.603
55954W        W24348  14.165  19.041   3.012
55955W        W24349   4.783  11.683   0.345
55956W        W24350  27.240  37.536  10.711
55957W        W24351   4.905  12.325   0.207
55958W        W24352  32.176  34.870  14.498
55959W        W24353   1.934   8.757   3.334
55960W        W24354  18.905  44.516  12.634
55961W        W24355  27.179  36.964  13.346
55962W        W24356  42.878  18.637   2.305
55963W        W24357   1.321  18.257  14.187
55964W        W24358  43.932  21.567   0.500
55965W        W24359  34.666  24.730   3.854
55966W        W24360  24.696  30.053  13.597
55967W        W24361  38.772  18.601  13.543
55968W        W24362  10.942   8.588   3.313
55969W        W24363  44.433   1.958   3.524
55970W        W24364  17.586  11.083   3.266
55971W        W24365  44.691   2.516   1.817
55972W        W24366   5.167  17.305  10.718
55973W        W24367  42.184  38.072  14.094
55974W        W24368   4.400   5.517   2.416
55975W        W24369  44.271  30.277  13.321
55976W        W24370  27.289   9.473   1.448
55977W        W24371   1.820  20.296   1.739
55978W        W24372  27.059  37.881   2.209
55979W        W24373  18.202  26.199  11.045
55980W        W24374  29.471  34.799  11.730
55981W        W24375   0.012   3.874   3.716
55982W        W24376  26.902  23.884  13.416
55983W        W24377   0.430   3.446  11.519
55984W        W24378  32.122  42.777   0.864
55985W        W24379  30.593  14.291  12.954
55986W        W24380   7.884   6.488   2.760
55987W        W24381  38.016  15.189   4.524
55988W        W24382  11.441   1.895   4.716
55989W        W24383  29.425  10.280   0.358
55990W        W24384  22.771  23.178   1.667
55991W        W24385  17.569  18.839  14.193
55992W        W24386   9.312  37.672   4.620
55993W        W24387  39.991  19.579   5.078
55994W        W24388   0.964  22.857  12.385
55995W        W24389  43.067  32.941   2.293
55996W        W24390  44.618  21.193   2.265
55997W        W24391  11.237   0.416   4.713
55998W        W24392   0.598   4.859  13.254
55999W        W24393  30.114   2.913  14.798
56000W        W24394  17.027   4.855   3.306
56001W        W24395  24.405  10.649  12.473
56002W        W24396  28.955   7.434   2.691
56003W        W24397  41.546  28.643   2.653
56004W        W24398  33.880  28.994  11.904
56005W        W24399  12.857  36.634   1.645
56006W        W24400  18.606   3.390  10.696
56007W        W24401  10.864  15.989   4.204
56008W        W24402  17.675  35.387   4.683
56009W        W24403   2.388  23.682   4.295
56010W        W24404  39.887   9.401  14.849
56011W        W24405   9.886  31.648   0.821
56012W        W24406  18.319  28.988   2.763
56013W        W24407  25.227  44.576   1.137
56014W        W24408  26.449  28.386  12.601
56015W        W24409   2.458  38.650  12.771
56016W        W24410  42.050  38.745   4.893
56017W        W24411  17.624  30.686   1.359
56018W        W24412  10.631  22.035  12.770
56019W        W24413  30.280  31.982  14.813
56020W        W24414  37.869  29.541   1.695
56021W        W24415  37.846  36.839   2.705
56022W        W24416  11.812   6.734   3.762
56023W        W24417  28.708  14.232   0.778
56024W        W24418  30.186  29.505  11.395
56025W        W24419  10.321  42.514  14.406
56026W        W24420  23.317  24.594  11.634
56027W        W24421   5.482  27.942  12.347
56028W        W24422  11.117  30.243  12.436
56029W        W24423  15.246  27.730   2.742
56030W        W24424  31.662   2.217   4.127
56031W        W24425  37.088  11.530   3.735
56032W        W24426   7.171  27.384  14.784
56033W        W24427  37.649  38.472   1.210
56034W        W24428  39.452  29.506   1.854
56035W        W24429  43.729  23.810  14.811
56036W        W24430  15.181   7.010  13.010
56037W        W24431  32.178  18.918  13.928
56038W        W24432  23.097  26.962  14.564
56039W        W24433  22.829   5.384  11.679
56040W        W24434  32.051  14.216   2.383
56041W        W24435  10.156   7.878   2.158
56042W        W24436  11.646   8.282  14.868
56043W        W24437   6.421  14.912  12.050
56044W        W24438  22.207  15.355   4.865
56045W        W24439  25.442  26.992   3.814
56046W        W24440  23.036  38.713  14.596
56047W        W24441  21.043   2.988  11.294
56048W        W24442   9.168  11.686  14.884
56049W        W24443  43.983  30.028  10.745
56050W        W24444  10.035  14.680  10.669
56051W        W24445  18.773  37.991  11.140
56052W        W24446  32.836   1.753  12.122
56053W        W24447  33.340  42.438  13.336
56054W        W24448  32.439  21.179   3.343
56055W        W24449   1.248  41.009   3.027
56056W        W24450  27.232   1.716   4.549
56057W        W24451   4.406  19.732   4.214
56058W        W24452   0.977  34.615  10.512
56059W        W24453   9.837  22.196  14.066
56060W        W24454  44.755   4.175   4.072
56061W        W24455  15.172  22.995   0.271
56062W        W24456  40.779  18.135   0.427
56063W        W24457  23.278  14.331   1.382
56064W        W24458  44.024  42.497   3.255
56065W        W24459  37.864   2.954  11.045
56066W        W24460  21.196  20.722   4.325
56067W        W24461   5.240  29.676   0.911
56068W        W24462   3.000  16.699   4.596
56069W        W24463  40.359  11.184   0.868
56070W        W24464   9.918  27.318  14.257
56071W        W24465  17.395  26.254   0.298
56072W        W24466   4.918   1.409   4.844
56073W        W24467   0.397   5.894   3.430
56074W        W24468   8.475   0.244  10.620
56075W        W24469  17.196  37.961   2.419
56076W        W24470   8.824  36.448  14.945
56077W        W24471  16.849   8.747  13.618
56078W        W24472  26.272  18.091  11.622
56079W        W24473  18.247  33.859  12.596
56080W        W24474  15.922   0.486   1.850
56081W        W24475  40.491  32.895   1.881
56082W        W24476  25.264  15.189  13.402
56083W        W24477  20.071  29.694   9.871
56084W        W24478  11.748  30.149  12.888
56085W        W24479   5.449  36.838  11.167
56086W        W24480   4.939  17.716  12.059
56087W        W24481  14.833  24.045   1.595
56088W        W24482  34.665  12.858   0.558
56089W        W24483   2.524  32.977   2.032
56090W        W24484  42.059   1.598   3.652
56091W        W24485  44.699  27.638   4.489
56092W        W24486  44.193  41.316   3.855
56093W        W24487  39.887  31.454   3.648
56094W        W24488   0.363   9.687   2.476
56095W        W24489  13.244   3.513   0.365
56096W        W24490  38.282  20.171  11.400
56097W        W24491  44.794  44.820  12.605
56098W        W24492  20.559   2.381   0.535
56099W        W24493  43.849  20.479  13.828
56100W        W24494  16.233   6.974   1.304
56101W        W24495  43.835  27.628   4.892
56102W        W24496  38.910   6.034  13.555
56103W        W24497  16.598  41.082   4.996
56104W        W24498  36.061  16.690   4.217
56105W        W24499  10.246  20.833  10.010
56106W        W24500  41.442  37.948  14.292
56107W        W24501  15.155  11.084  14.336
56108W        W24502  18.194  42.543  10.214
56109W        W24503  43.845  36.782  14.418
56110W        W24504   6.807  27.205   3.664
56111W        W24505  42.471  27.345  10.903
56112W        W24506  22.076  27.181   3.372
56113W        W24507   5.232   2.797   2.622
56114W        W24508  27.382  42.858  11.214
56115W        W24509   0.453  11.152  11.969
56116W        W24510  42.449  43.568   4.341
56117W        W24511  21.170  27.631   4.299
56118W        W24512  11.160  44.711   0.426
56119W        W24513  30.644  20.286   0.559
56120W        W24514  21.258  37.872   3.772
56121W        W24515  22.662  44.258  10.901
56122W        W24516  38.784  14.848  13.830
56123W        W24517  30.880  31.560  12.662
56124W        W24518  10.173  10.186  14.962
56125W        W24519  24.753  36.463   1.385
56126W        W24520   0.004  27.013  14.784
56127W        W24521   9.419   2.194   1.727
56128W        W24522  41.705  37.167  10.847
56129W        W24523  14.881   5.194   3.146
56130W        W24524   3.888  38.487   4.515
56131W        W24525   5.419  25.136  12.047
56132W        W24526  34.534  16.972   0.280
56133W        W24527  43.648   1.974   4.689
56134W        W24528   4.415  13.209   1.686
56135W        W24529  31.414   6.334   4.507
56136W        W24530  42.251  31.955  13.511
56137W        W24531   6.192  44.931   3.177
56138W        W24532  29.014   6.946   2.827
56139W        W24533   9.164  18.801  10.724
56140W        W24534   6.637  39.409  11.066
56141W        W24535  20.737   2.187  13.590
56142W        W24536   6.168   6.492  10.459
56143W        W24537  15.638   7.756  14.715
56144W        W24538  12.245  27.277   4.611
56145W        W24539  12.873   5.622  12.698
56146W        W24540   7.020  32.134   1.484
56147W        W24541  27.093   4.877   2.039
56148W        W24542  23.528  12.678  12.174
56149W        W24543  38.369  42.930  14.416
56150W        W24544  31.485   4.852   1.203
56151W        W24545  25.128  34.080  12.600
56152W        W24546  13.914  35.195   0.363
56153W        W24547  25.056  29.213   2.152
56154W        W24548  17.168  18.644  12.899
56155W        W24549  42.421   0.479  14.550
56156W        W24550  27.873  36.865   0.004
56157W        W24551  34.276   7.424   0.823
56158W        W24552   3.189   8.668  10.719
56159W        W24553  12.163  12.312  12.463
56160W        W24554  10.614  22.518   1.775
56161W        W24555  23.055  24.675  14.628
56162W        W24556   9.376  22.773  10.316
56163W        W24557   0.668  10.608  13.746
56164W        W24558   0.383   0.841   4.685
56165W        W24559   1.570  16.718  14.252
56166W        W24560  40.870   2.660  11.262
56167W        W24561  43.826  30.987   1.097
56168W        W24562  29.781  39.772  10.720
56169W        W24563  35.885  40.025  12.160
56170W        W24564  42.618  30.643   3.304
56171W        W24565  19.253  13.904   2.199
56172W        W24566  16.688   1.772   1.695
56173W        W24567  27.514  24.043  11.500
56174W        W24568  36.456  16.131   3.267
56175W        W24569  25.709  31.520  12.490
56176W        W24570  26.290  31.130  13.315
56177W        W24571   4.685  14.992   3.687
56178W        W24572  29.551  19.372   4.296
56179W        W24573   6.198  30.413  13.414
56180W        W24574   7.851   5.179   2.361
56181W        W24575  20.809  24.724  10.944
56182W        W24576  25.666  14.087  12.987
56183W        W24577  38.992  36.261  10.967
56184W        W24578  40.129   6.906  12.375
56185W        W24579   0.445  36.116  12.404
56186W        W24580   1.202  34.739  12.557
56187W        W24581   3.473  24.712  14.893
56188W        W24582  15.562   0.090   0.399
56189W        W24583  13.353  21.375  12.030
56190W        W24584  18.712   4.259   4.132
56191W        W24585  29.027  16.486   0.282
56192W        W24586  16.342  19.628   0.886
56193W        W24587  36.862  41.113   2.484
56194W        W24588  18.457  17.517  10.759
56195W        W24589   1.732  27.661  11.911
56196W        W24590  32.936  31.938   0.572
56197W        W24591  29.531  41.807  12.933
56198W        W24592  23.639  36.725   3.796
56199W        W24593   3.336   8.809   0.046
56200W        W24594  38.879   6.390   3.946
56201W        W24595   9.071  23.205   4.165
56202W        W24596  32.127  41.566   5.041
56203W        W24597  19.036  24.829   0.794
56204W        W24598  25.223   6.980  11.154
56205W        W24599  20.562  12.844  13.418
56206W        W24600  35.346   6.187   2.884
56207W        W24601  16.763  17.282  13.823
56208W        W24602  33.046   7.398  10.454
56209W        W24603  23.107  37.794   0.990
56210W        W24604  34.885  33.931   2.910
56211W        W24605  13.110  18.578  12.215
56212W        W24606  17.682  30.934   4.525
56213W        W24607  19.122  25.680   3.669
56214W        W24608   5.337   8.890  13.718
56215W        W24609  41.840  31.724  13.325
56216W        W24610  17.198  44.888   4.888
56217W        W24611  34.772   0.217  11.369
56218W        W24612  28.520   6.974   2.644
56219W        W24613  41.969   5.167   0.453
56220W        W24614  43.488   2.468  13.577
56221W        W24615  30.184  28.026  12.268
56222W        W24616   7.890  12.883   1.411
56223W        W24617  44.853  30.641   1.913
56224W        W24618  34.176   9.612   4.077
56225W        W24619  11.106  25.206  14.978
56226W        W24620   1.409   9.393  12.637
56227W        W24621  14.056  14.202  11.122
56228W        W24622   3.877   4.129  10.523
56229W        W24623   3.956  17.323  13.589
56230W        W24624   4.799  32.511   3.829
56231W        W24625  13.965   7.924   4.851
56232W        W24626   0.429  38.073   0.813
56233W        W24627   5.431   3.728   3.570
56234W        W24628  39.266  41.942  11.667
56235W        W24629  13.294  17.861   2.805
56236W        W24630  43.350  44.260   3.343
56237W        W24631  29.076   3.104   0.546
56238W        W24632  24.143  32.437  13.558
56239W        W24633  12.042  38.020  11.508
56240W        W24634  42.929   7.110   3.065
56241W        W24635  23.075  35.616  11.802
56242W        W24636  12.354  15.233   3.627
56243W        W24637   9.274  41.523   1.013
56244W        W24638  21.920  43.216   1.223
56245W        W24639  36.382  35.040  11.610
56246W        W24640  24.095  13.751  14.676
56247W        W24641  31.538   3.376  10.437
56248W        W24642  40.095   0.494  14.885
56249W        W24643  18.760   4.154   4.643
56250W        W24644  33.921   9.823   4.496
56251W        W24645  33.477  36.544   3.007
56252W        W24646  29.516  36.009  10.452
56253W        W24647  37.864  24.669  12.181
56254W        W24648  30.370  33.294   4.969
56255W        W24649  31.638  12.638   2.966
56256W        W24650  18.718  21.539   1.872
56257W        W24651  26.053  29.927  11.084
56258W        W24652  40.768  16.873   2.672
56259W        W24653  24.231  22.265   2.643
56260W        W24654  30.075  40.114  14.908
56261W        W24655  14.323  11.973  11.614
56262W        W24656  12.874   1.383   3.275
56263W        W24657  26.202   2.255  12.922
56264W        W24658  21.200  12.243   0.860
56265W        W24659   0.554  12.225  10.521
56266W        W24660   0.333  34.653   1.703
56267W        W24661  36.237   3.150   5.144
56268W        W24662   5.353  22.033  14.375
56269W        W24663   0.050  44.325   3.900
56270W        W24664  29.630  25.437   0.032
56271W        W24665  10.320  36.594  12.962
56272W        W24666  15.617  24.002   3.353
56273W        W24667  20.722  34.920   3.324
56274W        W24668  19.671   5.869  10.794
56275W        W24669  43.661  16.307   1.489
56276W        W24670   9.169  17.149  14.453
56277W        W24671  15.113   3.255  10.223
56278W        W24672  20.834  44.900  12.599
56279W        W24673  16.302  10.026   0.454
56280W        W24674  41.918   8.460   4.116
56281W        W24675  39.687   3.293   3.865
56282W        W24676  24.314  17.644  13.056
56283W        W24677  10.459  18.600  11.053
56284W        W24678  22.555  43.305   3.995
56285W        W24679   7.855  31.908  12.442
56286W        W24680  20.639  16.686   4.631
56287W        W24681  13.815  10.618   0.866
56288W        W24682  26.116  32.009  11.844
56289W        W24683  15.947  36.428  12.732
56290W        W24684   6.335  28.084  10.209
56291W        W24685  13.117  40.680   2.202
56292W        W24686   6.899  37.973  12.564
56293W        W24687  43.623  30.412   4.141
56294W        W24688  34.060  16.829  10.724
56295W        W24689   7.618  14.176   2.271
56296W        W24690  26.958   7.379   1.333
56297W        W24691  18.020   1.585   4.148
56298W        W24692  14.588   0.463  12.385
56299W        W24693  41.281   5.719   0.303
56300W        W24694  32.439  21.224  12.092
56301W        W24695  33.511  39.815  13.537
56302W        W24696  41.834  29.151  13.437
56303W        W24697  43.240   9.223  14.996
56304W        W24698  11.315  10.609  13.100
56305W        W24699  13.295  19.809  12.325
56306W        W24700  11.463   0.976  10.176
56307W        W24701  23.701  40.056  14.479
56308W        W24702   9.436  34.848   4.669
56309W        W24703  20.196   7.694  11.648
56310W        W24704  17.813   8.041  12.098
56311W        W24705  27.500  10.916   1.022
56312W        W24706  34.143  20.171   2.301
56313W        W24707  31.014  20.322  13.948
56314W        W24708  10.670   5.826   2.127
56315W        W24709  38.084   3.690  11.595
56316W        W24710  11.209  32.902   1.196
56317W        W24711   7.879  37.497  13.457
56318W        W24712   4.697  39.603  13.029
56319W        W24713  13.205  39.043  14.262
56320W        W24714   2.897  31.749   4.935
56321W        W24715  39.198  20.029   2.540
56322W        W24716  26.093  19.770   3.114
56323W        W24717  14.657   5.991  13.634
56324W        W24718  16.910  11.625   0.713
56325W        W24719  19.530  14.648  11.405
56326W        W24720  19.296  31.023   4.676
56327W        W24721   0.509  26.500   1.383
56328W        W24722   6.793  30.523  12.604
56329W        W24723   4.225  18.344   0.307
56330W        W24724  32.122  18.763   2.384
56331W        W24725  39.140  38.155   0.339
56332W        W24726  44.511  43.019  11.038
56333W        W24727  30.514  33.883   0.043
56334W        W24728  21.960   0.229  12.469
56335W        W24729  41.961  36.622   2.214
56336W        W24730  15.332  13.115   2.250
56337W        W24731  15.158  27.692   3.260
56338W        W24732  35.671   9.877  11.613
56339W        W24733  29.487  31.702  12.820
56340W        W24734  43.329   6.763  12.715
56341W        W24735   8.769  22.657   4.509
56342W        W24736  14.104  15.701   1.783
56343W        W24737  21.148  10.731   4.716
56344W        W24738  20.982  12.970  10.770
56345W        W24739  33.977  31.176   4.027
56346W        W24740  40.290  40.297  13.053
56347W        W24741  40.009   6.338  13.914
56348W        W24742  36.630  43.492   0.025
56349W        W24743  10.629  33.401   2.213
56350W        W24744  31.891   4.165   3.401
56351W        W24745  44.060  30.351  13.799
56352W        W24746  25.260  17.760  11.083
56353W        W24747  18.808  17.116  12.147
56354W        W24748  42.102  40.013  13.241
56355W        W24749  27.101  23.663   2.378
56356W        W24750  29.420  24.725   4.614
56357W        W24751   7.222   0.916   4.690
56358W        W24752  23.379  34.026   2.574
56359W        W24753  33.400  25.532   2.672
56360W        W24754  20.994  17.177   3.233
56361W        W24755   4.291  23.359   2.745
56362W        W24756  30.317  44.846   2.682
56363W        W24757  20.038  40.333   0.833
56364W        W24758  40.963  32.408  13.052
56365W        W24759  13.998  42.529  11.940
56366W        W24760   8.483   7.017  13.081
56367W        W24761  25.336  36.016  11.139
56368W        W24762  30.554  13.763   1.179
56369W        W24763  13.871  19.690  11.520
56370W        W24764  44.019   9.597  14.919
56371W        W24765  38.831   2.836  13.505
56372W        W24766  16.043  30.010   0.795
56373W        W24767  28.375  21.713  14.490
56374W        W24768   7.908  42.970   3.083
56375W        W24769  42.343   3.819   0.725
56376W        W24770  44.877  35.457  14.035
56377W        W24771  33.594  36.434   4.244
56378W        W24772  10.312  24.319  11.654
56379W        W24773   2.494   1.463   1.493
56380W        W24774   0.405   3.850  11.173
56381W        W24775  43.772  22.568   0.598
56382W        W24776  16.165   3.646   2.593
56383W        W24777   6.210  33.747  13.687
56384W        W24778  10.904  40.369   4.074
56385W        W24779  26.934  40.485  14.446
56386W        W24780  41.174  22.494  11.383
56387W        W24781   9.600  13.464  14.721
56388W        W24782   6.252  40.477  13.143
56389W        W24783  42.286  12.693  12.586
56390W        W24784  16.103   6.458  13.009
56391W        W24785  38.001  31.470  14.042
56392W        W24786  15.647  13.583   0.671
56393W        W24787  13.047  23.622   2.529
56394W        W24788  11.670  27.990  10.264
56395W        W24789  13.553  30.500  12.521
56396W        W24790  35.089  10.272   0.513
56397W        W24791  10.050  33.388  12.106
56398W        W24792   4.773  22.695   2.901
56399W        W24793  29.556  20.208  11.516
56400W        W24794  44.680  26.392   2.323
56401W        W24795   2.773   8.238   1.454
56402W        W24796   4.796   4.258  14.441
56403W        W24797  29.915   8.566   9.867
56404W        W24798   2.373  26.560   2.307
56405W        W24799  26.147  18.754  12.064
56406W        W24800  44.037   1.236   3.071
56407W        W24801  20.338  33.136   3.735
56408W        W24802   1.226  29.654   0.347
56409W        W24803  14.659  36.853   1.729
56410W        W24804   1.370  37.381  11.403
56411W        W24805  23.471  10.679  14.048
56412W        W24806  17.773   8.839  13.953
56413W        W24807  32.422  15.372   2.382
56414W        W24808  43.748  32.847  14.715
56415W        W24809   3.138  22.633  13.091
56416W        W24810  10.125  28.026  11.049
56417W        W24811  42.815  32.491   2.343
56418W        W24812  15.090  31.782  12.111
56419W        W24813  22.694  22.160  12.738
56420W        W24814  13.224   3.516  12.194
56421W        W24815  13.448  42.264   1.378
56422W        W24816  10.944  32.625   4.000
56423W        W24817  33.640  21.151   3.666
56424W        W24818  15.640  38.445  14.469
56425W        W24819  29.069  33.378  10.434
56426W        W24820  25.159  41.413   0.728
56427W        W24821  25.960   1.301   3.875
56428W        W24822   3.825   1.804  10.777
56429W        W24823  16.176  27.933  10.160
56430W        W24824  34.350   0.900   4.482
56431W        W24825   4.814  36.227  12.967
56432W        W24826  35.061  38.118   3.373
56433W        W24827  11.817   6.148  12.024
56434W        W24828   7.619  41.971  11.536
56435W        W24829  30.875  17.031  11.202
56436W        W24830  30.034  28.223  12.997
56437W        W24831   1.768  11.545   2.719
56438W        W24832   5.385  42.935  13.466
56439W        W24833  20.349  12.212  14.985
56440W        W24834   3.690  18.059   5.167
56441W        W24835   1.341   2.382   0.239
56442W        W24836  43.251  19.613  14.496
56443W        W24837  29.642  20.334   3.143
56444W        W24838  10.849   9.717   0.851
56445W        W24839  25.090  13.904   3.720
56446W        W24840  44.733  36.768   3.873
56447W        W24841  32.335  11.673   9.809
56448W        W24842  40.245  12.913   3.633
56449W        W24843  23.636  40.550   2.325
56450W        W24844   3.946  44.799  13.442
56451W        W24845   3.702  32.991   3.298
56452W        W24846  29.423  15.690   3.785
56453W        W24847  32.402  24.989   1.800
56454W        W24848   7.911  43.947  14.897
56455W        W24849  44.266  30.911  11.181
56456W        W24850   0.535  39.560  13.561
56457W        W24851  40.056  43.312  14.995
56458W        W24852   9.762  36.894   4.369
56459W        W24853   4.349  31.609   3.119
56460W        W24854  27.982  24.404  10.547
56461W        W24855  13.258  26.578   1.847
56462W        W24856  38.256  39.255  14.364
56463W        W24857  35.009   1.173   4.710
56464W        W24858  10.591  35.031   3.857
56465W        W24859  34.184  16.702   1.502
56466W        W24860  13.845  13.414  10.904
56467W        W24861  24.730  14.901   3.311
56468W        W24862  42.205   0.852   3.625
56469W        W24863  16.313  35.014   1.771
56470W        W24864   2.280  21.110  14.088
56471W        W24865  27.647  30.514   0.659
56472W        W24866   2.747   7.429   0.040
56473W        W24867  38.927  29.250  11.116
56474W        W24868  24.525  21.701   1.349
56475W        W24869  28.914   5.742   2.258
56476W        W24870  20.450  24.708  14.219
56477W        W24871   2.796  26.202   0.897
56478W        W24872  43.383  11.830  14.503
56479W        W24873   6.937  18.147  11.023
56480W        W24874  28.387   6.624   0.183
56481W        W24875   3.247  42.085  13.397
56482W        W24876  29.741  20.477  12.499
56483W        W24877   9.617  24.459  12.632
56484W        W24878  22.111  41.421  10.590
56485W        W24879   9.406  27.429  14.299
56486W        W24880  19.886   6.461  11.089
56487W        W24881  31.537  30.281   0.234
56488W        W24882   9.144  20.850   2.241
56489W        W24883   8.886  28.675  14.774
56490W        W24884  21.246  14.834  11.059
56491W        W24885  20.022  36.067   0.323
56492W        W24886  30.682  14.175   1.844
56493W        W24887  38.111  44.883   3.278
56494W        W24888  18.773  41.504   4.734
56495W        W24889  12.697  29.526   1.292
56496W        W24890  19.478   1.571  12.705
56497W        W24891  20.865  20.218  14.428
56498W        W24892  42.491  19.670  11.814
56499W        W24893  38.920  16.678   4.622
56500W        W24894  29.826   9.839  12.054
56501W        W24895  42.843  31.800   1.712
56502W        W24896  17.948  21.557   0.412
56503W        W24897  43.343  41.701  11.089
56504W        W24898  41.325  39.404   1.957
56505W        W24899   2.457  35.676   0.337
56506W        W24900  40.316  34.982   1.019
56507W        W24901  42.448  31.049  11.182
56508W        W24902   9.280  26.061  12.512
56509W        W24903  22.495   1.371   0.052
56510W        W24904   0.502  41.864   2.303
56511W        W24905  40.441  30.146   3.680
56512W        W24906   1.422   6.542   1.700
56513W        W24907  14.484  20.458   2.159
56514W        W24908  28.038   5.364  11.289
56515W        W24909   9.942  37.317   0.013
56516W        W24910  43.513   6.239  13.479
56517W        W24911  33.804  33.834   0.091
56518W        W24912  31.136  38.121  12.828
56519W        W24913  20.267  23.619   3.632
56520W        W24914   7.699  29.406  11.991
56521W        W24915   1.978  11.368  13.478
56522W        W24916  29.883  44.369  14.302
56523W        W24917   3.699  21.723  14.301
56524W        W24918  23.343  28.344  11.906
56525W        W24919   9.740  16.671  10.731
56526W        W24920  29.975   6.807  12.624
56527W        W24921  27.714   0.552   3.729
56528W        W24922  19.344  28.257  14.831
56529W        W24923  11.719   0.347  11.734
56530W        W24924  36.350  14.554  14.504
56531W        W24925  14.192   0.731  13.404
56532W        W24926  29.754  22.764   1.815
56533W        W24927  18.393  17.942  11.966
56534W        W24928   6.970   6.804  14.242
56535W        W24929  43.409  12.611  14.087
56536W        W24930   4.406  41.465  10.409
56537W        W24931  42.900  27.254  11.196
56538W        W24932  19.226  15.687  11.503
56539W        W24933  15.920   5.439  13.295
56540W        W24934   8.818  16.522   2.562
56541W        W24935  44.718  28.477  12.605
56542W        W24936  15.139   9.975  11.201
56543W        W24937  11.958  20.629  13.264
56544W        W24938  38.924  32.384  11.020
56545W        W24939  19.601  37.641   0.859
56546W        W24940  16.708  15.234   0.052
56547W        W24941  14.487  25.635  12.803
56548W        W24942   0.998   7.839   3.398
56549W        W24943  29.368   4.645  11.354
56550W        W24944   8.737  19.149   1.669
56551W        W24945  16.732  13.491  13.021
56552W        W24946   2.919   8.118   2.414
56553W        W24947   3.924   4.874   4.185
56554W        W24948  25.292  30.486  13.474
56555W        W24949  37.835   5.558  14.597
56556W        W24950  40.962  42.263   2.289
56557W        W24951  25.912   5.676  13.420
56558W        W24952  22.912   2.800  11.100
56559W        W24953  17.493   6.354   2.216
56560W        W24954  43.420  26.339  10.987
56561W        W24955   5.369  22.575  14.424
56562W        W24956  32.540  18.450  13.816
56563W        W24957  39.498   1.953   4.267
56564W        W24958  24.865  11.593  14.853
56565W        W24959  14.374  43.367   3.667
56566W        W24960   3.861  29.374  14.946
56567W        W24961  41.684  11.613  13.121
56568W        W24962  37.627  16.704  12.354
56569W        W24963  31.936  18.617  14.799
56570W        W24964  36.821  35.640   0.211
56571W        W24965  35.602  44.981   0.357
56572W        W24966   9.201  13.165   2.277
56573W        W24967  35.386   4.618   1.711
56574W        W24968  16.603  12.225   1.154
56575W        W24969  15.120  12.770   2.909
56576W        W24970  41.815  20.474   1.735
56577W        W24971  12.590  36.137  11.278
56578W        W24972   9.814  38.285   4.980
56579W        W24973  13.739   1.336  11.103
56580W        W24974  30.031   7.810  13.867
56581W        W24975  29.175  12.836  10.458
56582W        W24976   6.900  30.838   2.339
56583W        W24977   0.411  32.081   1.704
56584W        W24978  11.887  11.245   4.103
56585W        W24979  26.140  42.956  13.276
56586W        W24980   3.739  11.702  10.477
56587W        W24981   2.308   8.262   1.257
56588W        W24982  26.651  23.650  12.995
56589W        W24983   4.658  17.724  11.109
56590W        W24984   0.774  23.626   3.708
56591W        W24985  22.308  18.673   1.748
56592W        W24986  29.637   5.044  14.448
56593W        W24987  33.302  25.523   1.790
56594W        W24988   8.874  21.596  12.342
56595W        W24989  22.591  24.987  14.538
56596W        W24990  38.570  14.153  13.956
56597W        W24991  42.251  32.394  11.513
56598W        W24992  22.151  33.946   1.005
56599W        W24993  41.028  12.400  12.844
56600W        W24994   9.733  27.513   4.918
56601W        W24995  21.636  15.037  12.001
56602W        W24996   2.318   8.368   3.878
56603W        W24997  16.005  35.330  13.424
56604W        W24998  39.525  33.840  13.790
56605W        W24999  23.039  14.195   2.263
56606W        W25000   3.178  21.951   0.813
56607W        W25001   9.227  42.702   1.459
56608W        W25002   1.615  43.368   4.070
56609W        W25003  42.071  42.343   0.375
56610W        W25004  42.310  17.230  12.742
56611W        W25005  31.039  21.488   2.444
56612W        W25006  26.657  19.846   2.444
56613W        W25007  37.960   0.810   4.359
56614W        W25008  20.918  23.780  11.055
56615W        W25009   3.444  29.375   0.372
56616W        W25010   7.860  38.108   3.382
56617W        W25011  17.612  31.575   1.705
56618W        W25012   7.796  28.494   1.478
56619W        W25013  15.409  43.379  12.697
56620W        W25014  35.130  33.433  14.253
56621W        W25015  37.868  37.195   1.294
56622W        W25016  28.480  11.350  13.396
56623W        W25017  40.957  15.191   0.744
56624W        W25018   1.516  20.167  11.162
56625W        W25019  36.890  22.102   0.138
56626W        W25020  13.505  11.722  14.569
56627W        W25021   6.775  32.230  14.625
56628W        W25022  35.335  36.782   3.275
56629W        W25023  16.608  22.461   2.248
56630W        W25024  37.076  15.100  11.715
56631W        W25025  28.088  36.818   2.436
56632W        W25026  19.156  34.707   2.660
56633W        W25027  17.180  21.226  11.600
56634W        W25028   6.696  21.763   3.184
56635W        W25029   5.314  43.860   2.850
56636W        W25030  19.816  31.601  14.853
56637W        W25031  27.898   3.366  10.674
56638W        W25032  38.400   4.479  12.087
56639W        W25033  38.417  24.586  11.575
56640W        W25034  13.653  19.217  12.447
56641W        W25035  17.203  33.591   2.598
56642W        W25036  37.993  24.665  11.209
56643W        W25037  28.983  16.323  10.782
56644W        W25038  33.535  26.348  10.704
56645W        W25039  31.068  19.685  10.175
56646W        W25040  28.232  18.334   0.887
56647W        W25041   0.810  32.768   3.372
56648W        W25042  44.435  12.292   4.597
56649W        W25043   6.322  17.104  13.830
56650W        W25044   8.267  13.048  11.535
56651W        W25045  25.117   8.355   1.742
56652W        W25046   9.995   8.383  13.910
56653W        W25047  19.772  21.291  14.370
56654W        W25048   8.900   9.656  13.476
56655W        W25049  43.859  30.893   4.079
56656W        W25050  31.451  29.421   1.819
56657W        W25051   0.453  37.839   2.191
56658W        W25052  43.860   2.968   1.240
56659W        W25053  35.520  19.626  13.184
56660W        W25054  11.214  14.022   4.749
56661W        W25055  34.551  19.174   4.490
56662W        W25056  13.631  10.793  14.534
56663W        W25057  27.844  14.396   2.623
56664W        W25058   7.212  31.232   4.314
56665W        W25059  16.397  37.088  13.396
56666W        W25060  28.860  12.149   4.096
56667W        W25061  17.145  26.501   5.155
56668W        W25062  38.975  32.944   3.618
56669W        W25063   5.487  13.727  14.482
56670W        W25064  29.894   3.016   2.242
56671W        W25065  25.516  37.883  11.784
56672W        W25066   9.003   0.354  10.736
56673W        W25067  16.204   9.535  10.384
56674W        W25068   8.331  32.126  13.976
56675W        W25069  44.774  12.423   1.099
56676W        W25070  44.771   4.774  14.414
56677W        W25071  30.160  22.690   0.337
56678W        W25072  27.329  26.828  13.839
56679W        W25073  21.064  34.503   3.598
56680W        W25074  43.024  36.331   1.311
56681W        W25075  14.188  13.537  10.528
56682W        W25076   7.616  11.636   2.689
56683W        W25077  31.513  15.379  13.063
56684W        W25078  41.024  31.538   1.760
56685W        W25079  13.280   2.507  14.195
56686W        W25080  24.121  38.241   4.735
56687W        W25081  31.139   1.346  14.928
56688W        W25082  41.273  30.616  14.419
56689W        W25083  38.534  23.471  14.029
56690W        W25084  37.562   0.342   3.714
56691W        W25085  37.596  13.834   2.033
56692W        W25086   5.497  17.579   4.083
56693W        W25087  11.845  33.068   3.292
56694W        W25088  19.306  39.327   2.582
56695W        W25089  25.187  34.679  14.497
56696W        W25090  22.900   4.201  13.631
56697W        W25091   2.485  18.079   4.658
56698W        W25092  10.200   8.257   4.052
56699W        W25093  16.269   9.068  10.196
56700W        W25094  22.995  31.554  11.580
56701W        W25095   8.207  22.739   3.047
56702W        W25096   4.456  22.971   4.464
56703W        W25097  31.960  27.783   0.924
56704W        W25098   3.926  18.591  14.882
56705W        W25099   1.517  21.540   2.675
56706W        W25100  43.189  40.325  14.429
56707W        W25101  27.566  12.247   2.152
56708W        W25102  22.203  30.619   0.038
56709W        W25103  25.663  14.894   2.254
56710W        W25104  31.771  28.105   1.769
56711W        W25105  38.561  22.407  10.538
56712W        W25106  24.937  43.461  14.397
56713W        W25107  10.141   7.255  10.840
56714W        W25108  28.058  25.240  10.203
56715W        W25109  44.479  18.274  11.163
56716W        W25110  27.126  34.321   0.476
56717W        W25111   9.277  16.288  14.952
56718W        W25112  36.424  25.690  13.103
56719W        W25113  17.410  34.806   2.349
56720W        W25114  25.595  13.573  13.010
56721W        W25115  41.438   2.738  12.809
56722W        W25116  31.134  26.066  11.237
56723W        W25117  35.535  16.004   4.074
56724W        W25118   5.184  18.641  13.028
56725W        W25119  34.542   8.670  13.935
56726W        W25120   3.376  26.091  13.963
56727W        W25121  26.260   4.824  13.619
56728W        W25122  15.017  20.899  11.750
56729W        W25123  34.154  38.176   4.327
56730W        W25124  37.789  23.710   1.023
56731W        W25125  40.878  20.241  12.518
56732W        W25126   5.843  25.188   1.400
56733W        W25127   3.969  18.516  13.945
56734W        W25128  18.678  11.898   2.003
56735W        W25129  23.525  20.036   2.680
56736W        W25130  32.391  33.966   3.652
56737W        W25131   4.029  33.642  13.875
56738W        W25132  17.489  18.050  14.927
56739W        W25133  32.473  40.987   4.383
56740W        W25134   0.512  36.986  11.542
56741W        W25135  43.388  29.985   1.271
56742W        W25136  43.189   5.278  14.820
56743W        W25137  42.486  15.851   1.707
56744W        W25138  29.600  25.085  11.574
56745W        W25139  37.581  27.102   4.896
56746W        W25140  27.475   6.200   1.910
56747W        W25141  37.110  41.820   4.313
56748W        W25142   4.977  26.747   0.031
56749W        W25143  17.689  44.705   2.331
56750W        W25144  35.511  43.843   1.624
56751W        W25145  35.792  30.044   3.824
56752W        W25146  43.301  44.319  13.502
56753W        W25147   9.419  18.605   3.114
56754W        W25148   0.281  22.403   0.838
56755W        W25149  43.727   0.788  14.366
56756W        W25150   0.528  42.804  12.673
56757W        W25151   9.674   5.520  12.985
56758W        W25152   0.340  21.669  11.157
56759W        W25153  23.218  21.778   1.834
56760W        W25154  27.682  35.890   4.294
56761W        W25155  17.669   5.818   4.149
56762W        W25156  13.268  21.075  13.985
56763W        W25157  31.695   8.966  10.101
56764W        W25158  19.594  22.735  14.482
56765W        W25159  17.163  36.642  13.666
56766W        W25160  43.661  23.191  14.389
56767W        W25161   6.248  36.381   3.146
56768W        W25162   5.333  34.559  10.405
56769W        W25163  10.344  22.176  12.040
56770W        W25164  39.967   2.812   1.321
56771W        W25165  36.884  18.690   1.281
56772W        W25166   8.214   6.823  10.712
56773W        W25167  35.004  17.774  10.479
56774W        W25168  38.252   8.821  13.287
56775W        W25169   2.421   3.551   4.088
56776W        W25170   5.959   3.388   3.082
56777W        W25171   7.649  23.440   1.220
56778W        W25172  21.729   2.452   3.734
56779W        W25173  17.204  14.919   2.803
56780W        W25174  28.465  10.595   1.732
56781W        W25175  44.595  14.113   2.895
56782W        W25176   9.433  24.114  12.972
56783W        W25177   8.987  17.466   4.884
56784W        W25178  26.631  21.846  12.147
56785W        W25179  19.750  21.774   4.889
56786W        W25180  17.041  35.531  10.741
56787W        W25181  39.601  13.212   1.748
56788W        W25182  44.062  36.794   3.225
56789W        W25183  23.674  12.079  13.913
56790W        W25184  29.077   3.535   0.248
56791W        W25185  10.899  30.901  11.132
56792W        W25186  31.891   0.045   2.529
56793W        W25187   6.623  42.529  11.464
56794W        W25188  44.857   3.562  11.452
56795W        W25189  30.966  11.567  12.878
56796W        W25190  36.747  39.068  11.529
56797W        W25191  18.048   4.295  10.666
56798W        W25192  38.023  21.159  13.554
56799W        W25193  42.033  19.822  13.345
56800W        W25194  21.511  37.634  11.831
56801W        W25195  36.102   7.208  12.793
56802W        W25196   0.861  28.539  10.695
56803W        W25197  36.954   0.464  14.845
56804W        W25198  24.929  42.505   0.563
56805W        W25199  23.245  36.559  14.791
56806W        W25200  21.869   1.400  10.640
56807W        W25201  41.492  11.254   3.592
56808W        W25202  34.912  33.881  13.056
56809W        W25203  38.089  41.079   2.382
56810W        W25204   5.903  20.502  11.926
56811W        W25205  39.399   4.976  12.935
56812W        W25206  30.599  21.341   0.495
56813W        W25207  32.853  43.050  11.968
56814W        W25208   3.503   0.078  12.367
56815W        W25209   7.303  14.817   4.607
56816W        W25210   1.412  23.413   1.152
56817W        W25211  43.494  13.704  11.001
56818W        W25212  32.593  18.171  14.694
56819W        W25213  10.138  11.172   3.342
56820W        W25214  33.865  31.434   2.220
56821W        W25215  12.305  40.520  12.498
56822W        W25216  15.322  20.730   1.960
56823W        W25217  42.130  23.705  11.138
56824W        W25218  23.006  40.494   4.212
56825W        W25219  11.560   1.678  13.375
56826W        W25220  35.452  15.966  14.880
56827W        W25221   3.637   2.214   1.062
56828W        W25222  23.692  22.518  12.932
56829W        W25223  39.913  17.314   4.590
56830W        W25224   6.446  37.956   4.834
56831W        W25225  42.788   2.948  14.796
56832W        W25226  28.069  27.932   0.422
56833W        W25227  17.518  16.173   2.591
56834W        W25228  26.035  23.065  11.969
56835W        W25229  32.893   6.526   1.292
56836W        W25230  42.792   2.865  13.956
56837W        W25231  19.887  21.880  13.613
56838W        W25232  16.788   7.080  14.972
56839W        W25233  32.620  36.683   1.294
56840W        W25234  28.547   5.698   0.351
56841W        W25235   7.921  16.766  11.300
56842W        W25236  21.300  31.496  13.937
56843W        W25237  20.658  36.039   4.643
56844W        W25238  26.714  41.263  13.818
56845W        W25239  20.211  13.133  11.467
56846W        W25240   1.675  24.256  11.123
56847W        W25241   5.300  24.592   2.698
56848W        W25242  42.306   0.876   0.851
56849W        W25243  29.882  26.922   0.346
56850W        W25244  15.527  37.525   0.437
56851W        W25245  11.391  29.900  10.569
56852W        W25246   0.256  40.293  12.666
56853W        W25247  24.938  37.356  13.859
56854W        W25248   5.536   0.327  13.334
56855W        W25249  29.238  31.669  13.298
56856W        W25250  19.782  44.915  14.748
56857W        W25251  27.072  24.654   1.018
56858W        W25252   1.634  14.582   1.362
56859W        W25253  38.374   5.406  11.470
56860W        W25254   0.821  11.209  12.867
56861W        W25255  33.116  40.475   4.867
56862W        W25256  37.667  13.932   2.543
56863W        W25257  40.845  35.881  13.308
56864W        W25258  20.182   2.991  11.925
56865W        W25259  32.606   8.921   0.832
56866W        W25260  28.133  15.242  11.703
56867W        W25261  17.865  33.497   1.498
56868W        W25262   9.771  25.970   2.054
56869W        W25263  11.122  13.786  14.729
56870W        W25264   2.919   2.878   3.714
56871W        W25265  35.566  25.819   0.267
56872W        W25266  33.953  13.804  13.414
56873W        W25267  42.372  35.092  10.155
56874W        W25268  14.895  24.006  13.427
56875W        W25269  40.756  32.153  11.617
56876W        W25270  35.915  43.417  11.154
56877W        W25271  31.477   2.295  14.761
56878W        W25272   4.410   2.319  12.870
56879W        W25273  34.184  21.166  11.402
56880W        W25274  25.489  17.302  11.100
56881W        W25275  42.401  25.887  12.782
56882W        W25276  36.872  17.744  10.585
56883W        W25277   3.935  36.470  13.307
56884W        W25278  38.548  43.841  13.502
56885W        W25279  38.865  19.497  11.646
56886W        W25280  36.075  40.707   3.909
56887W        W25281  29.171  27.224   4.622
56888W        W25282  37.025  17.636  14.372
56889W        W25283  32.858  29.666   1.685
56890W        W25284  18.535  34.365   4.432
56891W        W25285   0.207  39.607   0.829
56892W        W25286  26.921   2.431  10.760
56893W        W25287   6.746   4.796   3.003
56894W        W25288  37.339   1.364  13.838
56895W        W25289  32.513  25.221  14.001
56896W        W25290   4.813  32.526  14.948
56897W        W25291  16.260   1.489  13.021
56898W        W25292   8.819  23.715   4.520
56899W        W25293  32.363   9.518   5.055
56900W        W25294  40.673  44.479  12.865
56901W        W25295   6.301   2.182   0.399
56902W        W25296  37.942  41.283  14.792
56903W        W25297  19.663  17.823  12.392
56904W        W25298  17.175  29.160  14.415
56905W        W25299  14.615  37.170   4.450
56906W        W25300  28.512  21.250  11.495
56907W        W25301  26.742  11.552  12.422
56908W        W25302  35.808  34.348  14.331
56909W        W25303  16.808   2.091  13.465
56910W        W25304  32.934  10.890   4.219
56911W        W25305  21.027  27.861   3.589
56912W        W25306  19.808  29.983   0.823
56913W        W25307  37.259  21.425   4.169
56914W        W25308  19.841  16.103   3.271
56915W        W25309  28.598   0.461  14.902
56916W        W25310   5.805  41.911   1.435
56917W        W25311  32.991  31.038   3.626
56918W        W25312  14.840   9.639  13.543
56919W        W25313   8.758  12.521   2.310
56920W        W25314   5.758   5.491   2.264
56921W        W25315  44.532  37.947  14.670
56922W        W25316  41.315   4.410  13.086
56923W        W25317   4.984   2.316  11.164
56924W        W25318  28.287   6.632  11.326
56925W        W25319  17.259   8.679   0.253
56926W        W25320  31.026  35.086  11.647
56927W        W25321  41.769   1.084  10.744
56928W        W25322  35.040  43.718   4.021
56929W        W25323  12.619  18.240  10.657
56930W        W25324  41.000  34.004   3.623
56931W        W25325   8.406  43.452   4.846
56932W        W25326  26.226  35.870   0.718
56933W        W25327   0.260  44.253  12.428
56934W        W25328  20.534  38.342  12.484
56935W        W25329   8.243   2.607   4.578
56936W        W25330   4.665  28.055   1.706
56937W        W25331  40.791  11.816  13.399
56938W        W25332  33.159  23.336  12.195
56939W        W25333  34.519  21.596   0.401
56940W        W25334  13.568  43.389   4.636
56941W        W25335  38.589  31.884  14.508
56942W        W25336  43.946  40.296  10.309
56943W        W25337   0.904  41.075   3.854
56944W        W25338  19.726   8.482   2.741
56945W        W25339  28.896   3.965  11.219
56946W        W25340  17.643  21.426  11.574
56947W        W25341  35.080  19.527   2.829
56948W        W25342  31.614   6.114  13.855
56949W        W25343  42.093  44.848   2.624
56950W        W25344  31.979  26.668   4.049
56951W        W25345  33.158  28.597   3.290
56952W        W25346  40.045   9.527   1.843
56953W        W25347  37.211  36.364   3.333
56954W        W25348   1.927  27.754   3.343
56955W        W25349   3.846  43.365  11.568
56956W        W25350   2.344  27.488   4.210
56957W        W25351  13.210  32.375   0.810
56958W        W25352  41.379  43.844   1.013
56959W        W25353   8.662   4.154   2.207
56960W        W25354   5.356  22.652  13.009
56961W        W25355  40.068   4.773  12.123
56962W        W25356   6.315  27.198   0.383
56963W        W25357  27.997   8.604  12.947
56964W        W25358   6.693  12.070   0.896
56965W        W25359   9.707   9.678   4.889
56966W        W25360  42.221  39.275  12.928
56967W        W25361  16.241  29.525  11.605
56968W        W25362  30.212  19.730  11.930
56969W        W25363   0.955   4.659  14.296
56970W        W25364   9.565  32.629  11.634
56971W        W25365  33.518  30.612  13.612
56972W        W25366  38.303  38.819  13.432
56973W        W25367   9.211  39.030   4.203
56974W        W25368   7.191  41.628  13.353
56975W        W25369   0.534   4.592   3.985
56976W        W25370  23.734  10.068  10.083
56977W        W25371  16.642  10.624   4.471
56978W        W25372  18.595  25.198   1.512
56979W        W25373  24.470  21.674  13.341
56980W        W25374  31.364  11.727  14.634
56981W        W25375  18.318  30.134  11.279
56982W        W25376  42.619   6.271   1.458
56983W        W25377  26.318  37.783   2.921
56984W        W25378  30.699   8.367  13.921
56985W        W25379   9.117  27.514  10.451
56986W        W25380  44.804  37.879  13.479
56987W        W25381   1.476  37.992   4.082
56988W        W25382  25.403   7.483  11.175
56989W        W25383  23.690  17.248   3.982
56990W        W25384  31.168  22.675  10.119
56991W        W25385  12.617  11.725   2.239
56992W        W25386  25.524  21.155  10.506
56993W        W25387  19.921  24.921   2.760
56994W        W25388   0.666  13.962  14.933
56995W        W25389  42.398  18.251  11.504
56996W        W25390  15.753   3.192   3.459
56997W        W25391  18.676  11.446   2.502
56998W        W25392  14.655  41.647   1.298
56999W        W25393  10.119   3.701  11.879
57000W        W25394  13.811  27.949   0.390
57001W        W25395  32.938   7.125  12.412
57002W        W25396  10.103   6.354   2.694
57003W        W25397  43.806  19.086   0.778
57004W        W25398   0.054  17.298   4.515
57005W        W25399  42.008  19.538  14.880
57006W        W25400   3.859  15.685   3.555
57007W        W25401  21.556  42.925   3.378
57008W        W25402  13.223  10.088  12.465
57009W        W25403  12.316  31.507  11.597
57010W        W25404  28.051  38.755   2.842
57011W        W25405  33.383   4.727   3.702
57012W        W25406  26.260   8.161   1.730
57013W        W25407  32.570  19.781  12.890
57014W        W25408  33.542  20.657   1.769
57015W        W25409  24.495  32.988  11.515
57016W        W25410  24.759   2.355  12.548
57017W        W25411  13.984  26.994   3.121
57018W        W25412  29.458  30.464   1.734
57019W        W25413   1.700  15.596   4.958
57020W        W25414  11.353  18.481  14.998
57021W        W25415  11.710  33.817   2.647
57022W        W25416   9.683  31.086   2.405
57023W        W25417  39.974   0.477   4.268
57024W        W25418   5.302  16.331   4.879
57025W        W25419  30.535   1.397   4.634
57026W        W25420  17.155  39.592  12.182
57027W        W25421  21.559   4.792   1.189
57028W        W25422   9.270  43.381  13.934
57029W        W25423   9.297  29.876   3.012
57030W        W25424   3.288  43.198  12.308
57031W        W25425  30.494  16.336   3.336
57032W        W25426  15.350  10.282   0.365
57033W        W25427  16.581  13.334   2.002
57034W        W25428  21.144   6.935  14.503
57035W        W25429  43.965  37.285   3.138
57036W        W25430   1.677  24.793   0.817
57037W        W25431   9.608  16.381  13.969
57038W        W25432  35.627  30.116   4.651
57039W        W25433  11.124   5.488   3.182
57040W        W25434   8.891   6.108  11.574
57041W        W25435  28.649  12.847  11.651
57042W        W25436  32.225  39.495   3.583
57043W        W25437  24.560  19.558   0.319
57044W        W25438  33.931  38.353  14.768
57045W        W25439   5.275  36.596  13.571
57046W        W25440  30.032  35.384  10.717
57047W        W25441  18.115   8.660   4.221
57048W        W25442  24.223  22.096  10.630
57049W        W25443  29.056  27.220   1.434
57050W        W25444  36.490  42.854  14.005
57051W        W25445  11.867  42.907   2.818
57052W        W25446  14.295  41.219   4.746
57053W        W25447   0.672  25.536   0.861
57054W        W25448   8.157  23.962  12.504
57055W        W25449  22.955  14.543   0.782
57056W        W25450  24.203  16.318   1.899
57057W        W25451  44.856  29.642  14.618
57058W        W25452  23.414  13.538   1.873
57059W        W25453   4.870  17.746   2.328
57060W        W25454  19.615  35.694   0.269
57061W        W25455   9.782  23.514  10.680
57062W        W25456  27.496   9.421  12.938
57063W        W25457  31.190   9.211   2.905
57064W        W25458  35.262  15.500  14.922
57065W        W25459   7.062   2.389  12.587
57066W        W25460   5.466   5.868   1.228
57067W        W25461   5.698   4.619  12.375
57068W        W25462  28.665  44.104  10.966
57069W        W25463  19.245  34.007  12.485
57070W        W25464   9.329  18.593  13.721
57071W        W25465  15.012  25.983   2.481
57072W        W25466  19.252  36.154  11.105
57073W        W25467  21.981  27.603   3.093
57074W        W25468  23.176  24.732   2.416
57075W        W25469   6.921  44.577   0.266
57076W        W25470  23.036  20.035  10.770
57077W        W25471  30.378  22.282  13.463
57078W        W25472  24.463   1.066   3.639
57079W        W25473  10.695  11.836  12.354
57080W        W25474   4.806  25.536   5.438
57081W        W25475  30.457  39.581  13.992
57082W        W25476  32.995  11.774  14.771
57083W        W25477  34.521  17.856   1.806
57084W        W25478  30.200   8.475  11.854
57085W        W25479   5.064  15.807   5.001
57086W        W25480  32.964  23.668  14.700
57087W        W25481  15.701  30.918   2.314
57088W        W25482   0.763  42.072  11.937
57089W        W25483  26.632  30.999   4.553
57090W        W25484  10.757  13.714   1.081
57091W        W25485  17.237  17.500  13.868
57092W        W25486  44.648   9.290  11.140
57093W        W25487  38.882  41.099  11.184
57094W        W25488  12.034  11.838  14.716
57095W        W25489  18.134   7.751   4.629
57096W        W25490  41.500  36.067   2.775
57097W        W25491   2.431   9.593   4.315
57098W        W25492  17.752  32.565   0.974
57099W        W25493  17.189  17.501   3.639
57100W        W25494  44.606  20.317   4.105
57101W        W25495  29.749   9.818  14.484
57102W        W25496   9.227   6.724   1.281
57103W        W25497  39.609   4.212   0.365
57104W        W25498  18.523   6.467  13.558
57105W        W25499  42.585  15.309   0.574
57106W        W25500  35.031   6.248   2.242
57107W        W25501   2.750  22.257   0.843
57108W        W25502  36.900  10.664   1.201
57109W        W25503  28.453  28.567  12.437
57110W        W25504  17.484  15.316   2.618
57111W        W25505  44.994  29.893  11.660
57112W        W25506  21.202  25.715   3.667
57113W        W25507  43.044  29.651  13.381
57114W        W25508  38.849   4.382   0.310
57115W        W25509  17.197   7.421  10.333
57116W        W25510  43.836  12.395   0.760
57117W        W25511  25.502  36.801  12.399
57118W        W25512  15.584  29.368  11.437
57119W        W25513  26.972   8.720  11.111
57120W        W25514   2.545  22.457  14.431
57121W        W25515  13.681  35.823  11.645
57122W        W25516  22.819  43.905  10.563
57123W        W25517  36.091  27.011   1.476
57124W        W25518   0.285  21.164   2.896
57125W        W25519  39.292   2.512   2.746
57126W        W25520  42.252   4.580   0.213
57127W        W25521  31.996  42.601   3.743
57128W        W25522  44.907  43.740   4.325
57129W        W25523  19.610  25.608   3.801
57130W        W25524  23.793  20.349   0.432
57131W        W25525  36.688  17.894   3.415
57132W        W25526  27.524  39.092   0.210
57133W        W25527  40.431  20.287  12.262
57134W        W25528  36.027  12.587  11.705
57135W        W25529  38.366  13.385   2.101
57136W        W25530  38.560  23.376   3.167
57137W        W25531   2.434  20.151  12.390
57138W        W25532  41.402  44.425  11.953
57139W        W25533  29.629  27.538   0.942
57140W        W25534  34.397  25.886  14.408
57141W        W25535   0.791  43.227  12.914
57142W        W25536  21.073  38.125   1.836
57143W        W25537   1.063  21.933  12.025
57144W        W25538   1.484  43.051  14.938
57145W        W25539  10.897  41.337  13.902
57146W        W25540   6.398  18.024  13.946
57147W        W25541   1.872  33.957   3.910
57148W        W25542  43.935   0.221  11.186
57149W        W25543  44.267  34.218  11.396
57150W        W25544   3.744  18.127  14.666
57151W        W25545  19.608  29.427  13.063
57152W        W25546  41.430  36.445   2.343
57153W        W25547  36.296  23.399   4.661
57154W        W25548  22.480  40.965  13.945
57155W        W25549  20.623  25.199   1.401
57156W        W25550  16.315  38.921  13.482
57157W        W25551  26.064  23.478  12.850
57158W        W25552  41.797   9.916   2.187
57159W        W25553  20.076  43.592   3.154
57160W        W25554  32.442  41.401   2.046
57161W        W25555  44.788  20.066  11.573
57162W        W25556  39.967  39.695   0.386
57163W        W25557  35.394  25.029   0.321
57164W        W25558  20.725   7.159   3.397
57165W        W25559   7.625   9.161   1.335
57166W        W25560   2.203  20.180  13.008
57167W        W25561   4.819  13.158  13.032
57168W        W25562   3.275  28.411  12.592
57169W        W25563  24.277   3.524  10.240
57170W        W25564  29.698  34.805   2.421
57171W        W25565  18.557  37.638  14.783
57172W        W25566   2.228  15.609   0.664
57173W        W25567  25.813  44.528  14.820
57174W        W25568   9.418  22.587  13.143
57175W        W25569   0.345  16.360  11.188
57176W        W25570  24.539  24.004  14.897
57177W        W25571  12.360  13.326   3.773
57178W        W25572  30.590  28.588  14.133
57179W        W25573  44.741   5.376   0.889
57180W        W25574  23.982   0.345   4.377
57181W        W25575  16.959  35.609  13.392
57182W        W25576  18.838   4.854  13.328
57183W        W25577  44.574  26.525  13.128
57184W        W25578  23.409   5.781  12.141
57185W        W25579  24.656  42.683  11.189
57186W        W25580   1.406  34.036   0.562
57187W        W25581  17.212  35.096  12.108
57188W        W25582  42.832  25.632   2.749
57189W        W25583   5.145  42.500   3.298
57190W        W25584  28.685  42.617  11.910
57191W        W25585  23.971   2.663   3.251
57192W        W25586  41.498  30.042   0.333
57193W        W25587   0.506  37.626   5.285
57194W        W25588  24.105   2.437   2.145
57195W        W25589  26.583  13.614  14.038
57196W        W25590  35.368  38.152   0.676
57197W        W25591  14.284  40.625  11.195
57198W        W25592  43.007  10.720  11.395
57199W        W25593  23.092  36.438   0.919
57200W        W25594  44.016  23.756   3.787
57201W        W25595  42.937  35.103   1.832
57202W        W25596  12.504  25.664  14.078
57203W        W25597  20.979  41.853   2.173
57204W        W25598  14.660   5.222  10.281
57205W        W25599  22.437   4.167   4.750
57206W        W25600  42.806  40.271   4.121
57207W        W25601  35.365   6.746  10.453
57208W        W25602  42.300  20.148  11.964
57209W        W25603   7.894  35.965   2.892
57210W        W25604  43.265   7.616  14.812
57211W        W25605   3.190  17.154   0.204
57212W        W25606  25.589   6.445   0.489
57213W        W25607   7.885  28.172  12.421
57214W        W25608  43.529  26.740   2.834
57215W        W25609  32.979   2.277   3.236
57216W        W25610  10.290  24.506  14.880
57217W        W25611   0.989  43.994   0.046
57218W        W25612  18.617  33.403  12.043
57219W        W25613  21.966   5.868   3.661
57220W        W25614  14.587  31.503   1.037
57221W        W25615  38.094  40.465   4.760
57222W        W25616  33.887   5.529  13.030
57223W        W25617  32.402  44.599  10.719
57224W        W25618  26.661  36.964  12.509
57225W        W25619  31.591   1.482   2.365
57226W        W25620  12.354   7.429  13.884
57227W        W25621  31.651  42.513  12.088
57228W        W25622  19.005   3.902  14.000
57229W        W25623  38.266  43.190  11.610
57230W        W25624  14.189  34.133  10.675
57231W        W25625  15.374  35.941  11.923
57232W        W25626  19.103  20.515  12.600
57233W        W25627  26.638   8.835  14.295
57234W        W25628  39.097   2.720   2.290
57235W        W25629  17.728  33.034  14.744
57236W        W25630  24.831  26.549  13.393
57237W        W25631  24.144  13.855   4.520
57238W        W25632  30.276  26.502  11.648
57239W        W25633  34.833   8.201  13.080
57240W        W25634  39.907  34.862  12.400
57241W        W25635  29.406   6.204   4.102
57242W        W25636  14.767  26.905  11.758
57243W        W25637  36.329  32.651  11.027
57244W        W25638  10.640  16.103   2.009
57245W        W25639  44.749  13.716   2.608
57246W        W25640  35.005  17.873  12.525
57247W        W25641  43.901   5.538   3.282
57248W        W25642  24.773  19.072  14.397
57249W        W25643  12.222  26.106  14.652
57250W        W25644  10.627  36.589   3.831
57251W        W25645   6.708  31.576  11.786
57252W        W25646  18.396  27.487  13.826
57253W        W25647  21.588  23.213   0.743
57254W        W25648   4.625  28.063   3.096
57255W        W25649  18.915  30.441   1.483
57256W        W25650  16.740  13.103   0.873
57257W        W25651  21.309  11.164  14.801
57258W        W25652   1.714   0.938   2.197
57259W        W25653   5.864   9.849  10.657
57260W        W25654  17.061  26.988   9.807
57261W        W25655  19.228   9.079   1.354
57262W        W25656   6.413  44.221   3.896
57263W        W25657  14.882   7.675   1.204
57264W        W25658  44.089  18.289   1.452
57265W        W25659  15.610  39.944   4.374
57266W        W25660  32.021  36.403  13.185
57267W        W25661  37.038  39.919   1.718
57268W        W25662   4.636   9.904   4.638
57269W        W25663  18.092  24.573  13.613
57270W        W25664  36.714   0.942  12.086
57271W        W25665  12.534   6.189  11.450
57272W        W25666   4.848  29.956   1.852
57273W        W25667  35.670  35.126  10.437
57274W        W25668   2.348  39.803   2.329
57275W        W25669  29.907  30.625  13.538
57276W        W25670   8.868  32.023   3.681
57277W        W25671  36.930  43.827   4.462
57278W        W25672  39.588  25.018   0.445
57279W        W25673  25.630  34.387  13.829
57280W        W25674  41.767  14.606  13.502
57281W        W25675  36.452   8.868   1.945
57282W        W25676   0.735  19.646  11.426
57283W        W25677  22.524  43.272  13.256
57284W        W25678  25.383  31.478   2.212
57285W        W25679  36.280  14.263  13.542
57286W        W25680   4.747  35.165   3.761
57287W        W25681  24.694  33.575  12.911
57288W        W25682  41.397   9.675  14.795
57289W        W25683  32.065  38.476   1.684
57290W        W25684   3.920  10.112   0.506
57291W        W25685  41.085  30.847   4.257
57292W        W25686  24.052  25.422  14.464
57293W        W25687   8.342  28.014  14.286
57294W        W25688   0.867  20.419  12.951
57295W        W25689  14.705   1.459  14.900
57296W        W25690  26.784  34.495   4.574
57297W        W25691  25.754  26.422  11.604
57298W        W25692  30.125   1.493  12.923
57299W        W25693  33.378  29.629   1.682
57300W        W25694  22.257   5.243   3.638
57301W        W25695  43.388  26.572   1.443
57302W        W25696  15.696  18.714  11.613
57303W        W25697  41.471  16.302   4.581
57304W        W25698   4.804  40.184  12.092
57305W        W25699  40.857  36.022  13.812
57306W        W25700   0.031  20.162  12.048
57307W        W25701  32.045  12.061   3.179
57308W        W25702  21.974  11.797  10.195
57309W        W25703  42.484  24.837  11.884
57310W        W25704  27.995   3.547  12.471
57311W        W25705  17.747  44.301   1.554
57312W        W25706  42.563  42.996  13.730
57313W        W25707  13.223  37.853  10.605
57314W        W25708   4.619   4.092  12.535
57315W        W25709  29.383  21.984  11.017
57316W        W25710  39.342  21.126  14.738
57317W        W25711   0.412  15.804  12.847
57318W        W25712  35.793   4.733  13.513
57319W        W25713  36.980  26.426   3.898
57320W        W25714  30.648   5.972   4.074
57321W        W25715  19.167   2.237  12.082
57322W        W25716  38.978  16.955   4.194
57323W        W25717   4.869  39.884   0.289
57324W        W25718   8.962  31.887  13.053
57325W        W25719  20.029  41.318  14.824
57326W        W25720  27.441  14.755   1.693
57327W        W25721  32.327  11.805  12.458
57328W        W25722   2.661  41.780   2.343
57329W        W25723   6.053  43.464  10.754
57330W        W25724   2.919  36.416  11.648
57331W        W25725  36.492  31.405  11.578
57332W        W25726   1.747  34.317   3.161
57333W        W25727   3.359   3.222  12.590
57334W        W25728  40.319  16.178   1.656
57335W        W25729  43.424  24.003  11.663
57336W        W25730  42.441  11.432  14.364
57337W        W25731  42.533   3.387   2.341
57338W        W25732  15.529  38.862   4.238
57339W        W25733  36.325  20.202   4.323
57340W        W25734   0.847  37.351  12.995
57341W        W25735  18.926  15.354  13.485
57342W        W25736  16.826  23.754   0.264
57343W        W25737  33.624  22.998   4.759
57344W        W25738  25.533  15.554   4.206
57345W        W25739   9.136  28.972  14.086
57346W        W25740   2.814   9.078   0.795
57347W        W25741  26.687  26.901  11.683
57348W        W25742  29.828  31.561   2.377
57349W        W25743  21.687  37.451  13.449
57350W        W25744   3.311  11.903  10.248
57351W        W25745  14.609  17.475   0.413
57352W        W25746   4.963  38.128   2.731
57353W        W25747  22.792   1.975  14.890
57354W        W25748  43.518   3.975   0.754
57355W        W25749  29.174  23.536  13.378
57356W        W25750  30.552  40.544   1.651
57357W        W25751   6.788  19.640  11.931
57358W        W25752   7.811   0.771  14.743
57359W        W25753  10.276   6.397   4.531
57360W        W25754   2.800  39.411  10.925
57361W        W25755  20.544  17.760   0.417
57362W        W25756  27.876   8.709   5.047
57363W        W25757  31.158   2.767  14.929
57364W        W25758  34.120  15.816   0.892
57365W        W25759  25.336  21.356   1.190
57366W        W25760   7.095  12.295   1.146
57367W        W25761  23.100  29.843  11.991
57368W        W25762  35.520  20.148   3.287
57369W        W25763  42.510   8.189  13.350
57370W        W25764   0.493  11.826  12.935
57371W        W25765  35.741  28.284   4.234
57372W        W25766  13.248   9.299   3.188
57373W        W25767  40.977  12.378   1.452
57374W        W25768  43.737  19.264  13.558
57375W        W25769  32.059  39.562   0.985
57376W        W25770  43.499   0.554  13.883
57377W        W25771  34.527  34.852   0.362
57378W        W25772  36.606  27.058   2.191
57379W        W25773  35.379   2.480   2.372
57380W        W25774  41.040  22.135   1.136
57381W        W25775  37.522  42.081   4.102
57382W        W25776  15.145  23.518  12.584
57383W        W25777  44.973   4.409  11.440
57384W        W25778  26.002  31.508   0.003
57385W        W25779  38.878   1.208  12.465
57386W        W25780  23.237  34.453   1.412
57387W        W25781  35.964   8.707   0.549
57388W        W25782   8.163  37.297   4.494
57389W        W25783  26.032   7.408   4.178
57390W        W25784  33.393   1.106  13.556
57391W        W25785  38.384  35.242  12.796
57392W        W25786  17.171  12.788   5.143
57393W        W25787  18.206  38.575   4.175
57394W        W25788  32.532  40.495   4.201
57395W        W25789  14.233  38.389  11.622
57396W        W25790  12.610  43.832  12.023
57397W        W25791  22.976   6.201   3.772
57398W        W25792   8.165  19.019   2.132
57399W        W25793  16.667  37.762   4.200
57400W        W25794  42.739  16.549  14.281
57401W        W25795  18.457  33.694   3.199
57402W        W25796   9.856   2.289   1.438
57403W        W25797  43.905  34.479   4.614
57404W        W25798   0.249  42.879   4.164
57405W        W25799  11.808  29.135   0.722
57406W        W25800   8.882  16.022  14.188
57407W        W25801   8.401  15.777   0.347
57408W        W25802  22.031  20.088   0.868
57409W        W25803  12.405  36.368   3.904
57410W        W25804  44.815  44.867   3.304
57411W        W25805   6.109   3.382   4.623
57412W        W25806  40.328  39.171   5.080
57413W        W25807  27.969  10.811  10.890
57414W        W25808  35.238  37.285   1.321
57415W        W25809   5.330  30.049   4.277
57416W        W25810  27.337  44.896   2.130
57417W        W25811   8.264   2.481  13.938
57418W        W25812  29.459  24.935  12.042
57419W        W25813  14.297  17.661   3.923
57420W        W25814  35.003  11.847   0.816
57421W        W25815  22.020  32.555   0.155
57422W        W25816  10.295  26.602   2.216
57423W        W25817   2.758  20.719  10.752
57424W        W25818   7.236  36.989   3.311
57425W        W25819  19.750  41.394  14.298
57426W        W25820  23.408  28.157  10.965
57427W        W25821   1.026  11.310   1.828
57428W        W25822  18.500  25.580  12.919
57429W        W25823  12.588  38.066   2.557
57430W        W25824  22.526  41.792   0.765
57431W        W25825  32.021  13.916   4.636
57432W        W25826  34.442  42.834   2.466
57433W        W25827  26.958  15.178  14.926
57434W        W25828  40.830  14.163   0.297
57435W        W25829   6.768  39.798   4.178
57436W        W25830  24.921  18.120  14.105
57437W        W25831   2.681  24.958  10.626
57438W        W25832  44.752  41.449  13.495
57439W        W25833  32.695  12.867   0.198
57440W        W25834   4.894   1.249   1.121
57441W        W25835  27.194  30.005  11.971
57442W        W25836   3.881  15.299   4.046
57443W        W25837  27.422  44.994  14.658
57444W        W25838   8.332  36.912  11.067
57445W        W25839  39.918   1.722  14.427
57446W        W25840  22.248  11.178   2.724
57447W        W25841  32.104  20.698   4.507
57448W        W25842  20.639  13.652   0.465
57449W        W25843  15.591  34.513  10.222
57450W        W25844  23.340  28.684   3.748
57451W        W25845   2.378  12.076  14.729
57452W        W25846  34.731  37.309   1.261
57453W        W25847  39.093  15.764   4.502
57454W        W25848  30.367  31.074  13.132
57455W        W25849  34.542  21.474  12.674
57456W        W25850  16.841  39.463  10.994
57457W        W25851  37.487  30.836   2.386
57458W        W25852  40.073  24.501  13.998
57459W        W25853   3.360  28.592   3.283
57460W        W25854   6.292   6.943   5.257
57461W        W25855  21.267  38.366   2.253
57462W        W25856   0.462  43.275  14.053
57463W        W25857  41.024  30.491   3.699
57464W        W25858  32.987  27.023  11.969
57465W        W25859  11.898  24.065   2.013
57466W        W25860  34.948  37.571  14.535
57467W        W25861  15.702  20.808  14.828
57468W        W25862  12.784  41.141   2.702
57469W        W25863  34.893   9.608   0.300
57470W        W25864  28.667  39.930  14.321
57471W        W25865  15.248  10.936  13.440
57472W        W25866  27.005   7.841  10.797
57473W        W25867  10.641   7.034   1.329
57474W        W25868  15.619  33.059  12.906
57475W        W25869   3.263  15.769   1.301
57476W        W25870  15.453  38.845   2.159
57477W        W25871  25.827  24.290   2.776
57478W        W25872  13.708  19.180  12.963
57479W        W25873  35.974  20.018   0.785
57480W        W25874  23.559  39.790  13.568
57481W        W25875  17.261  18.843   3.391
57482W        W25876  38.849  10.889   0.857
57483W        W25877  19.310   8.269   1.976
57484W        W25878  14.050  39.466   2.375
57485W        W25879  20.766   0.362   1.858
57486W        W25880   6.444  15.011  11.168
57487W        W25881   6.623  41.481  10.444
57488W        W25882   2.292   9.102   0.802
57489W        W25883  30.968  23.745  11.726
57490W        W25884  42.934  41.484  13.529
57491W        W25885  41.225  21.030  14.289
57492W        W25886  22.690  17.305   3.448
57493W        W25887  23.312  25.050  11.899
57494W        W25888  40.471   1.791  13.549
57495W        W25889   8.768  42.546   3.618
57496W        W25890  29.188  10.271  12.936
57497W        W25891  43.378  13.693  12.392
57498W        W25892  31.611  17.768  11.573
57499W        W25893  32.465  28.406  14.984
57500W        W25894  38.413  43.247  12.466
57501W        W25895  17.281  41.357   4.473
57502W        W25896   2.883   8.063  13.751
57503W        W25897  32.934  11.251  14.911
57504W        W25898  10.988  15.098  11.988
57505W        W25899   2.963   5.694  13.372
57506W        W25900  29.944  40.675   2.272
57507W        W25901   8.964   7.974  10.809
57508W        W25902   8.210  31.538   4.230
57509W        W25903  25.470  21.442  14.365
57510W        W25904  13.217   7.472   1.232
57511W        W25905  18.666  15.986   0.055
57512W        W25906  20.547  42.087   1.319
57513W        W25907   2.354  24.990   1.280
57514W        W25908  24.952  30.708   1.178
57515W        W25909  32.410  41.907  12.990
57516W        W25910  27.449  23.182   4.742
57517W        W25911   9.403   0.484  11.542
57518W        W25912  28.172  28.021   4.044
57519W        W25913  14.689  39.587  14.449
57520W        W25914  27.188  40.957  14.479
57521W        W25915   6.794  37.849   0.773
57522W        W25916  23.251  22.475  11.615
57523W        W25917  11.712   0.347   4.508
57524W        W25918  31.981   6.626  11.611
57525W        W25919  20.114  23.742  10.835
57526W        W25920  25.109  19.542   1.928
57527W        W25921  35.030  17.721   4.882
57528W        W25922  27.012  19.367  14.080
57529W        W25923   4.415  37.046  13.102
57530W        W25924  12.106  35.361   0.441
57531W        W25925  17.616   1.749  10.702
57532W        W25926  25.170   7.400   2.303
57533W        W25927  27.224  15.225   0.917
57534W        W25928   5.937  12.642   4.564
57535W        W25929  28.939   0.889  11.538
57536W        W25930  44.685  26.985  14.320
57537W        W25931  16.660  10.352  14.688
57538W        W25932  31.556  18.044  14.917
57539W        W25933  40.120  21.669   1.231
57540W        W25934  29.590   4.682   3.432
57541W        W25935  25.152   2.318  11.216
57542W        W25936  17.684  22.246  11.249
57543W        W25937  40.053  14.142  14.930
57544W        W25938   5.211  13.719   2.628
57545W        W25939   5.396  10.868   0.461
57546W        W25940  37.364  40.635  12.242
57547W        W25941  39.778  30.484  14.522
57548W        W25942  20.771   6.030  10.340
57549W        W25943  10.259   4.278   0.519
57550W        W25944   8.110   4.992   0.676
57551W        W25945  41.427  32.722   1.814
57552W        W25946  27.636  28.002   4.077
57553W        W25947  35.829  40.437  14.444
57554W        W25948  36.186  30.006  14.414
57555W        W25949  15.179  13.149  12.939
57556W        W25950  21.688  27.656  14.963
57557W        W25951  11.723  37.318   3.676
57558W        W25952  16.338  42.455   2.555
57559W        W25953  29.853  26.202  14.978
57560W        W25954  18.812  44.344   2.589
57561W        W25955  25.671  31.219   0.264
57562W        W25956  20.743   9.735   3.328
57563W        W25957  30.538  38.356   4.679
57564W        W25958   2.910   2.385   2.310
57565W        W25959  13.741  39.345  14.516
57566W        W25960   7.447  43.978   2.351
57567W        W25961  33.127  15.137  12.039
57568W        W25962  41.494  20.028   4.983
57569W        W25963  25.510  11.130  14.239
57570W        W25964  29.931  14.937   0.829
57571W        W25965  19.582  41.810   1.250
57572W        W25966  12.738  35.132   2.831
57573W        W25967  25.073  13.720  12.149
57574W        W25968  37.054  41.102  14.347
57575W        W25969   3.396  33.026  11.688
57576W        W25970  39.362  35.401   1.879
57577W        W25971  16.213  16.292   2.024
57578W        W25972   4.391   7.807   3.456
57579W        W25973   8.705  28.169   4.738
57580W        W25974  21.693  32.252  11.499
57581W        W25975  44.918  40.058  11.643
57582W        W25976  10.662  20.792   1.120
57583W        W25977  26.441  17.800   3.728
57584W        W25978   9.964   0.552  11.049
57585W        W25979   5.096  11.666  11.148
57586W        W25980  20.064  22.750  12.367
57587W        W25981  14.224  16.294   3.125
57588W        W25982   5.587  31.748   4.254
57589W        W25983  40.517  36.658  13.063
57590W        W25984  41.497   0.803   0.318
57591W        W25985  15.040  37.509   2.254
57592W        W25986  20.744  24.231   4.613
57593W        W25987  31.920  37.341   0.313
57594W        W25988   9.324  27.125   4.110
57595W        W25989  37.920  21.534  13.154
57596W        W25990  36.170  32.630  14.733
57597W        W25991  38.523  13.047  14.763
57598W        W25992   1.321  13.658  11.184
57599W        W25993   6.173  20.902   2.383
57600W        W25994  22.897   1.189  10.171
57601W        W25995  32.089  43.363   1.247
57602W        W25996  42.890   9.040   4.738
57603W        W25997  29.730  40.166   4.179
57604W        W25998  35.303   5.374  11.053
57605W        W25999  41.689  26.534  13.470
57606W        W26000   4.632   1.255  10.335
57607W        W26001  34.456   3.953  11.978
57608W        W26002  39.612  40.996  14.308
57609W        W26003   0.734  35.287   2.914
57610W        W26004  27.658  16.735   1.036
57611W        W26005  39.852  24.794  14.371
57612W        W26006  26.187   9.093  13.485
57613W        W26007  43.308  30.211   3.773
57614W        W26008  38.707  33.918  13.643
57615W        W26009  40.485  38.585  10.770
57616W        W26010  18.434  25.523   0.826
57617W        W26011   1.685  20.009   2.767
57618W        W26012  25.111  19.718   3.878
57619W        W26013  35.397  19.231  12.367
57620W        W26014  28.364  30.218  11.109
57621W        W26015  32.102  27.224   4.564
57622W        W26016  13.091  35.542  12.166
57623W        W26017  44.285  10.141   2.825
57624W        W26018  12.757   6.313   1.797
57625W        W26019  20.363  21.108  14.808
57626W        W26020  25.740   8.359   2.887
57627W        W26021   5.992  13.704   2.382
57628W        W26022  39.952  24.137   1.293
57629W        W26023  26.244  15.117  11.886
57630W        W26024  17.792  28.519  12.077
57631W        W26025  10.674  10.144   2.678
57632W        W26026  35.105  25.562   2.397
57633W        W26027  22.035  31.484   0.614
57634W        W26028  18.097   6.975  11.515
57635W        W26029  32.626  14.378   2.172
57636W        W26030  39.513  33.868  10.630
57637W        W26031  14.082  15.362  13.437
57638W        W26032   8.703   9.883  12.604
57639W        W26033  41.762  27.725  11.536
57640W        W26034  44.454  30.534  14.895
57641W        W26035  16.565  43.129   4.176
57642W        W26036   9.394  33.657  13.328
57643W        W26037  35.310  30.519   3.134
57644W        W26038  25.973   7.296  12.799
57645W        W26039  19.015  18.080  13.868
57646W        W26040  38.183  37.286   4.991
57647W        W26041  36.783  18.076  14.213
57648W        W26042  17.564  44.763   1.262
57649W        W26043  23.935   8.711   1.739
57650W        W26044  22.273   9.128   3.969
57651W        W26045  43.820   8.853  12.087
57652W        W26046  32.118  44.738   2.886
57653W        W26047   4.855   4.277  14.959
57654W        W26048  11.422  27.540  11.175
57655W        W26049  23.301  12.214  12.354
57656W        W26050  44.874  28.250  13.935
57657W        W26051  43.475   5.387  14.416
57658W        W26052  12.387   9.902  12.956
57659W        W26053  31.139   7.437   4.647
57660W        W26054  26.649  37.589  12.009
57661W        W26055  24.034  21.823   1.207
57662W        W26056  13.649   0.943   3.433
57663W        W26057  10.280  11.126  14.580
57664W        W26058   8.745  13.440   2.710
57665W        W26059  18.799   2.935  10.999
57666W        W26060  18.817  26.429   1.859
57667W        W26061  19.169  25.164  12.645
57668W        W26062  19.501  39.308  11.653
57669W        W26063  27.029   4.536   0.483
57670W        W26064  27.037  28.388  13.952
57671W        W26065   8.889   5.257   4.253
57672W        W26066  26.829  10.739  13.074
57673W        W26067  17.705  18.541  12.121
57674W        W26068  34.633   6.766   4.327
57675W        W26069   5.953   4.511   1.456
57676W        W26070  13.184  14.302  14.518
57677W        W26071  10.813  40.968  12.587
57678W        W26072  30.539   5.701   3.627
57679W        W26073  44.527  28.846  14.510
57680W        W26074  44.058  30.255   0.558
57681W        W26075  32.575  18.145   2.650
57682W        W26076  35.954  11.685   0.228
57683W        W26077  31.554  39.605   1.686
57684W        W26078  27.454  42.019  14.424
57685W        W26079  15.469   7.688  12.589
57686W        W26080  11.875  39.677   1.036
57687W        W26081   7.210  23.588  12.199
57688W        W26082  20.133  22.065   0.917
57689W        W26083  20.660  42.313   0.844
57690W        W26084  39.287  33.209  13.497
57691W        W26085  18.102   5.466  10.946
57692W        W26086  27.748  22.122  12.527
57693W        W26087  15.279  34.381   2.143
57694W        W26088  41.713  36.598   3.361
57695W        W26089  16.091  37.407  10.307
57696W        W26090  42.944  30.860  13.814
57697W        W26091  28.214  21.677  11.557
57698W        W26092   4.249  27.869   1.375
57699W        W26093  36.166  33.407   3.634
57700W        W26094  25.153  28.718  14.002
57701W        W26095  17.389  36.928   5.378
57702W        W26096  10.474  43.989   4.280
57703W        W26097  43.817   1.347   4.583
57704W        W26098  41.857  36.441   2.659
57705W        W26099  28.179  32.490  14.648
57706W        W26100  32.485  25.509  11.594
57707W        W26101  22.565  17.332  14.808
57708W        W26102  24.013  30.541   3.669
57709W        W26103  37.719  15.277  13.945
57710W        W26104   1.256  20.271   4.613
57711W        W26105  32.836  40.544   0.933
57712W        W26106  42.744   9.300  14.947
57713W        W26107  26.102  33.702   1.213
57714W        W26108  43.581  36.202   0.264
57715W        W26109  36.903   1.997  14.959
57716W        W26110  15.569   6.401   2.355
57717W        W26111  37.901  27.129  13.602
57718W        W26112  30.713   4.271   3.758
57719W        W26113   4.628  32.988  11.936
57720W        W26114   4.312  21.241  13.894
57721W        W26115  14.417  16.880  12.662
57722W        W26116  20.709  15.200   4.217
57723W        W26117  16.273  12.917   2.334
57724W        W26118   5.823  41.936  11.539
57725W        W26119  40.233  29.413  10.717
57726W        W26120  31.337  26.243   0.195
57727W        W26121  25.006   2.275  14.098
57728W        W26122  44.764  20.250  12.491
57729W        W26123  37.541  30.884   0.534
57730W        W26124  10.847  43.101  11.383
57731W        W26125  20.322  42.350   1.712
57732W        W26126  23.723  18.404   1.903
57733W        W26127  26.320  10.611  14.596
57734W        W26128   8.407  23.081  13.427
57735W        W26129   6.467  33.359  10.726
57736W        W26130  10.190   3.049  10.663
57737W        W26131  18.440  32.992  12.264
57738W        W26132  16.717   5.242  12.094
57739W        W26133   8.358  42.136   4.417
57740W        W26134  12.892   9.704  10.321
57741W        W26135   2.366  40.804   1.518
57742W        W26136  25.978  43.284   3.076
57743W        W26137   8.866   1.839  10.353
57744W        W26138  42.992  43.252  11.081
57745W        W26139  30.931  44.531   1.802
57746W        W26140  16.317  23.639   0.298
57747W        W26141  37.980  15.107  12.159
57748W        W26142  22.423  35.855  12.947
57749W        W26143  30.169  23.724  12.050
57750W        W26144  34.951  37.531   4.902
57751W        W26145  39.905  38.372  11.478
57752W        W26146  21.494  19.836   4.316
57753W        W26147   8.370  38.599  12.920
57754W        W26148  11.233  31.875   3.267
57755W        W26149  18.691  22.471   1.354
57756W        W26150  14.187  39.764  10.553
57757W        W26151   4.179  39.126   1.128
57758W        W26152  43.659   6.783  14.371
57759W        W26153  44.306  23.305   1.753
57760W        W26154  42.430  41.368   0.739
57761W        W26155   3.559  31.456  12.782
57762W        W26156  21.442  24.834  10.285
57763W        W26157  15.583  42.973   3.171
57764W        W26158  22.806  24.891  11.992
57765W        W26159  19.477  18.329   0.627
57766W        W26160  32.886  42.496  11.557
57767W        W26161   1.813  28.726   0.436
57768W        W26162   4.153   4.787   2.698
57769W        W26163   6.767  41.112  13.074
57770W        W26164  25.172  30.686  12.935
57771W        W26165  42.364  22.199  12.923
57772W        W26166  16.795  29.384   4.717
57773W        W26167   4.687  13.648   1.796
57774W        W26168  44.035  41.442  12.143
57775W        W26169  36.394  14.088   3.246
57776W        W26170   2.107   3.409   2.741
57777W        W26171  38.115  32.702  13.354
57778W        W26172  24.657  19.958   1.139
57779W        W26173   9.763  25.107   1.734
57780W        W26174  18.680  37.565  12.881
57781W        W26175   2.746  28.977   4.655
57782W        W26176   9.728   1.251   0.077
57783W        W26177  20.135  29.251  12.011
57784W        W26178  38.472  44.056  12.952
57785W        W26179  26.500  17.705   2.156
57786W        W26180  22.068  11.300  13.945
57787W        W26181  44.562  14.803   4.688
57788W        W26182  30.088   3.777   2.632
57789W        W26183  12.170  25.594   3.652
57790W        W26184   9.860  26.507   1.329
57791W        W26185   5.382   4.821   1.841
57792W        W26186  18.702  23.352  14.278
57793W        W26187   4.511  43.608   0.015
57794W        W26188  13.564  31.735   4.246
57795W        W26189  36.400  16.788   0.206
57796W        W26190   5.634  44.549   0.283
57797W        W26191  14.915  44.442   3.813
57798W        W26192  44.384  30.369   1.854
57799W        W26193  33.575  27.176  11.080
57800W        W26194  38.904  12.189   1.272
57801W        W26195  17.740  24.717   4.845
57802W        W26196  14.808   5.908   2.424
57803W        W26197  16.802  37.311  13.794
57804W        W26198  29.225   4.195  12.513
57805W        W26199  16.896   0.219   2.759
57806W        W26200  35.460  16.795  13.917
57807W        W26201   8.723   6.084  12.790
57808W        W26202  11.454  16.384   4.081
57809W        W26203   8.288  21.829   2.640
57810W        W26204  19.459  14.526  14.469
57811W        W26205   2.990   0.262  10.788
57812W        W26206  11.579  14.285   4.517
57813W        W26207  32.805  17.518  14.849
57814W        W26208  40.915  34.581  12.688
57815W        W26209  22.802   6.203  13.877
57816W        W26210  37.811  38.959   1.317
57817W        W26211  19.662   5.612   1.363
57818W        W26212  25.592  32.139   1.203
57819W        W26213  21.935  34.111   1.452
57820W        W26214  36.986   3.519  13.929
57821W        W26215  32.243  27.741  14.526
57822W        W26216  17.424  31.841   2.955
57823W        W26217  26.445  14.795   2.454
57824W        W26218   6.860   0.436   0.486
57825W        W26219   0.158  14.938  11.467
57826W        W26220   3.614  33.589  11.668
57827W        W26221  10.428  19.175   0.649
57828W        W26222   4.901  19.001  12.163
57829W        W26223  24.147  15.324   2.776
57830W        W26224  11.728   8.028   3.163
57831W        W26225   7.157  26.341   9.601
57832W        W26226  39.131  32.741   2.242
57833W        W26227   6.396  19.837   1.903
57834W        W26228  42.470  39.852   4.201
57835W        W26229  43.755   1.932  10.425
57836W        W26230  40.057  42.823   2.365
57837W        W26231  13.796  21.505   1.235
57838W        W26232  12.896  17.023   1.815
57839W        W26233  14.064  33.641  12.945
57840W        W26234   7.717  39.471  13.430
57841W        W26235  44.991  35.654  12.015
57842W        W26236  20.605   1.399   4.546
57843W        W26237   0.586   4.345  13.361
57844W        W26238  19.394  14.493  13.482
57845W        W26239  17.256  24.782   3.232
57846W        W26240  17.310  21.494   1.839
57847W        W26241  36.802  35.160   0.010
57848W        W26242  30.029   2.660   4.228
57849W        W26243  43.358  27.660   4.659
57850W        W26244  28.418   4.209  13.531
57851W        W26245  15.882  17.149   4.221
57852W        W26246  34.910   8.814   4.179
57853W        W26247   5.950  28.401  14.437
57854W        W26248  41.965   7.151   3.701
57855W        W26249  26.522  35.629  10.794
57856W        W26250  44.075   6.042   3.347
57857W        W26251  20.734  11.635   1.245
57858W        W26252  43.053  19.035  12.361
57859W        W26253  31.489   0.993  13.990
57860W        W26254  42.650  40.255  10.568
57861W        W26255  10.834  41.812  13.734
57862W        W26256  30.669  38.347   1.301
57863W        W26257  13.923  38.936  13.779
57864W        W26258  40.334  11.364   1.889
57865W        W26259  39.338  21.303  11.723
57866W        W26260  32.197  26.294  12.935
57867W        W26261  32.149  40.960   1.932
57868W        W26262   0.789  37.384  12.073
57869W        W26263  32.815  21.819  13.407
57870W        W26264  14.704  20.631   4.043
57871W        W26265  29.478   9.226   4.007
57872W        W26266  39.790   4.952  14.379
57873W        W26267  20.728  42.200  11.957
57874W        W26268   0.301   8.281  14.310
57875W        W26269  14.530  17.040   1.236
57876W        W26270   3.973   9.905   0.975
57877W        W26271  31.482  22.610  14.557
57878W        W26272  28.263   3.025  12.553
57879W        W26273  15.454   0.462   1.665
57880W        W26274  14.098   7.192   2.793
57881W        W26275  16.229  22.447  13.247
57882W        W26276   5.218  21.012  11.714
57883W        W26277  17.825   0.744   3.909
57884W        W26278  39.373   8.354   4.868
57885W        W26279   4.525   1.507  14.761
57886W        W26280  36.297   2.809   0.750
57887W        W26281  35.740  22.789  11.649
57888W        W26282  18.067  27.672   0.257
57889W        W26283  32.155  16.634   3.294
57890W        W26284  14.885  25.511  11.589
57891W        W26285  39.343  11.893  14.331
57892W        W26286  29.637  26.177  14.351
57893W        W26287   6.637  12.587   0.983
57894W        W26288  38.852   1.010  12.977
57895W        W26289  11.026  32.044  14.962
57896W        W26290  20.878  11.247   2.340
57897W        W26291   4.927   8.890   2.877
57898W        W26292  23.191  24.561  12.141
57899W        W26293  36.797  36.997   0.413
57900W        W26294  13.083  26.620   2.362
57901W        W26295   2.342  10.786   2.821
57902W        W26296  16.352  26.111   4.647
57903W        W26297  30.659   7.964   1.830
57904W        W26298  32.933  21.589  10.556
57905W        W26299  34.896   3.602   5.123
57906W        W26300  34.497  32.347   4.878
57907W        W26301  43.536  44.363  13.032
57908W        W26302  39.355  41.322  14.607
57909W        W26303  14.314  44.306   0.442
57910W        W26304  33.107  19.956  12.037
57911W        W26305  27.916  27.717   1.247
57912W        W26306  35.070   6.401   3.256
57913W        W26307  42.462  29.412   3.533
57914W        W26308  14.220  43.895   0.752
57915W        W26309  17.040  31.407   0.405
57916W        W26310  26.571   7.258  12.938
57917W        W26311  41.559  11.313  11.133
57918W        W26312  19.635  21.936   2.723
57919W        W26313  32.209   3.669   4.097
57920W        W26314   0.808   8.411  14.291
57921W        W26315  21.994  44.861  10.546
57922W        W26316  36.489  30.226  14.773
57923W        W26317   0.433  31.083  12.384
57924W        W26318   8.725   3.326   2.890
57925W        W26319  32.026  21.065   0.783
57926W        W26320  24.679   7.904   1.798
57927W        W26321  24.593  37.630  13.069
57928W        W26322  33.516  40.906  11.960
57929W        W26323  20.774  16.274   3.225
57930W        W26324  33.919   6.213   2.665
57931W        W26325  24.134   7.306   3.778
57932W        W26326  40.852  38.942   3.736
57933W        W26327   7.120  10.210  12.009
57934W        W26328   7.772  14.372   0.445
57935W        W26329  12.315  21.722   3.075
57936W        W26330  11.758  15.729  14.824
57937W        W26331  38.452  12.791   0.216
57938W        W26332  18.707  28.925  11.691
57939W        W26333  39.797   2.039   1.989
57940W        W26334   4.732  34.706   2.637
57941W        W26335   2.094  14.034   0.778
57942W        W26336   4.739  19.165   2.354
57943W        W26337  10.422  27.591   2.352
57944W        W26338   2.803  13.302   1.779
57945W        W26339   8.190  13.821   3.225
57946W        W26340  40.779  34.858  11.374
57947W        W26341  18.566  12.502   4.750
57948W        W26342  30.997  11.619   4.581
57949W        W26343   5.590  21.338  13.466
57950W        W26344   5.189   3.909  14.765
57951W        W26345  37.131   2.997   1.299
57952W        W26346   1.322  34.817  12.058
57953W        W26347   1.469  44.907   1.207
57954W        W26348  32.473   0.204  14.954
57955W        W26349  28.638   5.881  12.926
57956W        W26350  31.230  10.760  12.513
57957W        W26351  38.480  40.771  14.270
57958W        W26352  20.467  23.557  11.168
57959W        W26353  39.876   1.902   2.899
57960W        W26354  15.745  19.700   2.750
57961W        W26355  14.408  11.224   1.202
57962W        W26356   6.851  37.889   4.231
57963W        W26357   6.769  19.493  11.165
57964W        W26358  25.095  34.912   2.690
57965W        W26359  29.915  27.143  13.927
57966W        W26360   3.387  31.251   4.117
57967W        W26361  34.477  35.372   4.689
57968W        W26362  24.244   1.620  13.962
57969W        W26363  26.215   7.226  11.127
57970W        W26364   8.261   0.096   3.201
57971W        W26365  24.710  13.327   0.304
57972W        W26366   4.663   4.178  13.075
57973W        W26367  35.892  24.722   4.174
57974W        W26368  23.485  20.295   1.820
57975W        W26369  22.174  27.948  14.333
57976W        W26370  26.219  31.575  12.541
57977W        W26371  16.576   0.308  12.344
57978W        W26372  44.999   6.117   1.468
57979W        W26373  15.204   3.656  10.540
57980W        W26374  39.794   6.908   0.237
57981W        W26375   1.637   1.436  13.397
57982W        W26376  30.233  10.665   2.787
57983W        W26377  25.170  20.005  12.022
57984W        W26378   9.640   7.189   4.055
57985W        W26379  22.758   1.232   3.355
57986W        W26380   0.068  30.102   0.728
57987W        W26381  37.571  14.440   4.215
57988W        W26382   2.941  17.753   2.179
57989W        W26383  15.424  24.544   0.210
57990W        W26384   5.641  35.622   3.892
57991W        W26385  10.957  22.010  14.299
57992W        W26386   2.846  14.633   0.887
57993W        W26387  16.304   6.238   4.204
57994W        W26388  17.524   5.665  14.027
57995W        W26389  15.242  10.213  11.653
57996W        W26390  19.770  27.127   2.220
57997W        W26391  16.137  30.406   1.779
57998W        W26392  12.340  20.675  11.459
57999W        W26393  29.301   6.823  11.493
58000W        W26394  24.819  12.775  14.307
58001W        W26395  10.742  26.175   4.059
58002W        W26396  40.870  41.812   3.231
58003W        W26397  18.864  14.300  11.829
58004W        W26398  19.233  24.437  13.914
58005W        W26399  23.911   7.690   0.339
58006W        W26400   1.462  14.200   2.162
58007W        W26401  36.537  25.907  12.011
58008W        W26402   6.185  32.620  12.540
58009W        W26403  13.702  23.131  11.599
58010W        W26404  19.870  18.084  14.712
58011W        W26405  28.722  23.075  11.692
58012W        W26406  18.519  18.618   0.208
58013W        W26407  23.631  30.700   4.631
58014W        W26408  37.495  12.829   1.862
58015W        W26409  25.450   0.118  12.501
58016W        W26410  24.263   3.314   2.773
58017W        W26411  31.548  12.132   3.036
58018W        W26412  24.662   9.584   5.272
58019W        W26413  25.676  23.573   1.488
58020W        W26414   1.990  10.253   0.444
58021W        W26415   8.733  41.767   2.294
58022W        W26416  22.218  10.590   0.366
58023W        W26417  37.468  38.028  10.124
58024W        W26418  44.426  22.198   3.168
58025W        W26419   8.920   8.805  10.520
58026W        W26420  42.096  23.749  13.471
58027W        W26421   6.879   9.249   3.369
58028W        W26422  32.388   1.156   3.821
58029W        W26423  40.458  30.583   4.540
58030W        W26424  41.539  10.072  11.623
58031W        W26425  24.440  17.172   1.457
58032W        W26426   2.532  26.440  12.980
58033W        W26427   5.770  18.778  14.128
58034W        W26428  34.166  32.453   2.049
58035W        W26429  30.013  35.542   3.663
58036W        W26430  37.019   8.423   3.253
58037W        W26431  36.485  36.078   2.425
58038W        W26432   1.855  22.533   3.790
58039W        W26433  19.458   6.212   3.753
58040W        W26434   8.181  13.675   1.035
58041W        W26435  16.273  21.664  11.492
58042W        W26436  37.362  17.580  10.547
58043W        W26437  30.209  26.967  10.749
58044W        W26438  15.789  11.346  13.732
58045W        W26439   3.928   2.704  11.868
58046W        W26440  28.560  25.986   3.127
58047W        W26441  13.715  37.586   1.155
58048W        W26442   1.805   8.580   1.905
58049W        W26443  32.917  43.304  10.614
58050W        W26444   4.427  37.191   2.222
58051W        W26445  44.517   5.145   2.765
58052W        W26446  34.087  21.813   0.591
58053W        W26447   3.356  20.995   5.060
58054W        W26448   3.295   5.499   4.643
58055W        W26449  32.681   4.663  11.555
58056W        W26450  37.911  13.183   3.939
58057W        W26451  16.817  33.862   3.731
58058W        W26452  24.950  39.553  10.622
58059W        W26453  35.001  28.336   3.627
58060W        W26454  30.516   6.310   4.532
58061W        W26455   6.831   6.561   5.244
58062W        W26456  25.423  35.852  14.814
58063W        W26457  24.731  36.860  11.215
58064W        W26458  25.638  39.616   2.212
58065W        W26459  44.431  13.824   0.546
58066W        W26460  15.846  29.136   0.966
58067W        W26461  14.812   4.922  10.744
58068W        W26462  32.567  36.942  14.237
58069W        W26463   9.175  19.166   0.447
58070W        W26464  17.728  24.761   3.625
58071W        W26465  26.445   2.127  14.804
58072W        W26466  17.302  40.041  12.011
58073W        W26467  42.704   6.864  13.451
58074W        W26468   7.767  16.976  14.943
58075W        W26469  39.066  16.193   0.365
58076W        W26470  18.321   2.340  13.022
58077W        W26471  17.204  22.221   0.543
58078W        W26472  14.640  40.996   2.108
58079W        W26473   1.871  28.927  12.435
58080W        W26474  16.104  25.104   0.465
58081W        W26475  25.524  37.455  13.548
58082W        W26476  31.906  11.779   4.054
58083W        W26477  25.636   2.883  10.814
58084W        W26478  30.548  20.209  13.223
58085W        W26479  35.422   6.271   1.275
58086W        W26480   1.163  21.632  13.455
58087W        W26481   7.890   0.072   1.382
58088W        W26482  12.324  23.203  14.112
58089W        W26483  25.592   7.902  11.585
58090W        W26484  14.114   9.170  10.716
58091W        W26485  29.325  39.871   1.748
58092W        W26486  19.221  21.782  11.472
58093W        W26487  24.781  15.143  12.049
58094W        W26488  25.271  32.420   0.900
58095W        W26489  14.555   4.956  11.550
58096W        W26490  26.904   6.077  13.049
58097W        W26491   5.319  32.597  14.075
58098W        W26492  33.458   0.506   1.513
58099W        W26493  18.010   3.758   2.347
58100W        W26494   6.261  43.052   4.206
58101W        W26495  29.662  10.706   0.192
58102W        W26496   0.301  25.524   4.612
58103W        W26497  24.268  29.502   4.726
58104W        W26498  15.358  32.056   0.247
58105W        W26499  22.258  34.928   2.272
58106W        W26500  13.603  18.507  12.051
58107W        W26501  22.879  28.962   4.150
58108W        W26502  37.006  13.111  13.911
58109W        W26503  40.922   5.816   3.419
58110W        W26504  33.374   7.572  13.260
58111W        W26505  41.090   4.061   3.780
58112W        W26506   0.870  13.620   4.594
58113W        W26507  42.882   6.119  14.038
58114W        W26508  36.792  21.487   4.369
58115W        W26509  21.002  15.898   4.527
58116W        W26510   1.019   1.903  13.821
58117W        W26511  16.675  33.214  11.762
58118W        W26512  21.484  38.898  13.950
58119W        W26513  28.479  37.085   0.819
58120W        W26514   8.014   5.660   2.269
58121W        W26515   6.318  21.312   4.448
58122W        W26516  37.793  20.070  11.619
58123W        W26517  29.473  35.858  13.359
58124W        W26518  22.011  15.879  11.589
58125W        W26519   1.097  36.545   4.107
58126W        W26520  24.268  40.932  13.102
58127W        W26521  23.488   4.295  13.424
58128W        W26522  14.346   5.280   4.916
58129W        W26523  11.740   4.530  11.637
58130W        W26524  25.431  32.297  14.408
58131W        W26525  32.463   2.888  14.101
58132W        W26526  37.378  31.923   1.465
58133W        W26527  14.041  25.764   4.625
58134W        W26528   8.489   1.052  13.762
58135W        W26529  40.385  25.648   2.409
58136W        W26530  22.553  26.567   2.520
58137W        W26531  18.287  42.421  14.395
58138W        W26532  27.967  37.375   0.151
58139W        W26533  26.516   0.710   0.982
58140W        W26534  29.637  19.995   3.545
58141W        W26535  15.098  26.256   0.744
58142W        W26536   2.889  36.559   4.853
58143W        W26537  39.710   0.291  11.501
58144W        W26538  34.528   7.177  10.716
58145W        W26539  44.791  34.593   4.130
58146W        W26540  17.692  42.279   0.764
58147W        W26541  44.796  10.130  14.947
58148W        W26542  18.469  10.221   4.934
58149W        W26543  44.926   6.586   3.150
58150W        W26544  19.826  30.120   2.323
58151W        W26545  27.954  30.459  10.405
58152W        W26546   0.941  10.115   1.948
58153W        W26547   7.866   2.855   1.206
58154W        W26548  36.376  21.294   2.755
58155W        W26549   1.312  34.442   4.573
58156W        W26550  43.109  27.002   1.293
58157W        W26551  24.047  22.025  13.477
58158W        W26552  37.910  12.666  10.925
58159W        W26553   9.375  24.278  13.877
58160W        W26554  32.339  24.554  11.219
58161W        W26555  40.534  16.186  13.559
58162W        W26556  13.700  25.075   3.950
58163W        W26557   7.613  12.999  14.799
58164W        W26558  41.071  38.301   4.560
58165W        W26559   4.850  41.012   0.899
58166W        W26560  18.748  32.970   0.856
58167W        W26561  35.904  34.838  11.753
58168W        W26562  33.333  27.259  10.597
58169W        W26563  33.509  34.821  11.256
58170W        W26564   3.920  31.989   0.575
58171W        W26565  38.795  35.296  11.174
58172W        W26566  44.003  43.305   2.799
58173W        W26567  30.076  13.256   3.194
58174W        W26568  14.215  44.805  12.429
58175W        W26569   9.767  10.503  13.094
58176W        W26570  12.667  38.564  14.957
58177W        W26571  27.127  30.161   2.675
58178W        W26572  18.066  11.760  10.798
58179W        W26573   3.711  19.858   4.642
58180W        W26574   7.304   4.744  14.862
58181W        W26575   8.891  15.729  11.260
58182W        W26576  26.540  11.746   1.429
58183W        W26577  40.360  42.504   3.370
58184W        W26578   6.626  25.037  11.603
58185W        W26579  44.788   2.717  11.594
58186W        W26580  18.521  14.388  12.191
58187W        W26581  38.546   3.282  13.715
58188W        W26582  37.789   8.439   0.848
58189W        W26583  23.527   8.386   2.268
58190W        W26584  36.380  44.050   0.942
58191W        W26585   8.833   6.880   1.670
58192W        W26586  19.376  42.035   3.216
58193W        W26587  38.046   7.218   3.386
58194W        W26588   6.708   8.381  13.269
58195W        W26589   3.077  31.693   1.969
58196W        W26590   5.268  38.567   0.027
58197W        W26591   2.440   3.972  12.837
58198W        W26592  19.551  36.817  14.465
58199W        W26593  24.507   1.466   2.691
58200W        W26594  38.354  20.726   3.879
58201W        W26595   2.902  16.227   3.277
58202W        W26596   2.246  39.564  12.601
58203W        W26597  36.213  17.204   0.884
58204W        W26598  15.037   7.497   0.722
58205W        W26599   1.389  31.438  12.097
58206W        W26600   2.357  36.967  12.051
58207W        W26601  23.357  37.537   1.762
58208W        W26602  27.506  37.436  14.464
58209W        W26603  43.377  28.909  13.997
58210W        W26604   2.847   8.793  14.796
58211W        W26605   6.542  16.324   4.543
58212W        W26606  28.895  14.685   5.059
58213W        W26607  37.044  27.016   2.460
58214W        W26608  26.649  14.370  10.598
58215W        W26609  14.260   0.359  12.770
58216W        W26610  21.600  17.534   4.205
58217W        W26611   7.910  15.259   4.211
58218W        W26612  22.677  34.983  13.932
58219W        W26613  33.655  16.014  11.862
58220W        W26614   7.873  27.734   2.665
58221W        W26615  35.625  40.483   4.107
58222W        W26616  14.556  43.329  12.968
58223W        W26617  23.004  35.398   2.442
58224W        W26618  41.019  16.033  11.544
58225W        W26619  22.568  40.477  13.068
58226W        W26620  10.418  17.748  11.988
58227W        W26621   3.394  22.472   0.875
58228W        W26622  16.169  28.826   4.491
58229W        W26623  40.618   5.007  10.714
58230W        W26624  37.434   6.907   4.869
58231W        W26625  40.863  36.879  10.923
58232W        W26626  13.684  42.922  13.451
58233W        W26627   3.847  15.002  14.229
58234W        W26628  44.867  25.678   1.925
58235W        W26629  25.851  29.864   3.081
58236W        W26630  44.248  44.326   4.929
58237W        W26631  35.188  34.274  14.803
58238W        W26632   2.630  17.229   4.332
58239W        W26633  44.315  40.452   4.533
58240W        W26634  11.861  26.472  10.102
58241W        W26635   3.410  37.094   1.725
58242W        W26636  19.048  20.635  11.987
58243W        W26637  18.393   1.872  11.639
58244W        W26638  18.198  41.711   5.408
58245W        W26639  26.193   2.807  12.902
58246W        W26640  16.061  41.825  13.393
58247W        W26641  16.670  23.177   4.461
58248W        W26642  35.366  30.980   3.922
58249W        W26643  36.970  38.047  13.889
58250W        W26644  33.395   4.090  12.900
58251W        W26645  41.306  36.020   5.105
58252W        W26646  19.114  23.567  11.718
58253W        W26647  36.280   1.271   2.329
58254W        W26648  13.763  35.976   2.796
58255W        W26649  36.376  11.846   2.440
58256W        W26650  28.234   8.510  10.269
58257W        W26651  39.147  17.563   2.365
58258W        W26652  28.185  36.367  13.078
58259W        W26653  20.710  13.340   3.808
58260W        W26654  18.307  20.775  13.063
58261W        W26655  43.427  14.254  12.531
58262W        W26656  26.585  12.694  14.461
58263W        W26657   9.572  28.440   2.744
58264W        W26658   2.386  31.566  13.003
58265W        W26659  40.724  27.515   3.698
58266W        W26660  26.002  23.049   1.817
58267W        W26661   7.871   7.237   2.207
58268W        W26662   0.039  39.049  10.630
58269W        W26663  16.251   4.437  14.040
58270W        W26664  25.199   5.986  11.460
58271W        W26665   7.112  12.322  11.553
58272W        W26666  33.802   9.153  13.422
58273W        W26667   6.919  42.316   2.157
58274W        W26668   5.722  44.701   3.299
58275W        W26669  17.204  35.432   0.316
58276W        W26670  17.224  28.422  12.650
58277W        W26671  29.508  22.996  12.035
58278W        W26672   8.423  26.593   2.274
58279W        W26673  21.344  18.049   3.134
58280W        W26674  17.194  11.819  14.016
58281W        W26675  20.964   2.190  10.725
58282W        W26676   1.383   9.368   1.619
58283W        W26677  29.225   2.778   3.575
58284W        W26678  41.228  23.022  12.994
58285W        W26679  14.737  11.452   3.073
58286W        W26680  32.659  15.848  14.564
58287W        W26681  39.189  33.823   0.555
58288W        W26682  23.324  13.157   3.779
58289W        W26683  41.036  32.685   0.888
58290W        W26684  12.313  22.932  12.520
58291W        W26685   3.769  16.424  11.541
58292W        W26686   5.883   2.025   1.034
58293W        W26687  40.028  25.240   2.434
58294W        W26688  31.548  41.890  10.933
58295W        W26689  39.433  29.387   2.356
58296W        W26690  25.939   4.073   3.821
58297W        W26691  42.769  13.185  11.145
58298W        W26692   4.281   1.774   4.294
58299W        W26693  36.306  26.660   4.278
58300W        W26694  36.114  21.519  14.956
58301W        W26695   4.341  20.703  14.971
58302W        W26696  42.002  43.385  12.027
58303W        W26697   0.294   7.556  12.726
58304W        W26698  34.066  30.411  12.853
58305W        W26699  40.616   3.385  12.117
58306W        W26700  44.810   9.957   1.667
58307W        W26701  29.115  10.192  14.843
58308W        W26702  34.141  42.303  12.939
58309W        W26703  17.640  27.387   4.333
58310W        W26704   5.243   6.650   2.569
58311W        W26705  34.037  11.603   2.470
58312W        W26706  28.674  31.392  11.675
58313W        W26707   7.313  19.763   0.830
58314W        W26708   0.488  15.850  14.883
58315W        W26709  10.632  19.179  12.049
58316W        W26710  40.907  26.744   2.861
58317W        W26711   9.063   3.663  14.432
58318W        W26712   2.245   0.713  11.607
58319W        W26713  43.088  23.915   0.684
58320W        W26714  23.263  11.198   0.858
58321W        W26715   6.652   2.387  11.771
58322W        W26716  16.670   9.427  11.116
58323W        W26717  26.911  32.350  11.488
58324W        W26718  12.406   4.287  11.052
58325W        W26719  32.643  26.083   2.805
58326W        W26720  23.929  15.350  10.425
58327W        W26721   7.210  37.402  13.855
58328W        W26722  28.040  10.606   2.866
58329W        W26723   1.578  10.746  12.839
58330W        W26724  39.073  15.215  13.593
58331W        W26725  22.965   7.332  10.508
58332W        W26726  20.151  31.861  12.938
58333W        W26727  30.402   2.984  11.917
58334W        W26728  19.008  30.463   2.328
58335W        W26729  32.422  43.935  13.635
58336W        W26730  14.834  40.894   1.620
58337W        W26731  38.366  23.320   1.794
58338W        W26732  27.284   5.257   1.755
58339W        W26733   3.462  27.010  13.430
58340W        W26734  26.961   5.984   4.565
58341W        W26735  28.177  14.735   2.837
58342W        W26736  15.547  24.669   4.132
58343W        W26737  44.337   5.624  13.335
58344W        W26738  23.964   8.329  12.394
58345W        W26739   0.732  40.507   4.081
58346W        W26740  30.931  24.769   2.727
58347W        W26741  10.104   8.285  11.589
58348W        W26742  15.787  14.347  11.512
58349W        W26743  40.962  34.352  14.022
58350W        W26744   7.899   4.615   0.962
58351W        W26745   1.957  34.988  14.736
58352W        W26746   4.896  27.182  12.630
58353W        W26747  39.387  17.577   3.375
58354W        W26748  10.114  23.356   2.055
58355W        W26749  19.978  37.586  14.295
58356W        W26750  36.456   6.484   1.929
58357W        W26751  33.879  33.826  13.299
58358W        W26752   1.019  24.649  12.263
58359W        W26753  29.735  31.990  14.846
58360W        W26754  43.235  43.510  14.521
58361W        W26755  25.697  36.534  11.658
58362W        W26756  37.026  42.817  12.984
58363W        W26757  27.917  39.877  13.827
58364W        W26758  27.761  15.391   2.841
58365W        W26759   7.216   7.461  10.403
58366W        W26760  30.519  44.966   2.215
58367W        W26761   4.812  31.609   3.715
58368W        W26762  11.403  35.402   3.697
58369W        W26763  37.258  14.818   0.610
58370W        W26764  17.779  10.610   3.217
58371W        W26765   7.363   4.270  12.508
58372W        W26766  14.454   5.004   3.623
58373W        W26767   8.700   9.162   0.240
58374W        W26768   0.934  34.582  14.357
58375W        W26769   8.966   4.284  11.786
58376W        W26770  13.774  40.034  10.730
58377W        W26771  30.066  41.907  13.790
58378W        W26772  39.326  24.562   4.543
58379W        W26773  31.117  42.870  11.250
58380W        W26774  27.609   9.387  10.969
58381W        W26775  22.640  42.502   1.329
58382W        W26776  22.579  26.479   3.022
58383W        W26777  34.954  18.458   3.943
58384W        W26778  38.087  16.292  14.575
58385W        W26779  44.686  38.656  12.948
58386W        W26780  23.151  19.650   4.080
58387W        W26781  41.511  16.170   3.682
58388W        W26782  35.596  24.050  13.440
58389W        W26783   9.923   2.271  11.748
58390W        W26784  28.680  29.844   1.022
58391W        W26785   9.155  31.451   4.233
58392W        W26786  29.044  22.260   1.240
58393W        W26787  30.711  16.440   0.775
58394W        W26788   0.019  37.321   4.620
58395W        W26789  44.434   5.678   4.514
58396W        W26790  23.049  40.274  13.855
58397W        W26791  25.358  42.802   0.677
58398W        W26792  39.271   4.681   3.757
58399W        W26793  14.271  43.650  14.332
58400W        W26794  36.779  10.137   3.714
58401W        W26795  17.188  33.576   0.264
58402W        W26796  25.514  32.357   3.420
58403W        W26797  24.460   9.566   3.237
58404W        W26798  18.080  44.342  11.503
58405W        W26799   6.205   1.226   3.757
58406W        W26800  16.623   4.453   3.229
58407W        W26801   9.469  32.508  13.782
58408W        W26802  28.105  11.281   0.696
58409W        W26803   0.714  24.689  13.917
58410W        W26804  25.275  21.784  11.631
58411W        W26805   4.792  17.253   0.003
58412W        W26806   3.444  11.663   1.223
58413W        W26807   1.417  32.555  12.719
58414W        W26808  36.458   6.282  12.491
58415W        W26809   6.859  16.709   4.615
58416W        W26810  42.097  10.644   2.613
58417W        W26811  14.667  31.421   0.522
58418W        W26812  12.113  32.946  11.182
58419W        W26813  35.663  31.170   4.909
58420W        W26814  44.533  30.982  11.682
58421W        W26815  21.755  25.402  13.593
58422W        W26816  15.780  26.599   0.977
58423W        W26817  12.311  17.227  11.478
58424W        W26818  35.147  15.438   2.174
58425W        W26819  15.567  19.691  13.184
58426W        W26820  44.937  11.065   3.577
58427W        W26821   0.363  15.398   1.853
58428W        W26822  31.873   4.463   2.771
58429W        W26823  44.774  21.107  12.699
58430W        W26824   0.791  37.778  13.844
58431W        W26825  43.882   3.148   0.238
58432W        W26826  31.046   8.195  14.900
58433W        W26827  36.408  32.205  12.001
58434W        W26828  33.453   4.963   4.164
58435W        W26829   9.692  24.064  11.412
58436W        W26830  33.860   6.468  10.923
58437W        W26831   1.411  21.243   0.418
58438W        W26832  16.329  34.952  10.617
58439W        W26833  43.997  13.653  14.407
58440W        W26834  32.949   3.230   1.460
58441W        W26835  33.653  20.434   3.628
58442W        W26836   9.489  32.658  14.280
58443W        W26837  28.928   5.366  12.987
58444W        W26838  30.902  22.145   4.646
58445W        W26839  19.104  37.574  11.128
58446W        W26840  42.490  24.550   3.240
58447W        W26841  15.025  23.635   1.936
58448W        W26842  32.196   3.304  14.904
58449W        W26843  16.555  19.312   2.239
58450W        W26844   7.753   8.363   3.201
58451W        W26845  14.340  18.319   4.615
58452W        W26846  43.018  17.724   0.976
58453W        W26847  11.094  35.437   0.588
58454W        W26848  27.763  42.434  14.387
58455W        W26849  44.427   3.045  14.370
58456W        W26850  44.576  26.577   2.881
58457W        W26851  37.557   1.486   4.179
58458W        W26852  15.339  18.478   4.100
58459W        W26853  39.312  20.232  13.814
58460W        W26854   4.992   5.393   3.054
58461W        W26855  15.260  36.604   0.322
58462W        W26856  21.588   0.485   1.530
58463W        W26857  23.455  43.024  13.463
58464W        W26858   9.943  29.040  11.614
58465W        W26859  26.892  21.048  10.262
58466W        W26860  32.578  17.273  12.757
58467W        W26861  38.631  35.829   4.202
58468W        W26862  21.667  31.566  11.999
58469W        W26863  32.773   7.490   1.076
58470W        W26864  36.138   7.010  12.327
58471W        W26865  19.711   4.432   2.260
58472W        W26866  20.409   7.788   1.275
58473W        W26867   1.201  40.687   1.221
58474W        W26868   2.517  22.125   0.240
58475W        W26869  20.125  28.560  13.030
58476W        W26870  39.784  42.014   3.665
58477W        W26871  13.223  30.070  12.354
58478W        W26872   7.750  14.189   5.036
58479W        W26873  28.100  39.963  14.487
58480W        W26874   7.381  42.049   2.697
58481W        W26875  26.585  42.555   3.228
58482W        W26876  22.623  22.866   5.135
58483W        W26877  10.520   3.242   2.892
58484W        W26878   9.158   7.271  14.794
58485W        W26879  29.489  13.512  11.032
58486W        W26880  28.570  14.299   4.394
58487W        W26881   3.017  21.462   0.647
58488W        W26882  20.505  31.071   4.365
58489W        W26883  21.043  35.807   2.295
58490W        W26884   4.746  22.052  11.652
58491W        W26885   7.807  19.843  12.117
58492W        W26886  44.648  31.923   1.448
58493W        W26887  42.645  35.663   9.455
58494W        W26888  16.634  18.959  10.769
58495W        W26889  11.966   2.129  12.531
58496W        W26890  34.866  13.838   0.418
58497W        W26891  28.558  39.781  11.150
58498W        W26892   4.329  25.774   4.231
58499W        W26893  15.166  35.312   4.181
58500W        W26894  36.791   1.163   4.402
58501W        W26895  20.826  29.657  13.900
58502W        W26896   2.657  25.403   3.092
58503W        W26897  12.670  26.168  13.309
58504W        W26898   0.522  21.232  10.978
58505W        W26899  12.848  34.701  12.468
58506W        W26900  40.579  32.794   4.150
58507W        W26901  42.945  26.142   4.372
58508W        W26902  33.628   3.454  10.794
58509W        W26903  29.139  42.382   3.030
58510W        W26904  35.618  10.656  11.200
58511W        W26905  21.084  24.873   3.958
58512W        W26906  28.696  44.914   4.102
58513W        W26907  36.875  36.495  11.545
58514W        W26908  20.647  43.225  13.903
58515W        W26909  10.767  44.949  10.840
58516W        W26910  39.948  28.249   1.855
58517W        W26911  29.574  32.136   0.751
58518W        W26912  38.451   7.751   0.249
58519W        W26913  18.540  13.654   0.320
58520W        W26914  26.499  35.265  12.577
58521W        W26915  33.005  23.430   1.368
58522W        W26916  33.917  12.763  14.367
58523W        W26917  37.134   0.641  11.198
58524W        W26918  21.056  28.704   3.115
58525W        W26919  15.514   3.874  14.533
58526W        W26920   8.951  29.312   5.030
58527W        W26921   9.026   4.957  11.011
58528W        W26922  28.091  36.356   3.140
58529W        W26923  15.338  17.175   5.369
58530W        W26924  10.596  26.142  13.293
58531W        W26925  35.764  36.485   1.903
58532W        W26926  37.290   1.196   3.720
58533W        W26927   6.530  14.564   4.911
58534W        W26928  14.312  40.766   3.312
58535W        W26929  27.175  39.020  11.562
58536W        W26930  15.769  44.875   4.413
58537W        W26931  32.850  19.332   0.363
58538W        W26932  22.524  42.565   0.355
58539W        W26933  31.860  33.645   4.093
58540W        W26934  17.627   1.911  12.997
58541W        W26935  14.499  15.686   4.614
58542W        W26936  34.858   1.717  14.589
58543W        W26937  32.712   0.927   0.452
58544W        W26938  19.335  13.746  10.708
58545W        W26939  41.785  14.320   4.724
58546W        W26940   7.176  15.592  12.211
58547W        W26941  32.960  42.401   1.190
58548W        W26942  21.460  19.565   0.246
58549W        W26943  42.731  23.568  14.696
58550W        W26944  16.538   2.950   1.299
58551W        W26945  14.712  20.005  12.103
58552W        W26946  30.381   2.907  13.082
58553W        W26947  23.472   9.200   2.665
58554W        W26948   8.363  19.559  12.688
58555W        W26949   8.533  42.046   1.896
58556W        W26950  32.301  44.050   0.291
58557W        W26951  21.106  29.058   1.784
58558W        W26952  10.420  33.822   2.435
58559W        W26953  12.788  29.148   4.113
58560W        W26954   8.234   2.741   2.337
58561W        W26955  30.443  15.125   0.976
58562W        W26956  27.263  22.714   4.569
58563W        W26957  35.264  19.552  14.501
58564W        W26958  12.767  22.004   2.169
58565W        W26959  35.575  16.577   1.533
58566W        W26960  37.560  15.204  10.411
58567W        W26961   6.630   0.846  13.989
58568W        W26962  29.420  13.143  11.403
58569W        W26963  30.590  43.931   4.224
58570W        W26964  10.399  36.878  11.475
58571W        W26965  17.971  41.991   2.457
58572W        W26966  31.149  30.191  12.079
58573W        W26967  34.929  29.773   4.518
58574W        W26968  12.231  34.069   1.768
58575W        W26969  37.893   7.881  14.042
58576W        W26970   8.266  43.933  12.976
58577W        W26971   3.121  26.938  13.803
58578W        W26972  24.408  31.504   2.710
58579W        W26973  24.568  42.705   3.239
58580W        W26974   3.975  39.857  11.133
58581W        W26975   1.757  23.314   0.776
58582W        W26976  37.070  22.045   2.463
58583W        W26977  29.037  19.059  11.937
58584W        W26978  18.521  11.212  13.155
58585W        W26979  22.635  16.955  11.165
58586W        W26980  27.193   0.355  14.351
58587W        W26981  19.184  35.626  13.742
58588W        W26982   2.937   2.306   4.525
58589W        W26983  37.421  33.959  14.379
58590W        W26984   0.880  21.987   1.263
58591W        W26985   6.100  28.920  14.387
58592W        W26986   7.450  26.100   2.900
58593W        W26987  13.725  40.407   4.694
58594W        W26988  33.477   5.032   5.100
58595W        W26989  38.314   9.271   2.785
58596W        W26990  35.953  25.490   3.585
58597W        W26991   7.748   2.695  10.455
58598W        W26992   5.881  36.026   0.973
58599W        W26993   8.659  42.180  14.015
58600W        W26994   8.964  10.328  12.676
58601W        W26995  43.797  24.260   2.877
58602W        W26996   0.946  11.074   3.679
58603W        W26997   8.172   8.279  11.944
58604W        W26998  17.552  16.778   1.760
58605W        W26999   3.867  43.899   4.068
58606W        W27000  42.813   4.563   3.670
58607W        W27001  17.319  10.655   0.869
58608W        W27002  34.421   6.452   2.482
58609W        W27003  22.018  40.715  13.851
58610W        W27004  13.756  25.035   4.457
58611W        W27005  30.005  13.373   0.523
58612W        W27006  29.197   7.758  13.353
58613W        W27007  14.701  39.002  10.285
58614W        W27008   1.715  33.620  13.297
58615W        W27009  43.617  12.228   1.726
58616W        W27010   6.934  21.461   3.845
58617W        W27011  25.628  37.587   2.176
58618W        W27012  17.820  17.086  12.005
58619W        W27013  31.167   4.286   4.515
58620W        W27014   3.754  43.286   1.911
58621W        W27015   8.777   1.222  13.338
58622W        W27016   2.846  26.506   4.497
58623W        W27017  42.360  34.830   3.545
58624W        W27018  43.966  42.740   3.716
58625W        W27019  27.179  11.306   2.228
58626W        W27020   2.800  18.630  10.622
58627W        W27021   2.935  41.936   1.910
58628W        W27022  10.355  44.191   3.810
58629W        W27023  19.183  24.246  13.446
58630W        W27024  25.889   8.528  14.826
58631W        W27025  35.450   6.714  10.952
58632W        W27026  28.474  17.131  14.990
58633W        W27027  41.894   5.764  13.961
58634W        W27028  20.297  35.812  12.583
58635W        W27029   2.101  39.438   2.654
58636W        W27030  17.331   3.311  14.031
58637W        W27031   5.985  17.761  12.414
58638W        W27032   0.312  14.323   4.754
58639W        W27033  21.785  38.391   2.226
58640W        W27034  44.363   3.897  14.769
58641W        W27035  36.340  38.655   1.697
58642W        W27036  37.375   7.981   4.163
58643W        W27037  17.668   7.038  14.855
58644W        W27038   9.705  16.939  14.730
58645W        W27039  15.742  25.248   1.755
58646W        W27040   3.420  19.781   1.887
58647W        W27041   9.383  18.466  11.132
58648W        W27042  16.811  21.030  11.943
58649W        W27043  40.050  33.537  11.600
58650W        W27044  26.386  39.525  10.566
58651W        W27045  32.061  32.849   1.762
58652W        W27046  42.538  27.012  13.497
58653W        W27047  25.000  11.455  11.735
58654W        W27048  12.171  21.233  13.914
58655W        W27049  23.700  26.595  10.768
58656W        W27050   5.910  10.859   2.790
58657W        W27051  25.255   3.877   3.151
58658W        W27052  34.976  18.748  12.175
58659W        W27053   2.296   8.252  10.480
58660W        W27054  14.217  27.785  11.933
58661W        W27055  20.057  40.129  10.764
58662W        W27056   8.946  10.582   3.254
58663W        W27057  36.819  14.726   2.169
58664W        W27058  42.489   7.794   0.891
58665W        W27059  44.760  28.733  14.049
58666W        W27060  13.126  16.585  12.488
58667W        W27061  16.701  32.708  11.946
58668W        W27062  25.459  23.591   3.180
58669W        W27063  18.123   3.816   1.182
58670W        W27064  44.991  19.024   0.080
58671W        W27065  20.623  19.210   0.203
58672W        W27066   2.196  24.150   4.437
58673W        W27067  31.985  10.120  12.115
58674W        W27068   7.929   9.152   0.315
58675W        W27069  29.546   6.860  12.344
58676W        W27070   7.208   5.820   2.910
58677W        W27071   7.677  20.690  13.387
58678W        W27072  44.308   1.169  12.120
58679W        W27073  36.299   8.745   4.386
58680W        W27074  15.702  42.600   0.271
58681W        W27075  40.096  37.296   1.671
58682W        W27076  43.363  29.483   4.631
58683W        W27077  42.764  44.924   3.832
58684W        W27078  31.938  19.531   1.842
58685W        W27079  16.395  10.471  10.091
58686W        W27080  44.545   6.325  11.205
58687W        W27081  35.264  12.336   1.049
58688W        W27082   3.935  44.789  11.554
58689W        W27083  38.238  14.121   3.515
58690W        W27084   4.701  31.055   3.672
58691W        W27085  13.659   3.284  11.984
58692W        W27086  20.153  13.358   5.121
58693W        W27087  24.894  17.487   1.513
58694W        W27088  33.195  13.583  10.872
58695W        W27089  41.605  22.955  13.738
58696W        W27090  10.448  42.324   0.274
58697W        W27091   8.177  32.635  14.930
58698W        W27092  42.859  29.601   5.335
58699W        W27093  26.787  39.372   4.480
58700W        W27094  19.608  27.989   3.240
58701W        W27095  33.114   9.121   3.354
58702W        W27096  13.289  25.577   0.677
58703W        W27097  34.151  30.071  12.026
58704W        W27098  26.222  40.744   2.545
58705W        W27099  42.553  32.684  12.349
58706W        W27100  28.524  38.885   4.111
58707W        W27101  24.302   0.985  11.285
58708W        W27102  13.818  26.269   0.893
58709W        W27103  10.864  10.103   2.192
58710W        W27104  14.778  41.816   1.781
58711W        W27105  13.306  28.550  13.069
58712W        W27106  27.094  40.513   4.567
58713W        W27107  39.769  22.634  11.578
58714W        W27108  19.311   0.897  14.929
58715W        W27109  11.581   9.378  12.501
58716W        W27110  26.972  21.565  13.522
58717W        W27111  43.019  23.526  11.146
58718W        W27112  40.524  33.226   4.425
58719W        W27113  29.920   7.193  13.612
58720W        W27114  21.635  14.317  14.032
58721W        W27115   4.699   9.742  11.041
58722W        W27116  34.077  14.659  10.745
58723W        W27117  37.000   3.147   2.304
58724W        W27118  29.122  23.590  12.072
58725W        W27119  42.098  26.488  12.077
58726W        W27120   3.752  32.911   0.939
58727W        W27121  14.255  29.989   0.693
58728W        W27122   0.773  27.748  12.010
58729W        W27123  43.044  19.996   4.187
58730W        W27124  26.190  40.748  10.481
58731W        W27125  44.963  38.331   4.312
58732W        W27126  27.054   8.438   2.172
58733W        W27127   9.613   9.459   1.841
58734W        W27128  38.532  14.199  11.507
58735W        W27129  11.791  41.356   4.485
58736W        W27130  25.043  39.922  11.579
58737W        W27131  34.090  23.199  11.174
58738W        W27132  15.366   9.710  11.969
58739W        W27133  43.981   5.361  11.082
58740W        W27134  30.191  39.911   1.310
58741W        W27135  40.473  12.508  11.842
58742W        W27136  14.805  34.061   3.389
58743W        W27137   9.826  16.248  13.108
58744W        W27138  22.741   5.822  14.239
58745W        W27139  32.858  12.897   5.124
58746W        W27140  31.137  21.936  13.019
58747W        W27141  29.611   1.926   2.136
58748W        W27142  13.884   6.928   0.319
58749W        W27143  24.903   4.693   1.476
58750W        W27144  27.589  26.952  11.645
58751W        W27145  14.600  17.677  13.172
58752W        W27146   7.009  37.496   1.216
58753W        W27147  16.867  10.137  12.288
58754W        W27148  26.195  22.255   0.812
58755W        W27149  13.924  23.766  10.891
58756W        W27150   8.863   2.785   0.318
58757W        W27151  37.576  34.873  12.556
58758W        W27152  21.106  16.389  11.540
58759W        W27153  19.592  35.894  10.478
58760W        W27154  44.904  22.017   0.811
58761W        W27155  40.588  24.708   1.869
58762W        W27156   4.937  31.020   4.129
58763W        W27157  17.150   2.713  12.922
58764W        W27158  16.766  18.529   0.263
58765W        W27159   9.361  25.115  11.339
58766W        W27160  15.128  40.131   4.518
58767W        W27161  43.701   3.256  12.234
58768W        W27162  12.509  35.335  14.929
58769W        W27163   5.179  25.520   0.901
58770W        W27164  22.222  31.367   2.251
58771W        W27165   8.130  30.183   0.808
58772W        W27166  40.264   1.094   2.972
58773W        W27167  40.784   8.835  11.631
58774W        W27168  25.559  21.019  12.472
58775W        W27169  36.639  11.216  13.581
58776W        W27170  29.037   9.201  13.029
58777W        W27171  21.789  14.547   1.424
58778W        W27172  35.548  29.996   1.715
58779W        W27173  31.971   7.603  10.812
58780W        W27174   1.397  25.803  10.668
58781W        W27175  37.705  31.551  10.627
58782W        W27176   2.167  16.639  12.422
58783W        W27177  33.997  12.509  11.470
58784W        W27178  42.410  44.457   0.264
58785W        W27179   3.724  43.025  13.051
58786W        W27180  16.161  43.792   2.211
58787W        W27181  12.656   9.398  12.189
58788W        W27182  31.792  17.981  14.048
58789W        W27183  35.210   9.594   4.146
58790W        W27184  43.037  30.038  11.613
58791W        W27185  41.226  31.449   0.085
58792W        W27186  35.535  29.591   3.871
58793W        W27187  23.139  32.109   1.950
58794W        W27188  13.847  20.515   4.968
58795W        W27189   3.585  14.059  11.653
58796W        W27190  38.937  38.422   1.011
58797W        W27191  34.465  39.605  14.032
58798W        W27192   9.556  40.353   2.871
58799W        W27193  22.671  41.994  12.943
58800W        W27194  40.679  12.088  13.004
58801W        W27195   5.458  28.552   1.911
58802W        W27196  19.723   6.808  13.368
58803W        W27197   8.755  13.002   2.995
58804W        W27198  17.145  19.168  10.827
58805W        W27199  27.898  33.541   4.167
58806W        W27200  33.566  39.854   1.844
58807W        W27201   7.104  16.394  14.775
58808W        W27202  25.171  21.503  13.810
58809W        W27203  26.448  13.766  14.529
58810W        W27204  15.853  32.914   2.814
58811W        W27205   7.202  11.647  12.886
58812W        W27206  10.744  21.219  13.856
58813W        W27207  33.654   2.443   1.341
58814W        W27208   8.414  34.390   3.274
58815W        W27209  19.274  27.981  11.277
58816W        W27210  27.310  16.610   0.059
58817W        W27211  21.835  39.978  12.850
58818W        W27212  22.720   5.761  12.568
58819W        W27213  17.986  36.863   1.702
58820W        W27214  26.528  24.003   3.988
58821W        W27215  22.458  14.489   4.487
58822W        W27216   7.836   6.238  10.240
58823W        W27217  16.740  43.356   1.108
58824W        W27218   1.751  18.330   3.326
58825W        W27219  42.806  30.639  11.096
58826W        W27220   6.643  31.386  13.169
58827W        W27221   1.467   0.447  13.004
58828W        W27222  38.490  29.715  10.699
58829W        W27223   4.688  18.908  11.644
58830W        W27224  13.122  40.294   1.271
58831W        W27225  28.139   8.748   2.824
58832W        W27226   6.857  42.570   0.346
58833W        W27227   8.365  25.242  14.009
58834W        W27228  39.606  22.480   0.220
58835W        W27229  32.155  19.599   3.321
58836W        W27230  30.928  16.188   2.996
58837W        W27231   8.832  10.025  13.108
58838W        W27232  14.803  30.614  10.358
58839W        W27233  14.069   5.066   2.828
58840W        W27234   9.774  35.965  12.224
58841W        W27235   6.909  14.752  14.534
58842W        W27236   0.280  43.996  14.808
58843W        W27237   3.660  31.093   3.726
58844W        W27238  42.831  39.334   3.936
58845W        W27239   7.808  18.142  11.394
58846W        W27240  23.350  23.778  10.751
58847W        W27241   7.331   1.457   2.110
58848W        W27242  18.311   4.788  11.530
58849W        W27243  37.531  39.613   1.793
58850W        W27244  17.013   3.788   2.325
58851W        W27245  14.826  26.599  10.609
58852W        W27246  15.714   9.364  11.113
58853W        W27247  38.336  16.913  12.007
58854W        W27248  25.026   3.831   0.866
58855W        W27249  13.385  21.322  14.986
58856W        W27250  28.135  42.826   2.940
58857W        W27251  43.372  16.433   2.346
58858W        W27252   9.171  22.041   4.283
58859W        W27253  16.958  40.243   4.962
58860W        W27254   0.787   7.172  13.501
58861W        W27255   8.175  34.588  14.403
58862W        W27256   3.745  22.165  12.521
58863W        W27257  38.950  24.926   4.614
58864W        W27258  16.667  28.917   1.156
58865W        W27259  35.143  36.112   0.179
58866W        W27260  29.933  13.817  12.474
58867W        W27261   3.259   5.604  11.651
58868W        W27262  21.588  10.809  10.572
58869W        W27263   7.266  41.852   0.280
58870W        W27264  12.631  26.943   0.852
58871W        W27265   0.721   2.332  12.966
58872W        W27266  28.538   7.247   0.763
58873W        W27267  40.626   2.874   2.602
58874W        W27268  24.461  10.997  14.926
58875W        W27269   9.497   4.825   4.996
58876W        W27270  28.940  30.557   0.821
58877W        W27271  18.925   3.998  12.329
58878W        W27272  42.841  44.003  12.599
58879W        W27273   0.243  29.556   3.248
58880W        W27274  44.865   5.514   2.969
58881W        W27275  17.638  28.323  14.483
58882W        W27276  26.556  32.175   1.708
58883W        W27277  25.063   3.418   3.120
58884W        W27278  20.074  37.426  13.811
58885W        W27279  27.417  42.399  11.516
58886W        W27280  21.798  35.870   2.681
58887W        W27281   9.838  20.912   1.918
58888W        W27282  19.838  25.900  13.034
58889W        W27283  33.926  42.185  10.702
58890W        W27284  16.751  42.336  10.967
58891W        W27285  41.059  13.184  14.276
58892W        W27286  12.682   2.501   3.421
58893W        W27287  23.022  33.466  12.126
58894W        W27288  39.519  42.345   4.643
58895W        W27289   1.272  23.581   0.686
58896W        W27290  26.587   6.955  12.377
58897W        W27291  16.327  17.036   3.981
58898W        W27292   4.808   6.884   4.293
58899W        W27293  31.440  34.606  11.490
58900W        W27294   4.848  12.344  10.388
58901W        W27295  10.906   5.283  13.522
58902W        W27296  19.628  42.780  11.151
58903W        W27297   1.522  36.480  12.072
58904W        W27298  11.615   1.786   1.237
58905W        W27299  23.855  13.454  11.710
58906W        W27300  19.982   0.944  13.673
58907W        W27301  38.566  31.117  11.660
58908W        W27302  41.313  25.686   2.278
58909W        W27303  10.241  27.916   1.420
58910W        W27304  30.163  27.617   1.458
58911W        W27305  28.431  20.196  13.347
58912W        W27306  32.131  31.802   1.833
58913W        W27307   3.730   9.211  11.205
58914W        W27308   0.236  24.558   4.622
58915W        W27309  44.280  26.009   4.646
58916W        W27310  30.879  42.380  13.890
58917W        W27311  44.843  15.449  14.230
58918W        W27312  33.315  41.854   4.573
58919W        W27313  12.281  38.391  14.017
58920W        W27314  37.659  12.287   2.205
58921W        W27315   6.366  21.491   9.879
58922W        W27316   7.597  41.969   4.608
58923W        W27317  11.356  14.435  10.948
58924W        W27318  10.458   5.990   2.771
58925W        W27319  34.578  24.007  13.383
58926W        W27320  34.496   8.693   4.481
58927W        W27321   7.204  29.591   1.892
58928W        W27322  38.298  40.744   2.055
58929W        W27323  24.552   2.845   1.467
58930W        W27324  29.074   1.847  10.601
58931W        W27325  43.935  34.459  11.711
58932W        W27326  31.056  19.088   2.858
58933W        W27327  13.954  15.274  11.162
58934W        W27328  39.055  44.235  14.914
58935W        W27329  16.225  16.069   0.074
58936W        W27330  21.110  36.098  12.601
58937W        W27331   6.842  33.626   4.325
58938W        W27332  33.946  11.001   3.302
58939W        W27333  18.768  40.867  11.530
58940W        W27334   0.411  31.424   4.793
58941W        W27335  37.436  16.784   2.247
58942W        W27336  29.792  23.736  14.543
58943W        W27337   1.077  25.045  11.317
58944W        W27338  14.133  12.645   4.243
58945W        W27339  39.053  19.144  10.416
58946W        W27340  28.330  38.367  11.536
58947W        W27341  16.013  11.670  10.540
58948W        W27342  44.206  13.006   1.614
58949W        W27343   5.844   9.604   3.619
58950W        W27344   9.710  43.439   1.736
58951W        W27345   0.169  27.502   2.157
58952W        W27346  17.992   3.629  14.132
58953W        W27347  42.878  29.112   2.624
58954W        W27348   3.675  24.114  12.089
58955W        W27349  32.103  20.005   4.127
58956W        W27350  41.374  30.019   3.636
58957W        W27351  14.405  19.991  14.881
58958W        W27352  39.325  22.307   2.667
58959W        W27353   7.262  35.872   4.696
58960W        W27354  18.767   7.689  14.890
58961W        W27355  21.092   6.521  14.212
58962W        W27356  11.896  38.389   3.594
58963W        W27357  13.575  15.037  11.459
58964W        W27358  20.520  21.147   1.805
58965W        W27359   0.801   8.612   0.353
58966W        W27360  16.035  42.870   4.853
58967W        W27361  34.302  19.429  12.025
58968W        W27362   6.713  42.769   4.150
58969W        W27363  13.138  15.301  11.545
58970W        W27364   4.193   3.110  11.627
58971W        W27365  26.748   3.449  12.077
58972W        W27366  17.739  44.287  10.650
58973W        W27367   3.955  37.514  11.598
58974W        W27368  44.701  23.062  14.347
58975W        W27369  17.836  18.298  14.661
58976W        W27370  44.190  25.952   1.441
58977W        W27371  33.871  19.935   1.121
58978W        W27372  27.543  28.769  12.000
58979W        W27373   6.390  28.589   3.315
58980W        W27374  14.617   3.785  11.476
58981W        W27375  15.418   7.965   5.066
58982W        W27376   7.971  37.456  14.389
58983W        W27377   5.974  32.887  14.521
58984W        W27378  11.071  42.435  12.569
58985W        W27379  34.516  17.336  11.182
58986W        W27380  33.658  43.727  11.407
58987W        W27381  12.456  38.567  14.481
58988W        W27382  11.034  42.871   4.616
58989W        W27383  27.331  28.918  13.278
58990W        W27384  27.101  25.132   3.642
58991W        W27385  30.012  14.654   3.109
58992W        W27386   9.210  29.995  12.564
58993W        W27387  33.098   8.353   3.766
58994W        W27388   2.452  29.056  13.212
58995W        W27389   3.787  28.373  11.572
58996W        W27390  30.917  30.454   4.632
58997W        W27391   0.787  15.057   0.969
58998W        W27392  31.951  34.113  13.869
58999W        W27393   0.390   4.898   3.160
59000W        W27394  12.188  14.265  13.017
59001W        W27395  32.878  40.387   1.425
59002W        W27396  22.197  17.779   2.223
59003W        W27397   0.306  39.822  12.863
59004W        W27398  12.721  31.842  11.650
59005W        W27399  22.022  25.216   1.801
59006W        W27400   8.915  34.804   4.590
59007W        W27401  17.653  40.623   2.031
59008W        W27402  31.220  23.451  14.482
59009W        W27403  34.921  40.369  11.658
59010W        W27404  32.557  18.300   0.205
59011W        W27405  33.624  19.613  12.071
59012W        W27406   4.731   1.874  11.144
59013W        W27407   4.713  37.328   1.259
59014W        W27408  26.539  29.934  14.550
59015W        W27409  27.888  38.440  13.078
59016W        W27410  13.617  25.466   4.673
59017W        W27411  20.158  26.769  12.200
59018W        W27412  16.460  13.771   1.411
59019W        W27413   2.166  11.879  12.620
59020W        W27414   7.031  17.766  11.362
59021W        W27415   2.216  44.332  14.375
59022W        W27416  42.885  36.624  14.764
59023W        W27417  23.276  41.349   2.401
59024W        W27418  16.668   8.258  11.610
59025W        W27419  24.273  21.649  11.620
59026W        W27420   3.225  27.021  11.949
59027W        W27421  39.875   0.926  10.859
59028W        W27422   5.918   6.977  14.384
59029W        W27423  23.755  21.099  11.161
59030W        W27424   8.938  34.790   1.654
59031W        W27425  28.196  36.075   0.398
59032W        W27426  33.666  34.947  14.586
59033W        W27427  26.585   6.160  14.965
59034W        W27428   6.194  31.196  12.439
59035W        W27429  21.123  36.314   1.303
59036W        W27430  11.599  39.852   1.787
59037W        W27431  26.627  19.010  14.372
59038W        W27432  12.021  34.790   2.331
59039W        W27433  40.485  18.068  12.979
59040W        W27434  37.178   3.381   4.512
59041W        W27435   2.747  21.840  12.565
59042W        W27436  40.326  19.260  13.967
59043W        W27437   5.833  40.784   0.737
59044W        W27438  23.988  35.058   1.382
59045W        W27439  27.006  38.771  10.153
59046W        W27440  24.183  43.309   1.627
59047W        W27441  20.069  26.229  13.370
59048W        W27442   8.346  31.682  12.532
59049W        W27443  28.627  34.328  12.102
59050W        W27444  21.599  43.955  13.754
59051W        W27445  29.524  42.509   0.529
59052W        W27446  21.150   5.719  11.001
59053W        W27447  29.931  18.165  14.118
59054W        W27448  32.939  44.581   1.223
59055W        W27449  24.812  44.779  14.847
59056W        W27450   5.707  13.340  10.777
59057W        W27451  34.545   6.800   4.821
59058W        W27452  24.224  43.345   9.866
59059W        W27453  18.608  36.657   0.517
59060W        W27454  32.948  27.984  12.010
59061W        W27455  39.849  10.845   4.731
59062W        W27456  33.991   5.834  14.706
59063W        W27457  25.279  26.194   3.571
59064W        W27458  26.101   5.675  13.940
59065W        W27459   3.349  22.506   2.357
59066W        W27460  14.857  18.627  13.135
59067W        W27461  27.211  23.729   3.192
59068W        W27462  19.019  38.728   3.212
59069W        W27463  22.695  23.438  12.067
59070W        W27464  41.508   6.264  10.764
59071W        W27465   8.799  43.704   0.813
59072W        W27466  24.237  36.917   3.661
59073W        W27467   2.707  44.849  14.109
59074W        W27468  39.094  11.983   3.755
59075W        W27469  17.111  24.647   1.818
59076W        W27470   3.352  15.823  12.624
59077W        W27471  44.185  42.225  11.503
59078W        W27472  29.008  31.132  12.089
59079W        W27473  12.709  20.127   0.180
59080W        W27474  25.055  28.038   4.754
59081W        W27475   5.828   6.846   5.045
59082W        W27476   2.012   7.215   4.216
59083W        W27477  36.552  42.473   2.156
59084W        W27478   7.775  40.933   2.742
59085W        W27479   8.140  19.083  12.699
59086W        W27480  26.039  12.045  12.791
59087W        W27481  22.244  44.089  11.177
59088W        W27482   2.331  14.542  11.386
59089W        W27483  18.666   7.364  12.052
59090W        W27484  19.949  28.882  14.713
59091W        W27485   5.233  30.875   3.734
59092W        W27486  41.474  12.680  11.227
59093W        W27487  39.949  36.636   2.713
59094W        W27488  21.914  28.237   3.657
59095W        W27489   8.771   9.175  13.871
59096W        W27490  40.031   9.309  14.356
59097W        W27491  35.424  16.220   3.270
59098W        W27492  29.964   3.230   0.952
59099W        W27493  29.512  17.318   3.638
59100W        W27494  14.081  34.825  12.738
59101W        W27495  41.097  15.297  12.546
59102W        W27496  36.891  23.103  13.179
59103W        W27497  44.477  25.396   2.164
59104W        W27498  28.097  31.937  11.055
59105W        W27499  36.333  28.791   1.193
59106W        W27500   7.733   6.316   9.718
59107W        W27501  21.793  15.063  13.482
59108W        W27502  33.049   9.189   2.794
59109W        W27503  35.440  35.652  14.871
59110W        W27504  43.535  16.745   0.866
59111W        W27505  33.038   7.650  12.297
59112W        W27506  26.664   9.208   4.469
59113W        W27507  44.778   7.109   0.504
59114W        W27508  44.910  16.888  10.654
59115W        W27509   4.250  22.091  13.390
59116W        W27510  28.908  31.002   0.446
59117W        W27511  15.174  36.696  12.198
59118W        W27512  35.144  25.220  14.376
59119W        W27513  34.922  41.295  10.756
59120W        W27514  34.840  28.748   1.097
59121W        W27515  33.060   8.642   2.909
59122W        W27516  37.314  42.006   0.743
59123W        W27517  16.317  43.919  14.263
59124W        W27518  15.825  20.010   4.142
59125W        W27519  19.462  22.746   4.544
59126W        W27520   3.495  12.146   4.547
59127W        W27521   6.792  15.084  14.933
59128W        W27522  17.852  33.571  11.572
59129W        W27523  13.726  29.914   4.280
59130W        W27524  30.400  36.493  13.443
59131W        W27525   6.471  24.602  14.805
59132W        W27526  18.580  16.124  10.608
59133W        W27527  36.131  34.567   1.435
59134W        W27528  10.324  14.202   3.751
59135W        W27529   2.724  42.406   1.815
59136W        W27530   4.871   7.381   3.470
59137W        W27531  40.115   5.962  13.351
59138W        W27532  21.047  44.903   2.738
59139W        W27533  12.786  38.516   1.771
59140W        W27534  21.816  22.802  14.511
59141W        W27535   0.689  34.818  13.933
59142W        W27536  28.638  25.159  10.750
59143W        W27537  21.442  29.625   0.730
59144W        W27538  32.928  39.062   1.855
59145W        W27539   5.855   2.723  14.437
59146W        W27540  14.572  10.776   0.395
59147W        W27541  34.863  10.234  13.060
59148W        W27542  33.173  41.435  11.256
59149W        W27543   8.545  21.194   3.641
59150W        W27544  15.902  24.532   1.307
59151W        W27545  23.771  44.442  13.780
59152W        W27546  38.459  15.580  13.057
59153W        W27547  35.839  39.309   0.236
59154W        W27548  40.441  21.746   3.182
59155W        W27549  13.753  19.528   1.461
59156W        W27550  41.200  15.705  14.765
59157W        W27551  12.718  38.086   1.470
59158W        W27552  17.100  22.161   2.442
59159W        W27553  13.176  36.440   4.569
59160W        W27554  34.950   4.729  13.015
59161W        W27555  13.223  41.586   3.322
59162W        W27556  44.334  26.137   2.682
59163W        W27557   9.407  20.545  14.289
59164W        W27558  40.472  33.978  11.113
59165W        W27559  22.323  18.103   4.602
59166W        W27560  29.691  11.923   1.783
59167W        W27561  28.198   3.793   2.619
59168W        W27562  29.413  29.485   0.179
59169W        W27563   8.674  17.278   3.961
59170W        W27564  38.474   0.013   0.952
59171W        W27565  16.348  29.979   2.810
59172W        W27566  26.203   1.412   3.106
59173W        W27567  41.786  40.716  12.931
59174W        W27568  16.739  34.022   3.251
59175W        W27569  37.559  44.271   3.799
59176W        W27570  19.655  22.205  11.940
59177W        W27571  24.221  24.920   1.912
59178W        W27572  41.531  11.799   2.291
59179W        W27573  36.843   4.368   0.463
59180W        W27574  16.322  38.560   2.606
59181W        W27575   4.184  28.860   2.667
59182W        W27576  22.030  19.196  12.111
59183W        W27577  18.336  36.371  14.937
59184W        W27578  29.986  37.561  10.725
59185W        W27579   2.713  26.133  12.100
59186W        W27580  36.601   1.800  11.475
59187W        W27581  11.799  30.417   4.068
59188W        W27582   2.032  21.570   2.768
59189W        W27583  31.385  20.603  11.638
59190W        W27584  43.930  36.719   2.290
59191W        W27585  40.888  26.778  12.219
59192W        W27586  39.959   4.793   3.068
59193W        W27587  22.230   6.721  12.145
59194W        W27588  25.491  10.202   2.286
59195W        W27589  19.280  41.038  13.002
59196W        W27590  15.489  30.102   2.959
59197W        W27591  32.484   5.437  11.319
59198W        W27592  34.486   3.289   1.793
59199W        W27593  28.124  43.318   4.150
59200W        W27594  14.586  39.190   5.121
59201W        W27595  24.263  21.548   3.653
59202W        W27596  29.490  13.136   2.480
59203W        W27597  31.303  40.059  13.883
59204W        W27598   9.358  29.205   4.633
59205W        W27599  17.287   2.421   1.351
59206W        W27600  44.683  22.600   0.568
59207W        W27601  40.969  13.935   3.417
59208W        W27602  27.483  11.745  11.010
59209W        W27603   6.297  42.054   4.394
59210W        W27604  43.907  39.532  10.465
59211W        W27605  41.064  21.088   3.632
59212W        W27606  18.611  16.262   4.635
59213W        W27607  18.829  31.615  13.973
59214W        W27608  37.898  34.262  13.574
59215W        W27609  11.303  21.746  10.534
59216W        W27610  23.109   6.187  13.463
59217W        W27611   1.767   6.196  13.603
59218W        W27612   0.219  19.175   3.732
59219W        W27613  39.773  12.305  11.233
59220W        W27614  17.802   4.417  11.112
59221W        W27615  23.514  16.216  13.947
59222W        W27616  34.578   3.547   2.292
59223W        W27617   0.747  44.324   2.684
59224W        W27618  10.771   0.693  12.055
59225W        W27619   1.099   0.624   0.724
59226W        W27620  35.385  23.041  14.498
59227W        W27621  15.133  40.727   1.231
59228W        W27622  39.779  10.833   1.944
59229W        W27623  23.301  17.321   3.626
59230W        W27624  18.005  35.446   0.935
59231W        W27625  42.070  30.558   2.410
59232W        W27626  36.498  30.179   1.857
59233W        W27627  26.346  33.425  12.549
59234W        W27628   3.913  26.550   4.085
59235W        W27629  25.293  21.609   3.814
59236W        W27630  33.799   6.743  10.491
59237W        W27631  12.234   1.503  14.363
59238W        W27632  35.527  37.906  12.514
59239W        W27633   1.063  40.345   4.575
59240W        W27634   9.615  11.803   1.525
59241W        W27635  33.689  26.594   0.004
59242W        W27636  12.530  37.334  13.084
59243W        W27637  22.046  21.154   3.299
59244W        W27638   3.862  13.555   2.764
59245W        W27639  40.501  44.282  14.666
59246W        W27640  20.142  23.168   4.606
59247W        W27641  18.171  15.497   1.683
59248W        W27642  29.685  18.649  14.899
59249W        W27643  32.143  33.129  11.952
59250W        W27644  20.327  33.955   0.696
59251W        W27645  30.446   6.252  11.927
59252W        W27646   6.669  39.024  10.703
59253W        W27647  32.991  11.825  10.678
59254W        W27648   7.829   3.970  14.098
59255W        W27649  18.964   8.550   1.706
59256W        W27650  23.954  15.451   0.936
59257W        W27651  43.686  44.137   4.303
59258W        W27652  21.125   8.423  14.388
59259W        W27653  31.235  31.153   0.308
59260W        W27654  27.027  39.787  14.087
59261W        W27655  43.226  28.876  13.119
59262W        W27656  44.632  36.275  11.315
59263W        W27657  33.107  28.673  12.479
59264W        W27658  13.566  41.768  13.472
59265W        W27659  21.803   5.408  14.473
59266W        W27660  39.133  37.077  10.683
59267W        W27661  38.482   8.433   3.175
59268W        W27662  38.201  35.488   0.842
59269W        W27663  16.843  22.282   3.721
59270W        W27664   1.427  17.928   3.196
59271W        W27665  30.504  13.226   3.635
59272W        W27666  20.752   3.053   2.705
59273W        W27667  22.782  15.687  11.179
59274W        W27668  29.813   4.715  11.620
59275W        W27669  40.053  25.812   3.207
59276W        W27670  32.881  30.438  12.506
59277W        W27671  22.085   4.068   1.124
59278W        W27672  19.578  29.682   3.243
59279W        W27673  28.383   4.723  13.219
59280W        W27674  24.533  11.691  13.385
59281W        W27675  29.525  40.875  14.793
59282W        W27676  32.342  18.354  10.725
59283W        W27677  14.358   6.723  13.410
59284W        W27678  14.863   2.945   3.082
59285W        W27679  40.103  18.874  10.986
59286W        W27680  32.218  21.248   0.290
59287W        W27681  34.937  12.438   3.426
59288W        W27682  22.375  33.067  11.542
59289W        W27683   9.282  34.849  14.971
59290W        W27684  37.566  28.519   0.421
59291W        W27685  30.178   3.492  13.983
59292W        W27686  12.407   0.899   3.755
59293W        W27687  12.017   6.883  14.848
59294W        W27688  28.999   3.353   4.342
59295W        W27689   0.871  37.524  11.091
59296W        W27690  14.792  38.368   4.795
59297W        W27691   9.172  42.210  12.969
59298W        W27692  44.447  14.334  14.727
59299W        W27693  37.121   9.897  14.933
59300W        W27694  15.617  24.770  12.648
59301W        W27695  33.999  43.784  12.362
59302W        W27696  31.457   6.152   3.637
59303W        W27697   6.371  28.243   4.181
59304W        W27698  14.213  41.256   3.311
59305W        W27699  23.068  12.314   2.173
59306W        W27700  26.229  15.276   3.698
59307W        W27701  43.146  40.465   5.306
59308W        W27702  12.156  21.957   1.308
59309W        W27703  23.702  27.501  14.011
59310W        W27704  35.510  43.279  14.420
59311W        W27705  24.135  41.913  13.094
59312W        W27706  11.280  40.396   0.947
59313W        W27707  37.096  21.093   4.565
59314W        W27708  39.946   6.443   0.388
59315W        W27709  11.920  30.144   1.290
59316W        W27710  42.872  34.864   5.249
59317W        W27711  33.840   8.120  10.915
59318W        W27712  31.632  44.644  14.084
59319W        W27713  44.413  14.213  11.246
59320W        W27714  36.598  27.412  12.073
59321W        W27715   6.925  17.282   0.000
59322W        W27716  41.327  15.580   0.790
59323W        W27717  32.204   8.244   2.716
59324W        W27718   8.888  15.234   1.282
59325W        W27719  35.580  15.152   2.150
59326W        W27720  24.507  38.153  13.992
59327W        W27721  23.594   8.182   3.435
59328W        W27722  10.822  26.597  13.267
59329W        W27723  22.434  10.697   2.691
59330W        W27724   2.443  27.012   3.437
59331W        W27725  29.098   6.067   0.692
59332W        W27726   7.911  28.983   3.532
59333W        W27727  19.878  16.646  10.249
59334W        W27728  19.445  40.481  14.344
59335W        W27729  17.584  35.456  12.063
59336W        W27730  40.125  13.773  13.487
59337W        W27731  37.825  42.895  14.373
59338W        W27732  42.638  36.508  13.889
59339W        W27733  37.558  14.809  12.183
59340W        W27734  38.001   3.333   3.650
59341W        W27735  34.276  32.570  14.310
59342W        W27736  44.219   0.795  14.487
59343W        W27737  14.617  35.566  12.427
59344W        W27738   3.418   7.114   1.895
59345W        W27739  27.383   4.221   4.217
59346W        W27740  43.842  12.767   2.549
59347W        W27741  42.402   4.618   3.026
59348W        W27742  29.983  21.239   4.045
59349W        W27743  37.763  27.380   2.063
59350W        W27744  11.154  20.767  12.396
59351W        W27745  21.811   4.377  14.474
59352W        W27746  27.571   9.147  10.515
59353W        W27747  16.734  20.093   1.279
59354W        W27748  11.705  36.985   0.760
59355W        W27749  14.697  39.304  12.862
59356W        W27750  12.111  39.027   0.472
59357W        W27751   5.727  16.295   1.441
59358W        W27752  40.001  22.256  13.942
59359W        W27753  38.101  14.833   2.706
59360W        W27754   2.377  29.868   2.963
59361W        W27755  19.300   8.321   2.495
59362W        W27756  30.186  37.008  11.590
59363W        W27757  36.962  33.599  10.591
59364W        W27758  38.548  34.395  13.405
59365W        W27759  31.047  20.632  14.345
59366W        W27760  39.411  30.620  12.711
59367W        W27761  18.076  25.401  10.600
59368W        W27762  34.644  35.513   1.652
59369W        W27763  15.810   0.744   1.410
59370W        W27764   5.506   0.914  13.551
59371W        W27765  25.702  28.837  14.020
59372W        W27766  20.652  14.314  12.224
59373W        W27767   2.367   9.037   1.376
59374W        W27768  25.997  28.164  12.510
59375W        W27769  39.047  34.428   1.809
59376W        W27770  32.175  34.001  14.746
59377W        W27771  18.164  20.764   4.744
59378W        W27772  33.658  21.020  14.855
59379W        W27773  12.516  10.589   0.455
59380W        W27774  12.855  35.133   3.337
59381W        W27775  25.219  26.143  12.005
59382W        W27776  23.965  13.733  10.767
59383W        W27777  24.781  12.629   0.972
59384W        W27778   6.365  43.029   2.387
59385W        W27779  18.531  11.360  11.105
59386W        W27780  25.767   8.379  11.673
59387W        W27781  33.602  22.992  13.582
59388W        W27782   6.463  34.142   2.264
59389W        W27783   8.005  44.360  13.118
59390W        W27784  39.326  29.684  13.021
59391W        W27785  36.895   0.451   3.171
59392W        W27786  40.834  36.370   4.437
59393W        W27787  16.230  37.936   0.559
59394W        W27788  28.274  24.344   2.510
59395W        W27789   5.967  26.108  13.501
59396W        W27790  38.650   8.383   3.719
59397W        W27791  15.269   4.868   0.770
59398W        W27792  19.613  38.296  14.561
59399W        W27793  10.060  21.283  11.971
59400W        W27794  28.394  22.198  14.295
59401W        W27795  39.328  21.827  11.589
59402W        W27796  33.447   4.438   4.201
59403W        W27797   1.976   2.267   4.330
59404W        W27798  24.974  39.668   1.242
59405W        W27799  22.979  38.256  14.357
59406W        W27800  32.127  26.702  14.729
59407W        W27801  28.495   6.375  13.077
59408W        W27802  31.838  42.908   2.910
59409W        W27803  11.374  20.874  14.268
59410W        W27804  19.535  28.044   5.557
59411W        W27805  14.940  35.579   3.324
59412W        W27806  21.797  14.169  12.988
59413W        W27807  42.994  18.666   0.580
59414W        W27808  31.173  22.019   3.304
59415W        W27809  28.387  18.227   2.283
59416W        W27810  12.949  30.421   1.082
59417W        W27811  17.656  26.584  13.608
59418W        W27812  11.271  15.590  12.459
59419W        W27813   9.616  38.057  12.007
59420W        W27814   6.351   8.052  13.058
59421W        W27815   1.600   6.747   3.093
59422W        W27816  38.309  12.775   2.761
59423W        W27817  38.279   8.865  14.743
59424W        W27818  24.830  24.991  13.089
59425W        W27819  29.543  21.574   4.045
59426W        W27820   0.957  21.221  13.191
59427W        W27821  34.582   9.768   0.923
59428W        W27822  17.315   8.986   3.826
59429W        W27823  42.869   2.001   1.715
59430W        W27824   3.493   4.556  13.588
59431W        W27825   5.481  30.504   1.490
59432W        W27826   8.645   4.973  13.563
59433W        W27827  42.969  21.211   3.809
59434W        W27828  30.450  38.046   1.735
59435W        W27829  18.673  15.340   0.893
59436W        W27830  12.861  35.921   0.977
59437W        W27831   3.637  20.318  13.134
59438W        W27832  30.027   0.018   0.905
59439W        W27833   9.111  27.004  12.085
59440W        W27834  32.635  42.974   4.236
59441W        W27835  10.682  18.109  12.943
59442W        W27836  27.965  11.837   2.265
59443W        W27837  25.266  43.355  11.330
59444W        W27838  16.814   2.808   0.855
59445W        W27839  38.884  19.241  11.218
59446W        W27840  39.494   9.222   4.756
59447W        W27841  10.819  44.513   3.813
59448W        W27842  43.868  36.951  13.435
59449W        W27843   4.351  32.598  11.593
59450W        W27844  37.020  33.435  12.967
59451W        W27845  13.544  24.049   4.820
59452W        W27846  35.957   2.624   3.274
59453W        W27847  13.237  14.530   3.766
59454W        W27848  10.702  23.934  10.750
59455W        W27849  22.864  43.479  11.905
59456W        W27850  20.195   2.591  14.744
59457W        W27851   3.340  27.532  14.928
59458W        W27852  12.775  29.094   0.913
59459W        W27853  12.192  43.246  14.333
59460W        W27854   4.890  15.090   2.843
59461W        W27855  17.957  18.042   3.810
59462W        W27856  31.360  31.512  12.899
59463W        W27857  27.113  33.613  13.066
59464W        W27858  26.122  31.041   4.694
59465W        W27859  31.887  35.572  10.615
59466W        W27860  32.386  12.579  14.281
59467W        W27861  31.889  31.411   3.076
59468W        W27862  43.454  27.665   1.275
59469W        W27863   8.121  35.600   3.204
59470W        W27864  38.374  14.056  13.017
59471W        W27865   2.356  39.585  12.089
59472W        W27866  39.188  16.319   1.965
59473W        W27867   1.236  42.479  12.774
59474W        W27868   8.224  23.467  12.499
59475W        W27869  18.308  19.620  14.753
59476W        W27870  12.168   3.100  11.643
59477W        W27871  11.830  33.552  13.935
59478W        W27872  13.817  22.028   1.394
59479W        W27873  26.348   8.856   5.004
59480W        W27874  42.981  31.464  12.964
59481W        W27875  30.838  12.606  14.375
59482W        W27876  44.202   7.246   3.742
59483W        W27877   6.388  15.778   3.606
59484W        W27878  36.139  30.130   4.613
59485W        W27879  32.913  44.833  11.492
59486W        W27880  39.488  32.629   1.364
59487W        W27881  20.285  42.076   0.376
59488W        W27882  12.257  22.768   1.797
59489W        W27883  42.310  40.042   3.760
59490W        W27884   1.534  40.739  12.612
59491W        W27885  21.242  31.426   1.032
59492W        W27886   7.772  18.829   3.786
59493W        W27887   4.190  43.203  12.457
59494W        W27888  19.211  38.064   3.730
59495W        W27889  41.542  33.892   4.479
59496W        W27890  21.065  29.372   1.359
59497W        W27891  44.097  33.608  12.095
59498W        W27892  39.063  43.334   3.612
59499W        W27893  25.716  14.251   2.696
59500W        W27894   1.944   7.011  14.854
59501W        W27895  35.807  41.734  12.445
59502W        W27896  34.072  17.053   0.063
59503W        W27897  13.383  36.688  13.907
59504W        W27898  11.132  35.316   2.313
59505W        W27899  10.242  37.610   4.595
59506W        W27900  28.946  14.059   3.090
59507W        W27901  19.677  27.970  14.572
59508W        W27902  17.803  32.123  12.606
59509W        W27903  43.563  36.120   3.622
59510W        W27904   4.421  13.414   2.175
59511W        W27905  12.442  26.669  11.560
59512W        W27906  12.225   6.904  11.918
59513W        W27907  43.342  25.707   3.694
59514W        W27908  37.952  30.070   4.429
59515W        W27909  38.074   5.350  12.445
59516W        W27910  12.959   4.364   3.646
59517W        W27911  13.099  28.145   0.852
59518W        W27912  39.120  12.111  13.916
59519W        W27913  40.467  20.036  11.414
59520W        W27914  10.372  22.483  13.606
59521W        W27915  20.842  14.350  11.725
59522W        W27916  33.122  31.115  12.064
59523W        W27917   6.797   1.644  14.882
59524W        W27918  32.456  38.467   1.366
59525W        W27919  42.439   6.434   3.723
59526W        W27920   0.909   7.364  13.964
59527W        W27921   7.438  31.687  13.767
59528W        W27922  30.696   3.266  13.315
59529W        W27923   0.056   8.104   1.475
59530W        W27924  14.290   2.191   1.880
59531W        W27925  31.534   1.712  12.518
59532W        W27926   1.063  17.588  11.624
59533W        W27927   4.729  26.357  13.399
59534W        W27928  13.546   2.772  12.048
59535W        W27929  33.594  41.992  13.431
59536W        W27930  22.696  13.986   3.040
59537W        W27931  22.261  36.977  11.203
59538W        W27932  23.436  35.683  13.137
59539W        W27933  44.477  27.866  10.553
59540W        W27934  43.497  15.647  11.981
59541W        W27935  13.206  13.070   2.833
59542W        W27936  27.503  39.953   2.850
59543W        W27937   1.327  29.614  11.652
59544W        W27938  28.510  41.081   3.105
59545W        W27939  35.003  20.197   4.536
59546W        W27940  18.989  28.687   0.772
59547W        W27941  27.484  10.887  13.976
59548W        W27942  28.688  17.148   1.850
59549W        W27943  33.415  10.256  13.530
59550W        W27944   7.444  14.060  10.247
59551W        W27945  10.716  15.707  13.803
59552W        W27946  10.297   8.082  10.656
59553W        W27947  11.718  24.910  11.202
59554W        W27948  19.232  38.195   5.443
59555W        W27949  12.292   3.094  12.660
59556W        W27950  30.618   8.300  13.002
59557W        W27951   5.965   2.358   2.799
59558W        W27952   1.362  28.492  14.874
59559W        W27953  38.310  29.113   0.987
59560W        W27954  11.216  40.781  11.815
59561W        W27955   9.820  11.718   2.474
59562W        W27956  27.032  20.608   4.024
59563W        W27957  11.532   4.492   3.246
59564W        W27958  32.681  42.537   2.544
59565W        W27959   6.335   1.646   2.389
59566W        W27960  13.068  29.301   2.767
59567W        W27961  28.181  28.427   3.684
59568W        W27962  24.998   1.017  12.539
59569W        W27963  39.324  22.457   2.147
59570W        W27964  28.043  32.093   1.522
59571W        W27965  35.572  15.721  12.467
59572W        W27966   3.366  26.936   1.813
59573W        W27967  16.233  16.140  10.740
59574W        W27968  30.828   1.838  13.042
59575W        W27969  42.754  21.974   0.871
59576W        W27970   4.037   6.938   3.256
59577W        W27971  15.876  37.795   2.801
59578W        W27972  24.497  43.314  10.303
59579W        W27973  38.804  42.108  10.923
59580W        W27974  36.306  23.560   1.784
59581W        W27975   4.179   4.481  11.230
59582W        W27976  27.537  17.634   1.992
59583W        W27977  34.418  39.476  10.540
59584W        W27978  18.634   1.207  13.554
59585W        W27979   8.540  42.303  11.648
59586W        W27980   6.742  21.611   4.882
59587W        W27981  33.644  16.775  14.268
59588W        W27982   0.470  28.816  10.448
59589W        W27983  23.474   2.547  10.698
59590W        W27984  13.134  21.503   3.622
59591W        W27985   3.394  35.960  14.354
59592W        W27986  26.893  17.756   0.715
59593W        W27987  12.187  19.239   0.750
59594W        W27988  42.045  24.698   1.344
59595W        W27989  24.221  36.781  11.157
59596W        W27990  31.499  23.498   2.671
59597W        W27991  21.069   4.415  11.064
59598W        W27992   7.340  18.821  14.853
59599W        W27993  34.177  23.151   3.295
59600W        W27994  42.286   2.853  13.883
59601W        W27995  32.024  23.773  12.532
59602W        W27996  29.904  38.623  13.076
59603W        W27997  12.226  24.688  13.281
59604W        W27998   7.099  28.563  11.378
59605W        W27999   9.739  36.576  12.953
59606W        W28000  22.072   7.606   2.578
59607W        W28001  36.762  42.519  11.791
59608W        W28002  19.664   3.874  11.024
59609W        W28003  20.696  41.887  10.521
59610W        W28004   3.775  34.543  14.016
59611W        W28005  14.960  26.958   2.797
59612W        W28006  34.948  27.953  14.863
59613W        W28007  39.258  24.803   2.184
59614W        W28008   5.553  43.340  10.815
59615W        W28009  10.473  28.224   0.208
59616W        W28010  40.970  18.619   3.352
59617W        W28011  39.467  44.007   1.438
59618W        W28012  42.244  30.929  14.411
59619W        W28013  37.342  15.662  10.614
59620W        W28014  44.760  38.894  11.100
59621W        W28015   3.878  16.206  10.210
59622W        W28016  10.516  11.214   3.721
59623W        W28017  21.993  11.022   0.512
59624W        W28018   1.805  22.007  14.743
59625W        W28019  15.797  34.427  14.365
59626W        W28020  31.995  39.017  12.164
59627W        W28021  26.654  33.922  12.840
59628W        W28022   1.316  29.935  13.646
59629W        W28023  37.391  13.405   0.764
59630W        W28024  39.611  17.190  14.834
59631W        W28025   5.432   3.404   3.170
59632W        W28026  32.068  21.214   3.713
59633W        W28027  27.576  10.373  13.958
59634W        W28028  22.076   4.502  14.891
59635W        W28029  23.882  39.552   2.101
59636W        W28030  21.172  35.621   1.815
59637W        W28031   0.528   0.977  11.635
59638W        W28032   1.953   7.588   2.573
59639W        W28033  38.410  16.948   4.686
59640W        W28034  18.608  21.776   3.255
59641W        W28035  26.864  16.631  12.923
59642W        W28036  12.715  29.061  13.934
59643W        W28037  17.812  21.132  13.048
59644W        W28038  38.935  16.586  14.335
59645W        W28039   0.803  34.994   4.337
59646W        W28040  40.088  27.077  10.659
59647W        W28041  32.585  12.909   3.904
59648W        W28042   2.220   4.723  13.482
59649W        W28043  13.616  22.756  12.910
59650W        W28044  21.946  13.571  11.356
59651W        W28045   4.214  25.278  10.796
59652W        W28046  36.037  38.580  13.088
59653W        W28047  43.605  31.361  14.093
59654W        W28048   1.017  42.960   0.816
59655W        W28049  24.456  12.954   0.724
59656W        W28050  32.047  31.680   3.943
59657W        W28051  10.820  43.092   0.842
59658W        W28052  40.288  27.053  13.644
59659W        W28053  31.212   0.505  11.999
59660W        W28054   1.758  41.349  13.331
59661W        W28055  14.312  42.994   2.791
59662W        W28056  34.148  31.449   2.680
59663W        W28057  41.006  14.032  14.823
59664W        W28058  19.265  40.396  12.126
59665W        W28059  42.609  43.960   1.790
59666W        W28060  29.205  22.664   4.426
59667W        W28061   5.645  13.347  11.614
59668W        W28062   8.161  43.064   4.615
59669W        W28063  18.272   1.766   1.786
59670W        W28064   2.111   1.388   5.084
59671W        W28065  42.470  39.807   3.087
59672W        W28066  41.017  29.115  12.518
59673W        W28067  20.452  33.630  11.168
59674W        W28068  33.804  38.756  12.077
59675W        W28069  20.536   1.848   4.793
59676W        W28070  20.277  42.100  13.359
59677W        W28071  23.659  26.027   2.663
59678W        W28072  21.506   7.331   0.040
59679W        W28073  24.551  35.509  14.918
59680W        W28074  42.232  11.330   1.411
59681W        W28075  38.278  17.314   3.277
59682W        W28076  21.725  16.550  12.865
59683W        W28077  19.407  31.102   3.368
59684W        W28078  40.332  26.174  11.142
59685W        W28079  17.373  27.913  10.202
59686W        W28080  29.204  29.128  12.517
59687W        W28081  37.503  33.159   2.212
59688W        W28082  38.825  21.254   1.355
59689W        W28083  27.920   2.388   4.624
59690W        W28084  39.515  34.859  11.553
59691W        W28085  41.009   7.621   2.065
59692W        W28086  29.684  12.605   4.049
59693W        W28087  11.108   7.524   2.226
59694W        W28088   9.778  27.195   3.369
59695W        W28089  22.784  10.899   1.600
59696W        W28090  10.501  11.209  11.498
59697W        W28091  30.116  19.688   1.155
59698W        W28092  14.312  42.652   1.880
59699W        W28093  23.743  25.489   2.777
59700W        W28094  30.201  24.189  11.796
59701W        W28095   5.822   1.493   4.622
59702W        W28096  35.067  15.795   1.748
59703W        W28097  42.456  11.714  12.556
59704W        W28098  22.019   0.372   2.385
59705W        W28099  39.815  25.539  10.738
59706W        W28100  36.623  15.891   1.458
59707W        W28101  44.349  31.821  13.555
59708W        W28102  28.888   9.410   2.533
59709W        W28103  43.282  10.994   2.053
59710W        W28104  40.943  38.265   3.636
59711W        W28105  14.170   5.720  12.481
59712W        W28106   2.020  34.426  11.698
59713W        W28107  13.883  24.136  12.575
59714W        W28108  44.240  37.468   0.904
59715W        W28109  38.597  26.656   0.402
59716W        W28110  29.136  44.208   1.729
59717W        W28111  14.212  38.492  12.120
59718W        W28112  15.882  27.480   0.643
59719W        W28113   8.182  25.623  11.743
59720W        W28114  18.637   6.620   0.990
59721W        W28115   1.477  42.550   0.843
59722W        W28116  42.961  18.234  12.937
59723W        W28117  18.060  39.667   4.130
59724W        W28118  43.278  41.001   0.746
59725W        W28119  38.744  38.224   4.609
59726W        W28120  42.027  27.759  13.003
59727W        W28121  29.594  30.727  14.441
59728W        W28122   8.649  42.881   2.905
59729W        W28123  22.693  21.698   0.061
59730W        W28124  27.559   0.772  11.278
59731W        W28125  43.371  42.558   3.664
59732W        W28126  10.289  29.107   0.261
59733W        W28127  16.502  41.690   0.775
59734W        W28128  32.047  31.867   4.443
59735W        W28129  14.478   7.941   4.719
59736W        W28130  13.664  39.588   1.410
59737W        W28131  37.072  34.998  12.426
59738W        W28132  28.855   4.707   0.640
59739W        W28133  29.508  14.163   3.832
59740W        W28134  23.779  37.025  12.972
59741W        W28135   6.943  37.838  14.856
59742W        W28136  39.277  30.703   2.647
59743W        W28137  30.101   4.599   1.336
59744W        W28138   7.987  38.351  12.647
59745W        W28139  33.969  19.772  12.946
59746W        W28140  16.335  34.039   3.668
59747W        W28141  42.012  34.447  11.633
59748W        W28142  29.774  15.440   0.924
59749W        W28143   5.747  44.953  14.963
59750W        W28144  38.794  11.789  12.036
59751W        W28145  44.229  38.970  13.432
59752W        W28146  25.538  18.176  13.911
59753W        W28147  36.578   4.598   4.101
59754W        W28148  32.958   3.756   2.263
59755W        W28149  24.474   2.656   4.704
59756W        W28150  21.135  39.720  11.285
59757W        W28151  33.824  22.427  14.379
59758W        W28152  38.892   4.678   0.751
59759W        W28153   9.923  26.775  13.810
59760W        W28154  30.089  40.260  14.317
59761W        W28155  34.840  24.211  12.973
59762W        W28156  37.849  28.397  10.708
59763W        W28157   1.292  27.184  11.296
59764W        W28158  11.931  19.139  11.667
59765W        W28159  30.091   3.156  10.820
59766W        W28160  16.330  17.255   0.736
59767W        W28161  43.122   6.527  13.743
59768W        W28162  33.374  29.022  13.874
59769W        W28163  43.137  39.177   1.419
59770W        W28164  29.656  23.684   4.651
59771W        W28165  23.539   8.263  12.077
59772W        W28166  40.305   1.678   4.254
59773W        W28167  28.219  30.612   2.175
59774W        W28168  26.072  13.854   4.892
59775W        W28169  37.582  36.930   4.454
59776W        W28170   6.147  10.129  11.083
59777W        W28171  26.657  12.219   1.184
59778W        W28172  12.170  31.547   2.378
59779W        W28173  32.943   7.802   3.606
59780W        W28174  34.507  11.624   3.112
59781W        W28175  31.020  36.123   0.867
59782W        W28176  34.179  30.494   1.916
59783W        W28177  24.527  12.133   5.512
59784W        W28178  10.355  23.984   2.772
59785W        W28179  22.646  33.653  14.794
59786W        W28180   2.734  11.137  13.957
59787W        W28181   4.977  27.285   4.940
59788W        W28182  18.809  37.298   3.615
59789W        W28183  44.455  21.683   2.173
59790W        W28184  30.669  27.722   1.664
59791W        W28185  17.650  37.338  11.661
59792W        W28186   1.321  44.496  12.085
59793W        W28187  14.602   2.684  11.185
59794W        W28188   0.651  24.772   0.464
59795W        W28189  43.748   7.252   0.701
59796W        W28190  16.701  43.565  12.103
59797W        W28191  20.678  16.093   2.387
59798W        W28192  11.128  41.530   0.348
59799W        W28193  37.827  40.896   0.717
59800W        W28194  12.742  33.071   3.466
59801W        W28195  15.640  26.345   0.531
59802W        W28196  26.114   7.881  11.609
59803W        W28197   8.868   7.728  13.455
59804W        W28198  23.990  39.102   3.738
59805W        W28199  24.089  35.848   0.001
59806W        W28200  10.308  10.721  12.845
59807W        W28201  42.959   2.527  12.350
59808W        W28202  25.865   8.686   4.069
59809W        W28203  28.859  22.104  10.635
59810W        W28204  10.630  29.645   0.386
59811W        W28205  32.461  33.495   9.870
59812W        W28206  16.044  40.131   4.604
59813W        W28207   5.198  35.492  11.520
59814W        W28208  24.439  41.871   4.882
59815W        W28209   0.037  30.018   3.189
59816W        W28210   0.650  17.627  11.964
59817W        W28211  35.891  19.134  10.692
59818W        W28212   0.216  12.851  12.175
59819W        W28213  22.723  22.929  12.171
59820W        W28214   7.415  19.072  13.298
59821W        W28215  20.500  10.887   2.438
59822W        W28216  42.951  11.827  14.791
59823W        W28217  14.255  20.272  12.083
59824W        W28218   0.291  30.565   0.782
59825W        W28219  14.140   1.830  12.888
59826W        W28220   5.209  14.675  14.360
59827W        W28221  12.733  12.875  13.104
59828W        W28222   4.179  41.520   1.658
59829W        W28223  10.611  24.040  13.355
59830W        W28224   8.767  23.361  10.703
59831W        W28225   7.438  31.074  14.969
59832W        W28226  10.273  44.856   4.921
59833W        W28227  19.525  26.934   0.401
59834W        W28228   7.503  29.404   3.322
59835W        W28229  44.249  44.276   3.788
59836W        W28230   4.409  16.080  11.026
59837W        W28231  34.896  23.793  12.647
59838W        W28232  21.454  40.088  13.220
59839W        W28233   7.544  22.882  11.047
59840W        W28234  20.482   7.095  11.022
59841W        W28235  17.179  32.738  13.381
59842W        W28236  20.499   9.332  11.450
59843W        W28237  33.668  12.739   4.723
59844W        W28238  31.463   4.963  14.336
59845W        W28239  25.982  28.883   0.223
59846W        W28240  33.853  41.928   4.654
59847W        W28241  33.779  19.512   4.656
59848W        W28242  16.266  11.348  12.430
59849W        W28243  39.994  26.615   1.741
59850W        W28244  43.405  14.150   0.732
59851W        W28245  14.150  27.141   4.756
59852W        W28246  32.424   9.377   1.061
59853W        W28247  13.873   6.626   2.004
59854W        W28248   1.323  41.061  12.975
59855W        W28249  35.032  30.556  10.823
59856W        W28250  27.234  32.522   1.456
59857W        W28251   7.688  39.493  11.156
59858W        W28252  19.666  42.925  12.104
59859W        W28253  40.814   2.896  12.169
59860W        W28254  24.089  11.456   4.428
59861W        W28255  29.395  37.286  12.850
59862W        W28256   2.502  24.759  13.988
59863W        W28257   1.554   6.937  13.365
59864W        W28258  19.684  37.061  11.912
59865W        W28259   5.769  31.871  13.521
59866W        W28260  44.987  40.894   0.844
59867W        W28261   9.234   4.213  10.623
59868W        W28262  21.050  36.620  12.589
59869W        W28263  36.958  18.309   5.001
59870W        W28264   8.276  40.168   4.319
59871W        W28265  16.748  21.996  11.508
59872W        W28266  43.541  23.418   1.383
59873W        W28267   7.639  35.150   0.298
59874W        W28268  10.945  38.037   0.930
59875W        W28269  39.463   8.080  12.916
59876W        W28270  20.729  32.734  13.786
59877W        W28271  35.030   2.245  11.078
59878W        W28272  28.973  29.251   4.403
59879W        W28273  44.861  14.595   0.732
59880W        W28274  26.209   7.455  10.656
59881W        W28275   0.617  11.954   0.059
59882W        W28276   9.748  26.384   2.378
59883W        W28277  17.087  34.141  13.897
59884W        W28278  37.946  40.000   4.584
59885W        W28279  34.084   6.637   3.706
59886W        W28280   2.022  35.870  13.461
59887W        W28281  12.815  34.521   2.381
59888W        W28282  25.231  42.443   2.790
59889W        W28283   9.683   4.330   3.741
59890W        W28284  15.369  18.102  10.641
59891W        W28285   7.900  32.225   3.799
59892W        W28286  42.328  27.367   2.895
59893W        W28287  24.236  28.355  12.141
59894W        W28288  40.794   9.028  14.832
59895W        W28289   3.260   2.757   4.053
59896W        W28290  39.294  14.886  13.940
59897W        W28291  31.886  15.441   1.307
59898W        W28292  29.613   5.142   1.832
59899W        W28293   0.385   5.860  14.864
59900W        W28294  41.921  17.079   1.386
59901W        W28295  11.718   6.858   1.826
59902W        W28296  44.787  23.477   0.062
59903W        W28297  26.948  34.627  10.635
59904W        W28298  40.031   9.125   0.332
59905W        W28299  35.698  43.300  12.878
59906W        W28300  15.482   4.110  12.089
59907W        W28301  42.398  28.216  11.599
59908W        W28302   9.820  40.442  13.978
59909W        W28303  42.023  15.601  13.838
59910W        W28304  10.182  10.699  14.878
59911W        W28305  11.832  15.599  14.267
59912W        W28306   2.229  22.701  10.674
59913W        W28307  11.644  33.674  12.930
59914W        W28308  23.864  31.586   0.147
59915W        W28309  33.044  20.309  13.328
59916W        W28310  35.160   7.141   0.486
59917W        W28311  42.193  19.742   9.847
59918W        W28312  41.816  33.469   3.781
59919W        W28313  12.707  38.316  12.770
59920W        W28314  22.942   7.614   1.899
59921W        W28315   8.885  11.463  12.118
59922W        W28316  18.167   0.329   1.204
59923W        W28317  19.287   8.165  12.058
59924W        W28318   9.158  36.118   0.283
59925W        W28319   0.387   6.669  11.302
59926W        W28320  22.025  40.194  13.973
59927W        W28321   7.600   6.735   0.218
59928W        W28322  35.994  38.535  13.640
59929W        W28323  35.024  42.134  11.947
59930W        W28324  22.045  28.679   1.755
59931W        W28325   3.635  34.510   0.962
59932W        W28326  23.643  34.827  10.803
59933W        W28327   0.686  21.298   2.055
59934W        W28328  18.470  26.810  13.462
59935W        W28329  21.665  15.271   1.655
59936W        W28330  23.254  31.119  11.659
59937W        W28331  34.618  27.157  12.576
59938W        W28332   8.761  22.632  12.388
59939W        W28333  16.241  20.318  14.305
59940W        W28334  35.409  42.313  14.108
59941W        W28335  22.942  16.662   0.780
59942W        W28336   6.594  32.170   4.498
59943W        W28337   7.299  41.103   2.772
59944W        W28338  33.621  32.012  12.890
59945W        W28339   3.889  20.897  11.500
59946W        W28340  43.486   0.175   1.503
59947W        W28341  42.939   4.755  12.918
59948W        W28342  17.657  35.850  12.417
59949W        W28343  22.765  13.636   0.729
59950W        W28344   7.310   9.912  13.857
59951W        W28345   7.149  25.715  11.594
59952W        W28346   8.015  33.760   4.665
59953W        W28347  14.474  25.620   3.370
59954W        W28348  33.906  11.369  12.339
59955W        W28349  21.994   6.849   3.297
59956W        W28350  27.167  19.986  14.118
59957W        W28351  23.747  41.965   1.154
59958W        W28352  32.675  35.014   0.489
59959W        W28353  10.028  27.062  14.845
59960W        W28354  36.585  39.233   0.736
59961W        W28355  13.930  26.195  13.255
59962W        W28356  34.085   8.778   0.953
59963W        W28357   3.399  19.362  12.390
59964W        W28358  10.361  29.529  14.963
59965W        W28359  19.754  10.317   2.896
59966W        W28360  23.439  29.524   1.018
59967W        W28361  31.662  36.896   0.308
59968W        W28362  28.697   6.872  12.140
59969W        W28363   6.896  14.023  13.921
59970W        W28364  32.448  14.312  14.407
59971W        W28365  33.503   3.728  14.431
59972W        W28366  12.327  10.836   2.738
59973W        W28367  26.471  11.715  14.498
59974W        W28368  12.040  41.594  14.531
59975W        W28369  33.376   2.877  13.880
59976W        W28370  35.429  41.461   3.866
59977W        W28371  41.156  28.924  11.564
59978W        W28372  38.257  37.447   4.121
59979W        W28373  30.889  29.134  10.681
59980W        W28374  10.883  18.343  11.504
59981W        W28375  25.030  44.293  12.573
59982W        W28376  39.488   3.202  13.378
59983W        W28377  20.752  11.577  10.906
59984W        W28378  34.797  10.898   1.752
59985W        W28379   6.857  14.931   1.960
59986W        W28380  11.219   0.381   2.195
59987W        W28381  42.182  21.270  11.127
59988W        W28382  26.569  11.274   0.729
59989W        W28383  37.180  18.675   2.676
59990W        W28384  17.264  44.475   0.299
59991W        W28385  14.596  28.886   1.185
59992W        W28386  26.604  24.081   0.080
59993W        W28387   1.213  14.177   1.215
59994W        W28388  33.074  33.073   1.342
59995W        W28389  20.839   8.605  11.940
59996W        W28390  27.042  37.249  12.000
59997W        W28391  24.579  26.437   2.135
59998W        W28392  40.963  29.250   2.376
59999W        W28393  40.014   9.346   3.140
60000W        W28394  41.405  36.632   2.842
60001W        W28395   2.717  33.632   2.379
60002W        W28396  37.119  35.313  11.989
60003W        W28397  13.163  40.396   5.452
60004W        W28398   3.149  25.388   2.838
60005W        W28399  13.200  17.349   2.765
60006W        W28400  38.745  40.081   2.251
60007W        W28401  16.677  13.085   4.568
60008W        W28402  21.515  36.071   2.254
60009W        W28403  41.018  28.558  11.993
60010W        W28404   0.435  33.373  14.842
60011W        W28405  13.061  12.643  12.354
60012W        W28406   0.859  28.105  13.846
60013W        W28407  37.551   5.987   2.294
60014W        W28408  27.190  18.803  14.971
60015W        W28409  44.486   1.588  14.307
60016W        W28410  25.788  21.617  10.740
60017W        W28411  20.154  43.246   2.765
60018W        W28412  16.214  11.146  13.423
60019W        W28413  28.360  36.792   1.230
60020W        W28414  42.286  13.593  12.990
60021W        W28415  39.945  35.133   4.706
60022W        W28416  38.476  20.703   1.874
60023W        W28417   8.624  22.270   0.911
60024W        W28418  20.193  21.555  14.589
60025W        W28419  22.614  37.901  13.300
60026W        W28420   7.074  40.249  12.051
60027W        W28421  24.607  10.690   4.130
60028W        W28422   6.147  19.022  11.631
60029W        W28423  15.366  33.921   0.454
60030W        W28424   6.950  27.566  10.642
60031W        W28425   4.889  18.352   1.482
60032W        W28426  27.087  34.730  14.035
60033W        W28427  12.356  13.907  11.990
60034W        W28428  34.473  15.707   0.542
60035W        W28429   5.767   2.436   3.278
60036W        W28430   8.776  13.689  14.718
60037W        W28431  21.530   8.674   0.253
60038W        W28432  24.852  23.034  11.238
60039W        W28433  12.903  32.455  11.240
60040W        W28434  34.410  34.423   1.744
60041W        W28435  42.899   6.768   4.495
60042W        W28436  21.189   3.724   1.316
60043W        W28437   2.294  30.203   1.236
60044W        W28438  22.035   8.825  14.099
60045W        W28439  14.864  37.318   0.042
60046W        W28440   4.382   7.712   1.949
60047W        W28441   6.327  28.932  11.418
60048W        W28442   6.945  14.795  11.169
60049W        W28443  28.986  16.180  13.522
60050W        W28444  37.360  21.615  12.442
60051W        W28445  35.930  36.039   1.695
60052W        W28446  26.454  17.478   0.726
60053W        W28447   2.413  43.964  13.649
60054W        W28448   8.608  37.495  12.674
60055W        W28449   5.291  22.608  11.239
60056W        W28450  17.803  38.879   1.134
60057W        W28451  15.779  20.132   0.337
60058W        W28452   1.504  29.522   4.626
60059W        W28453  43.878  12.626  14.379
60060W        W28454  17.525   3.989  13.437
60061W        W28455  37.011  35.998   0.947
60062W        W28456  38.396  13.321  11.322
60063W        W28457   8.809  37.788   1.737
60064W        W28458   3.257  26.784   1.288
60065W        W28459  20.435  15.251  12.646
60066W        W28460  19.054   0.416  14.947
60067W        W28461  33.529  21.417  14.326
60068W        W28462  32.542   9.768  13.264
60069W        W28463  21.823  43.992   0.759
60070W        W28464  44.118  38.574  14.282
60071W        W28465  41.135  22.831  13.528
60072W        W28466  41.580   3.890   3.712
60073W        W28467  44.659  43.734  13.994
60074W        W28468  44.895   2.347   3.382
60075W        W28469  41.380  14.120   3.919
60076W        W28470   9.271  42.845   0.582
60077W        W28471  38.074   4.853   1.624
60078W        W28472  13.778   4.859  13.291
60079W        W28473  43.889  32.430  11.390
60080W        W28474  41.928   2.735   2.243
60081W        W28475  32.048  42.891   1.419
60082W        W28476  32.128   6.849  12.051
60083W        W28477  27.181  25.622   2.425
60084W        W28478  19.080  44.050  12.503
60085W        W28479  10.278  15.212  10.455
60086W        W28480  35.576  18.542  14.470
60087W        W28481  21.670  30.168  12.457
60088W        W28482  22.517  27.627   0.959
60089W        W28483   0.167   4.871  14.077
60090W        W28484  17.334   7.822   3.122
60091W        W28485  24.626   4.649   2.843
60092W        W28486  19.468  13.376  11.981
60093W        W28487  28.580  12.228   1.939
60094W        W28488   0.028   8.315   1.984
60095W        W28489  25.152  23.633   4.469
60096W        W28490  42.819  43.862   2.316
60097W        W28491  42.547   7.367   2.769
60098W        W28492  39.339  19.766  10.690
60099W        W28493   8.623   7.829  13.910
60100W        W28494  18.255  42.320  12.571
60101W        W28495   2.905  15.655   2.170
60102W        W28496  18.173  13.230   2.363
60103W        W28497  31.010  37.795  14.220
60104W        W28498  12.775  35.345  11.822
60105W        W28499  15.284  40.874  12.532
60106W        W28500   6.292  34.513   1.785
60107W        W28501  33.900  39.782   4.172
60108W        W28502  30.164  26.430  13.391
60109W        W28503  38.568   9.505   3.158
60110W        W28504  30.170  14.683   2.628
60111W        W28505  23.478   7.969   0.372
60112W        W28506  32.881  26.620  12.376
60113W        W28507  22.010  15.588  14.220
60114W        W28508   6.823  33.624   2.693
60115W        W28509  20.144  16.594   1.209
60116W        W28510   1.384  32.599   3.854
60117W        W28511  39.985  37.854   0.227
60118W        W28512   9.762  36.972  13.281
60119W        W28513  28.225  24.443   3.715
60120W        W28514  23.805   1.922  14.120
60121W        W28515  37.320  43.046  10.592
60122W        W28516   7.360  15.842   0.621
60123W        W28517  23.355  44.810  13.070
60124W        W28518   9.937  11.989  12.022
60125W        W28519  14.987  20.074  14.141
60126W        W28520  14.822   4.647   3.880
60127W        W28521  44.049  20.056  10.655
60128W        W28522  26.173   6.236   2.745
60129W        W28523   1.746  31.402   0.791
60130W        W28524  35.422  28.906  13.427
60131W        W28525  26.034  31.432  12.072
60132W        W28526  22.270  36.551  12.065
60133W        W28527  33.087  19.967  12.906
60134W        W28528  24.239   3.857  12.797
60135W        W28529  43.765   7.668  10.679
60136W        W28530  22.463  10.163  13.156
60137W        W28531   3.461  28.856   0.378
60138W        W28532  20.565  26.502  11.358
60139W        W28533  12.069   0.060  10.656
60140W        W28534   7.213  30.393  14.575
60141W        W28535  16.108   4.383   3.047
60142W        W28536  23.264  34.674  13.958
60143W        W28537  12.370  31.100   4.346
60144W        W28538  29.209  34.604  12.880
60145W        W28539  25.991  19.123  13.316
60146W        W28540   6.301  19.823  14.986
60147W        W28541  36.111  18.339  12.295
60148W        W28542  27.400   9.324   3.201
60149W        W28543  29.292  18.987   1.371
60150W        W28544  42.325  28.450   3.330
60151W        W28545  10.847  25.715  13.503
60152W        W28546  28.106  30.903   4.771
60153W        W28547   0.804   4.356  12.895
60154W        W28548  15.442  33.570  13.067
60155W        W28549  16.072  41.322   0.089
60156W        W28550  15.990  34.673   2.373
60157W        W28551  11.713  25.272  12.536
60158W        W28552   0.496  26.538  11.993
60159W        W28553  18.020  20.699  13.497
60160W        W28554  22.512  38.864  14.928
60161W        W28555  24.967  18.563   4.591
60162W        W28556  27.955   5.052   0.705
60163W        W28557  20.050  44.263   2.258
60164W        W28558  33.235  40.301  13.393
60165W        W28559  18.671   3.033  14.201
60166W        W28560  38.472  33.444   2.692
60167W        W28561  20.011  14.948   4.859
60168W        W28562  17.601  14.035  12.160
60169W        W28563  22.768  16.057   3.868
60170W        W28564  14.788  36.615   4.321
60171W        W28565   8.396  22.663  14.332
60172W        W28566  38.397  31.083   0.360
60173W        W28567   9.200  19.057  13.843
60174W        W28568  40.899   8.194   4.566
60175W        W28569   6.871  11.602   3.103
60176W        W28570  37.339  42.809   4.531
60177W        W28571   3.177  33.244   5.051
60178W        W28572  40.667  33.954  14.262
60179W        W28573   4.768  12.671  12.872
60180W        W28574  22.642   4.672   0.720
60181W        W28575  28.562  36.909   2.681
60182W        W28576  33.064  38.537   1.717
60183W        W28577  16.160  17.028  11.191
60184W        W28578  18.257  24.603   4.767
60185W        W28579  17.710   5.200  12.591
60186W        W28580  38.966  38.861   0.688
60187W        W28581  19.627   1.103  11.488
60188W        W28582  28.168   2.490  12.838
60189W        W28583  42.966  20.304   1.223
60190W        W28584  25.264  18.945   0.052
60191W        W28585  39.853  35.681  14.811
60192W        W28586  17.562  42.305   2.247
60193W        W28587  22.368  41.005  11.841
60194W        W28588  18.498  26.750   3.894
60195W        W28589  36.011  34.813  14.576
60196W        W28590  42.432  21.224   0.790
60197W        W28591  36.089   4.591   2.769
60198W        W28592  43.498  25.181  14.808
60199W        W28593  12.264  39.563  12.087
60200W        W28594  23.795   2.855   2.189
60201W        W28595  28.140  37.831   1.233
60202W        W28596  24.484  37.904  14.928
60203W        W28597  28.691  41.264   0.877
60204W        W28598   3.373  22.625  11.408
60205W        W28599  30.224   5.228  12.042
60206W        W28600  28.086  34.529  12.925
60207W        W28601  20.140  35.035   4.907
60208W        W28602  19.743  36.455   5.091
60209W        W28603  23.456  44.247  10.221
60210W        W28604  16.300  33.632  14.327
60211W        W28605   4.852  31.220   4.591
60212W        W28606  11.003   2.843  13.495
60213W        W28607  30.408  33.364  12.046
60214W        W28608  10.675  15.630   2.232
60215W        W28609   3.909  31.890  13.607
60216W        W28610  39.241  37.450  14.263
60217W        W28611  18.708  35.651  11.790
60218W        W28612  27.182  25.606   3.415
60219W        W28613   4.306  33.877   3.825
60220W        W28614  38.082  15.600   1.793
60221W        W28615  18.267  25.894  10.611
60222W        W28616  21.277  30.796  13.475
60223W        W28617  33.980  32.834  12.743
60224W        W28618  42.248  16.069  12.120
60225W        W28619  23.010  28.494  11.001
60226W        W28620  18.617  42.532   2.263
60227W        W28621  23.006   2.304   4.203
60228W        W28622  38.206  19.545   4.247
60229W        W28623  27.359  29.191   0.678
60230W        W28624  31.937  37.977   4.566
60231W        W28625  40.936  19.142  10.661
60232W        W28626   6.179  11.909  10.780
60233W        W28627  10.276  12.590   2.367
60234W        W28628  40.341  33.458  12.472
60235W        W28629  30.691  12.114  10.679
60236W        W28630   3.211  40.993   1.239
60237W        W28631   6.190  38.152  12.210
60238W        W28632  25.430  15.188  11.563
60239W        W28633  10.574  28.670   0.426
60240W        W28634  17.241  32.837  10.722
60241W        W28635   8.452  38.028   4.964
60242W        W28636  35.625   4.296   4.572
60243W        W28637  27.786  13.382  13.375
60244W        W28638   0.907   0.767  12.282
60245W        W28639  27.719  37.048  11.541
60246W        W28640   1.311  36.631  14.938
60247W        W28641  29.449  26.643  12.966
60248W        W28642   9.126  32.143  13.473
60249W        W28643  27.641  37.254  13.398
60250W        W28644   7.982  28.506  14.412
60251W        W28645  11.036   7.293   5.009
60252W        W28646  12.225  43.309   3.365
60253W        W28647   6.475  38.606   2.223
60254W        W28648  44.304  36.350   3.789
60255W        W28649  18.382  16.309   4.177
60256W        W28650  38.613   2.484   0.424
60257W        W28651  43.302  27.088  13.066
60258W        W28652  41.283   7.310  11.612
60259W        W28653  28.992  10.533   4.555
60260W        W28654   9.167  26.173   0.437
60261W        W28655   8.795  23.985  14.249
60262W        W28656  22.044  37.220   2.687
60263W        W28657   4.031  28.189   0.831
60264W        W28658  10.443  25.940  14.591
60265W        W28659  27.462   5.143   3.683
60266W        W28660   0.580  44.566  11.391
60267W        W28661   3.734  18.577  11.519
60268W        W28662  30.545  38.376   3.649
60269W        W28663  23.102  31.549   4.604
60270W        W28664   7.608   3.977   2.834
60271W        W28665   1.830  37.785   2.757
60272W        W28666   0.837  30.613  13.611
60273W        W28667   8.974  31.576   1.755
60274W        W28668  28.809  30.679   4.015
60275W        W28669  39.782  17.583  13.372
60276W        W28670   0.548  24.734   3.265
60277W        W28671  29.021   1.808   4.388
60278W        W28672   4.703   0.487   4.553
60279W        W28673   5.007   0.408  14.512
60280W        W28674  18.157   3.853  14.565
60281W        W28675   3.602  18.994  14.716
60282W        W28676  33.342  27.207   2.291
60283W        W28677  39.011  33.449   2.740
60284W        W28678  33.089  30.872  11.583
60285W        W28679  41.821  23.527   1.737
60286W        W28680  21.460  41.890   1.365
60287W        W28681  13.303   3.969   2.757
60288W        W28682  41.208  30.510   2.716
60289W        W28683  11.824  12.622   3.781
60290W        W28684  23.609  23.578   0.417
60291W        W28685   1.873  40.970  12.242
60292W        W28686  21.990  39.380   3.844
60293W        W28687   3.828  34.059  11.623
60294W        W28688  18.520  19.829  12.824
60295W        W28689   7.575  44.476   4.150
60296W        W28690  23.820   0.954  13.768
60297W        W28691  35.345  32.453   4.931
60298W        W28692  33.954   8.303   2.357
60299W        W28693  17.272  22.078  13.063
60300W        W28694   1.672  15.582   2.763
60301W        W28695  38.576  42.424   2.402
60302W        W28696  10.698   3.625   1.954
60303W        W28697  42.576  13.848   0.375
60304W        W28698   0.058  38.161  12.136
60305W        W28699  31.410  12.711   3.954
60306W        W28700   8.874   1.792   0.362
60307W        W28701   0.433   7.489  13.233
60308W        W28702  38.794   9.387  11.942
60309W        W28703  20.500  33.137  11.087
60310W        W28704  19.324   5.908   4.164
60311W        W28705  43.750  13.285  12.038
60312W        W28706   2.488  33.431  13.812
60313W        W28707  31.984  44.975   3.476
60314W        W28708  34.665  17.769  13.968
60315W        W28709  30.813  24.491  11.972
60316W        W28710  20.166  27.672  12.110
60317W        W28711  29.995   8.366   3.900
60318W        W28712   3.822  42.809  10.243
60319W        W28713  39.922  10.614  12.435
60320W        W28714   2.723   3.836  13.704
60321W        W28715   2.937  26.774  12.923
60322W        W28716  36.933  29.076  12.378
60323W        W28717  27.942  30.442  10.917
60324W        W28718  44.552  21.742   3.363
60325W        W28719  12.116   1.988  14.230
60326W        W28720  36.885   2.114  14.095
60327W        W28721  25.181  12.444   4.264
60328W        W28722  26.932  17.293  14.480
60329W        W28723  33.858  25.089   3.697
60330W        W28724   5.701  27.973  11.285
60331W        W28725  24.463  35.793   3.554
60332W        W28726   3.822  22.773  10.422
60333W        W28727   3.226  35.479   2.278
60334W        W28728  28.146   1.905   1.634
60335W        W28729  40.933   4.195   1.776
60336W        W28730  10.761  35.991  13.385
60337W        W28731   3.459  37.762  13.774
60338W        W28732  33.086  29.422   2.097
60339W        W28733  39.895   1.936  13.509
60340W        W28734  32.486  17.844  10.703
60341W        W28735  38.424  22.318   3.170
60342W        W28736  10.654  18.259   0.202
60343W        W28737  16.340   1.798  12.586
60344W        W28738  32.477  41.334   3.613
60345W        W28739  43.096  23.150   1.416
60346W        W28740   3.373  42.992   3.954
60347W        W28741   3.541  38.875   4.690
60348W        W28742  19.091  35.952  14.452
60349W        W28743   0.198  13.718  14.877
60350W        W28744  12.857  41.106   9.980
60351W        W28745   8.325   2.747  12.182
60352W        W28746  32.542  34.282  11.434
60353W        W28747  41.312  29.420   5.011
60354W        W28748  32.601   7.113   3.843
60355W        W28749  12.745  41.965   0.307
60356W        W28750  28.670  29.077  12.580
60357W        W28751  20.178  26.237  12.870
60358W        W28752  15.872   9.305   0.786
60359W        W28753  41.650  39.637   4.522
60360W        W28754  10.282  11.322  12.918
60361W        W28755  34.660  36.472   4.010
60362W        W28756  17.782  26.449   0.003
60363W        W28757  26.418  18.145   4.197
60364W        W28758  16.604  32.242   0.570
60365W        W28759  42.019   6.241  10.817
60366W        W28760  40.983  17.926  12.928
60367W        W28761  38.292   7.926  14.768
60368W        W28762  11.544  44.959   1.722
60369W        W28763   5.150  18.692  14.342
60370W        W28764  25.258  15.865  14.321
60371W        W28765  10.216  42.782   3.563
60372W        W28766   7.911  34.203   3.243
60373W        W28767  37.151  32.189  14.609
60374W        W28768   4.230  19.962  12.661
60375W        W28769   3.372   2.614   4.529
60376W        W28770  26.887   3.343   1.893
60377W        W28771   7.143  41.583   2.716
60378W        W28772  24.367   9.236   0.337
60379W        W28773  20.577  21.265  13.296
60380W        W28774  36.066  25.281  13.149
60381W        W28775  27.038  11.998  12.351
60382W        W28776  10.918  39.114  12.162
60383W        W28777  39.685  34.767  11.059
60384W        W28778  10.254  40.576  12.032
60385W        W28779  36.158  14.262  11.563
60386W        W28780  29.089  30.245   4.074
60387W        W28781  13.116  44.542  11.079
60388W        W28782   2.922  23.402   2.242
60389W        W28783  19.560  28.842   4.479
60390W        W28784  16.047   7.825  13.468
60391W        W28785  29.855  29.147  11.191
60392W        W28786  39.750  21.576  13.056
60393W        W28787  27.214  20.596   2.638
60394W        W28788   0.963  36.844  10.259
60395W        W28789  26.207  22.333  11.029
60396W        W28790   2.245  30.912  12.421
60397W        W28791  20.165  18.873  11.145
60398W        W28792  26.187  42.953  10.630
60399W        W28793  36.327  23.708  14.458
60400W        W28794  16.347  13.102  14.817
60401W        W28795  22.040  13.524   0.291
60402W        W28796  26.972   0.646  14.867
60403W        W28797  11.497  33.041   3.717
60404W        W28798  20.603  40.508   1.498
60405W        W28799  14.245  42.398  14.951
60406W        W28800   3.952  24.693   4.908
60407W        W28801  21.109   6.180  10.721
60408W        W28802  31.434  40.324   1.278
60409W        W28803  20.154  29.894   5.110
60410W        W28804   9.033  20.961   3.605
60411W        W28805   1.466  30.136   0.173
60412W        W28806  19.289  20.198  12.149
60413W        W28807  27.037  13.855  13.944
60414W        W28808   3.834  22.263  10.421
60415W        W28809  22.916  30.176  13.274
60416W        W28810  25.200  27.081  13.315
60417W        W28811   2.372   4.758  14.353
60418W        W28812   1.163  32.546   2.676
60419W        W28813  18.100  25.456   0.400
60420W        W28814  35.579   0.674  11.197
60421W        W28815   7.775   6.745   9.995
60422W        W28816  32.229  12.999  11.153
60423W        W28817   5.258  30.075  12.334
60424W        W28818   5.291  27.638   3.147
60425W        W28819  30.421   3.852   3.452
60426W        W28820  24.408   1.003  14.534
60427W        W28821  19.581  16.593  11.253
60428W        W28822  23.550  13.826  13.881
60429W        W28823  19.545  30.209  13.471
60430W        W28824   2.314   3.211   2.308
60431W        W28825  13.464  43.256   2.840
60432W        W28826  11.160  17.605  11.449
60433W        W28827  37.460  31.692  14.756
60434W        W28828  13.130   8.854  12.007
60435W        W28829  44.431  24.081  14.699
60436W        W28830   8.087  38.493   1.660
60437W        W28831  23.221  25.418  12.661
60438W        W28832  13.297   2.133  13.865
60439W        W28833  27.174  14.870   0.339
60440W        W28834  24.210  31.487  13.380
60441W        W28835  28.772  37.318  13.936
60442W        W28836  34.879   1.985   1.615
60443W        W28837   5.392  35.384   0.619
60444W        W28838  24.132  33.837   0.768
60445W        W28839   2.567   5.740  10.047
60446W        W28840  28.176  32.398   1.936
60447W        W28841  38.041   4.677   2.464
60448W        W28842  11.682  29.118   0.192
60449W        W28843  19.264  10.143  11.397
60450W        W28844  22.996  36.093  14.960
60451W        W28845  41.472   9.935   3.374
60452W        W28846  43.664  29.470  11.907
60453W        W28847  19.934  42.494  13.488
60454W        W28848   6.236  33.921  12.427
60455W        W28849   8.779   5.852  10.300
60456W        W28850   6.286  34.959  10.667
60457W        W28851  26.565  21.279   0.399
60458W        W28852   4.235  28.525  11.392
60459W        W28853  11.241   8.012  10.667
60460W        W28854  15.204  36.608   4.632
60461W        W28855  26.116  26.225  13.172
60462W        W28856  26.437  31.898  14.320
60463W        W28857  43.611  41.448  12.564
60464W        W28858  35.377  34.125  13.036
60465W        W28859  38.436  38.484  12.470
60466W        W28860   6.098  28.594   3.730
60467W        W28861  10.036  22.101  13.525
60468W        W28862   3.396  39.022   0.976
60469W        W28863  10.518   2.372  13.732
60470W        W28864  11.671   5.424  12.673
60471W        W28865  31.030  26.538   0.475
60472W        W28866  33.977  33.843  10.376
60473W        W28867   4.118  12.546   2.380
60474W        W28868  44.954  44.890  10.627
60475W        W28869  32.455   0.901   4.290
60476W        W28870  15.156  44.517   1.477
60477W        W28871  17.939  42.394   3.232
60478W        W28872  26.958  37.955  10.699
60479W        W28873  43.572  10.541   0.836
60480W        W28874  31.677  21.694  11.341
60481W        W28875  28.240  40.336   0.714
60482W        W28876   9.331   8.718   1.257
60483W        W28877  27.575  28.144   0.496
60484W        W28878  40.785   7.705  12.973
60485W        W28879   1.285  32.621   0.401
60486W        W28880  14.419  18.150   0.901
60487W        W28881  33.601  24.431   0.837
60488W        W28882  16.917   9.141  14.720
60489W        W28883   5.330  16.198   3.547
60490W        W28884  27.718   1.201   1.232
60491W        W28885  38.974  29.698   0.100
60492W        W28886  31.152   1.246   1.354
60493W        W28887  32.368  13.610   1.297
60494W        W28888   7.761  41.472  13.796
60495W        W28889  14.281  17.601   2.401
60496W        W28890   0.296  27.227   1.738
60497W        W28891  12.795   4.732   1.783
60498W        W28892  41.513  44.015   2.956
60499W        W28893   6.352   4.283  12.525
60500W        W28894  14.777  20.301  11.649
60501W        W28895  37.773  20.779   4.808
60502W        W28896  17.710  29.054   4.796
60503W        W28897  23.099   2.154  11.117
60504W        W28898   0.397   2.028   2.031
60505W        W28899  32.018  36.580  11.705
60506W        W28900  32.034  19.676   0.106
60507W        W28901  41.766  40.468   4.141
60508W        W28902  27.124   8.580   3.599
60509W        W28903  28.360  12.931  13.972
60510W        W28904  28.954  14.500  12.536
60511W        W28905  38.974  15.268  14.123
60512W        W28906  26.415  29.040   1.460
60513W        W28907  25.578  43.979   2.638
60514W        W28908  31.671  25.993   4.251
60515W        W28909   0.155   5.943   3.866
60516W        W28910  37.888  14.554  10.958
60517W        W28911  33.451  17.060   3.645
60518W        W28912  13.998  43.190   3.200
60519W        W28913   8.620   5.733   1.765
60520W        W28914  25.217  17.841   2.302
60521W        W28915  24.155  15.839   2.651
60522W        W28916  20.574  40.402  14.121
60523W        W28917  33.442  14.333   2.276
60524W        W28918  32.931   5.689  14.497
60525W        W28919   1.452  26.458   3.252
60526W        W28920  11.378   5.192   1.275
60527W        W28921   1.695  21.687  14.308
60528W        W28922  24.671   8.750  10.962
60529W        W28923  13.953  32.389   2.052
60530W        W28924  18.800  44.073  14.738
60531W        W28925  13.722  39.361  13.988
60532W        W28926   3.779  42.357   3.859
60533W        W28927  12.771  28.204  11.065
60534W        W28928  11.593  30.522   3.617
60535W        W28929   3.559  25.661  11.107
60536W        W28930  43.447  10.860  10.511
60537W        W28931  15.629  16.796  10.648
60538W        W28932   5.925  23.595  11.276
60539W        W28933  37.038  14.378  13.119
60540W        W28934  34.424  41.183   0.574
60541W        W28935  36.577  13.355  13.799
60542W        W28936  31.592  24.230  13.566
60543W        W28937  36.882  30.666   4.235
60544W        W28938  32.525  42.788  11.020
60545W        W28939  18.441  20.126  14.608
60546W        W28940  18.538   1.070   3.714
60547W        W28941  10.592  30.588   1.393
60548W        W28942  21.746  40.587   3.150
60549W        W28943  39.545  28.054   2.310
60550W        W28944  23.781  29.128   2.521
60551W        W28945  44.797   5.279  13.327
60552W        W28946  37.993   9.658   3.383
60553W        W28947  44.937  44.906  12.031
60554W        W28948  41.245  40.779   0.227
60555W        W28949  34.859  30.724  13.415
60556W        W28950  32.969  21.480  11.434
60557W        W28951  33.800  44.187  11.566
60558W        W28952  29.405  30.925   0.345
60559W        W28953  20.557  26.448  10.847
60560W        W28954   8.343  43.735  11.523
60561W        W28955  40.700   8.202  12.891
60562W        W28956  16.067  27.524  11.481
60563W        W28957  14.540  12.714  12.386
60564W        W28958   8.308   2.403  13.051
60565W        W28959  25.131  36.415   2.809
60566W        W28960  30.125   9.891  13.491
60567W        W28961   8.390   6.052  11.565
60568W        W28962  27.493  30.476   2.904
60569W        W28963  13.736   9.814  10.934
60570W        W28964   4.034  41.424  11.893
60571W        W28965  43.951  21.048   1.752
60572W        W28966   3.396   1.045   1.834
60573W        W28967  43.032   2.763  11.706
60574W        W28968  42.559  25.688  11.646
60575W        W28969  39.402  40.502  14.371
60576W        W28970   0.266  16.537   4.170
60577W        W28971  39.446  15.593  11.885
60578W        W28972  11.719  25.677   0.820
60579W        W28973   9.180   6.521  11.678
60580W        W28974  21.047  35.938   0.485
60581W        W28975   9.491   8.560   2.344
60582W        W28976  10.622  32.343   2.986
60583W        W28977   5.787   2.174  13.858
60584W        W28978   1.453  17.328  10.880
60585W        W28979  25.510  38.439   0.553
60586W        W28980  10.405   7.278   0.396
60587W        W28981  23.579  38.488   0.653
60588W        W28982  41.746  30.081  13.043
60589W        W28983  14.581  43.767  10.865
60590W        W28984   0.056  40.949   4.090
60591W        W28985  14.875  23.004   1.316
60592W        W28986   2.503   0.873   4.522
60593W        W28987  15.685  20.295  12.159
60594W        W28988  35.184  19.689  13.575
60595W        W28989  22.757  30.771   4.498
60596W        W28990  42.234  20.647  14.287
60597W        W28991  38.023  14.357   4.478
60598W        W28992  16.154  39.416   3.865
60599W        W28993  42.205  14.090  13.230
60600W        W28994  19.683  15.285  13.065
60601W        W28995  41.793  14.182   4.230
60602W        W28996  40.297  25.095  14.084
60603W        W28997  27.392   3.933   2.374
60604W        W28998  21.989  13.663  10.572
60605W        W28999  16.649   9.145   1.908
60606W        W29000  15.718  15.377  11.821
60607W        W29001  24.303  23.595   2.316
60608W        W29002  18.448  31.567   4.413
60609W        W29003  28.001  32.070  10.140
60610W        W29004   4.871  44.584  13.432
60611W        W29005   5.252  31.582  11.484
60612W        W29006  38.645  41.770   1.838
60613W        W29007  34.098   5.422  13.490
60614W        W29008   3.397  27.487   2.749
60615W        W29009  15.329  35.393   0.336
60616W        W29010  35.396   5.208  14.915
60617W        W29011  27.075  33.674  14.148
60618W        W29012  33.350  44.720   2.340
60619W        W29013  35.434   1.841  14.362
60620W        W29014  34.730  40.398  12.544
60621W        W29015   9.323  36.698  13.390
60622W        W29016  14.538  34.082  12.114
60623W        W29017  31.025  22.119   0.674
60624W        W29018  25.736  30.749  11.261
60625W        W29019  35.138   2.571   4.741
60626W        W29020  39.518   1.783   3.783
60627W        W29021  19.669   1.028   2.266
60628W        W29022  19.635  10.893   2.754
60629W        W29023  25.636  26.607   2.704
60630W        W29024  13.314   4.927  13.966
60631W        W29025   1.288  30.654  13.842
60632W        W29026   5.356  33.483   2.677
60633W        W29027  34.889  43.752   2.324
60634W        W29028  18.459  38.523  12.935
60635W        W29029  12.891  43.361  13.579
60636W        W29030  41.059   6.857   4.410
60637W        W29031  16.328   1.897  13.471
60638W        W29032  34.455  24.004   4.289
60639W        W29033  40.979   0.207  13.295
60640W        W29034  18.109  16.723  12.706
60641W        W29035  41.410  20.627  11.377
60642W        W29036  43.032  39.466  14.758
60643W        W29037  42.835  11.838   1.676
60644W        W29038   7.302  26.991   0.236
60645W        W29039  22.018   0.954   0.685
60646W        W29040  10.687  20.347  14.571
60647W        W29041  17.604  39.406   3.602
60648W        W29042  20.165   4.848  13.008
60649W        W29043  32.630  29.510  11.443
60650W        W29044  38.333   6.485  12.817
60651W        W29045   5.203  40.454  10.908
60652W        W29046  11.990   7.456  11.443
60653W        W29047  22.204  13.845  11.013
60654W        W29048  31.408  32.010   0.732
60655W        W29049  35.631  39.447   3.166
60656W        W29050   8.147  37.070  11.514
60657W        W29051  21.681  32.321  13.943
60658W        W29052  19.813   2.857   1.768
60659W        W29053   7.598  26.208  11.488
60660W        W29054  21.677  41.124  13.968
60661W        W29055  20.985   7.197   2.954
60662W        W29056  28.916  35.146   1.376
60663W        W29057  13.725  11.160  11.895
60664W        W29058   2.742  13.374  14.340
60665W        W29059   8.317  43.467  12.381
60666W        W29060  20.134  43.386   3.679
60667W        W29061  29.841  28.425   0.392
60668W        W29062  33.666  10.475  11.693
60669W        W29063  17.774  15.653   4.178
60670W        W29064   4.986  32.106   1.294
60671W        W29065  30.640  32.684  14.286
60672W        W29066  34.299  16.734  12.368
60673W        W29067  15.281  14.042  13.164
60674W        W29068  26.012  39.451  14.109
60675W        W29069  13.094  25.946  12.117
60676W        W29070  42.355  39.011   2.802
60677W        W29071  34.514  36.345   4.487
60678W        W29072  25.747  35.604  14.484
60679W        W29073  41.098  13.301   3.573
60680W        W29074  39.368   8.230  12.006
60681W        W29075  31.369  32.696   4.117
60682W        W29076  29.131  13.298   4.720
60683W        W29077  21.521  35.641   0.560
60684W        W29078  19.948   8.381  14.382
60685W        W29079  30.913  40.368  11.604
60686W        W29080  19.722  26.460  13.033
60687W        W29081  38.597  16.223  14.523
60688W        W29082  37.451  21.276   0.228
60689W        W29083  10.349   6.820  11.060
60690W        W29084  16.704  35.808  13.800
60691W        W29085   3.328  34.594  14.281
60692W        W29086  35.924   0.370  14.295
60693W        W29087  29.011   8.723   2.269
60694W        W29088  20.189  30.468   4.233
60695W        W29089  22.590   7.908   3.245
60696W        W29090  37.589  36.876   4.987
60697W        W29091  38.798  36.520  11.429
60698W        W29092  19.290  30.055   1.399
60699W        W29093   9.038   4.604   4.982
60700W        W29094  11.659  41.252   2.636
60701W        W29095   6.367  23.748   9.544
60702W        W29096  33.977   4.757  11.953
60703W        W29097  18.027  12.220   4.571
60704W        W29098  22.382  28.139   0.540
60705W        W29099  41.244  10.920  11.149
60706W        W29100  27.156  12.718   2.507
60707W        W29101  35.398  10.321  12.489
60708W        W29102   6.886  17.072   0.882
60709W        W29103  12.264   4.522  11.863
60710W        W29104  17.479  28.597   4.695
60711W        W29105  36.661  42.754  11.108
60712W        W29106   9.212  35.315  11.163
60713W        W29107  38.871  44.231   3.579
60714W        W29108  41.335  42.761   4.594
60715W        W29109  30.034  29.976   2.845
60716W        W29110   2.652  21.319  13.479
60717W        W29111  17.701  27.596  12.603
60718W        W29112   0.508  13.032   3.228
60719W        W29113   2.270  36.642  12.431
60720W        W29114  28.448   9.250   0.545
60721W        W29115   9.269  32.310  12.914
60722W        W29116  36.214  24.207  11.292
60723W        W29117  25.069  33.395  14.305
60724W        W29118  11.721  33.000   0.438
60725W        W29119  34.380  34.596  14.893
60726W        W29120  41.992  31.242   4.076
60727W        W29121  21.421   9.714  11.545
60728W        W29122  11.840  15.266  13.847
60729W        W29123  41.374  35.504  14.874
60730W        W29124  40.892   3.241   1.847
60731W        W29125  18.295   3.495  13.557
60732W        W29126  36.624  44.167  12.851
60733W        W29127   6.429   3.660   0.302
60734W        W29128  40.617  14.238  12.916
60735W        W29129  21.193  40.024   4.611
60736W        W29130  14.291  12.407   3.831
60737W        W29131  27.738  14.726   1.226
60738W        W29132   6.637   1.959  12.059
60739W        W29133  13.422  25.900   3.388
60740W        W29134  28.930  23.699  12.940
60741W        W29135  23.422  30.818  11.284
60742W        W29136  33.944  16.083   1.619
60743W        W29137  40.567  36.981   4.233
60744W        W29138   9.608   6.735  14.131
60745W        W29139  32.942  32.365   0.250
60746W        W29140  26.946   7.683  11.301
60747W        W29141   6.385  26.411  11.338
60748W        W29142  12.267  13.299   2.379
60749W        W29143  20.787  39.815   4.365
60750W        W29144  24.494  15.907   3.186
60751W        W29145  16.099  33.050  13.142
60752W        W29146  23.583  32.862   5.018
60753W        W29147  40.845  29.125  13.434
60754W        W29148  28.183   0.238   1.709
60755W        W29149   4.172  11.798  12.368
60756W        W29150   0.483  16.044  11.610
60757W        W29151   0.379   1.957  12.531
60758W        W29152  35.634  18.416   1.750
60759W        W29153  31.937   1.757  14.009
60760W        W29154  24.325  31.867   3.091
60761W        W29155  20.438  28.691   4.243
60762W        W29156  24.190  34.608   2.762
60763W        W29157  29.920   6.400   3.355
60764W        W29158  21.496  18.947   3.182
60765W        W29159  42.300  27.826  13.434
60766W        W29160   6.814   0.889   2.976
60767W        W29161  25.165   1.005  13.766
60768W        W29162  33.064  27.262  11.520
60769W        W29163  31.363  25.268  12.711
60770W        W29164  28.198  38.404  12.079
60771W        W29165  24.217  27.372   4.700
60772W        W29166  27.933  42.414   1.802
60773W        W29167  12.853   8.424  11.978
60774W        W29168  41.042  43.641  12.365
60775W        W29169   2.612  44.319   5.133
60776W        W29170  24.181   9.445   4.632
60777W        W29171   9.509   3.187   0.026
60778W        W29172  27.683  18.036   4.549
60779W        W29173   7.874  35.103   0.757
60780W        W29174  18.736   6.801  10.456
60781W        W29175  13.635  38.830  13.357
60782W        W29176  43.311  44.229   1.359
60783W        W29177  42.541  29.268   4.404
60784W        W29178  26.087  28.664   3.695
60785W        W29179   0.267  42.493   4.799
60786W        W29180  20.802  38.665   2.256
60787W        W29181  23.643  34.026   0.825
60788W        W29182  24.053  30.039  13.381
60789W        W29183  40.060  14.678   1.616
60790W        W29184  31.644  41.470   0.628
60791W        W29185  16.235  42.463   4.577
60792W        W29186  28.617   2.168   0.370
60793W        W29187  11.480  27.050  10.677
60794W        W29188  29.728  28.395  14.223
60795W        W29189   2.797  24.810  13.514
60796W        W29190   9.879   5.966   3.624
60797W        W29191  29.704   4.673   1.660
60798W        W29192  40.965  11.365  11.880
60799W        W29193  29.435  21.588  10.647
60800W        W29194  11.158  40.748   3.747
60801W        W29195  29.294  18.353   2.292
60802W        W29196   9.082   2.695   0.804
60803W        W29197  28.601  20.836   4.113
60804W        W29198  38.092  10.882  11.464
60805W        W29199  43.789  32.225  12.223
60806W        W29200   9.954  21.062   0.454
60807W        W29201  24.571  38.169  12.951
60808W        W29202  31.622  29.615  14.348
60809W        W29203  16.823  24.537   3.361
60810W        W29204   4.892  29.193   0.160
60811W        W29205   7.704  29.845  10.801
60812W        W29206   5.600   6.334   2.377
60813W        W29207  12.764  14.063   2.160
60814W        W29208  18.645   2.835   4.128
60815W        W29209   9.762  26.569  11.918
60816W        W29210  13.362  21.679  13.827
60817W        W29211  19.757  39.730  10.294
60818W        W29212  13.702  35.380   1.903
60819W        W29213  20.541  36.918   4.440
60820W        W29214  21.634  31.214   3.819
60821W        W29215  31.630  20.600  12.124
60822W        W29216  30.290  13.311   2.210
60823W        W29217   0.243  24.500  13.812
60824W        W29218  12.860  28.336   0.296
60825W        W29219  17.800   2.911   4.466
60826W        W29220  25.057  28.159  12.363
60827W        W29221  40.061  22.913   2.273
60828W        W29222  20.154   4.402   1.994
60829W        W29223  39.669   8.850   1.034
60830W        W29224  17.510  16.156   0.761
60831W        W29225  30.401  18.429  10.592
60832W        W29226  32.412  36.080   2.796
60833W        W29227  20.194   3.511   2.192
60834W        W29228  42.418  10.390   2.915
60835W        W29229  17.133  36.142  14.631
60836W        W29230  27.046  20.672  12.393
60837W        W29231  11.024   7.208  11.624
60838W        W29232  13.151  41.082   3.624
60839W        W29233  40.447  37.532  12.838
60840W        W29234  27.956  19.195  11.979
60841W        W29235  44.448  37.080  10.946
60842W        W29236  35.396  22.371  11.633
60843W        W29237   0.296  38.279   0.357
60844W        W29238  29.347  28.350  10.320
60845W        W29239  32.342  22.048  11.077
60846W        W29240  39.091  32.288   1.211
60847W        W29241  38.025  38.039  11.602
60848W        W29242  29.136  40.911  11.912
60849W        W29243  26.022  43.586  13.827
60850W        W29244   6.838  23.889  10.770
60851W        W29245  14.121  39.347   1.377
60852W        W29246  12.380  38.117  13.369
60853W        W29247  37.818  10.691  10.557
60854W        W29248   1.492   6.691  12.898
60855W        W29249   4.289  27.810  14.804
60856W        W29250  41.505   3.259  11.438
60857W        W29251  23.386  24.966  12.971
60858W        W29252  29.426  17.840  14.560
60859W        W29253  19.124  37.037   2.702
60860W        W29254  16.547   8.727   2.186
60861W        W29255   2.809  34.393  13.427
60862W        W29256  34.173   1.387   1.743
60863W        W29257  14.762  22.340   3.600
60864W        W29258  21.080  24.113  12.563
60865W        W29259  26.915  24.540   1.879
60866W        W29260   3.964  14.101  13.850
60867W        W29261  18.232  30.473  14.762
60868W        W29262  18.496  43.429   0.813
60869W        W29263   2.815  39.291  14.885
60870W        W29264  17.442  10.887  11.526
60871W        W29265  40.834  27.726  12.156
60872W        W29266   1.270  42.999  11.706
60873W        W29267  25.680  10.834   1.982
60874W        W29268   8.170  14.473   0.769
60875W        W29269  44.913  18.275  13.779
60876W        W29270  28.136  33.146   2.709
60877W        W29271   4.931  34.549  10.746
60878W        W29272  28.349  32.653   0.607
60879W        W29273  42.608  12.311   1.845
60880W        W29274  36.054  34.894  10.691
60881W        W29275   0.888  39.842  14.513
60882W        W29276   7.253  29.503   0.336
60883W        W29277  24.959   1.753  13.536
60884W        W29278  33.701  39.937  11.126
60885W        W29279  24.462  19.234   4.143
60886W        W29280  41.973  10.760   3.805
60887W        W29281  24.794  11.532   2.118
60888W        W29282   7.270  16.895  14.810
60889W        W29283  35.467  44.938   4.571
60890W        W29284  26.158  19.495  10.619
60891W        W29285  39.970  15.694  11.255
60892W        W29286  36.057   2.238  14.516
60893W        W29287   7.462  43.343  11.930
60894W        W29288  39.954  23.463  12.889
60895W        W29289  21.975  16.658   0.036
60896W        W29290  20.967  26.053  14.061
60897W        W29291  25.358  26.604  13.504
60898W        W29292  25.001  30.915  13.470
60899W        W29293  38.296  13.678  14.426
60900W        W29294   3.190  11.480   3.968
60901W        W29295  39.388  12.788  13.020
60902W        W29296  27.027  36.836   1.707
60903W        W29297  24.561  17.965  13.787
60904W        W29298   2.239  32.410   0.334
60905W        W29299  37.604  43.696  11.101
60906W        W29300  15.058  42.965   3.187
60907W        W29301  36.004  25.113  14.094
60908W        W29302  36.016  23.792   4.502
60909W        W29303  31.052   2.413  12.092
60910W        W29304  40.106  21.073   5.269
60911W        W29305  40.567   1.225  13.450
60912W        W29306   3.180  26.739   4.819
60913W        W29307  23.155   9.839   0.467
60914W        W29308  23.958  20.884  12.474
60915W        W29309  28.400  21.062  12.335
60916W        W29310   7.891  20.357  12.150
60917W        W29311   1.906  10.859  13.603
60918W        W29312  32.127  17.137   4.678
60919W        W29313  15.353  38.137  10.167
60920W        W29314  44.617  26.102   1.756
60921W        W29315  42.304  28.966   3.333
60922W        W29316   6.746  19.630   0.741
60923W        W29317  23.659  44.961  13.493
60924W        W29318   3.928  33.618  14.813
60925W        W29319  33.815  11.835  10.335
60926W        W29320  23.353  27.787   0.533
60927W        W29321   6.274  12.727  11.793
60928W        W29322  40.404  21.267  13.885
60929W        W29323  26.680   9.835   2.922
60930W        W29324  20.663   3.467   2.425
60931W        W29325  20.051   3.636   9.862
60932W        W29326  37.218   2.501  13.950
60933W        W29327  33.823  12.640   2.021
60934W        W29328  29.357   9.175  11.578
60935W        W29329  15.513  29.658   4.641
60936W        W29330  25.668  40.796  11.586
60937W        W29331  34.884  10.073   3.679
60938W        W29332  36.244  22.907  14.968
60939W        W29333  32.494  39.294   0.803
60940W        W29334   6.265  23.558   2.219
60941W        W29335  43.481  37.504  14.820
60942W        W29336  25.225  31.582   1.726
60943W        W29337  14.607  37.889  12.871
60944W        W29338   1.913  21.570   3.752
60945W        W29339  37.433  17.624   0.879
60946W        W29340  42.289  26.007  13.279
60947W        W29341  10.917  42.760   3.256
60948W        W29342  35.494  33.662   4.130
60949W        W29343  37.372   3.933   1.563
60950W        W29344  32.570  34.504  13.887
60951W        W29345   5.782  15.563  10.887
60952W        W29346  18.575  44.018   5.013
60953W        W29347  18.211  15.843   1.285
60954W        W29348  43.376  38.973  13.981
60955W        W29349  17.359  37.077   2.278
60956W        W29350  32.030   2.500   2.090
60957W        W29351  11.313  33.158  14.800
60958W        W29352   4.402  44.774  10.629
60959W        W29353  36.582  40.118  14.419
60960W        W29354  41.322   1.819   3.262
60961W        W29355  32.142   3.361  13.044
60962W        W29356   6.614  26.713   3.671
60963W        W29357  39.518  41.829  12.097
60964W        W29358  43.196  10.246  13.567
60965W        W29359   2.822  37.405   3.294
60966W        W29360  27.001  16.104  13.738
60967W        W29361  19.677   0.712  12.895
60968W        W29362   9.405  11.921   4.667
60969W        W29363  12.639   7.364   1.924
60970W        W29364  34.916   5.993  10.343
60971W        W29365   4.431  18.140   1.639
60972W        W29366  15.252  31.867  11.115
60973W        W29367  39.435  26.904   3.857
60974W        W29368  35.703   2.505   3.832
60975W        W29369   1.765  10.777  11.893
60976W        W29370  33.869  10.091   3.668
60977W        W29371  26.198  13.632  14.991
60978W        W29372   0.887   4.156  14.302
60979W        W29373  31.149  33.669   2.871
60980W        W29374  14.716   4.099  12.852
60981W        W29375  25.086   0.907   2.282
60982W        W29376  16.720  23.814  11.141
60983W        W29377   7.235  31.643   2.541
60984W        W29378  17.576  39.126   2.121
60985W        W29379  14.854  32.195  14.345
60986W        W29380  22.583  14.616   0.373
60987W        W29381  34.610   1.350  10.688
60988W        W29382  43.281  13.646  13.976
60989W        W29383   1.526  44.681  14.808
60990W        W29384  33.421  36.185  14.975
60991W        W29385  28.688  24.152   3.665
60992W        W29386   9.408  13.207  13.013
60993W        W29387  18.593  27.853  13.531
60994W        W29388  16.873  19.892  12.482
60995W        W29389  36.735  36.056   1.947
60996W        W29390   2.815  43.393  12.540
60997W        W29391   1.355  32.092  10.843
60998W        W29392   7.249   8.884  11.568
60999W        W29393  19.212  39.750  13.814
61000W        W29394  14.691  36.143  11.253
61001W        W29395  44.432  22.219   3.686
61002W        W29396  27.288  43.347  12.563
61003W        W29397  23.728  28.486  14.926
61004W        W29398  33.544  40.491  12.253
61005W        W29399  19.699   8.272   4.927
61006W        W29400  35.533  23.260  11.509
61007W        W29401   3.437  30.913   3.302
61008W        W29402   8.340   0.328   0.170
61009W        W29403   6.741  36.998  13.461
61010W        W29404  44.211  27.503  11.516
61011W        W29405  27.960  20.053  14.041
61012W        W29406   1.192  14.853   1.412
61013W        W29407  41.654  30.846   4.175
61014W        W29408   9.551  13.129  13.768
61015W        W29409  44.421  42.219  14.888
61016W        W29410  38.138  21.330  11.159
61017W        W29411  22.138  15.243   0.907
61018W        W29412   8.642   7.771  12.173
61019W        W29413  44.182  23.597   4.903
61020W        W29414  19.456  29.503   4.958
61021W        W29415  19.764  24.626   1.006
61022W        W29416   4.691  29.484  11.617
61023W        W29417  12.070  37.586  14.383
61024W        W29418  36.059  35.579  12.399
61025W        W29419  10.887  35.773  12.942
61026W        W29420  17.545  30.101  14.490
61027W        W29421  20.337  19.980  13.267
61028W        W29422  27.311  12.654   4.600
61029W        W29423  26.581  30.408  13.135
61030W        W29424   2.310  28.272  14.530
61031W        W29425  33.560  34.590   2.822
61032W        W29426  30.138  41.448  14.770
61033W        W29427  40.787  26.009  14.548
61034W        W29428  28.552   9.297  12.885
61035W        W29429  40.501  10.681   0.805
61036W        W29430   1.774  19.237   2.459
61037W        W29431  17.162  38.855   2.293
61038W        W29432  23.687  24.685   3.131
61039W        W29433  12.847   0.465  14.656
61040W        W29434  41.989  32.810   1.623
61041W        W29435  44.814  34.986  10.630
61042W        W29436  35.426   7.871  10.661
61043W        W29437  27.115  29.043  11.801
61044W        W29438  35.794  22.741   3.384
61045W        W29439   2.165  37.624   3.631
61046W        W29440  26.971  28.429  12.574
61047W        W29441  15.920  38.336   0.817
61048W        W29442   0.827   4.279   0.665
61049W        W29443  36.570   2.294   2.704
61050W        W29444  25.751  13.247  11.650
61051W        W29445   4.789  41.369   2.182
61052W        W29446  34.838   7.670  13.025
61053W        W29447  33.493   9.031   9.969
61054W        W29448  22.501  40.783   4.106
61055W        W29449  36.270   1.896   2.884
61056W        W29450  24.712  32.610   0.101
61057W        W29451  31.293  43.403  13.340
61058W        W29452  42.496  17.669   4.515
61059W        W29453  39.821  24.019  10.670
61060W        W29454  20.224   1.874   3.904
61061W        W29455  42.640  33.350  13.662
61062W        W29456  29.912  19.140   3.263
61063W        W29457   9.365  20.279   4.532
61064W        W29458   4.988  33.033   1.330
61065W        W29459  14.690  39.435   3.257
61066W        W29460  30.862  34.981   1.808
61067W        W29461  44.988  30.570  14.904
61068W        W29462  11.361   1.450   4.443
61069W        W29463  19.193  16.372  14.287
61070W        W29464  24.622  16.585  11.200
61071W        W29465  40.704  23.636   3.997
61072W        W29466  38.061  30.004  14.665
61073W        W29467  41.007  22.598   0.861
61074W        W29468  16.665  16.654  13.426
61075W        W29469  29.543  18.150  14.975
61076W        W29470   2.798  17.196  11.360
61077W        W29471   8.360  34.487  13.901
61078W        W29472  33.542  15.669  12.244
61079W        W29473  24.800   9.754  12.034
61080W        W29474  17.111  35.456  14.795
61081W        W29475  30.575  35.452   1.866
61082W        W29476  12.726  15.607  12.902
61083W        W29477   1.618  28.048  11.107
61084W        W29478   7.304   8.729   1.397
61085W        W29479  40.924   7.587  13.450
61086W        W29480   1.886  12.777   3.316
61087W        W29481  32.565  13.420   3.895
61088W        W29482  13.901  30.498   3.295
61089W        W29483  10.652  27.065   4.098
61090W        W29484  33.600  15.858  13.661
61091W        W29485  25.829   5.165  13.563
61092W        W29486  12.721  41.982   2.193
61093W        W29487  37.887   1.655  12.608
61094W        W29488  34.970  29.954  12.956
61095W        W29489   1.870  15.937   1.483
61096W        W29490  38.571  32.467  13.589
61097W        W29491  20.804  18.053  14.441
61098W        W29492   5.402  16.776  14.276
61099W        W29493   9.240  44.891  10.728
61100W        W29494  27.699  25.157  13.385
61101W        W29495   4.281  15.641   4.549
61102W        W29496  28.939   5.635   3.726
61103W        W29497  12.073  36.821  13.807
61104W        W29498  42.879  27.410   4.392
61105W        W29499  20.556  34.043  13.789
61106W        W29500  13.358  40.378   2.676
61107W        W29501  41.963   7.964  13.360
61108W        W29502  17.182   0.567   3.220
61109W        W29503  20.689  14.195  10.871
61110W        W29504   1.761  13.165   1.433
61111W        W29505   7.346  34.171  14.067
61112W        W29506  43.180  35.653   2.835
61113W        W29507  11.266  30.461   0.310
61114W        W29508  27.517  27.672  11.438
61115W        W29509  17.978  25.787  14.054
61116W        W29510   8.412   2.187  10.610
61117W        W29511  12.084   8.408   4.079
61118W        W29512   3.990  35.440  10.552
61119W        W29513  30.548  32.148   1.049
61120W        W29514  17.083   1.068   1.474
61121W        W29515  12.725  22.759  11.772
61122W        W29516  21.544  32.117   2.644
61123W        W29517   4.599  22.658  14.799
61124W        W29518   6.675  22.531  11.123
61125W        W29519  42.351   6.883  13.984
61126W        W29520  28.142  15.074  14.460
61127W        W29521  17.051  40.796  14.421
61128W        W29522  16.314  44.263   0.913
61129W        W29523  27.585  18.548   2.978
61130W        W29524  34.200   6.017  11.896
61131W        W29525  19.359  38.102  12.129
61132W        W29526  42.355  14.161  13.976
61133W        W29527  21.600  25.192  10.639
61134W        W29528  43.055  32.519   1.462
61135W        W29529  41.057   4.471   4.125
61136W        W29530  28.431   2.460  11.671
61137W        W29531  41.552  25.605   4.548
61138W        W29532  14.844  18.633   2.133
61139W        W29533  42.513  11.955  10.688
61140W        W29534   0.481  30.381   3.688
61141W        W29535   1.692  40.324  12.355
61142W        W29536   4.283   8.695   3.576
61143W        W29537  11.250   4.461  14.879
61144W        W29538  12.728   2.323  12.046
61145W        W29539   4.614  34.852  13.450
61146W        W29540  19.837  39.044  11.935
61147W        W29541  33.167  32.285  12.574
61148W        W29542  28.857   9.573  14.595
61149W        W29543  19.623   9.114  13.754
61150W        W29544  31.505  25.711  11.078
61151W        W29545   7.750  24.738   2.311
61152W        W29546  31.544   8.209   3.215
61153W        W29547  10.909  28.429  14.971
61154W        W29548   8.403  36.819  12.993
61155W        W29549  44.328   6.059  10.268
61156W        W29550  14.127   4.470   0.747
61157W        W29551  40.806  15.510  11.590
61158W        W29552  40.233  26.627  11.888
61159W        W29553  31.838   5.013   4.142
61160W        W29554  26.585  25.542   2.773
61161W        W29555  32.172   1.478  13.660
61162W        W29556  21.486  12.073   5.016
61163W        W29557  33.668  15.923   3.808
61164W        W29558  25.666  23.680  13.920
61165W        W29559  20.488   0.796   1.946
61166W        W29560  25.158  13.815   2.723
61167W        W29561  24.711  20.709  11.863
61168W        W29562  31.656  41.528   4.865
61169W        W29563   3.205  24.122  13.666
61170W        W29564  36.439   6.870  11.705
61171W        W29565  43.882  19.119   4.241
61172W        W29566  14.516   4.449   2.956
61173W        W29567  42.989   0.432  14.216
61174W        W29568   7.284  35.243   2.748
61175W        W29569   7.930   5.802  11.620
61176W        W29570  11.640  23.961  14.483
61177W        W29571  42.701  20.238   2.219
61178W        W29572  31.678  26.963   1.451
61179W        W29573  29.143  21.990   1.734
61180W        W29574  15.309   0.173  13.781
61181W        W29575  23.575  29.055  13.390
61182W        W29576  22.513  11.617   2.754
61183W        W29577  20.862  40.087   2.204
61184W        W29578   3.862  28.125   4.558
61185W        W29579   4.558  28.004   4.253
61186W        W29580  14.061  35.900   4.176
61187W        W29581  32.417  23.219   3.887
61188W        W29582  25.083  23.023   1.844
61189W        W29583  38.884   8.188  12.229
61190W        W29584   3.984  36.952   2.393
61191W        W29585  43.822  31.786  14.310
61192W        W29586  35.511  31.806   2.687
61193W        W29587  42.257  17.734  11.417
61194W        W29588  26.023  34.031  13.907
61195W        W29589   5.377  31.036  10.734
61196W        W29590   7.773  32.142  11.991
61197W        W29591   4.269  27.630   4.459
61198W        W29592  21.275  36.167  11.415
61199W        W29593  35.404  43.030   5.092
61200W        W29594   8.771  40.931   0.326
61201W        W29595  43.508  26.413   5.006
61202W        W29596  33.328   5.278  11.354
61203W        W29597  12.802  40.519   4.636
61204W        W29598  35.831  18.099  14.650
61205W        W29599  26.649  12.585  13.077
61206W        W29600  15.341  28.651   2.851
61207W        W29601   0.359  40.740  13.399
61208W        W29602   0.453   0.825  11.156
61209W        W29603  13.523  36.473   2.658
61210W        W29604  30.042  43.984  14.895
61211W        W29605  44.786  24.072  11.675
61212W        W29606  34.915   7.495  10.550
61213W        W29607   3.058  22.305  14.452
61214W        W29608  20.167  10.427   4.193
61215W        W29609  33.492   4.623  13.040
61216W        W29610  40.506   0.130   1.075
61217W        W29611   1.459  17.219   0.164
61218W        W29612  14.506  14.171  12.001
61219W        W29613  42.725  20.713  11.970
61220W        W29614   0.807  15.994   0.251
61221W        W29615  25.418  11.178  11.618
61222W        W29616  41.001   1.284   4.753
61223W        W29617  34.110  38.795   2.886
61224W        W29618  18.475  36.866   1.521
61225W        W29619  21.763  31.165  11.680
61226W        W29620  12.322  28.577  14.093
61227W        W29621  34.066  39.525   4.596
61228W        W29622  31.238  15.224  13.973
61229W        W29623  12.719  34.839  13.809
61230W        W29624  12.896  38.401   2.282
61231W        W29625   9.300  21.802  13.864
61232W        W29626  34.026  17.780   4.682
61233W        W29627  39.815  39.330  11.428
61234W        W29628   6.103  15.155   0.994
61235W        W29629  16.775   1.265   3.609
61236W        W29630  12.119  43.471  13.827
61237W        W29631  22.724  32.188  10.656
61238W        W29632   6.303   6.144  13.428
61239W        W29633  16.531  16.901  12.970
61240W        W29634  40.267  34.305  10.764
61241W        W29635  23.147  25.995   0.179
61242W        W29636  35.072  12.801  10.732
61243W        W29637  23.134  43.113  11.666
61244W        W29638   9.592  18.144   2.346
61245W        W29639   6.590  20.751   0.942
61246W        W29640  42.250  25.002   3.328
61247W        W29641  25.642   1.356   0.410
61248W        W29642  42.494  30.945  11.682
61249W        W29643  31.094  23.030   3.257
61250W        W29644   7.435  36.113  11.965
61251W        W29645  23.139  39.995  13.362
61252W        W29646  38.391  15.392  11.983
61253W        W29647  13.591  24.636  12.501
61254W        W29648  10.239  10.854  10.689
61255W        W29649  28.596  32.677  13.087
61256W        W29650  36.976  16.647  14.771
61257W        W29651  19.579  43.087  11.620
61258W        W29652  11.232  37.896  12.739
61259W        W29653   4.381  16.743  10.512
61260W        W29654  35.566  42.286  11.106
61261W        W29655  34.516  29.638  13.895
61262W        W29656  36.320  35.779  11.927
61263W        W29657  14.579  13.777   2.212
61264W        W29658   0.849  25.999   4.297
61265W        W29659  36.676  44.934  13.463
61266W        W29660  14.960   4.730   9.873
61267W        W29661  26.765  10.227   5.092
61268W        W29662  32.030  41.231   2.371
61269W        W29663  22.721   9.567  13.923
61270W        W29664  33.939  41.067   0.402
61271W        W29665  11.587  39.857  14.594
61272W        W29666  39.066  20.557   1.801
61273W        W29667  44.971  14.075  11.336
61274W        W29668  39.425  33.983  12.947
61275W        W29669  41.922   0.158   3.740
61276W        W29670  34.915  27.729   0.339
61277W        W29671  19.033  30.613  14.704
61278W        W29672  19.232  15.017  13.142
61279W        W29673  28.625  25.716  12.989
61280W        W29674   7.103   5.346   1.818
61281W        W29675  28.340  40.787   4.069
61282W        W29676  36.625  42.357  12.414
61283W        W29677  28.939   4.996   4.604
61284W        W29678  38.290  36.531   0.512
61285W        W29679  25.951  15.343  12.808
61286W        W29680   1.377  44.859  14.339
61287W        W29681  35.970   7.550   4.134
61288W        W29682  22.619  26.009   2.775
61289W        W29683   6.295  27.610   1.932
61290W        W29684  11.602   7.811   2.050
61291W        W29685   9.898   9.854   1.196
61292W        W29686  24.121   0.227  13.405
61293W        W29687  29.180  32.079  13.924
61294W        W29688  12.668  41.901   1.685
61295W        W29689  33.729  11.079   5.041
61296W        W29690  39.329  30.726   0.779
61297W        W29691   8.511   5.474   2.219
61298W        W29692  25.251  37.341   4.031
61299W        W29693   3.355  43.221   2.239
61300W        W29694  14.094   2.766  13.518
61301W        W29695  38.566  16.191  12.474
61302W        W29696   9.853  39.483   0.739
61303W        W29697  15.975  21.760   1.238
61304W        W29698   4.414  12.041  14.302
61305W        W29699  33.433  41.029  12.471
61306W        W29700  31.927  40.566  14.426
61307W        W29701  27.907  17.133   3.040
61308W        W29702  44.307  16.327   4.261
61309W        W29703   0.295   5.589   2.353
61310W        W29704  38.206  11.127   1.272
61311W        W29705  12.178  26.348  11.181
61312W        W29706  44.453  26.121   0.774
61313W        W29707   4.408  25.091   2.725
61314W        W29708  42.526  20.599   1.340
61315W        W29709  25.628  17.626  14.638
61316W        W29710  14.320   7.605  12.993
61317W        W29711  34.897  19.300   0.449
61318W        W29712   3.503  21.163   4.109
61319W        W29713  12.639  10.886   0.882
61320W        W29714  28.988  36.518  11.519
61321W        W29715   6.215   3.167  14.506
61322W        W29716   4.688  23.977   0.251
61323W        W29717  23.414  30.305   4.342
61324W        W29718  43.021   2.270   4.694
61325W        W29719  14.744  43.450  14.967
61326W        W29720   1.735  25.593   0.408
61327W        W29721  14.151  44.838  14.743
61328W        W29722  29.600  35.283  11.658
61329W        W29723  11.867   7.556   0.367
61330W        W29724  10.838   0.176  13.852
61331W        W29725  17.051   4.394  13.395
61332W        W29726  22.882  44.901  10.833
61333W        W29727  27.453  11.716   0.321
61334W        W29728   7.430   9.789  14.723
61335W        W29729   9.697  37.415   1.425
61336W        W29730   1.433  20.026   0.574
61337W        W29731  15.784   2.407  14.374
61338W        W29732  19.061  36.548   2.854
61339W        W29733  43.534  43.388  13.571
61340W        W29734   9.505  41.020   1.819
61341W        W29735  20.269  30.655  14.357
61342W        W29736  25.705  17.507   3.191
61343W        W29737  12.656  24.107  11.819
61344W        W29738  15.816   2.774  11.876
61345W        W29739  12.049   8.671  12.074
61346W        W29740  23.966  21.311   1.227
61347W        W29741  17.850  23.134  14.000
61348W        W29742  23.502  31.082   5.052
61349W        W29743   9.008  29.551   3.301
61350W        W29744  20.533  12.392  12.183
61351W        W29745  22.887  37.653   1.584
61352W        W29746  10.936  40.570   1.808
61353W        W29747  40.921   2.974   4.556
61354W        W29748   0.072  36.758  14.763
61355W        W29749  27.919  23.863   4.445
61356W        W29750  28.192  14.771   0.223
61357W        W29751   9.992  18.672   0.433
61358W        W29752  39.855  37.382   0.377
61359W        W29753  22.268  35.566  11.009
61360W        W29754  17.126  30.533  10.720
61361W        W29755  25.971  21.144  10.749
61362W        W29756  23.219  22.678  10.545
61363W        W29757  34.436  24.707   2.454
61364W        W29758   2.394  44.309   1.489
61365W        W29759  28.725  43.817   2.761
61366W        W29760  17.835  28.966  13.270
61367W        W29761  21.191  12.303  11.937
61368W        W29762  44.728  38.876  14.218
61369W        W29763  31.155  34.501   3.060
61370W        W29764  38.271  38.378  13.799
61371W        W29765  17.512  36.951   1.339
61372W        W29766   9.683   0.453   1.905
61373W        W29767  28.565  27.077  11.215
61374W        W29768  12.197  16.197   3.624
61375W        W29769  27.969  11.601  13.286
61376W        W29770  27.555  37.780  12.606
61377W        W29771  34.889  43.716  13.085
61378W        W29772  17.053  29.638   0.719
61379W        W29773  42.754  29.413  12.364
61380W        W29774  31.829  28.940  13.962
61381W        W29775  16.807  26.599   2.016
61382W        W29776   1.247  38.076  13.875
61383W        W29777   7.555  26.167   0.671
61384W        W29778  35.130  23.784  13.958
61385W        W29779  19.524  32.309  14.409
61386W        W29780  14.999   3.178   0.763
61387W        W29781  20.995   5.251  10.772
61388W        W29782   3.467   5.128   4.962
61389W        W29783  19.253  19.500  13.872
61390W        W29784  22.097  43.486  14.911
61391W        W29785   0.049  20.593   0.812
61392W        W29786  33.467  16.626   4.396
61393W        W29787  18.418  44.228  14.385
61394W        W29788  22.174  30.117   0.722
61395W        W29789  39.063  39.798   2.697
61396W        W29790   3.043  28.527   4.694
61397W        W29791  24.744  30.559   0.724
61398W        W29792   6.839  23.037   9.668
61399W        W29793  34.493  18.748  13.803
61400W        W29794  33.931  22.708  12.372
61401W        W29795  33.608  39.333   1.781
61402W        W29796  12.777  25.947  14.787
61403W        W29797  14.589  42.517   0.338
61404W        W29798  30.005  44.904   3.735
61405W        W29799  37.028   7.853  13.537
61406W        W29800   5.802  34.792  14.322
61407W        W29801  22.719  26.636  14.455
61408W        W29802  17.165   9.900   5.174
61409W        W29803  32.557  25.338   1.400
61410W        W29804  21.302   4.232  14.536
61411W        W29805  26.236   4.868  12.326
61412W        W29806  28.498  38.520   0.685
61413W        W29807  38.483  28.513   2.791
61414W        W29808  22.172   5.437   0.887
61415W        W29809  36.340  26.057   1.568
61416W        W29810  35.414   2.814   4.147
61417W        W29811  20.780  26.529   0.441
61418W        W29812  16.066  10.589  11.543
61419W        W29813  27.381  27.110   2.722
61420W        W29814  26.443  36.919   3.604
61421W        W29815  24.677   3.756   1.487
61422W        W29816   4.449  18.655  12.057
61423W        W29817  16.303  37.650  13.023
61424W        W29818  29.361  23.159   4.621
61425W        W29819  39.359   6.765  13.367
61426W        W29820  43.523  19.380   0.393
61427W        W29821   6.589  36.334  13.914
61428W        W29822  40.873  28.888   2.018
61429W        W29823  37.957  17.825   1.403
61430W        W29824  44.800  10.257  14.091
61431W        W29825   4.340  13.811   4.038
61432W        W29826   9.170  33.814   2.292
61433W        W29827  12.412  21.241   2.475
61434W        W29828  13.057   4.451  10.400
61435W        W29829  19.620  11.743  13.475
61436W        W29830  12.376  37.987  11.020
61437W        W29831   5.168  16.215   4.019
61438W        W29832  17.315  36.579  14.879
61439W        W29833  17.825  21.264   4.096
61440W        W29834   6.340  16.796  10.454
61441W        W29835  17.905  16.879   0.456
61442W        W29836  22.106  24.918   3.182
61443W        W29837  14.114  18.414  11.335
61444W        W29838   7.921  33.963   3.709
61445W        W29839  37.985  37.033   3.671
61446W        W29840  27.077  10.703  10.906
61447W        W29841  30.692  19.569  14.769
61448W        W29842  29.080   5.446  11.176
61449W        W29843  44.588  36.011  12.165
61450W        W29844   8.158   6.793   4.958
61451W        W29845  13.353  35.162  11.859
61452W        W29846  18.509  31.646   0.375
61453W        W29847  37.022  16.619   4.931
61454W        W29848  19.600   0.723   4.592
61455W        W29849  30.844  42.673  14.388
61456W        W29850  26.348  31.933  10.746
61457W        W29851  12.767  31.875  10.792
61458W        W29852  24.574   9.158  11.266
61459W        W29853  22.208  21.667  13.374
61460W        W29854   2.714  30.409  13.530
61461W        W29855  28.677  16.358   2.371
61462W        W29856  23.467   8.780  11.506
61463W        W29857  25.358   4.242   0.900
61464W        W29858  32.144  12.385   0.312
61465W        W29859  44.413  21.724   0.822
61466W        W29860  11.677   5.704  13.796
61467W        W29861  16.001  26.078   2.293
61468W        W29862  13.280  28.589  14.072
61469W        W29863  15.126  36.356  10.511
61470W        W29864  18.049  29.747   3.339
61471W        W29865   5.489  35.053   1.996
61472W        W29866   3.403  19.032  12.015
61473W        W29867  26.929  14.736   1.693
61474W        W29868  17.787   2.871   2.773
61475W        W29869  15.044  15.050   1.158
61476W        W29870  34.085   8.319   4.547
61477W        W29871  25.545   9.463  11.233
61478W        W29872  18.290   5.275   4.424
61479W        W29873  16.757  33.064   4.658
61480W        W29874  32.467  38.133   4.525
61481W        W29875   8.427   5.048   4.367
61482W        W29876  31.932   3.774  14.840
61483W        W29877  25.916  34.369   1.819
61484W        W29878   8.326   1.777  10.329
61485W        W29879  30.405  12.732   0.366
61486W        W29880  29.614  21.215   1.922
61487W        W29881  16.547   3.855   0.461
61488W        W29882  15.885  35.971  11.883
61489W        W29883   7.858  22.688   1.653
61490W        W29884  11.651  38.444  14.834
61491W        W29885  36.252  43.811   2.344
61492W        W29886  30.879  39.970  13.591
61493W        W29887  21.469  12.310  12.552
61494W        W29888  33.437  39.223  12.836
61495W        W29889  39.830  15.786  13.186
61496W        W29890  18.627  30.007   5.099
61497W        W29891  11.892  42.515   3.170
61498W        W29892  21.248  36.893   3.358
61499W        W29893  19.478  25.407   0.488
61500W        W29894  26.493   8.379  10.483
61501W        W29895  31.416  15.890  12.926
61502W        W29896  28.972  34.093  14.866
61503W        W29897  31.570  25.997  14.220
61504W        W29898  38.777  27.579  12.358
61505W        W29899  19.563   7.817  11.085
61506W        W29900  21.554  34.351   4.808
61507W        W29901  44.599  24.710   1.644
61508W        W29902  39.908  21.182   3.299
61509W        W29903   1.715   9.697  10.852
61510W        W29904  19.559  14.568   0.401
61511W        W29905  23.443  21.046  12.376
61512W        W29906  22.187   6.072   0.198
61513W        W29907  12.335  27.794   4.698
61514W        W29908   8.002  24.479   4.110
61515W        W29909  39.228  15.318   2.891
61516W        W29910  36.779  18.953  10.723
61517W        W29911   7.794  35.122   2.355
61518W        W29912  28.419  27.568   4.218
61519W        W29913  29.614  27.555  14.061
61520W        W29914  32.329  44.732   2.400
61521W        W29915  20.408  21.647   0.763
61522W        W29916  20.502   3.975   1.309
61523W        W29917  41.749  23.216  10.931
61524W        W29918  35.103   7.883  11.304
61525W        W29919   5.601  26.670  10.978
61526W        W29920  28.447  19.253  12.850
61527W        W29921  28.639  32.186  13.912
61528W        W29922  21.855  25.455  14.488
61529W        W29923  10.858  30.813   4.261
61530W        W29924   0.183  43.754   0.586
61531W        W29925  13.706  41.206   2.725
61532W        W29926   1.226  37.886   0.455
61533W        W29927  39.796  22.096   0.511
61534W        W29928   2.657  24.647   1.699
61535W        W29929   0.171  19.801   3.214
61536W        W29930   7.806  29.976   4.148
61537W        W29931  17.128  28.254   2.817
61538W        W29932  16.002   1.545   3.188
61539W        W29933   8.829  38.795  13.637
61540W        W29934  24.560  28.221   0.265
61541W        W29935  33.961  27.925  10.526
61542W        W29936  34.802  29.320  11.159
61543W        W29937  34.473  38.724   3.762
61544W        W29938  22.132  34.032   0.462
61545W        W29939  33.486  27.046  12.930
61546W        W29940  30.977  42.060  12.958
61547W        W29941  39.081  33.598   9.904
61548W        W29942  26.648  34.521  13.887
61549W        W29943  32.845   5.070   2.882
61550W        W29944   7.473  44.392  13.112
61551W        W29945  18.706  23.161   0.274
61552W        W29946  29.951  18.153   2.670
61553W        W29947  41.835   1.726   3.190
61554W        W29948  34.610   4.686   0.893
61555W        W29949  26.220  42.844  14.351
61556W        W29950  22.315  24.446   2.651
61557W        W29951  28.931  12.677   1.405
61558W        W29952  25.715  20.706  10.775
61559W        W29953  15.627  31.063   1.392
61560W        W29954  17.198  19.290   1.648
61561W        W29955  39.013  29.724  14.270
61562W        W29956  38.359  37.790   9.997
61563W        W29957  28.730   6.932   4.236
61564W        W29958  22.460  41.322  12.217
61565W        W29959  39.487  29.605  11.775
61566W        W29960  15.752  43.133   0.177
61567W        W29961   2.991  11.367   2.280
61568W        W29962  12.109  34.963  11.606
61569W        W29963  33.287  38.721  12.082
61570W        W29964  29.366  13.278  13.825
61571W        W29965  27.068  35.155   2.684
61572W        W29966  13.282  27.500   0.314
61573W        W29967   6.876  13.083  13.594
61574W        W29968  25.137  34.871  10.748
61575W        W29969  26.675  40.845  12.510
61576W        W29970  44.243  23.397  10.186
61577W        W29971  42.392  34.567  14.092
61578W        W29972  36.986  31.419  13.546
61579W        W29973  17.592   5.705  12.667
61580W        W29974  27.985  38.471  11.162
61581W        W29975  22.060  34.905  11.730
61582W        W29976  37.850  27.885  13.827
61583W        W29977   4.760   5.955   3.299
61584W        W29978  16.058  38.394   0.321
61585W        W29979  14.299  13.691  11.930
61586W        W29980  20.122  15.694  14.771
61587W        W29981   2.046  39.805   3.232
61588W        W29982  31.327  14.169  12.468
61589W        W29983  43.392  12.953   2.365
61590W        W29984  26.112  21.086   1.833
61591W        W29985  37.097  14.763  10.331
61592W        W29986   1.391  21.694  14.829
61593W        W29987  33.464  37.819  11.844
61594W        W29988   3.841  16.328   2.870
61595W        W29989  17.165  21.347  12.471
61596W        W29990  30.426   9.408  10.738
61597W        W29991  22.643  33.114  14.830
61598W        W29992  32.216   1.966   4.927
61599W        W29993  16.645   8.920   4.461
61600W        W29994   8.522   1.680   4.536
61601W        W29995  36.089  26.985   3.940
61602W        W29996  22.130   0.384   1.503
61603W        W29997  36.419  41.750   0.929
61604W        W29998  30.044  10.180  10.902
61605W        W29999  38.773  31.635  12.815
61606W        W30000  16.784  42.367   0.765
61607W        W30001  15.828  34.006  13.764
61608W        W30002  42.958  19.175   0.383
61609W        W30003  16.154  34.068   1.747
61610W        W30004  16.223  17.105   9.739
61611W        W30005  19.005  26.068   9.872
61612W        W30006   1.978   1.411   1.467
61613W        W30007  39.610   0.345   4.624
61614W        W30008  30.458  38.524   0.829
61615W        W30009  33.768   0.281  14.356
61616W        W30010  44.363  19.766  11.660
61617W        W30011   4.258  40.193   3.761
61618W        W30012  25.176  36.935   3.175
61619W        W30013  17.557   5.713   4.647
61620W        W30014  10.257  26.101  10.144
61621W        W30015  12.734  36.722  14.361
61622W        W30016  26.196  36.918  10.777
61623W        W30017  18.025  22.121   3.977
61624W        W30018  16.400  32.313  11.523
61625W        W30019  37.907  22.680   1.297
61626W        W30020  12.704  31.532  14.886
61627W        W30021  15.158  23.131   1.787
61628W        W30022  42.001  33.222  14.845
61629W        W30023  38.776  20.227  13.904
61630W        W30024  13.324  28.149  12.273
61631W        W30025  39.646   7.366   4.097
61632W        W30026  29.154  44.440  11.430
61633W        W30027  36.650  24.496   3.906
61634W        W30028   2.736  11.209  14.835
61635W        W30029   5.868  38.997  12.152
61636W        W30030  21.961  22.777  12.350
61637W        W30031  10.868  11.547   0.523
61638W        W30032  19.240  24.063  11.853
61639W        W30033  44.011  26.159   3.320
61640W        W30034  42.209  11.790   5.415
61641W        W30035  10.669  15.968  14.258
61642W        W30036   0.317  19.287   3.217
61643W        W30037   5.173  20.485   2.629
61644W        W30038  31.183  27.974  12.541
61645W        W30039   1.542  33.992  10.908
61646W        W30040  29.359  33.532   3.161
61647W        W30041  27.514  11.172  10.732
61648W        W30042  36.912  44.504  13.489
61649W        W30043  22.780  28.251   4.942
61650W        W30044   1.820  40.461   0.721
61651W        W30045  24.977  44.098  11.503
61652W        W30046  26.044   3.505  10.090
61653W        W30047  41.980  32.974   2.939
61654W        W30048   4.708  36.891   3.224
61655W        W30049  11.563  14.241   3.125
61656W        W30050  23.457  37.435   4.129
61657W        W30051   9.011   8.443   2.384
61658W        W30052   1.077   3.568  13.507
61659W        W30053  43.258  11.306   0.497
61660W        W30054  28.467  34.558  13.449
61661W        W30055   2.270  13.598  12.979
61662W        W30056  11.168  29.417  13.921
61663W        W30057  17.502  26.646   3.718
61664W        W30058  31.986  27.272  11.527
61665W        W30059  26.686  36.065  12.986
61666W        W30060  30.867  35.872  13.617
61667W        W30061  13.293   5.903   4.520
61668W        W30062   4.293  19.269  11.520
61669W        W30063   9.569  11.781  12.886
61670W        W30064  34.902  23.470   0.420
61671W        W30065  39.034  41.508   4.991
61672W        W30066   5.851  15.116  13.148
61673W        W30067  31.427  43.720   4.856
61674W        W30068  29.220   9.213   2.188
61675W        W30069  40.598  17.214  13.261
61676W        W30070  29.963  23.691   4.160
61677W        W30071  28.255  17.567  13.040
61678W        W30072  29.723  16.652   1.286
61679W        W30073  11.105   6.200   1.202
61680W        W30074  40.787  42.241  14.085
61681W        W30075  29.416  36.960  12.119
61682W        W30076  13.229  19.121   4.158
61683W        W30077  42.001   8.677   2.391
61684W        W30078  16.742  31.938   2.158
61685W        W30079  39.475  25.523  13.844
61686W        W30080   3.265  38.004   2.730
61687W        W30081  17.640  18.094   2.385
61688W        W30082  37.006  24.216  12.962
61689W        W30083  39.304   7.854  13.486
61690W        W30084  21.089  29.433   3.832
61691W        W30085  30.469  28.920  11.882
61692W        W30086  16.991  33.646  13.730
61693W        W30087   9.541  25.800   9.810
61694W        W30088  17.194   8.722   4.616
61695W        W30089  31.688   3.758   0.860
61696W        W30090  36.677  33.074  12.806
61697W        W30091  25.406  40.443  12.914
61698W        W30092  12.357  18.564  11.163
61699W        W30093  17.052  26.116  12.396
61700W        W30094  16.612  42.123   4.335
61701W        W30095  16.395  19.107   3.840
61702W        W30096  39.998  33.779  14.906
61703W        W30097  11.818  14.016   1.433
61704W        W30098   7.868  35.673  13.570
61705W        W30099  10.383  19.294  14.337
61706W        W30100  34.886  25.490  12.638
61707W        W30101  22.044  16.923  11.468
61708W        W30102   2.053  15.909   3.691
61709W        W30103  23.842  13.911  13.434
61710W        W30104  19.101  29.185  13.433
61711W        W30105   5.978  33.577  14.930
61712W        W30106  20.153   0.452  13.765
61713W        W30107  18.184  39.050  11.627
61714W        W30108  13.477   4.793   0.959
61715W        W30109  44.286  43.746   2.837
61716W        W30110  37.878  24.151  12.541
61717W        W30111  22.783   8.254  13.480
61718W        W30112  41.416  15.717  11.383
61719W        W30113   4.702  34.086  14.760
61720W        W30114   4.304  14.767   2.161
61721W        W30115  10.710  41.644   4.642
61722W        W30116  21.259  28.965   4.022
61723W        W30117  26.637  27.574  13.982
61724W        W30118  37.791  38.570  11.547
61725W        W30119  24.198  23.970   3.561
61726W        W30120   3.181   5.175   1.287
61727W        W30121  40.325  17.543   4.083
61728W        W30122  16.679  34.887   3.641
61729W        W30123  12.363  29.450   0.897
61730W        W30124  27.080  27.004   1.788
61731W        W30125  12.170   6.472   3.063
61732W        W30126  23.728  13.968   2.766
61733W        W30127  39.629   0.400  13.827
61734W        W30128  34.315   1.273  11.138
61735W        W30129   2.828  34.206   3.179
61736W        W30130  32.911  20.256  12.452
61737W        W30131   8.733  31.155  11.024
61738W        W30132   9.230  14.318  12.664
61739W        W30133   7.447  37.394  11.364
61740W        W30134  28.258  32.487  12.749
61741W        W30135   8.220  33.570  14.327
61742W        W30136   7.789  16.701   2.167
61743W        W30137  29.110   7.571  14.209
61744W        W30138  16.200  11.141  14.787
61745W        W30139  26.240  22.109  14.958
61746W        W30140  26.253   7.280   3.311
61747W        W30141  10.298   3.929   1.774
61748W        W30142  30.740  19.477   5.077
61749W        W30143  12.619  44.691  11.137
61750W        W30144  33.362  34.420   1.275
61751W        W30145  12.632  23.679   2.835
61752W        W30146  30.102  42.474  13.038
61753W        W30147  15.610  24.978   1.324
61754W        W30148  10.404  44.002  14.344
61755W        W30149   6.203  44.009  13.789
61756W        W30150  33.532  42.000  14.537
61757W        W30151  38.141  26.477   4.184
61758W        W30152  38.562   1.878   4.935
61759W        W30153  10.684  24.898  11.982
61760W        W30154  20.216  17.687  11.777
61761W        W30155  11.219  10.181   1.211
61762W        W30156   1.459  12.396  11.345
61763W        W30157  39.672  29.702   0.867
61764W        W30158   5.665  13.308   0.220
61765W        W30159  24.076  19.341   1.660
61766W        W30160  28.592  10.647   0.342
61767W        W30161  32.107  42.425   4.650
61768W        W30162  12.669  32.859  13.860
61769W        W30163  11.280  39.740  13.037
61770W        W30164  20.830  37.085   4.856
61771W        W30165   1.815   9.170  12.338
61772W        W30166  10.935  39.431   4.516
61773W        W30167  23.833  36.177  13.326
61774W        W30168  37.276  35.654   0.470
61775W        W30169  15.622   9.362   0.324
61776W        W30170  23.309  13.841   4.101
61777W        W30171   5.415  41.864   4.157
61778W        W30172  41.079  30.977  13.851
61779W        W30173  23.994   9.840   3.178
61780W        W30174  19.791  26.584  14.059
61781W        W30175  14.804  34.965  10.559
61782W        W30176  24.155  21.555   1.686
61783W        W30177  37.433  43.596  11.828
61784W        W30178   7.201  23.521   2.493
61785W        W30179  37.995  32.430  10.701
61786W        W30180  43.380   7.786   1.821
61787W        W30181  12.443   0.921   1.769
61788W        W30182  29.563  30.170  14.943
61789W        W30183   0.275  28.588  14.082
61790W        W30184  26.987  44.121  11.489
61791W        W30185   6.862  41.585   1.401
61792W        W30186  34.932  33.096   2.912
61793W        W30187  25.279   0.880  10.966
61794W        W30188  43.801  38.308  13.379
61795W        W30189   7.146  18.646  13.397
61796W        W30190  40.290  11.408   3.376
61797W        W30191  25.887  22.791  11.075
61798W        W30192   1.421  33.533   0.122
61799W        W30193   7.491  14.235  11.629
61800W        W30194  32.117   0.781   2.151
61801W        W30195  27.082  12.713  13.348
61802W        W30196  31.494  31.332  10.456
61803W        W30197  10.802  40.985   2.814
61804W        W30198  27.986  30.066  12.425
61805W        W30199   1.967  43.335   0.798
61806W        W30200  12.140  25.647   1.690
61807W        W30201   0.976   5.225  12.071
61808W        W30202  30.563  13.222   5.043
61809W        W30203  17.265  17.311   3.148
61810W        W30204  24.999  33.411   0.671
61811W        W30205   7.936  14.932  12.442
61812W        W30206   4.217  31.806   4.077
61813W        W30207  34.557  43.288   3.915
61814W        W30208  25.232  11.218  13.391
61815W        W30209  13.528  18.690  13.977
61816W        W30210  18.656  33.377   2.157
61817W        W30211   5.382  28.636   4.749
61818W        W30212  35.938   4.797  12.009
61819W        W30213  14.037  44.400   2.858
61820W        W30214  10.666  28.289   1.385
61821W        W30215   8.826  27.895  11.679
61822W        W30216  16.971   7.134  10.717
61823W        W30217  19.313  42.476   1.855
61824W        W30218  18.105   5.346   4.914
61825W        W30219  23.227   0.333   3.411
61826W        W30220  40.544   1.515  13.039
61827W        W30221  24.899   4.573  11.819
61828W        W30222  40.375  15.114   4.563
61829W        W30223  22.045  26.583  13.915
61830W        W30224  35.632  35.604  12.134
61831W        W30225  24.970  40.916  13.731
61832W        W30226   8.175  41.290   1.881
61833W        W30227  13.902  16.221   4.103
61834W        W30228  34.877  10.749   4.186
61835W        W30229  32.982  27.939  12.934
61836W        W30230  25.141  10.129  12.020
61837W        W30231  34.172   1.808   0.428
61838W        W30232  24.630  26.126  10.644
61839W        W30233  12.132  22.514  11.452
61840W        W30234  25.950   0.821   4.999
61841W        W30235   6.163  28.387   1.417
61842W        W30236  24.556  12.255   1.268
61843W        W30237   0.157  37.077   1.658
61844W        W30238  42.607   1.986  13.811
61845W        W30239   7.762   8.694   1.713
61846W        W30240  13.423   0.301   3.293
61847W        W30241  32.039  19.186  12.488
61848W        W30242  20.123   6.013  11.032
61849W        W30243   9.306  38.350   0.484
61850W        W30244   2.717  38.025  11.463
61851W        W30245  33.437  15.121  13.386
61852W        W30246   1.471  39.814  11.089
61853W        W30247   1.385  13.617   4.224
61854W        W30248   7.238  12.457   4.031
61855W        W30249  10.466   9.720  10.702
61856W        W30250   2.368   3.203  13.301
61857W        W30251   4.225   4.070   4.391
61858W        W30252  13.975  11.320   4.104
61859W        W30253  19.601  33.625   2.802
61860W        W30254  21.133  44.112  13.967
61861W        W30255   9.276  34.474  14.143
61862W        W30256  17.715  12.647   0.720
61863W        W30257  14.679  41.136   0.394
61864W        W30258  24.128  14.333   4.666
61865W        W30259  15.614   1.950   2.809
61866W        W30260  36.809  32.448  11.080
61867W        W30261   9.591   3.948  12.447
61868W        W30262  28.009  14.801  11.017
61869W        W30263  16.658   9.448  10.155
61870W        W30264   8.578  38.524   1.806
61871W        W30265  34.328  42.134   1.769
61872W        W30266  38.906   7.224  14.850
61873W        W30267   7.108   0.995   2.176
61874W        W30268  14.773  43.477  13.447
61875W        W30269  24.053  16.641  12.496
61876W        W30270   9.860   8.406   1.675
61877W        W30271  40.960  41.298  12.988
61878W        W30272  35.837  25.013   3.754
61879W        W30273  28.622  14.101  12.541
61880W        W30274  39.168  18.665   1.428
61881W        W30275  20.175  12.284  11.846
61882W        W30276  36.412  44.787   0.262
61883W        W30277  38.348  25.395   0.855
61884W        W30278  38.446   3.248  14.201
61885W        W30279  19.037   0.190  12.944
61886W        W30280   0.786  18.309  12.499
61887W        W30281   8.333  38.112   4.071
61888W        W30282  36.155   9.391  13.615
61889W        W30283  41.049   5.851   4.954
61890W        W30284  16.061  10.306   3.597
61891W        W30285  44.984   7.649  11.020
61892W        W30286  22.009  40.122   2.658
61893W        W30287  33.412  24.350  13.774
61894W        W30288  13.702  39.817  13.131
61895W        W30289  27.864   5.975  12.511
61896W        W30290   4.513  43.360   1.191
61897W        W30291  21.157   1.721   2.473
61898W        W30292  32.109  35.146  11.851
61899W        W30293  32.528  21.705   3.379
61900W        W30294  42.582  41.514   4.363
61901W        W30295  32.189  31.324   0.295
61902W        W30296   3.985   0.966  12.464
61903W        W30297  14.825  18.670  12.107
61904W        W30298  19.161  11.712  11.674
61905W        W30299  40.246  18.124   0.396
61906W        W30300   5.223  34.084  10.629
61907W        W30301  14.736  42.259   2.895
61908W        W30302   1.293   5.775   2.321
61909W        W30303  29.297  22.947   3.165
61910W        W30304  25.412  38.556   3.730
61911W        W30305  44.959  40.795  14.893
61912W        W30306  25.504   6.736   4.256
61913W        W30307  26.539  28.543   2.240
61914W        W30308   5.843  37.889   4.611
61915W        W30309   6.731  12.597   4.068
61916W        W30310   9.144  22.946  10.777
61917W        W30311  19.917  18.988  12.074
61918W        W30312  11.302   2.666   3.649
61919W        W30313  40.870  28.314   2.803
61920W        W30314  29.926  41.552  11.540
61921W        W30315   1.670  14.256  14.780
61922W        W30316  26.119  34.820   2.360
61923W        W30317  29.957  27.001   3.635
61924W        W30318  38.901  24.678  10.457
61925W        W30319   0.833  36.546  12.902
61926W        W30320  37.467   4.295  11.165
61927W        W30321  35.448  38.619   1.654
61928W        W30322  25.000  27.998   1.701
61929W        W30323  24.533  28.940   2.162
61930W        W30324   5.679   4.087  14.642
61931W        W30325  27.289  36.464   1.967
61932W        W30326   1.296   1.960  12.594
61933W        W30327  33.601   0.396  12.389
61934W        W30328  41.644  29.545   2.803
61935W        W30329  36.582  37.565   3.289
61936W        W30330   1.501  12.214  14.489
61937W        W30331   9.076  23.645  10.290
61938W        W30332  12.054  35.314   2.313
61939W        W30333   1.503  22.107   0.166
61940W        W30334   0.982  18.816   4.156
61941W        W30335  31.195  23.082  10.457
61942W        W30336  16.186  35.317  12.116
61943W        W30337  27.346  38.508  13.074
61944W        W30338  35.978   3.932  11.516
61945W        W30339  43.441  28.535   4.524
61946W        W30340  41.359  39.323  14.039
61947W        W30341  14.663   5.503   3.536
61948W        W30342  11.808   0.477   0.483
61949W        W30343   9.216  43.984  11.613
61950W        W30344  28.463  38.879   3.189
61951W        W30345  35.620  44.952   3.289
61952W        W30346  28.251  30.248  12.844
61953W        W30347  18.164   5.449   1.887
61954W        W30348  23.964  19.772  14.443
61955W        W30349  43.305  18.055  12.519
61956W        W30350  31.694  10.201  12.782
61957W        W30351  17.961  24.951  14.494
61958W        W30352  26.202   1.217  11.948
61959W        W30353  22.977  25.330  13.768
61960W        W30354  22.104  44.424  12.686
61961W        W30355   5.600  27.087  12.128
61962W        W30356  27.328   9.761  12.095
61963W        W30357  16.174  26.115  12.163
61964W        W30358  37.962  38.397  13.368
61965W        W30359  30.439  19.509  12.864
61966W        W30360   1.218   8.337   0.430
61967W        W30361   7.220  15.133  12.604
61968W        W30362  35.702   0.250   3.722
61969W        W30363  25.751   6.751  13.819
61970W        W30364  42.856  43.162  14.587
61971W        W30365  33.897  27.552   0.535
61972W        W30366   1.620   2.656   2.356
61973W        W30367   0.915   8.106   4.308
61974W        W30368   8.208   2.444  14.825
61975W        W30369   1.066  34.434  13.865
61976W        W30370  28.285  14.684  13.019
61977W        W30371  33.425  12.396  11.662
61978W        W30372   6.046  36.947   3.746
61979W        W30373  13.659  42.038   4.515
61980W        W30374  27.469  38.412   4.592
61981W        W30375  29.613  28.013   2.761
61982W        W30376  18.678  14.184   0.421
61983W        W30377   8.815  41.826   0.938
61984W        W30378  14.228  38.991  12.021
61985W        W30379  27.355  14.341   0.506
61986W        W30380   1.108  35.501   2.615
61987W        W30381  28.543   9.609  12.477
61988W        W30382  37.430   6.491   3.447
61989W        W30383   7.097  28.678  13.330
61990W        W30384  13.677   8.309  12.382
61991W        W30385  34.159  28.355   0.730
61992W        W30386  42.601  14.244  13.528
61993W        W30387  10.975  37.961  13.178
61994W        W30388  35.878   9.603   3.751
61995W        W30389   3.192   2.371   1.896
61996W        W30390  15.276  27.838   4.642
61997W        W30391  25.555   3.659   2.492
61998W        W30392  11.118  24.130  13.310
61999W        W30393   9.365  37.349  14.961
62000W        W30394  12.927   3.268   1.328
62001W        W30395  35.923   8.403   4.387
62002W        W30396  31.345   2.968  12.877
62003W        W30397  13.726  11.290   0.435
62004W        W30398  23.677   9.133  12.691
62005W        W30399  16.851  28.062  10.224
62006W        W30400  17.932  12.935   2.970
62007W        W30401   4.039  31.344  12.972
62008W        W30402  18.652  32.452   2.148
62009W        W30403  18.156  16.697  14.631
62010W        W30404   5.380   8.756   2.209
62011W        W30405  18.585  40.899  12.413
62012W        W30406  39.972  40.027   2.760
62013W        W30407  26.531   2.464   1.202
62014W        W30408   5.904   4.385   2.311
62015W        W30409  18.686  35.505  10.757
62016W        W30410  15.171   8.123   1.157
62017W        W30411  16.370  37.784   1.401
62018W        W30412  38.561   3.470  10.727
62019W        W30413  15.003  34.537  12.389
62020W        W30414  12.638   9.254  11.694
62021W        W30415  14.262  12.782  11.956
62022W        W30416  15.666  29.905  14.227
62023W        W30417  27.560  24.046  10.642
62024W        W30418  43.925  22.375   3.585
62025W        W30419  17.560   5.978   3.217
62026W        W30420  30.727   3.883   0.380
62027W        W30421   4.874   1.179   3.784
62028W        W30422   0.708  23.548   2.400
62029W        W30423  16.725   4.791   3.740
62030W        W30424   4.889   1.754  10.297
62031W        W30425  25.958  30.905   4.192
62032W        W30426  16.491  35.756  14.275
62033W        W30427  40.739  35.705  11.134
62034W        W30428  34.982  26.934   1.717
62035W        W30429  16.072  33.007  12.645
62036W        W30430  29.189   2.437  13.304
62037W        W30431   2.467  20.112   4.244
62038W        W30432  44.149  27.924  13.582
62039W        W30433  26.341   0.600   5.293
62040W        W30434  21.077  15.534   0.825
62041W        W30435  20.179  30.801   4.659
62042W        W30436   6.423  42.517  14.239
62043W        W30437  13.559   8.292   4.741
62044W        W30438   6.447  40.437   1.249
62045W        W30439  20.567  19.759   1.380
62046W        W30440  23.305   1.027  11.557
62047W        W30441  35.112  11.000   4.568
62048W        W30442  20.273   9.791   0.865
62049W        W30443   5.189  12.728   0.996
62050W        W30444  28.480   0.971   3.598
62051W        W30445  32.385   6.383  14.592
62052W        W30446   5.704  30.848   4.127
62053W        W30447  44.995  21.056  13.149
62054W        W30448   1.286   4.051   3.761
62055W        W30449  22.569  27.221  11.881
62056W        W30450  20.940   2.952   3.888
62057W        W30451   8.523  33.032   3.714
62058W        W30452  29.557  13.144   0.258
62059W        W30453  44.882   2.891   3.421
62060W        W30454  33.244  42.375  14.762
62061W        W30455  37.294  28.271  12.543
62062W        W30456   9.960  23.570   1.295
62063W        W30457  27.213  43.751   2.769
62064W        W30458  35.185  38.328  11.320
62065W        W30459  34.684   5.873  12.022
62066W        W30460  26.551  42.825  13.929
62067W        W30461  30.947  28.152   2.483
62068W        W30462  20.566   4.435   4.248
62069W        W30463  33.315  23.261   4.389
62070W        W30464  39.952  15.693   2.653
62071W        W30465  12.687  37.530  13.869
62072W        W30466   9.572  34.514  14.696
62073W        W30467   8.405  38.598   1.252
62074W        W30468  23.131  19.280  11.535
62075W        W30469  22.444  43.796   4.183
62076W        W30470  12.603  13.597  13.463
62077W        W30471  24.627  21.575   0.377
62078W        W30472  12.444  36.433   0.746
62079W        W30473  15.770   9.979   2.352
62080W        W30474  20.676  37.515  10.873
62081W        W30475  42.466  36.086   4.569
62082W        W30476  32.144   9.184   2.895
62083W        W30477  44.985  11.987   0.923
62084W        W30478   1.256   0.999   1.176
62085W        W30479  18.155   1.131  13.065
62086W        W30480  43.155  16.061   3.689
62087W        W30481  34.674  43.040   5.036
62088W        W30482   1.853   8.780  14.544
62089W        W30483  34.099  28.627   2.865
62090W        W30484   4.810  22.844  11.877
62091W        W30485  33.517  16.413  12.844
62092W        W30486  37.967  28.907  13.807
62093W        W30487  29.485  23.412  13.757
62094W        W30488  15.156  40.416  11.632
62095W        W30489  37.153  28.272   4.058
62096W        W30490  21.700  36.360   1.574
62097W        W30491   3.439  33.634  12.508
62098W        W30492  28.934  16.500   3.836
62099W        W30493  10.073   1.097  11.902
62100W        W30494  21.022  21.682  14.801
62101W        W30495  11.655  23.226   1.464
62102W        W30496   1.773  18.726   4.380
62103W        W30497  29.480  41.297   1.885
62104W        W30498  39.939   0.460   2.917
62105W        W30499   8.198  30.429   1.259
62106W        W30500  16.247  16.134  13.191
62107W        W30501  22.477  40.095  14.543
62108W        W30502  19.792   0.729   0.875
62109W        W30503  23.604  12.329   3.359
62110W        W30504   9.768  39.910  11.635
62111W        W30505  39.747  14.730   4.122
62112W        W30506  38.444  34.828  13.114
62113W        W30507  10.239  35.466   3.012
62114W        W30508  30.624  26.612  10.738
62115W        W30509  31.640  14.439   0.336
62116W        W30510   2.377  35.876  14.823
62117W        W30511   1.934  18.541   2.881
62118W        W30512  17.180  16.227   0.351
62119W        W30513  26.015  43.476   1.283
62120W        W30514  41.970  20.695   3.376
62121W        W30515  22.549  18.798   1.297
62122W        W30516  19.115  37.380   1.547
62123W        W30517  33.377  37.957  14.527
62124W        W30518  39.986   8.615  12.482
62125W        W30519  15.835  27.911   0.928
62126W        W30520  40.221  29.074  13.076
62127W        W30521  27.527  43.920   0.613
62128W        W30522  30.859  24.048  10.672
62129W        W30523  38.679  18.727   4.360
62130W        W30524   3.393  24.152   3.787
62131W        W30525  20.020   9.790  12.004
62132W        W30526  35.862  42.912   1.045
62133W        W30527  18.486  15.664  13.067
62134W        W30528  18.776  35.308  13.859
62135W        W30529  16.548  34.654  11.599
62136W        W30530  30.133  26.470   5.024
62137W        W30531  41.767  44.649   0.848
62138W        W30532  14.154  36.058  11.029
62139W        W30533  39.471  26.037   3.992
62140W        W30534  40.972  42.266  12.981
62141W        W30535  39.909  12.119   2.036
62142W        W30536  20.328   7.858  14.712
62143W        W30537  10.928  39.404  10.746
62144W        W30538  12.669   2.679  13.538
62145W        W30539  14.902  21.049   0.838
62146W        W30540  43.098  35.362   0.085
62147W        W30541  12.074  23.002   0.563
62148W        W30542  16.685  34.527   0.083
62149W        W30543  41.536  44.364   1.238
62150W        W30544  39.805   1.967  12.897
62151W        W30545  43.388  37.304  12.103
62152W        W30546  24.182  24.453   0.351
62153W        W30547  10.731   6.242   4.353
62154W        W30548  12.917   0.124   0.443
62155W        W30549  24.069  28.060   1.735
62156W        W30550  28.593  12.365  12.100
62157W        W30551  17.919   1.333   1.692
62158W        W30552  42.447   6.010   0.245
62159W        W30553  29.052  15.066   3.324
62160W        W30554   6.235   4.205   1.133
62161W        W30555   0.828  18.934   3.247
62162W        W30556   5.694  28.994  12.983
62163W        W30557  30.486   6.770   4.783
62164W        W30558   3.820   2.835  11.384
62165W        W30559  25.223  43.025   0.240
62166W        W30560  35.805  26.647   2.615
62167W        W30561  35.156   2.955  12.383
62168W        W30562   8.459  27.606   3.213
62169W        W30563   4.875   5.518   4.047
62170W        W30564   6.872  35.489   4.100
62171W        W30565   3.024  20.576  14.431
62172W        W30566  17.186   6.434  11.604
62173W        W30567  23.119  22.627   2.074
62174W        W30568  13.795  11.189   4.569
62175W        W30569  40.047   4.618   4.154
62176W        W30570   9.554  35.181  11.538
62177W        W30571  31.051  23.581  10.850
62178W        W30572  26.032  24.934   4.142
62179W        W30573   6.967  11.775   1.292
62180W        W30574  35.100  30.040   2.415
62181W        W30575   9.087  11.897  12.883
62182W        W30576  27.732  19.714  11.153
62183W        W30577  20.791   8.108  14.683
62184W        W30578  29.506   9.627  14.074
62185W        W30579  21.712  30.996   1.268
62186W        W30580  20.320   7.458  14.387
62187W        W30581  19.509  17.750   1.356
62188W        W30582  42.900  14.670   1.281
62189W        W30583  19.721   3.738   4.989
62190W        W30584   9.643  13.511  12.471
62191W        W30585  13.895   5.546  10.758
62192W        W30586  41.552   2.981   3.722
62193W        W30587   5.346  34.453   3.248
62194W        W30588   0.388  37.275  13.735
62195W        W30589  42.041  31.936  12.087
62196W        W30590  11.753  41.044  13.113
62197W        W30591  12.236  21.725  13.167
62198W        W30592  11.717   3.737  11.172
62199W        W30593  28.338   8.370  11.922
62200W        W30594  41.896  13.709  10.441
62201W        W30595  14.038  36.455   2.715
62202W        W30596   8.687   4.295  11.361
62203W        W30597  43.890  33.128   1.360
62204W        W30598  25.015  29.530   2.978
62205W        W30599  13.894  15.673   4.060
62206W        W30600  23.538  29.027   1.181
62207W        W30601  14.560  31.290   1.957
62208W        W30602  30.873  31.493   3.206
62209W        W30603  27.243  10.955   5.073
62210W        W30604   2.473  17.144   9.971
62211W        W30605  19.090   7.560  13.061
62212W        W30606   9.655   8.362   0.682
62213W        W30607   5.402   2.945  13.889
62214W        W30608  14.091  44.177  13.441
62215W        W30609  11.940  28.491   2.211
62216W        W30610  30.544  14.652   1.677
62217W        W30611  34.372  13.933   2.202
62218W        W30612  11.722  34.115  11.631
62219W        W30613  22.556  28.730  11.007
62220W        W30614  32.885   2.747   1.613
62221W        W30615   0.374  30.903  12.910
62222W        W30616  22.890  39.989  10.515
62223W        W30617  27.339   1.417  13.420
62224W        W30618  40.446  19.558   1.087
62225W        W30619  23.083   4.834   0.962
62226W        W30620  36.462  24.028   3.269
62227W        W30621  36.580  35.120  12.569
62228W        W30622  17.773  28.485  13.469
62229W        W30623  18.541   8.594   4.539
62230W        W30624  22.175  28.050   2.644
62231W        W30625   3.011  40.783  10.451
62232W        W30626  38.942  13.315  13.018
62233W        W30627  29.983  27.883   4.559
62234W        W30628   3.972  26.913  13.498
62235W        W30629  40.020  42.995   2.870
62236W        W30630  15.061  28.515  14.140
62237W        W30631   4.926  41.515  12.098
62238W        W30632  40.409  37.410   5.478
62239W        W30633  35.909  14.114   0.297
62240W        W30634  21.981  37.946  12.475
62241W        W30635  26.703  33.764  13.339
62242W        W30636  36.907  30.570   4.746
62243W        W30637  42.988   2.187   0.841
62244W        W30638   2.199  39.585  13.117
62245W        W30639  33.824  29.664  10.427
62246W        W30640   9.771  18.316   2.812
62247W        W30641  22.094  24.703   4.561
62248W        W30642  42.100  11.373  13.349
62249W        W30643   7.399  41.929   3.621
62250W        W30644  18.137  37.333  13.051
62251W        W30645  39.034  29.017  10.654
62252W        W30646   9.476   4.308  11.576
62253W        W30647  39.477  17.582  10.752
62254W        W30648   7.984  40.058   2.237
62255W        W30649  14.281  25.741   1.659
62256W        W30650  23.040  39.044   3.543
62257W        W30651   1.027  26.545  13.170
62258W        W30652  16.407  14.698  14.496
62259W        W30653   7.465   6.264   1.602
62260W        W30654  27.503  15.637  14.103
62261W        W30655  11.791  42.549   1.494
62262W        W30656  39.558  16.513  13.579
62263W        W30657  10.739   6.130  14.710
62264W        W30658  44.508  40.754  12.404
62265W        W30659  19.501  34.018  13.902
62266W        W30660  32.599   9.871   0.208
62267W        W30661  34.933  25.131   1.645
62268W        W30662   4.600  26.090   3.608
62269W        W30663  40.759  42.968   0.476
62270W        W30664  27.471  26.421   4.160
62271W        W30665  15.093   5.230   4.196
62272W        W30666  26.180   5.276   0.345
62273W        W30667  37.641  18.067   3.193
62274W        W30668  42.804  17.359  13.938
62275W        W30669  32.677  10.042  10.679
62276W        W30670  42.701  38.842   3.174
62277W        W30671  34.387   3.674   1.360
62278W        W30672  30.384   7.917  11.177
62279W        W30673   1.075  32.942  13.492
62280W        W30674  40.583  29.610   2.751
62281W        W30675  21.293  14.299   1.445
62282W        W30676  22.990   3.473   0.442
62283W        W30677   6.277  10.268  13.488
62284W        W30678  19.829  28.451  11.656
62285W        W30679  15.927   8.573   4.916
62286W        W30680   6.321  33.389   2.591
62287W        W30681  10.628  21.539   2.891
62288W        W30682   7.113  31.820  11.963
62289W        W30683   3.289  32.059   5.106
62290W        W30684  41.849  15.267   4.646
62291W        W30685  18.012  15.847  12.798
62292W        W30686  21.304  40.371  14.520
62293W        W30687  25.140  41.042  14.338
62294W        W30688  14.022  35.952   0.374
62295W        W30689  36.137  25.999  14.688
62296W        W30690  36.794  13.243   1.184
62297W        W30691   3.641  36.542  14.758
62298W        W30692   7.814  20.108  11.689
62299W        W30693  25.038  20.709   4.285
62300W        W30694  22.696  32.203   2.204
62301W        W30695  23.224   1.757   2.624
62302W        W30696  18.179  26.699  10.858
62303W        W30697  22.132  33.422   1.031
62304W        W30698  33.112  36.613   1.103
62305W        W30699   3.830   0.467   1.400
62306W        W30700  11.556   1.204   2.923
62307W        W30701   0.808  15.265  11.969
62308W        W30702  14.295  31.007  11.901
62309W        W30703   0.247  27.215  12.577
62310W        W30704  28.591  44.918   1.659
62311W        W30705  20.970  39.738  10.255
62312W        W30706  10.516  15.179  12.225
62313W        W30707   6.078   8.637  11.074
62314W        W30708  24.720  36.882  13.455
62315W        W30709  34.896  23.434  12.283
62316W        W30710  15.670  10.825   4.180
62317W        W30711   9.283   0.828   3.760
62318W        W30712  19.231   2.771  12.063
62319W        W30713  38.195  37.821  11.155
62320W        W30714   8.739  27.685  14.107
62321W        W30715  40.102   1.694  11.434
62322W        W30716   7.908  20.206  14.514
62323W        W30717  14.995  12.671  12.820
62324W        W30718   9.820  35.282  10.651
62325W        W30719  34.108  23.145  14.952
62326W        W30720  24.104  14.929  13.040
62327W        W30721  38.950   4.348  10.629
62328W        W30722  37.434   9.716   2.681
62329W        W30723  26.707  21.450   4.169
62330W        W30724  43.291  17.869  13.110
62331W        W30725  33.094  14.237   0.458
62332W        W30726  32.107  23.558  11.018
62333W        W30727  34.328  15.104   4.864
62334W        W30728  30.202  14.312  13.887
62335W        W30729   6.236  18.460   0.375
62336W        W30730  29.355  14.929  13.946
62337W        W30731  30.840  18.488   4.110
62338W        W30732  17.482  21.980   1.177
62339W        W30733   3.805  40.129   0.405
62340W        W30734  41.829  17.507   3.169
62341W        W30735  38.504   4.854   1.320
62342W        W30736  44.800   3.888   1.737
62343W        W30737  22.683  38.639   3.411
62344W        W30738   8.948  44.218   0.794
62345W        W30739  30.182  21.464   2.627
62346W        W30740   5.284   4.813  13.120
62347W        W30741   5.491  40.098  13.174
62348W        W30742   5.864  21.546   4.384
62349W        W30743  29.155  43.722   4.638
62350W        W30744  21.280  42.612  13.903
62351W        W30745   1.171  25.337  13.786
62352W        W30746  19.148   7.350   0.043
62353W        W30747  24.754   3.846   4.059
62354W        W30748  17.795  34.387  13.470
62355W        W30749   8.190   3.557  11.483
62356W        W30750  13.042  25.919  12.991
62357W        W30751  38.016  40.978  14.382
62358W        W30752   7.455  33.413  14.876
62359W        W30753  38.690   3.391   5.302
62360W        W30754  24.420  35.113   1.955
62361W        W30755  37.376   7.496  14.337
62362W        W30756   8.753  10.233   3.591
62363W        W30757  12.253  31.983  13.012
62364W        W30758  14.486  31.422  10.901
62365W        W30759  18.028  26.084  14.483
62366W        W30760   5.343   9.443   3.583
62367W        W30761  40.727  28.716  12.437
62368W        W30762   6.511  15.183  13.379
62369W        W30763  40.864  40.804   1.023
62370W        W30764  21.094  14.373  14.794
62371W        W30765  19.514  34.886  13.839
62372W        W30766  13.551  12.618  12.539
62373W        W30767  38.544  20.105  13.426
62374W        W30768   2.940  12.221  14.086
62375W        W30769  34.899  42.996   1.710
62376W        W30770   8.513  16.422   4.153
62377W        W30771  15.194  29.435   4.147
62378W        W30772  37.683  26.556   2.611
62379W        W30773   0.754   6.673  13.410
62380W        W30774  16.006  35.451  12.596
62381W        W30775   6.318  17.558  14.270
62382W        W30776  40.334  33.883  12.768
62383W        W30777  41.904  42.007  13.479
62384W        W30778   8.219  32.800  13.587
62385W        W30779  14.246  17.618  12.020
62386W        W30780   5.863   8.012  13.428
62387W        W30781  33.505  35.111  12.183
62388W        W30782   3.463   3.856  12.971
62389W        W30783  27.726  31.529  12.501
62390W        W30784  30.528  40.826   3.764
62391W        W30785  33.921   5.597  11.740
62392W        W30786   9.450  22.470  14.412
62393W        W30787  27.933  39.359  13.893
62394W        W30788  24.423  11.370  11.169
62395W        W30789  39.459  21.176  13.233
62396W        W30790   4.253  23.465   1.809
62397W        W30791  26.216  42.618   0.820
62398W        W30792  43.309  43.820   4.134
62399W        W30793   0.545  44.382   3.717
62400W        W30794  16.728  37.892   0.691
62401W        W30795   0.393   0.433  12.191
62402W        W30796   3.326  16.690  14.442
62403W        W30797  19.658   7.884   4.586
62404W        W30798  12.130   5.214  12.774
62405W        W30799  18.968   0.976   3.465
62406W        W30800  33.916  36.599   3.266
62407W        W30801  26.279   8.375   4.139
62408W        W30802  33.149   1.842  12.580
62409W        W30803  31.884   5.343   0.366
62410W        W30804  41.837  15.479  12.632
62411W        W30805   9.843  39.013  12.121
62412W        W30806  15.879  14.637   0.397
62413W        W30807  11.231  36.135   3.368
62414W        W30808  12.657  20.727   3.561
62415W        W30809  36.961  18.427   3.590
62416W        W30810  31.325   2.844  13.969
62417W        W30811  17.842  30.601  14.409
62418W        W30812  10.855  14.278  11.141
62419W        W30813  27.795  17.699   3.256
62420W        W30814  33.416  38.925   0.438
62421W        W30815  35.140  25.580   0.440
62422W        W30816  34.505  19.329  10.763
62423W        W30817   8.833  36.489  11.630
62424W        W30818  18.299   4.416  12.979
62425W        W30819   2.158  14.139  12.179
62426W        W30820  20.689  25.505  14.898
62427W        W30821   5.269   3.041   1.416
62428W        W30822   5.021   5.591   3.542
62429W        W30823  35.819   8.513  13.262
62430W        W30824  19.737  40.280   1.285
62431W        W30825  28.894  30.675   2.680
62432W        W30826  43.967  31.255  12.426
62433W        W30827  40.069  43.713  11.164
62434W        W30828  38.550  10.100   2.294
62435W        W30829   6.677  15.400   1.826
62436W        W30830  41.962  19.232   3.699
62437W        W30831   3.046  21.126   3.593
62438W        W30832  29.041  33.489  10.950
62439W        W30833  35.446  28.935  12.504
62440W        W30834  21.315   0.489  13.042
62441W        W30835  22.518  25.540   3.616
62442W        W30836  24.370   1.393   2.159
62443W        W30837  40.439   1.695  10.213
62444W        W30838  14.642  36.438   3.336
62445W        W30839   7.710   9.814   4.883
62446W        W30840  43.990  27.608  11.072
62447W        W30841  32.465  17.164  10.165
62448W        W30842   8.547  18.684   1.497
62449W        W30843   1.148  20.520  14.877
62450W        W30844  29.961  39.888   2.615
62451W        W30845  37.099  43.091   2.661
62452W        W30846   3.372  22.603   3.768
62453W        W30847  14.268  41.023  14.764
62454W        W30848  21.740  38.295   3.061
62455W        W30849  35.809  37.237   0.488
62456W        W30850  36.008  19.697  13.001
62457W        W30851  44.424  29.278   4.461
62458W        W30852  39.718  32.884  13.516
62459W        W30853  22.304  20.533   0.927
62460W        W30854  16.768   8.641  14.638
62461W        W30855  43.868  16.180   3.204
62462W        W30856  41.420   8.695   3.288
62463W        W30857  20.091  11.168  13.444
62464W        W30858  11.662  22.186   2.462
62465W        W30859  26.417  20.975  12.598
62466W        W30860  25.615  20.285   3.817
62467W        W30861  28.584   0.619  11.267
62468W        W30862  16.155   6.380  12.187
62469W        W30863  22.779  41.924   2.666
62470W        W30864  24.471  24.175  13.463
62471W        W30865  26.766  20.000  14.456
62472W        W30866  38.449   4.604  13.505
62473W        W30867  42.864   1.240  12.069
62474W        W30868  23.156   3.539  11.802
62475W        W30869  30.362  31.611   2.347
62476W        W30870  39.917  43.855   3.316
62477W        W30871  26.086   0.854   4.064
62478W        W30872  25.926  12.747   1.790
62479W        W30873  26.646   9.845   0.290
62480W        W30874  22.792   9.412  11.561
62481W        W30875   2.353  17.208   4.756
62482W        W30876  30.075  33.067   1.327
62483W        W30877  17.087  36.415   0.340
62484W        W30878   4.038  18.200   4.561
62485W        W30879  30.612  35.099   0.294
62486W        W30880  32.522  25.834   1.273
62487W        W30881  15.565  25.052  12.202
62488W        W30882  23.813   5.357  10.696
62489W        W30883  10.073  41.010  14.892
62490W        W30884  10.694   1.431   3.699
62491W        W30885  23.138  41.750   2.082
62492W        W30886  34.345  39.526   2.439
62493W        W30887  24.978  23.716  12.879
62494W        W30888  38.392  39.116   2.715
62495W        W30889   1.777  19.312   0.375
62496W        W30890  14.588   4.333   1.790
62497W        W30891  31.098   0.240   1.428
62498W        W30892   8.226   9.856  11.040
62499W        W30893  31.141  28.124   0.876
62500W        W30894  33.029  36.109   0.337
62501W        W30895  20.643  44.544  11.772
62502W        W30896  19.721  10.148   4.188
62503W        W30897   4.883  25.419  12.381
62504W        W30898  16.818   9.120   2.403
62505W        W30899  33.587  11.563   4.134
62506W        W30900   2.637  35.467  11.906
62507W        W30901   2.332  19.075   3.281
62508W        W30902   2.803   7.125   0.782
62509W        W30903  43.474  16.357  13.453
62510W        W30904  44.991  39.563   2.295
62511W        W30905  26.403  24.167  10.741
62512W        W30906  10.141   1.183   2.386
62513W        W30907  38.549  29.405  13.473
62514W        W30908   1.005  30.130   4.157
62515W        W30909  29.986  17.565   2.260
62516W        W30910  15.494  36.308   3.160
62517W        W30911  26.866  43.020   3.276
62518W        W30912  28.226  39.319   3.454
62519W        W30913  37.369  19.344   1.824
62520W        W30914  40.836  38.824  10.417
62521W        W30915   8.074  11.245   0.453
62522W        W30916  15.473   6.975  10.463
62523W        W30917  14.542   0.737  13.013
62524W        W30918  34.533   5.702   2.903
62525W        W30919  22.825  42.891   1.771
62526W        W30920  41.555  34.157  12.301
62527W        W30921  30.407  22.509   3.664
62528W        W30922   6.460  39.959   0.538
62529W        W30923  42.794  40.924   3.621
62530W        W30924   2.604  40.448  10.408
62531W        W30925  31.950  22.978   3.905
62532W        W30926   1.338  26.789   2.831
62533W        W30927  26.935  40.883  14.957
62534W        W30928  13.201  30.873  14.568
62535W        W30929  21.017  30.120  10.581
62536W        W30930  32.158  43.828  11.586
62537W        W30931  22.074  10.411   4.111
62538W        W30932  32.910   0.194   3.192
62539W        W30933  34.595  16.723   1.187
62540W        W30934  17.888  41.978  13.701
62541W        W30935  20.088  17.604  14.711
62542W        W30936  14.170   3.938  14.011
62543W        W30937  23.477  11.703   1.823
62544W        W30938  19.279  44.311  12.105
62545W        W30939  39.344  38.479   0.680
62546W        W30940  13.475   4.342   0.114
62547W        W30941  26.083  26.175  10.539
62548W        W30942  30.169  14.160   3.281
62549W        W30943  37.999  14.963   1.282
62550W        W30944  28.574  44.787   0.387
62551W        W30945  21.563   9.129   0.006
62552W        W30946   9.257  10.044  13.515
62553W        W30947   2.076  29.620  14.329
62554W        W30948  42.209   8.761   0.010
62555W        W30949  20.064  30.257  11.288
62556W        W30950  44.515   8.412   4.139
62557W        W30951  40.302  31.666  14.485
62558W        W30952  16.382  35.038   0.814
62559W        W30953  43.285  22.978   3.774
62560W        W30954   3.847   2.175   2.947
62561W        W30955  20.815  24.527  12.385
62562W        W30956  21.182  41.266  13.842
62563W        W30957   6.404   7.326  14.051
62564W        W30958  20.000  14.809  11.230
62565W        W30959  20.276  38.585   2.251
62566W        W30960  23.224  13.003   0.984
62567W        W30961  44.811  24.365   1.955
62568W        W30962  30.841  43.872  11.524
62569W        W30963  39.463  11.225  14.821
62570W        W30964  24.360  38.503  12.102
62571W        W30965  16.638  16.060  12.002
62572W        W30966   6.251  16.565   4.210
62573W        W30967   9.804  23.107  13.805
62574W        W30968  33.935  18.974   1.432
62575W        W30969  42.988  11.125   2.872
62576W        W30970  26.550  32.926  12.652
62577W        W30971   6.459   5.164   9.849
62578W        W30972  20.229   0.127  10.335
62579W        W30973  40.019   8.698   3.882
62580W        W30974   4.309   9.775   2.845
62581W        W30975  29.944  17.165  12.001
62582W        W30976   6.300  40.878  10.384
62583W        W30977  27.896  31.700  11.900
62584W        W30978  34.347  20.882   4.886
62585W        W30979  39.539  39.891  12.939
62586W        W30980  15.830  22.696   1.469
62587W        W30981  25.160   8.225  11.661
62588W        W30982  22.169  19.757  10.949
62589W        W30983  33.590   5.928   2.180
62590W        W30984  12.113  15.180  11.836
62591W        W30985  16.631  15.169   0.770
62592W        W30986  10.999  13.775  13.373
62593W        W30987  38.559   9.549  14.105
62594W        W30988   0.955  42.717   2.140
62595W        W30989   8.840  15.710   3.698
62596W        W30990  41.031  30.861  12.898
62597W        W30991   8.530   2.731  10.249
62598W        W30992   1.347  10.897  11.594
62599W        W30993  33.976   3.970  11.027
62600W        W30994   7.795   5.275  12.330
62601W        W30995  38.428  29.898   3.178
62602W        W30996   7.806  39.019   1.446
62603W        W30997  10.135  27.899   0.902
62604W        W30998  41.266  16.769   3.675
62605W        W30999  41.281   0.269   0.464
62606W        W31000   7.678   8.602   2.237
62607W        W31001   5.813  14.166   0.518
62608W        W31002  17.142  27.583  14.447
62609W        W31003   4.046   6.782  12.379
62610W        W31004  40.794  29.521   4.121
62611W        W31005   6.120  17.172  10.728
62612W        W31006  37.795   1.740   3.295
62613W        W31007  34.148  24.445  12.062
62614W        W31008  22.585  21.711  12.999
62615W        W31009  43.996  24.240  14.919
62616W        W31010  40.914  42.776  13.220
62617W        W31011  15.159  30.855  11.960
62618W        W31012   3.566  44.019  10.136
62619W        W31013  17.146  11.442  13.662
62620W        W31014  43.804  44.344   1.450
62621W        W31015  31.531  10.978   4.229
62622W        W31016  20.700  38.940   3.815
62623W        W31017  43.325  15.515  12.476
62624W        W31018  20.692  39.017  14.328
62625W        W31019  37.246  28.864   0.170
62626W        W31020  43.329  21.129  14.370
62627W        W31021  16.461   9.320  13.316
62628W        W31022  17.606  22.217   4.320
62629W        W31023   1.454  21.927  13.859
62630W        W31024  18.270   0.795  12.643
62631W        W31025  35.665  44.266   4.271
62632W        W31026  30.222  11.249  12.914
62633W        W31027  27.193  10.395  14.366
62634W        W31028  44.114  13.990  11.978
62635W        W31029   7.108  18.635  14.218
62636W        W31030  12.310  21.256  12.961
62637W        W31031   1.874   2.663   4.025
62638W        W31032  24.073  11.107   0.324
62639W        W31033  44.327  15.858   0.486
62640W        W31034  14.874   2.272   1.078
62641W        W31035  34.825  17.200   1.125
62642W        W31036  20.016  38.975   3.182
62643W        W31037  30.628  15.233   3.700
62644W        W31038  27.664  33.492  12.007
62645W        W31039   7.944   7.399   1.525
62646W        W31040  30.389  15.418   3.263
62647W        W31041  14.527  37.915   1.656
62648W        W31042  40.450  34.078  13.237
62649W        W31043  19.059  21.657  13.958
62650W        W31044  21.617  18.621  13.642
62651W        W31045  37.932  19.641   2.864
62652W        W31046  41.985  34.910  11.420
62653W        W31047   8.537   3.371   4.305
62654W        W31048   0.465   6.703  12.494
62655W        W31049   9.363  41.723  12.990
62656W        W31050   4.437   8.597  13.391
62657W        W31051   3.653  19.906  11.578
62658W        W31052  27.306  39.788  10.881
62659W        W31053  13.314  42.789  13.867
62660W        W31054   4.478  17.864   1.175
62661W        W31055  20.389  43.884   0.965
62662W        W31056  40.724  11.334   0.264
62663W        W31057  30.431  34.215   2.370
62664W        W31058  36.059  35.899   2.703
62665W        W31059  31.603  10.628  14.958
62666W        W31060  15.726  36.381   1.738
62667W        W31061  33.023  16.333   2.651
62668W        W31062   0.404  34.600   9.890
62669W        W31063  16.210  11.901  11.543
62670W        W31064  29.589  34.691   1.207
62671W        W31065  34.460  34.872  11.192
62672W        W31066   5.132  44.471   0.410
62673W        W31067  23.083  44.041   2.173
62674W        W31068   4.959  28.640  12.668
62675W        W31069  16.078  33.530  13.859
62676W        W31070  14.962  38.514   3.147
62677W        W31071   2.685   9.838  11.530
62678W        W31072   8.410  11.864  10.977
62679W        W31073  19.736   3.897   4.446
62680W        W31074  23.256   5.132  12.840
62681W        W31075  29.881  39.546  12.106
62682W        W31076  33.979  24.974   2.330
62683W        W31077   6.620   0.871   0.309
62684W        W31078  36.233  27.000   0.723
62685W        W31079   9.130  15.540   3.214
62686W        W31080  25.670  16.366   1.842
62687W        W31081  13.818  16.263  10.638
62688W        W31082  21.044  36.655  11.437
62689W        W31083  19.325  15.815   3.182
62690W        W31084  22.577  27.750   4.421
62691W        W31085  13.080  10.983  12.905
62692W        W31086  11.166  34.439  11.583
62693W        W31087  44.902  31.232  10.631
62694W        W31088   5.711  20.837  13.423
62695W        W31089   8.152  17.813  11.587
62696W        W31090  35.101  28.631   3.219
62697W        W31091  11.622  15.461   4.374
62698W        W31092  19.518  23.521   3.153
62699W        W31093   6.686  21.451   1.255
62700W        W31094  10.595  35.356  13.017
62701W        W31095  11.093  43.342  14.455
62702W        W31096  18.852  17.014  13.012
62703W        W31097  38.267  28.032  13.542
62704W        W31098   0.829  14.107   3.778
62705W        W31099  33.001  43.846  14.807
62706W        W31100  27.856  12.085   3.952
62707W        W31101  10.182  28.632   0.021
62708W        W31102  26.047  38.857   3.637
62709W        W31103  35.222  16.344  13.962
62710W        W31104  25.139  29.985  11.003
62711W        W31105  21.803  20.148   3.350
62712W        W31106   5.308  39.402   4.031
62713W        W31107   4.233  12.100   5.075
62714W        W31108   2.709  19.612   0.988
62715W        W31109  28.037  13.635   4.805
62716W        W31110   0.246  33.575  14.380
62717W        W31111  36.738  31.221  14.616
62718W        W31112  25.526   0.836   0.514
62719W        W31113  37.386   2.188  12.084
62720W        W31114  26.794  16.650   1.339
62721W        W31115   2.649  36.302  12.521
62722W        W31116   7.372  35.456  13.550
62723W        W31117  13.886   4.533  10.627
62724W        W31118  29.814  37.195   5.328
62725W        W31119  22.921  29.109   3.130
62726W        W31120  10.057   7.482   0.780
62727W        W31121  32.522  24.515   4.724
62728W        W31122  27.565   0.909  13.148
62729W        W31123   1.719  21.092   4.148
62730W        W31124   8.206   4.497  11.410
62731W        W31125   3.794  31.492  12.287
62732W        W31126   4.971  21.716  12.925
62733W        W31127  43.083  36.113   0.345
62734W        W31128  34.577  25.954   4.649
62735W        W31129   2.783  12.168  11.204
62736W        W31130  39.351   4.265  13.472
62737W        W31131  38.730  11.682   1.930
62738W        W31132  34.403  21.128   1.887
62739W        W31133  31.600  38.411   4.554
62740W        W31134  18.411   3.964  12.361
62741W        W31135  19.630  29.021   0.953
62742W        W31136  15.144   3.563   5.121
62743W        W31137  43.333  43.364   3.913
62744W        W31138  26.371  12.825   3.467
62745W        W31139  42.911  11.315   3.352
62746W        W31140  34.453  13.774   4.580
62747W        W31141  41.114  11.679   1.029
62748W        W31142  29.083  40.044   4.237
62749W        W31143  39.138  33.075   9.968
62750W        W31144  22.071   9.241  12.322
62751W        W31145  42.884  30.430  14.104
62752W        W31146   2.071  31.436   1.968
62753W        W31147  13.655  22.573   2.264
62754W        W31148  18.486  39.789  13.320
62755W        W31149  38.993   1.821  13.412
62756W        W31150  31.610  25.536   0.773
62757W        W31151  37.604  28.567  12.873
62758W        W31152   2.931  24.143  12.701
62759W        W31153  28.231   1.403   3.748
62760W        W31154  43.186  14.572  11.187
62761W        W31155  14.218  31.059   2.317
62762W        W31156  16.288  20.191   0.214
62763W        W31157  23.423  21.998  11.722
62764W        W31158  30.890  19.578   3.595
62765W        W31159  23.687  34.649   0.496
62766W        W31160   8.897  24.661   3.048
62767W        W31161   3.285  25.163   1.449
62768W        W31162  40.736  15.693   1.968
62769W        W31163  32.915  19.720  12.484
62770W        W31164  10.230  34.907   1.010
62771W        W31165  15.098   7.358  13.401
62772W        W31166  44.071   6.224  11.447
62773W        W31167   0.978   8.218   3.762
62774W        W31168   3.167  36.968  10.721
62775W        W31169  18.067  31.117   0.969
62776W        W31170  30.725  36.954   2.878
62777W        W31171   7.666  24.554  12.147
62778W        W31172  18.303  40.096   0.411
62779W        W31173  27.104  39.444   0.224
62780W        W31174  33.332  17.727   3.095
62781W        W31175  34.583  18.631   3.604
62782W        W31176   1.971  36.316   0.723
62783W        W31177  20.324   6.335  11.965
62784W        W31178  16.297   3.780   1.760
62785W        W31179  36.799  34.108   0.682
62786W        W31180   9.409  20.189   2.758
62787W        W31181  26.992  25.058  11.970
62788W        W31182  11.804   7.668  11.990
62789W        W31183  40.819  44.380   4.560
62790W        W31184  19.512  18.672  13.149
62791W        W31185  17.253  37.593  12.575
62792W        W31186  28.600   4.976  13.983
62793W        W31187  44.463  15.823   4.114
62794W        W31188   8.754  10.158  14.037
62795W        W31189   1.482  28.534   3.265
62796W        W31190  13.153  18.775   4.564
62797W        W31191  35.647   3.955  13.139
62798W        W31192   2.249  27.156   4.662
62799W        W31193  12.129  13.893  10.575
62800W        W31194   2.238   6.530   0.790
62801W        W31195   6.843  31.598   4.092
62802W        W31196  41.973   3.249   2.311
62803W        W31197   9.828  18.211   3.327
62804W        W31198  43.475  43.875  12.878
62805W        W31199  32.387  40.901   0.111
62806W        W31200  36.461   4.169  12.681
62807W        W31201   7.255   6.701  14.830
62808W        W31202  34.237   4.248  13.221
62809W        W31203  44.978  40.566   3.733
62810W        W31204  29.497  22.518   1.341
62811W        W31205   0.933  19.613  12.401
62812W        W31206  42.220  37.435   3.256
62813W        W31207  34.925   7.448  11.066
62814W        W31208  44.306   1.408   4.389
62815W        W31209  34.606  27.930  14.429
62816W        W31210   4.221  39.190   3.603
62817W        W31211  23.098  33.977   0.022
62818W        W31212  10.689  15.744  10.044
62819W        W31213  30.740  10.691   2.766
62820W        W31214  15.799  14.300   2.331
62821W        W31215   4.532   8.345  13.847
62822W        W31216  19.628  32.655  13.560
62823W        W31217  27.030   4.157  11.099
62824W        W31218  31.278   2.246  12.552
62825W        W31219   4.651  23.932  12.146
62826W        W31220  21.469  23.121  14.789
62827W        W31221  32.001   2.931  14.446
62828W        W31222  44.843  22.037  12.436
62829W        W31223   0.356  18.728   1.390
62830W        W31224   5.029  39.996  12.998
62831W        W31225  35.423  42.991  10.418
62832W        W31226  24.183   6.609  10.955
62833W        W31227  11.561  19.335   1.482
62834W        W31228  40.024  33.861  13.420
62835W        W31229  10.860  40.021   2.730
62836W        W31230  35.178  10.132  11.199
62837W        W31231  31.304  39.488   1.225
62838W        W31232   4.521   8.729   2.083
62839W        W31233  30.068  26.633  11.174
62840W        W31234  20.642  10.486   1.640
62841W        W31235  16.026  36.598  10.485
62842W        W31236  35.649   3.431  13.274
62843W        W31237  14.189   5.766  11.593
62844W        W31238  31.721  26.505   3.586
62845W        W31239   2.438  29.456   1.752
62846W        W31240   1.161  38.398  14.317
62847W        W31241  11.170  24.774  11.141
62848W        W31242  35.577  35.509  11.234
62849W        W31243   3.430  37.558   3.179
62850W        W31244  39.935  40.103   1.342
62851W        W31245  23.042  15.365  10.408
62852W        W31246  13.517  21.938  10.659
62853W        W31247  40.311   9.577   3.491
62854W        W31248  41.267  17.199   0.960
62855W        W31249  21.405  36.565  11.086
62856W        W31250  38.652  36.806   3.080
62857W        W31251  38.621  25.587  13.580
62858W        W31252  27.307  37.147   1.345
62859W        W31253  44.376  24.967   2.420
62860W        W31254  27.145   6.370   2.265
62861W        W31255  11.238  26.247  14.373
62862W        W31256   8.684  40.875   1.263
62863W        W31257   6.878  31.174   1.433
62864W        W31258  43.351  33.629  14.407
62865W        W31259  24.473  22.484  14.995
62866W        W31260  20.605  23.765  10.652
62867W        W31261  28.226  17.994   3.226
62868W        W31262  32.465  30.554  14.833
62869W        W31263  27.674   5.474   4.021
62870W        W31264  33.535   6.388   5.252
62871W        W31265  24.883  19.074  11.954
62872W        W31266  13.146   8.833   0.232
62873W        W31267   1.047  17.734   0.401
62874W        W31268  38.332  15.784   0.940
62875W        W31269  13.580  36.311  13.599
62876W        W31270   3.779  19.050   2.662
62877W        W31271  13.692   1.436   4.840
62878W        W31272  11.147  20.804   2.408
62879W        W31273  18.662  27.817  14.433
62880W        W31274  41.790  36.074  14.886
62881W        W31275   5.649  15.326   2.274
62882W        W31276  10.150  16.164   2.931
62883W        W31277   3.026  31.561   0.238
62884W        W31278  34.848  13.692  12.866
62885W        W31279   4.354  11.758   1.150
62886W        W31280  40.083  27.697   1.832
62887W        W31281   5.015  34.983   2.266
62888W        W31282   7.989   6.611  12.056
62889W        W31283  19.159   2.496  12.515
62890W        W31284   6.344  13.702  12.017
62891W        W31285  41.616  44.782  12.486
62892W        W31286  14.895  44.027   3.310
62893W        W31287  18.515  18.948  12.232
62894W        W31288  25.110   9.801   0.369
62895W        W31289  41.868  37.795   0.402
62896W        W31290   0.497  42.561   2.695
62897W        W31291  11.174   2.807  12.552
62898W        W31292  41.469   5.340   3.816
62899W        W31293   7.794   1.503   1.489
62900W        W31294  34.194  12.342  14.338
62901W        W31295   8.606  40.544   2.678
62902W        W31296  10.888   6.408  13.408
62903W        W31297  16.741   4.684   0.399
62904W        W31298  17.255  20.595   5.184
62905W        W31299   6.583  30.836   3.801
62906W        W31300   8.818  14.819  12.872
62907W        W31301  12.372  44.873  12.358
62908W        W31302  38.448  30.154   2.724
62909W        W31303   2.962  17.078  11.863
62910W        W31304  38.602   0.864   2.170
62911W        W31305  27.004  20.453  11.114
62912W        W31306  21.904  17.035   3.563
62913W        W31307  27.256  16.546   3.849
62914W        W31308  19.021  34.322   1.739
62915W        W31309  18.871   9.875   4.027
62916W        W31310   1.914   3.085  14.903
62917W        W31311  24.652  15.296  14.932
62918W        W31312   2.484  23.016   0.335
62919W        W31313  23.205  10.044   4.427
62920W        W31314  20.780   4.273  14.613
62921W        W31315   7.406  36.759   2.596
62922W        W31316   3.647  24.994   5.210
62923W        W31317  26.375   1.072   3.626
62924W        W31318  13.594  20.158   0.186
62925W        W31319  37.853  18.599   0.170
62926W        W31320   6.644  17.125   4.879
62927W        W31321  23.843  35.866   4.835
62928W        W31322  27.216  43.369   3.110
62929W        W31323  44.305   1.456  13.314
62930W        W31324  43.190  21.469  11.083
62931W        W31325  24.230  29.027   3.364
62932W        W31326  21.505  37.606  14.403
62933W        W31327   7.390  24.363   3.120
62934W        W31328   6.169   3.696   1.223
62935W        W31329  41.965  15.419   2.240
62936W        W31330  27.682   1.236   3.229
62937W        W31331  41.321  33.435   3.091
62938W        W31332  21.761  25.012  13.968
62939W        W31333  42.380   8.664   3.238
62940W        W31334  43.209   2.440   1.872
62941W        W31335  23.566  22.560   0.404
62942W        W31336  11.661  17.468   1.882
62943W        W31337   7.691  12.134  11.484
62944W        W31338  12.917  30.166   2.761
62945W        W31339  28.509  15.170   0.345
62946W        W31340  36.580  40.764   3.696
62947W        W31341  14.546  19.519  12.010
62948W        W31342  21.112  40.350   1.438
62949W        W31343  35.421  17.146  12.360
62950W        W31344  22.609  26.593  12.987
62951W        W31345  27.084   6.932  10.474
62952W        W31346   2.370  29.641   0.844
62953W        W31347  25.938  37.488  12.477
62954W        W31348   8.102  29.858  13.457
62955W        W31349   8.491  25.161   1.184
62956W        W31350  16.788  11.413  14.060
62957W        W31351  12.166  37.150  14.665
62958W        W31352  42.938  13.269   3.977
62959W        W31353  29.998  29.455   2.650
62960W        W31354  26.908  40.205   1.737
62961W        W31355   2.914  39.468   4.713
62962W        W31356  21.106  35.600   2.974
62963W        W31357  24.489  22.306   0.481
62964W        W31358  44.955  24.499   3.216
62965W        W31359   6.906  10.234  11.239
62966W        W31360  10.302   5.008   2.816
62967W        W31361  16.078  31.150  12.962
62968W        W31362  27.525   1.730   4.136
62969W        W31363   6.923   4.452   2.478
62970W        W31364   1.492  29.401  12.512
62971W        W31365  19.575  32.193   0.775
62972W        W31366   5.496  13.083  11.179
62973W        W31367  28.599  31.181  11.207
62974W        W31368   4.346  41.851  12.640
62975W        W31369  35.416  36.362  12.577
62976W        W31370  20.298  14.236  14.325
62977W        W31371  17.658  25.109  10.442
62978W        W31372  22.543  27.711  12.046
62979W        W31373   7.344  31.564   3.947
62980W        W31374  36.892   1.243  12.931
62981W        W31375  24.015  18.643   0.480
62982W        W31376   8.335   7.396  11.982
62983W        W31377  22.603   7.725   5.301
62984W        W31378  10.669  25.533   1.735
62985W        W31379  22.500  11.249   1.306
62986W        W31380  19.670   7.491   2.591
62987W        W31381  30.920   2.896   4.407
62988W        W31382  13.267  38.480   4.678
62989W        W31383  10.603  33.678  14.365
62990W        W31384  41.352   8.274   1.829
62991W        W31385  39.482   1.439   1.504
62992W        W31386  19.731  21.554   3.292
62993W        W31387  15.854  28.466  11.501
62994W        W31388  34.426  22.072   0.913
62995W        W31389   7.931  16.117  12.648
62996W        W31390  30.234  29.168   0.392
62997W        W31391  39.611  26.535   2.726
62998W        W31392  25.623  39.348  13.334
62999W        W31393  20.810  32.441   4.098
63000W        W31394   8.209  37.328  12.421
63001W        W31395  37.980  31.612   2.640
63002W        W31396  30.938  28.179  14.280
63003W        W31397   3.383  11.370  10.294
63004W        W31398  20.307   5.404  14.327
63005W        W31399   5.308  10.164   4.022
63006W        W31400  43.995   9.866   2.471
63007W        W31401  10.799  42.550   1.839
63008W        W31402   0.878  29.015  14.365
63009W        W31403  41.679   8.674  14.995
63010W        W31404   0.298  38.989  14.805
63011W        W31405  17.075  20.833   1.434
63012W        W31406   4.283  22.274  13.872
63013W        W31407  39.428   9.331  11.619
63014W        W31408  39.568   4.383   1.713
63015W        W31409  30.050  38.190  13.438
63016W        W31410  26.412  10.482  11.683
63017W        W31411  33.040   0.905  14.441
63018W        W31412  25.711  42.323  13.533
63019W        W31413  21.042  15.719  11.017
63020W        W31414  16.270  37.430   5.067
63021W        W31415   2.538  31.172   4.493
63022W        W31416   3.731  33.363   2.363
63023W        W31417  16.585  32.815  13.333
63024W        W31418  43.293   1.846   3.265
63025W        W31419  30.344   1.815  14.846
63026W        W31420  44.896   2.947  14.548
63027W        W31421  20.683  41.184  14.547
63028W        W31422  24.016  31.067   4.528
63029W        W31423  11.127  20.484  12.848
63030W        W31424   3.601  13.427  13.196
63031W        W31425   3.426  30.981   0.249
63032W        W31426  11.604  13.410  11.646
63033W        W31427  33.102  30.870   0.288
63034W        W31428  41.749  27.206   0.465
63035W        W31429  12.412  30.840   2.952
63036W        W31430  38.167  39.672   0.642
63037W        W31431  42.579  18.161   4.325
63038W        W31432  25.578   3.097   1.056
63039W        W31433  21.254  34.157  12.470
63040W        W31434  22.194   9.761  12.364
63041W        W31435  41.326  32.047  13.331
63042W        W31436  39.362   9.852  12.547
63043W        W31437  40.904  15.002  14.372
63044W        W31438  13.587  27.754  14.966
63045W        W31439  15.144  20.958   3.845
63046W        W31440  10.960  39.437   0.874
63047W        W31441  32.119  33.393  14.000
63048W        W31442   5.262  33.419  12.698
63049W        W31443  31.447  20.963   0.608
63050W        W31444  36.102   5.675   1.930
63051W        W31445  25.282   5.580   0.265
63052W        W31446   0.153  11.761  12.546
63053W        W31447  34.204  25.061  11.054
63054W        W31448   2.858  41.820   4.075
63055W        W31449  40.995  29.403  11.626
63056W        W31450  28.929  27.672   2.370
63057W        W31451  30.402  37.514   1.751
63058W        W31452  13.736   6.416   0.243
63059W        W31453  16.562  16.010   4.660
63060W        W31454  13.046  23.113   0.322
63061W        W31455  27.106  25.590   1.921
63062W        W31456   3.264  35.579  10.943
63063W        W31457   7.810  27.649   0.489
63064W        W31458   0.432  22.424   3.742
63065W        W31459  41.737  42.357   3.763
63066W        W31460  44.820  25.089  10.693
63067W        W31461   3.478   1.746   0.892
63068W        W31462  40.573  44.782  12.438
63069W        W31463  39.906  15.216   3.396
63070W        W31464  28.727   4.972  14.875
63071W        W31465  25.937  31.006   1.883
63072W        W31466   2.321  21.183  11.272
63073W        W31467  10.103  19.391  12.861
63074W        W31468  44.247  30.139  11.164
63075W        W31469  44.484  39.900   3.168
63076W        W31470   5.433  34.082   0.266
63077W        W31471  16.915   6.020   1.319
63078W        W31472   1.958  13.624  13.830
63079W        W31473  30.452   9.450   4.030
63080W        W31474   9.204  34.502  10.813
63081W        W31475  36.277   8.221  12.254
63082W        W31476  38.348  35.070  11.056
63083W        W31477  12.764  10.661  14.056
63084W        W31478  41.736  26.245  11.046
63085W        W31479  13.881  18.354   2.355
63086W        W31480   5.860  35.538  10.361
63087W        W31481  11.907  38.897  11.047
63088W        W31482  21.111  22.713  12.902
63089W        W31483   7.170  18.543   1.174
63090W        W31484  33.080  28.108   2.124
63091W        W31485  17.887  44.468   2.745
63092W        W31486  26.242  29.857   3.505
63093W        W31487  26.234   5.426  13.054
63094W        W31488  18.068  35.960  12.870
63095W        W31489  33.592  42.898   1.037
63096W        W31490  26.090  24.154   3.656
63097W        W31491  28.474  32.787  10.734
63098W        W31492  30.878  21.630  10.999
63099W        W31493  32.981   5.342  10.610
63100W        W31494   6.882  33.935  13.992
63101W        W31495  13.361   2.172  11.505
63102W        W31496  30.906  28.609   1.169
63103W        W31497  35.184  43.216  12.978
63104W        W31498   8.183   9.339   2.399
63105W        W31499  40.268  33.975   2.868
63106W        W31500   0.290  32.016   0.055
63107W        W31501   3.278  20.307   2.691
63108W        W31502  17.329  35.902  11.079
63109W        W31503  18.876  25.983   2.622
63110W        W31504  31.164  36.909  12.488
63111W        W31505  32.896  30.741   4.977
63112W        W31506   3.899  23.178   0.649
63113W        W31507  19.825  25.600   4.249
63114W        W31508  41.391  23.485  10.666
63115W        W31509   5.663   0.500  12.378
63116W        W31510  42.425  13.191   3.190
63117W        W31511   9.054  36.550  14.432
63118W        W31512  17.180  25.688   1.395
63119W        W31513  27.031  34.509   1.861
63120W        W31514  42.767  17.282   1.896
63121W        W31515  33.154  11.868  11.156
63122W        W31516  26.036  27.437  10.679
63123W        W31517  44.258  11.179   2.133
63124W        W31518   7.210  26.536   0.484
63125W        W31519  29.355  23.166  11.189
63126W        W31520   9.860  14.388  14.469
63127W        W31521  39.483  15.781   2.861
63128W        W31522  10.887  32.702   0.604
63129W        W31523  36.888   6.815  10.982
63130W        W31524  42.847  33.063   2.756
63131W        W31525  31.124  33.053   2.101
63132W        W31526  41.939  18.351   1.895
63133W        W31527  38.839  42.039   2.209
63134W        W31528  28.635   8.573  13.454
63135W        W31529  13.431   3.306   1.397
63136W        W31530  22.799  12.815   4.242
63137W        W31531  29.124  40.033  14.116
63138W        W31532  19.030  28.855   3.231
63139W        W31533  39.424  43.241   4.947
63140W        W31534   0.661  37.384   9.747
63141W        W31535   9.606  38.139   0.121
63142W        W31536  29.535   4.912   4.948
63143W        W31537   5.415  39.119   2.520
63144W        W31538  41.263   3.960  12.811
63145W        W31539  15.321  25.007   3.538
63146W        W31540  12.336  20.217   4.198
63147W        W31541   6.913  41.975   2.937
63148W        W31542  44.881  37.509   2.638
63149W        W31543  40.001  41.559  13.747
63150W        W31544  36.094   2.487  12.480
63151W        W31545  31.354  13.808  14.455
63152W        W31546  44.785  41.781  10.773
63153W        W31547  34.479  16.177  13.001
63154W        W31548   0.978  35.584  12.046
63155W        W31549  43.082  42.809  12.463
63156W        W31550  40.499  38.051  10.782
63157W        W31551  27.579  14.310  13.438
63158W        W31552  37.410  22.135   0.255
63159W        W31553  27.650  33.350  14.828
63160W        W31554  32.375   0.416   0.439
63161W        W31555  37.556  27.486  11.094
63162W        W31556   3.466   5.422   3.142
63163W        W31557  28.575  13.067   1.320
63164W        W31558  41.082  41.257  14.996
63165W        W31559  25.180  44.027  11.985
63166W        W31560   5.954  15.814   1.315
63167W        W31561   7.399  39.608  11.563
63168W        W31562  17.700   1.910   2.891
63169W        W31563  43.998  14.082   1.087
63170W        W31564  31.363  12.186  13.930
63171W        W31565  42.901   5.644   1.925
63172W        W31566  27.520  36.135   3.627
63173W        W31567  34.619  22.277  14.666
63174W        W31568  30.962  10.105   1.360
63175W        W31569   7.648  12.197  10.627
63176W        W31570  31.975  41.044   4.558
63177W        W31571  32.131  39.213  11.229
63178W        W31572   9.848  11.489  13.201
63179W        W31573  11.403  14.553   2.164
63180W        W31574  30.014  42.499  13.994
63181W        W31575   2.298  37.285   2.338
63182W        W31576   8.741  33.613   2.667
63183W        W31577  25.303  20.218   3.070
63184W        W31578  22.039  28.037  10.236
63185W        W31579   5.280   5.348  12.487
63186W        W31580   2.986  39.247  13.954
63187W        W31581  18.848  32.884   3.372
63188W        W31582   3.180   5.913  12.062
63189W        W31583  29.923  20.762   0.184
63190W        W31584  32.432  34.028   1.896
63191W        W31585  33.574  29.230  11.097
63192W        W31586  27.494  39.353  13.617
63193W        W31587  33.527  36.979   2.677
63194W        W31588  18.111   6.259   1.185
63195W        W31589  18.158  39.488  12.386
63196W        W31590  15.235   3.692   1.444
63197W        W31591  18.268  36.532  12.259
63198W        W31592  10.104   6.597  13.220
63199W        W31593   8.760  42.761  11.516
63200W        W31594  18.241   3.359   1.476
63201W        W31595  23.448  13.856   2.302
63202W        W31596  13.943   8.835   1.348
63203W        W31597  22.719  42.844  12.976
63204W        W31598  41.047   0.706   1.224
63205W        W31599  18.703   8.923  12.978
63206W        W31600  30.108  44.039  13.919
63207W        W31601  22.143  18.684   4.072
63208W        W31602  43.779  14.657   2.386
63209W        W31603   9.295  22.211  12.814
63210W        W31604  43.825   6.692   1.730
63211W        W31605   7.452  42.736  11.110
63212W        W31606   2.449  14.322  14.944
63213W        W31607  22.182  24.676  12.549
63214W        W31608   2.278  28.537   3.152
63215W        W31609  15.995  23.507  11.547
63216W        W31610   7.630  19.315  14.047
63217W        W31611  13.878   4.052  10.422
63218W        W31612  21.738  14.090  10.709
63219W        W31613   0.240   2.127   2.605
63220W        W31614   3.006  44.965  13.273
63221W        W31615  34.449   4.966  12.066
63222W        W31616  16.792   3.407  12.913
63223W        W31617   8.922  39.964   0.838
63224W        W31618   6.546   2.280  12.536
63225W        W31619  15.176  10.895   3.646
63226W        W31620  11.619   5.240   3.834
63227W        W31621  12.656  24.294   4.743
63228W        W31622  13.194  23.995  11.873
63229W        W31623  23.516  32.202  13.845
63230W        W31624  44.249   4.864  14.463
63231W        W31625  15.684  26.524  13.530
63232W        W31626  20.591  36.057  13.125
63233W        W31627  16.769   4.204   0.160
63234W        W31628  43.725   0.783  11.566
63235W        W31629  21.526  21.641   3.642
63236W        W31630  44.029  39.579  13.051
63237W        W31631   5.940   2.710   3.695
63238W        W31632  23.697   3.334   3.590
63239W        W31633  26.663  40.513   1.342
63240W        W31634  30.062  32.417   2.506
63241W        W31635  20.612  17.582   1.409
63242W        W31636  30.521   2.413  13.056
63243W        W31637  31.158  13.643  12.105
63244W        W31638   5.175  41.508   1.860
63245W        W31639  44.978  10.461  12.485
63246W        W31640  24.544  23.495   2.860
63247W        W31641  14.584   7.281   2.627
63248W        W31642  11.691   4.896   0.379
63249W        W31643  32.093  22.559  11.631
63250W        W31644  13.760  14.857  14.986
63251W        W31645  28.705  27.490   4.706
63252W        W31646  17.220  43.104   4.833
63253W        W31647   3.528  10.002  11.277
63254W        W31648   6.754   2.395   4.058
63255W        W31649  30.815  26.965  13.860
63256W        W31650  36.186  19.689   3.675
63257W        W31651  18.750  42.198  14.286
63258W        W31652   2.980  44.837   1.950
63259W        W31653  24.936  36.394   0.489
63260W        W31654   8.263  38.607  11.194
63261W        W31655  13.759  41.988   2.244
63262W        W31656  39.331  33.958   1.814
63263W        W31657  12.644   3.471  14.923
63264W        W31658   3.006  25.730  11.949
63265W        W31659  32.691   6.876  12.005
63266W        W31660   5.127   8.482   1.838
63267W        W31661  33.374   1.792  13.089
63268W        W31662  43.271  18.301   2.276
63269W        W31663  29.740  38.470  10.738
63270W        W31664  13.729  18.815  11.640
63271W        W31665  36.522  25.678  11.037
63272W        W31666  43.836  32.620  11.894
63273W        W31667  37.652   5.348  13.264
63274W        W31668  31.422  19.611  13.096
63275W        W31669  21.281  31.041   1.805
63276W        W31670  44.260  43.418   2.292
63277W        W31671  44.210   6.792   1.335
63278W        W31672  32.864   1.718  12.999
63279W        W31673   6.945   1.531   0.813
63280W        W31674  25.822  24.722   3.616
63281W        W31675  34.378  16.625   3.663
63282W        W31676   3.973  17.807   1.784
63283W        W31677  25.270  15.327  14.269
63284W        W31678  24.169   9.079   2.127
63285W        W31679   2.335   5.032  13.891
63286W        W31680  22.166  10.625   3.618
63287W        W31681  44.527  41.747   2.213
63288W        W31682  11.097  39.933  14.402
63289W        W31683  11.651  23.653  13.692
63290W        W31684   9.159  21.010  13.414
63291W        W31685  36.822  11.609  12.974
63292W        W31686  43.285  29.392  13.833
63293W        W31687  44.473  32.456   1.933
63294W        W31688   6.897  29.043   0.390
63295W        W31689  29.612  39.458  14.538
63296W        W31690  29.585  26.292  10.347
63297W        W31691   4.504   5.969  11.405
63298W        W31692   3.324   7.296  14.407
63299W        W31693  16.856   3.374   1.286
63300W        W31694  22.782   0.534   0.332
63301W        W31695   2.407  22.177  12.194
63302W        W31696  18.143  22.770   3.371
63303W        W31697  21.538  38.480   4.505
63304W        W31698  34.010  41.817   3.279
63305W        W31699   4.362   7.742  12.968
63306W        W31700   6.219  22.771  12.046
63307W        W31701  10.845  18.002   3.833
63308W        W31702  37.608   6.941  11.037
63309W        W31703  23.156  27.074   2.208
63310W        W31704  39.057  11.825   4.672
63311W        W31705  25.408  39.483  12.834
63312W        W31706   8.458  24.650  11.707
63313W        W31707   8.850  43.714  12.656
63314W        W31708  40.856   7.733   4.304
63315W        W31709  43.460  11.867   3.633
63316W        W31710   9.509   8.761   4.740
63317W        W31711   8.640  24.143  12.486
63318W        W31712  27.949   9.630   2.584
63319W        W31713   1.457  24.147   4.593
63320W        W31714   3.317  10.114  14.440
63321W        W31715  21.453  32.408  12.209
63322W        W31716  29.132  24.257   4.514
63323W        W31717  36.996   5.698  14.880
63324W        W31718  39.108  34.650  11.969
63325W        W31719   6.945  10.836  14.735
63326W        W31720   4.380   5.148  12.967
63327W        W31721  19.844  25.141   0.903
63328W        W31722   2.340  17.153  12.432
63329W        W31723   2.820  34.185  11.210
63330W        W31724  35.282  11.094  13.644
63331W        W31725  24.546  32.441  11.532
63332W        W31726  44.239  10.237  12.039
63333W        W31727   7.583  33.999   1.124
63334W        W31728  38.243  17.786   2.161
63335W        W31729  13.019  35.757  14.346
63336W        W31730  11.178  23.068   3.332
63337W        W31731  28.186  17.039   1.736
63338W        W31732  18.111  36.049   4.146
63339W        W31733  26.182   1.331  10.573
63340W        W31734  27.781  38.955  14.473
63341W        W31735  40.880  19.694   1.404
63342W        W31736  34.173   1.916  11.625
63343W        W31737  10.128  30.016  12.451
63344W        W31738  38.001   0.468   2.472
63345W        W31739  44.248   7.925   4.223
63346W        W31740  30.312   8.622  10.741
63347W        W31741  26.666   6.706   0.705
63348W        W31742  12.358  23.167  13.581
63349W        W31743  22.219  15.828  13.815
63350W        W31744  43.499  28.576  10.983
63351W        W31745  32.408   1.207   4.703
63352W        W31746  37.525  23.367   0.037
63353W        W31747  33.585  36.843   1.930
63354W        W31748  13.712  26.021   1.370
63355W        W31749  26.541   5.963   2.268
63356W        W31750   8.210   6.988  13.747
63357W        W31751  15.836  42.493  14.350
63358W        W31752  21.687  17.478   3.702
63359W        W31753  30.725  22.072   2.351
63360W        W31754  25.255  39.749   3.129
63361W        W31755   6.789  20.661  13.277
63362W        W31756  17.080  26.599  12.174
63363W        W31757  11.649  42.254   1.947
63364W        W31758  41.730  24.877   3.293
63365W        W31759  16.015  10.132  10.223
63366W        W31760   0.942  23.758  14.314
63367W        W31761   3.280  42.310   0.617
63368W        W31762   4.200   3.312  13.040
63369W        W31763  13.696  32.230   4.298
63370W        W31764  41.458  42.328  10.690
63371W        W31765  20.161  38.987   3.685
63372W        W31766  19.103   5.851  10.545
63373W        W31767  22.589  42.364   2.459
63374W        W31768  40.990  23.071  12.034
63375W        W31769   1.379  41.242   2.374
63376W        W31770  10.497  13.238  10.583
63377W        W31771  10.293  35.111   1.493
63378W        W31772  35.916  18.206   3.787
63379W        W31773  17.140  28.270   4.152
63380W        W31774  29.262   4.663  10.845
63381W        W31775  12.635   5.178  12.894
63382W        W31776  11.116  16.722  11.381
63383W        W31777   0.802  44.689   2.328
63384W        W31778  44.081   1.763   0.340
63385W        W31779   2.928  20.130   5.182
63386W        W31780   3.752  37.685  12.037
63387W        W31781  35.319   3.369   2.910
63388W        W31782  35.449  25.251  11.920
63389W        W31783   1.294  22.259   3.117
63390W        W31784  25.610   8.704  10.732
63391W        W31785  23.772  19.639   1.935
63392W        W31786   3.708  25.001   1.245
63393W        W31787  40.410  25.548  10.807
63394W        W31788   3.359  12.150  13.437
63395W        W31789  19.034   5.743  12.851
63396W        W31790  19.471  30.677  12.442
63397W        W31791  11.214   3.458   4.118
63398W        W31792  11.117  12.214  13.440
63399W        W31793  15.365  17.297  12.627
63400W        W31794  33.634  21.800   9.952
63401W        W31795  19.411  16.068  10.632
63402W        W31796  36.891  35.080   0.960
63403W        W31797  20.536  29.459   0.237
63404W        W31798  30.702  12.140   1.884
63405W        W31799  12.609   0.436   3.568
63406W        W31800  13.039  19.577  13.124
63407W        W31801  32.528  33.055  14.209
63408W        W31802  17.719  38.591  14.760
63409W        W31803  27.071   0.971  13.383
63410W        W31804  36.550  20.736  11.556
63411W        W31805  29.447  43.031   3.188
63412W        W31806  12.087  42.020   0.979
63413W        W31807  44.764  10.665  13.733
63414W        W31808  25.626   2.313   0.459
63415W        W31809  12.318  31.745   3.817
63416W        W31810   4.291  22.029  10.551
63417W        W31811  31.844   4.662  12.847
63418W        W31812  18.105  23.499  11.149
63419W        W31813  10.097  24.738   2.032
63420W        W31814  38.102  11.828  12.530
63421W        W31815   5.383   5.340  13.027
63422W        W31816  11.705  22.238  12.123
63423W        W31817   2.831   9.602   3.682
63424W        W31818  12.723  34.227  14.711
63425W        W31819   7.320  12.384   3.132
63426W        W31820  16.211  31.422  13.381
63427W        W31821  23.196  13.112   1.493
63428W        W31822   9.331  13.055  14.374
63429W        W31823  29.322  15.408  14.734
63430W        W31824  21.682   3.337  14.954
63431W        W31825  39.711  38.559  14.709
63432W        W31826  40.245  26.424   4.066
63433W        W31827   5.179  10.709   3.205
63434W        W31828  18.685  24.189  12.889
63435W        W31829  43.479   4.694   1.225
63436W        W31830  10.200  14.600  12.567
63437W        W31831  13.728  12.338  10.599
63438W        W31832  32.256  33.889  11.627
63439W        W31833  30.155  31.021   4.381
63440W        W31834  13.162  21.435  12.891
63441W        W31835  43.893  21.025  10.979
63442W        W31836   1.046  12.342  10.618
63443W        W31837   7.614  21.144   0.095
63444W        W31838  23.422   2.822  13.529
63445W        W31839  32.444  34.525   1.734
63446W        W31840  13.785   4.541  14.723
63447W        W31841  32.415  17.233   4.231
63448W        W31842  37.234  22.100  13.231
63449W        W31843  33.346  26.255   0.484
63450W        W31844  28.653  34.649  12.942
63451W        W31845  34.511   3.246   4.905
63452W        W31846   1.555   6.902  10.540
63453W        W31847   5.429  35.958   3.159
63454W        W31848  39.886  20.277   2.108
63455W        W31849  39.549  13.776   0.387
63456W        W31850   5.692  24.758  13.794
63457W        W31851  21.523  13.277  11.932
63458W        W31852  29.440  10.154  11.543
63459W        W31853   7.936  16.863   1.114
63460W        W31854  31.580  41.487  10.625
63461W        W31855  30.096  38.958   2.861
63462W        W31856  27.906  31.535  11.292
63463W        W31857  27.457  25.995  13.842
63464W        W31858   2.520  33.085   2.915
63465W        W31859  41.013  36.840  12.430
63466W        W31860   6.197  42.271  11.430
63467W        W31861  12.046  24.460  11.280
63468W        W31862  11.768  11.430   4.557
63469W        W31863  40.510   8.256   1.391
63470W        W31864   8.732  33.077  10.483
63471W        W31865  34.995  42.866  10.675
63472W        W31866  21.007  34.356   4.089
63473W        W31867  16.350  35.936   4.673
63474W        W31868  35.615   8.888   2.279
63475W        W31869  41.359  35.088   2.858
63476W        W31870  39.766   6.864  12.775
63477W        W31871  15.126   1.450   1.387
63478W        W31872  40.482   5.985  12.137
63479W        W31873  14.619  40.539   1.291
63480W        W31874  21.742   9.365  14.579
63481W        W31875   3.144  35.945  11.759
63482W        W31876  17.055  32.557   1.231
63483W        W31877   2.423  19.789   2.892
63484W        W31878  23.028  42.806   4.681
63485W        W31879  12.847  28.254  14.395
63486W        W31880  35.030   1.268  11.592
63487W        W31881  13.338  20.980   3.630
63488W        W31882   2.223  17.943  14.195
63489W        W31883  29.889   8.240  14.236
63490W        W31884  30.381  38.792   1.271
63491W        W31885  37.581  25.828  13.775
63492W        W31886  40.150  14.042  13.027
63493W        W31887   0.766  42.879   4.149
63494W        W31888  10.856  31.181  13.506
63495W        W31889  18.332  21.099   4.104
63496W        W31890  22.882  17.680  13.865
63497W        W31891  26.116   9.701   0.360
63498W        W31892  41.046  35.633   3.355
63499W        W31893  42.760  10.200   3.640
63500W        W31894   4.865  44.930  14.700
63501W        W31895  13.256  37.379   1.372
63502W        W31896   4.883  24.008  13.866
63503W        W31897  21.472  38.132  10.619
63504W        W31898  16.724   4.454  14.269
63505W        W31899  17.755  14.154  11.231
63506W        W31900  42.979  26.565   0.493
63507W        W31901  12.332   9.188  10.497
63508W        W31902   9.152   1.093  14.253
63509W        W31903  31.416  30.246  13.502
63510W        W31904  18.191  27.870   2.106
63511W        W31905  25.604  21.181   2.010
63512W        W31906  24.305  15.801  12.545
63513W        W31907  13.119   2.921   0.988
63514W        W31908  15.513   7.727  13.464
63515W        W31909  21.577  16.571  14.485
63516W        W31910  31.151   3.331   0.836
63517W        W31911  38.743  29.973  13.875
63518W        W31912   3.465   8.420   4.641
63519W        W31913  28.088  13.883   0.140
63520W        W31914   2.666  34.648   4.122
63521W        W31915  43.861  21.556   2.883
63522W        W31916  34.369  44.856  14.959
63523W        W31917  13.752  34.580   3.565
63524W        W31918   4.681  41.922  14.410
63525W        W31919  42.446  40.848  14.553
63526W        W31920   0.418  27.492   3.146
63527W        W31921   0.363  11.774  14.239
63528W        W31922   5.644  27.506  11.003
63529W        W31923  44.487  19.858   4.278
63530W        W31924   7.195   1.779   4.155
63531W        W31925  35.156  36.055  10.569
63532W        W31926  25.281  11.836   0.041
63533W        W31927  35.393  42.611  11.473
63534W        W31928   4.765   3.228   1.245
63535W        W31929  12.527   2.756  11.819
63536W        W31930  43.930   9.304  10.679
63537W        W31931  12.310  15.777  14.026
63538W        W31932  36.496   1.294  13.946
63539W        W31933  11.695   6.256   0.762
63540W        W31934  12.647  36.342  10.790
63541W        W31935   5.699   2.778  11.540
63542W        W31936  17.963   4.909   0.308
63543W        W31937   4.232   5.821   4.528
63544W        W31938  41.829  10.641  13.967
63545W        W31939  29.438  42.900  12.098
63546W        W31940  11.629   4.303  13.910
63547W        W31941  21.427  44.984  12.907
63548W        W31942  43.798  29.109   2.890
63549W        W31943  34.087  18.598   3.771
63550W        W31944  36.220  32.391  13.317
63551W        W31945  11.008   5.892   1.680
63552W        W31946  33.070  32.408   0.765
63553W        W31947  37.093  19.189  11.657
63554W        W31948  28.240   3.438  14.257
63555W        W31949   8.832  24.075  11.150
63556W        W31950  29.519   1.975   3.755
63557W        W31951  13.877  34.996  14.599
63558W        W31952  13.667  13.783   4.924
63559W        W31953  25.062  38.105   3.719
63560W        W31954  32.120  38.399   3.413
63561W        W31955  16.572  29.619   0.436
63562W        W31956  13.101  27.083   1.788
63563W        W31957   6.852  10.392   2.896
63564W        W31958   4.286   7.826  11.159
63565W        W31959   7.462   2.503   4.964
63566W        W31960   5.198  36.351   0.493
63567W        W31961  24.184  32.347   4.031
63568W        W31962  11.901  43.248  13.389
63569W        W31963   4.798  21.746   4.086
63570W        W31964  24.784  31.699  13.488
63571W        W31965   5.998  40.020   0.342
63572W        W31966  22.133  30.439  11.668
63573W        W31967  19.884  36.725   3.152
63574W        W31968  21.682  44.029  11.541
63575W        W31969   7.279  19.868  11.013
63576W        W31970  12.744   6.092  12.483
63577W        W31971  24.078  11.810  12.110
63578W        W31972  21.907   0.829   1.731
63579W        W31973   7.856  34.432   1.904
63580W        W31974   5.747  44.055   0.385
63581W        W31975  37.964   7.682   4.583
63582W        W31976  20.796   0.418   4.135
63583W        W31977  20.820  30.555   2.624
63584W        W31978  29.401  22.427   2.163
63585W        W31979   8.743  32.403  14.396
63586W        W31980   4.437  17.103  10.888
63587W        W31981  44.058  19.828   4.593
63588W        W31982  21.743  40.049  11.823
63589W        W31983   0.229  28.868   0.145
63590W        W31984  12.345  21.090  11.972
63591W        W31985  21.159  38.950   4.156
63592W        W31986  23.274   2.849   2.194
63593W        W31987  28.071   2.946  13.020
63594W        W31988  14.612  27.437   4.354
63595W        W31989  38.304  13.659   3.249
63596W        W31990  44.016   1.806   3.828
63597W        W31991  18.871  12.206   3.201
63598W        W31992  34.513  44.082   1.067
63599W        W31993  31.685  26.081  11.405
63600W        W31994  42.023  16.055  11.478
63601W        W31995  33.960  16.280  13.093
63602W        W31996  33.418   6.213  11.668
63603W        W31997  22.253   4.360  10.665
63604W        W31998  32.465  20.660   1.467
63605W        W31999  10.620  19.520   1.015
63606W        W32000  44.392   2.056  12.450
63607W        W32001   5.663  41.244   4.919
63608W        W32002   0.684  31.191   1.994
63609W        W32003   4.193  20.606   0.480
63610W        W32004  24.868  44.951   3.488
63611W        W32005  17.731   4.696  12.461
63612W        W32006  44.575  43.602   3.249
63613W        W32007  38.569  21.599   2.292
63614W        W32008  14.307  12.210  14.532
63615W        W32009   4.230   7.265   0.370
63616W        W32010   1.970  15.780   4.563
63617W        W32011   8.982   6.801  13.062
63618W        W32012  33.338  21.034  12.065
63619W        W32013  36.406  20.948   1.727
63620W        W32014  32.039  33.786   1.277
63621W        W32015  12.048  30.161   3.685
63622W        W32016  10.429  17.775   2.259
63623W        W32017  12.249  43.215   4.340
63624W        W32018  19.839  33.705   3.347
63625W        W32019  12.141  40.933  12.791
63626W        W32020  19.570  28.114  12.620
63627W        W32021  42.695   5.313   1.524
63628W        W32022  21.741  28.584  11.522
63629W        W32023  34.483   1.459   3.674
63630W        W32024  44.277   2.209  13.917
63631W        W32025  28.649  27.949  12.119
63632W        W32026  39.622   1.499  11.442
63633W        W32027  34.086  43.962  14.975
63634W        W32028  20.097  14.960   5.437
63635W        W32029  44.707  30.820   3.697
63636W        W32030   9.410   9.334   0.539
63637W        W32031  30.698   4.811  14.995
63638W        W32032  33.421  15.327   1.004
63639W        W32033  24.542  27.606  13.501
63640W        W32034   0.699  21.201   0.056
63641W        W32035  16.333  33.003   1.587
63642W        W32036  32.316  38.700   4.186
63643W        W32037  38.647  14.064  10.692
63644W        W32038   0.116  21.453  13.438
63645W        W32039  12.182  20.770   0.697
63646W        W32040  37.496  44.900   0.857
63647W        W32041  27.321  29.628  12.459
63648W        W32042  41.253  44.733   0.820
63649W        W32043   5.902  39.949   1.391
63650W        W32044  37.794   9.913  11.519
63651W        W32045   3.574  40.934   4.798
63652W        W32046  26.582  44.679  13.209
63653W        W32047  30.394  16.230   4.909
63654W        W32048  14.548   4.732   4.852
63655W        W32049  11.884  33.474  12.510
63656W        W32050  42.118   8.952   1.961
63657W        W32051  20.475   7.945  13.534
63658W        W32052  18.381  20.167   3.268
63659W        W32053  18.932  12.438   5.135
63660W        W32054  31.655  41.173   1.557
63661W        W32055  37.411  23.451   4.121
63662W        W32056  38.042  44.405  10.737
63663W        W32057   2.391  34.351  14.224
63664W        W32058  29.012   0.944  13.024
63665W        W32059  37.794  29.090  14.318
63666W        W32060  18.673   0.809  11.838
63667W        W32061  21.486  14.094  11.148
63668W        W32062  30.899  34.112   2.737
63669W        W32063  28.966   8.874   1.764
63670W        W32064  32.731  42.300  14.699
63671W        W32065  33.996   4.765   2.083
63672W        W32066  21.686  13.229   2.280
63673W        W32067  40.177  23.107   2.745
63674W        W32068  14.587  34.794  14.027
63675W        W32069   2.307   0.548   3.247
63676W        W32070  26.060   6.207   3.257
63677W        W32071  38.432  39.263  14.861
63678W        W32072  28.921  15.535  11.187
63679W        W32073   5.575  36.117   2.232
63680W        W32074  15.649  11.798   1.377
63681W        W32075  32.235  36.923   1.785
63682W        W32076  14.184  27.357   3.450
63683W        W32077  41.794   3.015  10.642
63684W        W32078  35.117  22.549  13.837
63685W        W32079  17.766  37.779   1.927
63686W        W32080  14.355  31.115  12.440
63687W        W32081  36.541   0.230  14.461
63688W        W32082   7.421  29.635  14.848
63689W        W32083   2.151  25.665   0.836
63690W        W32084  25.343   5.016   2.418
63691W        W32085  32.922   5.673   3.681
63692W        W32086  18.273  21.043   2.262
63693W        W32087   7.273  32.835   1.839
63694W        W32088  23.564  29.824   4.216
63695W        W32089   1.632   9.887  11.562
63696W        W32090  41.729  20.237  13.491
63697W        W32091  41.014   1.489  14.942
63698W        W32092  29.217  29.483  13.977
63699W        W32093  37.661  24.220  14.762
63700W        W32094  24.008  32.882   4.700
63701W        W32095  25.719  14.658  13.876
63702W        W32096   0.766  22.197  10.634
63703W        W32097  35.021  23.577  14.871
63704W        W32098  16.377  10.773  10.939
63705W        W32099  17.260  18.655   4.381
63706W        W32100  25.994  23.604   3.899
63707W        W32101   3.099  13.260   5.826
63708W        W32102  22.210  24.274  13.423
63709W        W32103  14.743  26.074  12.954
63710W        W32104  35.933  43.976  13.717
63711W        W32105  24.207  22.725   2.860
63712W        W32106  25.581  24.550  10.586
63713W        W32107  30.994   8.200   2.570
63714W        W32108   2.409  22.690   0.775
63715W        W32109   3.675  28.968   4.912
63716W        W32110   2.015   4.464   4.312
63717W        W32111  31.389  28.053   2.142
63718W        W32112  18.809   5.557   1.212
63719W        W32113   7.388   4.623   2.297
63720W        W32114  27.248  37.731   1.680
63721W        W32115  39.862  36.113  12.947
63722W        W32116  24.433   2.270  14.730
63723W        W32117   0.798  35.387   4.715
63724W        W32118  22.128   1.584  12.481
63725W        W32119   9.059   4.183   3.479
63726W        W32120  31.853   6.978   3.608
63727W        W32121  30.246  22.037  13.028
63728W        W32122   6.705  16.095  14.999
63729W        W32123  32.065  41.774  13.427
63730W        W32124   2.892  40.359  11.263
63731W        W32125  12.934  19.284  11.495
63732W        W32126  22.952  19.705   3.118
63733W        W32127  21.119   0.821   1.157
63734W        W32128   8.191  23.617   4.100
63735W        W32129   9.157   9.191  12.029
63736W        W32130  22.372  41.399  14.484
63737W        W32131  36.014  34.154   4.718
63738W        W32132   8.852  42.192  12.534
63739W        W32133   9.002  29.598  14.801
63740W        W32134  24.478  10.628   2.785
63741W        W32135  26.497  31.206  12.000
63742W        W32136   4.756  22.714  10.884
63743W        W32137   0.766   9.795   0.506
63744W        W32138  12.819  24.975   0.826
63745W        W32139  38.005  38.475  14.344
63746W        W32140  16.813   8.287   2.227
63747W        W32141   6.786  20.628  13.786
63748W        W32142   6.804  16.716   2.255
63749W        W32143  34.465  13.557   4.098
63750W        W32144  22.571  37.014  13.377
63751W        W32145  40.899  44.118  10.714
63752W        W32146   3.952  18.608   1.357
63753W        W32147  17.747  24.757  12.584
63754W        W32148  16.207  26.582  13.570
63755W        W32149  25.642  29.360   9.867
63756W        W32150  43.462  16.997  14.420
63757W        W32151  27.453   2.911   1.138
63758W        W32152  11.482  41.347   3.152
63759W        W32153  10.698   8.551   3.810
63760W        W32154   7.630  20.330  12.614
63761W        W32155  29.435  35.124   1.461
63762W        W32156  38.522  21.719   4.898
63763W        W32157   8.797  15.850  11.760
63764W        W32158  12.558   0.891  13.853
63765W        W32159  14.606  13.780   0.105
63766W        W32160  41.130   3.324  12.165
63767W        W32161  25.975  36.480  12.689
63768W        W32162  13.852  15.706   2.258
63769W        W32163  38.564   3.791   4.687
63770W        W32164  31.021  10.771   3.654
63771W        W32165  24.554   3.733   2.814
63772W        W32166  23.636   5.391  14.447
63773W        W32167  14.616  10.133  14.307
63774W        W32168  30.884  36.783  11.159
63775W        W32169  29.929  25.605   3.276
63776W        W32170  16.519  25.121  14.313
63777W        W32171  16.632  29.221  12.336
63778W        W32172  18.300   5.364   0.916
63779W        W32173  36.901  23.965   2.895
63780W        W32174  30.626   2.912   3.450
63781W        W32175  32.428  40.222   2.543
63782W        W32176  26.242  39.415  11.504
63783W        W32177  42.590   3.791   4.668
63784W        W32178  32.963   9.140  14.859
63785W        W32179  23.080   0.268   4.919
63786W        W32180   5.402  32.189   1.554
63787W        W32181   9.814   2.860   2.195
63788W        W32182   4.790  26.386  10.688
63789W        W32183  18.680  42.560  14.793
63790W        W32184   9.698   7.750   3.911
63791W        W32185   0.164  43.518   3.930
63792W        W32186  38.405  25.384  14.018
63793W        W32187  28.214   5.366  13.940
63794W        W32188  11.763  44.892   4.740
63795W        W32189   3.839  38.914  11.181
63796W        W32190   6.231  15.153  11.618
63797W        W32191  34.421  13.648   3.192
63798W        W32192   6.895  33.038   4.028
63799W        W32193  42.495  27.091   0.943
63800W        W32194   4.870  35.478   2.431
63801W        W32195  31.329   1.862   0.791
63802W        W32196  38.739  14.232   2.163
63803W        W32197  37.161   0.344  13.105
63804W        W32198  26.566  28.467   3.655
63805W        W32199   3.314  30.802  14.313
63806W        W32200  33.117  21.009   4.594
63807W        W32201  33.067  30.108  11.973
63808W        W32202  42.537  34.115   1.749
63809W        W32203  14.219  23.305  11.611
63810W        W32204   3.078  40.898   4.034
63811W        W32205  14.731  11.083  14.605
63812W        W32206   1.018  11.164  14.347
63813W        W32207  36.350  42.577  10.729
63814W        W32208   6.450   3.958  14.049
63815W        W32209  44.285  43.365  13.858
63816W        W32210  24.884  37.818  14.080
63817W        W32211  24.737  34.154   4.244
63818W        W32212  24.362  32.524  14.721
63819W        W32213  36.288  25.970  12.456
63820W        W32214  15.510  27.969  11.041
63821W        W32215  21.008  37.763   1.468
63822W        W32216  38.079  13.555  10.974
63823W        W32217  25.931  24.988   1.686
63824W        W32218   3.937  11.203   2.700
63825W        W32219  10.151  29.255   2.680
63826W        W32220   7.490  33.671   4.662
63827W        W32221  22.586  42.336   2.975
63828W        W32222  39.621  37.100  10.619
63829W        W32223  17.593  33.089  10.423
63830W        W32224  19.561  25.472  12.938
63831W        W32225  35.021  42.750  14.298
63832W        W32226  20.736   7.499  13.692
63833W        W32227  22.488  25.750  14.026
63834W        W32228  11.345  13.421  14.387
63835W        W32229  22.834  15.091  13.495
63836W        W32230   1.337   0.468  11.037
63837W        W32231   7.420   7.232   3.244
63838W        W32232  44.051  14.897  11.077
63839W        W32233  32.971   4.590   3.112
63840W        W32234  10.582  36.393   0.317
63841W        W32235  36.903  34.075  10.388
63842W        W32236  16.184   1.555  11.020
63843W        W32237  35.478  26.389   2.929
63844W        W32238  37.048  12.669   4.709
63845W        W32239  22.117  22.129  13.606
63846W        W32240  42.034  31.193   1.517
63847W        W32241  25.024  15.556  14.686
63848W        W32242   9.581  14.018   0.862
63849W        W32243  24.452  32.195  14.326
63850W        W32244  14.489  13.255   4.971
63851W        W32245  11.970  31.264  14.305
63852W        W32246  22.276  31.101  14.810
63853W        W32247  27.711  24.649  12.037
63854W        W32248   7.838  30.627  11.351
63855W        W32249  13.236  37.109  14.798
63856W        W32250  26.919   0.426  12.516
63857W        W32251  34.948  42.479  13.826
63858W        W32252  20.132  42.387  14.952
63859W        W32253  14.293  33.893  12.554
63860W        W32254   8.773  29.180   1.339
63861W        W32255  17.967  10.285   0.144
63862W        W32256  37.400  36.614  13.004
63863W        W32257  14.094  30.080   2.703
63864W        W32258   0.795  14.998  13.592
63865W        W32259  44.914  18.768   1.136
63866W        W32260  23.803  13.356  13.886
63867W        W32261  33.508  32.700   4.114
63868W        W32262  38.799  37.725   2.753
63869W        W32263  24.187  37.337  12.891
63870W        W32264   4.542  36.028   2.177
63871W        W32265  34.207  44.791   2.719
63872W        W32266  15.051  24.619  13.890
63873W        W32267  21.224  18.187  11.491
63874W        W32268  15.811  14.194  13.508
63875W        W32269  19.990   0.891   1.368
63876W        W32270  23.296  38.311  14.791
63877W        W32271  16.195  39.167  12.533
63878W        W32272  24.951  25.389  11.427
63879W        W32273   4.979   0.844  10.364
63880W        W32274  11.855  27.424   2.335
63881W        W32275  22.126   2.943  10.945
63882W        W32276  13.282  24.172  14.597
63883W        W32277  35.613  37.564  12.124
63884W        W32278   6.202  12.204   4.671
63885W        W32279  13.720  16.542   1.275
63886W        W32280  13.213  11.320  13.270
63887W        W32281   8.849  36.010  10.109
63888W        W32282  29.921  21.202   1.407
63889W        W32283  23.541  22.615   1.743
63890W        W32284  42.461   9.793   3.743
63891W        W32285   2.391  44.252   3.873
63892W        W32286  20.980   8.731   4.249
63893W        W32287  25.207  40.003   4.372
63894W        W32288  26.035  11.123   3.255
63895W        W32289  38.693   8.230  14.996
63896W        W32290  41.806  13.698   4.615
63897W        W32291  33.917  30.576  11.901
63898W        W32292  24.866  28.000   2.920
63899W        W32293  12.647  18.646   0.557
63900W        W32294  43.890  12.158  13.470
63901W        W32295  29.956  40.998   4.485
63902W        W32296  42.901  11.300   4.869
63903W        W32297  21.473   3.853   0.325
63904W        W32298  24.627  38.544   2.249
63905W        W32299  35.408  41.456  12.619
63906W        W32300  40.992  41.898   0.976
63907W        W32301   8.908  40.873  14.414
63908W        W32302  35.116  17.633   0.223
63909W        W32303  40.108   1.491  13.390
63910W        W32304  16.264  19.964   3.920
63911W        W32305  37.431   9.208   2.521
63912W        W32306  28.959  31.668   3.519
63913W        W32307  26.316  42.495  11.732
63914W        W32308  43.677  34.831  13.874
63915W        W32309  14.288   3.171  10.835
63916W        W32310  42.950  41.274  14.041
63917W        W32311   6.211  34.053  11.020
63918W        W32312   8.433  16.114  12.573
63919W        W32313  28.463  27.257   2.674
63920W        W32314   2.058  19.095  12.695
63921W        W32315  25.429  40.261  14.451
63922W        W32316   9.770  12.376   2.243
63923W        W32317  10.898  15.234  12.590
63924W        W32318   5.508   4.718   3.883
63925W        W32319   5.700  27.534  12.919
63926W        W32320  29.293  37.441  12.369
63927W        W32321  14.339  20.088  13.497
63928W        W32322   9.113  33.863  11.255
63929W        W32323  12.623  39.275  12.378
63930W        W32324  29.470  43.743   0.774
63931W        W32325  26.772  23.250   2.377
63932W        W32326  43.363  21.195   0.416
63933W        W32327  27.050  36.549  11.590
63934W        W32328   8.757   4.460  13.473
63935W        W32329   8.666  14.377   4.316
63936W        W32330  27.068  28.705  14.383
63937W        W32331  33.156  31.487  14.358
63938W        W32332  11.142   3.346  13.375
63939W        W32333  21.649  24.270   2.887
63940W        W32334  35.127  25.082  10.728
63941W        W32335  36.935  28.922   1.974
63942W        W32336  15.489  37.223   2.124
63943W        W32337  12.851  21.288   4.834
63944W        W32338  30.983  23.425  13.962
63945W        W32339  35.852  16.171   1.685
63946W        W32340  31.352  26.007   4.686
63947W        W32341  36.057  24.232   4.187
63948W        W32342  18.088  44.784   3.779
63949W        W32343  34.831   2.012   2.911
63950W        W32344  33.974  25.551  13.015
63951W        W32345   1.906  24.256  13.288
63952W        W32346   0.304  26.823  11.024
63953W        W32347   0.602  32.863   2.248
63954W        W32348  15.113  39.361   1.139
63955W        W32349  26.466  14.962  14.943
63956W        W32350  26.806  22.719   2.224
63957W        W32351   0.350  13.908   1.697
63958W        W32352  12.159  22.106   0.417
63959W        W32353  18.769   6.259   5.028
63960W        W32354  21.722  12.383  10.689
63961W        W32355  33.220  35.103   4.961
63962W        W32356  41.373  40.338  14.950
63963W        W32357  17.082  26.977   0.849
63964W        W32358   9.877  25.006  10.656
63965W        W32359  12.976  18.960  11.887
63966W        W32360  18.049  26.182  12.595
63967W        W32361  35.540  13.707  13.554
63968W        W32362  41.759  30.787  14.403
63969W        W32363   9.146  30.692   0.305
63970W        W32364  42.578  32.735   1.366
63971W        W32365   3.376  19.180   0.593
63972W        W32366  43.381   8.144  14.826
63973W        W32367   0.304  13.431  13.027
63974W        W32368   3.447   5.461  12.107
63975W        W32369  41.083  19.161   2.185
63976W        W32370  30.730   1.600  14.277
63977W        W32371  17.854  28.681  14.837
63978W        W32372   3.942  42.465  13.940
63979W        W32373  12.954  32.377   3.188
63980W        W32374  44.728  11.595  10.802
63981W        W32375  26.937  38.731  11.994
63982W        W32376   4.843   7.777   1.149
63983W        W32377  11.932  25.704  14.345
63984W        W32378  20.030  31.658   0.319
63985W        W32379  11.143  23.416  12.989
63986W        W32380  11.251  15.738   3.607
63987W        W32381   2.774   6.222  11.409
63988W        W32382  29.665  38.255   3.752
63989W        W32383  15.668  14.303   3.896
63990W        W32384  11.946  11.899  12.788
63991W        W32385  33.964  24.447   2.253
63992W        W32386  39.758  26.138  12.470
63993W        W32387   4.356   2.818  12.999
63994W        W32388  32.460   3.050   0.784
63995W        W32389  35.387  18.445   0.342
63996W        W32390   4.956  35.602   4.543
63997W        W32391   2.720  31.955   1.693
63998W        W32392   8.823   5.602  14.057
63999W        W32393   1.180  32.193  14.478
64000W        W32394  21.647  18.700  11.396
64001W        W32395  18.102  19.105  13.725
64002W        W32396   7.745  12.148   3.362
64003W        W32397  43.771  30.313   2.822
64004W        W32398  30.696  34.336  13.915
64005W        W32399   4.281  13.741  13.550
64006W        W32400  12.255  15.183  11.351
64007W        W32401  38.708  17.072   0.030
64008W        W32402  17.104  23.746  14.810
64009W        W32403   8.821  10.486  14.501
64010W        W32404  20.403  33.118  14.709
64011W        W32405  41.809   6.731  10.745
64012W        W32406   3.318  40.025   2.131
64013W        W32407  22.492   9.919  10.677
64014W        W32408  37.864  39.566  14.310
64015W        W32409   0.968  21.668   4.341
64016W        W32410  28.716  12.189   0.946
64017W        W32411  43.873  44.402   3.452
64018W        W32412  16.231  10.153  12.891
64019W        W32413  42.268  35.763   3.697
64020W        W32414  10.910  14.189   0.430
64021W        W32415  39.003  28.037   4.619
64022W        W32416   4.707  22.657  12.364
64023W        W32417  39.335  24.288  13.510
64024W        W32418  29.148   5.863  14.683
64025W        W32419  26.644   2.231  12.647
64026W        W32420  44.536   0.671   4.014
64027W        W32421  32.027  37.634   2.315
64028W        W32422  27.492  26.649   1.876
64029W        W32423  37.323   9.383   1.665
64030W        W32424  29.960   3.397  14.975
64031W        W32425   8.650  39.533  12.933
64032W        W32426  15.490  38.309   4.213
64033W        W32427  21.519  17.857  14.834
64034W        W32428  28.372   6.868  13.152
64035W        W32429   3.994  12.157  10.741
64036W        W32430   8.497  24.250  12.959
64037W        W32431   9.971   5.441   0.757
64038W        W32432   2.362  17.111   3.110
64039W        W32433  36.413  11.450  11.164
64040W        W32434  15.790   4.265   4.444
64041W        W32435  18.989  31.105  13.944
64042W        W32436  26.155  15.367  11.145
64043W        W32437  12.186   9.254  11.400
64044W        W32438  32.675  12.635  13.854
64045W        W32439  30.703   7.495  12.569
64046W        W32440  23.147  28.524  11.481
64047W        W32441  13.608  37.916  11.454
64048W        W32442  19.535  22.560  11.144
64049W        W32443   2.808  43.001  14.572
64050W        W32444  38.795   8.294   0.885
64051W        W32445  37.282  31.479   1.725
64052W        W32446  40.513   6.698  11.434
64053W        W32447  25.269  17.736   1.795
64054W        W32448   5.798  18.685   0.461
64055W        W32449  29.636  31.835   3.723
64056W        W32450  36.763  17.595  14.820
64057W        W32451  23.297  10.636  12.735
64058W        W32452   9.379   2.959   3.336
64059W        W32453   2.884  22.112   1.342
64060W        W32454  43.054  11.394   1.826
64061W        W32455  41.921  21.632   3.192
64062W        W32456  26.774  42.336   5.391
64063W        W32457   5.708  36.372   2.877
64064W        W32458  40.037  33.501   2.665
64065W        W32459  12.606  17.794  14.671
64066W        W32460   5.417   7.110  13.691
64067W        W32461   2.945  15.768   2.675
64068W        W32462  42.261   5.148  10.433
64069W        W32463  35.551  33.813   1.492
64070W        W32464  12.666  37.556   2.652
64071W        W32465  38.485  14.286   2.627
64072W        W32466  42.940  27.406   0.484
64073W        W32467  22.961  33.620   4.428
64074W        W32468   6.945   5.426  12.945
64075W        W32469  38.206   3.984  12.108
64076W        W32470  11.372   4.985  12.965
64077W        W32471  12.583  40.703  11.102
64078W        W32472   6.159  18.000   3.638
64079W        W32473   7.265   6.739   3.891
64080W        W32474  22.713   6.872  11.167
64081W        W32475   2.721   5.879  11.817
64082W        W32476  41.643  14.745  12.095
64083W        W32477  23.732  26.477   5.066
64084W        W32478  12.904  30.960   2.298
64085W        W32479  36.378  28.702  14.807
64086W        W32480  11.723  31.758   3.282
64087W        W32481  19.747  20.020  14.961
64088W        W32482  39.669   8.065  10.612
64089W        W32483   8.809   6.313   2.322
64090W        W32484   4.176  42.109   2.311
64091W        W32485  14.997  35.681  11.096
64092W        W32486   8.787  19.072  11.059
64093W        W32487   6.833  29.961   3.846
64094W        W32488  41.419  26.426   4.761
64095W        W32489  21.303  30.609  12.382
64096W        W32490  40.942  40.546  14.408
64097W        W32491  24.035  11.012  13.409
64098W        W32492  10.888  32.743   4.500
64099W        W32493   6.723  36.924   3.233
64100W        W32494  25.922  24.413   0.923
64101W        W32495  41.530  41.323  13.407
64102W        W32496   2.139  15.091  14.365
64103W        W32497  22.268  13.182  13.920
64104W        W32498  18.454  34.164  12.966
64105W        W32499   2.058  32.911  13.114
64106W        W32500  26.864  44.659   2.830
64107W        W32501  26.247  20.641   1.629
64108W        W32502  42.356  16.198   4.773
64109W        W32503  34.724  23.630  14.248
64110W        W32504  25.539  32.502  11.985
64111W        W32505  21.778  13.634   4.304
64112W        W32506  28.107  40.344  14.839
64113W        W32507   4.999  24.538   3.128
64114W        W32508   8.229  27.533  14.105
64115W        W32509  37.888  28.212   3.321
64116W        W32510  43.947   0.240   0.715
64117W        W32511   8.069  41.355   0.968
64118W        W32512  39.667   6.778  13.775
64119W        W32513  25.165  37.434  14.333
64120W        W32514   8.194  25.995  13.433
64121W        W32515   9.790  39.184   2.757
64122W        W32516   4.908  33.204   2.772
64123W        W32517  18.014  22.733   1.823
64124W        W32518   1.466   8.657   0.108
64125W        W32519  44.985  17.030  11.246
64126W        W32520  30.346   0.117  11.239
64127W        W32521  39.894  19.608   4.364
64128W        W32522  31.489   4.896  11.997
64129W        W32523  15.581   5.288  10.347
64130W        W32524  44.750  16.535   0.300
64131W        W32525   2.253  38.049  12.371
64132W        W32526  25.157   2.349   1.405
64133W        W32527  31.307  10.468  11.466
64134W        W32528  23.593  24.337   0.846
64135W        W32529  34.002   0.178  11.684
64136W        W32530  43.804  16.166   4.850
64137W        W32531   5.118  12.637   4.149
64138W        W32532  38.338  28.215  10.717
64139W        W32533  22.877  23.549  10.763
64140W        W32534  42.008  33.402   0.334
64141W        W32535   9.868  30.461  12.096
64142W        W32536   1.396   8.839   2.114
64143W        W32537  43.312   8.414   3.281
64144W        W32538   6.777   1.802  10.108
64145W        W32539  36.539  33.583  12.695
64146W        W32540  16.760   0.263   3.258
64147W        W32541  21.153  28.985   0.384
64148W        W32542  26.578  41.961  14.041
64149W        W32543   8.376   2.761   1.255
64150W        W32544  23.215  41.038  11.670
64151W        W32545  30.603   6.188  14.060
64152W        W32546   2.215  21.151  12.616
64153W        W32547  31.210   1.456  14.427
64154W        W32548  42.786  35.171  12.646
64155W        W32549  44.378   3.388   3.812
64156W        W32550  36.942   7.754   0.128
64157W        W32551  37.413  35.523   3.797
64158W        W32552  12.405  24.657  14.979
64159W        W32553  23.773  19.701  11.262
64160W        W32554  23.264  14.057  14.271
64161W        W32555  19.516  44.952   4.205
64162W        W32556  25.171  12.900  10.238
64163W        W32557  16.046  33.932  11.962
64164W        W32558  34.861  34.837  13.999
64165W        W32559  18.313  18.919  10.508
64166W        W32560   8.386  40.429   1.326
64167W        W32561   0.726  25.311  12.964
64168W        W32562  12.386  43.383   0.805
64169W        W32563  34.348  23.616   1.716
64170W        W32564  42.006  12.701  11.166
64171W        W32565  11.647  26.524   1.199
64172W        W32566  30.143  17.584  11.777
64173W        W32567  23.440  26.779  12.158
64174W        W32568  14.605  28.732  13.446
64175W        W32569  37.003  16.532   0.277
64176W        W32570   5.172  10.853  11.519
64177W        W32571  22.255  36.029  12.041
64178W        W32572   4.377   1.060   1.871
64179W        W32573   0.057  26.712  13.049
64180W        W32574   9.351  24.461  14.818
64181W        W32575  13.258  28.513  13.575
64182W        W32576  26.190  20.561  13.062
64183W        W32577  17.798   5.804   0.364
64184W        W32578  28.034  12.844   1.185
64185W        W32579  31.537  16.380   2.194
64186W        W32580  17.652  37.613  13.610
64187W        W32581  16.381  17.742   3.585
64188W        W32582  41.500   1.115  13.850
64189W        W32583  20.183  20.699   0.065
64190W        W32584   0.742   6.747   1.192
64191W        W32585   5.396   5.366   1.280
64192W        W32586   5.360  23.936  10.729
64193W        W32587   9.943  29.239  12.921
64194W        W32588   3.475  31.500   0.012
64195W        W32589   5.287  20.533  13.380
64196W        W32590   4.364   0.441  14.033
64197W        W32591   8.121   9.650   4.168
64198W        W32592  11.906  35.284   3.745
64199W        W32593  15.592  41.325  11.787
64200W        W32594  43.503  34.352   3.703
64201W        W32595  23.117  44.372  14.562
64202W        W32596  20.659  26.131   3.048
64203W        W32597  20.199  41.387  11.089
64204W        W32598  23.124  14.377  13.891
64205W        W32599  10.784   2.948   2.275
64206W        W32600  22.865  16.469  13.500
64207W        W32601  22.184  30.107   0.184
64208W        W32602  12.415  36.129  12.004
64209W        W32603  24.125  40.003  14.786
64210W        W32604  20.600  32.067   0.931
64211W        W32605   4.970   8.535  10.865
64212W        W32606  41.864  25.669   2.799
64213W        W32607  16.596  37.449   0.312
64214W        W32608   8.363  40.751  12.170
64215W        W32609   2.683  44.492   2.618
64216W        W32610  21.659  40.403  12.560
64217W        W32611  16.152  43.407   3.962
64218W        W32612  30.110   4.670   3.254
64219W        W32613  18.103  42.016   1.946
64220W        W32614  19.453  25.352   4.493
64221W        W32615  12.575  13.311   0.685
64222W        W32616  43.730  27.991  13.268
64223W        W32617   5.672  22.310   4.215
64224W        W32618  20.616   3.402   1.909
64225W        W32619  28.046  39.865   0.012
64226W        W32620  25.753  14.596  12.935
64227W        W32621  14.281  40.274  11.542
64228W        W32622  17.586   6.858  14.118
64229W        W32623  41.970  17.149  10.616
64230W        W32624  14.867  34.878  14.437
64231W        W32625  41.813  27.703  14.094
64232W        W32626  12.314  20.027   5.007
64233W        W32627  21.494   3.984  12.387
64234W        W32628  26.931  36.991   2.710
64235W        W32629  38.858   8.364  14.108
64236W        W32630  31.798  13.332  11.136
64237W        W32631  22.683  20.467  13.188
64238W        W32632   9.582  44.769   3.675
64239W        W32633  21.303   0.389   1.944
64240W        W32634  36.631  39.907  10.555
64241W        W32635  44.315  19.282   0.808
64242W        W32636   1.282  18.167   0.242
64243W        W32637  43.265   7.900   0.273
64244W        W32638  12.779   7.720   2.860
64245W        W32639   9.362  21.715  12.953
64246W        W32640  39.104  25.319   2.283
64247W        W32641  11.736  25.703  10.643
64248W        W32642  27.490  28.609  14.089
64249W        W32643  41.918   9.669  14.963
64250W        W32644  35.360  14.823  10.698
64251W        W32645  12.165  13.389   3.286
64252W        W32646  35.529   6.403  12.574
64253W        W32647  12.969  43.870   2.848
64254W        W32648  20.570  43.968  13.321
64255W        W32649  40.507   7.237  10.348
64256W        W32650   0.695  14.909  12.728
64257W        W32651  27.235  28.548   1.833
64258W        W32652  27.254  29.446  10.572
64259W        W32653  33.090  20.319   2.824
64260W        W32654  38.937  43.343   4.757
64261W        W32655  22.504  34.434  12.944
64262W        W32656  29.914  38.976  10.846
64263W        W32657  19.273   0.234  11.689
64264W        W32658   1.882  29.970   3.098
64265W        W32659  16.552  31.127  12.771
64266W        W32660  40.010   7.307  11.230
64267W        W32661  33.029  43.495   0.301
64268W        W32662  38.571   9.680   4.106
64269W        W32663   2.469   8.619   0.678
64270W        W32664  22.112  41.822   1.502
64271W        W32665  20.116   5.826   0.901
64272W        W32666   5.811  16.976   3.884
64273W        W32667  19.634  24.247  14.169
64274W        W32668  41.472   0.412  13.375
64275W        W32669  31.046   5.923   1.681
64276W        W32670  33.186  25.263  12.395
64277W        W32671  15.080  25.010   1.357
64278W        W32672  32.695   5.399  13.598
64279W        W32673  20.618   3.593   0.481
64280W        W32674  37.923  27.140  12.098
64281W        W32675  13.239   0.447   2.413
64282W        W32676  17.191  28.094  14.297
64283W        W32677   5.625   3.947   2.227
64284W        W32678  34.269  11.231  11.473
64285W        W32679  13.103  37.491  11.780
64286W        W32680  38.041  36.842  11.167
64287W        W32681  13.759  28.087   3.687
64288W        W32682  11.193  30.468   4.483
64289W        W32683   2.322  37.509   9.995
64290W        W32684  10.257  14.714  14.873
64291W        W32685  27.776  13.091   3.833
64292W        W32686  11.391   2.980   4.085
64293W        W32687   1.843  28.369  14.762
64294W        W32688  10.387   9.910   1.004
64295W        W32689   0.423  26.732   2.696
64296W        W32690  15.052   0.983   3.399
64297W        W32691   9.913   1.386   4.082
64298W        W32692   8.386  31.035   3.990
64299W        W32693  20.102  29.671   0.495
64300W        W32694  44.321   0.470   0.405
64301W        W32695  35.926  25.224  11.623
64302W        W32696   6.852  13.752  11.219
64303W        W32697  23.670  36.009   2.838
64304W        W32698  39.497  36.277  11.652
64305W        W32699  40.865  25.223   4.650
64306W        W32700  10.213  41.911   0.496
64307W        W32701  10.147  12.088  11.114
64308W        W32702  34.629  24.654  12.729
64309W        W32703  12.234  20.270  14.335
64310W        W32704  43.650  31.238   2.770
64311W        W32705   9.672   2.183  10.340
64312W        W32706   9.317  20.122  14.621
64313W        W32707  33.789  32.519  14.493
64314W        W32708  22.223  38.080  14.420
64315W        W32709  25.863  16.292   3.543
64316W        W32710  36.679  32.430  14.690
64317W        W32711  14.706  13.638   3.694
64318W        W32712  35.959  28.378  10.506
64319W        W32713   5.676  19.449   2.299
64320W        W32714  31.076  19.554   0.435
64321W        W32715   8.955  29.411  13.419
64322W        W32716  23.236  12.239   1.672
64323W        W32717  39.473  38.293   1.142
64324W        W32718  36.482  27.473  13.631
64325W        W32719  41.748  27.544  12.537
64326W        W32720  10.090  44.281   1.277
64327W        W32721  16.827  16.568   3.307
64328W        W32722  41.714  22.555  12.071
64329W        W32723  12.685  15.919   1.689
64330W        W32724   9.352   6.147  12.562
64331W        W32725  30.709  16.772  12.928
64332W        W32726  11.568   2.678  14.912
64333W        W32727   0.002  36.045   1.756
64334W        W32728  20.005  32.443  10.742
64335W        W32729  33.899   9.237   0.812
64336W        W32730   2.816   2.855  13.772
64337W        W32731  39.709  37.887   4.767
64338W        W32732  13.283   3.331   3.661
64339W        W32733  16.795  18.840   3.597
64340W        W32734  21.156  28.872   1.294
64341W        W32735  44.693   1.530  12.953
64342W        W32736  34.668  26.003   2.684
64343W        W32737  23.235   8.961  11.953
64344W        W32738   6.233  41.634  12.629
64345W        W32739  14.987  35.069   0.544
64346W        W32740  40.088   0.064   0.171
64347W        W32741  38.578  12.687  13.431
64348W        W32742   2.411  38.078   3.639
64349W        W32743  10.994  37.982   2.767
64350W        W32744  38.908  23.718   3.903
64351W        W32745   4.743  32.488   4.342
64352W        W32746  19.118  12.555   1.889
64353W        W32747  28.940  17.086   1.386
64354W        W32748  20.707   9.361  10.449
64355W        W32749  16.769   6.649   4.276
64356W        W32750  38.744  31.972  13.264
64357W        W32751  41.111  28.741  13.843
64358W        W32752  11.867   8.454   9.980
64359W        W32753  38.920  12.735   3.183
64360W        W32754  16.567  17.688  12.092
64361W        W32755  29.585  33.598   2.050
64362W        W32756  17.744   0.351   3.145
64363W        W32757   1.996  10.597   3.708
64364W        W32758   3.494   0.990   2.760
64365W        W32759  31.115  43.748  13.991
64366W        W32760  18.998  29.820  12.503
64367W        W32761  21.673   9.793  13.932
64368W        W32762  24.154  41.781   4.183
64369W        W32763  35.603  37.686   4.476
64370W        W32764  37.663  18.262   3.671
64371W        W32765   5.721  39.573   3.116
64372W        W32766  22.715  39.387   3.326
64373W        W32767  43.508   8.161   2.877
64374W        W32768  27.815  33.685   3.329
64375W        W32769  10.758  38.972   3.475
64376W        W32770   6.637   7.133   4.111
64377W        W32771  16.010  37.441   1.299
64378W        W32772  18.217  22.704   1.339
64379W        W32773  28.474  31.664   5.095
64380W        W32774  36.068  31.224  14.438
64381W        W32775  10.387   1.719  14.471
64382W        W32776  34.165  41.411  12.012
64383W        W32777  36.535  20.175   2.342
64384W        W32778  28.367  19.141  10.704
64385W        W32779  39.628  42.380  13.354
64386W        W32780  11.569  43.059   0.213
64387W        W32781  41.417  26.426   1.688
64388W        W32782  25.524  19.165   4.641
64389W        W32783  22.204  16.888   4.277
64390W        W32784  41.383  24.132   0.976
64391W        W32785   7.226  41.433  13.905
64392W        W32786  15.752  11.063   4.638
64393W        W32787  26.178   0.597  11.190
64394W        W32788  44.707  35.598   1.126
64395W        W32789  37.886  12.155   1.223
64396W        W32790   4.502  35.562  10.617
64397W        W32791  37.923  11.567  10.787
64398W        W32792  18.804  26.156   3.116
64399W        W32793  27.622  24.283   3.600
64400W        W32794  31.365  16.061  14.735
64401W        W32795   5.281  14.255  12.107
64402W        W32796  37.582   0.894  12.408
64403W        W32797  17.318   9.942   3.688
64404W        W32798   7.210  36.804   4.721
64405W        W32799  19.569  38.059   4.566
64406W        W32800  28.066  31.898  13.336
64407W        W32801  39.401   9.785  10.794
64408W        W32802  44.354  32.706   4.466
64409W        W32803   0.473  15.705  12.040
64410W        W32804  43.811  10.074   0.783
64411W        W32805  28.106  34.867  11.587
64412W        W32806  15.298  40.900   3.347
64413W        W32807  39.591  26.627  11.131
64414W        W32808  20.961  36.778  10.905
64415W        W32809  23.112   7.901   3.926
64416W        W32810  24.539   6.783  11.525
64417W        W32811   3.259  10.104  13.531
64418W        W32812  36.150   5.276  12.582
64419W        W32813  15.352  26.617  13.924
64420W        W32814  43.260  36.456   2.501
64421W        W32815   4.950  27.604   0.230
64422W        W32816  23.226  43.429  14.228
64423W        W32817  18.593  16.128  12.181
64424W        W32818  25.692  38.057   4.936
64425W        W32819  44.319  42.841  12.150
64426W        W32820  15.826  33.591   3.194
64427W        W32821  27.363  28.463   4.130
64428W        W32822  39.985  40.293  11.593
64429W        W32823  37.125   6.670   1.163
64430W        W32824   6.312   4.772  11.717
64431W        W32825  35.340   9.189  11.153
64432W        W32826  34.147  35.628   0.188
64433W        W32827  42.847  14.579  12.605
64434W        W32828  38.022   2.195   3.132
64435W        W32829  15.532  41.790  11.487
64436W        W32830  30.137  25.657   3.761
64437W        W32831  25.834  42.886   3.453
64438W        W32832  17.292  18.265  14.495
64439W        W32833  14.866  17.258  12.503
64440W        W32834   9.423  26.635  13.864
64441W        W32835  24.468   8.764  14.091
64442W        W32836  41.299  40.808  14.713
64443W        W32837  29.908  10.390   1.578
64444W        W32838  22.349  37.042  11.932
64445W        W32839  37.882   7.381  14.191
64446W        W32840  40.238  31.525   2.614
64447W        W32841  42.975  10.631   3.820
64448W        W32842  30.917  10.744  14.333
64449W        W32843  38.950  23.387   0.537
64450W        W32844  36.114  12.892   1.611
64451W        W32845   6.180  14.221  13.399
64452W        W32846   1.397  13.206   4.658
64453W        W32847  40.293   2.937   0.208
64454W        W32848  19.143  36.103  10.615
64455W        W32849  42.299   8.791  11.509
64456W        W32850   9.121  12.790  13.843
64457W        W32851  17.576   4.183  12.449
64458W        W32852  36.049  18.204   2.922
64459W        W32853   0.164  42.552  12.435
64460W        W32854   6.579   3.447   3.294
64461W        W32855   8.126  32.409   2.585
64462W        W32856  10.193   2.724   4.621
64463W        W32857  36.109   2.995  12.624
64464W        W32858   8.228  14.132  12.954
64465W        W32859  28.568   0.271   3.216
64466W        W32860  40.809  22.593  12.196
64467W        W32861  35.348  40.966  12.464
64468W        W32862  11.160   0.211  12.882
64469W        W32863  44.061  43.899   4.645
64470W        W32864  40.697   1.615  13.989
64471W        W32865  24.681  24.692   2.039
64472W        W32866  22.874   1.498  13.552
64473W        W32867  17.100  27.663  11.894
64474W        W32868  25.747  17.181  10.654
64475W        W32869   2.004  38.015   3.310
64476W        W32870  14.129  29.657  11.075
64477W        W32871  43.884  19.555   2.847
64478W        W32872  12.268  26.739   4.669
64479W        W32873  25.301  22.245  14.071
64480W        W32874  24.572  12.859   2.514
64481W        W32875  32.350  18.861  10.848
64482W        W32876   2.809   5.396   3.865
64483W        W32877  26.647   0.109  10.135
64484W        W32878  29.406  34.753  14.395
64485W        W32879  32.894  23.065   2.218
64486W        W32880  38.007   5.170   4.460
64487W        W32881   5.806   3.400   0.830
64488W        W32882  23.659  15.038   2.687
64489W        W32883  23.820  39.576   1.270
64490W        W32884  20.041  44.977  13.960
64491W        W32885  35.816  28.674  13.671
64492W        W32886  31.540   4.954  11.078
64493W        W32887  13.956  32.580  12.402
64494W        W32888  39.049  17.696  12.029
64495W        W32889  29.771  12.647   4.569
64496W        W32890  44.270  41.301   2.436
64497W        W32891   9.932  20.013  14.766
64498W        W32892  28.108  26.301   5.071
64499W        W32893  31.595   6.236   0.910
64500W        W32894  37.461   3.485  13.126
64501W        W32895   0.297  38.347   2.183
64502W        W32896  36.160   5.424   3.870
64503W        W32897  15.761   0.573   0.412
64504W        W32898  13.346   2.343   4.872
64505W        W32899  39.962  37.795   1.734
64506W        W32900  18.564  28.420  13.733
64507W        W32901  37.287  19.239   3.724
64508W        W32902  13.833  19.697  12.419
64509W        W32903  20.673  18.977   2.087
64510W        W32904  18.256  41.090  10.259
64511W        W32905  17.069  40.896  10.008
64512W        W32906  36.530  41.012  12.409
64513W        W32907  27.466  23.647   4.493
64514W        W32908  39.294  14.837   3.848
64515W        W32909  19.487  40.984   2.349
64516W        W32910  19.233  28.912   5.632
64517W        W32911  22.992   6.497  10.139
64518W        W32912   1.882   9.087   2.861
64519W        W32913   2.846  33.675  11.242
64520W        W32914  43.794  15.203   4.561
64521W        W32915   3.905  39.562  12.351
64522W        W32916  34.113  18.144  12.407
64523W        W32917  32.298  31.492   3.405
64524W        W32918  34.013   3.924  14.545
64525W        W32919   8.921   1.924   4.808
64526W        W32920   0.240  13.266   1.390
64527W        W32921  43.210  12.638  12.376
64528W        W32922  41.359  13.445  13.051
64529W        W32923  18.912  34.099   4.210
64530W        W32924   3.013   8.777   2.151
64531W        W32925  43.850  18.815  11.554
64532W        W32926  42.615  39.852  12.515
64533W        W32927   4.356  28.277   4.682
64534W        W32928  15.549  34.106  11.984
64535W        W32929  37.083  43.722  10.385
64536W        W32930  30.857  43.712  11.034
64537W        W32931  40.636  39.856  13.903
64538W        W32932  14.620  30.564   4.126
64539W        W32933  21.988  15.822   4.190
64540W        W32934   6.585   5.349   1.851
64541W        W32935  34.489  11.485   4.035
64542W        W32936   1.569  40.874   0.924
64543W        W32937  24.023  31.719  10.503
64544W        W32938  44.190   6.490   0.456
64545W        W32939  18.888   6.133   4.422
64546W        W32940  13.594  38.881  11.587
64547W        W32941  44.875  17.563   2.206
64548W        W32942  29.373  29.180  11.641
64549W        W32943   6.980  42.341   0.803
64550W        W32944  21.720   9.862  14.455
64551W        W32945  31.623   5.806   0.229
64552W        W32946  11.016  39.312  14.957
64553W        W32947   8.882  20.624  13.860
64554W        W32948  44.326  27.657   1.569
64555W        W32949  10.147   8.360   0.405
64556W        W32950  19.132   3.013  13.358
64557W        W32951   9.611  38.614  13.311
64558W        W32952  43.375  31.062   4.075
64559W        W32953  31.118  24.579   1.391
64560W        W32954  37.537  36.051   0.222
64561W        W32955  12.136  19.572  11.998
64562W        W32956  11.063  27.024  14.937
64563W        W32957   1.753  41.181   3.195
64564W        W32958  33.020  14.395   0.990
64565W        W32959   3.293  30.521   1.173
64566W        W32960   5.272   1.848   0.394
64567W        W32961  15.436  15.842  13.516
64568W        W32962  35.082  35.505   4.010
64569W        W32963  25.973  39.825  10.771
64570W        W32964  33.322  42.012  10.211
64571W        W32965  19.654  39.104  14.851
64572W        W32966  36.590  20.704   0.710
64573W        W32967  33.366  19.741  10.718
64574W        W32968  13.841   5.378  14.218
64575W        W32969  24.554   1.282   4.527
64576W        W32970  15.340  12.495   3.707
64577W        W32971  38.548   4.918  10.594
64578W        W32972   4.150   3.299  14.018
64579W        W32973   7.049  42.010   1.705
64580W        W32974  44.344  11.596  14.906
64581W        W32975   4.392  32.862  12.923
64582W        W32976   9.136  33.502   3.624
64583W        W32977  40.208   0.374   1.791
64584W        W32978  33.010  40.415  11.225
64585W        W32979  14.069  24.794   0.020
64586W        W32980  21.245  41.570   1.824
64587W        W32981  17.963  31.782  10.717
64588W        W32982   8.875  38.592  10.778
64589W        W32983   4.413  44.509   2.370
64590W        W32984  27.150  11.733   4.659
64591W        W32985  35.648  37.310   4.840
64592W        W32986  42.494  42.511  12.985
64593W        W32987  44.521   9.565   1.877
64594W        W32988  36.679   4.838   4.546
64595W        W32989  13.251  13.610   0.494
64596W        W32990  27.132   2.774   3.037
64597W        W32991  37.104  14.131  13.984
64598W        W32992  32.558   5.126  12.183
64599W        W32993   9.205   9.930  12.470
64600W        W32994  16.649  38.576   3.496
64601W        W32995   6.144   2.382   1.336
64602W        W32996  31.151  19.188   3.828
64603W        W32997   4.518  39.099  14.277
64604W        W32998  38.303  13.133  13.404
64605W        W32999  13.344  17.425  14.753
64606W        W33000   3.450  16.254  10.485
64607W        W33001  41.780  12.720   4.647
64608W        W33002  42.377  22.682   3.617
64609W        W33003  29.234  30.434   2.247
64610W        W33004   4.960  11.045   0.153
64611W        W33005  23.718  43.422   1.385
64612W        W33006  21.121  15.781   0.360
64613W        W33007  21.153   1.763   3.002
64614W        W33008  41.646  15.225  11.391
64615W        W33009  12.632  11.012   3.753
64616W        W33010  40.282  33.249   1.376
64617W        W33011   8.715  26.164   2.261
64618W        W33012   4.446  18.374   1.159
64619W        W33013  43.262  23.543   2.169
64620W        W33014  27.559   5.499   2.639
64621W        W33015  23.274   9.568   4.607
64622W        W33016   5.999  24.619   3.377
64623W        W33017  20.661  23.171   2.377
64624W        W33018   1.746  24.354   4.214
64625W        W33019  26.600  43.062   4.107
64626W        W33020  25.618   1.714   2.900
64627W        W33021  32.153  38.007   1.280
64628W        W33022  36.580   9.157   0.844
64629W        W33023  23.078   1.127   4.452
64630W        W33024  42.537  17.524  13.494
64631W        W33025  37.540   8.287   2.820
64632W        W33026  19.790  41.729   3.314
64633W        W33027   1.478  22.636  14.456
64634W        W33028   4.362   1.975   2.776
64635W        W33029  28.895  39.490  12.046
64636W        W33030  17.741  29.394   3.115
64637W        W33031  33.877  28.213  13.372
64638W        W33032  13.662  30.863   3.030
64639W        W33033  35.015  39.122   4.522
64640W        W33034  41.079   5.970  10.689
64641W        W33035  25.315  14.278  11.613
64642W        W33036  25.450  15.615   0.395
64643W        W33037  29.660  26.545   2.788
64644W        W33038  31.171   0.886   0.580
64645W        W33039   3.843  13.626  11.883
64646W        W33040  31.588  34.300   3.293
64647W        W33041  13.859  35.168  11.022
64648W        W33042  16.690  20.835  14.645
64649W        W33043   2.971   2.351   1.290
64650W        W33044   0.493  33.972  12.586
64651W        W33045  26.391  43.325   2.755
64652W        W33046  18.695  43.049   2.271
64653W        W33047  15.270  16.110   4.012
64654W        W33048  14.829   8.386  11.858
64655W        W33049  33.124   3.260   4.366
64656W        W33050  33.909   5.605   3.600
64657W        W33051   8.322   5.657   3.116
64658W        W33052  25.785  10.432  11.100
64659W        W33053   4.810  13.032  14.542
64660W        W33054  27.006  32.367   0.260
64661W        W33055   7.187  13.219  10.633
64662W        W33056  37.544  29.853   0.491
64663W        W33057  11.088  10.440   2.717
64664W        W33058   9.801  24.198   2.717
64665W        W33059  38.847   8.890   3.830
64666W        W33060  19.061  12.751  14.443
64667W        W33061  26.020  11.470  14.507
64668W        W33062  18.135  40.638   4.504
64669W        W33063  30.137   2.527   2.250
64670W        W33064   0.325  33.352   2.197
64671W        W33065  29.689  27.513   1.887
64672W        W33066  31.534  32.508   0.831
64673W        W33067  24.297  43.831  10.707
64674W        W33068  38.994   6.708  14.720
64675W        W33069  28.156  20.608  10.563
64676W        W33070  22.198  22.612   0.743
64677W        W33071  21.844  25.020  12.000
64678W        W33072   8.824  25.571   1.690
64679W        W33073  44.753  39.845   1.562
64680W        W33074  20.371  34.690  11.057
64681W        W33075   9.550  23.056   4.210
64682W        W33076   5.366  22.794   0.312
64683W        W33077  33.695  24.395  12.468
64684W        W33078  36.629   2.270   3.678
64685W        W33079   9.106  22.076  14.644
64686W        W33080  24.121  14.741   3.960
64687W        W33081  34.575  41.978   0.961
64688W        W33082  26.246  26.071   2.258
64689W        W33083  12.706  30.092   0.777
64690W        W33084  41.581  28.433  10.733
64691W        W33085  20.519   8.813  13.487
64692W        W33086  34.079   3.177  11.940
64693W        W33087  29.274  20.316   2.215
64694W        W33088  40.897   1.338  11.657
64695W        W33089  37.271  14.012   3.878
64696W        W33090  11.911  16.081  14.063
64697W        W33091  22.368  11.856   4.469
64698W        W33092  20.165  11.232  10.520
64699W        W33093   8.812  35.270  13.957
64700W        W33094  23.717  33.959  13.302
64701W        W33095  39.051  27.007   1.842
64702W        W33096  37.761  17.219   2.249
64703W        W33097  27.468  29.144   1.193
64704W        W33098  18.023   1.395  12.099
64705W        W33099  14.225  26.081  11.531
64706W        W33100  40.590   8.379  13.354
64707W        W33101  43.977  41.769   3.754
64708W        W33102   7.901  10.662  13.917
64709W        W33103  10.936  42.285  13.497
64710W        W33104  17.027   4.490   0.970
64711W        W33105  19.131  10.738   4.494
64712W        W33106  34.858  24.729   3.354
64713W        W33107  19.543   4.269  14.376
64714W        W33108  29.475  44.521   0.314
64715W        W33109  37.270   1.174   5.190
64716W        W33110  19.652  13.904  12.430
64717W        W33111   3.701  22.063   0.797
64718W        W33112  10.025  11.607   1.285
64719W        W33113  38.277  26.118  11.137
64720W        W33114  13.679  35.890  13.902
64721W        W33115  38.102  34.101   4.197
64722W        W33116  23.607   9.484   3.084
64723W        W33117   3.413  27.807  12.088
64724W        W33118   8.155  34.710   2.948
64725W        W33119  28.505  32.709  11.269
64726W        W33120   8.428  15.693   1.930
64727W        W33121  41.832  39.765  10.919
64728W        W33122   7.304  39.227  12.100
64729W        W33123  16.305   9.695  12.617
64730W        W33124  17.004  16.166   2.689
64731W        W33125  36.286  42.849   4.609
64732W        W33126  32.144  10.956   1.646
64733W        W33127   0.429  42.212   0.037
64734W        W33128  13.830  30.345   0.501
64735W        W33129   7.106  30.744   4.128
64736W        W33130  29.712   2.840  10.665
64737W        W33131  25.689  26.049   0.844
64738W        W33132  11.670   8.292  10.669
64739W        W33133   4.920   8.669   2.401
64740W        W33134  24.524  27.412   1.346
64741W        W33135  12.674  26.349   3.913
64742W        W33136  12.981   8.336   4.645
64743W        W33137  42.304  15.207   4.893
64744W        W33138  31.384  37.302   3.719
64745W        W33139  17.162  10.413   3.619
64746W        W33140  10.198  35.124  12.111
64747W        W33141  34.611  28.228   2.191
64748W        W33142   5.052  41.906   2.592
64749W        W33143  17.746  36.582  10.983
64750W        W33144  27.128  35.122   4.344
64751W        W33145  31.143  37.157   5.024
64752W        W33146  12.629  21.004  13.812
64753W        W33147  13.264   1.961   9.683
64754W        W33148  12.639  17.160  11.895
64755W        W33149   1.946   2.042  11.459
64756W        W33150  22.629  40.376   3.163
64757W        W33151   0.286  44.732  13.781
64758W        W33152  17.659  43.749   3.682
64759W        W33153  31.015  15.850  12.589
64760W        W33154  12.014  30.993   0.128
64761W        W33155  14.229  40.890  13.873
64762W        W33156  10.159  36.575   4.602
64763W        W33157   1.029  11.400  13.348
64764W        W33158  18.335  16.187   2.332
64765W        W33159  39.568   8.902  11.194
64766W        W33160  38.442   5.003   4.227
64767W        W33161  21.691  29.546  13.363
64768W        W33162  31.717  34.640  14.357
64769W        W33163   8.945  35.280  12.565
64770W        W33164  26.955  26.528   0.979
64771W        W33165  39.090  43.024  12.070
64772W        W33166  37.831   9.215  12.907
64773W        W33167   7.228  33.138  12.893
64774W        W33168  17.028   4.228  11.550
64775W        W33169  14.973  24.727  10.321
64776W        W33170  19.086  10.752   2.610
64777W        W33171  31.607  28.961  12.467
64778W        W33172  38.311   7.352   1.960
64779W        W33173   0.084  21.461  14.256
64780W        W33174  35.641  26.279   1.033
64781W        W33175  10.569  13.397   5.193
64782W        W33176  24.073  13.366  12.162
64783W        W33177   7.749  43.820   3.326
64784W        W33178  38.407  25.246   2.293
64785W        W33179  24.461   2.296  12.966
64786W        W33180   7.221  11.126  13.019
64787W        W33181  44.657  44.450   3.563
64788W        W33182   2.350  32.194   3.879
64789W        W33183  41.574  25.543   1.391
64790W        W33184   2.953   0.303  14.231
64791W        W33185  25.184  29.782   1.484
64792W        W33186  21.009  11.240   1.431
64793W        W33187   4.753  32.377  14.456
64794W        W33188  32.129  26.152   1.259
64795W        W33189  38.986  44.451   2.217
64796W        W33190  31.535   3.495  10.923
64797W        W33191   8.315  42.265   3.931
64798W        W33192  18.653   0.721   0.545
64799W        W33193  30.269   1.720   2.705
64800W        W33194  30.437  31.953   0.527
64801W        W33195  36.487  37.131  13.007
64802W        W33196  14.655  32.687   3.287
64803W        W33197   8.581  40.713  13.067
64804W        W33198  33.680   0.431   3.900
64805W        W33199  29.035   1.969  12.550
64806W        W33200   9.221  31.194   0.307
64807W        W33201  13.414  11.663  11.541
64808W        W33202  42.495  44.054   2.704
64809W        W33203  29.326  16.170   1.819
64810W        W33204  10.879   9.095  13.459
64811W        W33205  19.828  22.568  13.659
64812W        W33206  25.828   3.190  11.947
64813W        W33207  30.321  23.380   0.323
64814W        W33208   2.384  43.513  11.240
64815W        W33209  33.533  34.899   3.745
64816W        W33210  18.820  20.107  12.451
64817W        W33211  16.307  39.382   1.387
64818W        W33212   2.427  14.340   2.866
64819W        W33213  33.239  37.156  11.402
64820W        W33214   0.567  40.981   4.236
64821W        W33215  28.200  42.410  11.093
64822W        W33216  32.647  39.138  14.962
64823W        W33217  43.530  21.774  14.258
64824W        W33218  22.647  20.964  12.785
64825W        W33219  23.479  15.350   1.110
64826W        W33220  17.980  40.843   2.376
64827W        W33221  10.760  10.873  13.087
64828W        W33222  20.108   0.723   2.427
64829W        W33223  26.524  19.247   1.261
64830W        W33224  26.563  38.994  14.264
64831W        W33225  28.002  19.000  12.873
64832W        W33226  27.920  18.551   4.246
64833W        W33227   0.868  30.147   1.938
64834W        W33228  11.876  13.917  12.164
64835W        W33229   4.240   1.575  11.576
64836W        W33230  39.999  11.271  14.752
64837W        W33231  40.890  18.418  13.125
64838W        W33232  20.055  19.111  10.718
64839W        W33233  25.689  38.404   1.475
64840W        W33234  25.522  43.706  14.953
64841W        W33235   3.399   8.338   3.184
64842W        W33236  33.882  10.425   2.051
64843W        W33237  35.489  17.555  14.257
64844W        W33238   5.711  34.124   3.390
64845W        W33239   0.443  15.610   4.630
64846W        W33240  10.326  10.050  11.099
64847W        W33241  28.527  27.989  14.485
64848W        W33242   2.371  15.284  11.935
64849W        W33243  14.857  38.581   1.851
64850W        W33244   2.997  37.518  11.540
64851W        W33245  18.987  41.788   2.473
64852W        W33246  15.865  26.723  13.980
64853W        W33247   3.868  10.624   4.691
64854W        W33248  21.592  32.324   1.798
64855W        W33249   2.968  15.349   3.166
64856W        W33250  37.516   1.899   2.280
64857W        W33251  23.847   9.374   2.370
64858W        W33252  38.345  44.872   4.562
64859W        W33253  31.117   6.984   1.832
64860W        W33254  14.662  10.419   0.793
64861W        W33255  39.704   0.250   1.780
64862W        W33256  19.798   4.492  14.762
64863W        W33257  27.661  32.948   0.794
64864W        W33258   7.516  20.893  11.108
64865W        W33259  32.591   9.292  13.929
64866W        W33260  23.081   0.861  11.120
64867W        W33261  23.553  15.759   0.761
64868W        W33262  23.714  30.627  12.331
64869W        W33263  30.042  43.377   1.448
64870W        W33264  30.949   0.884   0.063
64871W        W33265  36.509  32.994   4.665
64872W        W33266  29.407  20.455   3.615
64873W        W33267  42.270  14.525   3.689
64874W        W33268  29.638  21.724   1.742
64875W        W33269   2.815  25.958  10.660
64876W        W33270  24.563  43.452  11.621
64877W        W33271   3.185  39.910   2.615
64878W        W33272  37.535  12.143  13.038
64879W        W33273   9.931   0.788  13.077
64880W        W33274  12.879  34.932  14.633
64881W        W33275  32.925  11.792   1.196
64882W        W33276  31.071   0.427  10.677
64883W        W33277  17.846  24.454   1.409
64884W        W33278  34.766  40.406   2.691
64885W        W33279  18.863  21.261  14.565
64886W        W33280  36.418   6.746  11.215
64887W        W33281  32.527  25.749  12.053
64888W        W33282  28.575  30.145  12.030
64889W        W33283  37.847  41.524   3.692
64890W        W33284   0.927  36.891   1.228
64891W        W33285  38.005  26.425   1.176
64892W        W33286  17.991  36.509   3.793
64893W        W33287  10.642  42.152  11.757
64894W        W33288  14.147  28.708  12.072
64895W        W33289  22.824  23.245  13.916
64896W        W33290   0.235  12.612   3.358
64897W        W33291  14.786   7.386  14.796
64898W        W33292  23.987  41.409  12.998
64899W        W33293  14.291  17.256  13.494
64900W        W33294  34.211  36.276  11.036
64901W        W33295  23.401   6.899   2.700
64902W        W33296  19.941  44.325   5.019
64903W        W33297  34.375   5.471   3.340
64904W        W33298  25.557  30.487   3.620
64905W        W33299   7.814  28.680  14.894
64906W        W33300  26.306  28.121  11.090
64907W        W33301  44.706  28.633  10.375
64908W        W33302  23.741  19.589   2.472
64909W        W33303  21.046   6.712  12.123
64910W        W33304  28.080  37.522   2.129
64911W        W33305   1.426  15.363   3.579
64912W        W33306  14.205  32.843   2.158
64913W        W33307  38.412   7.394  14.867
64914W        W33308  25.310  44.657  14.793
64915W        W33309  29.481  40.310   4.605
64916W        W33310  15.579  15.084   4.799
64917W        W33311  36.601   7.334   0.409
64918W        W33312   8.780  42.509  12.076
64919W        W33313  17.198  39.404   2.356
64920W        W33314  43.067   3.336  13.986
64921W        W33315  41.705  35.500   2.779
64922W        W33316   1.407  25.718   1.398
64923W        W33317  11.256  30.408  10.568
64924W        W33318  13.830  17.172   0.668
64925W        W33319  10.394  19.770   3.776
64926W        W33320  18.068  38.592   2.693
64927W        W33321  34.101  13.851   2.831
64928W        W33322   2.804  38.595  12.381
64929W        W33323   0.299   1.962  12.024
64930W        W33324  14.376  12.802   2.268
64931W        W33325  25.222  32.219  13.007
64932W        W33326  19.258  39.740   2.883
64933W        W33327  13.244  41.518   3.856
64934W        W33328  31.007   9.872   3.811
64935W        W33329  20.527  37.244   4.031
64936W        W33330  36.079  34.046  14.667
64937W        W33331  36.341  25.538  10.564
64938W        W33332  14.364  27.593  10.620
64939W        W33333  23.543   1.976   3.986
64940W        W33334  28.556   2.018  11.447
64941W        W33335   8.800  14.893   4.213
64942W        W33336  32.491   0.073  14.450
64943W        W33337  27.215  34.816   0.503
64944W        W33338  43.218   9.441  11.874
64945W        W33339   1.745   6.644  12.183
64946W        W33340   9.142  21.097  12.056
64947W        W33341  29.270  31.691  10.766
64948W        W33342  17.325  37.529   3.692
64949W        W33343  17.061  33.601  11.954
64950W        W33344  12.594  42.938  14.500
64951W        W33345  18.274   5.726  11.750
64952W        W33346  40.883  38.523  13.910
64953W        W33347   3.809  40.269  13.829
64954W        W33348  26.473   8.986   1.758
64955W        W33349   3.208  33.833  14.730
64956W        W33350   1.970  14.160   1.309
64957W        W33351  16.598  11.851   3.326
64958W        W33352  41.215   7.759  10.930
64959W        W33353  32.969  24.451   1.088
64960W        W33354  38.597  25.739   2.301
64961W        W33355  17.200   2.049   3.167
64962W        W33356  12.299   3.449  10.697
64963W        W33357  33.270  30.163  14.791
64964W        W33358   5.728  28.388  13.505
64965W        W33359  32.242   2.486  14.337
64966W        W33360  34.069  19.056   4.784
64967W        W33361  15.187  39.094   4.674
64968W        W33362  25.503  34.598  13.361
64969W        W33363  13.050  14.447  12.007
64970W        W33364  41.945  21.754   0.427
64971W        W33365  32.138  39.378   4.896
64972W        W33366  41.798  37.406   0.750
64973W        W33367  22.294  29.706   3.407
64974W        W33368   5.563  35.412   2.856
64975W        W33369  21.175  34.815   2.358
64976W        W33370  22.253   4.585   0.368
64977W        W33371  28.492  36.901  13.850
64978W        W33372   7.234  20.568   0.395
64979W        W33373  15.703  19.014  13.952
64980W        W33374   3.925   0.310  11.654
64981W        W33375  26.004  35.978   1.217
64982W        W33376  43.904  37.371  13.778
64983W        W33377  12.612  15.879  13.324
64984W        W33378   6.747  35.458  12.372
64985W        W33379  41.514  32.926   0.006
64986W        W33380   6.125  16.639  12.508
64987W        W33381  13.752  38.298  11.814
64988W        W33382  16.802  21.140   2.358
64989W        W33383  11.269  31.529   2.798
64990W        W33384   9.707   6.502   0.312
64991W        W33385  39.651  35.520  12.124
64992W        W33386  10.011  35.037   2.787
64993W        W33387  13.099  12.074  11.568
64994W        W33388   6.982  26.183   1.366
64995W        W33389  26.022  35.140  12.814
64996W        W33390  31.115   3.790  11.495
64997W        W33391  20.387  28.363  14.873
64998W        W33392  11.249  30.836   3.385
64999W        W33393  19.088   1.713  13.030
65000W        W33394  34.348  40.573   2.349
65001W        W33395   6.174  12.867   1.821
65002W        W33396  27.999  42.715   0.041
65003W        W33397  15.883  13.882  12.109
65004W        W33398   2.914  19.025  13.520
65005W        W33399  11.239   0.274   4.215
65006W        W33400  17.868  26.355  12.160
65007W        W33401  12.378  11.853  12.497
65008W        W33402  13.193  16.636   3.587
65009W        W33403  36.003  18.662  10.533
65010W        W33404  14.364  19.562   1.782
65011W        W33405  26.204   1.658  13.008
65012W        W33406  19.635  39.413   3.055
65013W        W33407   7.683  35.330   4.075
65014W        W33408   9.905  17.518  11.386
65015W        W33409  25.538  22.587   1.284
65016W        W33410  15.984  40.965  13.515
65017W        W33411  44.838   0.308   1.308
65018W        W33412   3.251  12.398   3.744
65019W        W33413  14.332  37.354  10.696
65020W        W33414   0.029  25.474  10.408
65021W        W33415   9.232  37.413  14.452
65022W        W33416  41.616  27.625   3.386
65023W        W33417  34.975  18.762   2.269
65024W        W33418  29.811  33.851   0.925
65025W        W33419  13.475  19.786   3.539
65026W        W33420  14.824   9.717  10.143
65027W        W33421  17.283  13.317   4.270
65028W        W33422  11.292   5.945   0.790
65029W        W33423  33.375  25.947  11.491
65030W        W33424  14.789  14.328  13.839
65031W        W33425   1.736  42.372  13.463
65032W        W33426  14.519   1.714   1.822
65033W        W33427  19.299   7.971  12.856
65034W        W33428  12.391  41.204  11.139
65035W        W33429  33.404  12.635  10.710
65036W        W33430  37.348   4.371   2.599
65037W        W33431  14.815  14.064  13.407
65038W        W33432  23.529  35.567  12.019
65039W        W33433  10.374  26.256   1.823
65040W        W33434  26.507  13.245  12.006
65041W        W33435   2.965  37.909   3.159
65042W        W33436   6.433   6.962  12.063
65043W        W33437  16.749  37.953  12.374
65044W        W33438  39.744  31.678   4.510
65045W        W33439  11.664   4.864   2.925
65046W        W33440  24.998   7.858  12.033
65047W        W33441  40.828  13.380   1.280
65048W        W33442  22.583  18.588  11.828
65049W        W33443  35.921  21.135   2.956
65050W        W33444  29.369  30.484  11.133
65051W        W33445  14.513   6.773  11.795
65052W        W33446  29.566   7.385   1.049
65053W        W33447  21.583  26.333   4.393
65054W        W33448  32.182   8.754  11.367
65055W        W33449  36.005  27.205  13.616
65056W        W33450  11.234  32.380   1.275
65057W        W33451  15.723  41.704  10.489
65058W        W33452  23.941   3.747  12.389
65059W        W33453  43.549  26.620  12.929
65060W        W33454  13.011  15.208  14.923
65061W        W33455  38.169  13.924   4.208
65062W        W33456  19.908  10.393   9.887
65063W        W33457  17.769   3.210   0.711
65064W        W33458  24.738  16.103   2.768
65065W        W33459   2.916  32.849   0.729
65066W        W33460  35.544  32.229  12.002
65067W        W33461  19.815  20.286  12.163
65068W        W33462  24.393   1.887   0.442
65069W        W33463   7.691  18.333   3.724
65070W        W33464  36.568  40.187   1.805
65071W        W33465  34.444  34.038   2.701
65072W        W33466  16.137  25.947  14.661
65073W        W33467  13.619  24.640  14.807
65074W        W33468  35.373   1.513  13.346
65075W        W33469  26.184  43.916  14.207
65076W        W33470  36.008  10.615   1.410
65077W        W33471  25.185   4.483  11.402
65078W        W33472  12.507  44.069   2.943
65079W        W33473   9.013   5.807   2.929
65080W        W33474  16.273  39.519  11.710
65081W        W33475   9.712  15.119  13.923
65082W        W33476   9.888  25.304  12.437
65083W        W33477  31.110   5.206   4.249
65084W        W33478  18.118  26.633  13.803
65085W        W33479  27.275   5.129   4.156
65086W        W33480  13.605  14.412  11.151
65087W        W33481   7.897  31.401  12.461
65088W        W33482  23.943  43.781  13.685
65089W        W33483  41.255  18.232   2.302
65090W        W33484  37.584  21.602   4.532
65091W        W33485  32.670   5.609  12.332
65092W        W33486  14.360  41.727  13.974
65093W        W33487  40.107   2.401   0.707
65094W        W33488  21.717  28.689   4.569
65095W        W33489  21.070   8.109  12.513
65096W        W33490   2.322  18.424  10.462
65097W        W33491  17.463  20.999   1.805
65098W        W33492  26.120  33.318   2.176
65099W        W33493  11.439   6.537   2.115
65100W        W33494  44.351  37.530  14.269
65101W        W33495  42.390  23.396  10.435
65102W        W33496   3.755  21.559  12.594
65103W        W33497  40.538  23.194  12.274
65104W        W33498  30.205  28.626   2.457
65105W        W33499  17.193  24.491  11.897
65106W        W33500   7.446   7.332  14.177
65107W        W33501  15.392   3.216  13.984
65108W        W33502  17.095  30.992   4.039
65109W        W33503  35.625  12.546  13.846
65110W        W33504  24.162  40.216  14.320
65111W        W33505  17.218  37.520   2.761
65112W        W33506  18.548  35.725  12.525
65113W        W33507  19.659  39.079  13.077
65114W        W33508   1.821  39.497   3.568
65115W        W33509   9.188  42.042  10.758
65116W        W33510  27.084   1.882   0.845
65117W        W33511  32.451  13.144   2.909
65118W        W33512  26.413  29.226   3.213
65119W        W33513  22.652  16.768   2.766
65120W        W33514  11.419   8.732   0.927
65121W        W33515  30.402  40.924  14.862
65122W        W33516  17.307  11.800  13.009
65123W        W33517  10.024   8.956   1.108
65124W        W33518  39.384  19.568   0.545
65125W        W33519  20.669   0.217   3.662
65126W        W33520  38.213  18.935  12.292
65127W        W33521  33.491  36.945  13.394
65128W        W33522  43.510   8.362   0.290
65129W        W33523  28.915  42.754  10.688
65130W        W33524  42.849  26.307  10.307
65131W        W33525  12.228   7.400   1.614
65132W        W33526  24.087  28.151   2.249
65133W        W33527  29.093   0.015  12.101
65134W        W33528  26.161  40.764  14.284
65135W        W33529  35.096  27.396  12.475
65136W        W33530  21.551  40.077   1.412
65137W        W33531  41.413  35.932  14.568
65138W        W33532  23.229  16.066   1.775
65139W        W33533   5.920  26.212  12.092
65140W        W33534  33.565  13.567  11.246
65141W        W33535  36.066  44.311   4.618
65142W        W33536   5.847  37.346   0.271
65143W        W33537   3.722  33.735  11.193
65144W        W33538  42.825  22.670   0.026
65145W        W33539  20.734  25.642  12.590
65146W        W33540  29.836   5.603  11.970
65147W        W33541   1.867  33.510  10.754
65148W        W33542  29.215  28.108   4.128
65149W        W33543  17.828  40.626   4.114
65150W        W33544  21.273  16.245   3.755
65151W        W33545  21.439  10.301   1.219
65152W        W33546   6.848   8.848   3.699
65153W        W33547  21.066  40.567   2.813
65154W        W33548  41.641  31.275   2.734
65155W        W33549  38.916  17.743   1.390
65156W        W33550  35.451   8.573  11.945
65157W        W33551  11.924  29.631   3.642
65158W        W33552  10.556  10.846   4.201
65159W        W33553  18.153  38.906  13.062
65160W        W33554  10.630  14.718   4.737
65161W        W33555  42.833  35.411  14.628
65162W        W33556  39.394  39.429  13.536
65163W        W33557  44.443  28.742   4.411
65164W        W33558  35.523  20.190   4.288
65165W        W33559  26.041  16.171  12.755
65166W        W33560  23.534  42.390   0.900
65167W        W33561  29.181  14.597   0.410
65168W        W33562   4.266  29.038   3.129
65169W        W33563  15.680  10.789  12.855
65170W        W33564  16.185  24.702  13.440
65171W        W33565  16.863  36.174   2.993
65172W        W33566  14.550  32.494   1.353
65173W        W33567  40.515  20.656   2.179
65174W        W33568  33.599  38.952   4.001
65175W        W33569  10.726  37.844   3.272
65176W        W33570  15.891  43.928   3.114
65177W        W33571  18.606  10.885   4.163
65178W        W33572  44.326  21.773   2.894
65179W        W33573  31.598  24.267   2.290
65180W        W33574  29.946  22.024  12.604
65181W        W33575  41.944  35.705   3.209
65182W        W33576  38.843  11.148  11.147
65183W        W33577  31.327   8.730   3.168
65184W        W33578  25.124  39.929   4.881
65185W        W33579  23.105   5.160   0.300
65186W        W33580  41.791  12.250  13.879
65187W        W33581  20.069   4.760   4.050
65188W        W33582  22.787  33.966  12.129
65189W        W33583  31.291  21.757  14.864
65190W        W33584  34.558  26.023  14.913
65191W        W33585  16.806   5.574  14.537
65192W        W33586  29.460   8.168  11.639
65193W        W33587  19.682  20.727  11.405
65194W        W33588  40.749  21.125   1.595
65195W        W33589  25.480  41.542   2.427
65196W        W33590  13.037  39.204   3.337
65197W        W33591  12.381   5.920   0.929
65198W        W33592   6.178  32.998   4.706
65199W        W33593   5.678  30.320  13.408
65200W        W33594  42.304   9.242   0.183
65201W        W33595   4.264  11.650   0.188
65202W        W33596  24.747  13.644  13.851
65203W        W33597  24.628  41.539   3.751
65204W        W33598  23.829   4.941   1.419
65205W        W33599  28.716  34.150  10.799
65206W        W33600  10.798  13.118   3.026
65207W        W33601  38.158  29.020  11.740
65208W        W33602  25.468  21.331   9.974
65209W        W33603  32.339  17.731  14.613
65210W        W33604  13.886  28.070   2.149
65211W        W33605  42.903  19.786  11.506
65212W        W33606   9.361  34.273   4.911
65213W        W33607  38.948  38.005  14.411
65214W        W33608  39.841  19.118   1.784
65215W        W33609  26.613  42.770   9.468
65216W        W33610  40.856  11.076   4.539
65217W        W33611  34.885  44.917  14.044
65218W        W33612  14.094  38.900   4.243
65219W        W33613   5.405  29.388   0.433
65220W        W33614  39.999  38.839  10.632
65221W        W33615  40.395  17.063   4.797
65222W        W33616  16.891  17.914   3.611
65223W        W33617  13.766  36.334   1.783
65224W        W33618  43.317  15.715  10.992
65225W        W33619   9.899  20.272   4.524
65226W        W33620   3.447  42.723  12.717
65227W        W33621   3.494  17.161  13.815
65228W        W33622  34.896   8.870  13.605
65229W        W33623  25.654   3.799   4.706
65230W        W33624   5.336  32.939   4.406
65231W        W33625  21.684  21.347   0.447
65232W        W33626   5.106  14.291  13.388
65233W        W33627   8.567   1.880   1.313
65234W        W33628   2.271   5.745  14.462
65235W        W33629  41.077  38.568   0.290
65236W        W33630   5.944  12.249   3.301
65237W        W33631  25.757  39.256  12.468
65238W        W33632  21.062  31.581   4.573
65239W        W33633  25.052  42.830  12.613
65240W        W33634  21.270  38.301  11.854
65241W        W33635  24.155  38.813   2.398
65242W        W33636  25.678  17.095   2.179
65243W        W33637   0.308  11.817   3.803
65244W        W33638  10.315  32.836  14.462
65245W        W33639  18.771  37.073   2.336
65246W        W33640  20.487  41.748  11.887
65247W        W33641  11.408  33.949  10.745
65248W        W33642  22.564   8.549   4.852
65249W        W33643  38.968  34.755   0.464
65250W        W33644   9.335   3.656  14.901
65251W        W33645  12.035  21.361  12.502
65252W        W33646  27.038   8.387   4.784
65253W        W33647  37.832  16.818   1.431
65254W        W33648  22.131  21.513   4.636
65255W        W33649  30.029   3.863   3.757
65256W        W33650  36.391  30.653   2.106
65257W        W33651   6.166  18.801  13.293
65258W        W33652  21.531  23.290   1.257
65259W        W33653  15.794  30.172  13.756
65260W        W33654  44.041  36.405   5.043
65261W        W33655   9.271  22.960   0.092
65262W        W33656   2.748   2.864  13.268
65263W        W33657  17.118  43.057  14.869
65264W        W33658  34.586   2.258  14.740
65265W        W33659  35.083   0.426  14.825
65266W        W33660  39.023  32.121   4.156
65267W        W33661   3.396  20.662  14.012
65268W        W33662  32.955  36.552   2.274
65269W        W33663  17.555   4.496  13.354
65270W        W33664  10.570  21.198   3.725
65271W        W33665  12.955   3.397  12.930
65272W        W33666   3.248  43.297  14.704
65273W        W33667  27.677  29.166   4.177
65274W        W33668  35.084  29.206   1.138
65275W        W33669  16.144  13.741   0.803
65276W        W33670  43.185  40.814   3.176
65277W        W33671   5.320  13.650   3.837
65278W        W33672  24.167  42.407  14.730
65279W        W33673  25.333  37.682   3.637
65280W        W33674   1.110  23.144   4.853
65281W        W33675  15.065  20.476  13.844
65282W        W33676  41.875  27.460  11.987
65283W        W33677  23.878  28.834   4.063
65284W        W33678  18.696  30.727  10.153
65285W        W33679  27.370  14.114  11.181
65286W        W33680  17.152  20.576  12.038
65287W        W33681  38.404  35.703  11.920
65288W        W33682  34.886  33.839  12.415
65289W        W33683   9.301  11.485   0.746
65290W        W33684   3.256  41.351   4.688
65291W        W33685  11.061  37.968   0.001
65292W        W33686  27.843  20.343   1.307
65293W        W33687  40.952  40.276  10.731
65294W        W33688   9.393  19.588  11.999
65295W        W33689  40.974  42.142  10.624
65296W        W33690  13.774   2.301  14.152
65297W        W33691   7.378  39.787   1.444
65298W        W33692  41.735  13.743  12.372
65299W        W33693  11.464   1.858   3.127
65300W        W33694  42.511   3.712  14.736
65301W        W33695   2.938  14.124   3.546
65302W        W33696   7.318  19.836  11.936
65303W        W33697  34.636  32.886   0.471
65304W        W33698  16.985  41.025   4.193
65305W        W33699  17.327  23.417   4.298
65306W        W33700  13.012   9.264   3.685
65307W        W33701   3.401  26.439   1.717
65308W        W33702   5.159  39.201   3.574
65309W        W33703  23.622  21.332  10.730
65310W        W33704   8.395   4.350  10.930
65311W        W33705  17.085   7.907  13.434
65312W        W33706  37.921  30.744   9.949
65313W        W33707  13.498  27.212   3.109
65314W        W33708  39.473   5.760   2.383
65315W        W33709  10.269  18.456   2.771
65316W        W33710  26.560  35.075   2.551
65317W        W33711  40.572  19.177   3.358
65318W        W33712  41.682  29.475  10.798
65319W        W33713  21.509  13.260  14.012
65320W        W33714  23.481   6.680   0.905
65321W        W33715  28.865   1.406  13.628
65322W        W33716  41.072  29.884  13.885
65323W        W33717  23.834  20.527  14.931
65324W        W33718  16.617   8.924  11.094
65325W        W33719   8.727  41.024  10.913
65326W        W33720  20.960  36.839  10.393
65327W        W33721  44.683  15.664  12.486
65328W        W33722  30.246  22.452  12.463
65329W        W33723  23.348  36.069  13.495
65330W        W33724  41.783  37.820  13.904
65331W        W33725   8.067   0.503  12.681
65332W        W33726  28.995  13.594   3.280
65333W        W33727  27.143   3.428   4.690
65334W        W33728   7.701  36.876  12.457
65335W        W33729  16.714  39.012   1.823
65336W        W33730  24.280  19.607   4.472
65337W        W33731  39.090  42.403   4.969
65338W        W33732  11.351  42.462   4.591
65339W        W33733  27.208  15.173  10.764
65340W        W33734   4.053  36.033   2.435
65341W        W33735  36.924  31.651  12.669
65342W        W33736  28.378   3.839  12.664
65343W        W33737  21.137  32.169  11.260
65344W        W33738  39.398  32.293   2.371
65345W        W33739  43.328   0.225   3.668
65346W        W33740  20.998   6.015   1.174
65347W        W33741  10.304  40.883  12.655
65348W        W33742  15.485   8.249  11.925
65349W        W33743   3.842  26.065  10.568
65350W        W33744  12.145   9.862   0.830
65351W        W33745  29.856  23.154  11.176
65352W        W33746  41.548  25.497   0.471
65353W        W33747   7.479   4.117  11.068
65354W        W33748  17.393  40.574   4.986
65355W        W33749  17.261  21.560   3.710
65356W        W33750  33.414   9.748   1.739
65357W        W33751   9.249   7.487   2.127
65358W        W33752   2.409  20.386   3.810
65359W        W33753  36.134  17.029  11.618
65360W        W33754  35.514  13.216  13.328
65361W        W33755  39.813  30.631   0.930
65362W        W33756  26.973  12.668  11.605
65363W        W33757  10.909   5.797   4.578
65364W        W33758  16.818  40.861  10.713
65365W        W33759  21.553  39.985  13.721
65366W        W33760   4.293  31.446  11.134
65367W        W33761  13.782  10.135  14.001
65368W        W33762  12.884  28.150  13.516
65369W        W33763  12.563  26.002  11.090
65370W        W33764  40.877  33.643  10.668
65371W        W33765  17.848   9.186   1.200
65372W        W33766   5.705  11.114  13.828
65373W        W33767  37.364   7.289   2.955
65374W        W33768  22.685   6.160   4.662
65375W        W33769  28.901  23.644   1.850
65376W        W33770  24.088   3.003   4.672
65377W        W33771  37.324  16.738   4.528
65378W        W33772  11.620  12.047   1.011
65379W        W33773  13.280  40.558   3.895
65380W        W33774  13.173  43.244  11.202
65381W        W33775  10.226  35.898   1.002
65382W        W33776  13.258  28.543  10.687
65383W        W33777  24.673  10.182   3.707
65384W        W33778   6.864  37.351   2.343
65385W        W33779  21.341  16.240   0.438
65386W        W33780  29.622  13.099   4.800
65387W        W33781   1.546  31.560   1.249
65388W        W33782  33.625  26.003   1.766
65389W        W33783  37.592  19.055  11.572
65390W        W33784  24.851  34.057  11.176
65391W        W33785  39.018  37.244  11.194
65392W        W33786  10.562   8.210   0.685
65393W        W33787  41.705  29.892  11.148
65394W        W33788  44.558  41.170  14.832
65395W        W33789  44.857  37.494  11.622
65396W        W33790  25.107   6.006   4.065
65397W        W33791  11.267  32.989   4.182
65398W        W33792  17.668  43.423  10.609
65399W        W33793  10.822  21.039  11.907
65400W        W33794  17.474  22.104  10.808
65401W        W33795  22.397  44.678  13.530
65402W        W33796   3.130   2.895  12.929
65403W        W33797  34.069  29.472   2.548
65404W        W33798  15.066  11.716  10.647
65405W        W33799   3.803  39.920  13.010
65406W        W33800  41.926   8.952   5.170
65407W        W33801  23.615  29.028  11.019
65408W        W33802  40.166  14.592  14.670
65409W        W33803  43.912   6.274   5.117
65410W        W33804   4.582   7.835   4.528
65411W        W33805  23.513  23.533   1.840
65412W        W33806  20.041  14.557  12.643
65413W        W33807  25.664  40.997  12.994
65414W        W33808  23.387  44.276   3.553
65415W        W33809  26.723  28.444  10.997
65416W        W33810  31.986  43.088  12.877
65417W        W33811  41.893  36.204   3.089
65418W        W33812  29.897  31.003  12.343
65419W        W33813  28.900  43.940   1.328
65420W        W33814  38.957  38.912  14.252
65421W        W33815  24.022  11.866  12.960
65422W        W33816   9.359   5.378   4.093
65423W        W33817  24.027  35.218   4.729
65424W        W33818  10.808  33.631  13.379
65425W        W33819  30.690   3.414   1.640
65426W        W33820  13.437  23.672  10.947
65427W        W33821  14.743  11.874  11.911
65428W        W33822  26.046  14.527   2.246
65429W        W33823  34.743  26.761   0.081
65430W        W33824  31.810  27.355  12.289
65431W        W33825  36.190  16.730   0.683
65432W        W33826  13.451  33.976   2.246
65433W        W33827   4.363  35.392   4.031
65434W        W33828  19.576  43.949   0.715
65435W        W33829  30.559  12.143  11.572
65436W        W33830  39.895  12.717  13.172
65437W        W33831  23.755   9.211   0.063
65438W        W33832  33.888  19.368   5.190
65439W        W33833  27.750  22.711  13.976
65440W        W33834  21.640  39.802   2.935
65441W        W33835  27.835  11.668   1.035
65442W        W33836   5.873  41.338   1.303
65443W        W33837  41.663   7.128   0.349
65444W        W33838   1.358  44.810   3.566
65445W        W33839  25.238  30.193   3.949
65446W        W33840  21.362  36.491   2.505
65447W        W33841  30.460  10.723   0.997
65448W        W33842   9.940  33.995   0.829
65449W        W33843   9.785  43.191  11.587
65450W        W33844   9.629  32.660  14.833
65451W        W33845  19.985  27.519  12.996
65452W        W33846  23.790  10.308  14.429
65453W        W33847   6.914  35.939   3.305
65454W        W33848   3.899   6.318   1.907
65455W        W33849  10.953  26.375   3.399
65456W        W33850  27.948  33.443  10.669
65457W        W33851  15.783  21.127  14.415
65458W        W33852  11.353  19.462   0.322
65459W        W33853  23.460  22.684   1.234
65460W        W33854  27.649  16.169  10.583
65461W        W33855  28.032  10.934   2.482
65462W        W33856  37.302  15.623  12.898
65463W        W33857   6.154  42.034   4.896
65464W        W33858   2.205  31.659  12.510
65465W        W33859  40.139  40.963  11.065
65466W        W33860  23.580  18.608   1.429
65467W        W33861  40.489  27.091  14.132
65468W        W33862   3.700   9.122   2.848
65469W        W33863  10.743  25.471  10.656
65470W        W33864  11.789  18.493  11.560
65471W        W33865  27.544  36.142   4.747
65472W        W33866  34.627  25.041  14.372
65473W        W33867  32.854  40.214   3.418
65474W        W33868   9.709   8.433   4.315
65475W        W33869  35.806  11.430   3.254
65476W        W33870  44.856  38.118   2.414
65477W        W33871  43.298  24.857   3.354
65478W        W33872  36.395  21.728   3.572
65479W        W33873   4.974   0.330  10.214
65480W        W33874  11.149  41.418   2.758
65481W        W33875  35.414   4.916   3.229
65482W        W33876  24.525  38.990   3.685
65483W        W33877   6.262  22.561   1.737
65484W        W33878   8.878  29.058   3.169
65485W        W33879  30.147  14.573  12.061
65486W        W33880   9.642  29.362  12.103
65487W        W33881  41.884  23.558   0.850
65488W        W33882  20.576   8.241  12.445
65489W        W33883   5.600  22.188  12.465
65490W        W33884  14.585  29.204   0.349
65491W        W33885   0.883  28.729  11.374
65492W        W33886  19.976  24.406   4.242
65493W        W33887  34.450   6.725   0.316
65494W        W33888   9.822   0.617  13.961
65495W        W33889  42.863  39.123  12.921
65496W        W33890  20.580   2.744   4.693
65497W        W33891  20.061   1.362  11.357
65498W        W33892  22.576  32.372   3.673
65499W        W33893   4.815  17.494   1.850
65500W        W33894  41.620  28.579  13.942
65501W        W33895  28.641  36.373   3.351
65502W        W33896   3.572   4.802   3.817
65503W        W33897  43.898  10.673  10.900
65504W        W33898  44.288   6.939  12.108
65505W        W33899  15.218   0.528  10.714
65506W        W33900  26.630   1.318  11.501
65507W        W33901  36.487   6.826  13.431
65508W        W33902  19.719  10.233  12.077
65509W        W33903  11.135  21.658  13.856
65510W        W33904  30.147  23.608  13.612
65511W        W33905   2.558  29.121   4.183
65512W        W33906  28.477  10.331  14.093
65513W        W33907  19.054   9.446  14.353
65514W        W33908  17.253  42.408  11.108
65515W        W33909  29.326  37.437  11.511
65516W        W33910  26.191  37.996   4.702
65517W        W33911  27.665  36.778  12.454
65518W        W33912  23.110   2.414  13.336
65519W        W33913  24.452  42.502  13.445
65520W        W33914  24.502  37.280   2.889
65521W        W33915   5.220  32.150  14.347
65522W        W33916  37.540  42.823  11.422
65523W        W33917  26.721   7.216   4.747
65524W        W33918  10.297  33.033  11.413
65525W        W33919  18.183   3.946   0.645
65526W        W33920   9.362  19.198   0.949
65527W        W33921  31.030  30.088   3.347
65528W        W33922   1.425  27.510  13.828
65529W        W33923  17.496  30.890  14.057
65530W        W33924  13.540  16.057   1.347
65531W        W33925  16.817   1.247  11.352
65532W        W33926  21.179   4.601   0.873
65533W        W33927   6.788  42.482  11.954
65534W        W33928   4.629  33.837   0.955
65535W        W33929   5.952   6.981  11.177
65536W        W33930  15.322  33.018  11.212
65537W        W33931   8.707  41.059   3.557
65538W        W33932  11.646  15.504   3.826
65539W        W33933  41.628  24.088   4.718
65540W        W33934   5.218  40.671   1.725
65541W        W33935  30.161  33.627  14.402
65542W        W33936  23.429   9.989  14.723
65543W        W33937  15.401  23.976  14.349
65544W        W33938  30.929   0.235   4.033
65545W        W33939   6.679  30.128  10.760
65546W        W33940  40.959  25.611  10.792
65547W        W33941   1.441   9.045  14.715
65548W        W33942   3.755  29.842   3.184
65549W        W33943  13.758  38.434  14.048
65550W        W33944  37.607  34.393  12.357
65551W        W33945  21.571  28.543  14.568
65552W        W33946  43.741   1.972  11.071
65553W        W33947   3.218  21.519   3.302
65554W        W33948  44.073  11.120   0.297
65555W        W33949  44.078  19.510  14.983
65556W        W33950  30.929   7.211  13.435
65557W        W33951   7.651   3.124  12.928
65558W        W33952  20.453  39.361  12.506
65559W        W33953   0.777   7.246   4.578
65560W        W33954   3.314  43.409   3.691
65561W        W33955  23.587  29.632  12.052
65562W        W33956  21.182  16.770  10.848
65563W        W33957   3.211  37.489   1.465
65564W        W33958  17.097  13.326  12.684
65565W        W33959  29.575  40.372   1.992
65566W        W33960  34.071  23.612  11.963
65567W        W33961   4.401  14.509   0.330
65568W        W33962  16.999  18.644  11.018
65569W        W33963  32.659  13.479  13.091
65570W        W33964   1.343   0.516  12.073
65571W        W33965  14.052   1.396  11.535
65572W        W33966  43.163  27.643   2.818
65573W        W33967   7.012  36.409   4.221
65574W        W33968  12.817  39.453   0.397
65575W        W33969  44.718  35.095   0.926
65576W        W33970  19.233  22.598  12.470
65577W        W33971   5.227   2.733  14.910
65578W        W33972   2.817   3.409  14.941
65579W        W33973  37.365  29.627   3.358
65580W        W33974   8.393  15.068  11.787
65581W        W33975  15.699  19.064   9.937
65582W        W33976   1.897  26.459   1.521
65583W        W33977   7.659  42.337  13.772
65584W        W33978  37.539  43.185  11.032
65585W        W33979  17.583  32.611   1.974
65586W        W33980   6.920  13.189  13.074
65587W        W33981  35.137  22.500   1.295
65588W        W33982  13.231   5.312  12.463
65589W        W33983   0.514  26.373  14.393
65590W        W33984  13.527  31.082  13.993
65591W        W33985  43.991  32.191  13.492
65592W        W33986  44.940  19.010  12.969
65593W        W33987  16.329  20.731  11.489
65594W        W33988  32.022   3.431   2.329
65595W        W33989   5.415  29.881   3.568
65596W        W33990   1.876  21.483  14.759
65597W        W33991   1.904  32.437   3.800
65598W        W33992  35.905  20.959  12.514
65599W        W33993  36.511  10.287   3.213
65600W        W33994  42.869  25.572  14.470
65601W        W33995  17.862  15.740  14.451
65602W        W33996  29.493  28.675  12.462
65603W        W33997  17.812  19.649   1.339
65604W        W33998  38.462  20.361   4.999
65605W        W33999  32.375  18.139   4.173
65606W        W34000  12.808  12.867   3.754
65607W        W34001  36.498  13.097   1.935
65608W        W34002  36.549  41.837   1.445
65609W        W34003  20.370   4.371  12.885
65610W        W34004  39.494  37.418  11.397
65611W        W34005  28.862   5.680  13.382
65612W        W34006  29.965  17.631   3.703
65613W        W34007  23.806  15.376  13.554
65614W        W34008  10.325  31.939  12.569
65615W        W34009   5.677  18.792  10.829
65616W        W34010  12.914  27.949  12.027
65617W        W34011  41.579   7.073   5.122
65618W        W34012  15.249  21.891   0.999
65619W        W34013  11.417  17.196   0.745
65620W        W34014  15.530  37.649   1.258
65621W        W34015  16.056  30.834  11.472
65622W        W34016  41.576  17.567   0.310
65623W        W34017  33.523   8.810  13.160
65624W        W34018   4.271  11.691   2.741
65625W        W34019  11.455  15.556   5.446
65626W        W34020   3.365  12.896  11.989
65627W        W34021  32.153   4.052   2.614
65628W        W34022  39.587   7.226   1.362
65629W        W34023  40.384  19.086  11.676
65630W        W34024  20.713  12.344   4.902
65631W        W34025  37.971  22.350   4.665
65632W        W34026  20.529  24.558  14.731
65633W        W34027   4.954  24.746   4.474
65634W        W34028  16.138  12.436  11.598
65635W        W34029  10.879  20.125  11.389
65636W        W34030  42.118   2.586  11.429
65637W        W34031  44.824  11.248  13.920
65638W        W34032   2.933  35.868  14.880
65639W        W34033  20.166  40.540   0.288
65640W        W34034  15.350  22.108   1.843
65641W        W34035  32.946  39.725  11.595
65642W        W34036   8.212  15.555  13.095
65643W        W34037   6.285   0.852   2.849
65644W        W34038  41.347  26.971  14.003
65645W        W34039  40.084  39.039   2.201
65646W        W34040  41.463  14.111   2.459
65647W        W34041  40.511  17.082  14.853
65648W        W34042  21.240  28.038   1.796
65649W        W34043  23.428  32.915   3.854
65650W        W34044  21.262  37.437   0.279
65651W        W34045  18.060  31.739   2.180
65652W        W34046  15.161  33.128  12.139
65653W        W34047  21.972  11.712   1.768
65654W        W34048  21.526  25.060  11.522
65655W        W34049  25.474   6.303   3.822
65656W        W34050  26.915  43.154   1.535
65657W        W34051  32.018  37.478   1.284
65658W        W34052   6.738  42.722  14.836
65659W        W34053  33.604   8.759  12.659
65660W        W34054  14.073  12.575  12.549
65661W        W34055  15.338   9.769   0.522
65662W        W34056   0.117  14.017   4.304
65663W        W34057   5.313   8.030  12.597
65664W        W34058  27.258   7.409  14.893
65665W        W34059  43.441  30.009  10.762
65666W        W34060  37.098  23.526  13.403
65667W        W34061   5.650  39.760  12.575
65668W        W34062   2.252  19.489  11.228
65669W        W34063  13.222  40.010  13.390
65670W        W34064   2.343  28.032  12.975
65671W        W34065  14.130  43.538   4.076
65672W        W34066  39.913  26.620  12.310
65673W        W34067  14.260  14.655  10.981
65674W        W34068   7.654   1.520   4.243
65675W        W34069  36.028  22.227  12.871
65676W        W34070   9.137  40.090  13.447
65677W        W34071   4.934  41.810   4.294
65678W        W34072  23.882  27.042  10.990
65679W        W34073  19.162  17.649  11.529
65680W        W34074  14.926  43.367  10.736
65681W        W34075   0.521  43.100   3.749
65682W        W34076  31.443  41.403  14.032
65683W        W34077  22.008  19.290  11.101
65684W        W34078  39.481  37.062   0.600
65685W        W34079  38.307  30.707  11.514
65686W        W34080  16.836  32.900   4.143
65687W        W34081  17.995  19.124  11.492
65688W        W34082  18.130  43.837  12.539
65689W        W34083  15.799   8.394   3.164
65690W        W34084  27.922   5.735  10.952
65691W        W34085   3.438  40.339  14.283
65692W        W34086  30.289   3.120  13.576
65693W        W34087  19.822  40.384  13.367
65694W        W34088  13.956  41.809  10.806
65695W        W34089  39.473  37.052   3.374
65696W        W34090  12.577  34.626   2.814
65697W        W34091  27.712  11.164  13.473
65698W        W34092  16.513  13.844   2.749
65699W        W34093  33.459  26.444  11.489
65700W        W34094  38.767  30.656  10.612
65701W        W34095  41.340  35.789   3.777
65702W        W34096  10.750  41.882  12.723
65703W        W34097  20.434  12.730  11.708
65704W        W34098   9.966  32.611  13.990
65705W        W34099  32.947  37.981  14.961
65706W        W34100  39.495  25.774  14.283
65707W        W34101  19.182  19.208   0.260
65708W        W34102  17.505   4.379   3.479
65709W        W34103   9.896  28.134   1.774
65710W        W34104  40.991   2.829  14.352
65711W        W34105  30.921   0.397   0.554
65712W        W34106  26.102  28.579  13.820
65713W        W34107   6.721  13.337   1.935
65714W        W34108  21.199  29.774   2.265
65715W        W34109  40.977  40.793  10.812
65716W        W34110  16.568  21.213   0.575
65717W        W34111  42.341   8.277   2.393
65718W        W34112  38.739  43.416   2.692
65719W        W34113  25.154   7.810   5.127
65720W        W34114   5.322  19.777   4.440
65721W        W34115  16.682  23.014  14.780
65722W        W34116  43.782   7.908   0.344
65723W        W34117  17.662   7.496   4.770
65724W        W34118  31.988  38.472   1.147
65725W        W34119  13.275  39.340  14.763
65726W        W34120   1.283  10.861  10.745
65727W        W34121  32.750  27.383   4.069
65728W        W34122  20.728   9.845  14.394
65729W        W34123  21.176  36.661  13.471
65730W        W34124  32.525   4.937  13.370
65731W        W34125  12.307  29.870  12.105
65732W        W34126  41.568  22.134  13.986
65733W        W34127   0.082  13.070   4.400
65734W        W34128  11.354  24.531   0.754
65735W        W34129  29.264  22.524   0.845
65736W        W34130   5.211  29.571   4.462
65737W        W34131   6.849  26.755   9.808
65738W        W34132   9.554  30.752  13.580
65739W        W34133  17.774  14.568   2.170
65740W        W34134  10.825   7.451   1.688
65741W        W34135  40.984  22.183   2.146
65742W        W34136   1.002  10.164  12.474
65743W        W34137  41.895  13.406   3.217
65744W        W34138  39.448  11.136   4.908
65745W        W34139  37.371  31.040  13.530
65746W        W34140  15.721  21.738  11.151
65747W        W34141  14.758  20.757   3.564
65748W        W34142  19.975  42.779   2.514
65749W        W34143  30.580  18.609  14.207
65750W        W34144  24.247  43.371   5.386
65751W        W34145  10.206  20.596   4.230
65752W        W34146  25.500  38.937   2.809
65753W        W34147  35.560  38.585  11.111
65754W        W34148  23.441   9.750  13.341
65755W        W34149   7.820  44.690   4.806
65756W        W34150  16.015  29.063  11.511
65757W        W34151   3.291  41.943   1.281
65758W        W34152  38.892  38.002   3.178
65759W        W34153  27.493  26.922  14.967
65760W        W34154  26.944  19.553   0.497
65761W        W34155  34.872   7.770   2.294
65762W        W34156  16.989  41.395  10.702
65763W        W34157   3.432  13.655  14.327
65764W        W34158  41.965  22.550  11.281
65765W        W34159  25.146  36.401   3.699
65766W        W34160  11.207  17.556   3.882
65767W        W34161  40.831  42.428  11.047
65768W        W34162  27.057   3.510   2.378
65769W        W34163   7.970  18.395  13.191
65770W        W34164  31.799  40.883  10.397
65771W        W34165   3.488  41.477   2.307
65772W        W34166   3.572   1.761  12.585
65773W        W34167  25.117   4.984  11.569
65774W        W34168  28.489   4.724   1.371
65775W        W34169  24.694  29.258   4.575
65776W        W34170  36.932  30.762  14.432
65777W        W34171  27.231  38.815  14.427
65778W        W34172  44.741  34.595  12.977
65779W        W34173  15.230  22.476   0.234
65780W        W34174  38.295   2.327  12.165
65781W        W34175  39.273   3.039   4.008
65782W        W34176  18.043  40.982   0.557
65783W        W34177  12.714  24.018   3.226
65784W        W34178   9.322  26.850   0.877
65785W        W34179  12.625  38.534  13.580
65786W        W34180  24.855   0.328   0.150
65787W        W34181  25.766  10.347  13.303
65788W        W34182  31.848  30.937   4.865
65789W        W34183  17.405  37.050   3.109
65790W        W34184  38.450  24.263   1.627
65791W        W34185   4.742  26.349   1.340
65792W        W34186  10.474   5.318   0.823
65793W        W34187   2.919  33.198   1.476
65794W        W34188  34.493  29.927  11.653
65795W        W34189  36.984  43.909  11.354
65796W        W34190  23.350   8.676   9.830
65797W        W34191  36.888  42.822  14.829
65798W        W34192  41.029   4.207   4.628
65799W        W34193   2.770  42.657   2.730
65800W        W34194  38.838  14.708   4.630
65801W        W34195  22.557  15.862   1.791
65802W        W34196   0.993  19.331   2.943
65803W        W34197  30.796  18.156  10.297
65804W        W34198  40.966  39.309  12.723
65805W        W34199  30.834   3.348   4.138
65806W        W34200  23.086  23.668   4.103
65807W        W34201  36.631  38.463   2.752
65808W        W34202   0.935  18.540   5.022
65809W        W34203  19.334  23.073  11.724
65810W        W34204  21.399  43.269  14.379
65811W        W34205  22.524  31.187  13.425
65812W        W34206   2.184  33.473  11.974
65813W        W34207  15.224  20.219   3.339
65814W        W34208  26.957  11.756   2.235
65815W        W34209  22.877  34.570  13.276
65816W        W34210  19.850  29.440  11.619
65817W        W34211   8.798  42.758   0.408
65818W        W34212  25.897  33.166   3.952
65819W        W34213  42.528  39.777  13.439
65820W        W34214  10.376  13.136  12.638
65821W        W34215  13.881  42.021  13.095
65822W        W34216   8.450   6.457  11.908
65823W        W34217  15.052  19.375  13.527
65824W        W34218  25.064   6.506   3.140
65825W        W34219  15.230   6.793  13.499
65826W        W34220  13.685  35.602  10.808
65827W        W34221  42.295  31.087   3.255
65828W        W34222  27.457  30.355  11.104
65829W        W34223  21.591  33.467  13.032
65830W        W34224  36.685   7.782  10.486
65831W        W34225  42.841  16.090   4.647
65832W        W34226  35.637   7.439   3.306
65833W        W34227  12.069  10.376   2.725
65834W        W34228  33.547   6.127  13.994
65835W        W34229  24.133  19.649  13.534
65836W        W34230   1.171  42.340  11.831
65837W        W34231  40.997  22.023  12.882
65838W        W34232  22.745  37.520  12.483
65839W        W34233  26.719   3.982  10.354
65840W        W34234  30.581  40.927  13.429
65841W        W34235  43.357   8.673  12.382
65842W        W34236  38.051  31.506   3.766
65843W        W34237  37.854  40.495  14.456
65844W        W34238  12.306  24.941  11.267
65845W        W34239   4.659   7.309   5.028
65846W        W34240  41.299  31.570   1.317
65847W        W34241  44.159  19.333   5.338
65848W        W34242  28.635  42.452  13.356
65849W        W34243  44.316  10.079   0.783
65850W        W34244   2.758   1.848   0.282
65851W        W34245   3.893  33.185  11.789
65852W        W34246  21.820  22.901   3.497
65853W        W34247  27.746  25.479  11.194
65854W        W34248  11.112  18.368  12.172
65855W        W34249  37.590  41.797  14.338
65856W        W34250  16.031  22.282   1.232
65857W        W34251   1.278  34.071   3.227
65858W        W34252  33.847  37.378  11.461
65859W        W34253  40.390   4.739  10.335
65860W        W34254  15.001  29.070  14.412
65861W        W34255   0.432  22.715  14.238
65862W        W34256  38.504  38.110  10.416
65863W        W34257  27.681   2.491  13.131
65864W        W34258   2.519  29.468   2.674
65865W        W34259  35.091  11.859  12.483
65866W        W34260  34.907  23.091  10.683
65867W        W34261  31.457   3.742   4.834
65868W        W34262  30.424  19.263  11.708
65869W        W34263  23.923  11.123   4.027
65870W        W34264  25.999  26.265   3.016
65871W        W34265  10.181   9.313   3.529
65872W        W34266  22.140  16.810  11.969
65873W        W34267  13.016  28.170   4.126
65874W        W34268   5.365  21.519  10.528
65875W        W34269  30.753  33.377  14.990
65876W        W34270  13.325  29.196  11.279
65877W        W34271  21.495  29.415   4.157
65878W        W34272   1.085  27.087  13.930
65879W        W34273  28.908   3.009   2.613
65880W        W34274  39.893   0.967   4.144
65881W        W34275   8.695  28.909  14.341
65882W        W34276   7.840   5.904   4.619
65883W        W34277  41.545  27.438   0.041
65884W        W34278  35.173   7.989   4.103
65885W        W34279  20.348  31.890  10.804
65886W        W34280  14.633  15.176   4.594
65887W        W34281  15.613  44.567  11.215
65888W        W34282  41.394  17.999  12.624
65889W        W34283  21.409  30.577  14.789
65890W        W34284  44.556  28.972  12.540
65891W        W34285  30.412  41.325   0.218
65892W        W34286   7.953  43.809  11.174
65893W        W34287  37.553  11.106  13.543
65894W        W34288  34.912  15.669  11.966
65895W        W34289  41.393  21.740   3.213
65896W        W34290  35.147  41.522  11.164
65897W        W34291  43.539  12.165   4.043
65898W        W34292  25.517  21.805  12.073
65899W        W34293  30.534  33.916  10.979
65900W        W34294   1.947   7.976   2.204
65901W        W34295  41.790  40.463   1.417
65902W        W34296  13.436   1.295  12.634
65903W        W34297  33.509  24.595  10.200
65904W        W34298  18.120  41.030  12.097
65905W        W34299   5.430  11.432   1.446
65906W        W34300  43.255   2.379  10.644
65907W        W34301  13.129   0.383  14.216
65908W        W34302   1.642   3.418   0.929
65909W        W34303   7.251   2.966  13.544
65910W        W34304  21.080  26.662  12.164
65911W        W34305  25.261  19.840  14.748
65912W        W34306  10.245  12.782   1.822
65913W        W34307  31.054  20.870  14.798
65914W        W34308  44.253  11.383  10.777
65915W        W34309  41.327   5.406   1.287
65916W        W34310  36.899  12.686  10.717
65917W        W34311  24.471  34.382  14.979
65918W        W34312  23.103  20.983  14.991
65919W        W34313   4.793  18.290  14.397
65920W        W34314  44.282   1.689  12.066
65921W        W34315   1.260  13.333  14.383
65922W        W34316  14.864  29.790   1.434
65923W        W34317  21.491   8.489   0.761
65924W        W34318  34.925  26.051  10.784
65925W        W34319  18.494  25.149  10.750
65926W        W34320  10.903  25.699  14.421
65927W        W34321  23.059  17.567   1.166
65928W        W34322  36.333  34.829  12.079
65929W        W34323   2.253  24.031   3.455
65930W        W34324  22.123  16.299  11.910
65931W        W34325  29.741  10.613   2.769
65932W        W34326  21.795   6.802  12.445
65933W        W34327  35.431   1.702  11.991
65934W        W34328  40.741  18.194   2.355
65935W        W34329  26.582  15.137   1.747
65936W        W34330  30.283   3.721   1.699
65937W        W34331  34.634   2.209  10.722
65938W        W34332  10.707  12.728   2.084
65939W        W34333  42.904  35.858   5.441
65940W        W34334  18.117  27.652  13.439
65941W        W34335  17.096  33.102   0.497
65942W        W34336   5.977  25.091  12.903
65943W        W34337  33.626   7.729   4.334
65944W        W34338  38.780  42.596  12.065
65945W        W34339   4.514  39.797  11.073
65946W        W34340  28.671  31.077   2.964
65947W        W34341  10.129  41.353  12.529
65948W        W34342  28.116  36.323  10.843
65949W        W34343  17.134   1.859  12.111
65950W        W34344  39.270  26.529  10.732
65951W        W34345   1.272  12.752  12.227
65952W        W34346  15.530   2.942   4.636
65953W        W34347   4.966  39.533  14.902
65954W        W34348  15.831   5.504   3.623
65955W        W34349  26.071  26.235   3.932
65956W        W34350  13.698  32.838  10.677
65957W        W34351  34.886   8.975   1.495
65958W        W34352  27.740  18.950   0.263
65959W        W34353  36.073   4.992   3.127
65960W        W34354  20.264   5.116  10.079
65961W        W34355  35.539  26.307   0.514
65962W        W34356  18.839   6.789  14.464
65963W        W34357  18.532  23.538  12.075
65964W        W34358  37.324  26.807   4.113
65965W        W34359  18.661  29.001   1.932
65966W        W34360   3.663  24.326  11.156
65967W        W34361   2.935  13.143  10.569
65968W        W34362  29.186   9.823   0.287
65969W        W34363  14.932  40.349   1.693
65970W        W34364   8.919  32.366   0.416
65971W        W34365  10.857  15.775   3.266
65972W        W34366   7.787  22.571  13.725
65973W        W34367  35.268   3.344  14.007
65974W        W34368  27.550  40.674   2.109
65975W        W34369   2.250  11.570  14.504
65976W        W34370  20.812   3.776   0.960
65977W        W34371  20.684  18.135   3.620
65978W        W34372  14.938  28.091  11.217
65979W        W34373  22.272  24.735  12.038
65980W        W34374  10.913  19.312   3.198
65981W        W34375  39.946  37.493   2.163
65982W        W34376   2.477  36.137  10.043
65983W        W34377   4.455  30.571  10.909
65984W        W34378  25.104  34.527  12.333
65985W        W34379  13.358  12.878   2.367
65986W        W34380  28.147  32.949  14.344
65987W        W34381  20.525  15.132  14.941
65988W        W34382  13.623  32.345  10.744
65989W        W34383  41.309  12.961  10.834
65990W        W34384  29.629  33.738   1.537
65991W        W34385  42.531  29.915  11.644
65992W        W34386  13.176  35.837   3.723
65993W        W34387  37.415  17.199  13.741
65994W        W34388  31.502  14.657   3.557
65995W        W34389  29.431  26.190   3.389
65996W        W34390  24.986  10.758  13.364
65997W        W34391  37.305   8.395  11.406
65998W        W34392   4.331  27.601  12.170
65999W        W34393  28.342  40.251  11.064
66000W        W34394  24.010  25.680  11.700
66001W        W34395  23.699  23.832   2.218
66002W        W34396  30.143  36.793  12.492
66003W        W34397   5.876  38.495  11.918
66004W        W34398   6.455  16.289   9.834
66005W        W34399  23.634   0.760   2.671
66006W        W34400  34.316  38.225  12.948
66007W        W34401  10.792  19.671  12.145
66008W        W34402  18.154  10.622  12.654
66009W        W34403  43.038  39.943  12.871
66010W        W34404  21.262  31.348  11.829
66011W        W34405  15.662  43.988  13.307
66012W        W34406   2.831  43.407  13.626
66013W        W34407  19.533  10.625   4.184
66014W        W34408  38.335  24.551   0.576
66015W        W34409   3.917  15.042  12.567
66016W        W34410  37.978  33.408  10.748
66017W        W34411  29.650  43.781  13.985
66018W        W34412  17.526  21.627  13.122
66019W        W34413  28.097  21.964  13.845
66020W        W34414   4.791  16.718  13.039
66021W        W34415  27.168  12.697  12.842
66022W        W34416   7.755  40.404   2.613
66023W        W34417  22.757  13.292   0.273
66024W        W34418  32.643  18.560  11.141
66025W        W34419  29.606  40.372  14.543
66026W        W34420  11.223  18.515   3.617
66027W        W34421  21.383  17.180   1.289
66028W        W34422  24.535  19.685  13.891
66029W        W34423  11.351  43.834   4.052
66030W        W34424  27.981  37.968  11.910
66031W        W34425  25.719  44.521  13.393
66032W        W34426  16.723   4.005  14.603
66033W        W34427  25.460  30.523   2.131
66034W        W34428   8.398  20.043   1.247
66035W        W34429   9.001  36.841  11.975
66036W        W34430   4.230  12.389  13.957
66037W        W34431  40.856  35.550   0.192
66038W        W34432  10.201  27.632  14.893
66039W        W34433  16.804   0.883  12.564
66040W        W34434   2.870  37.577  13.183
66041W        W34435  36.618  15.991  12.018
66042W        W34436  21.050  26.464  10.664
66043W        W34437  43.561   3.750   5.035
66044W        W34438  19.605  30.156  11.067
66045W        W34439  35.380  42.050  11.533
66046W        W34440  20.569  22.320  11.791
66047W        W34441  17.714   0.797   4.411
66048W        W34442  10.908  17.186   0.860
66049W        W34443  20.934  44.131  14.879
66050W        W34444  39.695  30.426   5.040
66051W        W34445  24.550   1.520  13.315
66052W        W34446  34.433  25.716  13.742
66053W        W34447  14.638  17.312  11.437
66054W        W34448   5.738   4.805  10.902
66055W        W34449  30.086  10.693  12.164
66056W        W34450   7.678  32.352  12.662
66057W        W34451  15.343  44.659   4.180
66058W        W34452   9.164  42.717  13.035
66059W        W34453   7.302  29.117  12.195
66060W        W34454  29.379   1.972   0.865
66061W        W34455   0.817   8.683   3.887
66062W        W34456   1.884  15.276   2.271
66063W        W34457  39.284   8.456   0.903
66064W        W34458  17.279  20.744  11.519
66065W        W34459  33.024   0.255  10.603
66066W        W34460  31.366   1.236  13.545
66067W        W34461  31.681   4.732  13.863
66068W        W34462  30.773  42.778   4.522
66069W        W34463  25.429  29.990   2.283
66070W        W34464  27.491  39.073  14.050
66071W        W34465  22.504  28.391  12.531
66072W        W34466  24.034  29.891  11.951
66073W        W34467  29.631  34.812   0.239
66074W        W34468  17.467  40.505  11.972
66075W        W34469   1.981  28.338  14.127
66076W        W34470  25.028  41.747   4.082
66077W        W34471  43.754  43.921   3.319
66078W        W34472  13.075   5.638   1.370
66079W        W34473  39.043   2.252  11.174
66080W        W34474  39.741  16.219  11.099
66081W        W34475  33.475  14.706   4.139
66082W        W34476  35.143  39.409   0.779
66083W        W34477  25.158  20.753  11.584
66084W        W34478   9.843  19.795  11.881
66085W        W34479  18.907  25.122  13.583
66086W        W34480  29.891   9.970  13.998
66087W        W34481  19.970  32.131   4.983
66088W        W34482  42.607  34.796  14.503
66089W        W34483   3.643  26.507  14.764
66090W        W34484  34.858  19.713  11.787
66091W        W34485  22.137  40.315   3.343
66092W        W34486  36.884  26.979  12.483
66093W        W34487  36.439  21.782   0.793
66094W        W34488  25.587  39.748   1.666
66095W        W34489   2.533  10.348  11.566
66096W        W34490  22.517  20.700   4.775
66097W        W34491  36.213  18.992   0.732
66098W        W34492  13.863   5.867   1.304
66099W        W34493  21.000   7.540   3.682
66100W        W34494  14.636  24.337   3.268
66101W        W34495  19.665  40.234  10.195
66102W        W34496  33.503  21.465   4.976
66103W        W34497  22.488  18.392  12.542
66104W        W34498   9.203  41.610   2.813
66105W        W34499  23.032  25.706   2.281
66106W        W34500   4.190  11.583  14.698
66107W        W34501  19.137  25.913  12.022
66108W        W34502   9.888  10.047   5.221
66109W        W34503  10.094  34.405   3.830
66110W        W34504  30.049  28.851   3.793
66111W        W34505  36.059  18.072   0.938
66112W        W34506  41.743  28.724   4.440
66113W        W34507  15.330  37.034  14.975
66114W        W34508   7.001  15.277  13.466
66115W        W34509  37.887  12.695   0.639
66116W        W34510  22.900  39.888   3.857
66117W        W34511  37.134  32.236  13.952
66118W        W34512  21.663  32.636   0.531
66119W        W34513   0.764  28.581   4.280
66120W        W34514  18.722   8.865  13.888
66121W        W34515   2.219  19.735   2.375
66122W        W34516  15.596  16.723   1.765
66123W        W34517  19.786  36.529   2.527
66124W        W34518  31.966   9.157  11.616
66125W        W34519  20.133  29.542  13.307
66126W        W34520  13.821  23.031  12.537
66127W        W34521  30.690   7.942   5.091
66128W        W34522  43.438  17.212  10.663
66129W        W34523  27.563  16.206   0.464
66130W        W34524  43.926  28.184  14.886
66131W        W34525  15.849  30.687  12.971
66132W        W34526   6.485  30.814   1.523
66133W        W34527  32.487  10.735   2.160
66134W        W34528   8.381   3.083   5.479
66135W        W34529  27.962  22.670   3.108
66136W        W34530  12.581  44.762   4.268
66137W        W34531  37.108  34.107  14.845
66138W        W34532  30.814  13.910   3.809
66139W        W34533  29.993  42.065  14.263
66140W        W34534  43.370   7.754   4.710
66141W        W34535   7.445  44.436  11.315
66142W        W34536  16.765   2.273   1.313
66143W        W34537   8.958  14.702   2.343
66144W        W34538  35.831  41.196  12.434
66145W        W34539  18.030  27.430  12.971
66146W        W34540  17.314  22.712  10.729
66147W        W34541  44.358  12.459   0.769
66148W        W34542   9.647  43.733  11.452
66149W        W34543  18.842   2.983   2.778
66150W        W34544  25.803  19.578  10.974
66151W        W34545   2.385  20.689  12.406
66152W        W34546  43.355  22.485  14.805
66153W        W34547   6.951  30.045  12.102
66154W        W34548  15.746  43.383  14.731
66155W        W34549  16.310  28.980   0.784
66156W        W34550  43.522  20.051  13.022
66157W        W34551  20.590  19.539  12.932
66158W        W34552  43.813  20.184  11.112
66159W        W34553   0.944  19.627  13.480
66160W        W34554  37.506  35.538   4.802
66161W        W34555   9.372  23.257  11.186
66162W        W34556  40.292  43.472  11.589
66163W        W34557  12.608  27.097  14.914
66164W        W34558   2.743  39.051  12.666
66165W        W34559   3.643  28.747  12.432
66166W        W34560  18.581  28.737  14.206
66167W        W34561  21.619  29.964   2.476
66168W        W34562  17.665  37.181  13.952
66169W        W34563  24.965  27.855   3.813
66170W        W34564  13.615  11.717   3.229
66171W        W34565   4.307  22.125   0.946
66172W        W34566  22.000   8.883   2.245
66173W        W34567  34.385  30.662  13.977
66174W        W34568  39.286  11.375   2.474
66175W        W34569  18.280  13.581   1.938
66176W        W34570  42.522  27.110  12.571
66177W        W34571   5.244  24.531  14.498
66178W        W34572  21.771  38.425  12.396
66179W        W34573  31.036  39.325   2.802
66180W        W34574  28.209  18.577  14.386
66181W        W34575  43.435  17.900   1.301
66182W        W34576  42.978  42.784  10.900
66183W        W34577   5.565  35.955  11.167
66184W        W34578   2.340  43.412   2.285
66185W        W34579  13.698   5.988  12.547
66186W        W34580  18.039  31.888  11.271
66187W        W34581  20.527  11.280   1.954
66188W        W34582  35.087  34.916   3.719
66189W        W34583  40.385   6.872   2.106
66190W        W34584  28.560  21.943   1.352
66191W        W34585  28.655   5.900  14.872
66192W        W34586  12.980  31.020  14.133
66193W        W34587  19.629  42.522  10.533
66194W        W34588  32.659  20.506  13.841
66195W        W34589  35.035  33.796  13.883
66196W        W34590  36.038  24.206  10.731
66197W        W34591  20.244  33.392   3.189
66198W        W34592   4.983  42.714   0.785
66199W        W34593  26.498  19.072  13.389
66200W        W34594  23.726   0.519   2.170
66201W        W34595  35.858   9.090   1.411
66202W        W34596   2.455  18.751  12.807
66203W        W34597   7.873  11.135   1.883
66204W        W34598  32.113  29.536   4.975
66205W        W34599  19.217  40.450  11.221
66206W        W34600  27.428  36.169  13.827
66207W        W34601   9.949   1.271  12.818
66208W        W34602   6.774  18.204   2.432
66209W        W34603  38.034   5.266  14.215
66210W        W34604   8.817  44.261  11.796
66211W        W34605  42.421  21.710  14.854
66212W        W34606  15.984  25.061   4.212
66213W        W34607   9.995  41.473   1.157
66214W        W34608   9.336  35.504  10.692
66215W        W34609   4.352  25.151  13.573
66216W        W34610  37.416  12.834  13.866
66217W        W34611   1.904  42.221  14.973
66218W        W34612   1.197   9.130   1.167
66219W        W34613  28.525  23.402   2.863
66220W        W34614  34.937   1.693   4.771
66221W        W34615  38.850  27.173   0.896
66222W        W34616   8.715  36.351  12.966
66223W        W34617   8.571  34.050   1.904
66224W        W34618  30.179  24.125   2.314
66225W        W34619  25.629  30.921  10.409
66226W        W34620   2.808  32.611   2.295
66227W        W34621  23.515  31.325  11.223
66228W        W34622  14.074  27.855   5.013
66229W        W34623  37.917  12.881   3.068
66230W        W34624   6.197  23.183   2.753
66231W        W34625  16.594  22.038   4.142
66232W        W34626  31.191   3.359  13.975
66233W        W34627  25.190  12.295  10.722
66234W        W34628  31.483   1.504  13.991
66235W        W34629   2.519  42.972   4.581
66236W        W34630   4.109  43.513  12.923
66237W        W34631  15.125  23.887   1.189
66238W        W34632  41.552   2.844  13.321
66239W        W34633  28.868  27.996  11.093
66240W        W34634   3.245  21.123   0.997
66241W        W34635  27.083  40.560   2.743
66242W        W34636  41.063  32.738   4.036
66243W        W34637  34.568  35.609  14.873
66244W        W34638  32.645   7.114   1.989
66245W        W34639  37.579  36.854   3.947
66246W        W34640  26.182  36.050  14.416
66247W        W34641   9.369  20.308  13.006
66248W        W34642   4.928  42.113   4.802
66249W        W34643  44.292  43.927   4.175
66250W        W34644  43.241  20.312  12.492
66251W        W34645  22.729  33.723  10.760
66252W        W34646  20.754   2.854  14.234
66253W        W34647  42.925  17.824   1.827
66254W        W34648   6.761  18.549   4.825
66255W        W34649  42.781  22.180   1.382
66256W        W34650  26.237   0.214   1.868
66257W        W34651  40.994  27.248  12.041
66258W        W34652  35.603  35.599   1.805
66259W        W34653  11.871  20.776   0.295
66260W        W34654  13.027  32.800  14.360
66261W        W34655  21.170   2.053   3.420
66262W        W34656  32.895  12.562  14.335
66263W        W34657  14.930  42.782   0.664
66264W        W34658  21.237   5.846   0.269
66265W        W34659  35.131  26.083   4.428
66266W        W34660  23.067  21.140   2.215
66267W        W34661  11.698  24.933  14.255
66268W        W34662   3.288  39.981  10.752
66269W        W34663  31.424  24.534  12.866
66270W        W34664   4.646   2.263  14.636
66271W        W34665   7.712  12.237   3.852
66272W        W34666  40.275  38.054  12.151
66273W        W34667  20.250  10.148   2.884
66274W        W34668  20.664   5.000   0.271
66275W        W34669  38.831   2.990   3.289
66276W        W34670  38.913  10.150  12.405
66277W        W34671  25.503   4.365  13.787
66278W        W34672  33.815  21.278  13.905
66279W        W34673  39.051  30.141   2.210
66280W        W34674  37.025  40.933  10.877
66281W        W34675  12.105  39.596   4.079
66282W        W34676  26.267  27.963   3.353
66283W        W34677  37.782  18.825  12.036
66284W        W34678  30.928  40.633  13.137
66285W        W34679  20.996  40.505   1.914
66286W        W34680  21.963  26.139   4.683
66287W        W34681  28.437  29.350   4.515
66288W        W34682  37.344  37.778   1.930
66289W        W34683  22.153  37.770  10.762
66290W        W34684  31.696  29.961   2.357
66291W        W34685  20.089  33.821   2.912
66292W        W34686  40.357  10.493  14.431
66293W        W34687  23.855  32.096   3.130
66294W        W34688  17.028  27.583  11.381
66295W        W34689  16.658   9.280   1.414
66296W        W34690  24.984  32.398   0.485
66297W        W34691  19.544  23.620  14.827
66298W        W34692  38.691  37.307  12.522
66299W        W34693   3.036  39.063  10.628
66300W        W34694   1.273  19.228  13.473
66301W        W34695  34.934  29.527   4.963
66302W        W34696  13.097   0.853  11.962
66303W        W34697  34.324  44.410   4.406
66304W        W34698  16.224  12.241   3.429
66305W        W34699  13.163  29.815  13.217
66306W        W34700   2.596  35.996   1.184
66307W        W34701  15.793  41.906   2.229
66308W        W34702  37.394  29.623  13.795
66309W        W34703  34.530  28.759  10.783
66310W        W34704  15.045  30.416  12.444
66311W        W34705  23.571  39.086  12.968
66312W        W34706  38.526   7.682   0.775
66313W        W34707  23.488  19.100  13.749
66314W        W34708  17.495  32.007  10.762
66315W        W34709  19.544  44.318  11.014
66316W        W34710  30.880  25.066   0.713
66317W        W34711  41.994  29.900  10.725
66318W        W34712  16.119   0.527  13.883
66319W        W34713  44.348  11.351  13.551
66320W        W34714  21.320  43.945   0.690
66321W        W34715  37.820  36.465   0.772
66322W        W34716  33.792  33.869  11.329
66323W        W34717   6.637  32.704  14.786
66324W        W34718  20.167  29.729  10.401
66325W        W34719  10.820   5.395   2.416
66326W        W34720   0.479  19.133   1.723
66327W        W34721  13.358  33.201  13.382
66328W        W34722   5.653   5.257  11.518
66329W        W34723  15.180  19.182   4.317
66330W        W34724   8.030   5.105   4.774
66331W        W34725   8.315  23.619   0.605
66332W        W34726  33.992  41.235   0.897
66333W        W34727  15.608  10.029   3.670
66334W        W34728  33.484  30.407  14.103
66335W        W34729  13.111  26.496   4.113
66336W        W34730  20.603  44.567   1.469
66337W        W34731   4.239   2.253   4.070
66338W        W34732  25.692  12.110   3.683
66339W        W34733  44.840   5.407  12.833
66340W        W34734  39.127   5.303  13.959
66341W        W34735  25.795   5.939   3.620
66342W        W34736  32.170  21.196   4.554
66343W        W34737  39.084   0.241  12.705
66344W        W34738   1.874  39.369  13.834
66345W        W34739  42.070  31.514   0.314
66346W        W34740   8.098   7.294  13.352
66347W        W34741  26.665  29.064  12.100
66348W        W34742   6.440  44.623   2.144
66349W        W34743  34.510  11.297   3.558
66350W        W34744  15.190  31.080  10.777
66351W        W34745  44.509  16.053  14.323
66352W        W34746  32.049   7.195  14.470
66353W        W34747   1.015   7.663   2.433
66354W        W34748   0.388  33.564   4.314
66355W        W34749  25.060  32.308   2.244
66356W        W34750   8.080  15.387   1.693
66357W        W34751  23.578  13.694  14.890
66358W        W34752  26.765  28.326   1.808
66359W        W34753  10.153  10.338  13.953
66360W        W34754  42.813  18.999   3.251
66361W        W34755  13.419  37.942   0.845
66362W        W34756   3.924  38.162  12.056
66363W        W34757  23.584  25.927   1.130
66364W        W34758  13.219   6.852  14.308
66365W        W34759  36.328  22.615   2.264
66366W        W34760  29.215  24.638   2.179
66367W        W34761  17.047  41.850  13.492
66368W        W34762   1.875  25.547  10.564
66369W        W34763  19.079  23.761  14.927
66370W        W34764  40.014  23.243   0.354
66371W        W34765  11.579  23.849   2.347
66372W        W34766  21.840  21.800  11.874
66373W        W34767  30.456  32.996   4.526
66374W        W34768  13.291  38.173   0.386
66375W        W34769  31.041  39.464   0.770
66376W        W34770   3.759  12.622   4.527
66377W        W34771   2.708  12.730   1.921
66378W        W34772  25.207   2.172   4.520
66379W        W34773   1.544  14.688   0.464
66380W        W34774   6.322  38.095  13.115
66381W        W34775   0.435  16.114  14.428
66382W        W34776   6.908   5.919   3.653
66383W        W34777   7.667  41.400   1.903
66384W        W34778  31.974  43.016  13.443
66385W        W34779  14.255  41.343   4.215
66386W        W34780  24.616  37.786  11.663
66387W        W34781  34.490  23.553   3.482
66388W        W34782  36.894  31.288  14.121
66389W        W34783   8.087  12.140   1.435
66390W        W34784  31.409  41.553  13.507
66391W        W34785  30.588   1.630   2.253
66392W        W34786   5.019  27.680   1.844
66393W        W34787  38.775  18.185  14.371
66394W        W34788  40.479  22.203  13.764
66395W        W34789  18.649  31.809  14.455
66396W        W34790  34.596   4.071   0.338
66397W        W34791  28.920  44.870  11.630
66398W        W34792   4.892  24.501   5.215
66399W        W34793   8.686  39.982   2.745
66400W        W34794  34.558   2.358   1.774
66401W        W34795  22.702  12.821  14.386
66402W        W34796  22.711  26.112  14.310
66403W        W34797  14.131  10.127   2.716
66404W        W34798  30.643  37.881   0.470
66405W        W34799  24.622  31.404   3.794
66406W        W34800  12.722  34.385  10.798
66407W        W34801  41.765  32.605  14.237
66408W        W34802  21.238  24.917   0.740
66409W        W34803  41.918   7.005  14.901
66410W        W34804  20.677  30.107   2.868
66411W        W34805  41.696   2.538   4.707
66412W        W34806  15.069   1.803  12.179
66413W        W34807  32.457  20.451  14.955
66414W        W34808   0.190  23.600   2.308
66415W        W34809  20.297  38.507   3.137
66416W        W34810  33.059  23.122   0.908
66417W        W34811   2.753  22.576   0.389
66418W        W34812  37.486  37.273   3.606
66419W        W34813   1.615  29.616   3.362
66420W        W34814  20.192  29.884   1.140
66421W        W34815  23.030   2.946   1.748
66422W        W34816  18.479  28.484   2.770
66423W        W34817  32.377  44.668  14.741
66424W        W34818  43.430  40.916   2.316
66425W        W34819  32.134  10.328   4.144
66426W        W34820   8.934  28.868   0.259
66427W        W34821  40.880  18.213   2.867
66428W        W34822  29.046  44.051   3.707
66429W        W34823  25.083  25.008   2.011
66430W        W34824  12.041  38.085   1.865
66431W        W34825  17.501  10.801   3.679
66432W        W34826  28.909  16.264  14.812
66433W        W34827  38.360  16.874  11.138
66434W        W34828  24.011   6.477   3.896
66435W        W34829  31.912  16.406  11.576
66436W        W34830  33.385  36.053  12.855
66437W        W34831  18.933  35.507  10.052
66438W        W34832  43.073  40.064   5.010
66439W        W34833  32.610  40.778  12.057
66440W        W34834  28.940   3.846  14.501
66441W        W34835  42.224  38.606   0.993
66442W        W34836  13.161  20.140   0.442
66443W        W34837   1.741  44.928  10.559
66444W        W34838   8.774  22.154  13.071
66445W        W34839  29.682  14.586  12.862
66446W        W34840  15.070  32.778   3.601
66447W        W34841  14.920  28.170  14.507
66448W        W34842  43.394  25.265  13.004
66449W        W34843   6.799  29.089  12.090
66450W        W34844  14.077  42.052  12.198
66451W        W34845  35.541  23.780   2.113
66452W        W34846  39.003  18.043  14.831
66453W        W34847  15.001  41.296   2.594
66454W        W34848  37.738  24.507  10.778
66455W        W34849  41.571  44.038  13.142
66456W        W34850  20.819   2.755   0.794
66457W        W34851  10.823   1.720  14.001
66458W        W34852  13.429  17.206   4.984
66459W        W34853   6.728   6.155   3.206
66460W        W34854  21.040  22.837  14.964
66461W        W34855  35.474  40.960   2.173
66462W        W34856  25.176   9.183   4.500
66463W        W34857  39.371  27.535  12.977
66464W        W34858  31.684  13.264   4.703
66465W        W34859  15.236  13.914  10.763
66466W        W34860  35.645  17.605   5.053
66467W        W34861  37.839  42.314  13.981
66468W        W34862  31.532  13.744   1.519
66469W        W34863  15.051  44.830  10.436
66470W        W34864  20.607  26.554   3.343
66471W        W34865   5.146  29.303  10.874
66472W        W34866   2.962  10.094   3.679
66473W        W34867   9.188   2.011  13.844
66474W        W34868  30.265  11.883  10.861
66475W        W34869  40.271  38.843   2.668
66476W        W34870  31.563  35.126   4.749
66477W        W34871  19.894   3.889  14.397
66478W        W34872  13.305  33.772  12.568
66479W        W34873  18.703   1.288   2.784
66480W        W34874   2.176  37.396  11.008
66481W        W34875  24.399  41.062   3.728
66482W        W34876  29.523  32.664  12.174
66483W        W34877  15.021  31.852   4.517
66484W        W34878  25.555   3.804   1.838
66485W        W34879  25.525  33.251  10.399
66486W        W34880   5.205   4.863  14.556
66487W        W34881  14.382  34.381   3.340
66488W        W34882  20.277  23.178  11.568
66489W        W34883   9.181  34.307  12.170
66490W        W34884  41.534   0.937   4.199
66491W        W34885  19.452  24.250  11.063
66492W        W34886  13.633  14.093   0.868
66493W        W34887  34.631  42.329  11.083
66494W        W34888  39.047  20.748  14.941
66495W        W34889  34.137  32.149  11.363
66496W        W34890   5.774  26.990   0.261
66497W        W34891  39.993  34.689   3.283
66498W        W34892  31.251   0.468   3.596
66499W        W34893  21.695  42.974  10.507
66500W        W34894  11.564   5.416   4.915
66501W        W34895  10.180   8.880  13.954
66502W        W34896  43.990  29.407   3.344
66503W        W34897  22.712  35.180  12.466
66504W        W34898  26.808  39.483   1.215
66505W        W34899  25.070  29.482  11.158
66506W        W34900  22.864  26.892   3.782
66507W        W34901  30.327  38.924  11.891
66508W        W34902  33.888   9.917   0.396
66509W        W34903  39.024  31.979  11.975
66510W        W34904  32.310   1.422  12.333
66511W        W34905  25.289   1.432  11.669
66512W        W34906  37.422  21.110   0.723
66513W        W34907  11.290  11.708   1.237
66514W        W34908   9.610   1.767   2.664
66515W        W34909  29.401   5.398   3.761
66516W        W34910  35.084  28.568   4.922
66517W        W34911  43.661  28.354   1.878
66518W        W34912  20.746  32.956   3.426
66519W        W34913   0.677  43.945  13.910
66520W        W34914  16.425  14.296   2.220
66521W        W34915  21.107   1.225   2.307
66522W        W34916   0.042  22.076  11.107
66523W        W34917  13.699  34.503  12.923
66524W        W34918  26.504  23.263   4.544
66525W        W34919  11.292  17.600  12.387
66526W        W34920  14.373   8.274   4.122
66527W        W34921  40.723  40.568   4.203
66528W        W34922  11.418  23.045  12.012
66529W        W34923  44.321  34.507   4.335
66530W        W34924  13.451   7.206   3.974
66531W        W34925   5.859  20.557  14.913
66532W        W34926  25.040  32.593   3.243
66533W        W34927  20.885   5.389   3.319
66534W        W34928   8.323  37.860  12.466
66535W        W34929   4.311  30.166   0.789
66536W        W34930  10.253  34.827   2.370
66537W        W34931  44.672  22.129   1.755
66538W        W34932  18.939  44.512   4.987
66539W        W34933   4.913  11.242  11.737
66540W        W34934  18.996  11.286  12.386
66541W        W34935  17.997  16.305   4.522
66542W        W34936  34.051  12.116  13.064
66543W        W34937  15.629  33.393   2.753
66544W        W34938   0.206  26.499   2.280
66545W        W34939  31.986  26.596   3.144
66546W        W34940  10.694  25.617  14.901
66547W        W34941  29.390   0.791  14.962
66548W        W34942  16.487  10.748   3.780
66549W        W34943  41.347  44.945  12.941
66550W        W34944  33.185  25.064  11.016
66551W        W34945  29.536   0.506  14.495
66552W        W34946  21.526  41.817  12.467
66553W        W34947  15.381  32.220  14.360
66554W        W34948  19.476   1.217   4.537
66555W        W34949  44.986   5.410  11.092
66556W        W34950  16.045  24.470   0.040
66557W        W34951  31.190  43.836   1.301
66558W        W34952  25.938   3.077   3.595
66559W        W34953  15.805   8.183   4.608
66560W        W34954  35.363  32.476  12.410
66561W        W34955  38.986   2.158  14.290
66562W        W34956  16.636  10.317   0.193
66563W        W34957  38.440  10.847  11.052
66564W        W34958  34.127   6.746   1.051
66565W        W34959  26.691   0.614   3.726
66566W        W34960   1.476  26.645   4.821
66567W        W34961  36.994  34.574   3.136
66568W        W34962  14.191  29.430  14.124
66569W        W34963  38.816  23.632   4.378
66570W        W34964  37.842  25.919   0.261
66571W        W34965  22.518  25.712   2.233
66572W        W34966  14.835  42.746   4.174
66573W        W34967  28.907  26.470   1.800
66574W        W34968   3.277  28.041  14.767
66575W        W34969  16.283  37.105  13.906
66576W        W34970  39.779  28.128  14.553
66577W        W34971  19.750  34.121   2.552
66578W        W34972  40.950   2.517  13.930
66579W        W34973  33.581  15.809   2.117
66580W        W34974  17.086  40.937   4.749
66581W        W34975  14.778  13.655   2.668
66582W        W34976  42.572   6.455  13.794
66583W        W34977  36.047  21.475   0.944
66584W        W34978   9.152  24.303   3.332
66585W        W34979  35.220  12.877   2.558
66586W        W34980  37.622  41.385  12.945
66587W        W34981   3.371  19.548  14.744
66588W        W34982   5.721   2.693   0.005
66589W        W34983   6.913  37.396   3.375
66590W        W34984  36.118  29.527   1.268
66591W        W34985  11.608   3.759  12.997
66592W        W34986  22.774  14.625   2.192
66593W        W34987  33.648  35.711  14.932
66594W        W34988  20.251   8.200  11.641
66595W        W34989  30.417  28.053  14.729
66596W        W34990  44.624  25.455  11.550
66597W        W34991  12.223  31.984   4.258
66598W        W34992  37.383  35.759  12.039
66599W        W34993  28.409  20.151   2.785
66600W        W34994  33.607  44.800  14.557
66601W        W34995  35.602  35.338   1.325
66602W        W34996   2.227  40.859   3.137
66603W        W34997  17.687  20.116  10.056
66604W        W34998  19.089  15.865  11.042
66605W        W34999  41.881  13.389  14.944
66606W        W35000  34.462  41.363   4.420
66607W        W35001  33.358  37.310   3.030
66608W        W35002  22.451  27.748  11.120
66609W        W35003   7.657   4.860  12.642
66610W        W35004   7.479  39.985  11.913
66611W        W35005   3.376  29.593   2.906
66612W        W35006  29.033  17.081  14.387
66613W        W35007  21.652  17.012  11.994
66614W        W35008   1.934  35.686  11.199
66615W        W35009  30.133  44.718   3.167
66616W        W35010  43.346  10.752   1.365
66617W        W35011  22.202  24.177  11.996
66618W        W35012  15.294   3.853  11.464
66619W        W35013  20.174   2.328  10.285
66620W        W35014  18.815   8.768   1.269
66621W        W35015  33.960  30.344  13.762
66622W        W35016  28.929   1.453   2.746
66623W        W35017  10.264  39.548  11.101
66624W        W35018  24.975  26.096  11.560
66625W        W35019  41.325   2.645   3.418
66626W        W35020  36.418  24.283  13.502
66627W        W35021  11.272  10.365  11.865
66628W        W35022  34.927  44.664  10.771
66629W        W35023  11.903  40.437  12.831
66630W        W35024  32.024  37.269   9.537
66631W        W35025  39.486  10.860  12.546
66632W        W35026  13.333  34.545   4.339
66633W        W35027  10.317  14.942   1.994
66634W        W35028  12.376  20.061  12.005
66635W        W35029   8.895  35.346   4.638
66636W        W35030  16.906  13.673  12.039
66637W        W35031  34.786   2.288  12.972
66638W        W35032  29.867   9.632  11.569
66639W        W35033  21.096   4.968  12.955
66640W        W35034  10.188  44.939   0.719
66641W        W35035   4.401  43.681  12.552
66642W        W35036  42.250  15.635   0.353
66643W        W35037  31.412  23.505   1.789
66644W        W35038  36.373  13.877   4.635
66645W        W35039  20.515  14.632  10.482
66646W        W35040   1.970  13.518   0.866
66647W        W35041  24.746  31.939   2.805
66648W        W35042   0.481  13.394   1.826
66649W        W35043  36.548  23.495   2.250
66650W        W35044   4.657  25.296   4.990
66651W        W35045  37.173  21.151  10.840
66652W        W35046  21.419   4.833   3.884
66653W        W35047  25.012   7.110   0.294
66654W        W35048  31.962   4.103   1.113
66655W        W35049  27.058  38.761   1.882
66656W        W35050  35.180   9.793   3.220
66657W        W35051  19.525   3.292   1.644
66658W        W35052   1.936  33.345   0.253
66659W        W35053  43.072  16.981   5.095
66660W        W35054   4.679   0.945  13.210
66661W        W35055   3.395  16.182   4.063
66662W        W35056   3.391  38.324  13.084
66663W        W35057   4.465   3.966  11.905
66664W        W35058  42.577  27.746  12.972
66665W        W35059  14.261  10.244  11.533
66666W        W35060   9.360   1.787   0.964
66667W        W35061  15.349  19.965   3.909
66668W        W35062  15.560  22.589   1.942
66669W        W35063   4.832   4.022  11.511
66670W        W35064  29.702  26.553   3.649
66671W        W35065  31.067  20.688   1.202
66672W        W35066   9.814   0.275   1.410
66673W        W35067  10.597  13.617   2.063
66674W        W35068  12.356  18.761   4.238
66675W        W35069   8.967  23.637   3.684
66676W        W35070  36.521  18.072   2.705
66677W        W35071   2.160  36.941  10.705
66678W        W35072   6.051   7.291   4.949
66679W        W35073  42.773   5.733   4.759
66680W        W35074   1.310  42.720  14.529
66681W        W35075  22.523   6.704   4.660
66682W        W35076  17.237   7.309   3.132
66683W        W35077  14.326   0.864  12.556
66684W        W35078  26.086  18.182  12.542
66685W        W35079   4.947  38.802  14.347
66686W        W35080  34.747  41.460   3.026
66687W        W35081   2.020  14.027  12.835
66688W        W35082  27.632  17.124   1.975
66689W        W35083  37.463  14.279  10.861
66690W        W35084   2.624   2.469   3.566
66691W        W35085   4.674   3.235  12.811
66692W        W35086  19.707  26.384   0.272
66693W        W35087  28.949   0.738   0.727
66694W        W35088  24.590  23.749  11.676
66695W        W35089  32.963  17.744  12.512
66696W        W35090  22.979   9.267   1.285
66697W        W35091  28.606  36.845  13.366
66698W        W35092  28.068  36.506   5.041
66699W        W35093  17.389  28.480  14.932
66700W        W35094  42.684  32.373  14.497
66701W        W35095   3.771  33.010  10.839
66702W        W35096   5.130   5.311  14.287
66703W        W35097  13.272  28.585  12.539
66704W        W35098  24.929  14.676   2.840
66705W        W35099  34.419  30.522   2.574
66706W        W35100  38.150   5.278   1.339
66707W        W35101  43.444  35.198   1.945
66708W        W35102  10.714  16.295   4.662
66709W        W35103  12.079  27.014   1.900
66710W        W35104  39.401  31.163  12.931
66711W        W35105  30.719  13.572   2.203
66712W        W35106   9.330  15.902  13.933
66713W        W35107  21.278  42.559  11.996
66714W        W35108   8.826   7.347   4.664
66715W        W35109  18.279  24.112  13.749
66716W        W35110  19.368  17.770  11.985
66717W        W35111  15.611  36.962   4.658
66718W        W35112  32.456  20.739   0.945
66719W        W35113   9.938  42.673  11.533
66720W        W35114  36.009  20.559  10.776
66721W        W35115   2.310  16.114  14.680
66722W        W35116  37.944  42.279   0.832
66723W        W35117  15.630  15.586  12.304
66724W        W35118  22.332   0.389   3.694
66725W        W35119   6.623   3.757  11.024
66726W        W35120  42.338  14.226  10.371
66727W        W35121  17.914  12.830  14.034
66728W        W35122  37.248   8.398  14.046
66729W        W35123  33.809  20.179  13.321
66730W        W35124  25.429  27.575  13.362
66731W        W35125  12.952  32.310   1.965
66732W        W35126  12.648  35.403  13.095
66733W        W35127  15.198  30.622   3.984
66734W        W35128  42.062  23.258   1.336
66735W        W35129  36.092  15.625   0.184
66736W        W35130  30.608  10.782   3.289
66737W        W35131  35.050  11.734  11.634
66738W        W35132  19.660  25.190   4.956
66739W        W35133  25.079  10.184  13.840
66740W        W35134   0.306  42.017   4.469
66741W        W35135  29.738   6.345  12.612
66742W        W35136  19.767  24.640   1.942
66743W        W35137  36.466  21.164  11.271
66744W        W35138   5.227  17.667  12.961
66745W        W35139   2.782  20.521  12.108
66746W        W35140  37.350  37.510   2.794
66747W        W35141  32.758  22.612   1.947
66748W        W35142  11.612  35.290  13.412
66749W        W35143  39.070  23.522  13.918
66750W        W35144  14.380  24.294  12.469
66751W        W35145  27.545  40.415  12.133
66752W        W35146  23.667  38.395   0.157
66753W        W35147  11.098  34.643  13.343
66754W        W35148  32.440   0.082  11.625
66755W        W35149  21.817  21.195  14.460
66756W        W35150  11.086  14.334   3.315
66757W        W35151   1.412  41.224  11.187
66758W        W35152  17.497  13.260  12.342
66759W        W35153   8.737  40.839  13.911
66760W        W35154  22.599  39.400   1.852
66761W        W35155   5.335  26.839   2.814
66762W        W35156  19.450  30.329  14.484
66763W        W35157  17.734   5.244   4.507
66764W        W35158  21.611  17.612   4.720
66765W        W35159  23.255  16.213   0.867
66766W        W35160  31.543  10.811   3.731
66767W        W35161  34.280  38.816  11.916
66768W        W35162  21.945   6.928  11.757
66769W        W35163  30.930   0.346  14.077
66770W        W35164  35.878  42.477  13.331
66771W        W35165  20.915  36.303  11.085
66772W        W35166  19.211  18.768   5.548
66773W        W35167  32.560   5.023  10.362
66774W        W35168   2.864   4.645   1.010
66775W        W35169  32.658  29.903   0.804
66776W        W35170  25.720  30.266   2.659
66777W        W35171  27.178   1.578   3.779
66778W        W35172  30.835  16.582   2.688
66779W        W35173  28.916  36.353   4.583
66780W        W35174  36.198  17.624  13.837
66781W        W35175  22.545  21.389  10.554
66782W        W35176  28.559  10.317  12.834
66783W        W35177  19.664  43.386   2.889
66784W        W35178   4.264  14.653  12.514
66785W        W35179  14.697  34.681   5.005
66786W        W35180  40.555  44.793  13.311
66787W        W35181  35.417  20.688   4.255
66788W        W35182  15.675  21.737  12.432
66789W        W35183  44.552  18.158   2.663
66790W        W35184  18.076   2.917   4.038
66791W        W35185   6.208   0.908  10.910
66792W        W35186  36.488   8.696  12.112
66793W        W35187  22.111  26.889  11.978
66794W        W35188   5.912  11.936  11.958
66795W        W35189   3.765  29.118   4.420
66796W        W35190  10.386  33.675  11.177
66797W        W35191  37.332   4.243  13.566
66798W        W35192  22.233  32.205   1.920
66799W        W35193   3.826  29.084   3.902
66800W        W35194  32.324  38.954  10.784
66801W        W35195  38.815  13.682   4.781
66802W        W35196   1.941   9.041  13.751
66803W        W35197  12.371   8.328  11.882
66804W        W35198  42.832  28.230  12.909
66805W        W35199  24.927  24.340  14.824
66806W        W35200  16.734   7.909   4.623
66807W        W35201  18.372  23.658   4.824
66808W        W35202  16.214  32.508   2.779
66809W        W35203   3.696   5.889   3.207
66810W        W35204  17.088  34.022   2.848
66811W        W35205  13.097  37.975   4.642
66812W        W35206  29.552  26.920   0.759
66813W        W35207  21.736   4.221  11.940
66814W        W35208  13.263  34.116  10.806
66815W        W35209  44.810  17.758  10.518
66816W        W35210  16.077  25.601  10.997
66817W        W35211  18.850   4.243  11.135
66818W        W35212  23.154   4.241  12.651
66819W        W35213   8.357  28.380  11.352
66820W        W35214  21.614  26.975   4.589
66821W        W35215   4.435  35.057  11.414
66822W        W35216  21.325   3.179   4.168
66823W        W35217  38.873  28.992   3.480
66824W        W35218  39.361  26.665  14.586
66825W        W35219  34.519  22.546  13.810
66826W        W35220  19.594   6.201  11.709
66827W        W35221  44.144   9.334  11.162
66828W        W35222  35.931  31.683   0.426
66829W        W35223  44.447  43.205  12.484
66830W        W35224  38.892  34.861  12.843
66831W        W35225  17.516  29.429   0.921
66832W        W35226  20.035  14.288  14.754
66833W        W35227  28.659  34.075  14.437
66834W        W35228  35.044   4.029  11.236
66835W        W35229   8.815  27.430   1.363
66836W        W35230   8.814  31.978  14.067
66837W        W35231  25.674   7.487   1.726
66838W        W35232  41.555  35.101   4.198
66839W        W35233  29.371   8.856  14.605
66840W        W35234   2.344  35.771  10.699
66841W        W35235   9.226   6.644   2.612
66842W        W35236  24.016   2.441   4.538
66843W        W35237  18.725  11.611   3.350
66844W        W35238  10.508  24.926  10.608
66845W        W35239  18.289  39.071   2.737
66846W        W35240  34.602  36.029  11.247
66847W        W35241   5.385  40.453   2.821
66848W        W35242  33.312  19.248   2.843
66849W        W35243  34.734  14.371  12.103
66850W        W35244  16.107   8.807  11.138
66851W        W35245  31.265  39.538   3.853
66852W        W35246  37.124  17.263   4.636
66853W        W35247  44.777  26.952  10.472
66854W        W35248   1.058  16.000  11.570
66855W        W35249   7.671  21.269  11.935
66856W        W35250  34.368  40.811  11.248
66857W        W35251  15.295  24.493  14.343
66858W        W35252  26.491  24.640  14.052
66859W        W35253  27.587  28.408   3.655
66860W        W35254   2.648   2.689  12.809
66861W        W35255   3.278  22.543   2.887
66862W        W35256  30.571  37.856  11.388
66863W        W35257  37.096  28.727  12.907
66864W        W35258  37.838  12.218  11.693
66865W        W35259   5.425  29.939   4.787
66866W        W35260  36.755  30.605  12.266
66867W        W35261  28.016  38.936  12.577
66868W        W35262   3.776  13.752   1.194
66869W        W35263  16.530  34.894  12.848
66870W        W35264  13.084  29.949  14.227
66871W        W35265  17.814   8.324  13.002
66872W        W35266   7.502  18.144   1.277
66873W        W35267  43.769   1.720  14.434
66874W        W35268  27.680  29.959  14.865
66875W        W35269   5.877  30.778  11.674
66876W        W35270  26.522  25.995   3.880
66877W        W35271   1.306  19.736   3.131
66878W        W35272  11.916  28.663  14.939
66879W        W35273  31.943  23.963  12.047
66880W        W35274  10.014  17.368  11.891
66881W        W35275  21.560   8.107  12.655
66882W        W35276  16.399  43.441   0.116
66883W        W35277  44.888   3.434   0.202
66884W        W35278  10.366  37.369   2.682
66885W        W35279   2.474   3.298  11.135
66886W        W35280  39.341  10.133   2.196
66887W        W35281  23.093  24.948  10.909
66888W        W35282  19.619   7.151  12.405
66889W        W35283  44.889   3.353   3.704
66890W        W35284  42.295  43.942   2.199
66891W        W35285  19.252   2.579   4.649
66892W        W35286  30.143  31.156   2.438
66893W        W35287  39.070  34.366  14.872
66894W        W35288  17.157  42.130   2.949
66895W        W35289  23.095  41.574  10.802
66896W        W35290  39.393  37.577   0.543
66897W        W35291  20.090   8.830  14.912
66898W        W35292   1.029   8.712   2.933
66899W        W35293   7.342  29.347   2.320
66900W        W35294   0.444  36.874   0.153
66901W        W35295  40.991   5.946   4.450
66902W        W35296   6.976  22.999   0.158
66903W        W35297  32.987  28.145   3.606
66904W        W35298  31.457  35.948  12.767
66905W        W35299  42.129   3.240   5.233
66906W        W35300   1.235  28.221   0.285
66907W        W35301  12.834   6.666   0.277
66908W        W35302  38.620  38.952   1.808
66909W        W35303  42.099  36.153  12.135
66910W        W35304  10.821  25.962  11.950
66911W        W35305  11.845  27.643   4.585
66912W        W35306  41.771  23.526  12.024
66913W        W35307   8.023  16.648   4.477
66914W        W35308  34.824   9.305   4.365
66915W        W35309  10.404  10.185   0.451
66916W        W35310  39.989  12.817   4.073
66917W        W35311   8.801   3.826  11.541
66918W        W35312  22.455  34.267  13.452
66919W        W35313  32.490  23.984  12.469
66920W        W35314  31.545  16.836   4.417
66921W        W35315  10.297  18.104  14.864
66922W        W35316  26.113  44.897  13.149
66923W        W35317  31.141  41.319   4.299
66924W        W35318  38.804  18.217  10.444
66925W        W35319  37.245   0.500  10.693
66926W        W35320  21.127   7.161   0.375
66927W        W35321   6.092  10.061  11.976
66928W        W35322  18.089  39.453   1.873
66929W        W35323  11.583  11.813   3.272
66930W        W35324  30.446  18.244   4.344
66931W        W35325  16.744   2.779   2.781
66932W        W35326  17.435   4.296   1.585
66933W        W35327  31.521  31.535   0.911
66934W        W35328  42.978   7.504  13.021
66935W        W35329  19.830   4.815  12.376
66936W        W35330  43.561  39.848  12.936
66937W        W35331   9.617  20.295   4.072
66938W        W35332  24.922  35.111   1.870
66939W        W35333  13.766   2.232   0.274
66940W        W35334  30.484  32.660   2.734
66941W        W35335   7.900  21.490  11.534
66942W        W35336   4.820   9.830   2.831
66943W        W35337  32.139  38.145   2.193
66944W        W35338  41.555   7.236  12.060
66945W        W35339  44.727  21.893   3.969
66946W        W35340  34.571  13.108  14.247
66947W        W35341   5.941  20.529  11.254
66948W        W35342  36.439  42.769  14.529
66949W        W35343   4.433   9.472   1.349
66950W        W35344  14.724   0.347  11.087
66951W        W35345  33.891  37.610   0.825
66952W        W35346  38.024  21.597  10.734
66953W        W35347   7.892   2.386   3.146
66954W        W35348  37.080  31.131   2.211
66955W        W35349  33.707  32.449   2.305
66956W        W35350  30.941   5.533   4.600
66957W        W35351  12.710  42.409  14.379
66958W        W35352  42.366   1.493  13.076
66959W        W35353  25.862  31.473  14.516
66960W        W35354  25.768  24.012   3.264
66961W        W35355  22.566   4.790  11.741
66962W        W35356   3.351  31.867  13.013
66963W        W35357  24.709  27.794  12.596
66964W        W35358  31.993  27.134   0.302
66965W        W35359   0.319  35.521   4.878
66966W        W35360  38.330   3.149  11.061
66967W        W35361  29.366   0.910  11.267
66968W        W35362  22.812  20.138   1.349
66969W        W35363  33.529  41.526   1.712
66970W        W35364  32.628  14.208   0.686
66971W        W35365  15.516   4.411  13.402
66972W        W35366   8.872  43.515  13.616
66973W        W35367  13.515  21.802  12.949
66974W        W35368  21.055  29.503   0.387
66975W        W35369   3.921   3.291   1.390
66976W        W35370  34.418  24.972   0.822
66977W        W35371  36.615   1.424   1.344
66978W        W35372  36.161  27.000   4.674
66979W        W35373  26.212  41.547   3.724
66980W        W35374  42.811   2.626   4.334
66981W        W35375  39.978   7.813   2.284
66982W        W35376   6.214  21.493   3.166
66983W        W35377  38.042  22.717  11.097
66984W        W35378  22.165  28.977   9.891
66985W        W35379  11.741  20.498  12.603
66986W        W35380  25.626  15.132   3.401
66987W        W35381  17.787  39.858   3.708
66988W        W35382  32.621  19.662  14.238
66989W        W35383   1.790  36.933  12.197
66990W        W35384  18.501  43.898   0.534
66991W        W35385  44.718   8.942  14.423
66992W        W35386   7.491  30.946  13.537
66993W        W35387  36.916  24.289   4.286
66994W        W35388  12.462  22.425   2.130
66995W        W35389   1.686  33.037   4.850
66996W        W35390  15.199  27.298  11.562
66997W        W35391  32.478  28.440   0.929
66998W        W35392  13.757   5.113   4.602
66999W        W35393  34.490  30.185  13.021
67000W        W35394  33.689   2.523  14.131
67001W        W35395  33.448  32.022   1.900
67002W        W35396  19.132  43.389  12.611
67003W        W35397  12.181   1.716  11.424
67004W        W35398  23.049  38.401  12.894
67005W        W35399  35.001   2.811   2.242
67006W        W35400  41.286  43.002  12.385
67007W        W35401  30.449   9.677   3.249
67008W        W35402  37.275  34.583   2.187
67009W        W35403   4.644  36.091   3.878
67010W        W35404  29.444  21.647  12.105
67011W        W35405  44.611   3.218   4.279
67012W        W35406  16.521   6.898   0.868
67013W        W35407  37.612  33.299   1.719
67014W        W35408   6.237  18.156   3.172
67015W        W35409  12.447  42.733   4.254
67016W        W35410  14.689  18.465  10.194
67017W        W35411  35.048   6.332   0.291
67018W        W35412  40.594  13.320   1.766
67019W        W35413  26.591  16.245   1.838
67020W        W35414   7.632  15.704   4.069
67021W        W35415  18.281  33.912  10.800
67022W        W35416  37.960  29.554   0.338
67023W        W35417  26.137  42.675   1.727
67024W        W35418   1.304  43.722  12.375
67025W        W35419   4.676  25.462   0.835
67026W        W35420  19.776   1.519   0.537
67027W        W35421  34.098  28.193  11.561
67028W        W35422  27.050  35.046   0.043
67029W        W35423  36.261  35.196  14.107
67030W        W35424  36.515   9.948  11.066
67031W        W35425  20.330  38.031   4.983
67032W        W35426   2.896  35.206  11.105
67033W        W35427  31.564  20.526  13.903
67034W        W35428  40.138  36.119   4.132
67035W        W35429  32.498  18.870  11.582
67036W        W35430  14.838   0.614  13.891
67037W        W35431  36.293   0.482   1.435
67038W        W35432   8.573  20.504  11.515
67039W        W35433  14.750  40.956   4.801
67040W        W35434  36.270  14.605   0.868
67041W        W35435  13.622  39.958  12.088
67042W        W35436  29.978   2.379  14.855
67043W        W35437  15.590  23.037  10.728
67044W        W35438  43.302  32.157   0.623
67045W        W35439   2.876  38.279  14.956
67046W        W35440   9.798  41.867  11.509
67047W        W35441  43.982  24.846   1.163
67048W        W35442  26.161  24.025  14.789
67049W        W35443  34.854  27.777  14.007
67050W        W35444  15.417  27.917   2.263
67051W        W35445  36.642   8.189   0.365
67052W        W35446  17.155  42.335  10.600
67053W        W35447  26.947  10.339   2.310
67054W        W35448  31.013  23.084  12.001
67055W        W35449   1.820  10.260  11.198
67056W        W35450  33.592  29.693   3.312
67057W        W35451   1.455  39.104  13.737
67058W        W35452  15.790  19.743   3.696
67059W        W35453  23.613  22.333  14.898
67060W        W35454  26.382  32.460   3.804
67061W        W35455  28.710  28.711   2.845
67062W        W35456   3.260  37.550   0.476
67063W        W35457   3.390  10.318   2.833
67064W        W35458  10.776  15.266  10.752
67065W        W35459  35.626   0.688   2.781
67066W        W35460  29.954   7.832   4.095
67067W        W35461  42.163  30.758   4.247
67068W        W35462   2.769   3.980   2.630
67069W        W35463  23.978  37.543   5.054
67070W        W35464   8.586   2.391  12.490
67071W        W35465  38.894  31.797   1.224
67072W        W35466  15.174  11.584  12.040
67073W        W35467  21.636  26.282  10.029
67074W        W35468  17.404  40.457   3.281
67075W        W35469  35.435  29.171   1.947
67076W        W35470  31.998   5.163  10.948
67077W        W35471  29.518  28.546   4.086
67078W        W35472  10.409  25.484  14.381
67079W        W35473   8.135  15.941  12.180
67080W        W35474  40.905  33.247   4.043
67081W        W35475  20.696  11.577  10.400
67082W        W35476  25.472  20.819  13.559
67083W        W35477   8.128  43.217   2.266
67084W        W35478   5.907  33.811  12.036
67085W        W35479  33.314  24.292   2.740
67086W        W35480  16.979  12.089   1.512
67087W        W35481  26.004  43.442   0.764
67088W        W35482  17.022   9.751  13.033
67089W        W35483  20.569  27.370  11.007
67090W        W35484  29.116  30.490   0.338
67091W        W35485   7.142  37.046  11.581
67092W        W35486  24.541  38.992  14.446
67093W        W35487   9.904  33.131  13.074
67094W        W35488  26.482  37.872   3.886
67095W        W35489  19.954  11.170   1.955
67096W        W35490  36.534  18.562  13.357
67097W        W35491  38.843   4.270   2.911
67098W        W35492   6.387   4.313   3.305
67099W        W35493  20.053   9.168  12.495
67100W        W35494   9.867   4.858   2.526
67101W        W35495  24.126  13.897  12.999
67102W        W35496  41.789  40.369  14.628
67103W        W35497  11.584   9.050   2.792
67104W        W35498   1.224  38.307  13.013
67105W        W35499  13.281  23.118   3.047
67106W        W35500  34.598  34.222   2.221
67107W        W35501   7.745   6.872  11.000
67108W        W35502  41.288  21.583  11.774
67109W        W35503  21.527   8.662   1.942
67110W        W35504  16.634   5.639   2.431
67111W        W35505  10.357   0.896   4.655
67112W        W35506  38.295   7.742   1.274
67113W        W35507  34.487  41.413  14.268
67114W        W35508   4.580  20.967   4.931
67115W        W35509   2.519  12.476  13.344
67116W        W35510  18.011   4.918   0.849
67117W        W35511  26.671  16.113   3.309
67118W        W35512  26.364  36.646  12.224
67119W        W35513  32.135  34.100   4.094
67120W        W35514   7.628  42.502   4.637
67121W        W35515  14.330  22.226   2.740
67122W        W35516  29.874  41.023  10.614
67123W        W35517   8.763  15.251  12.578
67124W        W35518  14.203  26.227   1.252
67125W        W35519  12.091  28.284  11.808
67126W        W35520  31.648  29.975  13.942
67127W        W35521  24.762   2.504   1.128
67128W        W35522  21.522  36.424   3.377
67129W        W35523  19.617  34.563   2.843
67130W        W35524  18.839  36.824   1.893
67131W        W35525   0.511  43.865  11.205
67132W        W35526  43.772  35.480  12.622
67133W        W35527  30.292  26.233  14.048
67134W        W35528  21.769  41.479   4.226
67135W        W35529  27.455  31.787  14.058
67136W        W35530  27.093   6.696   3.205
67137W        W35531  19.768  23.772   3.577
67138W        W35532   7.480  38.199   1.499
67139W        W35533  22.770  43.468  14.477
67140W        W35534  13.184   1.211   1.925
67141W        W35535  40.755  16.190  11.058
67142W        W35536  19.639   2.007   1.457
67143W        W35537   3.994  21.635   1.859
67144W        W35538  31.276  44.999  13.951
67145W        W35539  37.444  12.230   4.674
67146W        W35540  27.279  35.695  13.837
67147W        W35541  40.491   9.661   0.892
67148W        W35542  41.292   6.043   1.148
67149W        W35543  10.115  23.174   3.328
67150W        W35544   1.821   0.789   3.205
67151W        W35545  15.754  42.205   4.990
67152W        W35546  25.994  20.320  14.903
67153W        W35547  31.573   5.824   1.507
67154W        W35548  35.525  38.301  13.800
67155W        W35549   9.808  30.235   4.188
67156W        W35550  39.552  26.877   1.883
67157W        W35551  25.996  41.761  10.265
67158W        W35552  18.863  28.427  11.622
67159W        W35553  44.232  18.207   0.941
67160W        W35554  38.007  42.770   0.358
67161W        W35555   6.260  35.067   4.615
67162W        W35556  36.993  32.916   2.738
67163W        W35557  15.245  22.013  12.419
67164W        W35558  43.050  44.942   0.455
67165W        W35559   3.962  32.624  14.889
67166W        W35560  19.936  12.800  12.595
67167W        W35561  14.917  24.129  14.307
67168W        W35562  16.979  16.680   5.323
67169W        W35563  21.719  23.022   4.385
67170W        W35564  13.770  40.638   0.403
67171W        W35565  22.693  31.687  10.691
67172W        W35566  18.698  29.633   2.735
67173W        W35567   8.718  13.146  12.485
67174W        W35568   7.204  16.478  13.810
67175W        W35569   0.762  10.953  14.768
67176W        W35570   0.688   0.279  13.462
67177W        W35571  40.913  39.859   2.829
67178W        W35572   7.905  32.463   1.253
67179W        W35573  39.063  33.943  14.553
67180W        W35574   2.829  27.413   3.245
67181W        W35575  21.065  30.911   0.430
67182W        W35576  33.309  20.512  10.237
67183W        W35577  18.704  35.793  13.705
67184W        W35578  44.549  19.587  13.413
67185W        W35579  26.882  14.984   2.154
67186W        W35580  14.725   5.201   4.573
67187W        W35581  14.257   0.410   1.896
67188W        W35582   5.375  18.685   2.730
67189W        W35583  26.180   2.314   3.055
67190W        W35584  22.746  23.585   0.217
67191W        W35585   9.801  16.540   2.880
67192W        W35586  33.084   7.180   2.334
67193W        W35587   3.298  10.139   4.197
67194W        W35588  14.697   5.211  12.859
67195W        W35589  36.850   6.713  12.895
67196W        W35590  28.883  32.873   3.197
67197W        W35591  12.676  30.186  12.323
67198W        W35592   3.901  25.196  11.182
67199W        W35593  21.980   1.461   0.955
67200W        W35594  38.494  34.772   3.890
67201W        W35595  36.340   4.952   3.634
67202W        W35596   1.047  26.230  13.771
67203W        W35597  18.596   7.010   4.764
67204W        W35598  20.177  25.522   1.618
67205W        W35599   0.058  23.757   4.279
67206W        W35600  24.184  17.174   2.856
67207W        W35601  35.565  19.122   4.452
67208W        W35602  26.543  43.851  11.583
67209W        W35603  38.021   1.189  12.445
67210W        W35604  35.567  23.571  10.741
67211W        W35605  19.619  43.963   0.188
67212W        W35606  42.441  30.825  14.886
67213W        W35607  30.896  38.968  11.232
67214W        W35608  24.100  16.779  14.227
67215W        W35609  10.589  33.485   0.600
67216W        W35610  36.245   2.270   5.035
67217W        W35611  38.026  10.425   3.152
67218W        W35612  42.923   9.229   2.355
67219W        W35613   8.903  19.124  12.686
67220W        W35614  31.196  23.073  10.986
67221W        W35615  33.447   9.930  13.089
67222W        W35616  29.203  41.880   0.876
67223W        W35617  25.155  28.155   2.506
67224W        W35618   2.888   4.682  12.428
67225W        W35619   8.931  36.451  10.673
67226W        W35620  38.489   4.488   4.250
67227W        W35621  17.837  31.130   1.897
67228W        W35622  40.859  12.187   1.907
67229W        W35623  25.474  43.936  11.539
67230W        W35624  24.658  27.446  14.514
67231W        W35625  12.329  30.576   0.028
67232W        W35626  18.534  37.514   2.263
67233W        W35627  34.518  32.571   2.807
67234W        W35628  27.128  19.031  13.053
67235W        W35629  12.854  39.427  13.460
67236W        W35630  25.733   3.912   2.911
67237W        W35631   2.702   6.708   3.774
67238W        W35632   3.966  20.353   2.268
67239W        W35633  24.158   9.730   0.194
67240W        W35634  13.673  19.752   4.595
67241W        W35635  18.564  30.816   1.418
67242W        W35636   6.180  10.275   1.250
67243W        W35637  23.275  33.356   4.096
67244W        W35638  16.619   9.053   9.804
67245W        W35639  15.445  27.121   1.912
67246W        W35640  12.534  38.131   2.034
67247W        W35641  25.640  31.040   4.904
67248W        W35642  11.145  16.117   2.902
67249W        W35643   3.691   1.349  12.115
67250W        W35644   6.501   0.910  11.334
67251W        W35645  34.216  31.514  13.535
67252W        W35646  44.852  24.203  10.653
67253W        W35647  18.740  43.707   3.865
67254W        W35648  39.266  43.286  10.465
67255W        W35649  38.981  43.285  14.912
67256W        W35650   7.463  24.541   3.989
67257W        W35651  16.218  14.239  14.684
67258W        W35652  15.123  28.827   1.883
67259W        W35653  10.134  19.137  13.849
67260W        W35654   7.686  37.505  12.924
67261W        W35655  42.588  18.219   3.810
67262W        W35656   2.552  28.329  10.228
67263W        W35657  32.519  38.422   0.384
67264W        W35658  23.010  30.535   4.101
67265W        W35659  17.966  31.627   0.358
67266W        W35660  44.827  44.470   2.542
67267W        W35661  10.680  16.946  11.195
67268W        W35662   7.991  34.472  11.099
67269W        W35663  12.149   6.973   2.879
67270W        W35664  39.767  29.395  12.931
67271W        W35665  29.681  15.907   0.159
67272W        W35666  35.121  27.509  13.500
67273W        W35667  25.108  16.246   0.460
67274W        W35668   5.914  27.343   2.214
67275W        W35669   7.508   9.478   0.394
67276W        W35670  10.437  22.722  14.507
67277W        W35671   4.680   8.631   1.588
67278W        W35672  11.113  33.884   4.666
67279W        W35673  36.903   8.546   2.693
67280W        W35674  44.928   6.090  14.989
67281W        W35675  41.975  30.448  13.982
67282W        W35676  41.469   7.890   0.997
67283W        W35677  40.591   6.099  14.816
67284W        W35678  10.763  16.544   0.288
67285W        W35679  28.713  42.879   1.719
67286W        W35680  14.723  23.019  12.592
67287W        W35681  17.201   3.870  14.859
67288W        W35682  15.747  33.677   2.324
67289W        W35683  25.110   8.719   5.037
67290W        W35684   8.680  27.671   0.898
67291W        W35685  31.678  22.687   0.516
67292W        W35686  40.941  11.289   0.718
67293W        W35687  27.419  18.428   4.284
67294W        W35688  41.461  25.374   1.876
67295W        W35689  35.895   3.201  10.941
67296W        W35690   0.524  22.917  14.717
67297W        W35691   4.594   0.100   3.739
67298W        W35692  13.572  42.259  12.035
67299W        W35693  44.458  14.286  11.727
67300W        W35694  17.824   8.216  10.718
67301W        W35695  14.524  30.297  12.560
67302W        W35696   3.190   0.475  12.474
67303W        W35697  21.804  34.752   5.062
67304W        W35698  26.088  30.442  10.977
67305W        W35699   4.095  41.900   2.784
67306W        W35700  24.477  28.771  12.422
67307W        W35701  12.264  41.459  12.599
67308W        W35702   9.213   1.500  10.562
67309W        W35703   1.406  27.594   3.180
67310W        W35704  19.627  32.347   1.307
67311W        W35705   0.904  39.621   3.812
67312W        W35706  37.595  38.957   3.175
67313W        W35707  40.052  22.071   2.501
67314W        W35708  19.657  38.892   3.700
67315W        W35709  34.385  29.483  11.425
67316W        W35710  28.357   0.808   2.357
67317W        W35711   8.406   3.403  12.904
67318W        W35712   5.751  14.211  11.905
67319W        W35713  44.885   2.758  13.017
67320W        W35714  12.752  22.181   0.677
67321W        W35715   7.844  39.920   4.519
67322W        W35716  18.569  38.488  11.178
67323W        W35717  29.535  39.409   4.749
67324W        W35718  35.783  13.756   4.637
67325W        W35719  17.483  40.046  14.755
67326W        W35720  44.323  32.529  10.661
67327W        W35721   0.250  23.070  11.154
67328W        W35722  17.784  12.959   3.594
67329W        W35723   9.777  35.980   3.872
67330W        W35724  10.544  34.180  14.329
67331W        W35725   8.387  42.102   0.766
67332W        W35726   7.271  36.621  12.601
67333W        W35727   2.018  23.322   4.363
67334W        W35728  29.495  20.506  13.394
67335W        W35729  33.955  30.745   4.301
67336W        W35730   9.452  41.674   5.058
67337W        W35731  20.364   9.450   1.935
67338W        W35732  31.657  10.063  11.383
67339W        W35733  43.588   2.875  14.266
67340W        W35734  18.675  17.069  11.015
67341W        W35735   3.942  36.887   3.746
67342W        W35736  38.584  24.702   3.284
67343W        W35737  31.076   4.184  13.420
67344W        W35738  23.291  38.068  13.707
67345W        W35739  32.289  25.680  14.894
67346W        W35740  32.413  28.153   3.655
67347W        W35741  43.578  44.782  13.336
67348W        W35742  35.999  42.529   3.017
67349W        W35743  33.404  30.489  11.782
67350W        W35744  15.813  22.739   2.836
67351W        W35745  11.268  29.452   3.781
67352W        W35746  33.620  10.857  14.762
67353W        W35747   4.758  31.104  12.157
67354W        W35748  26.226  29.160   3.679
67355W        W35749  40.678  39.569   5.708
67356W        W35750  24.548   8.894  12.147
67357W        W35751  12.687   9.210  11.187
67358W        W35752  12.902  32.542  13.429
67359W        W35753  20.841  26.150   4.043
67360W        W35754  20.840  32.850   4.444
67361W        W35755  29.105   8.597   3.144
67362W        W35756  28.028  26.961   0.147
67363W        W35757  18.668  17.513   4.190
67364W        W35758  34.841  44.398  11.634
67365W        W35759  17.247   6.083  13.835
67366W        W35760  27.148  18.448  12.943
67367W        W35761  16.802   0.031  12.723
67368W        W35762  44.311  23.943  12.379
67369W        W35763   5.985  24.032   3.723
67370W        W35764   0.839  15.797  13.096
67371W        W35765  32.646  24.554   3.698
67372W        W35766  20.752   1.233  14.939
67373W        W35767  16.944  43.288   2.097
67374W        W35768  23.238  21.539  11.568
67375W        W35769  17.856  43.460  14.962
67376W        W35770   4.360  31.121   3.295
67377W        W35771  41.930  21.748   1.360
67378W        W35772  40.677  20.169   0.384
67379W        W35773  36.400  11.319   1.785
67380W        W35774  24.267   4.441   3.768
67381W        W35775   1.947  14.394   1.787
67382W        W35776   7.766  32.150  11.475
67383W        W35777   2.673  42.946   0.430
67384W        W35778  37.430  38.296  11.183
67385W        W35779   1.382   0.888  12.419
67386W        W35780  19.799   6.229   0.738
67387W        W35781  11.968  25.175   1.868
67388W        W35782  25.705  32.887   4.869
67389W        W35783  23.263  39.251   0.791
67390W        W35784   6.756  38.528   1.754
67391W        W35785   2.465   7.258  13.585
67392W        W35786  24.087  42.714   2.618
67393W        W35787  26.080   2.539  14.798
67394W        W35788  42.972   8.944   4.193
67395W        W35789  19.262  28.451   3.465
67396W        W35790  19.153  24.009   0.369
67397W        W35791   6.375  19.749  14.401
67398W        W35792  24.641  14.018  12.062
67399W        W35793  27.015  25.944  14.223
67400W        W35794   2.618  23.623  11.399
67401W        W35795  19.183  21.205   4.595
67402W        W35796  17.075   1.330  10.346
67403W        W35797  34.513   1.495   2.148
67404W        W35798   4.807  32.239   0.406
67405W        W35799  43.537  35.808   4.048
67406W        W35800   3.281  11.611   0.727
67407W        W35801  37.123  39.987  10.438
67408W        W35802  44.774   9.244  12.055
67409W        W35803  29.599  18.009   0.955
67410W        W35804  23.984  24.972   5.181
67411W        W35805  33.122  26.021   2.447
67412W        W35806   9.742  12.931   4.644
67413W        W35807  37.087  18.485  14.170
67414W        W35808  42.443  28.401  14.542
67415W        W35809  35.898  42.314  10.713
67416W        W35810  39.474  31.350  14.949
67417W        W35811  22.708  33.620   2.656
67418W        W35812   2.332  39.050  13.641
67419W        W35813  27.134  12.374  13.815
67420W        W35814  21.605  19.360  12.396
67421W        W35815   2.207  10.674  14.962
67422W        W35816  38.509  41.821   0.192
67423W        W35817  11.585  23.636  13.180
67424W        W35818  14.385  18.467   0.486
67425W        W35819  44.213  34.597  12.599
67426W        W35820   3.284   4.131   1.378
67427W        W35821  14.292  43.401   0.689
67428W        W35822  34.460  15.721   2.618
67429W        W35823  24.514  12.680   3.493
67430W        W35824  39.112  13.878  10.663
67431W        W35825  39.432  19.052  12.489
67432W        W35826  20.174  17.588  12.320
67433W        W35827  12.422  34.594  11.233
67434W        W35828   5.448  39.288  11.965
67435W        W35829   2.057   0.887   0.839
67436W        W35830  13.180   4.349   0.965
67437W        W35831  13.751  44.371  12.136
67438W        W35832   8.712  20.896   4.063
67439W        W35833  28.913  44.394   0.384
67440W        W35834  38.813   7.803   1.443
67441W        W35835   3.748  20.271   0.378
67442W        W35836  25.488  16.098   1.411
67443W        W35837   8.883  40.108  11.252
67444W        W35838   2.877  25.407   4.590
67445W        W35839  40.976  42.583   4.272
67446W        W35840  31.857  32.297   0.481
67447W        W35841   0.855  37.367  11.569
67448W        W35842  39.491  41.053   4.164
67449W        W35843  13.418  14.645   2.421
67450W        W35844  27.503  22.012  12.958
67451W        W35845  14.089  36.639  11.660
67452W        W35846  43.918  27.049   0.901
67453W        W35847  39.279   5.416  11.994
67454W        W35848   5.705  38.120  11.560
67455W        W35849  28.924   3.302   3.386
67456W        W35850   3.265  23.459   2.629
67457W        W35851   6.456  14.224   4.502
67458W        W35852  40.880  12.713  11.556
67459W        W35853  36.450  24.912   3.068
67460W        W35854  33.652   2.539   2.256
67461W        W35855  29.496  22.768   3.657
67462W        W35856  19.039  35.010  13.082
67463W        W35857  39.989  38.565  13.816
67464W        W35858   3.350  41.277   2.770
67465W        W35859  43.495  42.982   0.304
67466W        W35860  40.779  42.925   3.939
67467W        W35861  34.437  22.008  13.785
67468W        W35862  23.644   2.396  13.361
67469W        W35863  19.562   8.847  14.918
67470W        W35864  10.118   4.997  11.939
67471W        W35865  29.404  32.072  14.440
67472W        W35866  26.820  16.174   3.903
67473W        W35867  42.429  25.780   1.805
67474W        W35868   9.426  38.008  13.980
67475W        W35869   0.625  15.152  14.542
67476W        W35870  43.532   8.424  11.955
67477W        W35871   9.371   6.234  13.472
67478W        W35872  24.262  10.828  13.866
67479W        W35873  38.031   6.685   3.403
67480W        W35874  37.864  16.247   3.977
67481W        W35875  15.753   2.957  13.697
67482W        W35876   2.072  12.246   2.252
67483W        W35877  41.536   2.971   2.479
67484W        W35878  23.579  13.655   0.894
67485W        W35879  30.741  44.897   0.424
67486W        W35880   3.243  32.276  12.177
67487W        W35881   0.041   3.030   2.937
67488W        W35882  35.133   2.514  14.908
67489W        W35883  15.775  24.091   4.980
67490W        W35884  14.642  37.326  14.104
67491W        W35885  14.801  40.089   4.117
67492W        W35886   2.607   7.220   5.026
67493W        W35887  44.696  32.066   0.952
67494W        W35888  22.959  35.321   0.477
67495W        W35889   7.948  13.840  11.823
67496W        W35890  33.320  26.208   1.376
67497W        W35891  18.613  10.946   2.332
67498W        W35892  36.179  32.279   4.177
67499W        W35893  34.524  33.021  14.460
67500W        W35894  22.589  42.025  13.934
67501W        W35895   7.834   3.271   3.645
67502W        W35896  35.164  16.382  14.773
67503W        W35897   0.901  35.337  13.362
67504W        W35898   2.032  36.289  14.795
67505W        W35899  29.966   2.684  11.077
67506W        W35900  15.810  10.458   1.661
67507W        W35901  31.638   3.168  13.715
67508W        W35902  38.477  40.622  12.910
67509W        W35903  20.010  13.691   2.738
67510W        W35904   6.502  29.356   1.367
67511W        W35905  17.148   6.963  14.401
67512W        W35906  38.179   3.212   4.714
67513W        W35907  21.200   9.480   3.209
67514W        W35908  35.171  24.067  12.304
67515W        W35909   2.406  11.069  13.567
67516W        W35910  44.010   4.762  10.385
67517W        W35911  13.318  35.028  13.293
67518W        W35912   6.259  39.436  11.926
67519W        W35913  13.810  12.316  13.362
67520W        W35914   7.142   6.451  12.009
67521W        W35915  30.407  11.450  11.106
67522W        W35916  25.745  41.812   3.692
67523W        W35917   6.132  22.641   2.636
67524W        W35918  24.062  15.753  14.646
67525W        W35919  24.128  39.288   0.821
67526W        W35920  34.665   0.395   3.626
67527W        W35921  43.479  11.504  11.689
67528W        W35922   8.875  31.962  14.613
67529W        W35923  15.461   6.833   3.284
67530W        W35924  32.604  44.221  14.914
67531W        W35925  25.643  13.120   2.590
67532W        W35926  15.197  22.238  12.909
67533W        W35927  23.779  36.519  12.907
67534W        W35928  26.424  14.628   0.803
67535W        W35929  41.037  16.141   2.818
67536W        W35930   8.160  43.852   4.613
67537W        W35931  36.510   2.294  11.653
67538W        W35932   1.431  34.173   0.062
67539W        W35933  14.857   3.274  13.271
67540W        W35934  40.365  29.877  14.955
67541W        W35935  24.544  42.747  10.247
67542W        W35936   6.392  19.801  10.988
67543W        W35937   2.248   4.350   0.440
67544W        W35938   4.255  28.084  11.669
67545W        W35939  41.096  23.934  12.682
67546W        W35940   2.675  15.282  12.911
67547W        W35941   3.895  34.515  10.709
67548W        W35942  29.322  10.191  13.434
67549W        W35943  26.717  30.333   0.925
67550W        W35944   6.891  10.651  12.706
67551W        W35945  25.392   2.459   1.854
67552W        W35946  32.405  38.936   0.401
67553W        W35947  23.785   8.626  12.806
67554W        W35948  38.339   5.665  14.756
67555W        W35949  27.520  23.245  14.777
67556W        W35950  25.205   5.046   0.212
67557W        W35951  32.673  41.394  11.288
67558W        W35952  44.163   4.575   1.792
67559W        W35953  14.503  10.736  11.527
67560W        W35954   0.716  16.510  13.419
67561W        W35955  19.431  17.106  13.814
67562W        W35956   2.807  31.601  11.182
67563W        W35957  37.406  28.958   0.658
67564W        W35958  17.291  23.167   2.243
67565W        W35959   6.220   1.331  11.523
67566W        W35960  38.097   7.954  10.650
67567W        W35961  32.116  30.483  14.473
67568W        W35962   7.193  26.547   4.575
67569W        W35963  25.030  31.721  13.018
67570W        W35964  38.798  10.723   1.797
67571W        W35965  41.352  15.329  10.562
67572W        W35966  15.043  35.323   1.476
67573W        W35967   4.900  21.189  11.121
67574W        W35968  35.571  31.682  11.031
67575W        W35969  37.509  12.734   3.370
67576W        W35970  22.512  26.396   1.168
67577W        W35971   1.695   9.539  14.430
67578W        W35972  20.084  21.668  14.083
67579W        W35973  41.958  10.890  13.475
67580W        W35974  34.415   0.845   1.969
67581W        W35975  31.266  21.007  11.969
67582W        W35976  16.071  11.049   1.216
67583W        W35977   9.479  30.592   2.317
67584W        W35978   6.392  38.914  14.046
67585W        W35979  37.511   3.905  14.840
67586W        W35980  27.962  35.075  14.435
67587W        W35981  35.090   3.529  11.207
67588W        W35982  11.700   8.483   5.052
67589W        W35983  31.378  28.505  11.147
67590W        W35984   1.167  32.152  12.525
67591W        W35985  20.175  15.634  13.843
67592W        W35986  22.644  28.556   0.374
67593W        W35987  34.919   8.688   5.136
67594W        W35988  32.976   7.708   3.094
67595W        W35989  11.902   4.230  11.169
67596W        W35990  43.404  29.951   4.363
67597W        W35991  27.677  23.170   0.445
67598W        W35992  42.798   7.625   4.158
67599W        W35993  36.521   6.829  14.262
67600W        W35994   4.924  38.631  12.973
67601W        W35995  42.518  13.819   4.539
67602W        W35996   5.504  13.086  12.480
67603W        W35997  34.878  22.612   3.064
67604W        W35998   2.152   2.704   2.374
67605W        W35999  27.200   0.517   3.707
67606W        W36000   0.896   7.353   3.569
67607W        W36001  35.701  38.317   0.300
67608W        W36002  40.837   7.359  14.953
67609W        W36003  10.916  13.566   1.594
67610W        W36004  22.334  29.762  14.821
67611W        W36005  23.769   0.352   0.392
67612W        W36006  29.407  44.583  14.386
67613W        W36007  29.923  17.776   1.789
67614W        W36008  18.432  19.625   0.678
67615W        W36009  16.061  21.549   3.275
67616W        W36010  28.047   5.837   3.300
67617W        W36011   9.121  29.125  14.606
67618W        W36012   3.073  35.147  11.862
67619W        W36013   3.678  13.817  14.741
67620W        W36014  22.678  18.802  12.294
67621W        W36015   9.663  13.832   3.122
67622W        W36016  26.654  20.300  13.068
67623W        W36017  38.535  19.186   3.190
67624W        W36018  19.199  41.189   0.308
67625W        W36019   2.291   3.741  14.429
67626W        W36020  34.481   6.961   0.771
67627W        W36021  13.022   9.099   2.741
67628W        W36022   6.901  38.836   4.733
67629W        W36023   0.409  43.225   3.237
67630W        W36024  10.289  23.587  10.661
67631W        W36025  19.166  24.004  12.998
67632W        W36026  14.566  42.048  13.609
67633W        W36027  33.622  23.997   3.128
67634W        W36028  10.971   2.313  13.951
67635W        W36029  29.640  43.270  14.083
67636W        W36030   1.969  37.556  11.488
67637W        W36031  40.127  33.875   1.455
67638W        W36032   7.805  26.210   3.463
67639W        W36033  23.400  25.725   3.127
67640W        W36034  27.886  12.269   2.530
67641W        W36035  38.991  14.068  14.899
67642W        W36036  19.101  27.964   2.142
67643W        W36037  34.873  25.045   0.235
67644W        W36038  10.741  40.795  11.107
67645W        W36039  16.538   0.297  11.098
67646W        W36040   7.171  38.894   4.205
67647W        W36041  27.448   4.795  12.027
67648W        W36042  33.817  32.894   0.752
67649W        W36043   7.316  31.094   0.490
67650W        W36044   6.931   7.297  14.067
67651W        W36045  34.396   7.799  14.471
67652W        W36046   1.697  37.234   4.497
67653W        W36047  15.845  22.194   1.697
67654W        W36048  22.175  42.781  10.406
67655W        W36049  34.385  12.244  12.684
67656W        W36050  44.563  44.287   0.277
67657W        W36051  19.173  15.340  11.141
67658W        W36052   1.293  14.358  11.883
67659W        W36053  35.480   9.687  11.167
67660W        W36054  23.105   0.313  14.076
67661W        W36055  34.910   8.563   0.470
67662W        W36056  41.794  20.315  14.351
67663W        W36057  35.647  26.087   4.381
67664W        W36058  28.491  34.019  13.598
67665W        W36059  30.173   1.463   1.484
67666W        W36060  29.102  24.962  11.458
67667W        W36061  32.430  13.330  13.547
67668W        W36062   0.901  24.687  10.603
67669W        W36063   6.651   5.349  10.297
67670W        W36064  36.986  10.463  13.965
67671W        W36065  18.766  29.158  13.034
67672W        W36066  43.097   3.325  12.112
67673W        W36067  37.397  13.612  14.431
67674W        W36068  44.721  12.954   4.072
67675W        W36069  32.967  25.436  10.749
67676W        W36070   2.734  31.602  13.775
67677W        W36071   2.693   3.206  12.890
67678W        W36072  31.563   5.787   3.223
67679W        W36073  14.674  40.895   2.648
67680W        W36074  14.330  13.325   2.204
67681W        W36075  26.590  21.785  10.264
67682W        W36076  39.856   3.861   2.152
67683W        W36077  22.997  34.619  11.018
67684W        W36078   7.257  19.105  12.805
67685W        W36079  26.221  23.612   3.028
67686W        W36080  17.273   2.263  13.217
67687W        W36081   7.811  25.990  13.974
67688W        W36082  28.476  16.695   2.030
67689W        W36083  22.204  18.670   0.827
67690W        W36084  38.391   4.844   3.331
67691W        W36085  36.854  37.389  11.563
67692W        W36086  40.430  22.781  12.564
67693W        W36087   6.561  11.468   0.401
67694W        W36088   1.575   5.530   3.618
67695W        W36089  35.445  33.942   3.704
67696W        W36090  14.518  43.110   3.238
67697W        W36091  26.015  19.347   4.564
67698W        W36092  25.629  20.072   4.995
67699W        W36093  16.623  21.967  12.332
67700W        W36094  25.520  21.535   2.385
67701W        W36095  17.190  34.565  14.924
67702W        W36096  41.439  40.478  10.753
67703W        W36097   3.320  33.103  12.544
67704W        W36098  18.082   9.288  14.387
67705W        W36099   0.282   7.377   4.680
67706W        W36100  28.972   5.660   1.400
67707W        W36101  35.623   9.977  14.888
67708W        W36102   1.040  27.871  14.931
67709W        W36103   5.913  13.061   4.124
67710W        W36104  17.503  37.560   1.555
67711W        W36105  12.831  22.500   4.342
67712W        W36106  25.570  16.707   0.235
67713W        W36107  20.031  27.666  14.362
67714W        W36108   4.050  33.892   4.531
67715W        W36109   9.766   0.279   2.868
67716W        W36110  28.465   2.514  11.176
67717W        W36111  28.110  31.253   1.168
67718W        W36112  39.403  18.785  13.988
67719W        W36113  34.989  29.010  10.782
67720W        W36114  11.731  30.818  14.725
67721W        W36115  43.724  32.127   4.513
67722W        W36116  32.783  22.981  12.095
67723W        W36117   7.708  13.133   3.619
67724W        W36118  19.585   4.005  13.139
67725W        W36119  22.569  25.607  13.011
67726W        W36120  22.542  18.214   0.678
67727W        W36121  27.586   0.821   5.034
67728W        W36122   7.922  34.756  12.493
67729W        W36123  41.992  35.641  12.136
67730W        W36124  15.767   9.525   4.564
67731W        W36125  36.269  41.460  12.313
67732W        W36126  41.486  20.685   2.584
67733W        W36127  20.890  22.017  10.602
67734W        W36128   5.151   0.229   4.634
67735W        W36129  42.976   1.364   3.819
67736W        W36130  36.986   6.888   0.704
67737W        W36131   7.942   7.461  14.252
67738W        W36132  34.362   1.009  12.456
67739W        W36133  11.906  18.606  10.266
67740W        W36134  14.032  26.557  11.489
67741W        W36135  35.817  27.164   1.051
67742W        W36136  21.293  25.015   2.261
67743W        W36137  23.665  39.268  11.400
67744W        W36138   0.485  36.448  14.822
67745W        W36139   5.304  22.037  10.580
67746W        W36140   6.926  26.663   2.274
67747W        W36141   0.211   7.494  11.463
67748W        W36142  27.701  40.372  13.833
67749W        W36143   1.321  20.739   2.441
67750W        W36144  20.802  43.262   2.312
67751W        W36145  39.391  19.793   4.282
67752W        W36146  20.111  24.674  10.084
67753W        W36147  39.014  31.910   0.246
67754W        W36148  41.966  21.448   4.027
67755W        W36149  38.748  39.202   5.007
67756W        W36150  20.688   8.395  11.508
67757W        W36151  35.610  11.104  12.961
67758W        W36152  31.109  19.220   4.670
67759W        W36153   0.149  44.460   3.395
67760W        W36154   1.102   3.851   0.876
67761W        W36155  11.842  26.952   3.745
67762W        W36156  15.100  26.468   2.660
67763W        W36157   9.112  27.852   0.069
67764W        W36158  18.123   5.812  12.750
67765W        W36159  36.070   4.431   3.270
67766W        W36160  31.850  34.605   4.128
67767W        W36161  44.995  16.313   3.695
67768W        W36162  16.818  36.728  12.894
67769W        W36163  28.876  25.949   1.704
67770W        W36164  32.331  26.717  10.948
67771W        W36165   2.461  19.231   0.723
67772W        W36166  24.993  19.277   2.384
67773W        W36167   0.234  40.691  10.362
67774W        W36168  12.676   1.963   3.362
67775W        W36169   5.407  32.402   2.585
67776W        W36170  13.405  29.261   3.155
67777W        W36171  15.326  18.399  13.302
67778W        W36172  27.721  39.020   2.417
67779W        W36173  24.023  40.898  13.904
67780W        W36174  40.323  19.668   4.661
67781W        W36175  15.652  39.116  14.436
67782W        W36176  22.504  35.926   1.482
67783W        W36177   1.188  20.944  14.071
67784W        W36178  26.980  20.099   4.014
67785W        W36179   7.195  21.903   4.979
67786W        W36180  26.884  42.637  11.125
67787W        W36181   5.293  36.807   1.763
67788W        W36182  11.881  38.019  11.025
67789W        W36183  18.058  33.505   4.485
67790W        W36184  22.291  17.091   3.209
67791W        W36185   6.745  41.052  12.110
67792W        W36186   4.243  23.954  14.486
67793W        W36187  18.205  29.602  13.336
67794W        W36188  33.151  31.536   0.819
67795W        W36189   2.223  22.525   4.578
67796W        W36190  17.786  33.981  10.976
67797W        W36191  43.339  13.783  10.525
67798W        W36192  41.534  17.096  13.997
67799W        W36193  39.991  31.038  14.603
67800W        W36194  30.396  31.365   3.764
67801W        W36195   5.904  31.434   4.514
67802W        W36196  17.978  39.666  13.328
67803W        W36197  22.732   4.260  11.912
67804W        W36198  44.852   8.859  11.563
67805W        W36199  10.999  28.217  14.479
67806W        W36200   5.937  14.631  12.145
67807W        W36201   9.766  30.355   1.891
67808W        W36202  34.157  28.987  13.085
67809W        W36203  20.119   0.050   1.334
67810W        W36204   9.729   4.252  13.875
67811W        W36205  19.162  12.095   2.173
67812W        W36206  44.214  20.238   0.028
67813W        W36207  28.101  42.268   0.240
67814W        W36208   4.476  29.732  10.638
67815W        W36209  18.063  36.832   1.187
67816W        W36210  42.554  10.868   2.717
67817W        W36211   2.295  40.502  13.086
67818W        W36212  12.192  37.322  13.935
67819W        W36213  11.677  26.102  11.384
67820W        W36214   1.312  15.676  12.956
67821W        W36215   5.997  43.523  13.806
67822W        W36216  42.042   6.291  12.963
67823W        W36217  17.123  36.564  14.320
67824W        W36218   4.284  27.101  13.019
67825W        W36219  39.971  17.053   4.142
67826W        W36220  22.544  19.134   1.771
67827W        W36221  36.381  43.515  10.938
67828W        W36222  16.876  28.057  14.750
67829W        W36223   8.223  36.567   1.791
67830W        W36224  28.005  12.278  14.847
67831W        W36225   2.155  32.539   2.881
67832W        W36226  13.437  14.832   4.135
67833W        W36227  16.718  40.200   0.784
67834W        W36228   0.966  25.734  13.508
67835W        W36229  41.414   3.714   0.290
67836W        W36230  21.645  30.938  11.071
67837W        W36231  13.671  14.432  14.696
67838W        W36232  12.281  14.190  13.995
67839W        W36233  25.139  28.084   5.277
67840W        W36234   7.143  21.069  12.903
67841W        W36235  33.131  20.589  10.724
67842W        W36236  33.377  39.537   2.229
67843W        W36237  29.285  42.103   0.343
67844W        W36238   6.605  19.820   3.445
67845W        W36239  11.926  30.706   1.381
67846W        W36240   6.339  41.598   4.662
67847W        W36241   8.255  27.921   2.336
67848W        W36242  42.737  21.282  13.843
67849W        W36243  19.521  20.027   2.784
67850W        W36244   6.636  36.485  12.018
67851W        W36245  22.720  33.264   2.260
67852W        W36246  20.986  26.092  14.970
67853W        W36247  40.638  40.955  11.168
67854W        W36248   2.522  41.925   4.837
67855W        W36249  28.770  20.723   2.827
67856W        W36250  11.284  17.626  10.407
67857W        W36251  31.823  11.200  11.239
67858W        W36252  21.115  20.670  14.479
67859W        W36253   4.346  36.487   3.153
67860W        W36254  32.520   7.420  12.430
67861W        W36255  26.690  26.042   1.978
67862W        W36256  15.802  31.613   0.983
67863W        W36257  18.141   0.232  12.790
67864W        W36258   8.274  39.623   1.062
67865W        W36259   5.750  39.515  13.949
67866W        W36260   2.664  30.622   1.353
67867W        W36261  29.411  37.269   2.985
67868W        W36262  33.921  13.541   0.938
67869W        W36263   4.952  43.107   4.554
67870W        W36264   3.724  21.373  11.584
67871W        W36265  25.285   7.117  13.737
67872W        W36266  30.908   9.738   0.990
67873W        W36267  20.282  19.616   0.844
67874W        W36268  39.486  12.744   2.213
67875W        W36269   1.277  30.706   1.179
67876W        W36270  18.765   4.582   1.178
67877W        W36271   6.642   5.958   1.088
67878W        W36272  32.692  38.899   1.427
67879W        W36273   7.874  11.556   2.213
67880W        W36274   5.630  12.640   4.150
67881W        W36275  39.720  29.635  10.444
67882W        W36276  27.774  30.820   3.156
67883W        W36277  18.278   4.827  13.310
67884W        W36278  40.990  16.215  12.873
67885W        W36279  26.609  31.686  13.898
67886W        W36280   4.909   8.408   4.643
67887W        W36281  32.601  41.794  13.492
67888W        W36282   8.660  34.600   0.769
67889W        W36283   2.443  34.134  10.420
67890W        W36284   3.390  22.079   2.658
67891W        W36285   1.036  33.985  12.641
67892W        W36286  30.864   9.478   1.495
67893W        W36287   8.128   1.758   2.232
67894W        W36288   9.323   3.449  14.015
67895W        W36289  13.624  20.206   2.631
67896W        W36290  25.406  29.125  14.322
67897W        W36291   5.674  38.380   3.740
67898W        W36292   2.626  43.734  12.873
67899W        W36293  12.833  36.844   3.140
67900W        W36294  16.647  36.578  12.160
67901W        W36295  14.615   1.798  12.650
67902W        W36296   1.714  30.626   1.449
67903W        W36297  39.701  15.306  11.502
67904W        W36298  41.525   0.931   1.185
67905W        W36299  42.861  24.088   1.415
67906W        W36300   1.308  24.963  10.749
67907W        W36301  27.947  29.679   2.250
67908W        W36302  19.749  29.355   3.605
67909W        W36303   5.379  12.757   3.699
67910W        W36304  35.452   8.700   4.665
67911W        W36305  19.560  43.744   2.530
67912W        W36306  41.538  33.670   0.486
67913W        W36307  36.421  17.689   2.359
67914W        W36308  10.818  40.304   3.158
67915W        W36309  11.160  17.582  14.963
67916W        W36310  29.314  39.469   0.029
67917W        W36311  29.937  22.226  14.275
67918W        W36312  44.956  22.629  14.469
67919W        W36313   2.598  25.127  11.194
67920W        W36314  21.558   1.665  10.971
67921W        W36315  32.998   0.736  10.831
67922W        W36316   1.955  38.815  12.982
67923W        W36317  28.473  41.479   1.817
67924W        W36318  21.917  21.426   2.271
67925W        W36319   9.136   0.933   1.472
67926W        W36320  43.765  23.446   0.169
67927W        W36321   6.717  30.553   0.722
67928W        W36322  20.320   5.243  11.387
67929W        W36323  22.743  35.085  14.807
67930W        W36324  13.785   2.655   1.770
67931W        W36325  35.562  38.422  14.297
67932W        W36326  23.353  20.361  13.751
67933W        W36327   1.703  40.081  10.688
67934W        W36328  12.817  29.303  12.509
67935W        W36329  22.927  34.746  12.002
67936W        W36330  43.928  15.521   0.583
67937W        W36331  37.672  34.561   0.009
67938W        W36332  27.845  28.980   2.894
67939W        W36333  19.084  28.874   0.282
67940W        W36334  34.560  44.101  12.969
67941W        W36335  16.189  44.899   2.813
67942W        W36336  24.748  37.613  14.559
67943W        W36337  40.146  35.466  10.375
67944W        W36338  28.042  16.300   2.807
67945W        W36339   8.645  20.693   2.240
67946W        W36340  36.994  35.809   2.690
67947W        W36341   3.036  37.872   2.209
67948W        W36342   3.255  17.412  12.994
67949W        W36343   8.217  17.436  12.427
67950W        W36344   6.693   1.797   2.730
67951W        W36345  36.167  38.091   0.230
67952W        W36346  40.963  35.839  10.220
67953W        W36347  34.124   7.971   1.637
67954W        W36348   2.618  19.870   1.430
67955W        W36349  26.230  37.132  13.404
67956W        W36350  42.453   7.902   2.747
67957W        W36351  38.360  39.450  12.528
67958W        W36352  35.773  14.293   4.170
67959W        W36353  20.616  15.314   1.744
67960W        W36354  14.681  10.592   2.159
67961W        W36355   0.849  28.222   2.270
67962W        W36356  41.981   5.693  11.537
67963W        W36357  27.225  19.740   1.754
67964W        W36358  17.349  26.123  13.119
67965W        W36359  24.516   1.872  12.675
67966W        W36360  33.390   6.727  10.795
67967W        W36361   9.877  25.396  11.118
67968W        W36362  40.803  34.637   0.367
67969W        W36363  35.704   8.199  12.862
67970W        W36364  37.604  34.651  13.391
67971W        W36365  36.015  10.829   0.123
67972W        W36366  19.881  10.207   1.523
67973W        W36367   4.864  10.409  11.504
67974W        W36368   0.674  15.513  13.622
67975W        W36369  40.783  29.530   3.226
67976W        W36370  39.278  32.932  13.069
67977W        W36371  37.921  39.379  13.363
67978W        W36372  30.872  36.816  13.453
67979W        W36373  12.324  31.315  12.431
67980W        W36374   8.377  37.074   2.771
67981W        W36375  22.510   2.456  14.942
67982W        W36376  41.301  28.711  11.067
67983W        W36377   6.486  43.520  12.065
67984W        W36378  40.921  24.708  14.192
67985W        W36379  16.402  22.450   3.484
67986W        W36380  22.567  32.384   4.670
67987W        W36381  20.615  33.929   2.252
67988W        W36382  12.078  24.258  14.449
67989W        W36383  12.599   0.331   2.085
67990W        W36384   4.967  19.187  14.298
67991W        W36385   7.308  32.638   2.352
67992W        W36386  34.900  39.573   3.646
67993W        W36387   9.952   1.236  13.334
67994W        W36388   4.040  30.821  13.034
67995W        W36389  29.027  36.100  12.863
67996W        W36390  14.605   3.153  11.953
67997W        W36391   8.903  15.696   0.672
67998W        W36392  17.380  44.916  11.219
67999W        W36393  23.216  15.449  12.143
68000W        W36394  40.368  39.638   1.706
68001W        W36395  18.248   8.906  12.035
68002W        W36396  33.253  31.362  11.638
68003W        W36397  42.570   1.435  14.914
68004W        W36398   4.809  10.234   4.267
68005W        W36399  26.670   6.867  14.023
68006W        W36400   8.925  15.510   2.730
68007W        W36401  38.334   1.603  11.867
68008W        W36402  30.921  18.066   2.222
68009W        W36403  42.430  17.310   1.219
68010W        W36404  42.314  24.167  14.009
68011W        W36405  21.324  43.300   2.330
68012W        W36406  12.725  40.213  12.536
68013W        W36407  12.284  40.018  12.333
68014W        W36408   1.535   0.514   1.793
68015W        W36409  42.568  25.158  11.138
68016W        W36410   2.371  41.780  11.970
68017W        W36411  20.896   3.766  14.548
68018W        W36412   0.042   6.907  14.741
68019W        W36413  26.686  35.628  14.323
68020W        W36414  20.518  40.749  11.998
68021W        W36415  33.401  22.466   4.686
68022W        W36416  40.617  37.416   3.797
68023W        W36417  43.894   7.414   1.185
68024W        W36418  31.446   7.664   1.443
68025W        W36419  28.925  38.424   2.420
68026W        W36420  39.670  42.906  11.631
68027W        W36421  14.151  33.090  10.759
68028W        W36422  13.804  13.248   3.075
68029W        W36423  29.697  32.667   3.391
68030W        W36424  44.296   4.941  11.823
68031W        W36425  11.977  36.925   4.672
68032W        W36426  14.835  23.995  12.538
68033W        W36427  10.663  10.082   4.871
68034W        W36428  38.115  16.500  12.431
68035W        W36429   8.308  12.329  14.030
68036W        W36430  26.636  27.950  13.281
68037W        W36431  32.350  24.589   2.729
68038W        W36432   8.315  11.945  12.533
68039W        W36433  23.804  11.976   3.045
68040W        W36434   8.137  14.275   2.236
68041W        W36435  33.968  23.999   0.276
68042W        W36436  37.341  38.078  12.164
68043W        W36437  42.558  16.043   2.830
68044W        W36438   0.305  38.595   0.778
68045W        W36439   0.568  37.121   5.350
68046W        W36440   3.391  42.566   4.230
68047W        W36441  19.584  10.148  12.570
68048W        W36442  23.573  24.259  13.660
68049W        W36443  27.439  28.726   3.160
68050W        W36444  35.937   1.266  12.974
68051W        W36445   8.752   6.499   1.322
68052W        W36446  14.523   3.737   3.210
68053W        W36447  42.721  27.012   4.712
68054W        W36448   0.821   3.313  13.894
68055W        W36449  17.539  34.634   3.308
68056W        W36450  42.831   3.821  12.999
68057W        W36451   7.781  28.670  13.934
68058W        W36452  23.570  32.484   0.838
68059W        W36453  27.091  43.992  14.317
68060W        W36454  34.971  27.753  12.067
68061W        W36455  40.037  41.575   0.028
68062W        W36456   1.502  29.062  12.103
68063W        W36457  31.015  22.518   3.251
68064W        W36458  33.386  11.413  11.116
68065W        W36459  37.009  42.394   4.459
68066W        W36460   2.326  22.606   2.845
68067W        W36461   8.621  40.082   3.898
68068W        W36462   4.529  16.192  11.970
68069W        W36463  30.288  31.341  11.476
68070W        W36464   6.414   4.904   2.057
68071W        W36465  43.673   6.764  13.503
68072W        W36466  21.053  15.081  10.650
68073W        W36467  42.141   8.745   3.729
68074W        W36468  41.792   0.545  12.451
68075W        W36469  26.106  41.756   3.259
68076W        W36470  26.183  30.430   4.159
68077W        W36471   2.815  17.491   1.714
68078W        W36472  31.321  21.151   1.225
68079W        W36473  36.992  38.137   2.210
68080W        W36474   4.020  35.590  13.338
68081W        W36475  13.431   2.829   3.032
68082W        W36476  16.474   6.108  13.454
68083W        W36477  31.914   6.462   3.651
68084W        W36478  44.736   2.980   4.725
68085W        W36479   6.423  31.015   2.367
68086W        W36480  38.316  33.421   3.685
68087W        W36481  18.853  39.414  13.634
68088W        W36482  30.972  34.519   1.593
68089W        W36483  37.619  27.464   0.299
68090W        W36484  26.224  22.577  11.924
68091W        W36485  30.613  15.346  10.756
68092W        W36486  25.225  33.308   4.264
68093W        W36487  39.890   2.913  13.500
68094W        W36488   9.564   6.190   4.251
68095W        W36489  33.608  34.219   5.045
68096W        W36490  23.086  17.742   2.281
68097W        W36491  13.239  31.981  13.968
68098W        W36492  25.128  22.116  13.596
68099W        W36493  40.889  36.079   1.648
68100W        W36494   1.592  41.986   4.510
68101W        W36495  38.425  22.850   3.106
68102W        W36496   7.946  39.629  14.934
68103W        W36497  44.453  37.784   3.753
68104W        W36498   6.385  12.175  11.957
68105W        W36499  39.522   2.941  13.878
68106W        W36500  22.176   3.388  10.636
68107W        W36501   2.663  22.995   2.041
68108W        W36502  27.454   3.849  14.469
68109W        W36503   1.480  40.035   4.469
68110W        W36504  17.650  14.276   1.729
68111W        W36505  33.126  23.555  11.030
68112W        W36506  40.740  35.002  13.460
68113W        W36507   8.414  13.627   4.622
68114W        W36508  22.121  37.014   3.232
68115W        W36509  15.745  25.523   1.269
68116W        W36510   5.213  17.258  14.257
68117W        W36511  11.858  19.039  14.247
68118W        W36512  33.529  10.599  10.780
68119W        W36513  16.653  31.688   4.438
68120W        W36514  33.956  24.216   3.525
68121W        W36515  42.395  17.770   4.017
68122W        W36516   0.829  20.722   2.207
68123W        W36517  10.833  35.902  10.621
68124W        W36518   2.879  18.001   1.707
68125W        W36519  44.958   2.370  13.363
68126W        W36520  41.188  21.721   3.700
68127W        W36521   6.761   6.626   4.007
68128W        W36522  44.052  28.040  10.828
68129W        W36523  13.628  31.960  12.863
68130W        W36524  37.616  27.445  13.918
68131W        W36525  24.458  35.431  13.038
68132W        W36526  20.245  30.207  14.702
68133W        W36527  20.738  30.808  13.441
68134W        W36528  38.539  40.976   0.614
68135W        W36529  13.069  21.043   0.323
68136W        W36530   9.568  41.363   1.431
68137W        W36531  13.167  24.821   0.463
68138W        W36532  30.875  32.418  12.108
68139W        W36533  44.251  36.007  14.084
68140W        W36534  43.541   3.405  13.055
68141W        W36535  12.689  23.128   4.288
68142W        W36536  18.779  11.946   2.504
68143W        W36537   7.949   6.346   3.719
68144W        W36538  12.334  21.233  14.412
68145W        W36539  30.656   5.450   4.158
68146W        W36540  36.659  43.746  12.141
68147W        W36541  17.577  27.620  12.116
68148W        W36542  10.074  30.506   0.234
68149W        W36543  19.221  26.478   0.403
68150W        W36544  42.621   6.715  14.394
68151W        W36545   6.993  27.231   4.861
68152W        W36546  19.668  36.133   4.706
68153W        W36547  14.252  23.189  13.439
68154W        W36548   7.938   6.923   1.747
68155W        W36549  27.659  31.176  11.565
68156W        W36550  31.481   0.012   1.164
68157W        W36551  30.383  30.352  13.493
68158W        W36552  33.926  23.005  10.735
68159W        W36553  31.188   7.882   3.764
68160W        W36554   8.179  19.780   2.603
68161W        W36555  41.869  26.016  11.466
68162W        W36556   5.505  11.697   4.782
68163W        W36557  15.050  31.990  14.789
68164W        W36558  34.130  27.999   0.318
68165W        W36559  39.460  15.372  13.987
68166W        W36560   9.702  41.442   0.731
68167W        W36561  26.033  32.847   0.264
68168W        W36562  35.608  41.004   4.065
68169W        W36563  37.585   8.716   2.502
68170W        W36564  44.251   7.807   1.352
68171W        W36565  22.304  21.731  13.911
68172W        W36566  40.726  28.960  12.935
68173W        W36567   5.338  31.447   4.605
68174W        W36568   9.830  40.227   1.469
68175W        W36569  31.345  26.618  12.506
68176W        W36570   9.396   1.769   0.436
68177W        W36571  31.697  33.071  13.880
68178W        W36572   0.322  18.775   3.356
68179W        W36573  10.580  21.921  10.781
68180W        W36574   3.883   5.815  13.300
68181W        W36575  22.180  24.755  11.180
68182W        W36576  38.653  28.769   0.387
68183W        W36577  10.679   9.836   3.370
68184W        W36578   9.571  12.256  12.332
68185W        W36579  28.367  29.474  12.389
68186W        W36580   2.959  15.835  13.998
68187W        W36581   9.092  40.710  13.036
68188W        W36582  34.009   6.396   3.274
68189W        W36583  43.695   5.821  10.867
68190W        W36584  27.611  43.020   1.144
68191W        W36585  27.517  10.855  11.157
68192W        W36586   9.485  11.455  11.525
68193W        W36587  14.566   3.650  11.959
68194W        W36588  34.859   6.374   1.224
68195W        W36589   7.793  39.122   3.254
68196W        W36590  42.889  16.703  10.142
68197W        W36591  43.731  10.141  13.528
68198W        W36592  26.747  41.961   0.269
68199W        W36593  17.257  18.824   3.896
68200W        W36594  19.221  17.592  13.762
68201W        W36595  36.554  33.136  12.324
68202W        W36596  11.633   3.812   1.463
68203W        W36597  22.199  44.455   0.889
68204W        W36598  14.069  19.682   4.235
68205W        W36599   9.703   0.792  12.088
68206W        W36600   0.389   7.831   0.480
68207W        W36601   8.111  35.596  14.324
68208W        W36602  37.371  38.143   3.345
68209W        W36603  32.634  33.136   4.125
68210W        W36604  29.506  44.306  13.932
68211W        W36605  42.994  33.053   0.888
68212W        W36606  15.760   7.736   3.760
68213W        W36607  25.784  15.739  12.540
68214W        W36608  27.975   7.488   4.100
68215W        W36609  34.620  23.104   0.879
68216W        W36610  16.117   4.228   0.884
68217W        W36611  29.588   7.349   3.663
68218W        W36612   4.985  41.970  13.973
68219W        W36613  15.025  36.092   3.267
68220W        W36614  42.423   7.675  13.385
68221W        W36615   7.052  14.686   0.130
68222W        W36616   4.317  33.625  12.434
68223W        W36617  21.478  21.130  13.873
68224W        W36618  18.077  42.140   5.103
68225W        W36619   0.346   1.365   0.225
68226W        W36620   2.286   5.320   2.659
68227W        W36621   8.857   9.969  10.364
68228W        W36622  10.223  41.413   0.700
68229W        W36623  40.400  10.177   0.777
68230W        W36624  22.035  41.666  14.778
68231W        W36625  15.631  23.547   4.306
68232W        W36626   3.280  33.132  10.714
68233W        W36627  42.489  10.633  11.595
68234W        W36628  10.543  38.316  13.371
68235W        W36629  34.255  33.169  14.874
68236W        W36630  30.388  34.076   3.813
68237W        W36631  19.706  15.874   2.813
68238W        W36632  10.140  18.176   0.368
68239W        W36633   2.393  39.537  10.636
68240W        W36634  27.109  31.162  10.713
68241W        W36635  33.610  44.533  12.030
68242W        W36636  26.345   6.873  14.435
68243W        W36637  25.755   2.527  13.000
68244W        W36638  14.530  27.449  13.948
68245W        W36639   5.915  22.818  14.528
68246W        W36640  16.381  15.553   2.415
68247W        W36641  12.913  14.575   2.166
68248W        W36642  22.884  28.586  12.836
68249W        W36643  12.748   7.491   3.311
68250W        W36644  11.081  39.151   0.457
68251W        W36645   0.940  22.436   3.793
68252W        W36646  34.355   7.672   3.040
68253W        W36647  10.798  25.575   1.238
68254W        W36648   8.391   0.021   0.961
68255W        W36649  41.872   8.647   1.487
68256W        W36650   1.065  40.544  13.883
68257W        W36651  12.834  25.118   4.664
68258W        W36652   6.705  31.859   3.226
68259W        W36653   3.234  32.855  13.900
68260W        W36654  27.093  20.840   4.487
68261W        W36655   1.582  26.761   4.319
68262W        W36656  26.043   3.406  11.521
68263W        W36657  24.674  22.955  14.859
68264W        W36658  18.556   1.839  14.718
68265W        W36659   2.237  14.945   2.950
68266W        W36660  29.280  18.271  12.810
68267W        W36661  35.079  25.150   3.140
68268W        W36662   5.261   3.927   1.222
68269W        W36663  21.541   8.639  10.552
68270W        W36664  17.192  42.000  14.790
68271W        W36665  29.377   5.033  11.704
68272W        W36666   4.945  35.184  13.208
68273W        W36667  34.818  33.265  10.215
68274W        W36668  42.443  40.045  13.916
68275W        W36669  19.565   9.678  11.193
68276W        W36670  20.726   8.411   3.895
68277W        W36671  40.403   5.892   1.443
68278W        W36672  35.308   2.837  14.537
68279W        W36673  32.599  38.546   3.265
68280W        W36674  44.443  34.095   1.771
68281W        W36675  29.865  31.416   3.285
68282W        W36676  25.181   1.495   5.032
68283W        W36677  18.257  41.343   9.804
68284W        W36678  21.198  26.530   1.743
68285W        W36679  23.501  10.201   4.044
68286W        W36680  26.896   7.310  13.921
68287W        W36681  44.973   7.574  13.497
68288W        W36682  30.501  43.010   4.137
68289W        W36683   6.794  42.929  12.226
68290W        W36684  41.381  14.224   5.018
68291W        W36685  14.570  18.940   3.755
68292W        W36686  27.146  41.069   2.795
68293W        W36687  21.262   7.051   2.343
68294W        W36688  43.049  25.273  12.538
68295W        W36689  29.850  34.642   4.115
68296W        W36690  23.337   9.493  11.914
68297W        W36691  44.638  31.024  12.183
68298W        W36692  21.309  37.832  13.956
68299W        W36693  41.309  28.685   4.122
68300W        W36694  34.683   8.104   0.402
68301W        W36695   4.338  23.051  12.010
68302W        W36696  41.660  21.341  14.429
68303W        W36697  30.177  42.854  11.363
68304W        W36698  40.361   2.244  14.835
68305W        W36699  43.536   3.807   1.951
68306W        W36700   3.214  14.723   1.415
68307W        W36701  14.480   8.841  13.000
68308W        W36702  44.692   7.870  13.995
68309W        W36703  29.574  36.241   2.285
68310W        W36704  19.135   5.605   2.651
68311W        W36705  38.983  29.270   2.563
68312W        W36706  21.294  29.947   0.259
68313W        W36707   8.338  20.483   3.157
68314W        W36708   7.119  23.497  10.589
68315W        W36709  27.672   6.697   1.497
68316W        W36710   7.034  33.960   3.540
68317W        W36711  15.825  24.206   1.711
68318W        W36712   8.855  18.083   0.870
68319W        W36713  11.841  28.099  12.867
68320W        W36714  16.801  37.942   0.174
68321W        W36715  21.403  38.813   1.410
68322W        W36716  38.814  35.079  11.971
68323W        W36717   1.017  20.638   3.801
68324W        W36718  17.600  10.834   1.258
68325W        W36719  38.919  25.470   2.774
68326W        W36720  20.841  35.267   2.096
68327W        W36721   2.688  40.002   2.661
68328W        W36722  19.682   4.856   3.133
68329W        W36723  11.807  44.529   0.455
68330W        W36724  32.306  21.751   0.159
68331W        W36725  43.726   5.262  14.885
68332W        W36726  39.561  17.702   0.553
68333W        W36727  22.532  21.917  10.611
68334W        W36728  19.889  34.092   0.949
68335W        W36729   6.242  24.484   1.173
68336W        W36730  11.040  44.877   1.776
68337W        W36731  24.552   4.193  14.897
68338W        W36732  43.783  17.052  12.835
68339W        W36733  33.188  11.615   0.228
68340W        W36734  23.619  10.837   1.028
68341W        W36735  27.508  21.227   2.732
68342W        W36736  44.380  40.718   2.807
68343W        W36737  18.851  23.130   3.392
68344W        W36738  18.183  25.241  14.924
68345W        W36739   0.282  20.371  11.626
68346W        W36740  43.114  26.712  11.998
68347W        W36741   8.230  14.796   3.064
68348W        W36742  14.516   0.292   4.647
68349W        W36743  22.561  23.781  11.218
68350W        W36744  18.223  42.933   2.423
68351W        W36745   4.213  12.374   3.426
68352W        W36746  22.007  37.492  14.824
68353W        W36747   5.258   5.774   1.739
68354W        W36748  34.528  21.158   2.387
68355W        W36749  30.957  20.978   4.158
68356W        W36750   2.646  42.678  11.068
68357W        W36751  14.214  32.929   3.166
68358W        W36752   8.978  14.287   0.956
68359W        W36753  36.192  38.694   4.100
68360W        W36754  25.558   4.301   2.144
68361W        W36755  16.843  31.450   2.818
68362W        W36756  32.217   5.686   2.392
68363W        W36757   8.937  11.180   4.574
68364W        W36758  42.786  36.537   0.337
68365W        W36759  31.760   3.953  13.501
68366W        W36760   3.454  24.664  13.897
68367W        W36761  24.499   8.251   4.055
68368W        W36762  32.991  34.493   3.171
68369W        W36763  20.247   5.368  13.275
68370W        W36764  43.440  31.021  13.756
68371W        W36765  28.382  35.620  12.028
68372W        W36766  11.125   7.487  13.945
68373W        W36767  22.802   7.263  14.381
68374W        W36768  39.060   8.300  12.679
68375W        W36769  29.386  40.056  12.023
68376W        W36770  32.588  36.998  14.789
68377W        W36771  44.641  25.148   3.087
68378W        W36772  43.054   0.892  12.428
68379W        W36773   8.348  41.939   2.599
68380W        W36774  10.909  14.258  13.580
68381W        W36775  16.658  23.976   2.193
68382W        W36776   8.842   0.902   4.709
68383W        W36777  10.083   5.514  14.737
68384W        W36778  11.401  35.664   3.257
68385W        W36779  31.860  26.000   4.739
68386W        W36780  15.830  19.164  14.980
68387W        W36781  11.584  35.564   2.354
68388W        W36782   1.475  23.965   3.931
68389W        W36783  22.602  26.692  11.978
68390W        W36784  24.082  12.914  10.233
68391W        W36785  15.587  17.205   1.218
68392W        W36786  10.152  44.935  12.114
68393W        W36787  29.416  40.551   1.001
68394W        W36788  14.655  25.683  11.138
68395W        W36789  36.554  18.623  11.456
68396W        W36790  39.463  34.687   3.154
68397W        W36791   8.681  16.804   2.145
68398W        W36792  41.491  35.436  12.854
68399W        W36793   3.013  41.069  13.122
68400W        W36794  44.401  39.012  11.996
68401W        W36795  28.506   9.673  14.227
68402W        W36796   1.746  41.505   4.698
68403W        W36797   9.417  43.460  10.634
68404W        W36798  41.376  39.562   4.094
68405W        W36799  13.801   2.258  11.748
68406W        W36800   0.777   4.810  11.475
68407W        W36801  28.675  33.870   0.265
68408W        W36802  42.918   0.424  12.819
68409W        W36803  14.677   2.363  12.526
68410W        W36804  13.693   2.798   4.415
68411W        W36805  14.819  31.124  11.136
68412W        W36806  19.998  26.473   0.686
68413W        W36807  12.320  39.383   0.159
68414W        W36808  34.077   2.037  14.437
68415W        W36809  36.223  18.445   0.451
68416W        W36810  18.033  23.625  13.817
68417W        W36811   8.828  44.673  11.401
68418W        W36812  23.948  19.822   2.914
68419W        W36813  21.548  10.576  13.292
68420W        W36814   5.812  27.492   1.213
68421W        W36815   0.175  13.303  13.971
68422W        W36816   2.834  14.452  11.664
68423W        W36817  22.812  18.253  13.876
68424W        W36818   7.568  27.591   3.520
68425W        W36819  28.125  39.632   4.298
68426W        W36820  26.577   0.994   4.081
68427W        W36821  22.219  35.644   1.828
68428W        W36822  24.420   5.637  11.079
68429W        W36823   4.533   5.300   1.556
68430W        W36824  23.506   5.878   2.157
68431W        W36825   7.721   4.920  10.665
68432W        W36826  18.731  30.641   3.877
68433W        W36827  24.484   8.839  11.648
68434W        W36828   0.753   5.215   1.013
68435W        W36829  24.363  31.430  14.237
68436W        W36830   1.250  12.098   4.233
68437W        W36831  40.036  25.238  12.777
68438W        W36832  25.359  17.475  12.830
68439W        W36833   6.103  12.473  12.727
68440W        W36834   5.391  27.542  13.391
68441W        W36835  29.913  12.151   4.188
68442W        W36836  36.995  13.035   3.707
68443W        W36837  18.598  10.781  12.883
68444W        W36838  29.784  43.583  12.641
68445W        W36839  44.450  17.522  12.594
68446W        W36840  26.599   8.258  13.344
68447W        W36841  44.401  20.500   2.257
68448W        W36842  16.939  29.651  13.856
68449W        W36843  12.263  28.936   0.860
68450W        W36844  15.503  34.003  11.069
68451W        W36845   6.596  11.902   2.588
68452W        W36846  22.174  43.250  11.189
68453W        W36847  28.434  37.865  11.624
68454W        W36848  33.025   2.253   1.743
68455W        W36849  14.994   3.675  11.056
68456W        W36850   1.364  36.378   2.784
68457W        W36851   8.282  37.763  10.738
68458W        W36852   9.152  13.874  12.422
68459W        W36853  16.961  12.613  11.986
68460W        W36854  27.482  34.955  14.286
68461W        W36855  35.573  26.188  12.921
68462W        W36856  43.274  38.063  12.313
68463W        W36857  20.192  40.029   0.450
68464W        W36858  31.516  16.577  12.395
68465W        W36859   7.397  11.400   4.229
68466W        W36860  35.794  23.938  11.091
68467W        W36861  26.693   9.243  11.949
68468W        W36862  27.103  17.270   1.967
68469W        W36863  33.880  34.071   0.556
68470W        W36864  25.737  26.498  10.802
68471W        W36865  16.683  23.520  10.721
68472W        W36866  34.445   1.660  14.267
68473W        W36867  33.078  42.281   2.220
68474W        W36868   8.738  36.000   3.752
68475W        W36869  38.046  25.152   2.688
68476W        W36870  36.331  15.084  10.792
68477W        W36871   2.901  44.301  11.955
68478W        W36872  43.762  15.410  11.051
68479W        W36873   4.943  43.858  14.768
68480W        W36874   7.669  13.801   1.365
68481W        W36875  21.333   7.657  12.573
68482W        W36876   0.343   4.294   2.425
68483W        W36877   2.917  30.580   3.939
68484W        W36878   9.879  27.510  12.103
68485W        W36879  34.248  30.967   1.650
68486W        W36880  16.179   4.668  12.473
68487W        W36881  31.269  17.244   4.195
68488W        W36882  16.804  15.552  11.049
68489W        W36883  40.194   1.132  13.049
68490W        W36884   8.858   6.307  13.452
68491W        W36885  26.883  34.673   2.729
68492W        W36886  22.671  21.508  12.158
68493W        W36887  38.792  16.979  14.039
68494W        W36888  19.276   7.428   2.237
68495W        W36889  21.325  32.044   4.607
68496W        W36890  16.290  27.016   3.725
68497W        W36891   6.874  39.781   0.825
68498W        W36892  33.053  27.167  13.279
68499W        W36893  21.277   0.739   0.682
68500W        W36894  43.280  33.480   0.810
68501W        W36895  23.746   3.831   3.280
68502W        W36896   0.957   8.599  12.509
68503W        W36897  36.801   0.689  12.888
68504W        W36898  41.330  28.038   2.813
68505W        W36899  31.214   8.560  11.680
68506W        W36900  41.567  34.930   4.683
68507W        W36901   2.111  42.756  12.843
68508W        W36902  28.170  10.447   4.662
68509W        W36903  12.355   3.717   0.850
68510W        W36904  38.980  24.188   3.751
68511W        W36905   7.826  35.020  12.933
68512W        W36906  42.975  24.233  12.473
68513W        W36907  21.550  14.678   0.908
68514W        W36908  29.520  43.000   2.255
68515W        W36909  23.643  31.169   1.039
68516W        W36910  17.725   6.301   4.009
68517W        W36911   8.411  20.720   1.778
68518W        W36912  25.419  23.225   2.802
68519W        W36913  29.796   2.436   3.807
68520W        W36914  42.324  25.204  11.574
68521W        W36915  22.795  24.654   4.880
68522W        W36916  20.468   0.225  12.525
68523W        W36917  33.556  14.822   2.309
68524W        W36918  13.308  39.411   4.888
68525W        W36919  19.786  17.735   2.723
68526W        W36920  38.791  41.894   3.596
68527W        W36921  13.238  10.389  14.017
68528W        W36922  36.915  32.962  11.983
68529W        W36923   9.420  29.898  14.954
68530W        W36924  27.174   1.472   0.041
68531W        W36925   6.290  19.787   4.366
68532W        W36926  31.878  17.125  13.897
68533W        W36927  27.515  20.702  12.148
68534W        W36928  15.623  37.351   2.931
68535W        W36929  16.582  40.395  12.368
68536W        W36930  39.887  27.529  12.977
68537W        W36931  35.377   8.858   2.767
68538W        W36932  19.536   2.467   2.747
68539W        W36933   3.652   0.947   1.396
68540W        W36934  37.846  36.465   0.222
68541W        W36935  21.675   4.448   4.098
68542W        W36936  23.224   7.848   1.084
68543W        W36937  44.388   8.865  11.873
68544W        W36938   3.803   6.469  13.965
68545W        W36939   1.310  31.127   0.276
68546W        W36940  37.180   5.616   1.256
68547W        W36941  14.045  23.228   0.683
68548W        W36942  36.357   6.351  14.418
68549W        W36943  23.446  15.189  10.662
68550W        W36944  22.130  40.010   0.897
68551W        W36945  26.241  12.638  12.037
68552W        W36946   3.193  38.482   4.590
68553W        W36947  11.614   5.797  10.995
68554W        W36948  16.295   9.528   0.572
68555W        W36949  30.029  20.293  14.896
68556W        W36950  44.947  33.151   3.428
68557W        W36951  31.626  27.032  12.671
68558W        W36952   7.551   0.743  12.023
68559W        W36953  14.106   6.141   2.107
68560W        W36954  33.029  34.515  13.109
68561W        W36955  26.117  42.044  13.739
68562W        W36956   0.679  40.978   1.741
68563W        W36957  31.656  38.869   2.293
68564W        W36958  25.104  22.312  10.751
68565W        W36959  34.851  10.204  13.572
68566W        W36960  24.428   0.625  10.934
68567W        W36961  39.511  18.243   1.975
68568W        W36962   8.139  30.926   2.134
68569W        W36963  26.253  29.088   4.580
68570W        W36964   7.932  33.436   1.714
68571W        W36965  28.084   1.795  13.522
68572W        W36966  20.609  25.448  13.164
68573W        W36967   5.195  16.080  12.574
68574W        W36968   6.030  22.547  11.215
68575W        W36969  28.875  41.802   0.413
68576W        W36970  41.429  38.289  11.693
68577W        W36971  39.985   8.028   2.789
68578W        W36972  24.744   7.940  12.496
68579W        W36973  14.399  26.943  10.590
68580W        W36974   1.983  20.003  11.949
68581W        W36975  32.638  29.686   2.844
68582W        W36976  33.759   5.534  11.196
68583W        W36977  26.189  36.406  14.861
68584W        W36978  38.915  34.985   4.119
68585W        W36979   4.807  37.580   2.127
68586W        W36980   7.873  11.210   2.890
68587W        W36981  23.530  42.068  14.415
68588W        W36982  20.279  14.067  13.315
68589W        W36983  10.181   8.406  12.581
68590W        W36984  24.562  35.854  12.790
68591W        W36985  32.009  35.860  14.951
68592W        W36986  27.019  20.087  10.640
68593W        W36987  18.963  39.402   0.287
68594W        W36988  43.330   9.190   0.908
68595W        W36989  14.083   9.309   4.524
68596W        W36990  31.035  16.085  12.117
68597W        W36991  42.300  28.574  12.406
68598W        W36992  26.124  14.550  14.973
68599W        W36993  30.855  31.813   4.552
68600W        W36994   4.846  33.175   3.669
68601W        W36995   7.330  38.702  14.044
68602W        W36996  14.235  25.948  10.665
68603W        W36997  42.525   4.765  10.684
68604W        W36998  14.342  34.477   2.106
68605W        W36999   2.946  26.489  13.975
68606W        W37000  33.091   3.802   0.731
68607W        W37001   6.467  34.773   5.067
68608W        W37002  20.299  30.386   1.246
68609W        W37003  11.424  16.245  14.029
68610W        W37004  22.224  16.781  12.748
68611W        W37005  19.221   0.538   4.891
68612W        W37006  15.055  36.401   2.840
68613W        W37007   0.844   9.342  13.002
68614W        W37008   7.192  36.325   4.939
68615W        W37009  27.685  35.676   3.806
68616W        W37010   5.064  43.191  10.721
68617W        W37011  35.854  40.341   3.610
68618W        W37012   2.252  44.501  11.184
68619W        W37013  34.272  41.320   2.853
68620W        W37014   0.037  21.650   3.572
68621W        W37015  17.796   4.036   1.924
68622W        W37016  34.032  18.574  10.644
68623W        W37017  27.972  40.590  11.934
68624W        W37018  23.282  36.612  12.696
68625W        W37019  15.215  14.795  10.969
68626W        W37020  28.080   6.247   3.701
68627W        W37021   3.711   9.137   3.807
68628W        W37022  18.513  36.828  13.651
68629W        W37023   5.722   0.438  11.433
68630W        W37024  29.911  33.987   2.747
68631W        W37025  15.114  13.679  11.702
68632W        W37026  23.387  39.804   3.132
68633W        W37027  30.582  30.498  14.395
68634W        W37028  27.350  42.871   3.232
68635W        W37029  37.909  31.381  12.962
68636W        W37030  15.256  30.748   3.482
68637W        W37031  22.794  38.446   1.362
68638W        W37032   6.193  17.768   2.808
68639W        W37033   8.910  21.131  11.566
68640W        W37034  34.073  41.605   4.182
68641W        W37035   0.898  13.986   5.033
68642W        W37036  40.329  44.780   1.480
68643W        W37037  29.505  29.059   0.848
68644W        W37038  15.325   2.548   2.145
68645W        W37039  44.316  44.205  12.411
68646W        W37040  39.176  42.891   1.191
68647W        W37041  29.509  13.858   0.785
68648W        W37042   0.442  19.194   1.173
68649W        W37043  29.991  42.296   0.398
68650W        W37044  38.709  27.986  13.253
68651W        W37045   9.333  10.089  10.088
68652W        W37046  32.033  40.186  10.875
68653W        W37047  27.255   8.196   2.625
68654W        W37048  25.979  19.745  11.935
68655W        W37049  42.071  18.097   1.437
68656W        W37050  19.738  20.517   3.212
68657W        W37051   5.877  27.892   4.219
68658W        W37052  13.618  35.970  11.153
68659W        W37053   5.130   7.212  11.018
68660W        W37054   9.408  28.090  12.526
68661W        W37055   6.312  10.267  11.566
68662W        W37056  28.743  15.333  12.984
68663W        W37057  24.529   8.289   4.569
68664W        W37058  44.393  25.568   1.693
68665W        W37059  28.442  40.783  11.190
68666W        W37060   4.951   6.200   1.901
68667W        W37061  25.215   9.033   0.403
68668W        W37062  34.385  34.064  13.097
68669W        W37063  23.971   3.740   3.766
68670W        W37064  28.923  25.975  11.141
68671W        W37065  44.780  26.558  14.030
68672W        W37066   7.536   1.719   3.776
68673W        W37067  40.588   7.213   2.450
68674W        W37068  19.692  36.842  12.635
68675W        W37069  23.486  42.521   2.371
68676W        W37070   2.780   3.630   1.628
68677W        W37071  42.485  29.115  12.665
68678W        W37072  15.520  32.955   3.770
68679W        W37073   7.496  26.148  14.374
68680W        W37074  17.860  42.607  12.388
68681W        W37075  20.003  20.292   1.676
68682W        W37076   5.264  30.599  13.294
68683W        W37077  42.612  34.397   3.524
68684W        W37078   4.873  35.521   1.441
68685W        W37079  28.969  26.511   4.115
68686W        W37080  38.853  44.842  12.479
68687W        W37081  40.995  41.730   2.328
68688W        W37082   4.998  36.806  11.983
68689W        W37083  29.152  18.763   0.714
68690W        W37084   8.743  36.417   0.911
68691W        W37085  43.291  12.390  13.631
68692W        W37086   2.568  16.597   3.146
68693W        W37087   4.444  23.922   4.042
68694W        W37088   4.917  10.150   1.288
68695W        W37089  39.889  26.544  12.811
68696W        W37090  28.509  30.968   2.466
68697W        W37091   8.298  18.472  12.387
68698W        W37092  20.933  20.758   0.813
68699W        W37093  22.582  35.987   1.988
68700W        W37094  17.691  11.800   2.803
68701W        W37095  30.060   2.256  10.770
68702W        W37096  33.550   0.773  14.455
68703W        W37097   6.908  42.717  14.316
68704W        W37098  42.066  12.120   0.925
68705W        W37099  30.542  30.085   4.650
68706W        W37100   8.677  21.742   2.304
68707W        W37101  36.447  18.326   1.188
68708W        W37102  30.450  13.377  14.816
68709W        W37103  14.023   7.090  12.156
68710W        W37104  44.231  26.630   2.517
68711W        W37105  40.562  37.253  11.517
68712W        W37106   6.919   3.215   2.869
68713W        W37107  40.816  38.105   1.188
68714W        W37108  18.347  34.470  14.258
68715W        W37109   6.792  43.434   0.895
68716W        W37110  12.741  27.535  13.971
68717W        W37111  10.958  44.373  14.842
68718W        W37112  21.250  42.993  14.823
68719W        W37113  32.228  18.067  11.947
68720W        W37114  33.370  44.403   1.460
68721W        W37115  23.428  42.933   5.033
68722W        W37116  29.231  24.573   0.428
68723W        W37117  34.623  38.295   4.556
68724W        W37118   0.367  20.446   4.559
68725W        W37119  12.691   6.934   5.418
68726W        W37120  39.436   3.933  11.047
68727W        W37121   3.881  12.704   3.193
68728W        W37122  25.037  41.942   0.875
68729W        W37123   0.359  31.521  14.320
68730W        W37124  25.119  34.418  14.014
68731W        W37125  14.031  25.224   3.154
68732W        W37126  32.041  44.961  10.867
68733W        W37127  21.502  11.192   1.215
68734W        W37128  12.590  32.334  13.824
68735W        W37129   7.299  35.703   1.867
68736W        W37130   8.639   5.123  14.087
68737W        W37131  33.403  19.726   4.348
68738W        W37132  32.170  11.326   4.114
68739W        W37133  17.336  12.160   1.932
68740W        W37134  42.506   4.360   1.393
68741W        W37135   6.906   3.812  14.252
68742W        W37136  21.137  22.058   1.872
68743W        W37137   2.429   0.626   4.075
68744W        W37138  10.609  30.196   3.667
68745W        W37139  17.520  41.766   0.651
68746W        W37140  37.357  25.486   0.519
68747W        W37141  19.077  44.363  11.205
68748W        W37142  21.227  11.473   0.433
68749W        W37143  18.922  40.995   2.319
68750W        W37144  37.522  26.573  11.479
68751W        W37145  15.944  11.097   2.494
68752W        W37146  13.680  34.340   4.010
68753W        W37147  16.160  17.887  12.833
68754W        W37148  36.975  32.428   0.108
68755W        W37149  18.052  23.249   1.676
68756W        W37150   1.365   0.962  14.295
68757W        W37151  26.411  38.300   0.767
68758W        W37152   8.893  30.925   1.754
68759W        W37153  23.785  14.676  11.116
68760W        W37154   3.943   7.545   4.327
68761W        W37155   1.008  27.496   0.311
68762W        W37156  21.528  10.917  12.907
68763W        W37157   9.187  12.895   3.247
68764W        W37158  44.991  39.311   3.695
68765W        W37159   5.404   7.048  14.210
68766W        W37160  29.305  28.157   3.213
68767W        W37161  22.007   0.785  14.274
68768W        W37162   5.698   7.635  11.626
68769W        W37163  28.646  31.846   0.798
68770W        W37164  24.859   7.247  11.429
68771W        W37165  33.656   3.053   2.215
68772W        W37166  19.655   7.614   0.805
68773W        W37167  15.398   3.086   5.141
68774W        W37168  41.020  29.927  11.669
68775W        W37169  38.085  44.304  13.941
68776W        W37170  14.103   8.316   0.277
68777W        W37171  37.967  44.538   3.646
68778W        W37172  16.575   4.203   1.824
68779W        W37173  34.004  21.537   4.550
68780W        W37174  35.930  23.203  13.816
68781W        W37175  24.041  10.086  10.629
68782W        W37176  37.163  11.761  14.361
68783W        W37177   5.214  10.196   2.412
68784W        W37178  26.070  40.188   0.785
68785W        W37179  43.339  44.842   4.033
68786W        W37180  32.464  39.273  12.053
68787W        W37181  37.783  22.659  13.960
68788W        W37182  28.983   2.819   1.402
68789W        W37183  26.976  22.928  13.524
68790W        W37184  41.025  16.320   3.732
68791W        W37185  35.933  13.603   0.310
68792W        W37186  13.872  21.547  14.751
68793W        W37187  12.571  37.807  10.551
68794W        W37188  20.250  28.690  12.544
68795W        W37189  21.140  18.203  14.873
68796W        W37190  16.392  23.164  11.512
68797W        W37191  22.456  39.209  10.284
68798W        W37192  35.772  39.418   3.729
68799W        W37193  40.223   6.117   4.085
68800W        W37194  25.155   7.637  13.793
68801W        W37195  17.202  40.281  11.561
68802W        W37196  41.382  18.260  12.171
68803W        W37197  11.875   7.627  13.977
68804W        W37198  34.904  33.656   4.189
68805W        W37199  36.164  41.435  14.434
68806W        W37200  40.008   5.245  14.743
68807W        W37201  24.435  19.297  11.891
68808W        W37202  37.398  19.713   4.361
68809W        W37203  40.806   4.943  14.078
68810W        W37204   1.024   4.360  11.544
68811W        W37205  35.200   0.332   3.562
68812W        W37206   1.023   8.947   0.030
68813W        W37207   8.236  35.319  12.042
68814W        W37208  16.552  29.727  10.282
68815W        W37209  35.570  28.931  11.515
68816W        W37210  31.025  24.828   1.851
68817W        W37211  44.555  18.963  14.462
68818W        W37212  10.673   7.909  12.478
68819W        W37213  11.549  12.580  11.014
68820W        W37214  20.687  29.600   4.713
68821W        W37215  22.080   4.356   4.425
68822W        W37216  20.220   8.639   4.855
68823W        W37217  28.900  24.739   4.540
68824W        W37218   9.329  38.139  11.592
68825W        W37219   6.057   5.832  12.935
68826W        W37220  11.558  16.527  11.527
68827W        W37221  25.369  11.400  12.465
68828W        W37222  38.535  30.287  11.720
68829W        W37223  39.974  16.358  14.901
68830W        W37224  20.790  26.997   3.557
68831W        W37225  32.345  14.928   4.592
68832W        W37226   2.343  31.485  14.085
68833W        W37227  18.563  22.847   3.065
68834W        W37228  14.701   1.905   4.990
68835W        W37229  27.325  41.547   2.897
68836W        W37230  19.638  28.264   0.567
68837W        W37231  39.096  33.070   4.120
68838W        W37232   8.319  17.943  12.361
68839W        W37233  26.115  24.011   4.639
68840W        W37234  38.947   2.337  13.367
68841W        W37235   6.326  18.304   4.974
68842W        W37236  10.866  43.265   3.205
68843W        W37237  17.961  38.618  12.025
68844W        W37238  39.541  38.821  13.783
68845W        W37239  34.140  29.668   2.080
68846W        W37240  28.965  37.547  13.191
68847W        W37241   7.621   7.888   2.964
68848W        W37242  14.092  38.406   1.242
68849W        W37243   0.322  13.668  13.494
68850W        W37244  38.936   0.500   2.374
68851W        W37245  40.372  10.892   4.703
68852W        W37246  34.130  41.265  12.922
68853W        W37247  18.583  29.515  12.498
68854W        W37248   7.909  43.573  12.056
68855W        W37249  27.368  18.076   1.247
68856W        W37250  38.987  29.281   4.332
68857W        W37251  10.265   3.681   2.220
68858W        W37252   7.695  23.987   3.267
68859W        W37253  36.187  41.863  14.057
68860W        W37254  33.860  39.200   0.493
68861W        W37255  40.191   4.945   3.752
68862W        W37256  42.016  29.013   0.892
68863W        W37257  43.557  12.066   3.113
68864W        W37258  20.101   4.033   2.331
68865W        W37259   1.798  24.905  12.499
68866W        W37260  18.589  18.525  12.635
68867W        W37261   7.004  16.639  12.541
68868W        W37262  30.461  40.181  11.778
68869W        W37263  14.639  31.430  13.822
68870W        W37264   8.400  32.642   1.253
68871W        W37265  26.526   5.275   0.748
68872W        W37266  29.976  38.123  12.163
68873W        W37267  40.526  11.402  14.802
68874W        W37268  25.051   4.193   0.468
68875W        W37269  29.197  12.408   0.999
68876W        W37270  34.422  26.185  10.801
68877W        W37271  42.946  32.878   4.131
68878W        W37272  31.595  40.848   0.366
68879W        W37273   3.805   1.549  10.332
68880W        W37274   2.679  33.636   4.812
68881W        W37275  19.590  43.596  11.530
68882W        W37276   6.388   2.987  14.069
68883W        W37277  12.372  38.954  14.823
68884W        W37278   8.868  14.078   0.067
68885W        W37279  21.484  11.816   0.777
68886W        W37280  25.134  16.282   4.240
68887W        W37281  34.081  27.674  11.619
68888W        W37282   7.871  24.558   3.256
68889W        W37283   3.579   7.477   2.227
68890W        W37284  16.712  19.733  12.959
68891W        W37285  42.485  43.932  13.065
68892W        W37286  18.477  25.011   0.907
68893W        W37287  20.136  31.405  10.850
68894W        W37288   5.511  19.733  11.129
68895W        W37289  26.038   8.066   1.258
68896W        W37290  12.834   9.446   2.397
68897W        W37291  25.729  11.127  11.201
68898W        W37292   8.738  28.354   1.628
68899W        W37293  27.867   3.562   1.763
68900W        W37294  13.323   0.722  13.339
68901W        W37295  41.001  17.197   3.591
68902W        W37296   2.185   2.795   1.219
68903W        W37297  19.361  31.481  13.915
68904W        W37298  24.768   0.697  12.865
68905W        W37299  26.234  11.674   4.410
68906W        W37300  25.050  42.236  14.633
68907W        W37301  38.387  11.169   2.555
68908W        W37302  29.366  39.018   0.367
68909W        W37303   3.976  17.204  12.580
68910W        W37304  40.737   1.238   0.307
68911W        W37305  38.251   2.733   1.994
68912W        W37306  14.138   1.366   1.090
68913W        W37307   6.400  11.858  14.867
68914W        W37308  14.738   3.257   4.762
68915W        W37309  36.263  29.420   4.375
68916W        W37310   6.635  29.341  11.246
68917W        W37311  44.508   8.193   3.684
68918W        W37312   6.863  21.766   1.644
68919W        W37313  30.596  16.117  12.616
68920W        W37314   7.510  34.824   2.000
68921W        W37315  15.239  25.017   0.283
68922W        W37316  16.945  22.087   4.925
68923W        W37317   4.074  42.833  14.420
68924W        W37318  38.180   1.010   3.936
68925W        W37319  10.660  10.253  10.199
68926W        W37320  18.126   9.179   4.393
68927W        W37321  35.043   6.481   4.186
68928W        W37322  25.513  44.833  14.050
68929W        W37323  12.898  38.140  13.293
68930W        W37324   4.913  25.023  12.041
68931W        W37325   3.691   8.091   3.822
68932W        W37326  28.129   0.778  11.036
68933W        W37327   5.865  28.817  11.706
68934W        W37328  33.213  38.481   4.621
68935W        W37329  38.581   4.993  11.743
68936W        W37330  30.673  17.771   1.245
68937W        W37331  10.869  16.894  14.067
68938W        W37332  33.093   7.281   3.786
68939W        W37333  20.097  38.322  12.811
68940W        W37334  10.143  16.536   2.155
68941W        W37335  32.575   2.703  12.602
68942W        W37336  42.768  21.562   2.629
68943W        W37337  23.670  25.132   0.313
68944W        W37338  10.266  27.136   2.145
68945W        W37339  11.543  34.397   0.427
68946W        W37340  11.230  19.699   4.360
68947W        W37341  43.300  38.043   1.340
68948W        W37342  17.312  22.487   3.370
68949W        W37343  16.474  20.685   4.064
68950W        W37344  13.173  33.453   2.858
68951W        W37345  16.912  27.029   1.723
68952W        W37346  39.877  25.389   0.652
68953W        W37347  44.334  23.409  12.397
68954W        W37348  30.482   9.787  12.261
68955W        W37349  36.496  22.512   1.778
68956W        W37350   5.969  36.062   0.001
68957W        W37351  42.353  24.115   2.990
68958W        W37352  39.260  16.170   3.719
68959W        W37353  28.144  23.262   1.394
68960W        W37354   0.369  44.100  10.498
68961W        W37355  19.478  15.167   2.413
68962W        W37356  42.512  37.949  12.440
68963W        W37357   6.935  16.385   2.644
68964W        W37358  11.967  17.975   2.984
68965W        W37359  13.312   9.443  13.821
68966W        W37360  35.840  44.481  14.426
68967W        W37361  10.156  18.241   1.471
68968W        W37362  13.577  37.963   2.729
68969W        W37363  36.836  26.130  11.044
68970W        W37364  14.353   3.845  10.331
68971W        W37365  17.356  30.173   1.356
68972W        W37366   0.364  20.575  12.109
68973W        W37367   2.481   5.760   1.198
68974W        W37368  23.693   6.942   3.112
68975W        W37369   4.298   4.456  14.377
68976W        W37370  29.707  43.311   2.824
68977W        W37371  13.266  11.807  13.429
68978W        W37372  21.662  44.940   0.350
68979W        W37373  34.428   7.322  14.885
68980W        W37374  18.029  41.906   3.063
68981W        W37375  43.256  39.819  14.324
68982W        W37376   8.136   5.239  14.312
68983W        W37377  35.866   2.003  14.107
68984W        W37378  16.829  18.681  13.726
68985W        W37379  36.422  31.497   2.694
68986W        W37380  43.954  28.453   1.194
68987W        W37381  42.297  15.688  12.518
68988W        W37382  25.790  44.036   3.625
68989W        W37383  32.558  15.100   2.800
68990W        W37384  16.652  36.737  14.356
68991W        W37385  43.215  13.334  12.041
68992W        W37386   2.771  27.108  12.166
68993W        W37387  24.527  36.417   4.554
68994W        W37388  41.548  34.946  11.739
68995W        W37389   9.750  29.066  11.130
68996W        W37390  44.130  39.323  14.433
68997W        W37391   8.645  33.111   2.858
68998W        W37392  32.148  27.514  10.672
68999W        W37393  30.943  16.591   1.725
69000W        W37394  41.887  10.252   5.014
69001W        W37395  31.989  12.260  11.665
69002W        W37396  40.352  40.461   3.326
69003W        W37397  28.198  31.161  14.757
69004W        W37398  18.135   1.666  12.951
69005W        W37399  19.326  23.058  13.795
69006W        W37400  26.420  11.783  12.083
69007W        W37401  21.027  37.060   4.314
69008W        W37402  30.250  39.249  12.285
69009W        W37403  37.412  43.718   4.683
69010W        W37404   9.620  39.843  12.964
69011W        W37405  28.961  31.608   3.005
69012W        W37406  16.343  23.578   4.570
69013W        W37407  30.694   3.403   1.118
69014W        W37408  20.460  10.277  14.331
69015W        W37409  40.450  42.395  14.699
69016W        W37410   7.762  13.694  10.507
69017W        W37411  11.434   1.226   2.417
69018W        W37412   3.137  25.078  14.016
69019W        W37413  33.414  33.515   0.171
69020W        W37414  20.252   9.388  12.914
69021W        W37415  12.870  23.703  11.586
69022W        W37416  41.549  37.883   0.811
69023W        W37417  35.877  41.413  12.918
69024W        W37418  39.992  18.138   1.770
69025W        W37419  31.201  26.384   2.713
69026W        W37420   2.890  35.229   3.374
69027W        W37421   5.410   9.324   0.317
69028W        W37422  32.288  24.710   4.030
69029W        W37423   4.408  29.656   2.280
69030W        W37424  35.898  42.956   3.383
69031W        W37425  20.963  29.204  14.957
69032W        W37426  42.014   0.775  10.407
69033W        W37427   2.611  44.427  10.278
69034W        W37428  17.076  37.262  10.738
69035W        W37429  43.386   6.388   1.761
69036W        W37430   8.483  20.824  12.892
69037W        W37431  22.829  13.243   4.560
69038W        W37432  37.103  23.601   2.306
69039W        W37433   2.701  12.702  10.437
69040W        W37434   9.728  32.657   2.676
69041W        W37435  35.067  26.243  12.936
69042W        W37436  29.646   7.106   3.204
69043W        W37437  36.681  31.622   4.936
69044W        W37438  30.139  15.618  12.013
69045W        W37439   0.478  42.946   4.645
69046W        W37440   9.464   4.578   5.917
69047W        W37441  27.435  13.194   2.313
69048W        W37442  23.025   3.764  12.437
69049W        W37443  17.974  17.058  11.518
69050W        W37444  20.493  41.294   3.787
69051W        W37445  12.735   6.271  14.921
69052W        W37446  34.149   2.730  13.968
69053W        W37447  25.545  10.372   0.042
69054W        W37448  14.256   6.223  13.395
69055W        W37449  40.533  20.307  14.905
69056W        W37450  41.834  15.572  10.517
69057W        W37451  11.207  12.836   2.800
69058W        W37452  37.845  42.001   1.352
69059W        W37453  23.706  21.893  12.705
69060W        W37454   1.108   1.854   1.446
69061W        W37455  36.433  10.623  11.628
69062W        W37456   5.908   2.859   2.231
69063W        W37457  12.398  14.212   3.459
69064W        W37458   7.097  21.134   2.934
69065W        W37459   2.203  12.392  12.524
69066W        W37460   5.332  24.240   1.286
69067W        W37461   6.914  26.113   2.845
69068W        W37462  13.573  11.075   0.916
69069W        W37463  12.425  27.008  10.647
69070W        W37464  22.925  26.616  13.395
69071W        W37465  29.032  35.954  10.631
69072W        W37466   9.860   7.364   1.845
69073W        W37467  15.650  27.958   3.393
69074W        W37468  42.218   4.617  14.679
69075W        W37469  24.585   4.899  12.062
69076W        W37470  39.959  44.082   0.378
69077W        W37471  26.944  17.877   3.583
69078W        W37472  40.225  12.213   3.338
69079W        W37473   1.071  20.170  13.937
69080W        W37474  44.837   1.458  13.441
69081W        W37475  27.490  26.998   1.451
69082W        W37476  23.576  16.821  12.537
69083W        W37477  16.255  35.189   4.575
69084W        W37478  15.885  18.043  10.655
69085W        W37479  21.446   0.902   1.967
69086W        W37480  43.008  28.217   3.765
69087W        W37481  30.516   7.391   2.382
69088W        W37482  39.493  20.145   3.550
69089W        W37483  34.663  13.351   0.406
69090W        W37484   2.776  41.452  11.949
69091W        W37485   7.855  26.817  14.887
69092W        W37486   1.551  10.331  10.742
69093W        W37487  33.083   5.764  13.586
69094W        W37488  22.235  36.909   3.749
69095W        W37489  25.050   8.146  14.808
69096W        W37490  44.027   1.701  12.540
69097W        W37491  11.357  38.259  11.007
69098W        W37492  35.600  35.504   4.805
69099W        W37493  33.123   3.802  12.514
69100W        W37494  31.880  25.952  10.788
69101W        W37495  42.227  27.033  11.234
69102W        W37496   7.385  35.336  14.892
69103W        W37497  15.802  14.622  12.231
69104W        W37498   5.882   1.523  10.274
69105W        W37499  15.859  23.253   1.344
69106W        W37500  31.569   6.678   1.635
69107W        W37501  28.888  22.947   2.875
69108W        W37502  13.210  21.706  13.332
69109W        W37503   5.628   9.187  12.932
69110W        W37504  21.647   3.321   1.539
69111W        W37505   1.488  12.107  12.106
69112W        W37506  34.619  44.892  14.480
69113W        W37507  22.715  37.474  14.961
69114W        W37508  33.264  18.806   4.523
69115W        W37509  11.582  28.094   4.533
69116W        W37510  14.491  35.688  11.160
69117W        W37511  22.759  18.073   3.889
69118W        W37512  30.360  25.354  11.996
69119W        W37513  18.763  13.666   3.747
69120W        W37514  18.321   1.970   0.267
69121W        W37515  22.674  37.836  14.293
69122W        W37516  44.747  18.059   3.393
69123W        W37517  27.563  13.860   0.629
69124W        W37518   9.414  21.469   1.651
69125W        W37519  17.202  21.590   0.949
69126W        W37520  13.358  38.467   2.859
69127W        W37521  11.917  25.739  12.499
69128W        W37522  25.147   5.621  13.994
69129W        W37523   9.296  44.511  10.377
69130W        W37524  38.943  20.236   4.861
69131W        W37525  11.519   2.864  12.147
69132W        W37526   6.769  17.126  14.101
69133W        W37527   4.818  18.491  12.424
69134W        W37528  36.772   5.854  12.413
69135W        W37529  18.212  42.971   1.917
69136W        W37530  13.936  41.341  11.020
69137W        W37531   6.447  43.522  12.938
69138W        W37532  26.071  27.636   4.577
69139W        W37533  37.765  39.800   4.122
69140W        W37534  41.297  34.615   4.341
69141W        W37535  27.233  25.572  12.857
69142W        W37536  18.108  14.724  14.943
69143W        W37537  23.686   9.178  11.704
69144W        W37538   0.981  32.656  11.867
69145W        W37539  27.016  36.004  12.503
69146W        W37540  42.296  32.388  10.593
69147W        W37541  20.326  35.040   3.653
69148W        W37542  33.424  26.760   4.023
69149W        W37543  11.577  15.386  11.130
69150W        W37544  37.034  17.781   2.693
69151W        W37545   3.734  26.775   0.215
69152W        W37546  12.245  10.174  12.515
69153W        W37547  42.059  22.478   2.876
69154W        W37548  28.658  41.113  14.709
69155W        W37549  33.879   1.127  11.396
69156W        W37550   7.834  16.284   1.836
69157W        W37551  35.958  18.516  12.744
69158W        W37552  18.537  20.149   5.028
69159W        W37553  41.890  34.481  14.310
69160W        W37554  19.141   7.458  10.181
69161W        W37555   8.640  41.575  11.920
69162W        W37556  29.554  38.975   1.806
69163W        W37557  41.936  41.784   2.147
69164W        W37558  30.749   7.391   1.910
69165W        W37559  21.689  38.598  10.606
69166W        W37560   4.807   3.799   0.192
69167W        W37561  44.808  35.672   2.292
69168W        W37562  31.614  14.317  13.927
69169W        W37563   7.735  29.595  14.408
69170W        W37564  27.342  32.417  12.387
69171W        W37565  17.104  41.756   0.245
69172W        W37566   5.273  42.543  12.881
69173W        W37567  13.301  44.568  11.982
69174W        W37568   9.358  10.644  12.799
69175W        W37569  11.404  21.541  12.882
69176W        W37570  43.829  37.385   0.171
69177W        W37571  10.810  43.460  14.888
69178W        W37572   5.041  30.965  10.308
69179W        W37573  20.556  22.714   0.099
69180W        W37574  40.041   0.463  13.494
69181W        W37575  41.838   9.592   1.321
69182W        W37576  33.961  24.545   0.429
69183W        W37577  34.258   0.192  11.223
69184W        W37578  10.722   2.761   2.771
69185W        W37579  42.406  11.834   3.643
69186W        W37580   1.175  40.113   1.441
69187W        W37581  21.453  35.456   3.350
69188W        W37582  14.213   4.707  14.464
69189W        W37583  32.335  37.273   0.942
69190W        W37584  30.570  41.878   2.236
69191W        W37585  13.546  10.745  11.633
69192W        W37586  11.464  42.312  13.561
69193W        W37587  16.584  30.367  13.364
69194W        W37588   9.163  23.063  12.976
69195W        W37589  26.334  24.097   0.907
69196W        W37590  33.835   1.301   1.311
69197W        W37591   2.851  24.049  14.007
69198W        W37592   9.910  39.938  13.882
69199W        W37593  42.789  42.975  12.053
69200W        W37594   5.916  38.249  11.033
69201W        W37595   4.218  33.458  14.352
69202W        W37596  22.177  36.846  13.713
69203W        W37597  39.882  27.054  11.129
69204W        W37598  21.497   4.872  13.238
69205W        W37599  20.618  16.739   3.614
69206W        W37600  10.771  15.664   3.781
69207W        W37601  13.021  27.397  12.056
69208W        W37602  40.538   3.184   3.958
69209W        W37603  33.196   6.180  12.462
69210W        W37604  29.103  22.586   3.940
69211W        W37605  36.131  23.113  13.349
69212W        W37606  19.748  21.250   3.770
69213W        W37607  10.237  34.415  10.798
69214W        W37608  12.384  25.944   4.342
69215W        W37609  15.803  38.329   3.292
69216W        W37610  24.280  24.566  11.649
69217W        W37611  38.903  14.968   4.164
69218W        W37612  28.625  11.617  12.408
69219W        W37613  38.559  16.899   1.773
69220W        W37614  26.708  16.763   4.545
69221W        W37615  24.050  17.631   3.999
69222W        W37616  34.553   3.210   4.373
69223W        W37617   0.276  22.413   4.239
69224W        W37618  27.661  19.993  14.935
69225W        W37619  17.321  30.126   0.438
69226W        W37620  27.658  39.210  11.617
69227W        W37621  30.062   6.449   4.846
69228W        W37622  34.773  21.801  13.437
69229W        W37623  41.730  34.082  10.661
69230W        W37624  43.712   4.916  14.396
69231W        W37625   2.478  34.376  10.874
69232W        W37626  15.912   6.814  11.340
69233W        W37627  16.382  16.631  10.924
69234W        W37628  22.622  20.488   4.314
69235W        W37629  42.326   4.952  12.125
69236W        W37630  30.970  44.225   2.203
69237W        W37631  23.836  38.162  13.558
69238W        W37632  24.405  30.731  14.728
69239W        W37633  10.778   0.325   4.456
69240W        W37634  19.701  29.179   0.457
69241W        W37635  10.897  18.221   1.759
69242W        W37636   8.184   6.704  11.221
69243W        W37637  32.549  25.657   3.761
69244W        W37638  44.011  32.212   0.446
69245W        W37639  43.010   5.671  13.036
69246W        W37640  34.422  31.537  14.028
69247W        W37641  16.524  20.082  11.234
69248W        W37642  11.902   1.753   0.209
69249W        W37643  32.055  22.970  10.423
69250W        W37644   9.286  42.544  10.509
69251W        W37645   4.293  21.675   4.136
69252W        W37646  20.439  43.554  14.250
69253W        W37647  30.931  39.497  13.785
69254W        W37648  42.271   5.463  12.171
69255W        W37649  15.096  12.171  12.948
69256W        W37650  14.341  22.033  11.515
69257W        W37651  28.758   8.535  11.636
69258W        W37652  32.644  13.191  11.413
69259W        W37653   7.404   1.534  14.251
69260W        W37654  39.525   9.142  14.362
69261W        W37655   0.361  44.970   4.414
69262W        W37656   8.936  35.013   3.229
69263W        W37657  29.011  13.069  13.475
69264W        W37658   2.186  40.546   4.978
69265W        W37659   5.391  19.516   3.988
69266W        W37660  18.843  42.990  13.285
69267W        W37661  44.663  26.530  14.551
69268W        W37662  29.198  42.641   3.864
69269W        W37663  14.744  42.562  14.850
69270W        W37664  36.814  41.459  12.466
69271W        W37665  14.261  30.558   2.443
69272W        W37666  19.933   0.063  12.984
69273W        W37667  22.318  20.067  11.757
69274W        W37668  43.768  28.481   0.713
69275W        W37669  14.762  23.843   3.346
69276W        W37670  19.185  30.384   3.996
69277W        W37671  41.085  39.339   2.833
69278W        W37672   3.743  41.120   3.083
69279W        W37673  16.338  28.681   5.609
69280W        W37674  18.074  43.419  13.812
69281W        W37675  28.295  11.133   3.699
69282W        W37676  24.724  12.093   0.763
69283W        W37677  35.153  31.667  12.712
69284W        W37678   8.857  11.964   1.270
69285W        W37679   5.885  44.209  14.277
69286W        W37680  44.774  25.595   3.302
69287W        W37681   1.782   3.039  10.440
69288W        W37682  17.739   5.278  12.093
69289W        W37683   8.213  11.019  11.194
69290W        W37684  36.018  14.271   4.635
69291W        W37685  43.850  12.927   4.423
69292W        W37686  37.648  40.315  13.987
69293W        W37687   4.721  40.701  12.193
69294W        W37688  17.073  18.097  13.278
69295W        W37689  36.344  10.723  10.773
69296W        W37690  21.554  24.246  11.228
69297W        W37691  25.893  29.601  10.691
69298W        W37692  25.260  34.592   1.229
69299W        W37693   8.686   2.624  13.448
69300W        W37694  44.012  43.483  13.357
69301W        W37695  24.668  14.862  12.446
69302W        W37696  43.787  32.084  11.733
69303W        W37697  19.208  34.894   0.402
69304W        W37698  28.788  24.077  11.309
69305W        W37699  15.566  41.841  12.483
69306W        W37700  44.792  41.793   4.259
69307W        W37701  21.801  19.428  12.876
69308W        W37702  34.026  20.079   3.736
69309W        W37703  21.482   0.405  12.554
69310W        W37704   2.267  43.246  12.933
69311W        W37705  14.176  32.012   4.497
69312W        W37706  15.700  13.352   4.557
69313W        W37707   4.425   2.070   1.752
69314W        W37708  20.395  39.321  13.342
69315W        W37709  22.652  39.931   0.817
69316W        W37710  35.008  32.595   3.097
69317W        W37711  23.830  12.669  14.428
69318W        W37712  41.496   4.880  13.261
69319W        W37713  22.192  29.988   3.831
69320W        W37714  35.778  25.192  14.993
69321W        W37715  36.494  17.645  14.263
69322W        W37716  29.130  19.350   3.965
69323W        W37717  19.604  26.786   3.130
69324W        W37718  10.136  29.419  11.174
69325W        W37719  23.258   1.527  11.891
69326W        W37720  21.510  20.918  11.640
69327W        W37721  17.632  34.084   0.687
69328W        W37722  11.135  37.496   3.323
69329W        W37723  12.662  25.027   3.080
69330W        W37724  13.683   1.453   3.357
69331W        W37725  25.387  33.050  14.001
69332W        W37726  41.928   9.576  13.972
69333W        W37727  18.029   6.462   2.152
69334W        W37728  42.673  29.054   1.417
69335W        W37729   5.202   0.895  14.408
69336W        W37730   7.083  40.948   2.327
69337W        W37731  31.342  17.860  14.423
69338W        W37732  30.579   3.327  10.892
69339W        W37733  29.232   6.249  12.623
69340W        W37734   8.723  31.476   4.987
69341W        W37735  43.804  42.241   3.674
69342W        W37736  28.434   7.483   2.716
69343W        W37737  19.859  42.007  13.670
69344W        W37738  22.982  44.185   9.997
69345W        W37739  31.551   3.534  11.435
69346W        W37740  12.641   8.350   1.355
69347W        W37741  17.289   7.161   0.251
69348W        W37742  23.172  42.462  14.500
69349W        W37743  25.607  19.244   1.306
69350W        W37744   3.995   1.886   0.896
69351W        W37745  39.515  10.949  14.399
69352W        W37746  35.115  10.808  14.655
69353W        W37747   7.439  29.460  11.062
69354W        W37748  40.900  26.009   0.486
69355W        W37749  24.064  38.546   2.860
69356W        W37750  14.916  23.209   2.247
69357W        W37751  13.345  30.893  12.226
69358W        W37752  42.791  25.775  11.197
69359W        W37753  31.589  11.174  10.765
69360W        W37754   6.448   7.823   2.183
69361W        W37755  40.944  37.535  13.895
69362W        W37756  25.478  12.707   3.867
69363W        W37757  15.631  31.576   4.436
69364W        W37758  37.956  14.644  11.446
69365W        W37759  17.962  14.303  10.776
69366W        W37760  12.558  28.727  11.180
69367W        W37761  16.122   9.178   9.715
69368W        W37762  29.177  24.884  14.019
69369W        W37763   8.807  30.017   3.285
69370W        W37764   1.982  28.426   4.654
69371W        W37765   5.213   1.823  11.333
69372W        W37766  14.132  21.776   2.030
69373W        W37767  38.896  23.245  10.472
69374W        W37768  43.550  44.109  10.661
69375W        W37769  26.735  23.618  11.978
69376W        W37770  42.324  23.608   2.259
69377W        W37771  35.327  40.192  11.401
69378W        W37772  38.795  36.334   4.339
69379W        W37773   6.387   1.311  13.453
69380W        W37774   8.529  35.194  11.629
69381W        W37775  28.946   4.608  12.385
69382W        W37776  44.389   9.653   2.749
69383W        W37777   0.916  39.884  13.607
69384W        W37778  12.221   7.336  10.520
69385W        W37779  18.596  38.710   0.973
69386W        W37780  11.287  16.504  13.290
69387W        W37781  36.525   0.949  10.808
69388W        W37782  20.122  28.232   0.330
69389W        W37783  27.062  28.139  13.506
69390W        W37784  32.355   4.957   4.167
69391W        W37785  36.016  23.528   2.222
69392W        W37786   2.035  36.757   1.736
69393W        W37787  28.997  16.371  12.534
69394W        W37788   1.430  18.545  12.956
69395W        W37789  27.389  28.528  13.586
69396W        W37790  30.176   2.121  14.446
69397W        W37791  11.693  16.251  13.574
69398W        W37792  19.197  25.027   0.290
69399W        W37793  15.567  23.617  13.889
69400W        W37794   3.956  23.644  10.610
69401W        W37795  31.613  22.269   4.222
69402W        W37796  13.197  34.565  14.872
69403W        W37797  42.341  26.093   0.743
69404W        W37798  16.534  16.774  10.432
69405W        W37799  40.361  27.980  12.071
69406W        W37800   4.463  14.725  14.852
69407W        W37801  25.473  28.979   2.370
69408W        W37802  40.189  30.903  10.212
69409W        W37803  19.829  38.956  10.955
69410W        W37804  30.485  43.372   4.501
69411W        W37805  19.583  20.740   4.610
69412W        W37806   3.804  22.508  13.910
69413W        W37807  21.103  31.415  12.773
69414W        W37808  34.874  13.722  13.436
69415W        W37809  19.802   8.401  13.142
69416W        W37810  43.642   8.167  11.544
69417W        W37811  34.419  43.988  13.964
69418W        W37812  28.307  42.400   2.721
69419W        W37813  12.809   9.738  11.000
69420W        W37814  30.064  11.620   1.933
69421W        W37815  19.410  12.164  13.291
69422W        W37816  19.513  28.195  13.474
69423W        W37817  20.604  16.985  12.081
69424W        W37818   6.756  20.187   4.106
69425W        W37819  42.485  38.410   0.582
69426W        W37820   8.423  17.827  11.155
69427W        W37821  15.757   6.795  14.455
69428W        W37822   9.374  13.844   4.924
69429W        W37823  19.491  38.388   2.752
69430W        W37824   8.113  21.308  12.890
69431W        W37825  40.364   1.165   4.202
69432W        W37826   5.346  26.705  14.347
69433W        W37827   8.918  11.845  11.049
69434W        W37828  27.046  43.667   1.372
69435W        W37829  22.308  41.648   2.386
69436W        W37830  44.816  26.277   3.728
69437W        W37831   7.402  13.268   4.099
69438W        W37832  23.028  10.701  14.718
69439W        W37833  20.535  31.028  12.992
69440W        W37834  10.853  30.551  11.499
69441W        W37835   6.166   3.176  10.629
69442W        W37836  35.982  24.654  12.497
69443W        W37837  35.966  33.619   1.059
69444W        W37838  12.270  12.838   4.559
69445W        W37839  43.986  31.023   2.173
69446W        W37840  43.310  25.199   3.725
69447W        W37841  18.078  39.903   2.417
69448W        W37842  27.412   8.229  13.723
69449W        W37843   7.669  23.495  13.847
69450W        W37844  28.909  38.711  11.451
69451W        W37845  32.424  28.662  12.057
69452W        W37846  34.402  30.722  12.058
69453W        W37847  35.867  28.904  14.136
69454W        W37848   1.347  39.124  11.917
69455W        W37849   6.203   9.114  14.961
69456W        W37850  44.030  11.222  12.169
69457W        W37851  36.294  41.525   4.154
69458W        W37852  32.304  34.530  14.859
69459W        W37853  24.942   0.331  12.517
69460W        W37854  18.138  25.420  13.634
69461W        W37855   6.942  22.899   3.662
69462W        W37856  35.817  28.774   4.078
69463W        W37857  18.638  32.432   1.643
69464W        W37858   2.906  35.038   0.119
69465W        W37859  23.420  16.315  12.485
69466W        W37860  39.033  16.012   2.663
69467W        W37861   0.850   2.721   3.784
69468W        W37862  14.300   3.349  14.920
69469W        W37863  19.469   1.574   4.149
69470W        W37864  34.380  19.625   4.160
69471W        W37865  11.127  41.880   0.750
69472W        W37866  36.972  36.264  13.861
69473W        W37867  29.604  40.253  11.605
69474W        W37868   1.524   6.268   4.495
69475W        W37869  35.867   2.695  11.075
69476W        W37870   0.310  42.307  12.008
69477W        W37871  40.299  32.090  13.479
69478W        W37872  31.574   9.351   0.506
69479W        W37873  17.465  18.161   0.876
69480W        W37874  41.401  10.606   1.629
69481W        W37875  22.419  21.254   0.215
69482W        W37876  23.530  43.451  11.621
69483W        W37877   4.438  42.075  13.111
69484W        W37878  37.387   6.330  11.775
69485W        W37879  25.010   3.263  12.961
69486W        W37880  30.960  35.853   3.399
69487W        W37881  29.720   6.496  14.470
69488W        W37882  44.615  28.154   2.857
69489W        W37883  40.186  36.552   0.217
69490W        W37884   2.443  32.052   4.895
69491W        W37885  21.659  22.292  10.976
69492W        W37886  24.302  33.869   4.037
69493W        W37887  42.945  31.048  11.442
69494W        W37888   2.959   4.317   4.514
69495W        W37889   7.904  19.513  12.480
69496W        W37890  17.568  26.809  11.493
69497W        W37891  41.471  10.709  13.566
69498W        W37892  20.136  38.881   4.585
69499W        W37893  29.023  21.755   4.843
69500W        W37894  37.422  25.393  11.964
69501W        W37895   1.300  19.143  14.697
69502W        W37896  43.377  34.806  13.397
69503W        W37897  20.176  31.250  14.998
69504W        W37898  32.838  23.139   4.183
69505W        W37899  22.191   8.547  12.099
69506W        W37900  22.344  27.496  12.491
69507W        W37901  25.948  22.749  14.290
69508W        W37902   1.385  28.435  12.802
69509W        W37903  39.742  33.973   2.707
69510W        W37904  33.497  20.666   4.523
69511W        W37905  17.257  33.357  10.723
69512W        W37906  27.518  33.858   1.154
69513W        W37907   3.910   1.383   0.221
69514W        W37908  33.839  21.279   4.119
69515W        W37909  29.113  41.843   2.168
69516W        W37910  16.113   1.800   3.654
69517W        W37911  11.386   5.332  11.157
69518W        W37912  24.475  31.180   0.090
69519W        W37913  22.056   9.350   4.386
69520W        W37914  29.739   6.983  14.255
69521W        W37915  41.260  42.025   1.397
69522W        W37916  33.465  10.154   4.995
69523W        W37917  27.736   8.097  13.310
69524W        W37918  29.328   9.839   2.178
69525W        W37919  37.538  15.246   3.199
69526W        W37920  14.230   1.655   4.116
69527W        W37921  11.154   7.223   1.331
69528W        W37922  15.385  13.773  14.058
69529W        W37923   2.344  13.745   4.084
69530W        W37924   8.163  33.645  10.994
69531W        W37925   4.869  37.109  12.379
69532W        W37926  20.074  11.646  13.717
69533W        W37927  41.005  33.894  11.092
69534W        W37928  28.879   5.890  10.408
69535W        W37929  26.908  30.901  14.540
69536W        W37930  17.467  14.765   3.694
69537W        W37931  44.283  18.108   3.141
69538W        W37932  15.750  40.747   0.779
69539W        W37933  33.486  18.322  11.346
69540W        W37934  41.975   4.625   5.020
69541W        W37935  31.991  22.996   3.260
69542W        W37936   3.738  11.829  14.706
69543W        W37937  15.695  11.167   1.548
69544W        W37938   7.337  15.813   1.459
69545W        W37939  26.096   0.553  14.341
69546W        W37940  15.471  37.005  14.461
69547W        W37941  35.502  34.615  13.031
69548W        W37942  36.335  39.889  14.843
69549W        W37943  15.273  29.171  14.859
69550W        W37944  42.820  38.554  14.457
69551W        W37945  24.823   2.901  14.444
69552W        W37946  44.963  19.223  12.079
69553W        W37947   5.632  40.467   3.389
69554W        W37948  18.504  22.917  13.433
69555W        W37949  25.295  16.501   4.730
69556W        W37950  26.251   4.931   2.183
69557W        W37951  40.398  31.975  14.937
69558W        W37952   4.163  33.372   4.409
69559W        W37953  32.689  11.372   4.239
69560W        W37954  37.669  18.707   4.085
69561W        W37955  28.625  26.239  13.189
69562W        W37956  43.896  15.129  14.764
69563W        W37957   2.605  17.767   1.261
69564W        W37958  44.499  19.272  13.010
69565W        W37959  34.341  29.738  10.518
69566W        W37960  20.187  36.852  11.920
69567W        W37961  22.927  22.489  12.419
69568W        W37962  40.259  31.425   4.318
69569W        W37963   1.059  25.898  11.056
69570W        W37964  41.998  26.872   3.332
69571W        W37965   4.818  26.302   0.787
69572W        W37966  16.358  26.785   1.733
69573W        W37967  26.505  19.713  10.919
69574W        W37968  16.290   3.419   2.147
69575W        W37969  10.912  28.029  12.420
69576W        W37970  26.364  25.175  11.113
69577W        W37971  39.755   0.970   1.432
69578W        W37972  26.989  32.452   4.634
69579W        W37973  43.229  36.909   2.721
69580W        W37974  22.231   5.710  14.301
69581W        W37975  14.485  34.550  12.400
69582W        W37976  14.302  21.546   3.611
69583W        W37977  22.619  18.004  11.053
69584W        W37978  41.965  23.597  10.663
69585W        W37979  40.882  11.819   4.124
69586W        W37980  23.417  18.402   4.563
69587W        W37981  42.165  15.118  11.439
69588W        W37982   4.529  39.827   2.403
69589W        W37983  22.994  13.597   1.585
69590W        W37984   2.155  19.193  13.191
69591W        W37985  11.040   7.243   3.751
69592W        W37986  16.053   0.808  11.613
69593W        W37987   5.508  11.155  10.469
69594W        W37988   6.906  19.243   2.343
69595W        W37989  29.007  15.157  12.561
69596W        W37990  10.167  29.642   3.037
69597W        W37991   8.249   2.357   0.730
69598W        W37992   0.254   0.019   0.642
69599W        W37993  40.526   0.494  12.061
69600W        W37994  21.187  18.157  10.976
69601W        W37995  19.367  12.544   2.337
69602W        W37996  44.788   7.712  12.161
69603W        W37997  38.712  28.473   2.028
69604W        W37998  26.479   2.315   3.474
69605W        W37999  16.387  10.835   0.886
69606W        W38000  11.283   4.948   4.986
69607W        W38001   9.371   4.827  14.011
69608W        W38002  42.045  40.421  13.567
69609W        W38003   8.730  22.587   3.174
69610W        W38004  10.163  44.863  11.097
69611W        W38005  36.387   3.720  12.428
69612W        W38006  10.588  38.940  10.610
69613W        W38007  40.365   7.361  11.615
69614W        W38008  38.011  31.167  12.463
69615W        W38009   1.995  42.828  13.352
69616W        W38010  16.596   6.345  13.015
69617W        W38011  12.485   8.197  10.030
69618W        W38012  44.089   2.161   3.141
69619W        W38013   4.754  21.541  13.847
69620W        W38014  17.496  12.869  13.753
69621W        W38015  36.006   2.815   4.754
69622W        W38016   6.415  38.612  12.965
69623W        W38017  42.993   3.232   0.784
69624W        W38018  29.945   4.223  12.041
69625W        W38019  41.921  32.560   4.438
69626W        W38020  40.340  24.324  12.969
69627W        W38021  11.342  17.283  14.247
69628W        W38022   0.927  15.749   4.505
69629W        W38023   4.816  28.747  14.742
69630W        W38024  14.201  27.860   3.572
69631W        W38025  31.856  32.541  13.854
69632W        W38026  16.658  35.327  10.433
69633W        W38027  41.390   9.476   3.666
69634W        W38028  29.145  40.489  14.340
69635W        W38029   3.904  42.591   2.850
69636W        W38030   3.693  10.232   2.351
69637W        W38031  17.837  42.171   9.750
69638W        W38032  15.032  33.880  11.273
69639W        W38033  24.256  42.003   0.362
69640W        W38034  35.085  28.912   2.271
69641W        W38035  32.606  17.344   3.765
69642W        W38036  37.338  36.665  11.672
69643W        W38037  31.526  14.435   4.042
69644W        W38038  10.261  30.051   4.825
69645W        W38039  28.156  34.446   1.269
69646W        W38040  18.016  30.412  12.402
69647W        W38041  31.772   4.787  10.613
69648W        W38042  21.654   2.420   4.599
69649W        W38043   6.654  43.070  13.079
69650W        W38044   3.719  29.185  11.657
69651W        W38045  42.018  38.779   4.387
69652W        W38046  35.436  40.043  11.908
69653W        W38047  43.546  15.042   3.328
69654W        W38048  19.126  27.234  11.616
69655W        W38049   4.200   9.449   4.991
69656W        W38050   5.665  21.543  13.957
69657W        W38051  42.475   2.236   1.161
69658W        W38052   0.843  23.073   0.977
69659W        W38053  42.945  28.642   1.196
69660W        W38054  43.459   9.158  13.285
69661W        W38055  28.371  37.979  12.665
69662W        W38056  29.094   2.972   1.875
69663W        W38057  31.172   7.232  11.180
69664W        W38058  13.669  15.047  13.492
69665W        W38059  44.383   7.617   2.846
69666W        W38060   6.105  27.638  13.874
69667W        W38061  30.187  19.168   1.199
69668W        W38062  15.082  40.456   3.588
69669W        W38063  38.641  19.269   2.246
69670W        W38064  38.549  43.115   4.002
69671W        W38065  12.402   8.808   1.247
69672W        W38066  26.699   1.059   9.795
69673W        W38067  35.033  43.829  12.601
69674W        W38068   3.363  17.247  14.317
69675W        W38069  41.991  32.925  13.891
69676W        W38070  23.372  20.082   1.329
69677W        W38071  18.431  31.978  10.851
69678W        W38072  44.362   0.439   1.916
69679W        W38073   3.263  13.663  13.498
69680W        W38074   8.462  25.452  12.584
69681W        W38075  15.804  22.230   2.754
69682W        W38076  39.085   9.226   2.131
69683W        W38077  29.440   2.852  13.487
69684W        W38078  32.559  42.380  12.892
69685W        W38079   8.069  31.684  14.800
69686W        W38080  19.572  16.771  13.020
69687W        W38081   9.395  25.600  13.491
69688W        W38082  24.266  39.037   1.416
69689W        W38083  12.865  42.808  12.545
69690W        W38084  28.010  18.768  10.620
69691W        W38085  17.871  38.940   2.987
69692W        W38086  16.569   4.868  13.975
69693W        W38087   7.925  44.854  14.355
69694W        W38088   1.333  15.745  14.406
69695W        W38089   4.179  18.090   0.792
69696W        W38090   6.196  27.079   1.857
69697W        W38091  37.493  28.136   3.689
69698W        W38092  22.255  31.465  14.265
69699W        W38093  42.237  28.813  13.384
69700W        W38094   1.264   3.265   3.358
69701W        W38095   2.033  15.309  12.470
69702W        W38096  34.126  24.643   4.755
69703W        W38097  40.933  15.718  11.144
69704W        W38098  31.361   3.797   4.340
69705W        W38099  16.334  32.078  10.618
69706W        W38100  19.501   0.902   4.118
69707W        W38101   9.259  11.867   3.377
69708W        W38102  42.078  28.482   2.474
69709W        W38103  13.108   7.186   1.744
69710W        W38104  43.903   5.894  13.404
69711W        W38105  33.451   4.956  12.089
69712W        W38106  15.552  14.256  11.965
69713W        W38107  11.085   1.285   4.897
69714W        W38108   2.962  38.514  12.856
69715W        W38109  27.977  21.012   4.862
69716W        W38110  43.386  22.470   2.662
69717W        W38111   8.807  40.013  14.509
69718W        W38112  11.631  39.974  10.607
69719W        W38113  15.146  27.563  11.047
69720W        W38114  43.058  30.613   3.576
69721W        W38115  23.161   7.964  11.204
69722W        W38116  16.588  35.881   4.217
69723W        W38117  18.758  13.010   1.204
69724W        W38118   3.668  26.060   2.646
69725W        W38119  11.146  29.338  13.027
69726W        W38120  24.298  11.148   0.809
69727W        W38121   6.997  11.130   3.260
69728W        W38122  20.266  40.888  12.935
69729W        W38123  11.390  19.211   2.208
69730W        W38124  12.800  34.034   4.042
69731W        W38125  23.033  15.253   3.262
69732W        W38126  40.737  38.253   5.047
69733W        W38127  36.997   8.730   4.654
69734W        W38128  31.588  42.281  14.023
69735W        W38129  33.121  10.304  10.539
69736W        W38130  16.236  34.407   3.303
69737W        W38131  23.600  31.102   0.062
69738W        W38132   4.454  36.361   0.039
69739W        W38133   5.692  39.493   0.361
69740W        W38134   8.565  29.966   0.931
69741W        W38135  21.331   4.456  10.598
69742W        W38136  16.237  28.104  14.815
69743W        W38137   4.240   5.926   1.868
69744W        W38138  37.524  22.676   2.757
69745W        W38139  19.755  30.167   3.252
69746W        W38140   4.009  21.074  12.544
69747W        W38141   2.240  31.639   4.600
69748W        W38142  43.333  20.558  13.940
69749W        W38143   8.203   4.786  10.553
69750W        W38144   1.491  26.733   1.354
69751W        W38145  36.536  27.191   3.766
69752W        W38146  13.381  13.170  13.597
69753W        W38147  19.833   3.435   2.574
69754W        W38148  16.215  44.364   1.941
69755W        W38149  29.575  25.746   3.621
69756W        W38150   5.876  17.638   1.048
69757W        W38151  21.454   3.054   3.126
69758W        W38152  23.045  24.093   0.878
69759W        W38153  37.090  28.802   3.176
69760W        W38154  30.278  28.229   0.200
69761W        W38155  17.296   4.318  11.999
69762W        W38156  31.954   0.457  13.010
69763W        W38157  24.934  17.577   3.750
69764W        W38158  11.525   2.942  13.523
69765W        W38159  30.101  26.136  10.417
69766W        W38160  25.673  22.669   4.727
69767W        W38161  32.452   1.229  14.063
69768W        W38162  13.276   4.751   5.241
69769W        W38163  28.864  20.150   0.674
69770W        W38164  38.406  40.498  11.509
69771W        W38165  10.677   5.819   4.053
69772W        W38166  10.159  39.553  14.570
69773W        W38167  23.717  38.989  13.885
69774W        W38168  34.031  33.858  14.091
69775W        W38169   0.843  42.879  14.413
69776W        W38170   5.221  40.524   1.196
69777W        W38171  24.507  30.985   1.090
69778W        W38172  16.934   3.747  13.863
69779W        W38173  33.159   1.927   0.521
69780W        W38174  40.012  20.782  11.211
69781W        W38175  39.014  10.473   4.190
69782W        W38176  39.894   4.818  11.030
69783W        W38177   2.405  17.316  11.933
69784W        W38178   4.925  42.219  10.565
69785W        W38179  43.312   4.350   4.458
69786W        W38180  37.003   1.344   2.864
69787W        W38181  22.498  42.803   4.653
69788W        W38182  39.371   6.624   3.665
69789W        W38183  34.582   8.173   4.505
69790W        W38184  20.618  17.837  12.455
69791W        W38185  14.667  29.980  12.104
69792W        W38186   3.347  18.736   0.307
69793W        W38187  41.343   2.290   1.670
69794W        W38188  11.231   2.195   4.368
69795W        W38189  34.360  18.275  11.404
69796W        W38190  17.579  44.757  13.074
69797W        W38191  10.761  26.495  10.510
69798W        W38192  37.805  30.116  13.576
69799W        W38193  29.523  32.502  14.229
69800W        W38194  13.613  26.951   1.722
69801W        W38195  33.326   0.510   0.299
69802W        W38196  30.921  41.052   4.696
69803W        W38197  25.933  14.332  12.480
69804W        W38198  27.836   3.987   0.430
69805W        W38199  38.605  34.634  14.924
69806W        W38200   0.828   4.887   4.314
69807W        W38201  38.456  18.852   1.933
69808W        W38202  29.753   2.392   1.409
69809W        W38203  39.605   8.377   1.307
69810W        W38204   0.227   4.293  10.971
69811W        W38205  21.442  37.862   4.249
69812W        W38206  15.214  11.670  12.957
69813W        W38207   2.706  24.759   0.823
69814W        W38208  33.114  21.264   2.396
69815W        W38209   4.757  17.868  13.854
69816W        W38210  12.608  30.161  14.296
69817W        W38211   7.363  31.932   0.765
69818W        W38212  19.485  10.193   1.191
69819W        W38213  19.824  26.157  13.796
69820W        W38214  11.261  28.466   3.594
69821W        W38215  30.112  20.966  10.720
69822W        W38216  44.547  24.679   2.888
69823W        W38217   7.268  43.440   0.692
69824W        W38218  31.462  10.645  12.986
69825W        W38219   3.323  11.887   3.648
69826W        W38220  23.980  20.545   3.281
69827W        W38221  27.013   6.484  11.706
69828W        W38222  33.210  26.734   1.410
69829W        W38223  28.494  41.066   2.117
69830W        W38224   1.876   1.308  12.949
69831W        W38225  33.874  21.240   1.789
69832W        W38226   4.373  42.089  14.798
69833W        W38227  23.486   1.769  11.045
69834W        W38228  43.464  21.636   0.159
69835W        W38229  21.739   1.346  11.992
69836W        W38230   8.155  17.717  13.985
69837W        W38231  13.890  32.081  11.110
69838W        W38232  13.924   0.469  11.726
69839W        W38233  27.070  22.972  14.498
69840W        W38234  18.652  16.483  14.942
69841W        W38235   6.208  32.003   1.816
69842W        W38236  12.071   5.430   5.036
69843W        W38237  21.782  18.803   2.690
69844W        W38238   9.807  20.035  12.928
69845W        W38239  23.306  15.608  11.265
69846W        W38240  21.178   8.389   2.252
69847W        W38241  44.578  19.044   2.370
69848W        W38242   8.200   9.204  12.320
69849W        W38243  12.843  42.114  11.553
69850W        W38244   4.342  42.561   2.098
69851W        W38245  24.633  30.145   0.098
69852W        W38246  33.552  38.294  12.014
69853W        W38247  30.315  22.086  11.225
69854W        W38248  44.691   8.027  13.492
69855W        W38249  13.910  16.268  12.632
69856W        W38250  32.401  28.640  11.111
69857W        W38251  33.535  25.500   3.637
69858W        W38252   3.693  18.071  11.652
69859W        W38253  18.776  12.508  13.070
69860W        W38254  19.944  15.550   1.250
69861W        W38255  34.665  31.591   3.369
69862W        W38256  40.568   0.572   1.388
69863W        W38257  42.531  42.854   3.634
69864W        W38258  38.215  25.573   4.328
69865W        W38259  41.062  17.717   3.646
69866W        W38260  27.267  43.297  11.687
69867W        W38261  25.094  12.169   1.850
69868W        W38262   6.003  18.889   4.092
69869W        W38263  22.024  39.698  13.805
69870W        W38264   8.723  30.964  14.575
69871W        W38265  40.503  10.108  13.595
69872W        W38266  43.484  40.390   1.506
69873W        W38267  29.614  26.594  13.554
69874W        W38268  35.765  30.055  10.811
69875W        W38269  37.466  39.914  14.247
69876W        W38270  22.069  12.613   4.706
69877W        W38271  35.963  39.792  12.601
69878W        W38272   6.902  12.809  12.340
69879W        W38273  40.997  40.384   3.678
69880W        W38274  18.109  22.310   1.017
69881W        W38275  35.634  21.331   0.665
69882W        W38276  12.867  29.466  14.975
69883W        W38277  26.496  12.626  10.695
69884W        W38278  25.911  37.070  12.153
69885W        W38279   1.016  17.610   3.139
69886W        W38280  15.123  34.343  11.059
69887W        W38281  21.500  32.740  14.206
69888W        W38282  38.065  14.334  13.963
69889W        W38283   5.705  18.677  12.471
69890W        W38284  42.555   2.821  13.432
69891W        W38285  30.847  19.093   3.335
69892W        W38286  38.283  20.362  13.803
69893W        W38287  19.510  33.606  13.624
69894W        W38288  34.387  16.335   5.016
69895W        W38289  13.276   5.916   3.697
69896W        W38290  32.597  32.153  13.862
69897W        W38291  11.563  10.584  14.490
69898W        W38292  22.421  39.855  10.729
69899W        W38293   7.859  26.596  11.690
69900W        W38294  26.595  20.053   0.646
69901W        W38295  31.731   3.906  11.748
69902W        W38296   6.663  32.093  10.715
69903W        W38297  42.747  21.660   4.010
69904W        W38298   5.756  34.091  14.838
69905W        W38299  33.680  29.464   4.045
69906W        W38300  39.265  25.186   1.757
69907W        W38301  15.633  38.395   2.320
69908W        W38302  15.589  29.949  11.850
69909W        W38303  42.310  19.730   2.115
69910W        W38304  36.139   8.299   3.074
69911W        W38305  17.787  37.879  13.165
69912W        W38306   8.333  18.726  11.957
69913W        W38307  40.203  40.497   4.183
69914W        W38308  34.761  38.076  13.848
69915W        W38309  33.451   5.269  10.858
69916W        W38310  15.287  34.461   4.722
69917W        W38311  15.114  17.515  11.639
69918W        W38312  28.565  25.306  13.467
69919W        W38313  32.162   4.662  11.532
69920W        W38314  30.073  30.092   4.381
69921W        W38315  23.656  34.496  13.117
69922W        W38316  34.433  37.293   3.206
69923W        W38317   1.209   6.395   2.765
69924W        W38318  19.245  27.444  12.124
69925W        W38319  24.138  37.557   0.176
69926W        W38320   3.817  15.478  14.432
69927W        W38321   2.301  34.585   4.503
69928W        W38322   0.426  29.380  12.108
69929W        W38323  42.195   1.032   2.712
69930W        W38324  15.052  33.687  13.840
69931W        W38325  19.102  11.664   4.585
69932W        W38326  12.222  23.149   2.411
69933W        W38327  33.574  14.513  14.565
69934W        W38328  25.711  31.766   2.718
69935W        W38329  26.135  18.920  13.831
69936W        W38330  19.235  40.969   1.892
69937W        W38331  30.025  15.513  14.317
69938W        W38332  29.300   3.752   2.597
69939W        W38333  36.587   6.078   1.621
69940W        W38334  11.608   1.328  13.760
69941W        W38335  33.593  13.820   4.113
69942W        W38336  10.639  11.813   2.178
69943W        W38337  23.292   2.721   4.216
69944W        W38338  42.765  31.665   2.619
69945W        W38339   7.428  22.187  12.028
69946W        W38340  42.396  17.089  13.741
69947W        W38341  37.971   5.180   3.296
69948W        W38342  37.449  22.297   2.213
69949W        W38343  40.620  33.773   1.560
69950W        W38344  14.733  25.993  11.564
69951W        W38345  21.237  37.084  11.196
69952W        W38346  44.347  14.427   3.739
69953W        W38347  21.721  24.173  11.751
69954W        W38348  10.169  19.459  11.007
69955W        W38349  15.404  33.156  14.448
69956W        W38350   4.365  31.007  13.406
69957W        W38351  41.050  29.923   0.109
69958W        W38352  43.569   5.953   3.405
69959W        W38353  37.411  11.331  12.347
69960W        W38354  34.488  13.340  12.995
69961W        W38355  17.637  35.270   2.483
69962W        W38356  27.112  28.199   0.942
69963W        W38357  22.686  41.860  13.467
69964W        W38358  27.490  28.114  13.877
69965W        W38359  43.500  13.217  11.582
69966W        W38360  21.463  27.725  11.994
69967W        W38361  35.016  18.700  13.607
69968W        W38362   5.309  39.543   4.532
69969W        W38363   4.476  26.522   4.735
69970W        W38364   6.925   4.400  14.930
69971W        W38365   2.047  36.793   3.960
69972W        W38366  23.705  37.920   1.957
69973W        W38367   6.000  40.487   3.792
69974W        W38368   8.254  11.407  13.800
69975W        W38369  34.465  31.006  12.595
69976W        W38370  16.692   7.315  13.952
69977W        W38371  12.113  41.254   4.889
69978W        W38372  39.288  13.625   1.706
69979W        W38373  35.726  29.868   1.259
69980W        W38374  29.200  20.941   0.733
69981W        W38375  27.587  41.123   3.037
69982W        W38376  29.231  28.450  12.850
69983W        W38377  17.292   9.676   3.189
69984W        W38378  18.362  28.354  11.484
69985W        W38379  17.093  23.317   0.105
69986W        W38380  18.074  15.358  12.982
69987W        W38381  27.092  11.206   4.617
69988W        W38382  20.674   2.563   1.926
69989W        W38383   0.969  28.547   1.506
69990W        W38384  29.372  13.930   3.370
69991W        W38385  40.773  27.964   3.354
69992W        W38386  17.957   4.224   3.679
69993W        W38387  39.272   0.733  12.013
69994W        W38388  38.800  33.984   1.806
69995W        W38389  27.437  44.329  14.048
69996W        W38390  13.849  13.874   1.386
69997W        W38391  36.599  15.656  13.856
69998W        W38392   5.283   0.219  14.985
69999W        W38393  12.697  34.571  12.950
70000W        W38394  44.468   8.797   1.538
70001W        W38395   4.918  35.858  10.586
70002W        W38396  38.010  35.598  12.438
70003W        W38397  30.416  29.941   2.513
70004W        W38398  40.257  31.442  11.785
70005W        W38399  33.596   6.110   3.151
70006W        W38400  10.151   1.610  11.874
70007W        W38401  29.917  18.194  10.614
70008W        W38402  11.838  24.657   1.825
70009W        W38403   2.045  24.473  11.587
70010W        W38404  43.647  26.401  13.881
70011W        W38405  39.746   4.352   3.819
70012W        W38406  41.870   3.428   2.810
70013W        W38407  31.875  40.047  11.419
70014W        W38408  30.195  36.811  13.004
70015W        W38409  44.383   8.006  10.708
70016W        W38410  11.261  13.511   1.197
70017W        W38411  16.367  21.044   1.025
70018W        W38412  10.822  38.335  11.581
70019W        W38413  40.035   8.796  14.470
70020W        W38414   0.153  15.945   2.639
70021W        W38415  41.938  20.468  13.041
70022W        W38416  33.830  31.014   2.551
70023W        W38417   5.815  10.261   1.628
70024W        W38418  25.571  29.438   0.796
70025W        W38419  15.650  25.988   4.585
70026W        W38420   1.847   8.247   3.233
70027W        W38421  13.643  17.422   1.081
70028W        W38422   6.224  20.097   3.954
70029W        W38423  40.874  32.412   3.484
70030W        W38424   3.180   9.580  13.567
70031W        W38425  19.278  30.103   3.064
70032W        W38426  33.836  39.344  14.978
70033W        W38427  18.726  42.035  13.290
70034W        W38428  29.237  44.771   3.248
70035W        W38429   5.754  31.404   1.514
70036W        W38430  10.276  40.345   1.771
70037W        W38431  10.559  24.668   4.546
70038W        W38432   0.117  41.908  12.966
70039W        W38433  23.158  20.249  11.207
70040W        W38434  34.851   3.273  11.570
70041W        W38435  29.688  35.993   4.632
70042W        W38436  27.746  20.600   3.662
70043W        W38437  44.751  17.786  14.985
70044W        W38438  36.780   2.021   4.152
70045W        W38439   8.141   0.745  14.363
70046W        W38440  13.709  37.952  10.428
70047W        W38441  33.339   0.769   4.798
70048W        W38442  19.976   3.845  11.445
70049W        W38443  14.581  35.949   0.360
70050W        W38444   6.210   6.972   2.727
70051W        W38445   9.411  24.780  13.974
70052W        W38446   4.309  22.021   0.431
70053W        W38447  11.403   8.749  14.976
70054W        W38448  27.490  19.566   1.262
70055W        W38449  17.934   4.294   1.465
70056W        W38450  42.858  18.636   3.696
70057W        W38451  41.354  34.759   3.839
70058W        W38452  32.325  43.431  13.572
70059W        W38453  22.781  12.611  13.824
70060W        W38454  23.802  14.682  14.978
70061W        W38455  11.685  21.065   3.236
70062W        W38456  11.789  17.817  10.061
70063W        W38457   1.049   8.296  13.843
70064W        W38458  20.281  14.518  10.921
70065W        W38459  18.100  25.726   3.741
70066W        W38460  36.162  11.749   2.911
70067W        W38461  41.447  11.384  12.154
70068W        W38462   9.063  34.027   2.794
70069W        W38463  19.752   6.115  14.453
70070W        W38464  41.409  16.244  14.990
70071W        W38465  32.339   0.903   1.713
70072W        W38466  34.785  27.191  14.736
70073W        W38467  40.793  30.028  14.689
70074W        W38468   0.021   3.954   2.197
70075W        W38469  25.465  23.658  13.018
70076W        W38470  38.387   3.675  11.178
70077W        W38471  41.870  36.439   0.743
70078W        W38472   1.008   8.975  13.463
70079W        W38473  31.131   9.133  13.795
70080W        W38474  21.705  28.274   4.901
70081W        W38475   4.014  11.318  10.676
70082W        W38476  42.043  41.272  14.635
70083W        W38477  24.545  21.532  14.846
70084W        W38478   1.727   7.835   0.792
70085W        W38479  34.495  29.751  11.010
70086W        W38480   4.417  29.114   2.279
70087W        W38481   7.466  43.517  12.965
70088W        W38482   7.757  37.164  14.752
70089W        W38483  42.909  37.454  10.351
70090W        W38484  13.870  20.328  12.982
70091W        W38485  24.987   1.994   4.069
70092W        W38486  23.955  22.799  12.573
70093W        W38487  17.661   1.971  12.084
70094W        W38488  42.003  10.918  14.969
70095W        W38489  22.744  22.090   0.400
70096W        W38490  30.063   8.192   2.405
70097W        W38491  21.181  14.731  14.386
70098W        W38492  18.526  22.322   4.140
70099W        W38493  22.551  21.789   4.822
70100W        W38494  15.257   3.279  14.807
70101W        W38495  34.041  13.095  12.884
70102W        W38496  24.191  19.481  12.296
70103W        W38497   3.671  35.175   2.298
70104W        W38498   4.014   6.666   4.624
70105W        W38499  34.362  44.915  14.018
70106W        W38500  24.270   2.798   4.224
70107W        W38501  42.017  40.485   2.898
70108W        W38502   3.187   2.213   2.718
70109W        W38503  10.936  30.578  13.325
70110W        W38504  13.478   5.325  12.975
70111W        W38505  38.090   0.034   3.769
70112W        W38506  21.137  12.778  11.209
70113W        W38507   8.498  38.372  12.472
70114W        W38508  24.986  27.561  14.128
70115W        W38509  16.780  25.119  10.716
70116W        W38510  30.679   9.402  11.184
70117W        W38511  30.996  19.683  11.533
70118W        W38512  39.392  16.014   4.852
70119W        W38513  24.143   2.721  11.490
70120W        W38514  22.189   5.223   4.161
70121W        W38515  26.496  26.487  10.360
70122W        W38516  16.057  17.633  11.986
70123W        W38517  40.349   1.893   1.333
70124W        W38518  21.619   3.071   2.621
70125W        W38519  14.690  44.949  14.848
70126W        W38520  11.751  13.108   3.164
70127W        W38521  43.491  31.951   2.374
70128W        W38522  13.750  33.957   0.742
70129W        W38523  38.089  11.747  13.439
70130W        W38524  44.221   9.853   3.250
70131W        W38525  42.968  30.626  14.968
70132W        W38526  44.245   9.329  12.071
70133W        W38527  31.862   4.233  13.927
70134W        W38528  43.760  40.340  14.012
70135W        W38529   6.192   1.763  11.193
70136W        W38530   2.152  16.722   3.403
70137W        W38531  16.735  12.157  12.397
70138W        W38532  10.792  27.930  12.971
70139W        W38533  25.275   2.866   2.190
70140W        W38534  39.275  33.914  11.527
70141W        W38535  18.528  19.074   0.463
70142W        W38536  42.156  34.460  14.848
70143W        W38537  13.181  34.674  13.637
70144W        W38538  24.575   0.209   3.079
70145W        W38539  30.476   5.785   4.518
70146W        W38540  38.580  35.529   4.642
70147W        W38541  19.095  29.888   0.363
70148W        W38542  38.851   8.216  13.572
70149W        W38543  21.113  25.041  10.681
70150W        W38544   3.819  11.205  13.501
70151W        W38545  18.632  16.892  13.446
70152W        W38546  12.630  19.337  11.961
70153W        W38547  18.807  26.538  13.173
70154W        W38548  43.993  25.967   0.957
70155W        W38549   1.479  11.241   3.073
70156W        W38550  19.748  20.410  14.579
70157W        W38551  30.968   9.242  14.284
70158W        W38552  18.131  20.972  12.621
70159W        W38553  43.383   6.024  13.964
70160W        W38554  41.853   2.652   3.428
70161W        W38555   8.808  15.619  13.830
70162W        W38556   3.987   3.764   1.658
70163W        W38557  35.040  36.025  11.500
70164W        W38558  33.045  21.884   1.213
70165W        W38559  32.541  33.932   1.371
70166W        W38560  33.083  31.910   0.071
70167W        W38561  40.944   5.259  12.101
70168W        W38562  23.011  30.051   1.789
70169W        W38563  19.994  26.482   3.753
70170W        W38564  15.701  34.458   0.873
70171W        W38565  23.883  29.132  12.948
70172W        W38566  41.367  10.941   3.195
70173W        W38567  40.017  11.409  12.833
70174W        W38568  17.639  28.539  11.161
70175W        W38569   4.909  32.864   1.852
70176W        W38570  13.388  31.939  12.038
70177W        W38571   4.905   6.833  12.608
70178W        W38572  31.927  30.117   1.503
70179W        W38573  25.193  29.910  10.480
70180W        W38574  44.459  39.269   3.667
70181W        W38575  28.209   4.767   5.070
70182W        W38576  19.609   4.416  13.484
70183W        W38577  10.647  11.913   0.787
70184W        W38578  13.592   9.916   1.792
70185W        W38579  24.078  27.043  11.456
70186W        W38580  18.691   7.758  13.906
70187W        W38581  30.486  12.570  13.581
70188W        W38582  28.170   2.125   3.304
70189W        W38583  36.164  22.195   4.187
70190W        W38584   4.972  16.166   1.955
70191W        W38585  32.936  20.489   1.784
70192W        W38586  39.319  23.419   0.949
70193W        W38587   8.108  38.124  11.080
70194W        W38588  17.794  12.429  14.766
70195W        W38589  34.330  14.278   3.820
70196W        W38590  14.771  39.412  13.949
70197W        W38591  10.359  38.210  11.251
70198W        W38592  42.952  11.731   3.654
70199W        W38593  43.398  20.114  14.431
70200W        W38594   8.712  38.153   2.141
70201W        W38595  38.380  43.216  10.681
70202W        W38596  18.323  20.966   1.278
70203W        W38597  41.822  14.824   3.630
70204W        W38598  27.293   5.295  12.013
70205W        W38599  22.342  10.723   1.800
70206W        W38600  14.325  43.406   1.190
70207W        W38601  24.983   6.226   3.590
70208W        W38602  31.398  20.062  13.710
70209W        W38603  17.117  40.506   1.265
70210W        W38604  26.131  25.716   3.720
70211W        W38605  26.318  11.728  13.997
70212W        W38606   1.382   3.973   0.013
70213W        W38607  10.301  24.564  12.125
70214W        W38608  32.857  42.009   0.107
70215W        W38609   5.391  25.800  13.812
70216W        W38610   6.584   9.293   3.818
70217W        W38611   0.110  38.817   3.865
70218W        W38612  31.857  16.082   3.288
70219W        W38613  16.799  41.342   3.741
70220W        W38614  21.342  11.825  11.500
70221W        W38615   0.816   9.707  14.551
70222W        W38616   0.285   8.735  14.027
70223W        W38617  36.159  12.165   1.280
70224W        W38618   5.946  10.387  12.328
70225W        W38619  36.093  27.820  12.493
70226W        W38620   4.193   9.223   3.629
70227W        W38621  11.150  13.635  10.655
70228W        W38622   8.744  25.961  13.894
70229W        W38623  26.189   5.769   5.076
70230W        W38624  18.447  18.219   0.633
70231W        W38625  15.452  30.141  10.148
70232W        W38626  17.674   0.530  13.454
70233W        W38627  43.342  13.823   5.120
70234W        W38628  17.180  24.160  12.842
70235W        W38629  28.386  15.706  12.998
70236W        W38630  36.547  32.138   0.089
70237W        W38631  36.897  15.561  11.943
70238W        W38632  24.296  32.473   4.543
70239W        W38633   4.378  14.128  10.737
70240W        W38634  33.529  31.921  14.361
70241W        W38635  14.665  20.594   0.861
70242W        W38636   1.183  41.483  13.302
70243W        W38637  23.695  33.509   0.873
70244W        W38638  29.053  17.337  10.688
70245W        W38639   6.156  32.077  12.809
70246W        W38640   4.911  23.269   2.578
70247W        W38641   2.903  15.614  10.794
70248W        W38642  30.092  21.307   4.538
70249W        W38643  38.506  27.428   2.873
70250W        W38644   0.665  44.485  12.668
70251W        W38645  40.401  24.604   0.353
70252W        W38646  42.266   3.441   1.908
70253W        W38647   2.151  40.318   3.236
70254W        W38648  38.225  20.767  11.138
70255W        W38649  38.074   1.470   4.104
70256W        W38650   6.302  12.327   0.626
70257W        W38651  18.905  13.160  11.966
70258W        W38652  12.602  23.261  10.676
70259W        W38653  14.717  22.237   4.093
70260W        W38654  21.434  24.269  10.253
70261W        W38655  44.324  15.122  11.677
70262W        W38656  44.863  27.921   2.170
70263W        W38657  28.605  36.926   1.724
70264W        W38658  44.941   4.800   1.880
70265W        W38659  14.171  41.472  13.096
70266W        W38660  16.887  26.941   2.935
70267W        W38661  20.986  26.559   1.277
70268W        W38662  21.605   4.252  14.988
70269W        W38663   2.051   2.947   3.644
70270W        W38664  13.434   4.822  12.916
70271W        W38665  14.120  42.970  12.161
70272W        W38666  36.387  38.797  13.887
70273W        W38667  15.806  28.107   3.874
70274W        W38668  17.753  29.204  12.812
70275W        W38669  29.731  10.052  12.570
70276W        W38670  38.514  32.944   1.381
70277W        W38671  40.876  21.564  12.119
70278W        W38672  42.066  18.118  10.562
70279W        W38673  22.616   0.922   2.916
70280W        W38674  37.349  11.331   2.672
70281W        W38675   6.861  15.147   3.326
70282W        W38676  19.962   1.392  13.350
70283W        W38677  24.589   9.254  10.793
70284W        W38678   6.864   1.348   0.317
70285W        W38679  41.806   3.743   4.169
70286W        W38680   8.700   6.708   3.225
70287W        W38681  25.726  18.089   0.435
70288W        W38682  14.541  26.619  13.666
70289W        W38683  39.510  11.650   4.815
70290W        W38684  36.687  33.611   4.496
70291W        W38685   4.852  32.746   0.420
70292W        W38686  25.624  40.275   4.733
70293W        W38687  20.776  44.089   4.700
70294W        W38688  29.462  15.392   3.353
70295W        W38689  26.651  36.670  10.770
70296W        W38690  30.862   5.761  10.787
70297W        W38691  34.881   8.274   0.894
70298W        W38692  19.221  30.033  11.632
70299W        W38693  30.844   0.121  11.075
70300W        W38694  34.411  39.556   4.151
70301W        W38695  15.550  30.929  11.600
70302W        W38696  42.104  39.986  14.777
70303W        W38697  39.128  42.402   2.404
70304W        W38698   7.778  35.946  11.015
70305W        W38699  24.901  18.274  13.589
70306W        W38700  21.346  26.172   0.775
70307W        W38701  32.068  27.299  12.785
70308W        W38702  16.116  30.533   0.172
70309W        W38703  11.143  44.133  12.743
70310W        W38704  28.550  32.805   2.711
70311W        W38705  27.261   1.851  14.716
70312W        W38706  19.209  23.541  10.802
70313W        W38707  22.157  23.196  14.436
70314W        W38708  10.346  21.506   3.397
70315W        W38709  33.620   5.743  10.729
70316W        W38710  13.146  39.337   2.530
70317W        W38711  12.726   4.252  10.055
70318W        W38712  42.021   7.689   3.615
70319W        W38713  15.415  21.024   0.818
70320W        W38714  41.110  22.765   3.951
70321W        W38715  20.703   3.386   3.628
70322W        W38716   2.695   6.529   0.454
70323W        W38717  19.621  11.819  12.953
70324W        W38718   4.399  13.658  14.963
70325W        W38719  13.880  34.812   4.034
70326W        W38720  11.308  12.171  10.807
70327W        W38721  16.541   0.816  13.871
70328W        W38722  26.051  23.081   3.765
70329W        W38723  34.280   2.226  12.905
70330W        W38724  17.258  17.822   3.203
70331W        W38725  38.250  43.319   2.797
70332W        W38726  27.654   6.298   2.422
70333W        W38727  17.717   9.350  11.284
70334W        W38728   9.056  23.945   1.354
70335W        W38729  38.845  30.429   2.577
70336W        W38730  27.190  28.858  12.784
70337W        W38731   4.130  35.978   3.850
70338W        W38732  43.821   2.982  14.756
70339W        W38733  17.668   4.545   4.862
70340W        W38734  21.996  13.609  13.923
70341W        W38735  28.856  14.722   3.657
70342W        W38736  17.364  36.921  11.751
70343W        W38737  43.345   1.564  12.861
70344W        W38738  29.552  23.838  10.694
70345W        W38739  24.038   0.448  12.122
70346W        W38740  37.290  19.107  10.756
70347W        W38741  41.118  20.004   0.586
70348W        W38742  37.116  22.276   3.320
70349W        W38743  14.662  36.558   1.302
70350W        W38744   9.637  40.560   4.765
70351W        W38745  21.174  28.474   0.357
70352W        W38746  39.314  10.267   1.228
70353W        W38747   4.692  40.363   0.299
70354W        W38748  37.414  16.282   4.212
70355W        W38749  31.960  42.050   1.870
70356W        W38750  26.395   8.016   0.861
70357W        W38751   0.496  39.137   1.714
70358W        W38752  38.947  32.463   3.783
70359W        W38753  36.338   2.890  10.968
70360W        W38754  28.097  25.510  13.403
70361W        W38755  12.137  34.611   0.695
70362W        W38756  40.485  21.836  10.714
70363W        W38757  42.335  24.576   5.006
70364W        W38758  39.311  28.691  11.433
70365W        W38759  39.439  40.580   0.218
70366W        W38760  37.362  29.285  14.762
70367W        W38761  12.602  14.896   1.906
70368W        W38762  31.455  10.714   2.268
70369W        W38763  33.480  10.583   4.084
70370W        W38764  31.836  17.782  14.527
70371W        W38765  24.712  10.625  12.920
70372W        W38766   9.150  29.694  12.976
70373W        W38767  32.086  24.285   4.251
70374W        W38768   9.407  31.853  14.768
70375W        W38769   8.859  32.797   2.453
70376W        W38770   7.652  37.685  13.938
70377W        W38771  19.794  20.453  10.988
70378W        W38772  23.377  15.104  13.500
70379W        W38773  40.244  28.514   2.201
70380W        W38774  39.809  18.190   4.763
70381W        W38775   7.999   0.464  10.717
70382W        W38776   1.915  27.385  13.672
70383W        W38777  14.858  20.889  10.872
70384W        W38778  30.259  36.989   2.628
70385W        W38779  20.187  29.517   3.826
70386W        W38780  40.887  44.036  14.262
70387W        W38781  32.573  36.568   2.833
70388W        W38782  38.779  25.037   1.832
70389W        W38783  14.597  24.697  13.626
70390W        W38784  43.370  19.712   3.841
70391W        W38785   0.271  34.115   2.603
70392W        W38786  10.268  12.767   1.272
70393W        W38787  10.644  31.699  13.531
70394W        W38788  25.818   9.167  14.352
70395W        W38789   4.595  42.543  14.501
70396W        W38790  15.130   4.033  13.445
70397W        W38791   1.423  26.091   3.625
70398W        W38792  43.531  34.269   3.197
70399W        W38793  26.104  29.992  12.471
70400W        W38794  12.578   0.451  11.236
70401W        W38795  25.579  25.363   1.579
70402W        W38796  10.285  28.600  13.975
70403W        W38797  19.979   7.848  14.314
70404W        W38798   9.681   9.906  14.009
70405W        W38799  26.438  36.051   2.129
70406W        W38800  19.833  40.710   3.404
70407W        W38801  12.829   6.188   4.612
70408W        W38802  37.060  30.060   3.359
70409W        W38803  21.208  35.954  12.093
70410W        W38804   1.026  27.967   0.772
70411W        W38805  19.909  31.968   1.501
70412W        W38806  43.965  13.641  10.734
70413W        W38807  24.729  34.632   0.345
70414W        W38808  32.512  38.760   3.724
70415W        W38809  31.838  12.418   0.724
70416W        W38810  20.832  24.722   2.744
70417W        W38811   5.954  29.914  11.840
70418W        W38812  10.585  26.702  14.438
70419W        W38813  44.914   8.618   0.228
70420W        W38814  18.766   4.798  14.205
70421W        W38815  34.969  42.782   3.620
70422W        W38816   4.291  30.856  11.319
70423W        W38817  33.382  17.812  13.588
70424W        W38818   3.213   8.255  14.155
70425W        W38819  42.394  31.999  10.231
70426W        W38820  33.414  32.173   0.383
70427W        W38821   8.761  18.204  14.870
70428W        W38822  13.183  10.870   2.124
70429W        W38823   2.815   0.035   4.084
70430W        W38824  38.784   1.622  10.321
70431W        W38825  19.915  14.403  13.571
70432W        W38826   6.699  29.463  11.760
70433W        W38827  34.261  10.303   0.353
70434W        W38828  42.411   7.057  11.553
70435W        W38829  41.507  40.529   4.578
70436W        W38830  22.705  43.945   4.611
70437W        W38831  40.832  37.534  11.139
70438W        W38832   8.855  20.011  13.044
70439W        W38833  24.830  41.777  14.489
70440W        W38834  26.035  17.716  10.667
70441W        W38835   6.273   2.994  13.058
70442W        W38836  18.317  29.500  14.878
70443W        W38837  10.425  15.802   0.876
70444W        W38838  14.331  26.170   0.243
70445W        W38839  10.843  29.532  11.675
70446W        W38840   3.867   7.865   3.363
70447W        W38841  43.446  14.904   0.199
70448W        W38842  27.957   2.042  12.957
70449W        W38843  15.777   4.955   3.588
70450W        W38844  25.651  37.003   4.035
70451W        W38845  18.838   1.785   1.821
70452W        W38846   7.651  33.566  11.085
70453W        W38847   6.726  11.303   3.778
70454W        W38848  28.931   2.694  11.039
70455W        W38849  27.579  12.751   3.270
70456W        W38850  26.168  20.358   0.816
70457W        W38851  13.010  27.061   0.259
70458W        W38852   1.055  14.575   2.249
70459W        W38853  19.985  10.863   2.365
70460W        W38854  39.416  10.542   3.867
70461W        W38855  29.932  35.885   0.953
70462W        W38856   3.047  26.336   4.056
70463W        W38857  11.432  44.264  14.668
70464W        W38858   4.181  13.022   1.247
70465W        W38859  29.976  44.916   1.782
70466W        W38860  36.981  43.575   0.397
70467W        W38861  24.191  44.779   0.367
70468W        W38862  24.078   0.296  14.438
70469W        W38863  37.920  10.646   2.639
70470W        W38864   5.327   6.326  11.464
70471W        W38865  25.965   6.428  12.826
70472W        W38866  39.727   2.391  12.536
70473W        W38867  18.134  16.440   5.386
70474W        W38868  15.267  41.840   0.318
70475W        W38869  16.187  44.231  12.434
70476W        W38870  14.224  20.320   4.666
70477W        W38871  40.599  30.793  14.026
70478W        W38872  22.760  23.950   3.754
70479W        W38873  35.570  39.429   1.209
70480W        W38874  31.537  34.493   3.752
70481W        W38875   7.559  40.220  11.463
70482W        W38876  28.401   6.630  10.411
70483W        W38877  39.374   6.344   4.108
70484W        W38878  25.805   9.754  13.013
70485W        W38879   2.443   6.751  13.385
70486W        W38880  31.317  43.389   4.062
70487W        W38881  14.720  37.043  12.781
70488W        W38882  35.831   9.027  13.422
70489W        W38883  20.594  10.259  11.286
70490W        W38884  10.357  36.833   2.727
70491W        W38885  21.456  19.153   1.710
70492W        W38886  43.523  25.957   3.259
70493W        W38887  28.557   4.757   2.417
70494W        W38888  22.300  26.501   1.619
70495W        W38889  18.360  40.916   5.086
70496W        W38890  12.190  25.654   2.612
70497W        W38891  34.177  33.367   4.681
70498W        W38892  11.796  18.148  14.416
70499W        W38893   9.288  39.229   0.551
70500W        W38894   5.708  15.982   4.677
70501W        W38895  25.529  28.065  12.676
70502W        W38896  40.293  42.920   0.269
70503W        W38897  37.302   5.079  12.345
70504W        W38898  25.077  27.655  10.902
70505W        W38899  24.516   5.902   2.432
70506W        W38900   7.406  28.994   0.302
70507W        W38901   5.873  10.807  14.799
70508W        W38902   8.551  26.247  14.296
70509W        W38903  20.302  24.661   4.591
70510W        W38904  36.469  39.366  14.844
70511W        W38905  36.988  14.637  11.950
70512W        W38906  34.011  40.936  12.082
70513W        W38907  38.614   1.417   1.787
70514W        W38908  43.077  23.520  13.819
70515W        W38909  41.444  25.625  14.315
70516W        W38910  31.443   0.288  12.457
70517W        W38911   8.050  23.202  12.075
70518W        W38912  11.474  12.906   4.071
70519W        W38913  39.122   2.389   0.465
70520W        W38914  35.756  32.181   0.498
70521W        W38915  29.671  42.022   0.696
70522W        W38916   7.340  33.674  13.994
70523W        W38917   6.954  34.995  12.505
70524W        W38918  44.739  24.525  11.892
70525W        W38919  13.845   8.907   3.667
70526W        W38920  43.942  26.314  11.054
70527W        W38921  34.638  37.130  13.938
70528W        W38922   9.487  21.251  10.208
70529W        W38923  18.327   7.200   1.013
70530W        W38924   0.923   1.036   2.455
70531W        W38925  42.564  18.898  14.417
70532W        W38926  17.094  11.391   4.272
70533W        W38927  20.989  13.304  12.003
70534W        W38928   0.746  41.360   4.778
70535W        W38929  35.939  26.184   0.214
70536W        W38930   1.513  17.703   2.161
70537W        W38931   2.718  11.806   4.304
70538W        W38932   8.884  44.554  14.406
70539W        W38933   8.943  21.302   2.350
70540W        W38934  39.726  22.126   3.533
70541W        W38935  15.570  30.512   2.653
70542W        W38936   3.169  14.377  12.065
70543W        W38937  42.425   4.748   5.234
70544W        W38938  44.313  19.802  12.195
70545W        W38939   2.926   5.470  12.107
70546W        W38940  43.999  11.443  12.995
70547W        W38941   4.976  40.055  11.103
70548W        W38942  10.733  16.646  11.705
70549W        W38943   6.979  37.878  13.900
70550W        W38944   6.854   1.722   1.284
70551W        W38945  31.884  36.210  14.570
70552W        W38946  24.863  29.143  13.968
70553W        W38947  16.803  34.765  10.692
70554W        W38948  17.917  24.139  13.357
70555W        W38949  27.082  32.427   3.262
70556W        W38950  13.066  14.752  14.210
70557W        W38951  42.023  37.988  12.309
70558W        W38952   7.877  30.020  13.040
70559W        W38953  20.124  34.411   0.543
70560W        W38954   8.226   7.863   2.182
70561W        W38955  21.215  37.500   4.558
70562W        W38956  15.297  29.462   1.278
70563W        W38957  14.451   2.382  13.376
70564W        W38958  36.523  20.429   1.695
70565W        W38959  28.485  44.226  12.893
70566W        W38960  44.341   8.071  14.780
70567W        W38961  20.172  27.506   2.164
70568W        W38962  26.625  29.345   2.743
70569W        W38963  20.667  12.454   3.394
70570W        W38964  38.486   6.148   0.474
70571W        W38965  25.581  34.775  12.327
70572W        W38966  13.022  21.206  12.416
70573W        W38967  43.642  20.850   2.261
70574W        W38968  31.051  27.643   1.334
70575W        W38969  19.963  14.453  11.624
70576W        W38970  44.363   2.758  13.023
70577W        W38971  26.527  15.235   3.281
70578W        W38972  35.464  15.603  14.446
70579W        W38973  34.034  38.842   0.104
70580W        W38974   5.756  29.668   1.832
70581W        W38975  20.549  44.006   0.232
70582W        W38976  26.702  26.628   1.449
70583W        W38977   0.865  33.535  11.918
70584W        W38978  10.425  28.478   2.378
70585W        W38979  22.249  21.015  14.747
70586W        W38980  20.566  11.328   2.743
70587W        W38981  36.307   8.380  13.486
70588W        W38982  22.936  13.651  14.313
70589W        W38983   4.598  28.689   3.786
70590W        W38984   4.441   0.694  12.564
70591W        W38985  10.081  40.418  12.493
70592W        W38986  14.031  41.403   0.023
70593W        W38987  27.573  30.936   2.670
70594W        W38988  11.150  11.257  13.377
70595W        W38989  16.275  39.267   2.430
70596W        W38990  15.800  24.980  13.804
70597W        W38991  44.409  31.465  10.792
70598W        W38992   2.935  38.063   3.653
70599W        W38993  25.492  41.753   4.340
70600W        W38994  23.547  19.720   3.750
70601W        W38995   6.347   5.429   5.068
70602W        W38996  27.609   8.878   0.775
70603W        W38997  41.832  36.973   2.647
70604W        W38998  13.224   5.443  10.131
70605W        W38999  10.908   6.428   3.354
70606W        W39000  26.964  16.797   2.781
70607W        W39001  19.875  37.903   0.496
70608W        W39002   1.416  38.064  14.728
70609W        W39003  38.924  19.186  12.474
70610W        W39004  27.434  16.197  14.091
70611W        W39005  23.217   4.372   3.564
70612W        W39006  39.271  41.061  11.618
70613W        W39007   6.771  32.713   3.623
70614W        W39008  11.234  31.830   0.421
70615W        W39009  11.061  38.015  10.622
70616W        W39010  30.739   6.474  11.538
70617W        W39011  16.191  18.286   0.426
70618W        W39012   3.328  33.675   0.743
70619W        W39013  19.502  29.209   2.328
70620W        W39014  33.598  27.732  14.338
70621W        W39015  43.610   0.897   3.173
70622W        W39016  31.236  22.330  12.691
70623W        W39017  38.562   5.840  13.899
70624W        W39018  13.594   0.815  13.832
70625W        W39019  31.748  38.688  14.524
70626W        W39020  43.439  41.421  12.074
70627W        W39021  20.131  20.799  11.152
70628W        W39022  10.655  27.961  14.813
70629W        W39023   6.181  29.625  14.817
70630W        W39024  36.505   2.808  12.377
70631W        W39025   2.138  23.711  13.128
70632W        W39026  30.339  18.557   2.587
70633W        W39027  41.765  10.599  10.452
70634W        W39028  44.522  38.681  13.782
70635W        W39029   1.245  41.624   4.675
70636W        W39030  23.488   1.675  12.749
70637W        W39031  25.012  28.422  13.544
70638W        W39032  38.344  19.292   0.627
70639W        W39033   4.463  19.697  13.615
70640W        W39034  25.635  44.949  14.529
70641W        W39035  14.383  34.328  14.022
70642W        W39036  11.191  10.738   1.217
70643W        W39037  30.646  34.012   1.915
70644W        W39038  33.941  21.789  12.922
70645W        W39039  27.114   6.282  12.173
70646W        W39040  44.131   3.429  14.868
70647W        W39041  23.590  43.591  10.739
70648W        W39042  31.412   9.446  13.511
70649W        W39043  42.846  38.301  11.566
70650W        W39044  13.909  19.274  11.230
70651W        W39045  22.076  27.248   0.811
70652W        W39046  42.284  40.183  11.264
70653W        W39047  16.893  37.001  13.354
70654W        W39048  34.663  24.664   1.580
70655W        W39049  25.860  14.047  10.792
70656W        W39050  39.075   5.183   1.758
70657W        W39051  42.380  35.990   9.784
70658W        W39052  20.729  22.253   3.873
70659W        W39053  32.708  33.969  13.917
70660W        W39054  24.934   7.554   0.547
70661W        W39055   5.404  32.990   3.879
70662W        W39056  33.831  44.403   4.335
70663W        W39057  12.325   3.959  12.005
70664W        W39058  42.775  37.157   2.661
70665W        W39059  24.720  31.434   4.298
70666W        W39060  28.907  37.404   0.958
70667W        W39061  15.962  43.340  11.861
70668W        W39062  22.637  35.508  13.818
70669W        W39063  36.282  41.417   1.300
70670W        W39064   9.207  32.494   1.779
70671W        W39065  24.553  14.090  11.155
70672W        W39066   4.673  12.803   0.927
70673W        W39067  32.406  38.021   3.169
70674W        W39068   9.620   2.656   2.641
70675W        W39069  23.135  34.982  10.627
70676W        W39070  31.532  23.621   3.629
70677W        W39071  18.330  42.467   1.828
70678W        W39072   9.383  42.834   4.064
70679W        W39073  31.186  10.194  12.934
70680W        W39074  31.210  31.639   0.406
70681W        W39075  42.911  16.165   0.908
70682W        W39076  15.147   8.409   0.333
70683W        W39077  37.735  26.159  11.218
70684W        W39078  31.437   7.677   2.391
70685W        W39079  31.660  13.199   2.330
70686W        W39080  12.121  26.057  13.137
70687W        W39081  15.150  41.720   1.353
70688W        W39082  30.825   5.339   0.386
70689W        W39083  13.752  37.623  10.004
70690W        W39084  14.575  11.640  13.248
70691W        W39085   1.905  41.392   1.458
70692W        W39086  28.559  15.275   1.284
70693W        W39087   4.412  43.094  14.797
70694W        W39088  29.240  19.045  12.415
70695W        W39089   3.358  27.276   4.878
70696W        W39090   8.650  11.064  13.146
70697W        W39091  41.127  34.521  10.586
70698W        W39092  33.896  18.325   0.364
70699W        W39093  14.819  17.263   4.108
70700W        W39094  26.136  37.529  11.999
70701W        W39095  40.866  22.948   3.161
70702W        W39096  32.292   4.710   3.699
70703W        W39097  20.679  11.144   3.801
70704W        W39098  41.868  35.360  11.645
70705W        W39099  32.978   4.155   4.220
70706W        W39100  24.422  28.794  13.899
70707W        W39101  17.577   2.676  10.759
70708W        W39102  25.479  31.962  12.620
70709W        W39103   4.010   7.955   1.213
70710W        W39104  41.952   3.036  11.657
70711W        W39105   0.131  26.715  14.388
70712W        W39106  37.541  42.119  12.000
70713W        W39107   6.758  37.341   0.768
70714W        W39108   2.277  19.306   0.246
70715W        W39109   3.358   9.541  11.013
70716W        W39110  23.769  16.302  13.480
70717W        W39111  28.995   8.159   0.995
70718W        W39112  14.715  13.639   1.032
70719W        W39113  38.795  38.460  10.674
70720W        W39114   5.055  33.969   0.702
70721W        W39115  44.958  41.411  13.029
70722W        W39116   5.886  23.080   4.705
70723W        W39117  16.417  41.435  12.082
70724W        W39118   6.149  38.995   2.329
70725W        W39119  26.008  24.530   1.910
70726W        W39120  20.168  44.768  11.669
70727W        W39121   3.034  33.143  13.002
70728W        W39122   8.384   3.513  11.967
70729W        W39123  17.762   4.970  13.359
70730W        W39124  22.398   2.153   1.668
70731W        W39125  29.763   8.689  12.388
70732W        W39126  13.579  15.206   0.758
70733W        W39127  33.911  26.412   0.903
70734W        W39128  10.471   6.760  14.113
70735W        W39129  33.857  24.587  14.511
70736W        W39130  14.465  39.561   2.710
70737W        W39131  21.462   1.839  12.407
70738W        W39132   4.869  40.270   2.716
70739W        W39133  30.497   4.734   3.596
70740W        W39134  18.206   1.799  14.306
70741W        W39135  28.354  41.809   0.232
70742W        W39136   3.564  15.091  14.685
70743W        W39137   3.377  15.812  10.729
70744W        W39138  26.610  33.973  13.887
70745W        W39139  15.843  12.608   0.993
70746W        W39140  27.309   1.367   1.586
70747W        W39141   3.691  24.554  14.406
70748W        W39142  35.453  14.643   3.351
70749W        W39143  12.336   2.243   0.092
70750W        W39144  18.938  11.217   4.350
70751W        W39145   7.439  10.240   4.602
70752W        W39146  40.998  25.170  12.106
70753W        W39147  35.100  24.411   3.697
70754W        W39148  22.980  34.906  14.346
70755W        W39149  15.736  11.034  13.300
70756W        W39150  16.638  28.408   0.833
70757W        W39151  30.691  14.744   0.177
70758W        W39152  36.315  27.434  10.774
70759W        W39153  24.949  15.386  11.615
70760W        W39154  30.672   9.848  13.418
70761W        W39155  11.651   7.854  11.542
70762W        W39156  39.904  34.675   0.282
70763W        W39157  27.952   8.249   0.890
70764W        W39158  27.891  33.265   5.192
70765W        W39159  19.684  17.941   0.896
70766W        W39160  42.306  20.516   4.010
70767W        W39161  40.049  24.320  12.476
70768W        W39162  13.373  21.202   4.930
70769W        W39163   7.931  16.638  10.794
70770W        W39164  15.328  35.354   3.681
70771W        W39165  31.578  21.607   2.643
70772W        W39166   4.201  11.677   2.164
70773W        W39167   2.257   3.650  13.537
70774W        W39168  31.056  38.723  12.253
70775W        W39169  43.960   6.340   1.369
70776W        W39170  26.080  32.146   1.497
70777W        W39171   2.433  16.312  11.134
70778W        W39172  22.463   1.325   1.303
70779W        W39173  15.662  19.528  14.638
70780W        W39174  12.144   2.192   4.531
70781W        W39175  42.031  15.051   1.409
70782W        W39176  35.531  17.084   1.477
70783W        W39177  35.492   4.902  12.308
70784W        W39178   6.448  30.620   0.249
70785W        W39179  40.920  16.074  14.999
70786W        W39180  10.329  23.613   3.500
70787W        W39181  37.310  10.079   2.174
70788W        W39182  18.834   4.475  12.120
70789W        W39183  38.809  19.279  12.997
70790W        W39184   9.594  15.651   3.399
70791W        W39185  33.021  13.662   3.742
70792W        W39186  31.196  14.076   1.795
70793W        W39187  30.157  24.988   4.945
70794W        W39188  39.312  18.206   4.665
70795W        W39189  19.217  37.056  11.009
70796W        W39190  35.993  17.731  13.384
70797W        W39191  21.154  17.344   2.785
70798W        W39192   0.971  13.416  11.975
70799W        W39193  13.908  14.787   2.529
70800W        W39194  28.027  43.600  12.404
70801W        W39195  37.012   2.418  12.401
70802W        W39196  36.925  19.111  14.919
70803W        W39197  26.942   7.846  13.316
70804W        W39198  27.195  35.842  11.964
70805W        W39199   9.950  40.664  14.456
70806W        W39200  33.020  32.678  11.949
70807W        W39201  18.685  40.385   2.832
70808W        W39202   6.908  26.419  12.084
70809W        W39203  17.748  34.035   2.681
70810W        W39204   3.423  36.907   4.180
70811W        W39205  21.163  19.811  11.142
70812W        W39206  36.419   4.729  12.368
70813W        W39207  15.998  40.365   0.098
70814W        W39208   4.038  17.851  14.314
70815W        W39209  35.627  43.904   0.568
70816W        W39210  37.374   4.903  14.915
70817W        W39211  31.568  37.482  13.992
70818W        W39212  36.389  27.921   0.773
70819W        W39213  36.907  28.059  14.342
70820W        W39214  13.871  40.094   4.286
70821W        W39215  10.580  41.437  13.449
70822W        W39216  19.085  31.509   3.310
70823W        W39217  11.925  27.686  12.141
70824W        W39218  26.179  28.054   2.509
70825W        W39219  29.147   9.330  12.026
70826W        W39220   2.282  36.929   0.836
70827W        W39221  30.967  21.616  12.647
70828W        W39222  41.744   2.472  12.454
70829W        W39223  37.971  43.833  11.789
70830W        W39224  36.957  42.096   3.894
70831W        W39225   6.138  32.309  13.446
70832W        W39226  23.423  18.394  13.071
70833W        W39227  17.743   4.801   1.420
70834W        W39228   5.509   4.319  13.544
70835W        W39229  21.010  43.312  12.531
70836W        W39230  30.115  13.405   1.434
70837W        W39231   9.846  27.803  14.421
70838W        W39232  36.542   2.184   4.601
70839W        W39233  33.246  36.283  13.997
70840W        W39234  26.280  44.869  12.241
70841W        W39235   5.440  43.237   4.699
70842W        W39236   9.155  30.049  14.520
70843W        W39237   6.838  32.282  13.067
70844W        W39238   2.868  40.264   2.249
70845W        W39239   7.383  34.436   0.796
70846W        W39240   5.715  31.920  12.581
70847W        W39241  40.552  13.725  14.436
70848W        W39242  22.629  29.965   0.444
70849W        W39243  16.553  12.854  11.673
70850W        W39244   6.325  33.516  12.093
70851W        W39245   5.900   1.546   2.652
70852W        W39246  42.237   9.786  10.647
70853W        W39247  29.430  12.292   2.297
70854W        W39248  37.409  35.565  13.183
70855W        W39249  42.042  15.377  14.684
70856W        W39250   4.291   4.538   2.185
70857W        W39251  33.057  18.141   0.360
70858W        W39252  11.140  17.520  13.396
70859W        W39253   5.206  12.381  12.981
70860W        W39254  38.473  18.201   2.578
70861W        W39255  22.060  26.154  12.618
70862W        W39256  43.555  44.412   0.352
70863W        W39257   1.288   7.432   2.014
70864W        W39258  32.436  44.377   4.464
70865W        W39259  44.147  17.153  14.894
70866W        W39260  21.963   8.381   0.414
70867W        W39261  15.083  28.689  11.717
70868W        W39262  36.427   1.790  13.475
70869W        W39263  36.879   4.410   2.897
70870W        W39264  28.177  27.561   3.760
70871W        W39265   7.129  26.230  11.650
70872W        W39266  38.611  12.735  12.528
70873W        W39267  22.614  24.888   3.701
70874W        W39268   1.682  35.082   3.793
70875W        W39269  29.596   1.383  10.545
70876W        W39270  13.597  24.122   3.519
70877W        W39271   5.180  11.384   4.474
70878W        W39272  26.119  44.472   2.325
70879W        W39273  26.618  24.076  14.054
70880W        W39274  32.351  19.569   4.206
70881W        W39275  21.533  43.227  12.463
70882W        W39276   0.818  27.165  13.484
70883W        W39277  20.297  40.270  11.205
70884W        W39278  25.719   7.150   4.526
70885W        W39279  39.187  25.132   5.013
70886W        W39280   9.884  42.974   4.188
70887W        W39281  22.376  35.154   1.809
70888W        W39282   2.318  42.447   2.157
70889W        W39283   1.302  42.753   4.091
70890W        W39284   7.793  40.556  13.802
70891W        W39285  18.126  39.470   3.640
70892W        W39286  23.350  38.003  12.814
70893W        W39287   4.712  36.037  12.039
70894W        W39288  31.981  32.567   2.283
70895W        W39289  27.476  33.307   3.364
70896W        W39290  25.150  18.062   4.593
70897W        W39291   2.396  21.591   4.535
70898W        W39292  38.539  16.152  10.406
70899W        W39293  13.149  42.123  11.107
70900W        W39294  17.280  13.073  14.975
70901W        W39295  18.951  29.474   5.062
70902W        W39296  42.527  20.021   4.239
70903W        W39297  18.851  40.595   3.271
70904W        W39298  32.435  38.748  12.051
70905W        W39299  36.411  21.159   4.261
70906W        W39300   6.635  41.577  10.953
70907W        W39301  39.817   0.452  10.658
70908W        W39302  35.120  44.760   1.334
70909W        W39303  29.628  32.359   3.801
70910W        W39304  41.740  31.559   4.680
70911W        W39305  19.241  35.892   4.562
70912W        W39306  17.600   8.676   4.115
70913W        W39307  42.688   0.895  12.789
70914W        W39308  34.382  14.597  14.390
70915W        W39309  33.928  25.517  11.051
70916W        W39310  40.298  32.994   0.877
70917W        W39311   1.125  44.850   5.007
70918W        W39312  22.119   9.749  13.231
70919W        W39313  41.602  23.673  11.096
70920W        W39314  26.850   0.483   5.433
70921W        W39315   2.484   5.833  13.130
70922W        W39316   7.150  24.928  14.323
70923W        W39317  44.862  43.364   0.505
70924W        W39318  40.313   0.437   0.441
70925W        W39319  42.074  28.330  12.006
70926W        W39320  13.423  24.993   1.886
70927W        W39321  10.706  17.089   1.748
70928W        W39322  16.766  40.425   2.094
70929W        W39323  38.859  27.606   4.361
70930W        W39324  21.429   6.600   4.919
70931W        W39325  28.400  22.313   2.245
70932W        W39326  30.527  39.373  13.489
70933W        W39327  14.006   2.367   3.269
70934W        W39328  21.160  37.994  10.178
70935W        W39329   4.204   8.337  14.518
70936W        W39330  29.587  17.374  13.332
70937W        W39331  18.007  15.293   2.497
70938W        W39332  34.558  18.904   3.159
70939W        W39333   7.738  33.518   2.458
70940W        W39334  37.772  29.628  13.460
70941W        W39335   8.720  14.654  11.143
70942W        W39336   4.773   6.110  12.996
70943W        W39337  22.114  17.680   4.849
70944W        W39338  36.414  36.186  12.592
70945W        W39339  33.123  44.783   4.147
70946W        W39340  39.484  18.057  12.513
70947W        W39341  34.811  10.721  10.466
70948W        W39342  29.568   6.789  13.796
70949W        W39343  38.223   6.085  10.039
70950W        W39344   3.694  32.485  10.677
70951W        W39345  40.293   6.172  12.565
70952W        W39346  39.308   9.065   2.574
70953W        W39347  42.885  15.375  14.795
70954W        W39348  39.822  40.601   1.478
70955W        W39349  27.953  14.304  13.836
70956W        W39350  41.323  10.765   4.609
70957W        W39351  32.988  42.871   1.430
70958W        W39352  21.499  34.110  11.476
70959W        W39353  13.252  39.601  11.087
70960W        W39354  41.511  19.392   3.429
70961W        W39355  43.096  35.501   4.057
70962W        W39356  36.447  12.362   2.410
70963W        W39357   7.023   2.141  13.453
70964W        W39358  10.702  16.478  12.578
70965W        W39359   4.990  40.303  13.421
70966W        W39360  23.286   3.247   1.406
70967W        W39361  40.861  30.516  12.528
70968W        W39362  40.852  32.027   0.280
70969W        W39363  43.915  27.686   3.087
70970W        W39364   3.478  30.429  11.177
70971W        W39365  20.898  19.144  13.808
70972W        W39366  36.054  36.094   1.178
70973W        W39367  10.621  41.491  14.332
70974W        W39368  38.112   0.271   4.267
70975W        W39369   7.166  27.607   5.366
70976W        W39370  18.622  32.401  13.369
70977W        W39371  21.548   7.871  12.124
70978W        W39372  19.503  18.181   2.863
70979W        W39373  35.838  42.077   1.772
70980W        W39374   4.157  13.860  14.548
70981W        W39375  16.693  44.418  10.393
70982W        W39376  26.529  24.564   3.129
70983W        W39377  32.612  12.681   2.687
70984W        W39378  23.637  16.226  12.014
70985W        W39379   5.958  13.102   0.716
70986W        W39380  41.455  35.525   1.892
70987W        W39381  15.311   9.262   3.152
70988W        W39382  17.855  29.250   0.567
70989W        W39383  29.462  18.882  10.750
70990W        W39384  30.894  27.212   1.053
70991W        W39385  43.769  27.217   4.569
70992W        W39386  19.451   5.405   4.262
70993W        W39387  41.132  32.299   1.730
70994W        W39388  42.924   6.654   1.679
70995W        W39389  12.966  18.284   0.316
70996W        W39390   1.690  30.178   2.664
70997W        W39391  14.235  38.558  11.146
70998W        W39392  34.457   6.902  14.284
70999W        W39393  24.463  37.056  10.773
71000W        W39394   6.419   2.816   1.179
71001W        W39395  18.905   9.254   4.663
71002W        W39396  42.966  37.556  14.540
71003W        W39397  18.142  12.259  10.999
71004W        W39398  17.488  19.758  14.426
71005W        W39399  16.622   5.647   2.934
71006W        W39400  17.356  16.866   1.227
71007W        W39401  10.396  41.975  13.484
71008W        W39402  14.198   8.632  10.880
71009W        W39403  39.883  42.557  13.965
71010W        W39404  21.947  44.878  12.832
71011W        W39405  39.799  18.171  14.384
71012W        W39406   9.573  26.937  14.348
71013W        W39407  43.758  37.919   0.005
71014W        W39408  19.709  38.917   1.795
71015W        W39409  30.244  27.409   2.771
71016W        W39410  18.592   0.567   1.387
71017W        W39411  11.811  41.574   1.246
71018W        W39412  33.148  32.500  10.670
71019W        W39413  12.238  32.042  11.680
71020W        W39414  34.772  35.077   3.345
71021W        W39415  20.245  23.341   0.938
71022W        W39416  24.490  20.733  12.365
71023W        W39417  24.251  18.646  14.993
71024W        W39418   9.237  36.450  12.925
71025W        W39419  40.419  43.814  14.360
71026W        W39420  28.716  12.809   0.307
71027W        W39421  14.889  31.307  12.566
71028W        W39422   7.482  13.121  11.556
71029W        W39423  15.781  32.721   0.029
71030W        W39424  11.872  22.458  14.377
71031W        W39425  18.197  28.666   0.446
71032W        W39426  10.153  37.893   1.847
71033W        W39427  15.238   1.804   0.317
71034W        W39428  29.025  16.754   1.810
71035W        W39429  27.137  31.055   4.454
71036W        W39430  43.152   4.267  12.976
71037W        W39431  28.999   5.384  11.666
71038W        W39432  42.763  32.330  11.555
71039W        W39433  11.191  17.170  13.776
71040W        W39434  38.088  25.933  11.562
71041W        W39435  37.554  22.740  11.255
71042W        W39436  33.084  17.159   0.191
71043W        W39437   0.030  41.460  13.933
71044W        W39438  36.533   6.757   2.761
71045W        W39439  16.336  42.849   1.929
71046W        W39440  33.947   3.405   1.180
71047W        W39441  39.404  11.760   0.491
71048W        W39442   3.722  20.217   1.788
71049W        W39443   1.322  38.442   4.349
71050W        W39444  31.389  26.449  11.994
71051W        W39445   9.256   5.276  12.813
71052W        W39446  19.217  42.428  11.097
71053W        W39447  13.232  26.584   0.233
71054W        W39448  21.513  26.501   3.544
71055W        W39449  33.988   0.829   4.102
71056W        W39450  17.642  27.138  13.798
71057W        W39451  15.818  39.586  12.487
71058W        W39452  35.306   2.300  13.062
71059W        W39453  32.671  31.392  12.149
71060W        W39454  14.392   4.901   5.316
71061W        W39455   7.369  42.387   1.854
71062W        W39456  19.988  32.989   4.764
71063W        W39457   5.230  20.251   2.172
71064W        W39458   2.880  19.051   3.660
71065W        W39459  12.459  11.371  11.217
71066W        W39460  29.508  15.768   0.625
71067W        W39461  44.132  44.364   4.401
71068W        W39462  31.852  36.413   0.410
71069W        W39463  44.020  22.798   2.924
71070W        W39464  18.853  34.448   2.984
71071W        W39465  12.680  10.624  13.547
71072W        W39466  29.006  24.426  10.710
71073W        W39467  38.054   3.693   4.534
71074W        W39468  30.053  23.211   1.901
71075W        W39469   5.041  18.742   2.326
71076W        W39470  19.093  15.250  14.012
71077W        W39471  26.712  13.178   3.153
71078W        W39472  24.994  40.078  10.720
71079W        W39473  11.834   0.928  11.112
71080W        W39474  44.483  41.479  13.953
71081W        W39475  14.140  43.886  14.776
71082W        W39476  13.683  20.564   2.235
71083W        W39477  18.742  20.731   4.137
71084W        W39478  42.761  11.803   3.172
71085W        W39479   6.926   5.575   3.263
71086W        W39480  39.010  42.117  12.105
71087W        W39481  17.932   5.176   9.714
71088W        W39482   5.177  12.640  12.466
71089W        W39483  32.605   7.331   2.488
71090W        W39484  33.928  13.413  12.454
71091W        W39485  33.813   1.826  10.829
71092W        W39486   7.640   5.052   3.485
71093W        W39487  27.939  40.569  11.115
71094W        W39488   6.783  11.280   1.295
71095W        W39489  40.852  38.536   4.119
71096W        W39490  44.409  17.812  13.361
71097W        W39491  43.415  11.573  14.035
71098W        W39492  22.869  26.960   2.631
71099W        W39493   6.941  36.248  11.651
71100W        W39494   2.829  25.259  14.382
71101W        W39495  20.149  14.596  12.089
71102W        W39496   1.264  12.340  12.517
71103W        W39497  16.254  34.535   1.963
71104W        W39498  22.518  14.623   1.714
71105W        W39499  20.054   2.961   1.331
71106W        W39500  14.522  37.511   0.422
71107W        W39501  26.794  15.124   2.655
71108W        W39502   3.815  17.203  11.498
71109W        W39503  32.196  34.569   0.764
71110W        W39504  38.886   7.168   4.649
71111W        W39505   7.938  15.670  11.521
71112W        W39506  29.404  19.619  13.129
71113W        W39507  36.622  40.883  10.545
71114W        W39508  10.962  21.219   2.629
71115W        W39509  40.518  10.851   2.673
71116W        W39510   0.427  23.278   0.708
71117W        W39511  32.719  24.109   0.767
71118W        W39512   3.709  30.017  10.552
71119W        W39513  40.099  25.706  11.163
71120W        W39514  39.152  33.051  14.001
71121W        W39515  20.067  26.726  12.721
71122W        W39516  21.556  35.664  12.965
71123W        W39517  10.149  41.826   1.966
71124W        W39518  44.320  28.878   1.718
71125W        W39519  28.596  20.677  10.826
71126W        W39520  34.108  28.858   0.557
71127W        W39521  13.906  26.414  11.971
71128W        W39522  22.619  37.301   1.322
71129W        W39523  17.543  37.544   3.205
71130W        W39524  30.528  19.229   2.923
71131W        W39525  24.983   8.922   4.071
71132W        W39526  13.115   9.365  11.904
71133W        W39527   7.931  42.932  13.559
71134W        W39528   4.797  28.923  10.907
71135W        W39529  36.572  17.099   4.088
71136W        W39530  18.073  25.073   1.767
71137W        W39531   1.428  40.876   0.428
71138W        W39532   6.687   5.439  14.740
71139W        W39533  43.415   2.584   3.823
71140W        W39534  30.221  14.660   1.150
71141W        W39535  21.120  43.380  13.416
71142W        W39536  29.386  13.988   0.009
71143W        W39537  28.595  25.002  11.251
71144W        W39538  42.757   9.658  11.493
71145W        W39539  27.517  28.025   2.625
71146W        W39540   7.454   9.272  14.519
71147W        W39541  13.640  16.663  12.450
71148W        W39542  28.607   9.796   4.921
71149W        W39543  38.633  16.661   2.752
71150W        W39544  24.074  12.419   3.528
71151W        W39545  24.007  33.464  13.822
71152W        W39546  33.365   8.305  12.590
71153W        W39547  11.777  43.446   3.613
71154W        W39548  29.186  17.577   2.738
71155W        W39549   6.407  28.915   2.780
71156W        W39550  14.034  20.086  14.492
71157W        W39551  11.604  23.600   1.833
71158W        W39552  20.376  36.624   3.165
71159W        W39553  32.817   9.240   2.278
71160W        W39554  19.624  17.433   0.942
71161W        W39555   7.365  40.140   4.653
71162W        W39556   0.858  36.980  11.174
71163W        W39557   3.483   9.992  11.788
71164W        W39558  41.365  27.456  13.312
71165W        W39559   3.266  14.987   3.598
71166W        W39560   1.929   1.808   3.263
71167W        W39561  23.588  13.934   4.529
71168W        W39562  33.939  29.058   4.197
71169W        W39563  37.431  18.947  13.516
71170W        W39564  41.826  21.658  14.889
71171W        W39565  10.865  10.054  10.653
71172W        W39566  18.143  43.851   0.920
71173W        W39567  22.792  15.723  12.982
71174W        W39568  13.187  35.633  11.672
71175W        W39569  10.089   0.926  10.534
71176W        W39570   3.881  23.674  13.934
71177W        W39571  26.155   3.880  12.416
71178W        W39572   6.779   0.617  10.365
71179W        W39573   4.772  15.045  11.576
71180W        W39574  34.810  27.135  11.600
71181W        W39575  42.754  39.055  10.301
71182W        W39576  44.468   1.352   0.922
71183W        W39577  13.354  27.506  10.672
71184W        W39578  11.168  21.575   2.950
71185W        W39579  16.681  33.540   4.454
71186W        W39580  27.470  39.087   1.939
71187W        W39581  23.606  10.403   0.744
71188W        W39582  33.183  10.716  11.180
71189W        W39583  30.500  25.706  12.325
71190W        W39584  20.315  30.455   2.691
71191W        W39585  22.959  37.461   4.240
71192W        W39586  41.683  29.759  10.330
71193W        W39587  13.616  12.297   1.199
71194W        W39588  26.095   5.941  10.618
71195W        W39589  28.602  15.242   3.859
71196W        W39590  21.990  29.603   0.749
71197W        W39591  33.542   3.825   0.427
71198W        W39592  25.000  18.067   0.180
71199W        W39593  28.049  34.566   0.728
71200W        W39594  37.346   6.840   2.699
71201W        W39595  18.997  37.213   4.773
71202W        W39596  37.441   3.400   0.517
71203W        W39597  24.788  12.042  12.649
71204W        W39598   9.802  36.484  11.059
71205W        W39599  31.738  44.232   4.195
71206W        W39600  11.698  24.874   2.258
71207W        W39601  40.438  23.149  13.812
71208W        W39602  13.216  25.100   3.818
71209W        W39603  33.856  13.628   0.444
71210W        W39604  17.148  37.008  14.031
71211W        W39605   1.989   9.798  13.087
71212W        W39606   4.226  23.484  11.076
71213W        W39607   5.931  20.506  13.810
71214W        W39608  30.194  36.678   4.511
71215W        W39609  31.690  22.489   2.647
71216W        W39610  23.755  24.163   3.741
71217W        W39611  28.897  25.472  14.624
71218W        W39612   0.104  14.279  10.669
71219W        W39613  42.075  17.283   0.074
71220W        W39614   3.673  10.568   4.181
71221W        W39615  26.932  40.139  11.622
71222W        W39616   7.325  35.618  14.459
71223W        W39617  38.169   5.265   1.909
71224W        W39618   0.344  23.615  13.772
71225W        W39619  29.929  41.920  14.737
71226W        W39620  22.099  28.457  14.475
71227W        W39621  44.019  29.194   1.441
71228W        W39622  38.817  13.317   3.920
71229W        W39623  20.498   4.970   4.310
71230W        W39624  37.560  35.673  10.431
71231W        W39625  40.436  37.881   1.477
71232W        W39626  33.574  39.533   3.130
71233W        W39627   5.501  28.077  12.832
71234W        W39628   5.688  23.667   0.060
71235W        W39629  37.606   0.881   3.430
71236W        W39630  19.989  23.432  11.229
71237W        W39631  41.987  28.561   2.967
71238W        W39632  16.715  40.553   1.605
71239W        W39633  17.269  15.259  11.251
71240W        W39634   0.555   6.352  12.055
71241W        W39635  35.435  12.210   0.044
71242W        W39636  13.876  40.609  11.583
71243W        W39637   5.633  26.948   4.504
71244W        W39638  11.918   3.427  12.437
71245W        W39639  17.649  42.713  10.924
71246W        W39640  17.516   8.362  12.573
71247W        W39641  10.747  32.921  12.082
71248W        W39642   6.384  12.066  11.225
71249W        W39643  20.208   0.491   1.087
71250W        W39644  24.297  22.676  11.550
71251W        W39645  30.906  17.012   4.482
71252W        W39646  44.923  29.676  13.832
71253W        W39647  27.555   7.640   4.720
71254W        W39648   5.220  13.898   3.093
71255W        W39649  44.027  12.721  12.803
71256W        W39650  16.259  43.534  13.906
71257W        W39651  32.910   1.266  11.520
71258W        W39652  41.414  26.011   2.670
71259W        W39653  23.146  11.916  14.316
71260W        W39654   0.450  32.495   1.345
71261W        W39655  34.310  13.935   5.167
71262W        W39656  42.719  37.675   0.904
71263W        W39657  24.956   8.728   0.771
71264W        W39658  23.471  38.782  14.869
71265W        W39659  18.898  41.486  10.364
71266W        W39660  12.050   2.889   0.683
71267W        W39661  11.285   3.281   3.158
71268W        W39662  13.939  29.440  13.151
71269W        W39663  34.077  21.479  14.343
71270W        W39664  43.978  12.188  11.936
71271W        W39665  30.663   8.740   4.623
71272W        W39666  26.640   9.634  13.853
71273W        W39667  42.940  29.661   4.381
71274W        W39668  14.624  36.796   0.851
71275W        W39669  32.532   8.604   1.761
71276W        W39670  26.637   6.727  14.831
71277W        W39671  19.505  32.294   1.973
71278W        W39672  30.978   2.864   1.688
71279W        W39673  43.500   5.293   4.417
71280W        W39674  33.245  39.973   4.938
71281W        W39675  15.577  39.917   1.441
71282W        W39676  41.438  39.260  13.510
71283W        W39677  29.600  11.191  11.449
71284W        W39678   5.359   9.097  12.403
71285W        W39679  38.012  22.459   1.789
71286W        W39680  20.642  19.685   2.671
71287W        W39681   1.354  26.275   2.727
71288W        W39682  28.395  26.114  11.151
71289W        W39683  38.966  38.993  14.777
71290W        W39684  43.827  24.160  10.633
71291W        W39685   9.904   8.814   2.477
71292W        W39686  40.892  10.343   0.710
71293W        W39687  14.747   7.023  13.557
71294W        W39688  33.409   4.264  13.800
71295W        W39689  28.000  12.421   4.327
71296W        W39690  38.504  43.240   2.258
71297W        W39691  10.144   4.614   3.784
71298W        W39692  37.740   2.090  12.865
71299W        W39693   0.645  37.808  11.740
71300W        W39694  27.843  34.613  11.191
71301W        W39695  37.575  22.628   0.413
71302W        W39696  13.615  27.178   2.596
71303W        W39697  22.079  26.459   0.250
71304W        W39698  13.376   4.392  12.648
71305W        W39699  14.257  22.104  14.287
71306W        W39700   9.664  24.427   3.155
71307W        W39701   5.674  25.134   0.297
71308W        W39702  16.530  12.351  11.927
71309W        W39703  23.991   1.798  12.667
71310W        W39704   9.637   9.768  14.822
71311W        W39705  31.552  20.182   3.807
71312W        W39706   8.955  12.652  14.378
71313W        W39707   5.900  15.190   4.076
71314W        W39708  20.189  13.794   1.369
71315W        W39709  11.541  38.018   1.797
71316W        W39710   0.910  13.644   1.617
71317W        W39711  21.025  16.349   4.771
71318W        W39712  17.081  36.499  12.461
71319W        W39713  19.326  42.094   2.701
71320W        W39714  21.088   4.937  14.024
71321W        W39715   0.291  44.759  12.416
71322W        W39716  25.015  10.869  14.291
71323W        W39717   3.884  28.551   0.419
71324W        W39718  31.868  11.692   3.543
71325W        W39719   4.700  44.234   1.715
71326W        W39720   9.816  30.633  11.549
71327W        W39721  35.609  30.547  14.768
71328W        W39722  11.647  34.375  14.336
71329W        W39723  13.065  33.557   4.339
71330W        W39724   1.950  37.932  11.927
71331W        W39725  29.850  12.353  12.497
71332W        W39726  22.212  44.197  11.680
71333W        W39727  28.328  39.536  14.667
71334W        W39728  17.603  17.290   1.887
71335W        W39729  14.253  20.838   4.720
71336W        W39730   5.368  33.650   0.957
71337W        W39731  14.907  28.969   4.182
71338W        W39732   4.961  29.115   2.338
71339W        W39733  33.144  13.787  11.664
71340W        W39734  41.357  28.941  12.049
71341W        W39735  28.532  39.933  13.800
71342W        W39736   6.217   2.343   4.545
71343W        W39737  23.424  17.651  11.925
71344W        W39738  38.984   3.865  13.405
71345W        W39739  19.908   9.890  10.772
71346W        W39740  37.410   6.967   1.670
71347W        W39741   0.007  17.367   1.481
71348W        W39742   0.991  18.317   3.797
71349W        W39743   6.693  27.204  14.015
71350W        W39744   6.677   9.263  13.615
71351W        W39745   3.953  42.796  12.661
71352W        W39746  13.026  31.860   0.729
71353W        W39747   5.392   1.956  11.790
71354W        W39748  22.426  29.036   1.738
71355W        W39749  26.351   8.579  10.010
71356W        W39750  16.239  21.579  13.745
71357W        W39751  29.097  40.087  12.444
71358W        W39752  10.076  30.018   1.650
71359W        W39753   6.956   2.744   0.985
71360W        W39754  10.449  40.744   3.171
71361W        W39755  10.626   8.052   3.706
71362W        W39756  36.225  11.677   3.410
71363W        W39757  12.146  18.602   0.361
71364W        W39758  13.336  36.545   3.613
71365W        W39759  12.422  16.331   2.355
71366W        W39760   0.798   8.107   0.145
71367W        W39761  12.998  30.473  12.026
71368W        W39762  24.151  19.099   3.136
71369W        W39763   6.008  31.876   2.299
71370W        W39764   7.757  12.456  11.065
71371W        W39765  33.476  12.125  10.650
71372W        W39766  26.081  19.332  14.989
71373W        W39767   4.672  27.028   4.558
71374W        W39768  31.131  32.532  11.666
71375W        W39769  44.189  21.114  10.036
71376W        W39770  34.563   8.479  13.424
71377W        W39771  27.648  31.961  13.625
71378W        W39772  28.274  22.811   2.253
71379W        W39773   5.782  30.869  12.582
71380W        W39774  27.381  36.872   0.880
71381W        W39775  12.023   2.931   4.061
71382W        W39776  28.989   0.238   1.793
71383W        W39777  29.046  11.871  12.881
71384W        W39778  33.068  32.169  12.067
71385W        W39779  18.842  32.054   2.429
71386W        W39780  28.851  38.959  11.993
71387W        W39781  14.126  11.643   0.530
71388W        W39782  10.813   0.477  11.162
71389W        W39783  34.451  25.243  10.633
71390W        W39784  16.666  43.028   0.204
71391W        W39785  34.394  25.101  11.544
71392W        W39786   0.703  28.079   3.193
71393W        W39787  35.940   5.217   2.112
71394W        W39788   1.924   2.610  10.735
71395W        W39789  37.557  21.831   2.403
71396W        W39790   5.248  30.112  14.838
71397W        W39791  42.429  19.820   3.277
71398W        W39792  16.302   0.524   1.495
71399W        W39793  22.775  12.063  14.711
71400W        W39794  27.498  34.589  13.307
71401W        W39795  44.896  10.970   4.615
71402W        W39796  32.304  41.363  14.907
71403W        W39797   3.621   7.050  11.616
71404W        W39798  35.348  41.055  14.861
71405W        W39799   0.011   1.999  14.043
71406W        W39800  19.469  31.448  11.561
71407W        W39801  42.301  30.686   2.881
71408W        W39802  22.758  13.825  11.962
71409W        W39803  11.299   0.432   0.635
71410W        W39804   3.474  32.113  13.451
71411W        W39805   0.261  19.826  11.694
71412W        W39806   4.816  14.141   0.323
71413W        W39807   2.185   9.295   3.261
71414W        W39808  24.719  43.194   1.712
71415W        W39809  17.567  20.557  10.312
71416W        W39810  16.815  29.657   1.842
71417W        W39811  27.937  42.409  10.637
71418W        W39812  28.920   3.269  10.637
71419W        W39813  28.010  40.269  12.911
71420W        W39814  25.013  37.513  13.372
71421W        W39815  35.838  16.842  11.169
71422W        W39816  41.476  33.022   2.800
71423W        W39817  17.613  15.565  13.075
71424W        W39818  44.512  12.890   1.029
71425W        W39819   2.188  19.297  11.699
71426W        W39820   8.705  26.713  14.536
71427W        W39821  37.430  27.699  14.822
71428W        W39822  42.751  33.931  13.482
71429W        W39823  18.324   5.212  14.995
71430W        W39824  39.830  13.649   0.843
71431W        W39825   4.701  13.769   4.393
71432W        W39826  39.066  11.107  13.303
71433W        W39827  25.889  16.992   4.068
71434W        W39828  22.275  24.178   1.677
71435W        W39829   7.486  33.059   1.376
71436W        W39830  14.310  12.109   0.427
71437W        W39831   3.651  41.730  13.479
71438W        W39832   6.211  18.664  10.694
71439W        W39833  29.605  23.522   1.439
71440W        W39834  15.381  17.042   3.049
71441W        W39835  30.560  33.710   2.340
71442W        W39836  12.934   5.291   2.449
71443W        W39837  38.516  22.286   1.862
71444W        W39838  17.184  33.757   3.298
71445W        W39839  43.562  27.029   4.133
71446W        W39840  10.925  27.397  12.937
71447W        W39841  10.140   1.699  11.092
71448W        W39842  22.615  23.472   3.664
71449W        W39843  41.439  40.732   1.729
71450W        W39844  31.936   9.619  12.200
71451W        W39845  43.846  21.101   4.948
71452W        W39846  16.646  13.149  12.547
71453W        W39847   2.429  17.182  13.877
71454W        W39848  10.413  33.148   3.190
71455W        W39849  29.072   3.156  11.922
71456W        W39850  40.461  29.640  14.485
71457W        W39851  13.481  40.137   0.938
71458W        W39852  34.619  37.927   3.178
71459W        W39853  31.092  13.203  13.558
71460W        W39854  21.714  15.742  10.355
71461W        W39855  16.528  42.388   2.078
71462W        W39856  20.546  15.213  13.175
71463W        W39857  22.068   6.218  14.305
71464W        W39858  10.761  32.060   0.424
71465W        W39859  16.287  33.527   3.650
71466W        W39860  26.647  20.456  11.634
71467W        W39861  35.160  44.984  11.113
71468W        W39862  14.025  23.058   1.181
71469W        W39863  35.784  11.949   3.376
71470W        W39864  14.632  25.529   3.878
71471W        W39865  18.180  36.584   2.829
71472W        W39866  29.459   7.238   2.750
71473W        W39867  39.969  11.693   1.185
71474W        W39868  23.556  40.471   0.895
71475W        W39869  13.158   4.484  14.181
71476W        W39870  21.487  39.578   1.686
71477W        W39871  22.600   6.370   0.276
71478W        W39872   8.421  35.826  11.053
71479W        W39873   6.978  23.975  13.129
71480W        W39874  40.538  12.368  12.596
71481W        W39875  41.740   6.993  13.570
71482W        W39876  17.826   3.788  11.517
71483W        W39877  10.701  36.043   1.173
71484W        W39878   3.725   7.825  14.757
71485W        W39879  35.473  29.710  12.915
71486W        W39880  13.510  33.464   4.595
71487W        W39881  43.810  41.992   1.283
71488W        W39882  21.208  30.588  10.700
71489W        W39883  26.222   0.879   1.351
71490W        W39884  21.574  11.427  13.014
71491W        W39885  14.455  15.570   0.511
71492W        W39886   6.116  44.439  10.713
71493W        W39887  39.211   7.630  12.862
71494W        W39888   9.602  12.656  13.990
71495W        W39889  17.593  20.502   1.809
71496W        W39890  40.479  43.345   3.965
71497W        W39891  43.133   4.866  10.000
71498W        W39892  30.749  24.897   1.182
71499W        W39893  40.793  37.157   0.949
71500W        W39894   8.790  36.427  13.536
71501W        W39895   0.675   1.531   1.645
71502W        W39896  23.549  32.603   2.209
71503W        W39897  14.082  17.835  14.403
71504W        W39898  33.106  18.165   0.913
71505W        W39899   4.990  30.215   1.354
71506W        W39900  10.400  19.031  12.516
71507W        W39901  26.501  41.502  10.281
71508W        W39902   1.936  24.983  11.613
71509W        W39903  20.321  26.054  11.125
71510W        W39904  44.671  30.941   0.166
71511W        W39905  19.312  12.105   4.039
71512W        W39906   0.609  44.484   3.168
71513W        W39907  22.204  13.232   2.342
71514W        W39908   4.961  29.410   2.773
71515W        W39909  30.578  32.583   0.732
71516W        W39910  26.594  11.663  10.670
71517W        W39911  44.498  13.389   1.831
71518W        W39912   8.628  13.829   4.197
71519W        W39913  10.262  25.003  11.162
71520W        W39914  21.000  21.648  12.989
71521W        W39915  11.164   0.412   2.716
71522W        W39916  40.537  28.416   3.518
71523W        W39917  19.064  29.456  10.999
71524W        W39918  28.669  36.881  11.696
71525W        W39919  37.844  33.717  13.588
71526W        W39920  36.507  14.666  12.252
71527W        W39921  13.258  21.738   2.277
71528W        W39922  19.240  33.130   4.149
71529W        W39923  17.273  18.945   1.274
71530W        W39924  36.170  26.022   3.490
71531W        W39925  26.666  22.966   1.542
71532W        W39926   8.256  32.326  10.559
71533W        W39927  41.038  17.080  13.487
71534W        W39928   8.139   9.514  11.426
71535W        W39929  19.610  27.126   4.026
71536W        W39930  26.053  26.193  13.914
71537W        W39931  19.728  31.196  11.138
71538W        W39932   6.198   9.586   1.856
71539W        W39933  30.937   9.254  10.764
71540W        W39934  20.647  43.069  11.593
71541W        W39935  18.616  29.898  11.614
71542W        W39936  31.995  36.870   4.581
71543W        W39937  29.753  13.778   2.706
71544W        W39938  20.536   8.915  10.671
71545W        W39939  25.857  24.637  14.820
71546W        W39940  11.730  10.180  10.805
71547W        W39941  10.270  23.815  11.564
71548W        W39942   6.426   7.893  12.037
71549W        W39943  29.101   2.282  11.939
71550W        W39944  15.097  15.898   3.584
71551W        W39945  10.014  36.511   1.213
71552W        W39946  22.861  40.883  14.910
71553W        W39947  20.000  27.319   2.646
71554W        W39948  29.914  19.867   0.711
71555W        W39949  35.765  23.484   1.759
71556W        W39950  44.357  10.221   4.614
71557W        W39951  27.649  41.031  10.569
71558W        W39952  41.848  30.403  10.865
71559W        W39953  23.783  31.647  13.108
71560W        W39954  23.958  44.298  11.953
71561W        W39955  44.221   5.150  10.665
71562W        W39956  41.328   5.339  10.600
71563W        W39957  35.188  12.893  12.045
71564W        W39958  33.906  34.830   0.031
71565W        W39959  14.110  39.900   2.073
71566W        W39960  26.232  24.323   1.363
71567W        W39961  33.132  40.556  13.836
71568W        W39962  11.420  31.053  11.249
71569W        W39963  29.956   6.116  11.861
71570W        W39964   2.988  16.201  11.999
71571W        W39965  17.560  31.046  14.529
71572W        W39966   5.896  18.148   0.943
71573W        W39967  15.464   4.899  11.612
71574W        W39968  37.837   2.678  11.468
71575W        W39969  38.598  35.087   0.228
71576W        W39970  32.666  10.415  11.514
71577W        W39971  42.357  43.330  14.090
71578W        W39972   1.319  14.655  14.853
71579W        W39973   3.358  24.434  12.939
71580W        W39974  23.972  12.821   0.867
71581W        W39975  14.670  35.717  12.923
71582W        W39976  27.219  11.246   0.340
71583W        W39977   9.399  24.876   1.429
71584W        W39978  12.167  32.922  13.976
71585W        W39979  13.121  18.796   0.332
71586W        W39980   4.836  43.760  11.652
71587W        W39981  40.925  35.684   1.225
71588W        W39982   6.957   6.422   3.583
71589W        W39983  36.932  18.027  11.029
71590W        W39984  20.187  41.058   0.273
71591W        W39985  44.592  12.300  11.005
71592W        W39986  40.429  36.980  10.679
71593W        W39987   0.459  41.019   2.246
71594W        W39988  15.441  16.575   4.223
71595W        W39989  41.461  16.705  14.734
71596W        W39990   5.705   1.132   3.640
71597W        W39991  23.914  39.392   4.172
71598W        W39992  38.418  11.527  14.430
71599W        W39993  10.365  23.120   3.779
71600W        W39994  17.981  32.598  11.846
71601W        W39995  37.968   1.272   1.830
71602W        W39996   3.450  16.756   0.971
71603W        W39997  34.558  16.099   0.909
71604W        W39998  42.872  40.299  13.846
71605W        W39999  20.923   1.929  12.521
71606W        W40000   9.702  40.019  10.705
71607W        W40001  30.380  11.830  14.174
71608W        W40002  11.773  42.903  11.276
71609W        W40003  28.186  27.117   4.040
71610W        W40004  14.600  35.520   1.284
71611W        W40005   1.698  21.167  12.553
71612W        W40006  10.911  43.568   4.142
71613W        W40007  19.130  31.479  12.045
71614W        W40008  31.061  27.355   2.736
71615W        W40009  11.630  39.070   4.093
71616W        W40010  30.182   1.033   1.183
71617W        W40011  36.048  35.365   5.021
71618W        W40012   8.886  42.703  12.581
71619W        W40013   6.705  36.209  13.008
71620W        W40014  17.319  28.915   3.348
71621W        W40015  33.450  17.592  12.710
71622W        W40016  24.973  16.313  14.264
71623W        W40017   4.772  16.761  14.903
71624W        W40018  39.279  28.129  14.340
71625W        W40019  28.369  10.893  12.161
71626W        W40020  18.196  20.572  14.441
71627W        W40021  34.664  11.296   4.818
71628W        W40022   9.395  13.483   0.231
71629W        W40023  20.048  29.536  12.805
71630W        W40024  21.440  29.044   3.215
71631W        W40025  40.812  31.011   0.231
71632W        W40026   8.746   4.304   0.256
71633W        W40027  33.030  22.738   4.443
71634W        W40028  35.347  17.766  12.892
71635W        W40029   1.201  29.482  12.120
71636W        W40030  37.105   6.748  14.777
71637W        W40031  25.673  30.482   0.815
71638W        W40032  44.828  21.203   3.720
71639W        W40033  38.161  41.802   1.706
71640W        W40034  40.820   8.218  14.630
71641W        W40035  28.133  23.601  10.240
71642W        W40036  24.312  41.379   3.335
71643W        W40037   1.295  16.100   0.367
71644W        W40038  30.540  22.261  10.795
71645W        W40039   4.801  14.147  12.973
71646W        W40040  11.082  23.699   4.511
71647W        W40041   7.565  20.558  11.729
71648W        W40042  38.868  31.764   2.182
71649W        W40043   0.492   4.059   3.819
71650W        W40044  23.297   6.666  12.582
71651W        W40045  31.901  32.147  10.860
71652W        W40046  28.709  14.326  12.994
71653W        W40047   5.767   3.042  13.383
71654W        W40048  20.803  18.149   2.303
71655W        W40049  39.502  15.104   4.801
71656W        W40050  35.484  38.906   4.471
71657W        W40051  40.393  26.693  12.862
71658W        W40052  38.602  33.083   3.961
71659W        W40053  14.666  19.569  11.088
71660W        W40054  26.525   8.701  12.885
71661W        W40055  17.129  39.153  10.690
71662W        W40056   1.788   4.275  12.873
71663W        W40057  27.916   5.670  14.347
71664W        W40058  26.631  19.789  12.910
71665W        W40059   9.571  30.378  14.417
71666W        W40060  37.343  11.650  12.955
71667W        W40061   9.768  31.302  12.265
71668W        W40062   5.226  42.369   2.452
71669W        W40063  39.085   6.340  13.173
71670W        W40064  23.043  14.029   1.023
71671W        W40065  27.330  32.988  10.733
71672W        W40066   7.254  41.920   2.177
71673W        W40067  12.185  32.993  12.963
71674W        W40068  31.697  37.799  13.585
71675W        W40069  33.648  34.110   4.183
71676W        W40070  44.525   5.119  14.125
71677W        W40071  19.870   4.425  13.028
71678W        W40072  29.276  19.605  14.601
71679W        W40073  11.984  35.494   4.868
71680W        W40074   0.916   9.702  14.026
71681W        W40075  34.041   2.292   2.504
71682W        W40076   0.243   8.668  11.175
71683W        W40077  43.257  24.530  11.271
71684W        W40078  42.997  34.975  11.929
71685W        W40079  15.135  17.708   5.414
71686W        W40080  31.496  39.991   3.218
71687W        W40081  18.293   6.678   2.687
71688W        W40082  39.060   5.230  14.881
71689W        W40083  24.907  31.921  10.743
71690W        W40084  34.416  44.436  13.371
71691W        W40085   1.803  12.341   5.057
71692W        W40086  14.615  28.433  12.968
71693W        W40087   6.688  37.644   0.285
71694W        W40088   8.694   7.299   0.753
71695W        W40089  41.452  37.038   3.219
71696W        W40090  31.411  32.397   0.038
71697W        W40091  38.853  26.394   5.248
71698W        W40092  25.577   9.400   1.605
71699W        W40093  36.783  19.202   1.154
71700W        W40094   7.883  38.178  14.032
71701W        W40095   1.532  31.736  13.866
71702W        W40096  22.164  41.949  11.854
71703W        W40097  27.438  34.777  12.472
71704W        W40098  16.646  13.290   2.828
71705W        W40099   0.213  38.626  11.989
71706W        W40100  20.567  16.244  14.107
71707W        W40101  21.977  16.771   2.904
71708W        W40102  16.077  15.683   2.861
71709W        W40103  15.251  21.995  13.896
71710W        W40104   3.426  21.756  12.986
71711W        W40105  30.018  18.967   0.264
71712W        W40106  41.879  39.208   4.737
71713W        W40107  33.094   1.820   4.449
71714W        W40108  23.150  42.109   0.699
71715W        W40109  13.278  25.933  10.763
71716W        W40110   0.636   1.992   4.959
71717W        W40111  15.294  39.929  11.671
71718W        W40112  21.675   1.369   4.563
71719W        W40113   1.866  33.849  14.348
71720W        W40114  17.818  16.597  11.879
71721W        W40115  14.932  20.026  14.797
71722W        W40116  33.755  17.217   0.914
71723W        W40117  21.127  38.297  14.049
71724W        W40118   2.531  29.795  12.928
71725W        W40119  22.322  19.125   3.406
71726W        W40120  27.401  10.354  11.433
71727W        W40121  31.127  42.387   2.744
71728W        W40122   6.127  22.210  11.599
71729W        W40123  31.667  30.095  11.860
71730W        W40124   4.213   9.503  10.716
71731W        W40125  20.456  35.180  12.869
71732W        W40126  15.308  45.000   1.314
71733W        W40127  11.145  14.276   2.794
71734W        W40128  29.818  37.078   2.367
71735W        W40129   5.690  33.723   3.709
71736W        W40130  27.936  40.357   2.218
71737W        W40131  41.810  26.406   3.240
71738W        W40132  37.346  10.144   0.797
71739W        W40133  33.600  12.349  13.074
71740W        W40134  37.468  31.382   2.420
71741W        W40135   2.116   1.907  14.997
71742W        W40136  22.615   7.394  12.360
71743W        W40137  37.040   8.986  12.523
71744W        W40138  20.673  20.743   0.296
71745W        W40139  16.668   0.323  13.842
71746W        W40140   8.388   6.207  14.443
71747W        W40141   9.005   0.985  13.772
71748W        W40142   5.498  18.972   2.255
71749W        W40143   2.964  17.594  14.899
71750W        W40144  15.134  28.039   0.797
71751W        W40145  27.984  17.229   4.564
71752W        W40146   1.389   3.583  11.898
71753W        W40147  31.562  11.817   2.619
71754W        W40148  22.296   9.714  10.226
71755W        W40149  17.975   3.058  11.499
71756W        W40150  19.172  41.953  14.461
71757W        W40151   6.969  42.673   3.108
71758W        W40152  43.880  30.039  14.630
71759W        W40153  42.185   1.272  10.435
71760W        W40154  37.359  29.626   1.725
71761W        W40155  31.991  34.526   0.290
71762W        W40156  16.674  30.477  14.209
71763W        W40157  36.355  20.677   4.523
71764W        W40158  39.856  44.919  13.982
71765W        W40159  32.668  14.682  11.399
71766W        W40160   1.394  15.187   1.750
71767W        W40161  15.103  23.262  11.553
71768W        W40162  30.551  12.859  14.009
71769W        W40163   9.789  22.302   3.171
71770W        W40164  40.779  32.092  13.905
71771W        W40165   3.779   2.066   2.235
71772W        W40166  25.469  38.967   0.806
71773W        W40167  37.144  42.091  14.378
71774W        W40168  42.315  24.536   2.185
71775W        W40169  30.216  44.789   0.468
71776W        W40170  31.435  22.247   0.400
71777W        W40171  33.536  16.738   0.889
71778W        W40172  34.041  33.539  12.047
71779W        W40173  21.448  44.915  14.107
71780W        W40174  14.127   2.149   4.212
71781W        W40175  26.476   4.213  10.750
71782W        W40176  42.542  42.031   4.308
71783W        W40177  35.059  15.831   4.051
71784W        W40178  13.657  43.476   0.476
71785W        W40179  43.329  15.786   0.344
71786W        W40180  11.825  18.625  13.500
71787W        W40181  10.099  22.348  14.933
71788W        W40182   8.282   0.919   4.065
71789W        W40183  42.789  22.479   0.939
71790W        W40184   2.189  22.972  12.043
71791W        W40185  11.611  16.120   2.666
71792W        W40186   9.256  18.430   9.801
71793W        W40187   7.683  17.063  14.451
71794W        W40188   6.440  42.779  13.457
71795W        W40189  12.748  27.508   4.674
71796W        W40190  19.446  19.702   0.413
71797W        W40191  28.699  41.653  13.833
71798W        W40192  38.961  40.830  12.514
71799W        W40193  19.343  11.338   0.825
71800W        W40194  10.670   2.846  10.721
71801W        W40195  15.102   9.872   3.570
71802W        W40196  20.607  16.355  13.596
71803W        W40197   8.510  19.237   4.135
71804W        W40198   0.349  14.736   0.979
71805W        W40199  28.773  37.841  10.843
71806W        W40200  28.444  43.094  11.960
71807W        W40201  34.905  42.953   2.680
71808W        W40202  39.072  12.857  10.722
71809W        W40203  31.151  42.271   1.436
71810W        W40204   5.844   3.230  12.896
71811W        W40205  41.169  17.263  12.066
71812W        W40206  36.841  37.543  10.680
71813W        W40207  20.735  13.981   1.378
71814W        W40208  14.473   0.175  11.506
71815W        W40209  37.815  16.603  13.732
71816W        W40210   2.398  12.675   3.210
71817W        W40211  31.433  40.794  12.658
71818W        W40212   4.636  25.817  11.515
71819W        W40213   5.085  18.595  11.429
71820W        W40214   5.218  40.536  11.435
71821W        W40215  24.856   0.433   2.278
71822W        W40216   1.275  21.084   3.857
71823W        W40217   2.239  39.576   0.896
71824W        W40218  13.362   7.774  14.496
71825W        W40219  40.937  34.166  13.454
71826W        W40220  10.875  27.770   4.082
71827W        W40221  18.702  28.903   3.946
71828W        W40222  10.593   5.671  10.783
71829W        W40223  15.909  35.452  11.385
71830W        W40224  19.396  27.531   2.975
71831W        W40225  44.824  39.856  11.164
71832W        W40226  31.053  37.566   0.824
71833W        W40227  32.652  11.385  11.625
71834W        W40228   8.067   6.000   0.881
71835W        W40229  19.812   0.308   1.670
71836W        W40230  32.055  36.374  11.248
71837W        W40231  15.211  41.388  12.759
71838W        W40232  33.056  31.981  10.560
71839W        W40233  24.288  37.998  13.346
71840W        W40234  32.371  11.688   1.160
71841W        W40235  19.943  11.539   3.281
71842W        W40236  14.119   6.062   0.020
71843W        W40237  13.130  30.849  10.427
71844W        W40238  43.999   2.205   0.841
71845W        W40239   4.424  40.376  13.407
71846W        W40240   1.413  30.372   2.063
71847W        W40241   3.620  26.465   4.974
71848W        W40242  29.920  15.153   2.671
71849W        W40243  40.020   3.225   0.924
71850W        W40244  43.350  33.886  13.438
71851W        W40245  41.856  41.505   2.727
71852W        W40246  20.283  39.920  12.038
71853W        W40247  24.161  18.730   2.746
71854W        W40248   1.000  24.885  13.085
71855W        W40249   2.038  30.982   0.783
71856W        W40250  39.476  22.187  12.042
71857W        W40251  34.656  21.094   0.907
71858W        W40252  33.926  43.500   0.403
71859W        W40253  27.154  33.853   3.643
71860W        W40254  39.352   7.706   3.071
71861W        W40255  35.302  26.183  13.414
71862W        W40256   2.320   7.605   4.355
71863W        W40257  27.724  17.260  12.130
71864W        W40258   8.470  26.041   4.645
71865W        W40259   1.103  41.420   1.947
71866W        W40260  28.052  29.393   3.130
71867W        W40261  12.523  38.744  12.453
71868W        W40262  42.774   7.487  14.731
71869W        W40263  30.668  33.799   4.144
71870W        W40264  37.861  31.442   1.019
71871W        W40265  33.410  26.042   4.516
71872W        W40266   0.417   5.124   4.116
71873W        W40267  32.434   1.132   2.338
71874W        W40268   3.909  13.032  11.040
71875W        W40269  25.945  42.799  11.939
71876W        W40270  25.640   4.676  11.533
71877W        W40271  44.520  41.480   4.821
71878W        W40272   0.045  43.518   3.447
71879W        W40273  37.647  21.018   3.396
71880W        W40274  14.955  26.420   3.671
71881W        W40275   2.271  22.053  13.523
71882W        W40276  13.467  42.398   2.114
71883W        W40277  10.238   3.042  14.280
71884W        W40278   9.615  42.317  13.845
71885W        W40279  26.604  14.180  14.813
71886W        W40280  20.551   5.654  12.960
71887W        W40281  25.601  34.241  12.495
71888W        W40282  36.040  24.299   2.851
71889W        W40283  40.273   8.730  11.596
71890W        W40284  33.180  12.729  10.195
71891W        W40285  15.794  20.559  14.381
71892W        W40286  42.449  22.565  12.564
71893W        W40287  15.546  19.079   2.174
71894W        W40288  29.677  38.643   0.173
71895W        W40289  10.780  26.622  13.785
71896W        W40290  39.797  37.505   5.098
71897W        W40291  26.079  25.301   2.686
71898W        W40292  12.674  18.759   0.067
71899W        W40293  40.120  21.094   4.311
71900W        W40294  14.886  29.044   0.785
71901W        W40295  34.389  27.693   3.694
71902W        W40296  44.168  20.180   3.196
71903W        W40297   3.284  12.446  14.913
71904W        W40298  28.778  24.104  13.816
71905W        W40299   6.962  13.550   2.358
71906W        W40300  10.611   5.370  13.947
71907W        W40301  32.971  37.628  13.762
71908ION    NA+40302  44.539  36.747   2.922
71909ION    NA+40303  43.252  42.311  13.590
71910ION    NA+40304  31.101  16.524   4.471
71911ION    NA+40305   6.594  29.237  12.882
71912ION    NA+40306  19.102  13.298   3.838
71913ION    NA+40307  30.736  20.629   3.789
71914ION    NA+40308  40.748  28.169   1.514
71915ION    NA+40309  14.160  29.118   1.279
71916ION    NA+40310  12.299  36.637   4.366
71917ION    NA+40311  38.752  25.256  12.090
71918ION    NA+40312  35.694  29.429   4.350
71919ION    NA+40313   7.035   4.458   3.236
71920ION    NA+40314  42.491  25.990   1.273
71921ION    NA+40315  11.703  21.779   1.555
71922ION    NA+40316  32.622  17.577  13.965
71923ION    NA+40317  12.871  33.141   2.456
71924ION    NA+40318  18.221  33.171  13.507
71925ION    NA+40319  32.494   0.806  12.085
71926ION    NA+40320   4.391  24.531   3.851
71927ION    NA+40321  37.474  43.588  13.317
71928ION    NA+40322  23.476  22.808  14.741
71929ION    NA+40323  16.328   9.018  12.861
71930ION    NA+40324  17.146   0.445   2.327
71931ION    NA+40325   7.808   5.318  13.765
71932ION    NA+40326   1.994   6.203  12.063
71933ION    NA+40327  24.778  25.103  14.250
71934ION    NA+40328  20.755   4.701  12.709
71935ION    NA+40329  37.685   9.251   2.021
71936ION    NA+40330  23.524  24.146   4.760
71937ION    NA+40331  12.029   1.605  12.495
71938ION    NA+40332  27.128  27.829   2.338
71939ION    NA+40333  13.108   5.264  13.627
71940ION    NA+40334  26.232  42.037   2.322
71941ION    NA+40335  17.206  44.403   5.116
71942ION    NA+40336  41.111   8.135  11.646
71943ION    NA+40337  41.733  34.100   1.496
71944ION    NA+40338  27.222  23.511  14.302
71945ION    NA+40339  38.518  37.941  14.693
71946ION    NA+40340  18.105  34.280   4.155
71947ION    NA+40341  43.082  40.533   4.730
71948ION    NA+40342  24.121  12.217  10.848
71949ION    NA+40343  27.041  14.601  14.348
71950ION    NA+40344  30.575  35.267  14.785
71951ION    NA+40345  31.521  40.101   0.764
71952ION    NA+40346  27.136  25.626   0.880
71953ION    NA+40347  27.780   9.939   3.810
71954ION    NA+40348  38.050  12.531   1.941
71955ION    NA+40349  28.735  11.744   1.221
71956ION    NA+40350  33.747  35.219   2.795
71957ION    NA+40351  40.388   8.893   4.243
71958ION    NA+40352  30.606  37.585  12.174
71959ION    NA+40353  11.901  12.905   0.966
71960ION    NA+40354  15.211  30.370   0.985
71961ION    NA+40355   1.134  44.280   3.042
71962ION    NA+40356  17.860  26.073  13.056
71963ION    NA+40357  29.124  19.607   4.447
71964ION    NA+40358  37.346  41.045   0.555
71965ION    NA+40359   3.686  14.756   3.311
71966ION    NA+40360   6.148  16.901  12.950
71967ION    NA+40361  13.312  22.297   3.216
71968ION    NA+40362  16.797   1.517  14.310
71969ION    NA+40363  11.851  25.367   2.343
71970ION    NA+40364   8.957  37.308  11.793
71971ION    NA+40365  24.469   1.017  12.605
71972ION    NA+40366  13.129  36.986  11.956
71973ION    NA+40367  16.069  23.136  11.913
71974ION    NA+40368  44.188  40.903   3.262
71975ION    NA+40369  20.702  35.879  14.610
71976ION    NA+40370  15.071  36.109   0.504
71977ION    NA+40371  12.327  29.286   2.376
71978ION    NA+40372  37.426   3.197  11.133
71979ION    NA+40373   4.793  26.928   3.213
71980ION    NA+40374  18.739  29.090  13.813
71981ION    NA+40375  41.040  17.685   0.308
71982ION    NA+40376  43.295  36.855  12.324
71983ION    NA+40377  18.504  15.371  11.757
71984ION    NA+40378  13.634  44.925  13.651
71985ION    NA+40379  44.678  12.861   2.639
71986ION    NA+40380  27.700   5.451  13.880
71987ION    NA+40381   3.541  40.895  14.058
71988ION    NA+40382   7.327  29.050  13.637
71989ION    NA+40383  43.046  43.623  10.096
71990ION    NA+40384  12.698  17.471   3.755
71991ION    NA+40385  43.993  39.068   3.869
71992ION    NA+40386   7.353  37.932   2.000
71993ION    NA+40387  16.387  41.669   4.514
71994ION    NA+40388  32.694  43.661  12.928
71995ION    NA+40389  15.815  34.905  10.513
71996ION    NA+40390  28.000  27.243  12.440
71997ION    NA+40391   4.018  19.331   5.066
71998ION    NA+40392  38.083  31.934  10.612
71999ION    NA+40393  23.178  31.043   9.916
72000ION    NA+40394  41.359   0.122   2.251
72001ION    NA+40395  37.427   7.918  10.318
72002ION    NA+40396  39.717  37.493   2.734
72003ION    NA+40397  27.499   5.563   5.005
72004ION    NA+40398   6.822   3.083  12.102
72005ION    NA+40399  11.327  11.438   3.483
72006ION    NA+40400  19.131  22.223  11.216
72007ION    NA+40401  32.361  32.157  11.095
72008ION    NA+40402   0.821   5.478  14.146
72009ION    NA+40403  42.248  32.840  11.932
72010ION    NA+40404  13.507   2.653  12.567
72011ION    NA+40405  31.690  19.723  11.792
72012ION    NA+40406  25.171  33.618  10.305
72013ION    NA+40407  11.582  19.763   0.687
72014ION    NA+40408  42.566  29.878  13.423
72015ION    NA+40409  41.675  20.004  13.030
72016ION    NA+40410  19.746   0.081  13.566
72017ION    NA+40411  43.866  11.761   3.334
72018ION    NA+40412  21.735   3.821   0.794
72019ION    NA+40413  18.387   3.189  11.944
72020ION    NA+40414  33.147   6.583   0.836
72021ION    NA+40415  40.941   5.770  12.124
72022ION    NA+40416  21.453  21.004   2.347
72023ION    NA+40417  23.167  18.826   3.385
72024ION    NA+40418  23.437  20.726  14.661
72025ION    NA+40419  24.504  31.481   0.920
72026ION    NA+40420  27.101  29.324  11.377
72027ION    NA+40421  22.336  21.826  11.941
72028ION    NA+40422  35.633  18.015  10.970
72029ION    NA+40423   1.952  16.171   1.981
72030ION    NA+40424  13.389  37.633  14.800
72031ION    NA+40425   7.427  35.299  12.132
72032ION    NA+40426  31.608   3.995  12.409
72033ION    NA+40427  33.221  36.018  10.749
72034ION    NA+40428  42.486   7.178  12.046
72035ION    NA+40429   1.999   1.780  13.124
72036ION    NA+40430  44.096  25.841  11.142
72037ION    NA+40431  10.498  31.553  11.335
72038ION    NA+40432   6.277  32.440   2.809
72039ION    NA+40433   7.789  24.227  13.482
72040ION    NA+40434  29.794   4.468   4.716
72041ION    NA+40435   9.263  20.672   2.760
72042ION    NA+40436  43.756  20.720  13.342
72043ION    NA+40437   3.782  23.880   4.012
72044ION    NA+40438  17.532  14.137  13.045
72045ION    NA+40439   8.924  19.251  11.517
72046ION    NA+40440  43.572  25.980  12.487
72047ION    NA+40441  26.649   4.699  10.754
72048ION    NA+40442  20.054  22.920   4.162
72049ION    NA+40443  34.693   5.180  13.839
72050ION    NA+40444  43.663  22.454   1.573
72051ION    NA+40445  26.259  35.908   2.614
72052ION    NA+40446  12.332  17.510  13.253
72053ION    NA+40447  10.688  34.051   2.043
72054ION    NA+40448  17.782  29.014  11.026
72055ION    NA+40449  39.395  44.653   1.942
72056ION    NA+40450  22.019  35.433  12.962
72057ION    NA+40451  16.612  10.955  13.863
72058ION    NA+40452  26.343  33.338  14.567
72059ION    NA+40453  23.467  30.105  10.682
72060ION    NA+40454   5.680  32.287  11.869
72061ION    NA+40455  36.729  36.737  12.226
72062ION    NA+40456  13.431  23.918   2.750
72063ION    NA+40457   9.759  31.161  12.780
72064ION    NA+40458  19.067   3.982  13.090
72065ION    NA+40459  26.935  11.756  13.199
72066ION    NA+40460   9.372  11.790   0.339
72067ION    NA+40461  12.125  13.649  12.604
72068ION    NA+40462  38.839  22.855  14.750
72069ION    NA+40463  20.121   4.126  14.941
72070ION    NA+40464  31.299  33.415  13.808
72071ION    NA+40465  20.632  19.282   1.224
72072ION    NA+40466  36.973  35.244  13.796
72073ION    NA+40467  21.819  37.663   2.902
72074ION    NA+40468  44.913  30.621  12.963
72075ION    NA+40469   4.554  11.433   3.990
72076ION    NA+40470   9.190  32.408   0.841
72077ION    NA+40471   3.005  34.150   1.683
72078ION    NA+40472  15.978   9.667   9.660
72079ION    NA+40473  35.947  31.383   1.437
72080ION    NA+40474  42.977   3.062   4.672
72081ION    NA+40475  36.590  29.256   1.240
72082ION    NA+40476  26.701   9.297   0.235
72083ION    NA+40477  32.649  23.036  12.832
72084ION    NA+40478  19.383   9.943  10.807
72085ION    NA+40479  31.288  35.428  11.204
72086ION    NA+40480  20.508  11.705  14.919
72087ION    NA+40481   2.689  24.459   0.405
72088ION    NA+40482  18.949   8.318   4.313
72089ION    NA+40483  17.832   9.338  14.837
72090ION    NA+40484  41.935  29.658  11.668
72091ION    NA+40485  37.540  12.290  11.274
72092ION    NA+40486  37.586  12.721  12.501
72093ION    NA+40487  39.046  40.220   0.286
72094ION    NA+40488  17.743   5.670  10.539
72095ION    NA+40489   9.712  25.751  13.896
72096ION    NA+40490  32.326   1.357   1.408
72097ION    NA+40491  23.483  22.523  12.455
72098ION    NA+40492  16.650  44.543   2.150
72099ION    NA+40493  42.310  16.712  12.684
72100ION    NA+40494  33.779  21.794   4.161
72101ION    NA+40495  20.653  24.550   0.227
72102ION    NA+40496  23.909  43.290   4.216
72103ION    NA+40497  37.493  25.614  14.584
72104ION    NA+40498  20.335  28.558   1.949
72105ION    NA+40499  21.587   6.019   2.303
72106ION    NA+40500  42.888  28.632   0.653
72107ION    NA+40501  17.994   3.880  13.682
72108ION    NA+40502  15.580  29.347  13.793
72109ION    NA+40503  19.353  28.241  11.740
72110ION    NA+40504   3.437   5.308   0.847
72111ION    NA+40505  27.184  12.391   3.337
72112ION    NA+40506  28.729   8.756   3.970
72113ION    NA+40507   4.294  17.325  14.368
72114ION    NA+40508  30.766  41.514   3.054
72115ION    NA+40509   1.998  41.479  14.372
72116ION    NA+40510  39.004  18.619   3.740
72117ION    NA+40511  27.261   5.411   3.314
72118ION    NA+40512   2.976  30.880   4.787
72119ION    NA+40513  22.254   4.664  14.437
72120ION    NA+40514   7.363  12.973   0.320
72121ION    NA+40515  23.726  31.401  13.555
72122ION    NA+40516  43.016   5.114   1.875
72123ION    NA+40517   7.809   3.777   1.518
72124ION    NA+40518  24.092  38.864  12.372
72125ION    NA+40519  37.673  36.875   2.215
72126ION    NA+40520  24.282   6.223  12.759
72127ION    NA+40521  43.878  44.055  14.769
72128ION    NA+40522  43.410  42.493   0.165
72129ION    NA+40523  21.558  43.001   0.898
72130ION    NA+40524  37.844  29.601   3.103
72131ION    NA+40525  29.068  12.251  13.945
72132ION    NA+40526   1.443  34.616  13.510
72133ION    NA+40527  13.246  22.226   2.118
72134ION    NA+40528  12.347  21.558  11.201
72135ION    NA+40529  42.911   0.637   1.874
72136ION    NA+40530  40.263  16.471  11.887
72137ION    NA+40531   0.732  35.750   3.188
72138ION    NA+40532  28.231  11.317   0.187
72139ION    NA+40533  41.191  11.099   1.751
72140ION    NA+40534  23.587   1.765   4.584
72141ION    NA+40535   2.177  26.803   2.737
72142ION    NA+40536  43.454  30.194   1.807
72143ION    NA+40537   6.188  28.984  13.760
72144ION    NA+40538  31.084  19.275  13.985
72145ION    NA+40539  35.502  38.306  14.809
72146ION    NA+40540  30.945  39.241  12.395
72147ION    NA+40541  29.412  39.043   3.315
72148ION    NA+40542  20.523  42.794   4.427
72149ION    NA+40543  37.858  38.331   2.110
72150ION    NA+40544   7.863  18.229  12.355
72151ION    NA+40545  34.877  44.141  13.454
72152ION    NA+40546  32.296  11.606   3.241
72153ION    NA+40547  40.505   3.317   4.760
72154ION    NA+40548  39.047  24.757   4.129
72155ION    NA+40549  12.755  30.671  13.488
72156ION    NA+40550  18.152   4.075   4.366
72157ION    NA+40551  35.641  42.467   4.253
72158ION    NA+40552  38.500  35.222  11.593
72159ION    NA+40553  22.956  36.423  13.636
72160ION    NA+40554   8.969  21.369   3.912
72161ION    NA+40555  33.989  22.215   2.483
72162ION    NA+40556  39.375  31.906   1.434
72163ION    NA+40557  18.923  31.794   4.682
72164ION    NA+40558  15.513   4.184   2.088
72165ION    NA+40559  35.351  19.710  12.679
72166ION    NA+40560   2.888  33.340   1.983
72167ION    NA+40561  23.733  29.697  11.565
72168ION    NA+40562  13.880   4.140   4.264
72169ION    NA+40563  44.791  19.438   4.168
72170ION    NA+40564  39.251  32.894  12.152
72171ION    NA+40565  36.838  42.139   2.534
72172ION    NA+40566  10.354   4.329   4.146
72173ION    NA+40567   9.449  15.504   4.221
72174ION    NA+40568   0.698  17.980   3.425
72175ION    NA+40569  31.416   4.782   4.258
72176ION    NA+40570  36.294  30.496   0.723
72177ION    NA+40571  25.169  30.487  12.445
72178ION    NA+40572  24.558  24.697   0.651
72179ION    NA+40573  33.268  10.371  14.028
72180ION    NA+40574  18.678  10.048   4.484
72181ION    NA+40575  42.374  29.390   1.055
72182ION    NA+40576   4.653   3.776  13.426
72183ION    NA+40577   7.280  13.886   2.592
72184ION    NA+40578   1.541  44.277  11.645
72185ION    NA+40579  11.330  44.594  13.570
72186ION    NA+40580  23.618   8.875  13.765
72187ION    NA+40581  32.306  19.508   1.484
72188ION    NA+40582  25.094  14.125   1.986
72189ION    NA+40583  30.851  18.991   4.269
72190ION    NA+40584  29.453   9.362  13.296
72191ION    NA+40585  25.537  23.734   3.700
72192ION    NA+40586  34.214  23.075   1.829
72193ION    NA+40587  19.608  30.076   4.142
72194ION    NA+40588  14.335  22.600   3.369
72195ION    NA+40589   3.517   9.455   1.534
72196ION    NA+40590  36.683  13.916  11.057
72197ION    NA+40591  29.407  43.355  14.996
72198ION    NA+40592  38.015   1.717  13.453
72199ION    NA+40593  17.632  13.137  13.319
72200ION    NA+40594   6.414  15.265  10.732
72201ION    NA+40595  26.503  17.723  13.179
72202ION    NA+40596   6.397  20.248  14.492
72203ION    NA+40597  22.933  43.466   3.062
72204ION    NA+40598   1.790  22.343   0.540
72205ION    NA+40599   4.520   8.794  11.935
72206ION    NA+40600  11.393  25.057   0.907
72207ION    NA+40601   4.763  27.984  11.700
72208ION    NA+40602   5.566   1.510   5.177
72209ION    NA+40603  16.430  20.176  12.985
72210ION    NA+40604  41.130   8.315  10.663
72211ION    NA+40605  33.992  35.204   1.938
72212ION    NA+40606   8.930  40.128   3.391
72213ION    NA+40607  25.183   8.856  11.087
72214ION    NA+40608  10.175   4.501  10.780
72215ION    NA+40609  30.166   6.539   2.504
72216ION    NA+40610  37.494  43.277  12.356
72217ION    NA+40611  40.240  36.868  11.682
72218ION    NA+40612  32.060  14.131  11.985
72219ION    NA+40613   4.805  44.884   0.205
72220ION    NA+40614  13.293   9.237   2.259
72221ION    NA+40615  37.796  18.795   1.094
72222ION    NA+40616   0.208  11.233  11.538
72223ION    NA+40617  42.488  32.450  14.018
72224ION    NA+40618  27.261  37.018   2.139
72225ION    NA+40619  43.788  40.165   2.930
72226ION    NA+40620  17.703  29.571   2.630
72227ION    NA+40621  35.349  27.040   0.840
72228ION    NA+40622  15.687   2.764   3.738
72229ION    NA+40623  27.454  28.220  11.563
72230ION    NA+40624  26.211  41.611  11.510
72231ION    NA+40625  21.782  10.920  11.818
72232ION    NA+40626   3.405  21.060   3.186
72233ION    NA+40627  30.058  44.040   2.088
72234ION    NA+40628  24.032  32.240   1.763
72235ION    NA+40629  26.644  26.080  13.076
72236ION    NA+40630  22.556   8.886   2.882
72237ION    NA+40631  31.367  39.101   4.148
72238ION    NA+40632  13.487   9.245  12.633
72239ION    NA+40633   8.869  18.518   1.166
72240ION    NA+40634  18.987  43.051   2.716
72241ION    NA+40635  29.209  20.072   3.242
72242ION    NA+40636  16.859  25.553   0.033
72243ION    NA+40637  25.596  44.968  11.651
72244ION    NA+40638   6.942  30.855  11.960
72245ION    NA+40639  26.467   7.690   2.475
72246ION    NA+40640  24.072  10.943   2.797
72247ION    NA+40641  41.330  13.479  11.074
72248ION    NA+40642  40.364   4.367   1.503
72249ION    NA+40643  21.549  33.292  14.101
72250ION    NA+40644  11.841  38.627   0.268
72251ION    NA+40645  14.597   1.298   3.341
72252ION    NA+40646  24.139  35.599   4.410
72253ION    NA+40647  43.776   2.358  10.722
72254ION    NA+40648   8.211  12.218   1.922
72255ION    NA+40649   1.513  13.111   4.170
72256ION    NA+40650   0.144  13.696  11.648
72257ION    NA+40651  43.791  16.999  11.518
72258ION    NA+40652   5.067   4.801  10.062
72259ION    NA+40653  31.118  24.141  12.714
72260ION    NA+40654  30.081   1.638   3.195
72261ION    NA+40655  18.008  24.001  14.164
72262ION    NA+40656  11.470   6.014   1.936
72263ION    NA+40657  11.116   0.901   0.945
72264ION    NA+40658  31.566  41.435   1.127
72265ION    NA+40659  32.562  11.434   0.225
72266ION    NA+40660  44.968  14.490  11.630
72267ION    NA+40661   3.838  16.168   1.165
72268ION    NA+40662  18.970  36.822   3.505
72269ION    NA+40663  24.504   9.283   1.458
72270ION    NA+40664  17.175   3.757  14.326
72271ION    NA+40665  33.308  24.498   1.738
72272ION    NA+40666  25.829   7.799  10.642
72273ION    NA+40667  33.511  38.189  11.497
72274ION    NA+40668  11.429  16.847  10.454
72275ION    NA+40669  18.282   4.573   0.557
72276ION    NA+40670  10.641  38.239   2.486
72277ION    NA+40671  36.359  29.387  11.805
72278ION    NA+40672   1.770   1.497   4.736
72279ION    NA+40673  33.874   2.980  14.330
72280ION    NA+40674  41.730  26.112  14.503
72281ION    NA+40675  27.755  23.957   1.255
72282ION    NA+40676  19.275   2.721  12.959
72283ION    NA+40677   6.931   0.433  10.823
72284ION    NA+40678  24.383  38.636   4.953
72285ION    NA+40679  33.090  29.708  13.236
72286ION    NA+40680  27.197  13.585   0.870
72287ION    NA+40681  35.306  14.786   2.382
72288ION    NA+40682  23.866  28.913   3.023
72289ION    NA+40683  36.121  20.836  12.049
72290ION    NA+40684   6.211  13.671   0.791
72291ION    NA+40685  42.376  40.990  11.012
72292ION    NA+40686  13.815   7.459   1.194
72293ION    NA+40687  34.928  40.558   1.723
72294ION    NA+40688  43.505  10.696   4.832
72295ION    NA+40689   1.019  12.608   1.803
72296ION    NA+40690  17.627  43.810   1.357
72297ION    NA+40691  31.946   7.320  13.511
72298ION    NA+40692  32.637  12.663  11.220
72299ION    NA+40693  14.203   0.352  14.635
72300ION    NA+40694  39.124  29.064   2.087
72301ION    NA+40695  10.055  12.734   2.827
72302ION    NA+40696  11.056  23.716   1.621
72303ION    NA+40697  16.302   3.000  11.177
72304ION    NA+40698  28.496  28.365  14.896
72305ION    NA+40699  39.597  16.859  12.346
72306ION    NA+40700  20.211   3.876   1.790
72307ION    NA+40701  18.250  22.761  10.679
72308ION    NA+40702  33.223  34.060  12.966
72309ION    NA+40703  18.459  28.228   3.228
72310ION    NA+40704  12.697  31.609   3.103
72311ION    NA+40705  12.521  15.270  10.705
72312ION    NA+40706  26.625  41.533  12.991
72313ION    NA+40707   4.697  18.202  13.444
72314ION    NA+40708  31.587  44.258  13.750
72315ION    NA+40709  16.001   1.851  11.867
72316ION    NA+40710  12.316  12.149   1.095
72317ION    NA+40711  24.143  16.278  14.454
72318ION    NA+40712  37.366   4.435   3.111
72319ION    NA+40713   7.358  33.022  12.406
72320ION    NA+40714  11.081  21.477   4.576
72321ION    NA+40715  29.603  37.392  11.934
72322ION    NA+40716  37.179   7.246   4.455
72323ION    NA+40717  28.351   4.144   3.361
72324ION    NA+40718   6.149  31.038   1.920
72325ION    NA+40719  15.495   3.959   0.385
72326ION    NA+40720  39.306  24.921  10.226
72327ION    NA+40721  42.011  34.699   3.204
72328ION    NA+40722  13.458  35.859   3.250
72329ION    NA+40723  29.931   4.717   2.279
72330ION    NA+40724  41.348  13.779   1.636
72331ION    NA+40725  24.646   7.586  11.766
72332ION    NA+40726  37.116  44.887  11.714
72333ION    NA+40727  13.400   3.467  12.697
72334ION    NA+40728  14.231  24.395  12.958
72335ION    NA+40729  14.238   4.198  13.541
72336ION    NA+40730  17.784  14.834   1.722
72337ION    NA+40731  12.729   0.533   2.542
72338ION    NA+40732  27.920  28.232   1.356
72339ION    NA+40733   6.452   6.898  14.337
72340ION    NA+40734   4.935  35.227  14.585
72341ION    NA+40735  34.112   1.426  11.785
72342ION    NA+40736  35.926  28.073  14.256
72343ION    NA+40737   1.428  27.581  10.969
72344ION    NA+40738  14.320  44.049  12.757
72345ION    NA+40739  36.995  27.804  10.800
72346ION    NA+40740  27.147   2.443   5.098
72347ION    NA+40741  40.212   8.440  12.966
72348ION    NA+40742  38.445  36.693   3.547
72349ION    NA+40743  35.006   4.943  11.148
72350ION    NA+40744  17.749  37.268   5.184
72351ION    NA+40745  20.961  37.634   1.969
72352ION    NA+40746  11.938  37.640   0.391
72353ION    NA+40747  31.789  11.593   0.052
72354ION    NA+40748  37.939  12.077   4.810
72355ION    NA+40749  25.595  34.435  10.697
72356ION    NA+40750   2.689  21.165  11.620
72357ION    NA+40751  35.454  24.449   0.182
72358ION    NA+40752  23.593  35.689   1.688
72359ION    NA+40753  17.889  40.763   4.934
72360ION    NA+40754  28.933  23.500   3.583
72361ION    NA+40755  10.457  11.870   1.261
72362ION    NA+40756  36.602  39.810   3.732
72363ION    NA+40757  13.044  29.954   3.646
72364ION    NA+40758  23.292  44.020  10.764
72365ION    NA+40759   0.740  32.826   2.808
72366ION    NA+40760  29.559  38.785  12.552
72367ION    NA+40761  42.265  28.112  14.966
72368ION    NA+40762  27.548  22.113   1.874
72369ION    NA+40763  19.956   2.921  13.867
72370ION    NA+40764  22.794  35.535  10.993
72371ION    NA+40765  17.295  11.952   0.773
72372ION    NA+40766  33.332  41.431  14.856
72373ION    NA+40767  31.976  36.780  10.362
72374ION    NA+40768  16.159   7.747  14.759
72375ION    NA+40769  26.188  23.468   2.410
72376ION    NA+40770  43.931  36.667   1.393
72377ION    NA+40771  30.361  34.292  14.717
72378ION    NA+40772  14.490  34.991   0.393
72379ION    NA+40773   5.516  13.578   3.372
72380ION    NA+40774  37.047  35.662   5.029
72381ION    NA+40775  24.625  24.052  12.454
72382ION    NA+40776  43.121  37.901  14.110
72383ION    NA+40777  16.177  12.229   0.827
72384ION    NA+40778  41.021  15.930  10.680
72385ION    NA+40779  22.431  39.294  14.017
72386ION    NA+40780  32.836  30.309   4.148
72387ION    NA+40781  34.085  37.665   3.129
72388ION    NA+40782  42.336  34.179  13.685
72389ION    NA+40783  27.757  22.833   4.399
72390ION    NA+40784  14.210  26.825   2.652
72391ION    NA+40785  33.952  10.246   2.890
72392ION    NA+40786  17.048  16.354  12.012
72393ION    NA+40787  35.601  17.868   0.082
72394ION    NA+40788  20.442  44.302   3.905
72395ION    NA+40789  13.394   6.664   1.052
72396ION    NA+40790  10.370  37.615  13.839
72397ION    NA+40791   2.752  42.888   3.221
72398ION    NA+40792  15.808  30.089   0.234
72399ION    NA+40793  19.348  29.413  14.537
72400ION    NA+40794  34.050  11.469  14.158
72401ION    NA+40795  17.540  35.957   1.382
72402ION    NA+40796  30.023  20.624  13.972
72403ION    NA+40797  18.575   2.253   0.736
72404ION    NA+40798  14.164  43.719   2.370
72405ION    NA+40799  43.479  14.891  13.708
72406ION    NA+40800  22.131  30.167  11.230
72407ION    NA+40801   6.949  26.071  10.750
72408ION    NA+40802  36.728  37.339  14.408
72409ION    NA+40803  21.523  22.497  14.218
72410ION    NA+40804  29.643   2.343   5.073
72411ION    NA+40805  18.527  35.693  14.713
72412ION    NA+40806  30.719   2.452  10.840
72413ION    NA+40807  39.055  30.636  11.048
72414ION    NA+40808  10.291   4.713   1.440
72415ION    NA+40809  34.088  25.180   2.813
72416ION    NA+40810   7.650  12.326   4.339
72417ION    NA+40811  30.864  35.917   5.332
72418ION    NA+40812   3.925  10.689  12.237
72419ION    NA+40813  42.589  13.846  12.033
72420ION    NA+40814  11.347  14.783  11.321
72421ION    NA+40815  35.442   7.571   0.506
72422ION    NA+40816  44.020  43.043  13.088
72423ION    NA+40817   4.336  41.853   3.300
72424ION    NA+40818   8.442  21.157   2.374
72425ION    NA+40819   7.707  30.314   0.542
72426ION    NA+40820  12.760  13.016  12.157
72427ION    NA+40821  22.855  21.153  11.414
72428ION    NA+40822  16.911   6.709  12.377
72429ION    NA+40823  17.661  10.260   2.695
72430ION    NA+40824   5.672   6.562   1.559
72431ION    NA+40825  29.273   2.377   1.192
72432ION    NA+40826  34.231  23.423   4.953
72433ION    NA+40827   3.364  22.797  13.926
72434ION    NA+40828  18.223   8.342  11.989
72435ION    NA+40829  14.032  38.964   2.600
72436ION    NA+40830   1.394  17.734   0.002
72437ION    NA+40831  43.029  34.521  14.512
72438ION    NA+40832  36.151   2.290   1.398
72439ION    NA+40833  13.335   0.722   1.450
72440ION    NA+40834  16.241  43.331   2.634
72441ION    NA+40835  42.400   7.241  14.994
72442ION    NA+40836   1.341   6.913   2.055
72443ION    NA+40837  22.578  25.501  10.531
72444ION    NA+40838  22.084  10.014  12.808
72445ION    NA+40839   1.041  15.095  12.393
72446ION    NA+40840  35.304  39.282  12.537
72447ION    NA+40841  30.543  34.095  12.543
72448ION    NA+40842  25.019  12.694  11.529
72449ION    NA+40843  44.305  17.218   0.727
72450ION    NA+40844  23.669  42.591  14.368
72451ION    NA+40845  22.482  38.559   1.751
72452ION    NA+40846  15.735   3.510   1.318
72453ION    NA+40847   8.380  41.732  14.845
72454ION    NA+40848   9.803  44.046   0.921
72455ION    NA+40849  22.086  32.651  12.324
72456ION    NA+40850  29.741   4.238  12.516
72457ION    NA+40851  38.102   4.040   1.658
72458ION    NA+40852  40.425  22.204   3.952
72459ION    NA+40853  28.300  34.508   2.391
72460ION    NA+40854  22.723  22.030   1.335
72461ION    NA+40855  14.220  21.548   0.547
72462ION    NA+40856   1.723  15.986  14.003
72463ION    NA+40857  12.565  24.520   2.149
72464ION    NA+40858  34.003  26.019   4.101
72465ION    NA+40859  32.193  21.717   3.795
72466ION    NA+40860  42.559  28.549  11.966
72467ION    NA+40861   9.629   9.214  12.782
72468ION    NA+40862  32.503  39.772   2.747
72469ION    NA+40863   1.245   8.243  14.894
72470ION    NA+40864  41.942  19.023  13.874
72471ION    NA+40865  37.914  26.687   0.720
72472ION    NA+40866  15.696   0.457  11.461
72473ION    NA+40867   7.321  26.621  10.002
72474ION    NA+40868   9.684  28.250  11.212
72475ION    NA+40869  14.517  12.525   1.835
72476ION    NA+40870  27.773   9.203   0.296
72477ION    NA+40871  21.374   1.675  13.810
72478ION    NA+40872  30.550  41.632   1.219
72479ION    NA+40873   9.976  28.760   2.361
72480ION    NA+40874  28.355  14.549   5.224
72481ION    NA+40875  36.997  43.043   2.135
72482ION    NA+40876  35.126  39.913  10.545
72483ION    NA+40877  27.369   7.682   2.576
72484ION    NA+40878   8.505   0.831   3.121
72485ION    NA+40879  34.257  24.750   1.927
72486ION    NA+40880   8.235  18.607   3.914
72487ION    NA+40881   4.369  42.826   2.523
72488ION    NA+40882  21.535  30.411   4.233
72489ION    NA+40883   0.775  14.270  11.756
72490ION    NA+40884  22.864  35.947   4.389
72491ION    NA+40885  43.842  32.628   4.472
72492ION    NA+40886  17.620  13.844   3.318
72493ION    NA+40887  26.565   9.206  12.902
72494ION    NA+40888   5.378  43.089  14.908
72495ION    NA+40889  39.747  17.524   1.017
72496ION    NA+40890  16.624  31.911   2.696
72497ION    NA+40891  13.537  23.943  13.518
72498ION    NA+40892  18.837  30.313   5.446
72499ION    NA+40893   4.202  17.096   5.263
72500ION    NA+40894   2.134   0.453  14.877
72501ION    NA+40895  15.769  35.071   4.413
72502ION    NA+40896  25.601  43.973   4.133
72503ION    NA+40897  15.031   6.337  14.289
72504ION    NA+40898  32.158  22.584  12.615
72505ION    NA+40899   9.146   8.356   3.715
72506ION    NA+40900   6.710  33.216   3.530
72507ION    NA+40901  39.335  39.730  11.161
72508ION    NA+40902   1.262  19.489  13.963
72509ION    NA+40903  34.539   7.912  13.381
72510ION    NA+40904  11.642  20.768   1.372
72511ION    NA+40905  43.803   3.410  14.458
72512ION    NA+40906   1.303  38.813  12.326
72513ION    NA+40907  16.695  37.301   3.454
72514ION    NA+40908   1.067  44.575   0.859
72515ION    NA+40909  38.325   8.945   1.130
72516ION    NA+40910  11.309   1.911  13.851
72517ION    NA+40911  26.666  17.668  11.587
72518ION    NA+40912  15.863  23.803   0.125
72519ION    NA+40913  20.470  25.993  14.937
72520ION    NA+40914  27.948  18.466   1.512
72521ION    NA+40915  42.084  33.550   5.292
72522ION    NA+40916  31.149  15.440  13.520
72523ION    NA+40917  30.480   3.742   4.671
72524ION    NA+40918  32.432   4.402   0.383
72525ION    NA+40919  14.721  35.643  13.867
72526ION    NA+40920  14.389  17.949   0.425
72527ION    NA+40921  41.063   3.503  12.968
72528ION    NA+40922  21.078  34.078   4.689
72529ION    NA+40923   4.698   6.945  11.222
72530ION    NA+40924  44.525  17.373   4.530
72531ION    NA+40925  18.522  42.117  10.319
72532ION    NA+40926  14.310   9.466  12.031
72533ION    NA+40927  16.478  29.632  11.134
72534ION    NA+40928  21.641  11.732   0.278
72535ION    NA+40929   5.384   6.358  10.957
72536ION    NA+40930  13.729  19.662   0.171
72537ION    NA+40931  44.864  44.467  13.676
72538ION    NA+40932  36.829  27.506   2.416
72539ION    NA+40933  39.509  21.051   4.856
72540ION    NA+40934  15.915   0.289   4.880
72541ION    NA+40935  29.971   0.536   0.881
72542ION    NA+40936  24.968  29.570   3.506
72543ION    NA+40937   3.882  12.038   0.165
72544ION    NA+40938  22.645  27.785   9.927
72545ION    NA+40939  31.466  29.948  10.888
72546ION    NA+40940   3.682  38.352  14.243
72547ION    NA+40941  19.765  21.560   4.198
72548ION    NA+40942  33.331   3.893  10.871
72549ION    NA+40943  42.516   9.546   4.620
72550ION    NA+40944   3.373   2.596  13.903
72551ION    NA+40945   2.752  16.972   0.557
72552ION    NA+40946  15.479  30.034  11.356
72553ION    NA+40947   2.399  20.347  11.363
72554ION    NA+40948  31.498  28.434   1.408
72555ION    NA+40949  14.723  37.765   2.691
72556ION    NA+40950   3.311  20.026  10.603
72557ION    NA+40951  39.203  43.193   2.606
72558ION    NA+40952  31.668   8.057  11.681
72559ION    NA+40953   1.392  14.560  13.034
72560ION    NA+40954  36.518   4.680  11.872
72561ION    NA+40955  23.071  36.606   1.889
72562ION    NA+40956  27.565  24.561  10.806
72563ION    NA+40957  40.994  31.127   2.081
72564ION    NA+40958   0.657  24.412   0.835
72565ION    NA+40959  25.305   0.068   1.062
72566ION    NA+40960  32.058   0.792   3.507
72567ION    NA+40961  31.983  22.573  10.734
72568ION    NA+40962  36.591  33.295  13.262
72569ION    NA+40963  28.999  44.986  12.959
72570ION    NA+40964  44.495  33.312   1.746
72571ION    NA+40965  33.405  43.398   3.162
72572ION    NA+40966  20.642  13.354   2.108
72573ION    NA+40967  14.133  23.533   2.008
72574ION    NA+40968  16.675   6.026  11.121
72575ION    NA+40969   1.485  38.759  13.335
72576ION    NA+40970   5.354  15.804  10.721
72577ION    NA+40971   2.709  35.199  13.056
72578ION    NA+40972  31.525  33.033   1.699
72579ION    NA+40973  10.195  15.538  12.436
72580ION    NA+40974  25.797   7.987   1.918
72581ION    NA+40975  34.779  41.039   4.188
72582ION    NA+40976  16.007  24.100   3.695
72583ION    NA+40977   1.572  21.809   5.055
72584ION    NA+40978  28.451  17.201   3.833
72585ION    NA+40979  10.660   8.969  11.871
72586ION    NA+40980   8.725  29.698   1.363
72587ION    NA+40981   9.694   2.432   0.446
72588ION    NA+40982  29.005  31.488  11.176
72589ION    NA+40983  19.031  34.946   3.105
72590ION    NA+40984  14.652   6.917   1.595
72591ION    NA+40985  11.776   7.938  13.580
72592ION    NA+40986  15.696  13.985   1.642
72593ION    NA+40987  39.242  13.150  11.131
72594ION    NA+40988  38.547   2.812   0.017
72595ION    NA+40989   6.923  34.449   3.129
72596ION    NA+40990  32.322  32.491  13.556
72597ION    NA+40991   5.624   2.126   3.681
72598ION    NA+40992   1.112  12.287   3.768
72599ION    NA+40993   1.646   8.826  13.370
72600ION    NA+40994  27.931  17.179   1.178
72601ION    NA+40995   8.622   6.371  14.007
72602ION    NA+40996  34.028  12.295   2.908
72603ION    NA+40997  10.243  17.789   0.712
72604ION    NA+40998   0.301  11.577   0.781
72605ION    NA+40999   4.970  14.837   1.237
72606ION    NA+41000   9.636  27.445   3.849
72607ION    NA+41001  17.331  27.679   3.411
72608ION    NA+41002  34.679  22.001   1.786
72609ION    NA+41003  25.325  32.866   4.514
72610ION    NA+41004  35.920   2.747  14.430
72611ION    NA+41005  40.239  35.324   0.602
72612ION    NA+41006  27.581  17.119  10.742
72613ION    NA+41007  15.264   8.874  12.550
72614ION    NA+41008  18.243  24.953   0.374
72615ION    NA+41009  38.660  26.727   4.648
72616ION    NA+41010  26.203  26.760   1.318
72617ION    NA+41011  28.425   9.768   0.361
72618ION    NA+41012  12.944  23.203   2.189
72619ION    NA+41013  39.412  36.759   1.592
72620ION    NA+41014   1.273  33.544   3.297
72621ION    NA+41015  11.123   1.335   3.974
72622ION    NA+41016   6.902  44.445   3.355
72623ION    NA+41017  25.572  11.589   3.624
72624ION    NA+41018  31.328  12.098   2.152
72625ION    NA+41019  10.030   1.054  13.803
72626ION    NA+41020  13.082   3.238   2.371
72627ION    NA+41021  24.986  30.869   3.146
72628ION    NA+41022  22.215   9.795   4.579
72629ION    NA+41023   4.726   7.538  13.774
72630ION    NA+41024   4.729  25.146  10.972
72631ION    NA+41025  18.874   0.222  12.056
72632ION    NA+41026  35.363   5.438   3.337
72633ION    NA+41027  30.711  32.677   1.749
72634ION    NA+41028  28.079   0.974   2.773
72635ION    NA+41029   6.616  14.183   2.024
72636ION    NA+41030  23.950  29.438  13.362
72637ION    NA+41031  41.074  12.324   3.655
72638ION    NA+41032  14.626  36.473  12.198
72639ION    NA+41033  12.893  37.310   4.900
72640ION    NA+41034   2.538  36.865  13.391
72641ION    NA+41035  38.963  42.559   0.627
72642ION    NA+41036  22.634   8.287  11.320
72643ION    NA+41037  17.895  41.685   3.536
72644ION    NA+41038  14.418  43.802  13.605
72645ION    NA+41039  18.107  29.093  14.588
72646ION    NA+41040  22.185  12.486   2.401
72647ION    NA+41041  21.556  38.594   2.649
72648ION    NA+41042   6.239  28.366  12.542
72649ION    NA+41043  17.843  36.564   9.602
72650ION    NA+41044  23.368  33.500  12.535
72651ION    NA+41045  19.526  43.017  10.700
72652ION    NA+41046   3.452   8.805   2.429
72653ION    NA+41047  34.067  13.221   3.195
72654ION    NA+41048  14.053   4.862   4.934
72655ION    NA+41049  25.647   4.022   3.400
72656ION    NA+41050  22.279  31.762  11.908
72657ION    NA+41051  20.578  40.328   0.066
72658ION    NA+41052  12.006  28.831  11.692
72659ION    NA+41053   1.825   3.441   1.789
72660ION    NA+41054   0.186  44.562   0.898
72661ION    NA+41055  22.177  27.920   1.279
72662ION    NA+41056  39.350  26.159  13.346
72663ION    NA+41057  24.531   4.336  10.766
72664ION    NA+41058  10.256  42.935  10.661
72665ION    NA+41059  38.300  22.187   0.987
72666ION    NA+41060  31.158  27.437  11.637
72667ION    NA+41061  33.368  22.101  12.633
72668ION    NA+41062  28.880  26.995   1.904
72669ION    NA+41063   5.135  38.171  13.050
72670ION    NA+41064  22.210  42.417   1.613
72671ION    NA+41065  44.327  24.212  11.900
72672ION    NA+41066  11.258  37.511  11.496
72673ION    NA+41067  32.397  18.618   1.416
72674ION    NA+41068  42.059  26.095   4.328
72675ION    NA+41069  11.934  17.238   0.789
72676ION    NA+41070  41.817  15.180   4.110
72677ION    NA+41071  26.800  29.772  10.673
72678ION    NA+41072  25.862  22.295  14.683
72679ION    NA+41073  34.222  44.629  11.225
72680ION    NA+41074  22.360  18.118   3.556
72681ION    NA+41075  43.728  35.058   3.378
72682ION    NA+41076   2.512  12.213  12.157
72683ION    NA+41077  44.377  36.907   2.105
72684ION    NA+41078   1.281  20.458  10.785
72685ION    NA+41079  31.451  25.171   2.034
72686ION    NA+41080  16.197   4.576  10.729
72687ION    NA+41081   4.973  40.674  10.304
72688ION    NA+41082  17.632  18.597   0.657
72689ION    NA+41083  35.037  20.597  13.101
72690ION    NA+41084   4.779  25.918  14.987
72691ION    NA+41085   2.097   1.928  11.943
72692ION    NA+41086  11.833  26.014   3.111
72693ION    NA+41087  35.803  19.464   2.166
72694ION    NA+41088   6.560  16.743   3.409
72695ION    NA+41089  14.945  32.789   4.118
72696ION    NA+41090  35.719  20.247  11.508
72697ION    NA+41091  29.521   0.957   3.667
72698ION    NA+41092   5.458  42.140  13.835
72699ION    NA+41093  21.252  42.054  12.067
72700ION    NA+41094  20.154  43.455  14.664
72701ION    NA+41095  37.019   8.516  12.368
72702ION    NA+41096  38.418  35.686   3.759
72703ION    NA+41097  41.745  13.371   0.743
72704ION    NA+41098   4.189   1.430  12.078
72705ION    NA+41099  14.873  37.661   4.566
72706ION    NA+41100  14.194  44.069   4.091
72707ION    NA+41101   0.474  18.021  11.192
72708ION    NA+41102  33.106  38.411  14.720
72709ION    NA+41103  22.542  30.371   9.889
72710ION    NA+41104  16.089  41.248  11.507
72711ION    NA+41105  32.217  16.756   4.310
72712ION    NA+41106  18.455  12.920  12.700
72713ION    NA+41107  31.770  22.220   1.921
72714ION    NA+41108   3.263  21.984  12.530
72715ION    NA+41109  39.021  42.390  14.737
72716ION    NA+41110  28.143  20.673  13.353
72717ION    NA+41111  38.852  43.959  10.592
72718ION    NA+41112  28.959   4.726   3.215
72719ION    NA+41113   6.811   1.422   3.208
72720ION    NA+41114  29.154   6.895   4.538
72721ION    NA+41115  39.488  35.436   2.392
72722ION    NA+41116  16.500  27.273   1.894
72723ION    NA+41117  39.484  23.281   0.475
72724ION    NA+41118  23.706  14.325  12.207
72725ION    NA+41119   9.614   8.868   0.816
72726ION    NA+41120  16.859  27.756   0.495
72727ION    NA+41121  44.025  14.871  13.167
72728ION    NA+41122  16.762  33.842  14.150
72729ION    NA+41123  43.252   4.421   3.366
72730ION    NA+41124   1.618  12.845  12.623
72731ION    NA+41125  43.870   8.357   2.531
72732ION    NA+41126   8.447  27.112   4.888
72733ION    NA+41127   8.857  25.132  12.505
72734ION    NA+41128  32.961   0.946  13.356
72735ION    NA+41129  33.550  34.312   3.250
72736ION    NA+41130  43.866   8.442  13.111
72737ION    NA+41131   8.833  26.015  12.974
72738ION    NA+41132  22.608  25.927   4.580
72739ION    NA+41133   2.715  16.069   0.027
72740ION    NA+41134  11.274  41.514  14.837
72741ION    NA+41135   7.371  25.658   0.531
72742ION    NA+41136  42.558  24.508   2.668
72743ION    NA+41137  16.931  38.186  10.794
72744ION    NA+41138  30.174  14.987   0.372
72745ION    NA+41139  26.929  14.450  11.780
72746ION    NA+41140  24.921  20.266   1.471
72747ION    NA+41141  11.755  44.675  14.559
72748ION    NA+41142  10.121  10.701  14.335
72749ION    NA+41143  31.868   6.236   3.192
72750ION    NA+41144  41.916  33.620   2.376
72751ION    NA+41145   3.133  44.561   2.895
72752ION    NA+41146  16.240  36.357  13.175
72753ION    NA+41147  23.850  19.556   3.367
72754ION    NA+41148  19.116  39.058  13.352
72755ION    NA+41149  43.497   0.061   2.094
72756ION    NA+41150  23.092   0.066   0.633
72757ION    NA+41151  22.406  19.271   2.910
72758ION    NA+41152  25.197  17.332  13.699
72759ION    NA+41153  41.968  37.552  12.576
72760ION    NA+41154   7.073   2.909   0.050
72761ION    NA+41155   3.623  16.823  12.732
72762ION    NA+41156  38.438   2.933  11.991
72763ION    NA+41157  33.530  38.767  13.449
72764ION    NA+41158  27.318  14.922  13.123
72765ION    NA+41159  40.284  14.513   2.902
72766ION    NA+41160  41.520  19.382  12.066
72767ION    NA+41161  18.604  23.876  12.493
72768ION    NA+41162  39.205  23.298   4.245
72769ION    NA+41163  44.736  34.255  11.582
72770ION    NA+41164  40.352  29.303  11.209
72771ION    NA+41165   5.538  13.425   2.384
72772ION    NA+41166  39.295  19.675   3.344
72773ION    NA+41167   3.835  20.272   0.918
72774ION    NA+41168  30.241  19.442  14.532
72775ION    NA+41169  25.503  34.740  11.645
72776ION    NA+41170   2.873  32.895   3.786
72777ION    NA+41171  23.207   3.557  14.164
72778ION    NA+41172  37.211  37.844  11.012
72779ION    NA+41173  17.682  18.287  14.161
72780ION    NA+41174  41.742  37.258   2.211
72781ION    NA+41175  10.335  41.018   0.371
72782ION    NA+41176  27.544  34.485   1.736
72783ION    NA+41177  26.687  16.708  10.236
72784ION    NA+41178  43.894   0.311   1.211
72785ION    NA+41179  23.113  35.576  13.546
72786ION    NA+41180  39.902  38.785   4.423
72787ION    NA+41181  43.822  37.782   3.090
72788ION    NA+41182  31.586  13.164  13.363
72789ION    NA+41183  36.052  34.807   1.930
72790ION    NA+41184   5.346  30.627  11.060
72791ION    NA+41185  32.106  32.868   3.181
72792ION    NA+41186  26.634  34.265  14.333
72793ION    NA+41187   4.289  35.860  13.711
72794ION    NA+41188  10.293  30.913   3.741
72795ION    NA+41189  39.559  38.007  10.758
72796ION    NA+41190  13.188  34.420   3.817
72797ION    NA+41191  28.811   3.830   3.409
72798ION    NA+41192   0.862  20.477  11.970
72799ION    NA+41193  20.322   9.616  12.407
72800ION    NA+41194  24.606   9.509  11.626
72801ION    NA+41195  22.549   0.047  14.482
72802ION    NA+41196  21.707   2.548  13.230
72803ION    NA+41197  33.230  23.250   1.829
72804ION    NA+41198  20.596  36.537  10.649
72805ION    NA+41199  15.383  17.232   4.353
72806ION    NA+41200   3.097  39.766  12.645
72807ION    NA+41201  43.088  10.546  12.876
72808ION    NA+41202  24.788   8.317  14.381
72809ION    NA+41203  44.888  34.999   1.857
72810ION    NA+41204  13.714   7.423   4.784
72811ION    NA+41205  30.616  32.871  13.808
72812ION    NA+41206  27.061  11.441   0.837
72813ION    NA+41207  16.800  31.254  11.140
72814ION    NA+41208  19.759  30.744  14.390
72815ION    NA+41209  42.551   2.836   3.796
72816ION    NA+41210  23.224  15.351   2.775
72817ION    NA+41211  13.244  17.852  13.027
72818ION    NA+41212  23.762  44.879   5.106
72819ION    NA+41213  22.912  40.387  12.050
72820ION    NA+41214  24.412  37.796   3.102
72821ION    NA+41215  20.815  38.689   0.535
72822ION    NA+41216   7.554  13.758  14.908
72823ION    NA+41217  44.826   5.895   0.759
72824ION    NA+41218   9.207  16.939  12.514
72825ION    NA+41219   2.696  25.666  14.128
72826ION    NA+41220  33.527   6.433  12.723
72827ION    NA+41221   1.234   7.233  11.605
72828ION    NA+41222   9.550  18.559  12.501
72829ION    NA+41223  29.118  27.862  13.952
72830ION    NA+41224  20.787  44.116  11.525
72831ION    NA+41225  14.529  30.338   1.533
72832ION    NA+41226   8.429  18.507   2.938
72833ION    NA+41227  14.462  41.112  12.511
72834ION    NA+41228  39.162  43.282   1.539
72835ION    NA+41229  11.556  12.239   1.479
72836ION    NA+41230   1.946  11.768  10.340
72837ION    NA+41231  21.595  36.171   0.575
72838ION    NA+41232   4.311  42.549  11.745
72839ION    NA+41233  28.645   4.032   2.567
72840ION    NA+41234   7.057   7.453  11.375
72841ION    NA+41235   8.625  21.972   3.337
72842ION    NA+41236  11.030  11.858  13.052
72843ION    NA+41237  38.529  36.369   2.110
72844ION    NA+41238   8.931   5.137   0.887
72845ION    NA+41239  26.555  39.493  14.410
72846ION    NA+41240  22.078  36.656   1.780
72847ION    NA+41241   1.102  35.967   0.308
72848ION    NA+41242  29.396  29.779  12.995
72849ION    NA+41243  11.332  32.006  14.530
72850ION    NA+41244   2.428  40.299   3.666
72851ION    NA+41245  15.662   1.475  14.945
72852ION    NA+41246   3.588  25.148  12.219
72853ION    NA+41247  26.301  14.092   0.211
72854ION    NA+41248  36.876  38.828  13.659
72855ION    NA+41249   2.603  34.778   3.628
72856ION    NA+41250  40.593  32.314   3.921
72857ION    NA+41251  34.834   3.448   3.104
72858ION    NA+41252  43.032  16.420  12.210
72859ION    NA+41253  42.518  23.785   4.575
72860ION    NA+41254  35.869  11.938   0.658
72861ION    NA+41255   0.952  38.697   2.886
72862ION    NA+41256  21.401  34.347  13.548
72863ION    NA+41257  12.675  42.801   1.524
72864ION    NA+41258  16.824  13.031   2.354
72865ION    NA+41259  25.653  22.183  13.681
72866ION    NA+41260  31.452  16.982  14.829
72867ION    NA+41261   5.983  42.816   1.805
72868ION    NA+41262   8.153  12.197  11.760
72869ION    NA+41263  29.700   9.125  14.235
72870ION    NA+41264  23.406   1.157  14.879
72871ION    NA+41265  17.184  30.180   5.132
72872ION    NA+41266  15.353  28.271   3.721
72873ION    NA+41267  44.309  15.900  11.178
72874ION    NA+41268  37.930  18.918  10.819
72875ION    NA+41269  28.977  15.774   1.791
72876ION    NA+41270  17.632  22.275  14.351
72877ION    NA+41271   4.976   1.464   1.600
72878ION    NA+41272  12.094   5.610  10.959
72879ION    NA+41273  15.404  18.939  14.749
72880ION    NA+41274  18.331  15.752  14.246
72881ION    NA+41275   2.381   1.090  12.450
72882ION    NA+41276  31.766   8.765   4.332
72883ION    NA+41277  17.942  20.402   2.419
72884ION    NA+41278  12.317  32.867   1.559
72885ION    NA+41279  30.173  18.645  11.209
72886ION    NA+41280  20.082   3.723  12.404
72887ION    NA+41281   7.367  41.349   1.428
72888ION    NA+41282  15.067  27.378   3.725
72889ION    NA+41283  43.064  30.596   0.473
72890ION    NA+41284   9.942   0.373  12.255
72891ION    NA+41285  24.675  27.691  11.675
72892ION    NA+41286  16.250  20.330   4.348
72893ION    NA+41287  25.784  20.768   3.765
72894ION    NA+41288  25.894  40.708  13.799
72895ION    NA+41289  28.091  21.632   1.186
72896ION    NA+41290  30.923  13.842  12.511
72897ION    NA+41291  11.386  16.683  13.757
72898ION    NA+41292  32.607   5.684   1.443
72899ION    NA+41293  30.385  39.314   1.226
72900ION    NA+41294  43.175   1.236   2.860
72901ION    NA+41295  13.623  38.546   3.290
72902ION    NA+41296   2.868  13.369  14.885
72903ION    NA+41297  35.350  25.577   1.914
72904ION    NA+41298  42.126  33.298  13.560
72905ION    NA+41299  37.441  36.393   3.775
72906ION    NA+41300   1.963  23.867   4.069
72907ION    NA+41301  24.232  43.844  12.849
72908ION    NA+41302  40.924  13.508   0.771
72909ION    NA+41303  37.115  23.681   1.414
72910ION    NA+41304  40.955  11.847  11.551
72911ION    NA+41305  10.584   3.600  10.926
72912ION    NA+41306  31.160  29.100   3.719
72913ION    NA+41307   6.171  23.651   3.111
72914ION    NA+41308  32.993  25.146   1.186
72915ION    NA+41309  25.062  34.108   1.930
72916ION    NA+41310  15.414   4.605   3.483
72917ION    NA+41311   2.499  20.079  13.832
72918ION    NA+41312   5.810   0.715   2.482
72919ION    NA+41313  19.718  19.845  11.865
72920ION    NA+41314  41.064  44.127   4.156
72921ION    NA+41315  19.747  14.604   3.561
72922ION    NA+41316  28.229   0.206  11.248
72923ION    NA+41317  42.844  26.565   5.367
72924ION    NA+41318  18.643  28.274  13.243
72925ION    NA+41319  16.076  44.209  11.918
72926ION    NA+41320  12.191  27.877   0.752
72927ION    NA+41321   0.164  11.523   3.394
72928ION    NA+41322  17.948  24.748   2.720
72929ION    NA+41323   6.880  43.146   3.288
72930ION    NA+41324   3.084  25.723  13.209
72931ION    NA+41325  38.283  11.328  12.680
72932ION    NA+41326   2.816  14.144   0.713
72933ION    NA+41327   7.431  37.850  14.791
72934ION    NA+41328   4.365  18.534   2.861
72935ION    NA+41329  28.746   6.134  14.410
72936ION    NA+41330  44.495  18.534   1.310
72937ION    NA+41331  38.920  35.902  12.354
72938ION    NA+41332  22.107  18.778   0.027
72939ION    NA+41333  31.022   1.229   3.119
72940ION    NA+41334  26.131  32.676  11.247
72941ION    NA+41335  26.717  15.556  13.611
72942ION    NA+41336  39.365   2.348   3.597
72943ION    NA+41337  26.188  27.567   2.747
72944ION    NA+41338  35.798  16.269   0.645
72945ION    NA+41339   5.996  19.494  13.563
72946ION    NA+41340  35.444   2.397  11.564
72947ION    NA+41341   5.105  10.193  13.992
72948ION    NA+41342  20.744  11.913  13.828
72949ION    NA+41343  24.201  22.498   4.190
72950ION    NA+41344  22.530   2.209   2.766
72951ION    NA+41345  16.083  40.388  10.672
72952ION    NA+41346   7.782   6.369  13.463
72953ION    NA+41347  19.276  39.660   0.620
72954ION    NA+41348  14.971   0.593   4.752
72955ION    NA+41349  22.210   7.802  14.009
72956ION    NA+41350   5.753  36.784  12.514
72957ION    NA+41351  22.779  10.433  13.469
72958ION    NA+41352  19.275  19.741  10.975
72959ION    NA+41353  29.849  36.836   1.535
72960ION    NA+41354  40.569  44.763   0.262
72961ION    NA+41355  36.915   3.780   1.017
72962ION    NA+41356  14.040  40.523  10.746
72963ION    NA+41357   0.359  31.485   3.994
72964ION    NA+41358  41.051  31.079   1.048
72965ION    NA+41359  35.572  30.531  10.797
72966ION    NA+41360  12.046  14.328  11.873
72967ION    NA+41361  20.757  29.166   0.660
72968ION    NA+41362  44.785   3.827   1.232
72969ION    NA+41363  38.322   4.314   2.783
72970ION    NA+41364  21.748  16.267   3.539
72971ION    NA+41365  20.302  32.430   4.127
72972ION    NA+41366   7.852  23.135  10.688
72973ION    NA+41367  11.956   2.129  11.611
72974ION    NA+41368  12.502  42.884  12.101
72975ION    NA+41369  43.050  40.877   0.271
72976ION    NA+41370  35.492  27.634   2.239
72977ION    NA+41371  18.513   5.677  12.236
72978ION    NA+41372  31.403  17.813  13.564
72979ION    NA+41373  31.058  27.974   0.370
72980ION    NA+41374  21.080  36.617   1.727
72981ION    NA+41375   1.133  17.244   0.603
72982ION    NA+41376  43.925  31.636  13.353
72983ION    NA+41377   7.578  21.257   1.880
72984ION    NA+41378   8.418  11.238   2.901
72985ION    NA+41379  29.104  18.151  12.318
72986ION    NA+41380  24.604  18.530  13.948
72987ION    NA+41381  32.084  24.304  13.619
72988ION    NA+41382   3.554  29.363  14.002
72989ION    NA+41383  18.974  37.204  11.456
72990ION    NA+41384  14.877  43.025  14.632
72991ION    NA+41385   5.789  24.558  12.229
72992ION    NA+41386   0.486  10.319  12.445
72993ION    NA+41387  10.551  39.636   4.812
72994ION    NA+41388   1.129  19.602   0.820
72995ION    NA+41389  34.917  37.130  13.395
72996ION    NA+41390   7.489   8.360   2.748
72997ION    NA+41391  13.077  32.488  14.807
72998ION    NA+41392  13.436  43.135   1.729
72999ION    NA+41393  32.988  22.598  11.580
73000ION    NA+41394  41.365  37.083  13.559
73001ION    NA+41395   4.788   0.301   1.501
73002ION    NA+41396  44.975  15.570  12.058
73003ION    NA+41397  36.248  19.427  14.357
73004ION    NA+41398  26.543   8.207   4.913
73005ION    NA+41399  15.733  17.071  12.336
73006ION    NA+41400  28.116  22.074  14.761
73007ION    NA+41401  25.500  14.364   0.744
73008ION    NA+41402  20.208   5.325  13.772
73009ION    NA+41403  18.342   2.942   0.030
73010ION    NA+41404  21.486  17.830  12.387
73011ION    NA+41405  35.855  13.851   1.316
73012ION    NA+41406   6.334  35.053   1.858
73013ION    NA+41407   7.838  36.306   3.741
73014ION    NA+41408  39.444  20.273  14.300
73015ION    NA+41409  20.559  34.632  13.727
73016ION    NA+41410  39.346   0.639   1.783
73017ION    NA+41411   4.542  39.960  14.878
73018ION    NA+41412  41.860  43.099  10.718
73019ION    NA+41413   1.662  24.008  12.435
73020ION    NA+41414  33.054  15.061   4.126
73021ION    NA+41415  14.830  33.798   2.322
73022ION    NA+41416  36.080   4.686  10.585
73023ION    NA+41417  27.283  33.041  13.649
73024ION    NA+41418  34.042  19.127   3.777
73025ION    NA+41419  29.767  33.359   4.080
73026ION    NA+41420  40.185  32.969  14.846
73027ION    NA+41421  42.846   9.775  12.822
73028ION    NA+41422  11.128   4.768  14.331
73029ION    NA+41423  31.847   3.386  11.825
73030ION    NA+41424  24.340  26.160   0.120
73031ION    NA+41425  19.278   9.252  11.961
73032ION    NA+41426  34.051  25.898   0.881
73033ION    NA+41427  41.037  31.390  12.810
73034ION    NA+41428  25.705  33.580  11.205
73035ION    NA+41429  22.255   3.452  13.714
73036ION    NA+41430   2.022  12.282   3.226
73037ION    NA+41431  23.849  26.194   2.189
73038ION    NA+41432  23.852  39.958  12.201
73039ION    NA+41433  11.909  14.935   9.952
73040ION    NA+41434  38.673   0.052  12.949
73041ION    NA+41435  29.219  29.062   0.405
73042ION    NA+41436  31.595  43.111   1.238
73043ION    NA+41437  41.537  15.024  12.562
73044ION    NA+41438  44.996   6.068   3.160
73045ION    NA+41439   8.473  23.674  11.258
73046ION    NA+41440  25.821   6.100   9.939
73047ION    NA+41441  26.751  27.915  10.921
73048ION    NA+41442  15.450  31.867  13.395
73049ION    NA+41443   2.064  25.199   3.595
73050ION    NA+41444  20.599  30.464  12.365
73051ION    NA+41445  41.517  25.888   1.800
73052ION    NA+41446   6.394   4.904   3.853
73053ION    NA+41447   4.721  37.197  11.777
73054ION    NA+41448  43.578  29.202   1.764
73055ION    NA+41449   4.016   3.079  14.497
73056ION    NA+41450  34.735   7.317  14.433
73057ION    NA+41451  41.513  27.214   2.396
73058ION    NA+41452  38.411  12.078   4.053
73059ION    NA+41453  34.166   8.799   2.279
73060ION    NA+41454   0.443  25.244   4.166
73061ION    NA+41455  44.123  34.369  10.800
73062ION    NA+41456  19.241  31.738   2.852
73063ION    NA+41457   4.727  15.901   0.700
73064ION    NA+41458  11.583  19.791  13.051
73065ION    NA+41459  24.546  41.343  12.955
73066ION    NA+41460  37.338  39.833  14.991
73067ION    NA+41461  29.466   8.083   4.578
73068ION    NA+41462  21.867  12.423   5.149
73069ION    NA+41463  25.612  20.930   1.185
73070ION    NA+41464  15.206  10.756   2.160
73071ION    NA+41465  19.009   4.251  11.699
73072ION    NA+41466   4.654  26.300  12.296
73073ION    NA+41467  11.011   0.531  13.424
73074ION    NA+41468  35.154  34.933  12.814
73075ION    NA+41469  42.385  34.784   0.505
73076ION    NA+41470   6.074  30.059  12.315
73077ION    NA+41471  34.561  14.756  12.556
73078ION    NA+41472  32.600  11.288   1.905
73079ION    NA+41473  41.945   1.880  11.864
73080ION    NA+41474  25.179  30.679   4.114
73081ION    NA+41475  39.445  22.109  14.445
73082ION    NA+41476  23.429  25.524  13.946
73083ION    NA+41477  36.919   0.098  12.672
73084ION    NA+41478   4.349  13.334   2.691
73085ION    NA+41479  27.419  18.646  12.515
73086ION    NA+41480  41.034  27.306   1.523
73087ION    NA+41481   1.506   4.882  13.156
73088ION    NA+41482  33.928  38.434   1.150
73089ION    NA+41483   0.643   2.857  10.718
73090ION    NA+41484  44.063   6.089   4.476
73091ION    NA+41485  33.525   8.847  13.995
73092ION    NA+41486  12.984  40.544  11.682
73093ION    NA+41487  21.320  43.799  14.347
73094ION    NA+41488  26.733  35.396  14.791
73095ION    NA+41489  14.652   5.876  14.968
73096ION    NA+41490   0.714  37.737   2.736
73097ION    NA+41491   5.172  31.773  14.764
73098ION    NA+41492   0.221  43.475  14.661
73099ION    NA+41493   5.367  26.934  12.596
73100ION    NA+41494  16.176  20.852  10.157
73101ION    NA+41495   5.394  42.067  14.729
73102ION    NA+41496   5.752  41.267   4.058
73103ION    NA+41497  40.945   5.749  11.125
73104ION    NA+41498  14.139   6.279   4.008
73105ION    NA+41499   1.663  22.746   4.717
73106ION    NA+41500  20.837  30.496   1.260
73107ION    NA+41501  33.234  24.949   2.628
73108ION    NA+41502  38.144   9.172   3.282
73109ION    NA+41503  36.049  43.357   2.194
73110ION    NA+41504  18.346   7.600   5.487
73111ION    NA+41505  21.484   5.318  10.667
73112ION    NA+41506  32.783  41.141   2.988
73113ION    NA+41507   1.247  40.506   3.184
73114ION    NA+41508   7.937  34.235   4.819
73115ION    NA+41509  27.960  20.599   0.389
73116ION    NA+41510   5.119  30.189   3.200
73117ION    NA+41511  39.290  43.576  12.938
73118ION    NA+41512  15.593  30.777  10.896
73119ION    NA+41513   7.343   5.289  11.623
73120ION    NA+41514  35.612  20.293   1.854
73121ION    NA+41515  17.566  24.500  13.528
73122ION    NA+41516  15.075  39.892  13.478
73123ION    NA+41517  35.448  29.709   2.145
73124ION    NA+41518  28.677  13.291   3.530
73125ION    NA+41519  27.009  17.761   2.713
73126ION    NA+41520  34.062  16.630  11.603
73127ION    NA+41521  21.646  17.374  14.915
73128ION    NA+41522   6.700  28.032  10.582
73129ION    NA+41523  43.496  12.002  11.746
73130ION    NA+41524  10.353   2.799   3.141
73131ION    NA+41525  23.088  23.995   2.716
73132ION    NA+41526  25.873  25.756  12.439
73133ION    NA+41527  42.315  19.039   4.645
73134ION    NA+41528  22.094  24.005   2.827
73135ION    NA+41529  13.715   6.193  13.871
73136ION    NA+41530   7.038  39.618  12.578
73137ION    NA+41531  13.371  42.546  12.462
73138ION    NA+41532   4.475  23.909   1.612
73139ION    NA+41533   0.377  16.776  11.479
73140ION    NA+41534  32.258   6.932   2.911
73141ION    NA+41535  33.358  17.086   5.115
73142ION    NA+41536   4.360  42.017  13.971
73143ION    NA+41537  16.757   5.200  11.492
73144ION    NA+41538  44.382  28.069   3.735
73145ION    NA+41539   1.309   0.466   0.207
73146ION    NA+41540  29.894   4.541  14.183
73147ION    NA+41541  26.863  38.797   4.089
73148ION    NA+41542  35.400  36.899  12.533
73149ION    NA+41543   3.369  27.435  10.209
73150ION    NA+41544  24.875  14.409   4.246
73151ION    NA+41545   2.211  12.741  10.259
73152ION    NA+41546  39.218  33.768   3.631
73153ION    NA+41547  16.741  42.589   2.871
73154ION    NA+41548   9.216  26.497  12.174
73155ION    NA+41549  17.557  29.753  11.662
73156ION    NA+41550  36.512   9.635  11.990
73157ION    NA+41551  37.651   1.222  14.827
73158ION    NA+41552   8.872  44.494  12.327
73159ION    NA+41553  21.529  29.166  14.850
73160ION    NA+41554   4.163  28.129   1.805
73161ION    NA+41555  10.177  44.068  12.624
73162ION    NA+41556  30.142  24.727   1.654
73163ION    NA+41557  28.528  40.631  14.868
73164ION    NA+41558  34.032  41.898   0.054
73165ION    NA+41559   6.164  42.185  11.925
73166ION    NA+41560  19.082   3.707   1.508
73167ION    NA+41561  10.257  36.040   4.652
73168ION    NA+41562  41.254  12.959   0.242
73169ION    NA+41563  23.284  12.127   0.716
73170ION    NA+41564  25.923  42.337   0.454
73171ION    NA+41565  32.390  24.001   3.423
73172ION    NA+41566  20.100  41.579  13.350
73173ION    NA+41567   8.208   5.532  12.061
73174ION    NA+41568   6.060   4.830  13.200
73175ION    NA+41569  22.821  26.467   1.582
73176ION    NA+41570  17.677  16.346   3.081
73177ION    NA+41571  38.446  37.422   0.544
73178ION    NA+41572  32.069   9.910  10.704
73179ION    NA+41573  29.655  39.261  11.679
73180ION    NA+41574   6.805   5.310  10.780
73181ION    NA+41575   6.741   2.381   0.651
73182ION    NA+41576  35.819  17.191   4.631
73183ION    NA+41577   7.735   3.567  14.466
73184ION    NA+41578  18.961  30.395   4.882
73185ION    NA+41579  25.640  10.749   1.439
73186ION    NA+41580  35.951  21.140   2.445
73187ION    NA+41581  32.477  30.057   1.689
73188ION    NA+41582  38.945  15.101   3.373
73189ION    NA+41583  21.521  11.068   2.129
73190ION    NA+41584  26.145  27.767  10.281
73191ION    NA+41585   6.654  21.212  12.877
73192ION    NA+41586  37.325  38.896   4.461
73193ION    NA+41587  14.182  17.531  12.892
73194ION    NA+41588   4.986  12.576  11.576
73195ION    NA+41589  24.905  27.067   2.671
73196ION    NA+41590  25.554  35.445   0.952
73197ION    NA+41591  30.706  27.522  13.095
73198ION    NA+41592  16.575  32.535   1.460
73199ION    NA+41593  42.047  34.883  12.488
73200ION    NA+41594  28.297   0.958   1.185
73201ION    NA+41595  13.308  36.605   0.363
73202ION    NA+41596  35.079  13.511  11.453
73203ION    NA+41597   6.450  24.380   1.647
73204ION    NA+41598  38.959  37.266   4.710
73205ION    NA+41599  23.007   1.977   3.798
73206ION    NA+41600  17.387   5.395   3.231
73207ION    NA+41601  43.661  26.422   0.971
73208ION    NA+41602  13.720  12.229   2.154
73209ION    NA+41603  31.669  15.958  11.561
73210ION    NA+41604  11.600  16.429   1.923
73211ION    NA+41605  12.019   9.209   0.667
73212ION    NA+41606  12.025  42.961  14.739
73213ION    NA+41607  18.017  32.896   0.146
73214ION    NA+41608   0.428   3.470   2.202
73215ION    NA+41609  16.173  38.986   2.879
73216ION    NA+41610  44.163  35.700  13.449
73217ION    NA+41611  12.801   7.666  10.956
73218ION    NA+41612  21.410  32.798  13.337
73219ION    NA+41613  12.958  27.071  13.910
73220ION    NA+41614  28.654   1.549  10.824
73221ION    NA+41615   3.313   3.583   9.921
73222ION    NA+41616  40.203   2.675   4.217
73223ION    NA+41617   7.603  17.065  11.699
73224ION    NA+41618   8.374  16.852   3.845
73225ION    NA+41619  13.403  35.930  13.012
73226ION    NA+41620  36.853  26.285   1.958
73227ION    NA+41621  12.201  35.483  14.520
73228ION    NA+41622  30.709   6.728  13.371
73229ION    NA+41623   6.461   2.671   3.631
73230ION    NA+41624   8.472  28.089   4.287
73231ION    NA+41625  10.646  12.056  14.709
73232ION    NA+41626  18.161  32.448   1.423
73233ION    NA+41627  16.397   5.659   0.642
73234ION    NA+41628  42.345  28.199  13.095
73235ION    NA+41629  21.106  33.850   1.978
73236ION    NA+41630  24.165  44.132  13.991
73237ION    NA+41631  42.014  34.832  10.412
73238ION    NA+41632  18.221  43.579  11.041
73239ION    NA+41633  35.162  22.762   1.768
73240ION    NA+41634  25.931  36.857  14.887
73241ION    NA+41635  16.014  28.491  13.219
73242ION    NA+41636   5.432  18.372  11.732
73243ION    NA+41637  29.199  16.629  13.858
73244ION    NA+41638  19.420  28.542   1.546
73245ION    NA+41639  20.664  39.503  14.047
73246ION    NA+41640  15.401  14.076  14.918
73247ION    NA+41641  43.307  32.630   1.957
73248ION    NA+41642  10.353  22.644   3.993
73249ION    NA+41643  14.885   2.785   1.076
73250ION    NA+41644   9.067  33.133  11.528
73251ION    NA+41645  21.856  12.843  13.945
73252ION    NA+41646  11.649  26.009  12.893
73253ION    NA+41647  28.277  26.303   9.874
73254ION    NA+41648   1.131   4.762   4.695
73255ION    NA+41649  27.091  33.599  14.873
73256ION    NA+41650  33.195   1.304   0.916
73257ION    NA+41651   8.591  19.046  13.086
73258ION    NA+41652  42.813  35.484  11.202
73259ION    NA+41653  14.707   2.824   3.546
73260ION    NA+41654  35.871  41.802  11.567
73261ION    NA+41655  21.768  26.311  14.388
73262ION    NA+41656  21.199  33.130   3.591
73263ION    NA+41657  15.416  14.714  14.271
73264ION    NA+41658  17.813  32.125   4.526
73265ION    NA+41659  41.909   2.119   3.524
73266ION    NA+41660  28.330   9.320  14.642
73267ION    NA+41661  23.048  42.153  13.675
73268ION    NA+41662   3.811  30.891  13.898
73269ION    NA+41663   9.642  31.331  11.144
73270ION    NA+41664  38.613  29.903   1.235
73271ION    NA+41665  36.420   6.930   3.237
73272ION    NA+41666  30.483   6.505  11.093
73273ION    NA+41667  16.633   8.467   3.041
73274ION    NA+41668  14.831  34.113   9.901
73275ION    NA+41669  35.537  25.656   3.296
73276ION    NA+41670  30.014   1.785  10.589
73277ION    NA+41671  23.359   4.251   2.535
73278ION    NA+41672  18.695  39.555  11.062
73279ION    NA+41673   1.942  18.212  10.941
73280ION    NA+41674  43.917  29.048  11.018
73281ION    NA+41675  17.511  36.541  12.771
73282ION    NA+41676   3.629  35.869   1.976
73283ION    NA+41677  13.578  35.575   0.406
73284ION    NA+41678   5.379   9.408  11.994
73285ION    NA+41679  21.540   6.169   3.668
73286ION    NA+41680   2.623  14.927   4.600
73287ION    NA+41681   0.209   7.375  11.993
73288ION    NA+41682   4.485  21.890  12.970
73289ION    NA+41683  27.670  12.129   0.784
73290ION    NA+41684  22.068  42.800  11.877
73291ION    NA+41685  23.468  16.698   0.746
73292ION    NA+41686  44.721   9.082   1.894
73293ION    NA+41687  28.647  32.093   1.267
73294ION    NA+41688  30.603  27.775   2.620
73295ION    NA+41689  39.065   8.355  14.656
73296ION    NA+41690  34.579  23.954   0.680
73297ION    NA+41691  31.900  39.138   5.316
73298ION    NA+41692  31.640  28.636  10.725
73299ION    NA+41693  43.822  38.655   1.592
73300ION    NA+41694  24.478  11.796   0.376
73301ION    NA+41695   5.941   0.766  12.713
73302ION    NA+41696  42.292   1.211  12.589
73303ION    NA+41697   6.158  31.732  12.400
73304ION    NA+41698  34.456   3.375  13.231
73305ION    NA+41699  31.757   4.991   1.620
73306ION    NA+41700   1.275  29.954   2.410
73307ION    NA+41701  25.516  27.253   4.758
73308ION    NA+41702   5.388  43.807   1.440
73309ION    NA+41703  26.953  32.603   0.732
73310ION    NA+41704   8.137  44.439  14.773
73311ION    NA+41705  33.471  37.415  10.865
73312ION    NA+41706  14.060  27.269  14.867
73313ION    NA+41707   7.853  30.983  13.123
73314ION    NA+41708  12.368  27.375  10.997
73315ION    NA+41709  15.213   7.744   1.579
73316ION    NA+41710   7.553  29.834   4.670
73317ION    NA+41711  24.783  39.169  12.768
73318ION    NA+41712  21.288  28.374   1.233
73319ION    NA+41713   5.177  26.728   4.115
73320ION    NA+41714  15.360  19.182  11.841
73321ION    NA+41715  43.747  35.998  10.421
73322ION    NA+41716  22.240  26.141   2.371
73323ION    NA+41717  39.360   7.753   2.214
73324ION    NA+41718  27.251  11.940  14.130
73325ION    NA+41719  25.245  34.191   4.058
73326ION    NA+41720  33.585  11.116  10.766
73327ION    NA+41721   4.807  34.965   5.301
73328ION    NA+41722  30.066  14.386   3.743
73329ION    NA+41723  31.972  11.033   0.631
73330ION    NA+41724  41.329  33.792  14.759
73331ION    NA+41725  34.668  44.093   4.148
73332ION    NA+41726  24.519  10.843  12.002
73333ION    NA+41727  34.424  25.181   3.755
73334ION    NA+41728   4.733  18.553   1.931
73335ION    NA+41729  33.410  12.222  13.891
73336ION    NA+41730   8.820  43.449  12.214
73337ION    NA+41731  30.084   6.120   0.863
73338ION    NA+41732  34.519  21.948  10.925
73339ION    NA+41733  42.964  12.788  13.864
73340ION    NA+41734   0.716  34.396  11.445
73341ION    NA+41735  37.198  16.759   1.735
73342ION    NA+41736  34.217  12.791   2.463
73343ION    NA+41737  34.986  17.400  10.944
73344ION    NA+41738  15.217  25.123   4.661
73345ION    NA+41739  39.408  14.645  12.004
73346ION    NA+41740   0.021   2.595   2.660
73347ION    NA+41741  36.837  21.425  12.525
73348ION    NA+41742  23.807  44.569  13.165
73349ION    NA+41743  12.923  21.898  11.800
73350ION    NA+41744  33.650  15.896   0.697
73351ION    NA+41745  16.155  15.566   3.744
73352ION    NA+41746  29.626  32.612  12.748
73353ION    NA+41747   3.916  15.930  11.542
73354ION    NA+41748  35.490   9.631  14.540
73355ION    NA+41749   3.203  39.631  14.868
73356ION    NA+41750   4.849   6.204   2.845
73357ION    NA+41751  16.007   2.297   2.913
73358ION    NA+41752  36.922  29.497  13.582
73359ION    NA+41753  19.003  36.951  10.489
73360ION    NA+41754  32.385  29.145   2.820
73361ION    NA+41755  34.969  34.789  11.124
73362ION    NA+41756  18.865  13.729  12.798
73363ION    NA+41757  30.528  31.501  14.043
73364ION    NA+41758  32.290  25.063   2.937
73365ION    NA+41759  26.501   4.975  12.892
73366ION    NA+41760   8.582  34.528   2.653
73367ION    NA+41761  11.352  44.860   2.215
73368ION    NA+41762  32.933  25.008  13.804
73369ION    NA+41763  22.774   0.985  13.116
73370ION    NA+41764  42.876  16.127   1.441
73371ION    NA+41765   8.200  17.628   3.402
73372ION    NA+41766  42.959  18.131  13.453
73373ION    NA+41767  42.505   7.951  12.500
73374ION    NA+41768  40.382  21.685  12.071
73375ION    NA+41769  29.908   5.115   1.362
73376ION    NA+41770  25.387  26.061   4.661
73377ION    NA+41771  19.628   0.062  11.302
73378ION    NA+41772  23.852  44.641   1.296
73379ION    NA+41773  41.549  18.522  12.576
73380ION    NA+41774  18.428  42.132   4.255
73381ION    NA+41775  43.290  12.547   3.106
73382ION    NA+41776  24.278  30.257  13.834
73383ION    NA+41777   5.501   2.042  13.391
73384ION    NA+41778  37.860  44.926  12.380
73385ION    NA+41779   3.248  15.408   0.893
73386ION    NA+41780  14.591  23.717  14.309
73387ION    NA+41781   4.681  26.451   2.341
73388ION    NA+41782  41.259  23.845  13.785
73389ION    NA+41783  42.444  29.796   4.361
73390ION    NA+41784  15.338  27.949  14.330
73391ION    NA+41785   1.955  19.565   2.816
73392ION    NA+41786  37.444  37.599  12.018
73393ION    NA+41787  15.842  32.348  14.653
73394ION    NA+41788  31.126  27.168  14.517
73395ION    NA+41789  10.685   3.822  12.533
73396ION    NA+41790  30.204  22.018   3.486
73397ION    NA+41791  24.868  16.746  11.621
73398ION    NA+41792  40.423  10.317   4.030
73399ION    NA+41793   6.595  30.259   1.957
73400ION    NA+41794  17.505  37.233  10.449
73401ION    NA+41795  13.895  13.129  13.605
73402ION    NA+41796  38.197  24.888   4.444
73403ION    NA+41797  13.978  33.689   4.618
73404ION    NA+41798  15.124  14.647   1.644
73405ION    NA+41799  31.771   2.102   4.665
73406ION    NA+41800  30.346  37.640   2.682
73407ION    NA+41801  28.447  35.618   2.189
73408ION    NA+41802  13.706  37.110   1.396
73409ION    NA+41803  13.587  16.073  13.555
73410ION    NA+41804  18.194  31.398  12.833
73411ION    NA+41805  34.879  37.316  11.126
73412ION    NA+41806  12.702  37.465   3.893
73413ION    NA+41807   8.574  38.043   0.920
73414ION    NA+41808   7.260  20.016   2.161
73415ION    NA+41809  12.003  42.427   0.625
73416ION    NA+41810  12.782  35.565  11.337
73417ION    NA+41811  10.316  33.918   4.341
73418ION    NA+41812  42.203  23.008  12.741
73419ION    NA+41813  23.163  42.185   1.806
73420ION    NA+41814  27.007  15.729  12.296
73421ION    NA+41815  33.637  11.489   3.127
73422ION    NA+41816   9.840  12.277  10.701
73423ION    NA+41817   0.428   3.517   3.747
73424ION    NA+41818  33.573   3.624  12.714
73425ION    NA+41819  20.020  14.938  10.708
73426ION    NA+41820  34.241  44.262  10.037
73427ION    NA+41821  43.321   6.738  10.623
73428ION    NA+41822  14.208  24.558   2.396
73429ION    NA+41823  11.192   4.282   3.602
73430ION    NA+41824  11.344  34.684  12.414
73431ION    NA+41825  17.841  17.173   4.138
73432ION    NA+41826  29.895   6.158  14.836
73433ION    NA+41827  25.127   7.649   0.086
73434ION    NA+41828  30.519  18.754  12.409
73435ION    NA+41829  22.061  17.576   0.872
73436ION    NA+41830   2.101   7.188  11.091
73437ION    NA+41831  35.366   8.870  13.837
73438ION    NA+41832  17.281  35.549  12.968
73439ION    NA+41833  15.614  34.002  14.986
73440ION    NA+41834  26.164  19.752  11.313
73441ION    NA+41835  10.646  39.158  13.450
73442ION    NA+41836   1.392  23.500  14.289
73443ION    NA+41837  30.387  29.835  14.473
73444ION    NA+41838  33.548  11.374  11.959
73445ION    NA+41839  14.300   0.634  13.882
73446ION    NA+41840  27.246   5.950   3.654
73447ION    NA+41841  28.119  42.521  13.511
73448ION    NA+41842   1.057  10.271  10.773
73449ION    NA+41843  38.859  11.643  13.922
73450ION    NA+41844  24.334  26.097  11.073
73451ION    NA+41845  41.405  27.919  13.513
73452ION    NA+41846   1.815  18.798   1.729
73453ION    NA+41847  36.192  36.149   5.170
73454ION    NA+41848  40.467  40.208  12.521
73455ION    NA+41849   8.662  36.187   0.446
73456ION    NA+41850  34.643  29.560   1.198
73457ION    NA+41851  17.103  27.668   2.438
73458ION    NA+41852  17.693   1.388  12.932
73459ION    NA+41853  14.633  32.763   2.430
73460ION    NA+41854  24.248  20.578  10.675
73461ION    NA+41855  17.541   4.764  13.800
73462ION    NA+41856  36.915  22.570  13.284
73463ION    NA+41857  20.012   6.233   4.586
73464ION    NA+41858  25.745  14.011   3.955
73465ION    NA+41859  14.255  22.877  13.882
73466ION    NA+41860   9.934  41.936   3.960
73467ION    NA+41861  41.151  34.808  11.015
73468ION    NA+41862  12.494  35.756  13.434
73469ION    NA+41863  36.250  23.405   2.689
73470ION    NA+41864  31.451  15.555  14.904
73471ION    NA+41865   6.003  37.679  13.104
73472ION    NA+41866   4.530   6.289  13.479
73473ION    NA+41867   9.578  38.348   0.979
73474ION    NA+41868   1.734  22.990   1.496
73475ION    NA+41869  15.903   0.782  14.265
73476ION    NA+41870   8.915   2.899   3.100
73477ION    NA+41871  29.564   5.425   4.536
73478ION    NA+41872  30.950  14.481  13.316
73479ION    NA+41873   3.921  32.597  13.043
73480ION    NA+41874   9.611   3.192   2.598
73481ION    NA+41875  41.213  17.117  12.541
73482ION    NA+41876   8.774   4.644   3.533
73483ION    NA+41877  40.081  25.121   5.189
73484ION    NA+41878  44.212  36.309   2.162
73485ION    NA+41879  38.715  28.514   1.487
73486ION    NA+41880   1.564  15.905   0.769
73487ION    NA+41881  17.317   5.679   1.256
73488ION    NA+41882  33.857   7.787  14.514
73489ION    NA+41883  18.359  26.907   3.400
73490ION    NA+41884  16.223   5.491   4.092
73491ION    NA+41885  26.677  32.035  14.761
73492ION    NA+41886   0.767  32.056   1.295
73493ION    NA+41887   4.912  33.246   0.301
73494ION    NA+41888  23.913  15.002  11.609
73495ION    NA+41889   5.547  40.263  12.673
73496ION    NA+41890  11.212  22.995   2.363
73497ION    NA+41891  32.746  17.232   0.978
73498ION    NA+41892  28.870  42.871  14.304
73499ION    NA+41893  36.304   7.047   0.076
73500ION    NA+41894   7.940  11.599  12.572
73501ION    NA+41895   3.805   9.622   2.885
73502ION    NA+41896   1.275   2.848   4.660
73503ION    NA+41897  18.946  12.398   4.244
73504ION    NA+41898  19.858  29.485   0.959
73505ION    NA+41899  31.314  10.753   1.331
73506ION    NA+41900  31.109   1.254  11.046
73507ION    NA+41901  35.046   7.618   2.769
73508ION    NA+41902   5.958   1.282   1.666
73509ION    NA+41903  44.015  18.368  11.885
73510ION    NA+41904  32.615   8.647  10.687
73511ION    NA+41905  23.992  23.549  13.218
73512ION    NA+41906  21.740   3.380   3.822
73513ION    NA+41907   8.640   7.277  14.019
73514ION    NA+41908  13.140  40.792   1.411
73515ION    NA+41909  39.807  31.952   3.618
73516ION    NA+41910   1.353  37.507  14.467
73517ION    NA+41911  42.853  40.036   1.704
73518ION    NA+41912  38.043  14.363   3.955
73519ION    NA+41913  15.035  22.713   2.664
73520ION    NA+41914  36.981  17.240  12.525
73521ION    NA+41915  38.678   9.131  14.915
73522ION    NA+41916  41.501  41.221  12.038
73523ION    NA+41917  33.132  24.927  12.766
73524ION    NA+41918  12.170  39.837   2.771
73525ION    NA+41919  39.016  28.764   4.555
73526ION    NA+41920  35.010  34.631   2.354
73527ION    NA+41921   5.994  30.034   0.929
73528ION    NA+41922  31.968  10.623   2.305
73529ION    NA+41923  31.483  31.393   4.719
73530ION    NA+41924  44.257  25.460   4.601
73531ION    NA+41925  18.130  16.246  13.107
73532ION    NA+41926  31.789  20.937   4.844
73533ION    NA+41927  34.153  24.263  11.560
73534ION    NA+41928  32.128  20.035   5.111
73535ION    NA+41929  25.847  11.357  14.975
73536ION    NA+41930   0.994  27.003   0.788
73537ION    NA+41931   2.525   6.555  10.443
73538ION    NA+41932  30.154   9.578   2.069
73539ION    NA+41933  21.441  27.192   2.478
73540ION    NA+41934  21.260   3.425  11.519
73541ION    NA+41935  13.381  44.078  14.164
73542ION    NA+41936  24.463  20.609  13.267
73543ION    NA+41937   0.023  34.775  13.487
73544ION    NA+41938   5.160  23.696  12.009
73545ION    NA+41939  21.183   6.153   5.034
73546ION    NA+41940   4.205   7.161  11.837
73547ION    NA+41941  13.289   9.882  11.179
73548ION    NA+41942  35.109  25.914  14.938
73549ION    NA+41943   1.909  17.801   0.682
73550ION    NA+41944  26.513  14.961  12.284
73551ION    NA+41945  36.694  30.845  12.847
73552ION    NA+41946  40.807  28.190   0.479
73553ION    NA+41947  27.225  26.893  12.997
73554ION    NA+41948  12.211   3.298   2.468
73555ION    NA+41949   8.988  13.622   1.513
73556ION    NA+41950   5.074  10.301   9.724
73557ION    NA+41951  15.545  41.231   4.198
73558ION    NA+41952  36.901  33.830   0.247
73559ION    NA+41953  23.127  23.547   3.610
73560ION    NA+41954   6.936  22.266   2.287
73561ION    NA+41955   9.749  28.817  14.718
73562ION    NA+41956  23.336  34.714  13.457
73563ION    NA+41957  13.831  23.577  11.872
73564ION    NA+41958   6.320  17.433   0.231
73565ION    NA+41959  30.242  39.277   5.069
73566ION    NA+41960  26.182  16.877  11.213
73567ION    NA+41961  35.245  25.217   4.605
73568ION    NA+41962  43.048  20.105  14.010
73569ION    NA+41963  10.402   1.172  12.298
73570ION    NA+41964  38.841   3.806  12.877
73571ION    NA+41965  10.795   0.391   3.932
73572ION    NA+41966  11.153  19.164  11.111
73573ION    NA+41967   2.873  24.156   3.699
73574ION    NA+41968  17.937  40.328   1.694
73575ION    NA+41969  17.975  36.297  11.919
73576ION    NA+41970  18.640  23.879   2.925
73577ION    NA+41971  42.278  40.373   4.150
73578ION    NA+41972  44.470  35.208  11.223
73579ION    NA+41973  36.443  26.504  12.509
73580ION    NA+41974  41.657  26.380   5.217
73581ION    NA+41975  26.920  29.396   0.334
73582ION    NA+41976  18.630  42.783   0.908
73583ION    NA+41977   6.415  25.464   0.176
73584ION    NA+41978   5.708  31.345  13.546
73585ION    NA+41979   9.674  13.481   1.040
73586ION    NA+41980  11.271   3.880   1.834
73587ION    NA+41981  40.787  28.201  12.369
73588ION    NA+41982  25.244  38.322   3.280
73589ION    NA+41983  11.105  12.471   3.640
73590ION    NA+41984  17.556  20.115  12.885
73591ION    NA+41985  31.977  41.765   4.055
73592ION    NA+41986  43.414  22.523   3.592
73593ION    NA+41987  23.576  41.072  11.276
73594ION    NA+41988   9.578  23.102   3.321
73595ION    NA+41989  26.043  17.630   2.416
73596ION    NA+41990  43.415   3.678   2.716
73597ION    NA+41991  27.533  17.154   4.307
73598ION    NA+41992   1.319  15.083   3.147
73599ION    NA+41993   8.824  13.701  13.706
73600ION    NA+41994  37.142   6.344   0.726
73601ION    NA+41995  27.558  14.417  12.431
73602ION    NA+41996  13.863   0.631  12.553
73603ION    NA+41997   8.789  25.204   5.382
73604ION    NA+41998  22.973  29.084   2.607
73605ION    NA+41999  35.345  23.352   2.711
73606ION    NA+42000   5.129  40.598   3.257
73607ION    NA+42001  23.549   8.208   3.943
73608ION    NA+42002  27.418   0.280   4.142
73609ION    NA+42003  35.965  39.630  13.977
73610ION    NA+42004   9.339  25.619   2.870
73611ION    NA+42005  32.110  29.450   9.654
73612ION    NA+42006  44.593   6.957  12.661
73613ION    NA+42007  15.066  16.809   3.965
73614ION    NA+42008  22.925  29.073  13.087
73615ION    NA+42009  40.298   0.912   1.645
73616ION    NA+42010  42.153  10.484  12.955
73617ION    NA+42011  36.639  16.470   2.339
73618ION    NA+42012  24.708   7.836   3.796
73619ION    NA+42013  14.230   8.485  12.679
73620ION    NA+42014  29.422  36.321  14.231
73621ION    NA+42015  33.999   1.290   2.231
73622ION    NA+42016  27.714  30.113  11.681
73623ION    NA+42017  28.271  25.612   0.266
73624ION    NA+42018  23.612  18.855  12.835
73625ION    NA+42019   8.745  21.604  10.899
73626ION    NA+42020  35.085  21.570   3.903
73627ION    NA+42021  18.923  32.362  10.731
73628ION    NA+42022   0.431  34.980   3.554
73629ION    NA+42023  23.129  19.625  12.649
73630ION    NA+42024   1.970  36.680  11.426
73631ION    NA+42025  25.024  39.005  14.869
73632ION    NA+42026  34.111  36.860  12.859
73633ION    NA+42027   3.591  27.695   1.640
73634ION    NA+42028  22.994  13.416  11.035
73635ION    NA+42029   5.244   1.266  13.967
73636ION    NA+42030  11.329  10.476  11.372
73637ION    NA+42031  35.037  15.184  11.909
73638ION    NA+42032  42.498  29.882  14.798
73639ION    NA+42033  36.794  28.883  10.870
73640ION    NA+42034  25.735  13.141  10.742
73641ION    NA+42035  16.207   7.679   4.040
73642ION    NA+42036   3.872  43.957  10.531
73643ION    NA+42037  20.867   2.023  14.656
73644ION    NA+42038   1.875  23.457  11.629
73645ION    NA+42039  27.052  35.286   1.383
73646ION    NA+42040  10.290   7.112   4.045
73647ION    NA+42041  22.604  22.595  12.995
73648ION    NA+42042   4.350  30.959   0.302
73649ION    NA+42043  32.558  41.452   1.518
73650ION    NA+42044  21.636  15.544  12.969
73651ION    NA+42045   0.765  21.323  12.521
73652ION    NA+42046  32.280   5.709  13.476
73653ION    NA+42047  33.365   2.800  13.347
73654ION    NA+42048  20.190  25.550   3.883
73655ION    NA+42049  18.273   5.455   3.071
73656ION    NA+42050  27.866  37.224   9.625
73657ION    NA+42051  38.136  37.222  12.891
73658ION    NA+42052  42.939  31.109  10.925
73659ION    NA+42053  15.264  21.053   4.554
73660ION    NA+42054  28.300  13.478   2.734
73661ION    NA+42055  22.379  18.602   2.269
73662ION    NA+42056  24.222  18.151  12.839
73663ION    NA+42057  34.783  37.609   2.548
73664ION    NA+42058  39.374   4.416  10.925
73665ION    NA+42059   4.749  20.468   2.335
73666ION    NA+42060  28.119  38.076   4.389
73667ION    NA+42061  21.886  44.507  14.237
73668ION    NA+42062  34.597  43.216   4.433
73669ION    NA+42063   1.739  28.824   2.053
73670ION    NA+42064  34.282  34.742  13.326
73671ION    NA+42065   4.974  13.699   1.361
73672ION    NA+42066   9.169  10.980  13.144
73673ION    NA+42067  19.332  28.395   2.958
73674ION    NA+42068  29.693  20.095   4.820
73675ION    NA+42069  13.112  11.180   3.696
73676ION    NA+42070  11.740   9.218  11.677
73677ION    NA+42071  29.400  43.927  12.640
73678ION    NA+42072  44.966  37.133  10.890
73679ION    NA+42073  44.005   6.553  11.961
73680ION    NA+42074  19.875  44.748   1.769
73681ION    NA+42075  37.082  15.628  12.432
73682ION    NA+42076  31.528   9.517  11.448
73683ION    NA+42077  37.260   3.575   1.933
73684ION    NA+42078  41.425  30.186   3.116
73685ION    NA+42079  35.716   8.176   3.438
73686ION    NA+42080   6.399   9.623  11.957
73687ION    NA+42081  27.283  19.740  10.896
73688ION    NA+42082  44.121   0.969   4.133
73689ION    NA+42083  30.119  16.020  14.373
73690ION    NA+42084  44.018  23.462   1.164
73691ION    NA+42085  16.796  25.697  13.430
73692ION    NA+42086  43.761   8.056  14.038
73693ION    NA+42087  11.197  27.146  12.029
73694ION    NA+42088  37.469   9.584  12.864
73695ION    NA+42089  32.651  22.137   1.457
73696ION    NA+42090  20.772   0.231  11.191
73697ION    NA+42091  27.585  18.369  10.787
73698ION    NA+42092  39.317  12.644  14.772
73699ION    NA+42093  37.032   5.759   2.177
73700ION    NA+42094  39.876  42.855   4.429
73701ION    NA+42095   4.706   0.114   4.911
73702ION    NA+42096  37.627  25.063  12.914
73703ION    NA+42097   8.143  33.892  12.133
73704ION    NA+42098  26.328  37.960  10.757
73705ION    NA+42099   0.405  16.874   4.546
73706ION    NA+42100  40.522  24.135   2.620
73707ION    NA+42101  39.783  31.837  11.577
73708ION    NA+42102  12.905  40.276  10.821
73709ION    NA+42103  28.337   4.622  14.927
73710ION    NA+42104  43.865  32.841  10.665
73711ION    NA+42105  18.035  18.486   3.511
73712ION    NA+42106   5.265   8.620  11.290
73713ION    NA+42107  44.234   8.880  10.863
73714ION    NA+42108  30.217  31.773  10.498
73715ION    NA+42109  17.383  39.901   4.903
73716ION    NA+42110  36.268   3.665   3.060
73717ION    NA+42111  14.595  33.185   3.418
73718ION    NA+42112  35.558  10.198   0.718
73719ION    NA+42113  29.712  17.046   4.851
73720ION    NA+42114  14.789  39.349  12.363
73721ION    NA+42115  27.738  44.058   3.719
73722ION    NA+42116  38.097  10.162   2.033
73723ION    NA+42117  32.220  39.168   3.959
73724ION    NA+42118  16.187  43.763   0.781
73725ION    NA+42119  22.625   6.971   4.145
73726ION    NA+42120  38.705  18.300  10.953
73727ION    NA+42121  22.726  18.182  12.127
73728ION    NA+42122  32.998  34.856  12.375
73729ION    NA+42123  35.314  40.386   4.724
73730ION    NA+42124  15.402  43.920  11.567
73731ION    NA+42125   2.456   9.419   0.422
73732ION    NA+42126   0.370  13.139  12.598
73733ION    NA+42127  38.329  44.088   0.144
73734ION    NA+42128  13.052   8.767   4.020
73735ION    NA+42129  40.566   3.881  14.261
73736ION    CL-42130  21.783  23.248   0.226
73737ION    CL-42131  18.450   4.677   0.155
73738ION    CL-42132  33.800  14.078  14.818
73739ION    CL-42133  20.659  44.024   4.191
73740ION    CL-42134   1.225  14.866  12.741
73741ION    CL-42135  38.819  24.814  12.125
73742ION    CL-42136  20.114  39.367   2.839
73743ION    CL-42137  21.578  25.898  14.354
73744ION    CL-42138   2.803  43.058  14.053
73745ION    CL-42139   2.394   4.859  12.316
73746ION    CL-42140  29.882   4.615  14.625
73747ION    CL-42141  41.496  41.648  11.878
73748ION    CL-42142  41.507  27.161  12.238
73749ION    CL-42143  40.908  31.160  12.449
73750ION    CL-42144  13.026   6.376  11.052
73751ION    CL-42145  33.862  11.869   3.016
73752ION    CL-42146  18.106  41.316   3.684
73753ION    CL-42147  40.019   2.473   2.119
73754ION    CL-42148  26.065  34.047   2.788
73755ION    CL-42149  24.827  13.112   3.350
73756ION    CL-42150  31.682  12.825   0.994
73757ION    CL-42151   3.847  36.330   2.852
73758ION    CL-42152  26.030  19.021   3.261
73759ION    CL-42153  27.768  10.437  11.776
73760ION    CL-42154   5.348  13.231  14.354
73761ION    CL-42155  28.287  39.636  14.133
73762ION    CL-42156   7.776  27.931  12.871
73763ION    CL-42157  14.231  16.441   2.622
73764ION    CL-42158  24.551  32.683   0.585
73765ION    CL-42159  22.770   6.721   3.804
73766ION    CL-42160  35.847  20.603  11.767
73767ION    CL-42161  36.386  34.860   0.907
73768ION    CL-42162  10.681  15.601   1.285
73769ION    CL-42163  35.996  18.290  10.910
73770ION    CL-42164  26.100   7.837   2.225
73771ION    CL-42165  43.820  27.591   1.642
73772ION    CL-42166   7.695  31.372  13.278
73773ION    CL-42167  28.237  43.419   9.893
73774ION    CL-42168  25.011  44.469   0.251
73775ION    CL-42169  34.480   1.274  11.993
73776ION    CL-42170  11.880  26.141   0.060
73777ION    CL-42171  19.633  21.433   2.776
73778ION    CL-42172   2.037  25.363   4.037
73779ION    CL-42173  31.557   3.772  10.106
73780ION    CL-42174  34.297  43.116  13.894
73781ION    CL-42175  32.986   0.495  13.290
73782ION    CL-42176   7.474   9.847  12.028
73783ION    CL-42177  21.877  10.515  14.442
73784ION    CL-42178  10.011  36.998  11.140
73785ION    CL-42179  38.787   8.890  12.902
73786ION    CL-42180  37.783   1.756   1.858
73787ION    CL-42181   1.188  37.468  12.414
73788ION    CL-42182  36.296  22.118   2.861
73789ION    CL-42183   5.132  11.528  14.927
73790ION    CL-42184  14.063   0.389  14.185
73791ION    CL-42185  12.831   7.287  13.786
73792ION    CL-42186   9.455  44.293   0.791
73793ION    CL-42187   1.447   2.019   0.579
73794ION    CL-42188   7.258  34.717   3.008
73795ION    CL-42189  20.770  24.440   1.843
73796ION    CL-42190  16.354   5.481   0.230
73797ION    CL-42191  35.256  26.632   0.996
73798ION    CL-42192  42.800  18.103   2.249
73799ION    CL-42193  20.446  14.924  14.096
73800ION    CL-42194  13.161  43.422   3.788
73801ION    CL-42195   3.156  25.288  12.208
73802ION    CL-42196  13.350  19.980  13.093
73803ION    CL-42197  20.924  25.236  12.823
73804ION    CL-42198  27.575  40.843   2.606
73805ION    CL-42199  41.631  35.032  12.563
73806ION    CL-42200  41.775  14.630   2.748
73807ION    CL-42201   6.492  23.343   3.163
73808ION    CL-42202  38.634  18.782  13.029
73809ION    CL-42203  40.206  32.182   3.714
73810ION    CL-42204  12.422   9.134  13.532
73811ION    CL-42205  15.834  32.220   0.082
73812ION    CL-42206  28.220  32.430   0.161
73813ION    CL-42207   7.728  16.338  13.061
73814ION    CL-42208  38.257  30.107  13.781
73815ION    CL-42209   2.025  13.817  11.616
73816ION    CL-42210   7.794  19.140  10.789
73817ION    CL-42211  39.532  43.206  13.002
73818ION    CL-42212  42.935  33.916   4.136
73819ION    CL-42213  25.524  23.318  12.590
73820ION    CL-42214  29.196  26.576   3.667
73821ION    CL-42215   4.510  22.939   2.511
73822ION    CL-42216   3.781  28.994  14.114
73823ION    CL-42217  27.398   6.699   4.929
73824ION    CL-42218  43.714  15.083  12.909
73825ION    CL-42219   2.629  38.517  14.554
73826ION    CL-42220  29.669  43.983  13.004
73827ION    CL-42221  32.730   4.423   0.728
73828ION    CL-42222   4.065  16.180   1.551
73829ION    CL-42223  41.400  12.899  14.028
73830ION    CL-42224  34.075  28.511  12.459
73831ION    CL-42225  15.680  27.671  14.264
73832ION    CL-42226   7.026  14.041   2.244
73833ION    CL-42227  18.662  23.249   4.160
73834ION    CL-42228   4.931  15.027   5.391
73835ION    CL-42229  22.186  12.544  12.056
73836ION    CL-42230   5.255  31.945   0.181
73837ION    CL-42231   3.908  19.490  14.005
73838ION    CL-42232  18.305  26.049  13.060
73839ION    CL-42233  35.371  42.935  14.793
73840ION    CL-42234  43.599  42.498  13.820
73841ION    CL-42235  33.576  17.102  13.588
73842ION    CL-42236  27.088  20.322   4.494
73843ION    CL-42237   3.186  43.536   5.074
73844ION    CL-42238  20.690   6.733  14.636
73845ION    CL-42239  26.445   1.390  12.357
73846ION    CL-42240  41.865  19.130   4.630
73847ION    CL-42241  10.104  28.631  14.506
73848ION    CL-42242  17.851  36.444  13.049
73849ION    CL-42243  35.215  10.270   1.008
73850ION    CL-42244  10.960   9.524  10.649
73851ION    CL-42245  32.491   9.117   1.885
73852ION    CL-42246  14.565   0.946   3.626
73853ION    CL-42247  25.146  34.911   5.057
73854ION    CL-42248  40.358  20.695  13.039
73855ION    CL-42249   5.937  15.555  11.779
73856ION    CL-42250  35.114  15.406  11.520
73857ION    CL-42251  28.213   2.064   4.906
73858ION    CL-42252  17.551  29.042  10.647
73859ION    CL-42253   7.915  28.966   0.333
73860ION    CL-42254  23.762  10.366  11.073
73861ION    CL-42255  32.869  20.122  14.337
73862ION    CL-42256   6.659   7.252  14.513
73863ION    CL-42257  44.559  29.922  10.798
73864ION    CL-42258  39.914  13.280   4.246
73865ION    CL-42259  18.521   7.604  12.947
73866ION    CL-42260  26.212  36.432   3.711
73867ION    CL-42261  31.134  12.028  10.930
73868ION    CL-42262  32.622  30.987  13.889
73869ION    CL-42263   0.701  23.080  12.001
73870ION    CL-42264  38.321  34.044   1.516
73871ION    CL-42265   3.818   0.260   3.307
73872ION    CL-42266  11.759  32.600   3.662
73873ION    CL-42267  33.051   2.237   4.138
73874ION    CL-42268  28.483  10.994  10.774
73875ION    CL-42269  15.288  43.484  11.521
73876ION    CL-42270  23.248  35.490   1.481
73877ION    CL-42271  43.767  26.219   1.352
73878ION    CL-42272  31.148  40.171   0.527
73879ION    CL-42273  41.809  27.215   4.723
73880ION    CL-42274  38.517   8.471  10.345
73881ION    CL-42275   2.249  30.667  13.454
73882ION    CL-42276   9.724   9.189  10.987
73883ION    CL-42277   1.544  17.644   0.437
73884ION    CL-42278  26.227  19.431  13.683
73885ION    CL-42279   4.680  26.993  13.963
73886ION    CL-42280   0.938  41.031   0.265
73887ION    CL-42281  26.939  38.057   1.375
73888ION    CL-42282   9.904  21.624   1.664
73889ION    CL-42283  16.723  29.855  13.396
73890ION    CL-42284  11.335  22.143  13.974
73891ION    CL-42285  25.739  31.148   1.398
73892ION    CL-42286  15.795  36.146   3.601
73893ION    CL-42287  29.679  37.011  11.691
73894ION    CL-42288   5.840  22.694  13.196
73895ION    CL-42289  20.040  11.028   3.477
73896ION    CL-42290   1.113  24.693  13.607
73897ION    CL-42291  19.685  15.230  10.763
73898ION    CL-42292   9.809  23.501  12.493
73899ION    CL-42293  11.975  18.823   5.168
73900ION    CL-42294   0.299  20.025   1.785
73901ION    CL-42295  43.041  14.978  13.641
73902ION    CL-42296  42.541  35.045   4.489
73903ION    CL-42297  28.413  10.186   0.536
73904ION    CL-42298   5.004   4.421   0.851
73905ION    CL-42299   7.523  13.367   0.144
73906ION    CL-42300  29.675   8.726   4.965
73907ION    CL-42301  29.279  37.322  14.031
73908ION    CL-42302  24.447  10.826  14.389
73909ION    CL-42303  10.212   0.742  12.259
73910ION    CL-42304  13.823  15.054  12.679
73911ION    CL-42305  14.824  17.927   0.564
73912ION    CL-42306  14.322  29.056   3.324
73913ION    CL-42307   6.944   2.753   0.457
73914ION    CL-42308  43.692  38.192   2.970
73915ION    CL-42309  25.706  18.617  13.423
73916ION    CL-42310  24.199  25.783   0.317
73917ION    CL-42311   7.556  29.379   4.720
73918ION    CL-42312  27.677  33.286  11.112
73919ION    CL-42313  19.651  31.905   2.788
73920ION    CL-42314  22.415  23.737   4.608
73921ION    CL-42315  17.808  42.904  12.804
73922ION    CL-42316  12.895   8.047  10.751
73923ION    CL-42317  39.407  41.425   1.419
73924ION    CL-42318   1.633  15.631  13.751
73925ION    CL-42319  17.690  20.702  14.312
73926ION    CL-42320   6.047  40.252  14.881
73927ION    CL-42321  23.705   9.871   4.516
73928ION    CL-42322  17.025  34.022  14.463
73929ION    CL-42323  32.606  33.566  14.260
73930ION    CL-42324  23.152  16.729  11.084
73931ION    CL-42325  16.592  35.642  12.146
73932ION    CL-42326  33.495   2.384  13.244
73933ION    CL-42327  16.850  16.720  12.175
73934ION    CL-42328  41.922  25.964   4.756
73935ION    CL-42329  36.772  16.010   4.814
73936ION    CL-42330  25.067  39.251  11.016
73937ION    CL-42331  38.709  43.879   0.031
73938ION    CL-42332  36.587  27.219   2.659
73939ION    CL-42333  40.330  19.698  12.973
73940ION    CL-42334  27.063  24.194   0.378
73941ION    CL-42335  34.691  21.707   4.055
73942ION    CL-42336  27.293  16.063  12.398
73943ION    CL-42337  38.590   5.306   1.069
73944ION    CL-42338  44.658  30.271   4.913
73945ION    CL-42339  26.269  28.562   1.767
73946ION    CL-42340  25.707  13.836   3.546
73947ION    CL-42341  22.031  36.474  14.087
73948ION    CL-42342   3.599   9.566   1.110
73949ION    CL-42343   8.937  38.756  14.880
73950ION    CL-42344  20.642  13.801   2.083
73951ION    CL-42345  33.804  20.615   2.233
73952ION    CL-42346  15.485   8.179  10.765
73953ION    CL-42347  34.577  19.774   1.935
73954ION    CL-42348  23.998   4.149  12.030
73955ION    CL-42349  13.937  41.040   5.103
73956ION    CL-42350   2.466  25.036   3.403
73957ION    CL-42351  38.471  38.609   3.618
73958ION    CL-42352  44.213  42.983   1.414
73959ION    CL-42353  25.930  17.807   3.669
73960ION    CL-42354  12.687  35.829  11.682
73961ION    CL-42355  21.504  26.527  13.068
73962ION    CL-42356   0.699  14.857  10.251
73963ION    CL-42357  37.966  22.148  13.892
73964ION    CL-42358   2.922  21.481  13.937
73965ION    CL-42359  43.394  16.843   3.754
73966ION    CL-42360   4.050  42.984   2.249
73967ION    CL-42361  11.251  26.628  10.331
73968ION    CL-42362   1.260  38.926   2.657
73969ION    CL-42363   1.866   3.877   1.875
73970ION    CL-42364  27.351  10.030   3.722
73971ION    CL-42365  33.098  15.098   3.677
73972ION    CL-42366   0.490  11.218   3.421
73973ION    CL-42367  39.166  39.961  14.942
73974ION    CL-42368  27.097  23.520  12.686
73975ION    CL-42369  38.873  40.322   4.602
73976ION    CL-42370   5.334  10.400  11.311
73977ION    CL-42371  36.568   6.310   4.909
73978ION    CL-42372  25.950  40.328  13.549
73979ION    CL-42373   7.477  35.197  10.722
73980ION    CL-42374   3.300  17.309  11.548
73981ION    CL-42375  24.550  30.182   5.032
73982ION    CL-42376  16.655  41.611   4.163
73983ION    CL-42377  43.564  42.715  14.811
73984ION    CL-42378  13.410  35.271   0.124
73985ION    CL-42379   9.854  40.010   2.597
73986ION    CL-42380  37.810  37.853  12.056
73987ION    CL-42381  20.789  33.832   0.351
73988ION    CL-42382  12.658  31.032  13.728
73989ION    CL-42383   4.018  31.925   1.074
73990ION    CL-42384  20.403  34.667  12.082
73991ION    CL-42385  32.171   4.181   0.083
73992ION    CL-42386   0.694  39.906  10.511
73993ION    CL-42387   5.768   4.009   1.349
73994ION    CL-42388  15.810  16.556   2.203
73995ION    CL-42389  13.957  13.608   4.530
73996ION    CL-42390  22.888  35.973  13.662
73997ION    CL-42391   8.215   3.757   1.338
73998ION    CL-42392  19.918  11.711   2.566
73999ION    CL-42393  32.475  22.595  12.936
74000ION    CL-42394  39.641  43.125   2.550
74001ION    CL-42395  24.325  12.791  14.492
74002ION    CL-42396  33.187  41.105   3.179
74003ION    CL-42397  36.399  11.724  10.727
74004ION    CL-42398  32.504  26.156   3.686
74005ION    CL-42399  34.484   2.668   1.374
74006ION    CL-42400   1.905  39.984  14.446
74007ION    CL-42401  12.046  13.290   0.772
74008ION    CL-42402  18.004  41.113   4.686
74009ION    CL-42403  14.882  41.213  12.397
74010ION    CL-42404  40.195  20.926  10.743
74011ION    CL-42405   0.043  31.169   3.953
74012ION    CL-42406  23.461  28.274   0.325
74013ION    CL-42407  29.978  20.728  13.539
74014ION    CL-42408  34.895   4.979  13.493
74015ION    CL-42409  37.831   9.862  10.353
74016ION    CL-42410  22.770  26.208   4.277
74017ION    CL-42411  43.090   0.152  11.295
74018ION    CL-42412  39.511  28.626  14.336
74019ION    CL-42413  30.301  20.535   3.884
74020ION    CL-42414  41.073  20.644   3.384
74021ION    CL-42415   4.318  21.511   0.340
74022ION    CL-42416  18.016  12.819   1.121
74023ION    CL-42417  16.397  10.306   4.027
74024ION    CL-42418  12.557  38.664   5.161
74025ION    CL-42419  19.029   9.022   3.116
74026ION    CL-42420  19.564   9.336  14.209
74027ION    CL-42421  34.838  42.341  13.329
74028ION    CL-42422  36.779  13.290   0.296
74029ION    CL-42423  42.006  22.963  13.141
74030ION    CL-42424  30.014   9.126   1.999
74031ION    CL-42425   5.846  18.888   1.383
74032ION    CL-42426   3.660  44.559   1.288
74033ION    CL-42427  30.288  32.844   1.772
74034ION    CL-42428  35.113  41.025   3.892
74035ION    CL-42429   8.607  32.015  13.535
74036ION    CL-42430  13.359   3.022  12.789
74037ION    CL-42431   3.246  27.420   1.785
74038ION    CL-42432  11.784  20.131   0.505
74039ION    CL-42433   8.674  18.163   1.372
74040ION    CL-42434  15.299   4.924  14.473
74041ION    CL-42435  10.157  30.832   0.633
74042ION    CL-42436  16.850  35.368   5.115
74043ION    CL-42437   9.353  13.735   1.243
74044ION    CL-42438   9.336  37.392  12.019
74045ION    CL-42439   5.772  38.782   2.661
74046ION    CL-42440  34.562  22.380  11.031
74047ION    CL-42441   0.077  13.379   4.002
74048ION    CL-42442  39.363  17.022  12.700
74049ION    CL-42443  27.142  41.138  10.503
74050ION    CL-42444  33.303  26.288  12.362
74051ION    CL-42445  17.709   3.017   4.948
74052ION    CL-42446  41.329  40.188  14.448
74053ION    CL-42447   1.631  43.620  13.046
74054ION    CL-42448  30.052  33.024   4.158
74055ION    CL-42449  28.887  26.007  14.115
74056ION    CL-42450  20.684   5.117  12.555
74057ION    CL-42451   0.864  18.263   0.830
74058ION    CL-42452  18.339  14.561  13.951
74059ION    CL-42453  11.350  11.400   3.032
74060ION    CL-42454   0.406  29.190   4.136
74061ION    CL-42455  20.660  15.847  13.775
74062ION    CL-42456  31.164  20.769   3.721
74063ION    CL-42457  36.998  16.510   2.058
74064ION    CL-42458  32.973  35.963  11.115
74065ION    CL-42459  20.365  29.414  13.785
74066ION    CL-42460  24.762  39.633  12.770
74067ION    CL-42461  16.486  44.057  12.041
74068ION    CL-42462  26.763  30.128  10.364
74069ION    CL-42463  27.902  12.511   0.691
74070ION    CL-42464  18.772  24.039   3.321
74071ION    CL-42465   5.419  27.095   4.036
74072ION    CL-42466   9.456   5.584  11.586
74073ION    CL-42467  20.078  44.551   1.419
74074ION    CL-42468  31.308  28.839   1.390
74075ION    CL-42469  17.657  22.787   2.747
74076ION    CL-42470  29.481  35.131   4.252
74077ION    CL-42471   3.651  22.066   3.674
74078ION    CL-42472  38.633  19.957  11.722
74079ION    CL-42473   4.882  20.624  11.755
74080ION    CL-42474  26.664  42.679   1.387
74081ION    CL-42475  26.510  43.955   0.070
74082ION    CL-42476  40.031  14.266   3.174
74083ION    CL-42477  34.889  24.513  14.406
74084ION    CL-42478  22.830  21.654  13.903
74085ION    CL-42479   5.683  11.329   3.685
74086ION    CL-42480   0.266   2.784  14.867
74087ION    CL-42481  12.986  43.053   1.742
74088ION    CL-42482  23.803  14.683  11.941
74089ION    CL-42483   9.729  28.792   1.989
74090ION    CL-42484  38.139   1.401  13.162
74091ION    CL-42485   8.328  10.194  12.416
74092ION    CL-42486  22.248  23.215   1.729
74093ION    CL-42487   6.372   0.742  12.594
74094ION    CL-42488  26.673   6.875   1.762
74095ION    CL-42489   9.457  26.067   4.584
74096ION    CL-42490  25.591  43.575   3.933
74097ION    CL-42491   0.690  16.585  14.378
74098ION    CL-42492   9.328   7.771  14.780
74099ION    CL-42493  26.748  33.599  14.561
74100ION    CL-42494   9.456  43.049   3.257
74101ION    CL-42495  18.767  16.695  11.522
74102ION    CL-42496  44.344  19.367   4.225
74103ION    CL-42497   4.755   2.570  11.560
74104ION    CL-42498  41.459   3.345  10.934
74105ION    CL-42499  39.860  44.747  13.127
74106ION    CL-42500  13.637  29.658  10.716
74107ION    CL-42501  38.241  12.357   1.575
74108ION    CL-42502  27.184  32.621  13.794
74109ION    CL-42503  42.473  38.966  12.588
74110ION    CL-42504   4.877  30.416   2.896
74111ION    CL-42505  16.080  12.120  12.013
74112ION    CL-42506  35.651  28.398  14.112
74113ION    CL-42507  44.824  36.290   0.535
74114ION    CL-42508  26.915  19.218   4.959
74115ION    CL-42509   5.548  20.563   4.138
74116ION    CL-42510   4.251   6.572  10.336
74117ION    CL-42511  39.120   7.822   2.595
74118ION    CL-42512  31.903  19.384  11.593
74119ION    CL-42513  43.142  10.098  12.712
74120ION    CL-42514   5.542   6.979   1.688
74121ION    CL-42515  22.655  22.670   2.461
74122ION    CL-42516   8.495   3.824   0.318
74123ION    CL-42517  44.835  39.546  13.032
74124ION    CL-42518  44.826  42.231  12.652
74125ION    CL-42519  35.344  17.659  10.843
74126ION    CL-42520  16.721   5.617  11.314
74127ION    CL-42521  17.302  28.077   2.366
74128ION    CL-42522  22.826  35.656   4.746
74129ION    CL-42523  41.628  37.686   2.144
74130ION    CL-42524   3.219   1.055   3.216
74131ION    CL-42525   9.983  31.151  14.701
74132ION    CL-42526   5.642  15.264  12.689
74133ION    CL-42527  44.777  31.894   0.072
74134ION    CL-42528  34.843  40.340  14.360
74135ION    CL-42529  40.132   4.871   4.979
74136ION    CL-42530  44.414  36.606   2.468
74137ION    CL-42531  18.068  18.944   9.732
74138ION    CL-42532  29.079  29.468  12.944
74139ION    CL-42533  42.417  20.818   3.605
74140ION    CL-42534   4.912   0.705  12.819
74141ION    CL-42535  16.947  44.861   0.356
74142ION    CL-42536   0.626  44.470   0.834
74143ION    CL-42537  21.339  32.505  12.995
74144ION    CL-42538  39.915  28.174   0.953
74145ION    CL-42539  33.186  31.791   3.287
74146ION    CL-42540  15.064  16.912   4.410
74147ION    CL-42541   1.454   7.442   0.587
74148ION    CL-42542  42.517   7.598  12.217
74149ION    CL-42543  40.044  38.374   4.518
74150ION    CL-42544   9.003   2.217  13.393
74151ION    CL-42545  23.998  34.609  12.361
74152ION    CL-42546  22.020  39.371  14.198
74153ION    CL-42547  43.388  25.411   3.254
74154ION    CL-42548  22.427  31.435  11.647
74155ION    CL-42549  14.837  13.174   0.829
74156ION    CL-42550  23.920  22.831   4.088
74157ION    CL-42551  28.115  32.478  14.129
74158ION    CL-42552  31.169  32.751   1.710
74159ION    CL-42553  17.521   2.832   2.311
74160ION    CL-42554  20.252   8.983  11.130
74161ION    CL-42555  22.173  28.330  11.622
74162ION    CL-42556  37.218  33.847   0.580
74163ION    CL-42557  10.133  29.948  14.372
74164ION    CL-42558  25.944  41.120  13.988
74165ION    CL-42559  13.618  42.788  12.178
74166ION    CL-42560  13.795  42.385   2.966
74167ION    CL-42561  33.962  32.568   1.155
74168ION    CL-42562  32.856   2.654   5.106
74169ION    CL-42563  35.630   5.674  11.944
74170ION    CL-42564  24.321  35.945   4.629
74171ION    CL-42565  11.694  15.126  12.766
74172ION    CL-42566  23.876  14.635   4.991
74173ION    CL-42567  44.914  42.044  14.944
74174ION    CL-42568   3.846  10.061   2.821
74175ION    CL-42569   9.447   1.596   4.077
74176ION    CL-42570  30.605  18.104  14.731
74177ION    CL-42571   9.600   1.103  13.923
74178ION    CL-42572  19.214  26.424  12.876
74179ION    CL-42573  26.696  15.383  12.344
74180ION    CL-42574   5.894   4.962   0.766
74181ION    CL-42575  20.384  25.703   0.265
74182ION    CL-42576  35.653  19.857   1.988
74183ION    CL-42577  16.507  32.153   3.052
74184ION    CL-42578  34.251  20.870   4.382
74185ION    CL-42579  42.885  42.068  13.464
74186ION    CL-42580  24.710  23.719  12.169
74187ION    CL-42581   4.133   4.474   0.363
74188ION    CL-42582   8.266  36.976   1.456
74189ION    CL-42583  20.862   1.729  11.547
74190ION    CL-42584  39.574  27.672   3.143
74191ION    CL-42585   1.808  26.898   2.504
74192ION    CL-42586  15.405   0.382   3.195
74193ION    CL-42587  42.510   9.176   4.359
74194ION    CL-42588   6.704   0.827  10.858
74195ION    CL-42589   9.324  44.281   3.725
74196ION    CL-42590   1.662  23.123  14.244
74197ION    CL-42591  24.941  13.807   2.262
74198ION    CL-42592  24.669  23.555   4.285
74199ION    CL-42593  26.261  31.217   3.253
74200ION    CL-42594   9.908  21.776  11.989
74201ION    CL-42595  31.040  33.050  13.721
74202ION    CL-42596  14.447   0.416   0.019
74203ION    CL-42597  26.738   2.435   9.921
74204ION    CL-42598   2.577  20.771  11.427
74205ION    CL-42599  21.474  33.112   0.465
74206ION    CL-42600  15.921  21.480   2.380
74207ION    CL-42601  24.363  42.090   5.383
74208ION    CL-42602   4.042  24.228   3.883
74209ION    CL-42603  44.860  30.179  12.995
74210ION    CL-42604  43.499   5.365   2.870
74211ION    CL-42605  37.415  23.984  12.390
74212ION    CL-42606  31.896  32.038  12.543
74213ION    CL-42607   8.598   6.824  14.039
74214ION    CL-42608  17.265   0.264  10.770
74215ION    CL-42609  11.132  36.512   3.696
74216ION    CL-42610  39.071   6.279  14.999
74217ION    CL-42611  38.158   7.168   5.100
74218ION    CL-42612  21.941  26.669  14.611
74219ION    CL-42613   7.511  20.164   5.159
74220ION    CL-42614  39.430   4.747  11.221
74221ION    CL-42615  20.520  31.851  13.323
74222ION    CL-42616  24.262   7.758  11.615
74223ION    CL-42617  16.872  27.386   2.128
74224ION    CL-42618  23.953  26.433   9.788
74225ION    CL-42619   2.996  19.503  12.085
74226ION    CL-42620  39.114  26.701   4.639
74227ION    CL-42621  23.233   1.075   0.285
74228ION    CL-42622  20.206   1.879   4.405
74229ION    CL-42623  17.226  38.439   4.577
74230ION    CL-42624  30.883  44.379  14.691
74231ION    CL-42625   7.685  23.185  13.039
74232ION    CL-42626  23.326   9.166  13.595
74233ION    CL-42627  23.922   5.961  12.869
74234ION    CL-42628   1.392  44.836  12.654
74235ION    CL-42629  14.352  43.835  13.157
74236ION    CL-42630  35.506  29.016   4.400
74237ION    CL-42631  27.544  22.706  12.190
74238ION    CL-42632  15.840  23.678   0.562
74239ION    CL-42633  37.017  30.904  13.163
74240ION    CL-42634  17.825   5.517   3.222
74241ION    CL-42635  32.587  12.776  14.707
74242ION    CL-42636   4.834  31.789  14.459
74243ION    CL-42637   8.358   6.573   1.669
74244ION    CL-42638  34.285  31.718   2.225
74245ION    CL-42639   4.937  34.834   9.774
74246ION    CL-42640   3.128   2.534  10.239
74247ION    CL-42641  31.458  42.275   2.307
74248ION    CL-42642  16.523  42.968   2.743
74249ION    CL-42643   9.857  10.958  14.079
74250ION    CL-42644  26.436  27.097  14.099
74251ION    CL-42645  29.913  30.932   0.320
74252ION    CL-42646  15.336  36.919  13.493
74253ION    CL-42647  23.092  33.850  12.540
74254ION    CL-42648  44.749  40.586  14.085
74255ION    CL-42649  41.304  13.288   0.582
74256ION    CL-42650  23.480  24.888   0.753
74257ION    CL-42651  17.477  17.934  11.613
74258ION    CL-42652   6.395  38.422  10.885
74259ION    CL-42653  23.549  22.286  13.613
74260ION    CL-42654  18.462  42.534   0.562
74261ION    CL-42655   4.448  18.147   3.068
74262ION    CL-42656   5.760  17.087  13.071
74263ION    CL-42657  25.171  27.548   4.786
74264ION    CL-42658  37.352  35.101  13.609
74265ION    CL-42659  30.423  39.949   2.846
74266ION    CL-42660  39.594  38.455  13.012
74267ION    CL-42661  20.715  31.845  11.198
74268ION    CL-42662  13.455  12.302  11.039
74269ION    CL-42663  30.859   1.760  14.746
74270ION    CL-42664  35.842  16.329  11.158
74271ION    CL-42665   0.979  20.014   0.903
74272ION    CL-42666  22.098   0.608   4.084
74273ION    CL-42667   5.739   4.529  13.116
74274ION    CL-42668   8.895  39.582   0.444
74275ION    CL-42669  37.349  17.471  12.383
74276ION    CL-42670  32.813  23.362  13.137
74277ION    CL-42671  16.842   1.469   4.904
74278ION    CL-42672  17.835  19.969   2.369
74279ION    CL-42673   3.016   2.854   3.219
74280ION    CL-42674  44.115  40.280  14.850
74281ION    CL-42675   3.352  10.027  10.798
74282ION    CL-42676  33.624  44.370  14.896
74283ION    CL-42677  20.423  36.997   0.510
74284ION    CL-42678   8.820  21.628   3.564
74285ION    CL-42679  17.727  23.135   4.495
74286ION    CL-42680  18.652  36.663   3.237
74287ION    CL-42681  12.640   6.205  11.959
74288ION    CL-42682  31.660   3.608  12.175
74289ION    CL-42683  39.732  27.445  12.486
74290ION    CL-42684  29.471  16.268   0.468
74291ION    CL-42685  12.379  13.969   1.426
74292ION    CL-42686  28.592   8.067  13.601
74293ION    CL-42687  16.003   1.253  10.654
74294ION    CL-42688   8.318  34.819   2.439
74295ION    CL-42689   4.150  18.243  11.503
74296ION    CL-42690  23.046  15.625   0.911
74297ION    CL-42691   6.381  30.656   1.990
74298ION    CL-42692  18.748   9.101   0.744
74299ION    CL-42693   6.301   2.492  13.936
74300ION    CL-42694  26.588  34.275  10.496
74301ION    CL-42695  15.316  14.234   1.591
74302ION    CL-42696   5.480  28.140  14.244
74303ION    CL-42697   6.867  15.129   1.372
74304ION    CL-42698  35.872  23.516   5.086
74305ION    CL-42699  29.553  23.010  14.505
74306ION    CL-42700  11.350  19.401   0.844
74307ION    CL-42701  35.987  31.950  12.160
74308ION    CL-42702  25.609  23.587  11.575
74309ION    CL-42703  21.298  19.369   5.143
74310ION    CL-42704   8.582   1.194   4.379
74311ION    CL-42705  21.995  35.765  13.258
74312ION    CL-42706  31.702  34.483  11.036
74313ION    CL-42707   6.428  26.077  12.085
74314ION    CL-42708  38.939   1.092   4.144
74315ION    CL-42709  28.061  23.844   0.945
74316ION    CL-42710  26.023  23.120  10.701
74317ION    CL-42711  30.518  27.717   2.183
74318ION    CL-42712   0.342   1.702  11.166
74319ION    CL-42713   5.811   6.136   1.475
74320ION    CL-42714  39.989   7.299  12.889
74321ION    CL-42715  32.801   4.055   3.137
74322ION    CL-42716   2.197  28.727   2.091
74323ION    CL-42717  21.544  27.526  13.012
74324ION    CL-42718  18.864  42.957   1.260
74325ION    CL-42719   8.155  32.497  12.076
74326ION    CL-42720  12.622  21.673  11.546
74327ION    CL-42721  25.923  44.700   0.591
74328ION    CL-42722  44.858  14.410   4.499
74329ION    CL-42723   6.788   2.650  12.214
74330ION    CL-42724  43.051  18.147   4.071
74331ION    CL-42725   2.555  31.149  12.062
74332ION    CL-42726  22.476  18.961  10.387
74333ION    CL-42727  38.527  43.677  11.572
74334ION    CL-42728  42.942   4.771   2.155
74335ION    CL-42729   8.172  37.872   0.830
74336ION    CL-42730   8.723  19.472  13.045
74337ION    CL-42731  32.674  33.940   2.344
74338ION    CL-42732  32.847  39.821   3.040
74339ION    CL-42733  24.605  41.011  12.665
74340ION    CL-42734  15.138  24.932  12.489
74341ION    CL-42735   7.587  16.907   9.820
74342ION    CL-42736  36.028   3.381  12.281
74343ION    CL-42737  38.420  37.576  12.873
74344ION    CL-42738   0.758  25.577  10.752
74345ION    CL-42739  41.749   2.155  11.572
74346ION    CL-42740  27.063  43.094   4.345
74347ION    CL-42741  36.478  41.158   9.938
74348ION    CL-42742  43.790  17.639  14.003
74349ION    CL-42743   9.253   3.040   2.834
74350ION    CL-42744  43.685   2.622  10.364
74351ION    CL-42745  28.757  24.698  14.257
74352ION    CL-42746  39.319  36.604  14.830
74353ION    CL-42747  17.254  33.847  11.517
74354ION    CL-42748  24.652   6.480  12.655
74355ION    CL-42749  10.511   7.258   3.684
74356ION    CL-42750  19.143   3.864  11.883
74357ION    CL-42751  20.282  43.315   2.244
74358ION    CL-42752  40.367   1.733   2.727
74359ION    CL-42753  28.556  13.369   3.095
74360ION    CL-42754  24.232  42.239   2.738
74361ION    CL-42755   0.026  22.075   1.318
74362ION    CL-42756  37.998  29.961   2.890
74363ION    CL-42757   2.249  43.887  14.132
74364ION    CL-42758  35.539  32.971  11.537
74365ION    CL-42759   8.269  17.233   3.620
74366ION    CL-42760  21.674  37.550   9.916
74367ION    CL-42761   1.790  22.317   4.821
74368ION    CL-42762  17.979  40.335   3.535
74369ION    CL-42763  15.463  17.038   3.947
74370ION    CL-42764  24.642  18.016  12.734
74371ION    CL-42765  21.675   1.408  14.004
74372ION    CL-42766  36.387  28.326  12.534
74373ION    CL-42767  35.034  30.660  11.736
74374ION    CL-42768  30.666  42.218  14.590
74375ION    CL-42769  35.760  41.955  13.286
74376ION    CL-42770  38.836  28.596  12.454
74377ION    CL-42771  11.031  12.699   3.263
74378ION    CL-42772  35.103  33.002   3.838
74379ION    CL-42773  19.099  13.558   0.890
74380ION    CL-42774  17.618  39.903  14.281
74381ION    CL-42775  38.706  11.264  14.103
74382ION    CL-42776  27.317  14.469  12.031
74383ION    CL-42777  29.931  17.962   0.569
74384ION    CL-42778  26.397  27.798  10.670
74385ION    CL-42779  40.860  27.727   1.525
74386ION    CL-42780  32.423   5.426  13.159
74387ION    CL-42781  21.333  22.603  14.608
74388ION    CL-42782  38.817  37.039  11.686
74389ION    CL-42783  23.943  44.184  12.962
74390ION    CL-42784   0.405  31.066  10.527
74391ION    CL-42785  32.872   1.647  11.174
74392ION    CL-42786  39.781  35.851  13.413
74393ION    CL-42787  12.090  37.341   0.688
74394ION    CL-42788   1.628  13.910   0.997
74395ION    CL-42789   8.176  32.605  10.089
74396ION    CL-42790   3.934  38.494  14.594
74397ION    CL-42791  37.369  37.538  10.728
74398ION    CL-42792  39.864   6.453  13.416
74399ION    CL-42793   6.014  25.184  13.839
74400ION    CL-42794   0.781  22.350   5.512
74401ION    CL-42795  23.553   1.313   4.583
74402ION    CL-42796  42.264   4.422  10.978
74403ION    CL-42797   1.537  28.863   2.477
74404ION    CL-42798  30.314   6.152   2.670
74405ION    CL-42799  34.515  15.177   4.400
74406ION    CL-42800  23.095   4.364   2.886
74407ION    CL-42801  12.370   8.942   0.744
74408ION    CL-42802  33.789  33.369  14.814
74409ION    CL-42803  37.340  19.528  12.409
74410ION    CL-42804   2.685  28.203   3.852
74411ION    CL-42805  15.106   8.168   1.674
74412ION    CL-42806  44.928  15.503   2.378
74413ION    CL-42807  27.507  14.604  12.857
74414ION    CL-42808   9.674  32.500   2.181
74415ION    CL-42809  43.475   6.420   1.193
74416ION    CL-42810   0.539  25.554  11.727
74417ION    CL-42811  21.584  23.290  11.497
74418ION    CL-42812  23.003   9.117   4.577
74419ION    CL-42813   7.416  27.710  11.609
74420ION    CL-42814  14.142  44.446  10.427
74421ION    CL-42815  16.150  29.464   3.741
74422ION    CL-42816  31.255   0.336   4.489
74423ION    CL-42817  19.056  28.724   1.730
74424ION    CL-42818  33.625   4.274   3.726
74425ION    CL-42819  22.964  31.961  14.333
74426ION    CL-42820  26.904  30.458   3.681
74427ION    CL-42821  15.727  24.029  14.755
74428ION    CL-42822   0.741   4.460   1.845
74429ION    CL-42823   8.686  33.825  14.295
74430ION    CL-42824  26.147  33.500  12.040
74431ION    CL-42825  40.565  12.507   9.616
74432ION    CL-42826  12.040  32.720   1.876
74433ION    CL-42827  37.059  17.983   0.076
74434ION    CL-42828  37.701  28.253   4.143
74435ION    CL-42829   8.689  19.146   4.975
74436ION    CL-42830  33.572  24.104  10.751
74437ION    CL-42831   2.436   6.242  12.124
74438ION    CL-42832  17.758  13.554   3.642
74439ION    CL-42833  18.685   2.903  11.744
74440ION    CL-42834   2.457  24.286   0.748
74441ION    CL-42835   1.198   3.369   0.657
74442ION    CL-42836  19.643  44.682  13.745
74443ION    CL-42837  19.377  37.017  11.498
74444ION    CL-42838  36.987   7.153   4.863
74445ION    CL-42839   4.699  26.338  14.835
74446ION    CL-42840   6.117  11.517   1.671
74447ION    CL-42841  17.973   7.581   5.173
74448ION    CL-42842   5.367  16.724   3.545
74449ION    CL-42843   0.731  23.319  14.472
74450ION    CL-42844  18.746  40.966  10.396
74451ION    CL-42845   0.943  36.294   0.044
74452ION    CL-42846  38.879   1.040   3.147
74453ION    CL-42847   9.389  29.725  13.438
74454ION    CL-42848   9.464  20.081   3.598
74455ION    CL-42849   4.618  21.654  13.324
74456ION    CL-42850  26.284  34.011   1.721
74457ION    CL-42851  40.000  16.179  13.522
74458ION    CL-42852  23.097   4.381   0.213
74459ION    CL-42853  33.208   6.766  12.733
74460ION    CL-42854  21.249  34.142   3.259
74461ION    CL-42855  20.321  12.059  13.858
74462ION    CL-42856  11.811  18.757  11.994
74463ION    CL-42857  26.793  23.627  14.359
74464ION    CL-42858   6.969  42.853   3.612
74465ION    CL-42859  13.122  17.067  12.048
74466ION    CL-42860  22.227  11.733  10.665
74467ION    CL-42861  34.563  12.397   0.337
74468ION    CL-42862   6.527   4.893   4.307
74469ION    CL-42863   6.695  11.793  10.786
74470ION    CL-42864  10.676   5.890  12.201
74471ION    CL-42865   2.658  26.171   4.837
74472ION    CL-42866  35.927  29.809   4.255
74473ION    CL-42867  32.021   6.677   3.202
74474ION    CL-42868  16.442   1.979  11.896
74475ION    CL-42869  34.909  38.978   3.672
74476ION    CL-42870  13.524   0.350   1.640
74477ION    CL-42871  39.488   5.534   2.843
74478ION    CL-42872  39.771   8.510  12.934
74479ION    CL-42873  23.153   1.164  13.273
74480ION    CL-42874  21.079  17.638   1.639
74481ION    CL-42875  37.337  41.037   0.110
74482ION    CL-42876  16.747  23.731  13.366
74483ION    CL-42877  42.734  12.429  10.627
74484ION    CL-42878  33.445  43.552  14.348
74485ION    CL-42879  42.448  21.210  14.742
74486ION    CL-42880  25.600  44.407   2.363
74487ION    CL-42881  14.244  40.545  14.953
74488ION    CL-42882  43.976   4.528   1.301
74489ION    CL-42883  15.841   4.463   3.487
74490ION    CL-42884   0.358  14.589   1.493
74491ION    CL-42885  34.921  20.926  13.381
74492ION    CL-42886  31.609  42.808   0.909
74493ION    CL-42887  30.153   9.876   1.701
74494ION    CL-42888  12.764  36.153   2.532
74495ION    CL-42889  13.171  40.877  11.928
74496ION    CL-42890  44.747   7.319   0.967
74497ION    CL-42891  43.373  17.744  10.797
74498ION    CL-42892   4.047  16.693  12.684
74499ION    CL-42893   7.637  35.661  12.301
74500ION    CL-42894   2.982  44.245   3.172
74501ION    CL-42895   2.764   9.188  10.295
74502ION    CL-42896  40.759  20.177   2.229
74503ION    CL-42897  38.991   7.620  11.075
74504ION    CL-42898  13.939  15.954  12.235
74505ION    CL-42899  20.619  21.261  12.379
74506ION    CL-42900   4.267  11.023   9.938
74507ION    CL-42901  27.181  13.227  12.920
74508ION    CL-42902  23.831   8.491   1.272
74509ION    CL-42903  23.330  19.226  12.755
74510ION    CL-42904  27.179  21.041   2.347
74511ION    CL-42905  15.148   5.455  12.042
74512ION    CL-42906  34.782  11.800  12.054
74513ION    CL-42907   6.401  24.018  14.018
74514ION    CL-42908  35.635   1.617   3.134
74515ION    CL-42909  36.622   8.436  12.570
74516ION    CL-42910  23.669  33.975   2.994
74517ION    CL-42911  35.797  23.393   2.692
74518ION    CL-42912  18.711   0.241   2.724
74519ION    CL-42913  34.126   9.357  12.075
74520ION    CL-42914  32.157  39.746   2.450
74521ION    CL-42915  14.057  31.400  11.180
74522ION    CL-42916  39.099   2.707   3.645
74523ION    CL-42917   5.776  21.839  11.653
74524ION    CL-42918   0.443  26.133   0.987
74525ION    CL-42919  28.180  15.590  14.407
74526ION    CL-42920  27.603   3.191   2.955
74527ION    CL-42921  10.278  34.920  10.884
74528ION    CL-42922   5.194  39.045  10.788
74529ION    CL-42923  44.310   6.358   4.767
74530ION    CL-42924  11.114  18.457   0.512
74531ION    CL-42925  20.329  27.168  13.139
74532ION    CL-42926  14.519  42.507  10.612
74533ION    CL-42927  38.882  40.769   1.961
74534ION    CL-42928  14.618   1.566   2.975
74535ION    CL-42929  39.898  35.040   0.661
74536ION    CL-42930  30.968  13.943   0.902
74537ION    CL-42931  30.174  15.369   0.604
74538ION    CL-42932  16.814   7.631  10.797
74539ION    CL-42933   5.854  22.244   1.679
74540ION    CL-42934   7.674  24.216   2.353
74541ION    CL-42935  40.182  32.794   2.329
74542ION    CL-42936  15.281  17.849   9.793
74543ION    CL-42937  34.891  24.969   4.776
74544ION    CL-42938  27.806  39.862   4.612
74545ION    CL-42939   4.952  25.521   0.124
74546ION    CL-42940  11.426  42.694   3.325
74547ION    CL-42941  27.486  10.065  12.661
74548ION    CL-42942   6.665   1.964   0.811
74549ION    CL-42943  24.685   2.984   0.986
74550ION    CL-42944  25.540  32.628   0.450
74551ION    CL-42945  31.319  13.008   9.901
74552ION    CL-42946  14.833  30.262   1.205
74553ION    CL-42947  17.271  30.556   0.981
74554ION    CL-42948   9.417  38.742   0.818
74555ION    CL-42949  44.748  44.257  14.051
74556ION    CL-42950   1.164  12.293   1.519
74557ION    CL-42951   4.917  37.347   0.309
74558ION    CL-42952  34.615  42.757   4.428
74559ION    CL-42953  40.835   0.434   3.249
74560ION    CL-42954  23.948   2.330  12.940
74561ION    CL-42955  10.612   7.309   4.737
74562ION    CL-42956  22.562  10.833   3.288
74563ION    CL-42957  12.091   6.028  11.118
74564ION    CL-42958  36.968  13.776  11.371
74565ION    CL-42959  15.617  37.910  11.963
74566ION    CL-42960  19.814  37.941  13.919
74567ION    CL-42961  34.695  16.634  13.390
74568ION    CL-42962  18.320  19.594   1.185
74569ION    CL-42963  28.225   2.373   2.846
74570ION    CL-42964  35.845  16.544   1.011
74571ION    CL-42965   3.349   4.026   4.280
74572ION    CL-42966  35.441  30.958   3.393
74573ION    CL-42967  14.657  30.720   2.755
74574ION    CL-42968  13.955  44.324   3.814
74575ION    CL-42969  36.453  31.570  14.357
74576ION    CL-42970  42.834  24.176   2.780
74577ION    CL-42971   5.062  43.421   4.964
74578ION    CL-42972  21.788   1.918  12.843
74579ION    CL-42973  25.343  30.791   2.848
74580ION    CL-42974  12.096  43.010  12.239
74581ION    CL-42975   2.250  30.989   1.765
74582ION    CL-42976   5.387  13.268  10.350
74583ION    CL-42977   4.815  40.278   1.660
74584ION    CL-42978  24.104  19.820   3.624
74585ION    CL-42979  23.934  23.899   9.910
74586ION    CL-42980  32.060  37.553  13.852
74587ION    CL-42981  19.664  34.630  10.963
74588ION    CL-42982   3.598  38.525   3.249
74589ION    CL-42983  10.057  27.303   3.823
74590ION    CL-42984  35.344  35.600  13.884
74591ION    CL-42985   6.628   2.825   3.247
74592ION    CL-42986  28.565   3.937   3.005
74593ION    CL-42987  14.841  17.289   5.309
74594ION    CL-42988   3.669  39.516   3.134
74595ION    CL-42989   9.300   7.406   3.134
74596ION    CL-42990  26.786  19.493   1.870
74597ION    CL-42991   8.823   5.060   3.378
74598ION    CL-42992   7.958   9.833  14.654
74599ION    CL-42993  21.211  40.054   3.634
74600ION    CL-42994   7.335   3.382   3.683
74601ION    CL-42995  30.208  32.863  14.013
74602ION    CL-42996  41.728  15.206  10.896
74603ION    CL-42997   8.230  43.367  13.489
74604ION    CL-42998  12.135   0.573  13.889
74605ION    CL-42999  42.321   5.433  14.345
74606ION    CL-43000   4.034   7.290  12.245
74607ION    CL-43001  31.845   5.964   2.828
74608ION    CL-43002   7.467  36.424   3.959
74609ION    CL-43003   5.946   5.013   3.762
74610ION    CL-43004  39.386   4.688   2.267
74611ION    CL-43005  32.612  31.653   0.274
74612ION    CL-43006  24.146  39.042   5.004
74613ION    CL-43007  13.188  44.129  14.564
74614ION    CL-43008  17.707  35.943  11.899
74615ION    CL-43009  17.743   7.420   0.386
74616ION    CL-43010  39.392  15.021   3.320
74617ION    CL-43011  17.391  27.046  12.358
74618ION    CL-43012   3.000  23.038  14.023
74619ION    CL-43013   2.291   6.040  14.883
74620ION    CL-43014  17.031  19.962  11.216
74621ION    CL-43015  27.066  10.819   2.205
74622ION    CL-43016   0.120  26.300  12.245
74623ION    CL-43017  39.591  30.315   3.206
74624ION    CL-43018   9.594   1.873   2.126
74625ION    CL-43019   8.982  40.502   3.149
74626ION    CL-43020  19.141  40.746  13.846
74627ION    CL-43021  37.921  31.865   1.335
74628ION    CL-43022  32.488   2.974  14.610
74629ION    CL-43023  11.479  34.563   4.579
74630ION    CL-43024  13.208  20.451  10.325
74631ION    CL-43025  20.021   6.535   0.353
74632ION    CL-43026  33.780   5.347   1.935
74633ION    CL-43027  25.998  22.125   3.812
74634ION    CL-43028  40.494  21.863   4.244
74635ION    CL-43029  14.261  39.011   2.207
74636ION    CL-43030  42.377   8.432  11.154
74637ION    CL-43031  35.889  37.944  13.819
74638ION    CL-43032  18.011   3.436  11.869
74639ION    CL-43033  35.911  12.322   0.433
74640ION    CL-43034   6.916   9.148  11.243
74641ION    CL-43035  27.848   0.916  14.941
74642ION    CL-43036  41.415  40.855  12.296
74643ION    CL-43037  39.004   6.775   2.670
74644ION    CL-43038  34.798  22.048   0.409
74645ION    CL-43039  26.173  12.735  14.773
74646ION    CL-43040   2.822  33.775   1.865
74647ION    CL-43041  17.511  14.084   2.947
74648ION    CL-43042  33.280  16.836  14.657
74649ION    CL-43043  29.941  31.992   4.111
74650ION    CL-43044  12.288  14.315  14.524
74651ION    CL-43045  34.640  29.943   0.970
74652ION    CL-43046   7.924  42.885  12.668
74653ION    CL-43047  40.881   2.776   3.215
74654ION    CL-43048  28.366   9.165  14.218
74655ION    CL-43049   4.734  37.292  11.340
74656ION    CL-43050  26.914  29.439  10.981
74657ION    CL-43051   7.918  37.148  11.995
74658ION    CL-43052   4.619  11.756   3.686
74659ION    CL-43053  15.675  19.583   2.215
74660ION    CL-43054  38.433  28.252   1.245
74661ION    CL-43055  35.312  18.229  11.632
74662ION    CL-43056   5.925  12.034  13.452
74663ION    CL-43057  39.594  23.579  13.959
74664ION    CL-43058  22.123  25.786   3.411
74665ION    CL-43059  43.838  23.379   4.579
74666ION    CL-43060  31.980  23.959  13.351
74667ION    CL-43061  31.375   5.007   3.870
74668ION    CL-43062  38.089   1.146  14.886
74669ION    CL-43063  12.580  19.527  11.140
74670ION    CL-43064  27.927  18.671   1.106
74671ION    CL-43065  44.930   8.790   2.158
74672ION    CL-43066  26.926   5.659   3.501
74673ION    CL-43067   5.896   4.857   1.864
74674ION    CL-43068  30.966  22.161  13.474
74675ION    CL-43069  13.597   7.062   1.143
74676ION    CL-43070   4.318  11.163   1.849
74677ION    CL-43071  36.495  29.309  12.226
74678ION    CL-43072  37.782  18.712   2.383
74679ION    CL-43073  29.679  35.375  10.293
74680ION    CL-43074  33.152  33.967   1.413
74681ION    CL-43075  39.726  39.582  11.004
74682ION    CL-43076   6.418  41.483  13.096
74683ION    CL-43077  34.086  44.879  13.570
74684ION    CL-43078  31.594  36.788   1.178
74685ION    CL-43079   2.862  37.499   1.864
74686ION    CL-43080  12.655   3.226   2.537
74687ION    CL-43081  12.071  12.731   3.307
74688ION    CL-43082  13.628  36.267   3.196
74689ION    CL-43083  31.981  22.472   2.224
74690ION    CL-43084  29.438  19.936   4.436
74691ION    CL-43085   4.705   7.419  14.204
74692ION    CL-43086  16.138   8.958  13.982
74693ION    CL-43087  23.492  37.283   4.889
74694ION    CL-43088   7.589   8.794   2.747
74695ION    CL-43089   1.532  16.282   1.870
74696ION    CL-43090  38.658  19.010  12.043
74697ION    CL-43091  16.452   8.587  12.847
74698ION    CL-43092  27.609  23.633  11.823
74699ION    CL-43093  35.369  27.947   2.531
74700ION    CL-43094  29.754   1.344  11.473
74701ION    CL-43095  32.915  38.008   0.873
74702ION    CL-43096  24.694  23.250   2.156
74703ION    CL-43097   8.238  38.627   4.084
74704ION    CL-43098  43.650  25.872  11.156
74705ION    CL-43099  16.307  20.770  10.595
74706ION    CL-43100  34.427  37.629   2.830
74707ION    CL-43101  15.188  18.085   1.615
74708ION    CL-43102   5.731  36.389  13.434
74709ION    CL-43103   0.804  16.971   0.455
74710ION    CL-43104  42.176  35.174   0.429
74711ION    CL-43105  19.312  39.541   1.049
74712ION    CL-43106   8.624   7.998  13.076
74713ION    CL-43107  13.689  19.336   3.354
74714ION    CL-43108  26.539  14.630  11.959
74715ION    CL-43109  43.446  39.182   2.783
74716ION    CL-43110   3.506  40.607   4.142
74717ION    CL-43111  26.137  19.006  14.584
74718ION    CL-43112  18.630  21.688  13.024
74719ION    CL-43113  24.505   1.525   1.258
74720ION    CL-43114  33.305   6.997   0.776
74721ION    CL-43115   8.776  32.572  14.932
74722ION    CL-43116  38.029  17.119  14.473
74723ION    CL-43117  14.459  34.640   0.668
74724ION    CL-43118  10.602  38.097   2.063
74725ION    CL-43119  22.198   1.053  10.364
74726ION    CL-43120  16.893   6.394  12.060
74727ION    CL-43121  18.759   5.320  12.126
74728ION    CL-43122  18.001  31.195  12.487
74729ION    CL-43123  39.520  24.718   1.747
74730ION    CL-43124  29.221  26.184  12.074
74731ION    CL-43125  32.369  28.209  11.364
74732ION    CL-43126  35.766  24.681  10.667
74733ION    CL-43127  44.409  26.960   2.171
74734ION    CL-43128  35.179  10.770  12.321
74735ION    CL-43129  25.521  16.036   4.449
74736ION    CL-43130  28.958  27.375   0.448
74737ION    CL-43131  23.110  42.072  13.241
74738ION    CL-43132  39.108  12.349  12.975
74739ION    CL-43133  43.090  11.821  11.798
74740ION    CL-43134   6.093  42.065  12.350
74741ION    CL-43135  19.269  12.937  11.139
74742ION    CL-43136   5.403  27.953   0.223
74743ION    CL-43137  21.496  35.335  14.927
74744ION    CL-43138  28.008  38.672  14.870
74745ION    CL-43139   3.432   5.837  14.211
74746ION    CL-43140  11.755  17.472   0.454
74747ION    CL-43141   7.664  16.107   2.309
74748ION    CL-43142   4.905   1.883   1.734
74749ION    CL-43143  19.258   8.576   4.963
74750ION    CL-43144  29.886  12.616   1.759
74751ION    CL-43145  15.434  30.395  11.086
74752ION    CL-43146  28.205  24.857  12.409
74753ION    CL-43147   0.771   3.614   4.017
74754ION    CL-43148  12.924  40.332  11.271
74755ION    CL-43149  25.942  33.204  14.737
74756ION    CL-43150  10.924   7.200   0.261
74757ION    CL-43151  26.790  21.790  11.655
74758ION    CL-43152  16.730  13.137   3.672
74759ION    CL-43153  33.474  43.427  11.813
74760ION    CL-43154  35.929  17.651   4.633
74761ION    CL-43155  16.652  42.012   0.373
74762ION    CL-43156  19.049   1.265   4.226
74763ION    CL-43157  38.022  33.900   3.742
74764ION    CL-43158  39.589  12.866  14.495
74765ION    CL-43159  28.165   9.414   0.108
74766ION    CL-43160  11.700  22.715  11.700
74767ION    CL-43161   6.278  25.261  14.801
74768ION    CL-43162  38.033   6.220  10.531
74769ION    CL-43163  10.072  31.360  11.290
74770ION    CL-43164  29.185  32.621  10.614
74771ION    CL-43165   0.989  29.214  11.236
74772ION    CL-43166  33.273  38.547  11.607
74773ION    CL-43167  31.121   2.513  11.030
74774ION    CL-43168  23.298  35.166  13.431
74775ION    CL-43169  18.257  12.585   2.063
74776ION    CL-43170  33.678  23.506  13.625
74777ION    CL-43171   1.657  25.167   3.368
74778ION    CL-43172  23.155  14.206   4.449
74779ION    CL-43173  28.126  38.114  13.421
74780ION    CL-43174  20.903  21.790   0.896
74781ION    CL-43175  38.484  32.836  14.557
74782ION    CL-43176  37.265   5.659   3.679
74783ION    CL-43177  10.741   2.212   4.474
74784ION    CL-43178  12.283   9.172   5.002
74785ION    CL-43179  33.652  25.098   2.725
74786ION    CL-43180  20.992  34.494  13.695
74787ION    CL-43181  13.219   1.067   1.173
74788ION    CL-43182  43.642  15.892   3.572
74789ION    CL-43183  39.869  16.634  12.042
74790ION    CL-43184  13.657  28.613   2.349
74791ION    CL-43185  28.036  18.240   1.898
74792ION    CL-43186  25.642  22.533  14.991
74793ION    CL-43187  33.431  15.004  14.733
74794ION    CL-43188  29.695  20.538   4.999
74795ION    CL-43189  36.065   4.259  13.818
74796ION    CL-43190  28.644  15.144  10.969
74797ION    CL-43191  27.435  33.894   0.584
74798ION    CL-43192  21.322  43.722  12.462
74799ION    CL-43193   2.042  34.010  10.745
74800ION    CL-43194   3.839  12.708   3.705
74801ION    CL-43195  12.663  20.694  12.545
74802ION    CL-43196  11.624  37.534   5.174
74803ION    CL-43197   2.953  35.067   4.964
74804ION    CL-43198  30.224  31.734  10.038
74805ION    CL-43199  29.505  31.193  12.891
74806ION    CL-43200  15.253  14.684  11.967
74807ION    CL-43201   2.306  25.301  10.736
74808ION    CL-43202  31.627  17.634  13.212
74809ION    CL-43203   3.202  17.608   2.611
74810ION    CL-43204   2.192  43.001  10.381
74811ION    CL-43205  23.971  13.741  14.177
74812ION    CL-43206  18.865  30.129   2.696
74813ION    CL-43207   9.946   3.930  13.530
74814ION    CL-43208  24.542  15.566   0.839
74815ION    CL-43209  15.862  27.212  12.549
74816ION    CL-43210  10.045  11.556   2.973
74817ION    CL-43211   9.875  43.883   2.599
74818ION    CL-43212  32.703  26.108  11.062
74819ION    CL-43213  35.431  40.142   0.212
74820ION    CL-43214   0.328  26.953  13.510
74821ION    CL-43215  43.420  19.562  10.770
74822ION    CL-43216   1.452  23.958  14.219
74823ION    CL-43217  38.458  43.977  14.068
74824ION    CL-43218  43.022   0.871  10.604
74825ION    CL-43219   6.723   4.674   3.491
74826ION    CL-43220  32.309  19.054   1.518
74827ION    CL-43221  33.010  19.278   3.249
74828ION    CL-43222  18.570  13.599  14.352
74829ION    CL-43223  15.008  22.091   1.442
74830ION    CL-43224  36.574   2.462  10.757
74831ION    CL-43225  18.440   2.797  14.617
74832ION    CL-43226  44.631  14.709  11.419
74833ION    CL-43227   8.920   7.396   1.585
74834ION    CL-43228  26.128  24.765  14.394
74835ION    CL-43229  18.615  24.727   0.476
74836ION    CL-43230  14.758  11.649   3.564
74837ION    CL-43231  27.306  33.491  13.563
74838ION    CL-43232   0.415  18.718   0.013
74839ION    CL-43233  11.124  26.115   4.844
74840ION    CL-43234  24.576  23.121  10.798
74841ION    CL-43235  41.313  44.333   3.845
74842ION    CL-43236  11.144  19.230  13.925
74843ION    CL-43237  37.248  30.518   3.248
74844ION    CL-43238  21.698  27.492   2.269
74845ION    CL-43239  25.862  19.466  11.476
74846ION    CL-43240   8.922  10.608  13.105
74847ION    CL-43241  34.546  20.595   0.333
74848ION    CL-43242  36.545  29.416   9.945
74849ION    CL-43243  15.007  29.486  13.268
74850ION    CL-43244  31.173  37.904   0.416
74851ION    CL-43245   7.994  16.864  11.785
74852ION    CL-43246  11.385   7.471   4.124
74853ION    CL-43247  11.778  11.579   5.050
74854ION    CL-43248   2.243  19.934  11.477
74855ION    CL-43249  22.315  21.385  11.842
74856ION    CL-43250   3.816   1.072  12.986
74857ION    CL-43251   0.527  35.385   3.372
74858ION    CL-43252  24.948  42.854  10.752
74859ION    CL-43253  42.048  16.200   3.735
74860ION    CL-43254   4.349  36.298  13.598
74861ION    CL-43255  34.883  14.647  13.971
74862ION    CL-43256  23.718  14.551   3.619
74863ION    CL-43257  26.608  34.199  11.492
74864ION    CL-43258  12.692  11.987   0.892
74865ION    CL-43259  44.959  20.563  12.908
74866ION    CL-43260  33.075  42.295  14.272
74867ION    CL-43261   0.715  18.425   3.328
74868ION    CL-43262  40.424   3.005   4.432
74869ION    CL-43263   5.043   6.660  10.968
74870ION    CL-43264  39.664   7.723   1.874
74871ION    CL-43265  32.866  44.277  11.638
74872ION    CL-43266   4.687   5.503  11.641
74873ION    CL-43267  38.376  12.039   4.522
74874ION    CL-43268   9.771  25.117  11.922
74875ION    CL-43269  18.325  23.764  14.388
74876ION    CL-43270  19.331   7.768  12.384
74877ION    CL-43271  35.967  26.728   5.071
74878ION    CL-43272  24.912  11.689   0.382
74879ION    CL-43273   7.303   0.419   4.609
74880ION    CL-43274  26.007  35.819   2.255
74881ION    CL-43275  28.452   6.705   2.094
74882ION    CL-43276  22.449  15.303   3.744
74883ION    CL-43277  14.460  27.085   2.916
74884ION    CL-43278  21.184  33.702  11.478
74885ION    CL-43279   2.488  39.557   1.784
74886ION    CL-43280  21.085  23.009  10.640
74887ION    CL-43281   0.914  30.992  11.694
74888ION    CL-43282  37.427   2.984  10.741
74889ION    CL-43283  22.357  18.941   2.599
74890ION    CL-43284  11.845   6.885  11.572
74891ION    CL-43285  27.292  13.303  14.513
74892ION    CL-43286  41.311  41.924  13.824
74893ION    CL-43287   6.619  16.259   0.889
74894ION    CL-43288  29.194  35.231  13.864
74895ION    CL-43289  34.625  30.377  14.717
74896ION    CL-43290  31.629   5.466  11.165
74897ION    CL-43291   5.135  11.336  10.077
74898ION    CL-43292  41.425   5.820   3.577
74899ION    CL-43293  31.290  18.084  13.913
74900ION    CL-43294   7.851   2.646  12.917
74901ION    CL-43295   2.440  35.190   3.707
74902ION    CL-43296  40.782  11.583  12.926
74903ION    CL-43297  11.300  11.471   3.935
74904ION    CL-43298  22.198  19.040  13.600
74905ION    CL-43299  29.846   4.595  12.767
74906ION    CL-43300   1.391  13.839  14.595
74907ION    CL-43301  34.136  19.668  13.797
74908ION    CL-43302  29.989  12.826  12.610
74909ION    CL-43303   7.112  35.981  11.224
74910ION    CL-43304  41.252  32.387  12.376
74911ION    CL-43305  25.126  43.522  13.922
74912ION    CL-43306   6.556  16.322   3.560
74913ION    CL-43307  30.607  31.121   2.225
74914ION    CL-43308   2.322  25.844  11.601
74915ION    CL-43309   1.943  40.604   0.247
74916ION    CL-43310   9.169  27.516  13.851
74917ION    CL-43311   3.415   2.471   2.351
74918ION    CL-43312  21.210   8.760   3.259
74919ION    CL-43313  30.965  39.389  12.814
74920ION    CL-43314  28.485  12.179  10.734
74921ION    CL-43315  25.806   6.506   1.428
74922ION    CL-43316  29.892  32.804  13.066
74923ION    CL-43317   6.343  37.711   2.923
74924ION    CL-43318  43.045  30.964   0.723
74925ION    CL-43319  34.899  15.420   0.715
74926ION    CL-43320  35.713  16.436  14.875
74927ION    CL-43321  43.497  36.912   3.984
74928ION    CL-43322  18.731  27.089   3.567
74929ION    CL-43323  15.660   5.214   0.898
74930ION    CL-43324  30.379  24.669  11.730
74931ION    CL-43325  20.885  10.132   1.323
74932ION    CL-43326  19.966  40.835   2.207
74933ION    CL-43327   7.339   2.801  10.761
74934ION    CL-43328  30.422  42.507  13.664
74935ION    CL-43329  29.387  42.363   1.013
74936ION    CL-43330  32.897  39.354   1.393
74937ION    CL-43331   2.130  22.782   1.517
74938ION    CL-43332  19.851   8.253   2.060
74939ION    CL-43333  38.800  32.324   4.589
74940ION    CL-43334  38.118  11.303  13.095
74941ION    CL-43335  22.166   3.943   2.115
74942ION    CL-43336  27.555  39.321  10.760
74943ION    CL-43337  41.868  29.437  11.288
74944ION    CL-43338  24.641   9.541   1.097
74945ION    CL-43339  31.885  31.928   0.904
74946ION    CL-43340  17.052  12.692   2.536
74947ION    CL-43341   4.493  28.005  14.332
74948ION    CL-43342  26.593   1.995  13.140
74949ION    CL-43343   3.798  28.104   1.526
74950ION    CL-43344  16.700  21.107  12.454
74951ION    CL-43345  24.055  14.622  10.652
74952ION    CL-43346  38.812   7.360  12.506
74953ION    CL-43347  43.040  43.000   3.639
74954ION    CL-43348  21.873  11.346   2.141
74955ION    CL-43349   0.713  13.670   0.676
74956ION    CL-43350   6.470   8.748   1.758
74957ION    CL-43351  13.792  27.564  11.658
74958ION    CL-43352  21.513  10.634  11.603
74959ION    CL-43353  14.362  20.623  11.726
74960ION    CL-43354  16.751  39.454  11.885
74961ION    CL-43355   3.230  26.211  11.381
74962ION    CL-43356  32.164  19.326   3.779
74963ION    CL-43357  13.145  32.286  14.412
74964ION    CL-43358  30.672   5.370   3.226
74965ION    CL-43359  37.332  28.598   1.916
74966ION    CL-43360  14.310  27.519   3.942
74967ION    CL-43361   2.157  40.551  10.643
74968ION    CL-43362  33.119  24.732  12.364
74969ION    CL-43363  27.989  25.841   2.870
74970ION    CL-43364  43.750  12.512   3.104
74971ION    CL-43365  24.945  30.919  14.339
74972ION    CL-43366   9.209  12.885   4.907
74973ION    CL-43367  32.846  15.069   4.540
74974ION    CL-43368  28.985  32.979  14.346
74975ION    CL-43369  43.769  41.741  10.806
74976ION    CL-43370  40.171  22.431   3.651
74977ION    CL-43371  44.158  36.616   1.802
74978ION    CL-43372  39.826   5.470   4.876
74979ION    CL-43373  34.081   8.721  14.907
74980ION    CL-43374   6.391  39.874   1.541
74981ION    CL-43375  26.916   7.645   2.590
74982ION    CL-43376  42.904   1.549   3.033
74983ION    CL-43377  41.218  28.266   0.318
74984ION    CL-43378  17.466  22.572  14.640
74985ION    CL-43379   7.153   0.064  10.680
74986ION    CL-43380  27.580   5.660   3.531
74987ION    CL-43381  33.890   3.913   0.046
74988ION    CL-43382  13.973   6.473  11.357
74989ION    CL-43383  29.158  12.573  13.635
74990ION    CL-43384  33.036   1.401  13.368
74991ION    CL-43385  32.599  17.438   0.607
74992ION    CL-43386  11.526   0.828  11.522
74993ION    CL-43387  34.926  23.054  12.629
74994ION    CL-43388  34.117  12.832   2.927
74995ION    CL-43389  34.169  23.007   4.716
74996ION    CL-43390   5.997  17.257  14.975
74997ION    CL-43391   3.769  11.123   5.122
74998ION    CL-43392  13.779  38.832   2.973
74999ION    CL-43393  16.304  14.117  13.722
75000ION    CL-43394   5.209  10.442   1.935
75001ION    CL-43395  17.289  11.274   3.798
75002ION    CL-43396  42.746  41.098  12.799
75003ION    CL-43397  15.326  41.315   2.182
75004ION    CL-43398   5.307  14.133  11.143
75005ION    CL-43399   9.998  13.723  13.445
75006ION    CL-43400  32.023   2.461   4.837
75007ION    CL-43401  27.697  11.860   1.817
75008ION    CL-43402  31.112  38.386  10.833
75009ION    CL-43403  34.227  12.393   2.247
75010ION    CL-43404  25.577  41.991  14.362
75011ION    CL-43405  29.908  34.342   2.353
75012ION    CL-43406  24.806  38.888  13.435
75013ION    CL-43407   3.419  38.287  13.876
75014ION    CL-43408  10.530   1.609  12.258
75015ION    CL-43409  15.947  28.706  13.608
75016ION    CL-43410   8.847  38.738  12.126
75017ION    CL-43411  44.450  36.994   4.307
75018ION    CL-43412  35.943  10.167   0.476
75019ION    CL-43413  14.958  43.039  14.192
75020ION    CL-43414  33.100  33.412  11.668
75021ION    CL-43415  30.197   9.786   2.490
75022ION    CL-43416  24.960   4.216   2.968
75023ION    CL-43417  31.540  21.942   0.827
75024ION    CL-43418  15.605   1.824  12.094
75025ION    CL-43419  41.113  32.664   2.670
75026ION    CL-43420  17.142  27.414   3.088
75027ION    CL-43421   8.732  15.366   0.318
75028ION    CL-43422  17.563   5.317   1.346
75029ION    CL-43423  33.596  42.437  10.363
75030ION    CL-43424  18.637  13.321  12.822
75031ION    CL-43425  33.922  39.467  11.208
75032ION    CL-43426  38.978  28.798   1.747
75033ION    CL-43427  37.064  17.212   4.111
75034ION    CL-43428  19.134   8.280  10.783
75035ION    CL-43429  12.272   7.263   0.161
75036ION    CL-43430  10.585  29.303  12.076
75037ION    CL-43431   4.263   1.303   4.956
75038ION    CL-43432  30.671  39.053   2.390
75039ION    CL-43433  11.084  28.790  14.626
75040ION    CL-43434  42.705  40.848  14.992
75041ION    CL-43435   2.912  25.467   1.324
75042ION    CL-43436   9.932   7.733  10.822
75043ION    CL-43437  39.036  36.333  12.359
75044ION    CL-43438  39.009   6.688  11.441
75045ION    CL-43439  42.614  42.002   3.816
75046ION    CL-43440   8.229  12.168  14.510
75047ION    CL-43441  22.833  39.256  13.801
75048ION    CL-43442  43.035  21.798   0.468
75049ION    CL-43443  43.583  15.225   2.829
75050ION    CL-43444  14.185  36.426  12.140
75051ION    CL-43445  11.260  38.401  12.004
75052ION    CL-43446  10.795  13.742   4.843
75053ION    CL-43447  11.691  32.953   0.969
75054ION    CL-43448  11.718  16.521   2.346
75055ION    CL-43449  30.839  35.418  11.140
75056ION    CL-43450  34.968  22.353   1.786
75057ION    CL-43451   6.180  38.898  11.737
75058ION    CL-43452   4.372  10.241   0.315
75059ION    CL-43453  14.890   6.065  14.626
75060ION    CL-43454  17.893   3.929   4.725
75061ION    CL-43455  41.491  16.292  13.482
75062ION    CL-43456  22.774  21.189  10.975
75063ION    CL-43457  21.450  12.218   3.279
75064ION    CL-43458  43.914  35.130   0.222
75065ION    CL-43459  30.895  12.018   0.922
75066ION    CL-43460  37.480   3.526   4.117
75067ION    CL-43461  20.097  12.985   3.281
75068ION    CL-43462  19.543  41.987   1.756
75069ION    CL-43463  20.594  15.997   0.101
75070ION    CL-43464  38.085  37.975  14.587
75071ION    CL-43465  13.558  12.777   3.289
75072ION    CL-43466  42.844  12.458   3.056
75073ION    CL-43467   0.624  17.534   3.479
75074ION    CL-43468   9.776  20.572  12.872
75075ION    CL-43469  29.342  32.333  12.529
75076ION    CL-43470   4.650  24.860   4.036
75077ION    CL-43471  31.434  11.802   3.842
75078ION    CL-43472   1.141  15.252  14.535
75079ION    CL-43473   0.620  30.688   1.150
75080ION    CL-43474   5.677  12.328   3.742
75081ION    CL-43475  35.375  44.451  11.642
75082ION    CL-43476  38.014  20.778  14.871
75083ION    CL-43477  42.205   7.028   0.334
75084ION    CL-43478  28.626  34.624  11.105
75085ION    CL-43479  18.708   5.585   2.997
75086ION    CL-43480  29.956  22.436  13.766
75087ION    CL-43481  25.302  32.566   4.868
75088ION    CL-43482  13.310  40.063   3.115
75089ION    CL-43483   4.657  16.309   0.534
75090ION    CL-43484  40.567   7.771   0.714
75091ION    CL-43485   5.892  33.317  13.572
75092ION    CL-43486  26.468  44.821   2.090
75093ION    CL-43487  40.260  26.210  12.631
75094ION    CL-43488  37.766  32.315   4.685
75095ION    CL-43489  10.506  39.359  11.523
75096ION    CL-43490  20.661   7.932   3.640
75097ION    CL-43491  38.957  42.480   0.176
75098ION    CL-43492  19.515  15.145   0.001
75099ION    CL-43493  30.588  29.427  14.465
75100ION    CL-43494  33.372  33.882  13.346
75101ION    CL-43495  24.788   8.687   1.485
75102ION    CL-43496  26.756  20.517   1.608
75103ION    CL-43497  19.571  33.159  11.921
75104ION    CL-43498  21.706  32.155   0.289
75105ION    CL-43499  43.941  40.558   3.099
75106ION    CL-43500  31.159  41.402   2.873
75107ION    CL-43501  32.108  11.358   0.310
75108ION    CL-43502  36.939  27.906  14.851
75109ION    CL-43503  21.075  40.394  12.467
75110ION    CL-43504   1.495  19.236  14.244
75111ION    CL-43505  12.687   4.209   0.355
75112ION    CL-43506  36.607   7.000  14.749
75113ION    CL-43507  44.583  32.998   2.052
75114ION    CL-43508   1.545  28.991   1.650
75115ION    CL-43509  33.705  41.583   0.096
75116ION    CL-43510  19.755  34.005  12.461
75117ION    CL-43511  23.128   0.781  10.612
75118ION    CL-43512  36.339  30.750  12.575
75119ION    CL-43513   3.977  35.598   2.078
75120ION    CL-43514  41.446  12.512  13.107
75121ION    CL-43515  43.707  29.523  12.685
75122ION    CL-43516  24.150   6.183   2.926
75123ION    CL-43517  35.174   2.094  11.746
75124ION    CL-43518  41.655  43.375   0.988
75125ION    CL-43519  17.979  19.971  12.858
75126ION    CL-43520  23.914  32.668   1.823
75127ION    CL-43521   2.569   0.311  11.694
75128ION    CL-43522  21.742   6.025  12.960
75129ION    CL-43523  35.991  28.042  11.660
75130ION    CL-43524  19.310  23.023   2.254
75131ION    CL-43525   6.910   7.420   0.960
75132ION    CL-43526   6.187  40.389  11.688
75133ION    CL-43527   9.616  41.628   4.025
75134ION    CL-43528  26.093  43.362  14.297
75135ION    CL-43529  41.313  21.015   2.210
75136ION    CL-43530  17.062   3.391   4.583
75137ION    CL-43531  30.581  12.142  14.533
75138ION    CL-43532   1.688   0.495  14.952
75139ION    CL-43533  28.162  15.774  11.696
75140ION    CL-43534  11.227  41.432  11.796
75141ION    CL-43535  18.800  17.346  12.632
75142ION    CL-43536   5.921  31.989  12.109
75143ION    CL-43537  38.781  14.254   1.252
75144ION    CL-43538  34.932   1.490  12.880
75145ION    CL-43539   6.469  37.366   1.992
75146ION    CL-43540  11.753  31.859   2.296
75147ION    CL-43541  17.458  16.699   3.248
75148ION    CL-43542  18.926  23.905   5.023
75149ION    CL-43543  43.630  39.037   1.459
75150ION    CL-43544  11.300  35.041   1.871
75151ION    CL-43545  11.376  39.755  12.416
75152ION    CL-43546  40.684  43.415   0.754
75153ION    CL-43547  38.292   2.598  11.733
75154ION    CL-43548  14.140  12.373   2.041
75155ION    CL-43549  16.482  37.134   3.093
75156ION    CL-43550  24.389  27.353  11.733
75157ION    CL-43551   4.622  37.310   9.910
75158ION    CL-43552   6.915  14.827  12.287
75159ION    CL-43553  25.883  38.535  11.993
75160ION    CL-43554   2.196   0.692  12.539
75161ION    CL-43555  18.987  35.266   3.413
75162ION    CL-43556  28.983  11.933  14.257
75163ION    CL-43557  40.733  34.720  10.876
75164ION    CL-43558  24.203  10.060  13.605
75165ION    CL-43559  34.303   7.736  13.044
75166ION    CL-43560   8.383  28.489   4.105
75167ION    CL-43561   4.225  29.614   3.167
75168ION    CL-43562  28.687   4.527   0.190
75169ION    CL-43563  28.878  12.063  12.419
75170ION    CL-43564  15.244  27.817   3.746
75171ION    CL-43565  15.510  28.696   3.706
75172ION    CL-43566  29.596  41.010   1.320
75173ION    CL-43567  34.616   4.688  12.481
75174ION    CL-43568  33.038  41.328  14.523
75175ION    CL-43569  31.383  15.310  14.536
75176ION    CL-43570  12.259  16.588  12.217
75177ION    CL-43571  19.179  14.031  12.673
75178ION    CL-43572  19.411   9.311   4.550
75179ION    CL-43573  17.843   7.379   2.227
75180ION    CL-43574  11.597   0.086  14.640
75181ION    CL-43575   0.195   6.201   4.743
75182ION    CL-43576  24.158   9.248  10.024
75183ION    CL-43577  37.395   8.737  12.235
75184ION    CL-43578  24.214   9.450   1.782
75185ION    CL-43579  35.860  15.815   0.645
75186ION    CL-43580  19.066  31.863  12.638
75187ION    CL-43581  16.582  21.532   3.207
75188ION    CL-43582  10.442   0.896   1.727
75189ION    CL-43583   0.139  27.190   2.815
75190ION    CL-43584  14.814  35.931   2.702
75191ION    CL-43585   4.180   9.795  10.288
75192ION    CL-43586   9.364  19.262  11.594
75193ION    CL-43587  10.828  31.857  11.261
75194ION    CL-43588   4.013  18.069   1.315
75195ION    CL-43589  19.239  15.436   4.301
75196ION    CL-43590  13.822  18.341   4.102
75197ION    CL-43591   9.268  30.924   1.264
75198ION    CL-43592  16.598  33.849   1.528
75199ION    CL-43593  43.457  22.661  11.354
75200ION    CL-43594  36.012  42.455   0.391
75201ION    CL-43595   9.678  27.803  11.184
75202ION    CL-43596   3.079  13.964  11.563
75203ION    CL-43597  30.427  23.296  13.963
75204ION    CL-43598  21.476  33.061  13.715
75205ION    CL-43599  23.158  12.295  13.337
75206ION    CL-43600   0.323  14.142  11.707
75207ION    CL-43601  35.192  35.013  12.377
75208ION    CL-43602  22.902  36.310   4.117
75209ION    CL-43603  30.524  37.990   4.310
75210ION    CL-43604   0.088  37.157  11.319
75211ION    CL-43605  11.358  14.567  13.549
75212ION    CL-43606  37.633  40.443  12.629
75213ION    CL-43607  14.567  37.813   5.357
75214ION    CL-43608  23.169  23.951   2.279
75215ION    CL-43609  28.158  20.493  11.563
75216ION    CL-43610  29.567  37.841  11.998
75217ION    CL-43611   1.159  27.156  12.538
75218ION    CL-43612  40.279  19.161   0.820
75219ION    CL-43613   1.991  42.952  12.361
75220ION    CL-43614  41.567  39.448   1.498
75221ION    CL-43615  41.217  11.463   1.492
75222ION    CL-43616  22.040  43.203  11.687
75223ION    CL-43617  22.267  23.180  12.219
75224ION    CL-43618  28.184  28.344  14.579
75225ION    CL-43619   5.459  42.040  14.278
75226ION    CL-43620   8.931  18.966   1.212
75227ION    CL-43621  34.601  11.471   0.807
75228ION    CL-43622   8.664   6.069   3.977
75229ION    CL-43623  19.557  44.114   2.151
75230ION    CL-43624  38.045  39.579  12.918
75231ION    CL-43625  34.387  25.233  13.907
75232ION    CL-43626   9.629  37.939   1.176
75233ION    CL-43627  43.842   0.685   0.975
75234ION    CL-43628  27.858  23.056   4.023
75235ION    CL-43629   5.704  17.203   4.368
75236ION    CL-43630  22.202  18.967  14.633
75237ION    CL-43631   9.277  27.132   1.813
75238ION    CL-43632  30.391   0.689   0.894
75239ION    CL-43633  35.991  37.900   3.716
75240ION    CL-43634  22.639  23.266   0.744
75241ION    CL-43635  34.763  30.914   2.580
75242ION    CL-43636  15.882  43.609   2.652
75243ION    CL-43637  21.512   0.685   4.979
75244ION    CL-43638  24.961  24.565   0.790
75245ION    CL-43639  31.765  39.205   3.947
75246ION    CL-43640  16.046   5.872   3.940
75247ION    CL-43641   5.916  40.098  12.866
75248ION    CL-43642   6.540  11.774   3.946
75249ION    CL-43643   4.062  41.327   5.135
75250ION    CL-43644  27.381   4.369  13.962
75251ION    CL-43645  32.276  12.643   2.220
75252ION    CL-43646  33.687  12.279   1.250
75253ION    CL-43647   3.133  40.781  14.192
75254ION    CL-43648   3.062  27.366  10.543
75255ION    CL-43649  36.742   6.395  13.474
75256ION    CL-43650  44.231   6.168  11.930
75257ION    CL-43651  10.925   6.708  13.857
75258ION    CL-43652   4.261   8.825   0.242
75259ION    CL-43653  33.149  24.793   1.428
75260ION    CL-43654  17.185  27.971   3.736
75261ION    CL-43655  28.603  44.442   1.892
75262ION    CL-43656   9.699  22.276  11.032
75263ION    CL-43657  35.910  12.123  13.803
75264ION    CL-43658   5.680  29.390   4.306
75265ION    CL-43659  32.655  43.352  12.595
75266ION    CL-43660   7.905  42.591   3.847
75267ION    CL-43661  40.113  30.902   4.355
75268ION    CL-43662  26.556   4.531  12.935
75269ION    CL-43663   1.295  42.804   0.394
75270ION    CL-43664  26.488  17.679  13.625
75271ION    CL-43665  19.810   9.604   3.345
75272ION    CL-43666   4.930  22.044  11.161
75273ION    CL-43667   7.488  36.292   9.972
75274ION    CL-43668  42.223  33.739  13.626
75275ION    CL-43669  31.741  35.473  11.174
75276ION    CL-43670  10.975  34.134  13.249
75277ION    CL-43671  20.192  44.481   3.569
75278ION    CL-43672  33.823  17.269   3.365
75279ION    CL-43673  16.181  10.571   1.313
75280ION    CL-43674  28.007   0.208  11.636
75281ION    CL-43675  37.270  25.126  11.528
75282ION    CL-43676  15.076  26.920   3.710
75283ION    CL-43677  31.835  25.426  14.785
75284ION    CL-43678   8.751  30.534   3.263
75285ION    CL-43679  17.027  34.799  11.723
75286ION    CL-43680  43.727  33.447  12.469
75287ION    CL-43681  42.567  36.277  11.911
75288ION    CL-43682   0.375   8.097   0.926
75289ION    CL-43683  12.298  28.876  12.030
75290ION    CL-43684  10.399  35.527  11.670
75291ION    CL-43685  11.849   5.877  12.477
75292ION    CL-43686  39.376  12.231   0.729
75293ION    CL-43687  11.675   3.276  11.451
75294ION    CL-43688   7.980  44.000   2.330
75295ION    CL-43689  33.632   5.988  12.667
75296ION    CL-43690  37.898  31.094  11.561
75297ION    CL-43691  36.076  16.112  13.780
75298ION    CL-43692   4.266  29.159   4.573
75299ION    CL-43693  42.652  16.561  12.420
75300ION    CL-43694  26.761   7.785  14.116
75301ION    CL-43695  19.768  28.318   2.851
75302ION    CL-43696  22.335  18.233   2.008
75303ION    CL-43697   1.144  34.338  11.329
75304ION    CL-43698  37.609  11.774  14.912
75305ION    CL-43699  28.740  40.882   0.172
75306ION    CL-43700  32.914  18.189   4.179
75307ION    CL-43701  13.544   2.315   1.362
75308ION    CL-43702  41.047  12.633   3.332
75309ION    CL-43703  13.910  39.879   1.052
75310ION    CL-43704  38.463  20.172  10.456
75311ION    CL-43705  23.483   4.218   2.100
75312ION    CL-43706  38.035  34.072  12.408
75313ION    CL-43707   4.070   3.373   2.799
75314ION    CL-43708  15.144   3.155  12.602
75315ION    CL-43709   7.119   9.956   2.853
75316ION    CL-43710  14.442   2.769   1.130
75317ION    CL-43711  26.971   6.448  10.636
75318ION    CL-43712   0.317   3.739   2.550
75319ION    CL-43713  27.367  21.762   1.658
75320ION    CL-43714  43.012  37.897  13.678
75321ION    CL-43715  24.535  38.890  12.473
75322ION    CL-43716   7.872  22.762   4.745
75323ION    CL-43717  38.487  15.060   3.348
75324ION    CL-43718  40.421  40.611  12.333
75325ION    CL-43719   8.378  32.650   4.034
75326ION    CL-43720   9.080  38.378  13.830
75327ION    CL-43721  33.297  32.441  14.412
75328ION    CL-43722  41.900   9.316   0.486
75329ION    CL-43723   5.145  32.058   5.108
75330ION    CL-43724  34.087  39.580   3.219
75331ION    CL-43725  14.147  33.046   0.245
75332ION    CL-43726  42.023  42.035   0.811
75333ION    CL-43727  43.851  36.336  10.693
75334ION    CL-43728  26.117  38.117  10.383
75335ION    CL-43729  21.048  27.426   0.273
75336ION    CL-43730  26.932  38.575   3.706
75337ION    CL-43731  30.017  22.226   3.141
75338ION    CL-43732   9.453  16.568  12.535
75339ION    CL-43733  32.372  22.966  12.454
75340ION    CL-43734   4.008  24.972  12.215
75341ION    CL-43735  36.564  33.730  14.951
75342ION    CL-43736   1.540  30.787   4.837
75343ION    CL-43737   6.843  44.539  12.030
75344ION    CL-43738  40.059   7.358   3.557
75345ION    CL-43739  15.724  14.672  11.085
75346ION    CL-43740  29.325  23.973  14.648
75347ION    CL-43741   0.058  16.820  11.789
75348ION    CL-43742   3.022  34.676  12.056
75349ION    CL-43743  10.047  12.526   3.222
75350ION    CL-43744  39.317  31.212   2.642
75351ION    CL-43745  32.626  35.010   3.924
75352ION    CL-43746  39.435  31.688   3.550
75353ION    CL-43747  29.083  43.887  12.311
75354ION    CL-43748  13.897  24.229   4.471
75355ION    CL-43749  31.056  44.905  10.653
75356ION    CL-43750   4.353   7.251  11.154
75357ION    CL-43751  28.512   8.749   1.973
75358ION    CL-43752  22.670  33.236  13.490
75359ION    CL-43753  18.185  44.877   1.476
75360ION    CL-43754  39.616  19.261  11.900
75361ION    CL-43755  26.545   1.815  11.383
75362ION    CL-43756   7.007  34.928  13.950
75363ION    CL-43757  36.974  28.890  10.452
75364ION    CL-43758  30.360   0.696  14.482
75365ION    CL-43759  43.142   0.242   1.870
75366ION    CL-43760  34.335   9.213   2.264
75367ION    CL-43761  16.225  19.474  13.842
75368ION    CL-43762  34.026  35.097  11.918
75369ION    CL-43763  19.715  13.082   4.841
75370ION    CL-43764   9.681  29.259   4.220
75371ION    CL-43765  36.414  34.675   2.159
75372ION    CL-43766   2.436  41.464  14.458
75373ION    CL-43767  19.630  16.995   3.638
75374ION    CL-43768  23.918  15.406  11.391
75375ION    CL-43769  34.616  43.660   4.276
75376ION    CL-43770  30.521  10.312  10.702
75377ION    CL-43771  23.185  27.017  13.009
75378ION    CL-43772   7.495  27.597  14.305
75379ION    CL-43773   9.364  28.819  14.962
75380ION    CL-43774  31.232  20.662   2.314
75381ION    CL-43775   7.675  25.077   1.765
75382ION    CL-43776  20.939   9.802  10.664
75383ION    CL-43777  15.663  44.270  11.715
75384ION    CL-43778  43.176  26.810  11.122
75385ION    CL-43779  36.583  33.420  13.691
75386ION    CL-43780  11.380  25.091  12.194
75387ION    CL-43781  43.699  34.475  10.711
75388ION    CL-43782  33.860  21.341   0.261
75389ION    CL-43783  24.315   5.901   5.262
75390ION    CL-43784   2.335  20.281  14.198
75391ION    CL-43785  44.340  17.561  10.551
75392ION    CL-43786  28.904  38.719  10.915
75393ION    CL-43787  13.848  31.061  13.365
75394ION    CL-43788  42.056  16.136   2.737
75395ION    CL-43789   5.956   8.405   4.253
75396ION    CL-43790   8.653  13.350   1.657
75397ION    CL-43791  18.880  28.388   3.097
75398ION    CL-43792  36.970  14.718   4.027
75399ION    CL-43793  17.234  12.402  11.586
75400ION    CL-43794  16.598  35.043   2.755
75401ION    CL-43795  26.188  43.788  11.130
75402ION    CL-43796   4.603   6.961  11.691
75403ION    CL-43797  41.512  30.589   3.290
75404ION    CL-43798   9.481  28.614  13.324
75405ION    CL-43799  38.606  24.832   4.235
75406ION    CL-43800  14.720  33.067   3.838
75407ION    CL-43801  36.062  31.748   3.281
75408ION    CL-43802  16.147  31.614   4.566
75409ION    CL-43803   4.209   3.912  10.860
75410ION    CL-43804   7.638  18.765   0.904
75411ION    CL-43805   7.276   1.935  11.256
75412ION    CL-43806  24.252   5.408  11.509
75413ION    CL-43807  34.828  15.015  12.294
75414ION    CL-43808  17.809  32.107   3.161
75415ION    CL-43809  18.717  37.504   0.260
75416ION    CL-43810   9.297  23.437   3.237
75417ION    CL-43811  30.065  23.190   4.117
75418ION    CL-43812  11.484  29.813  13.809
75419ION    CL-43813  21.879  12.783   2.540
75420ION    CL-43814  44.583  36.961   3.316
75421ION    CL-43815   0.502  23.991   0.815
75422ION    CL-43816   8.004  11.160  12.507
75423ION    CL-43817  31.136  25.698   0.946
75424ION    CL-43818  31.374  18.657   0.608
75425ION    CL-43819  26.541  24.715   4.808
75426ION    CL-43820   1.480  30.361   0.758
75427ION    CL-43821  15.156  20.693   4.309
75428ION    CL-43822  32.142  43.915   4.226
75429ION    CL-43823   7.606   4.869   2.705
75430ION    CL-43824  27.417  40.784  14.013
75431ION    CL-43825   0.698  29.488  14.417
75432ION    CL-43826  35.158  13.438  11.885
75433ION    CL-43827  38.250  36.118   1.866
75434ION    CL-43828  33.613  39.765  14.046
75435ION    CL-43829  16.823  37.361   3.884
75436ION    CL-43830  11.420  34.875  12.016
75437ION    CL-43831  28.780   4.324   3.353
75438ION    CL-43832  16.699  11.246  13.536
75439ION    CL-43833  29.625   8.201   2.697
75440ION    CL-43834   1.216   5.874   0.924
75441ION    CL-43835   0.156  43.539   0.098
75442ION    CL-43836  22.188  44.769  14.481
75443ION    CL-43837  23.894  18.483  12.879
75444ION    CL-43838   3.837  40.864  13.100
75445ION    CL-43839  12.636  32.027   2.952
75446ION    CL-43840   5.461  41.385   4.380
75447ION    CL-43841  15.186  19.019  11.461
75448ION    CL-43842  19.737  31.496   0.719
75449ION    CL-43843  39.119  22.859   4.218
75450ION    CL-43844  33.952  35.227   2.391
75451ION    CL-43845   2.976  22.575   2.008
75452ION    CL-43846  13.489  15.226   1.290
75453ION    CL-43847  27.656  19.705   5.039
75454ION    CL-43848  16.796   6.194  14.686
75455ION    CL-43849  31.338   4.851   1.700
75456ION    CL-43850  32.638  34.026   4.102
75457ION    CL-43851  38.163   6.678  12.062
75458ION    CL-43852   4.149  27.697   1.944
75459ION    CL-43853  21.502  20.723  11.156
75460ION    CL-43854  17.771  24.241  13.842
75461ION    CL-43855  42.268   8.149   3.194
75462ION    CL-43856  15.420  14.410  14.609
75463ION    CL-43857  42.372  36.928  14.060
75464ION    CL-43858  38.849   8.716  14.836
75465ION    CL-43859  31.791  44.340  13.362
75466ION    CL-43860  33.548  16.424   3.924
75467ION    CL-43861  14.723  11.696  11.415
75468ION    CL-43862  43.910  14.766  13.603
75469ION    CL-43863   1.450   7.069   1.650
75470ION    CL-43864  17.095  20.890   4.447
75471ION    CL-43865  32.342   9.757  10.376
75472ION    CL-43866  14.972  18.595   9.794
75473ION    CL-43867  42.087   4.661   1.304
75474ION    CL-43868  15.666  19.773  11.012
75475ION    CL-43869  30.171  30.222  14.573
75476ION    CL-43870  20.362  21.548   0.078
75477ION    CL-43871  44.896  22.825   1.995
75478ION    CL-43872  24.035   0.374  10.725
75479ION    CL-43873  32.795  43.946  13.272
75480ION    CL-43874  24.529  36.006  14.786
75481ION    CL-43875  17.148  38.547   2.721
75482ION    CL-43876  16.026   7.012   0.795
75483ION    CL-43877   6.290   9.525   2.496
75484ION    CL-43878  26.612  32.860   0.862
75485ION    CL-43879   3.316   7.785  12.862
75486ION    CL-43880  11.908  33.617  10.299
75487ION    CL-43881  27.356  11.787   0.827
75488ION    CL-43882   1.663  41.970  12.607
75489ION    CL-43883  44.018  36.118  13.384
75490ION    CL-43884  26.028  10.957  14.882
75491ION    CL-43885   6.838   7.570  11.003
75492ION    CL-43886  44.625   2.453   2.505
75493ION    CL-43887   2.496  32.032  12.844
75494ION    CL-43888  16.387  18.126   0.883
75495ION    CL-43889  13.486  23.634   3.756
75496ION    CL-43890   4.034  35.511  13.851
75497ION    CL-43891   5.109  35.354  14.192
75498ION    CL-43892  33.667  36.068  13.291
75499ION    CL-43893  24.355  32.975  12.306
75500ION    CL-43894   5.590  24.076  11.175
75501ION    CL-43895   7.136  31.249  12.059
75502ION    CL-43896   3.711  11.037  12.059
75503ION    CL-43897  20.393  12.005   3.397
75504ION    CL-43898  36.771  16.893  12.732
75505ION    CL-43899  38.253  34.459   0.287
75506ION    CL-43900  13.514  23.129  14.994
75507ION    CL-43901  18.241   4.733   2.761
75508ION    CL-43902  33.511   0.048   1.975
75509ION    CL-43903  38.126  26.883   0.379
75510ION    CL-43904  15.610  16.766   0.883
75511ION    CL-43905  31.369  24.153   4.958
75512ION    CL-43906  17.494   6.203   0.402
75513ION    CL-43907  12.724  29.673  11.246
75514ION    CL-43908  37.521  25.830  10.863
75515ION    CL-43909  38.565   8.852  11.337
75516ION    CL-43910  13.941  17.994   0.358
75517ION    CL-43911  15.567  36.631   1.285
75518ION    CL-43912   6.646  38.472   3.576
75519ION    CL-43913  24.463  37.050  13.868
75520ION    CL-43914   2.012  27.848   1.651
75521ION    CL-43915  42.013  23.994  12.024
75522ION    CL-43916  18.048  28.023   3.232
75523ION    CL-43917   5.677  27.175   0.788
75524ION    CL-43918   7.291  37.828  13.482
75525ION    CL-43919  22.285  32.772  11.943
75526ION    CL-43920   9.423  23.152   5.298
75527ION    CL-43921  30.131  18.285   4.866
75528ION    CL-43922  42.599  10.552  12.909
75529ION    CL-43923  19.973  32.973  13.799
75530ION    CL-43924  26.616   5.617  13.892
75531ION    CL-43925  24.481  22.136   3.639
75532ION    CL-43926  15.673   8.884   3.158
75533ION    CL-43927  26.250  14.326   2.737
75534ION    CL-43928  37.807  36.940  13.026
75535ION    CL-43929  24.320  44.213   3.884
75536ION    CL-43930  35.228  40.504  12.640
75537ION    CL-43931  12.159  17.321  12.889
75538ION    CL-43932  31.955   0.590   0.731
75539ION    CL-43933   8.627  12.369   1.848
75540ION    CL-43934   1.733  18.595  11.044
75541ION    CL-43935  34.934  18.955  14.838
75542ION    CL-43936  19.403  21.304   4.150
75543ION    CL-43937  28.734   3.617   3.809
75544ION    CL-43938  42.382   5.137   3.124
75545ION    CL-43939   8.505  28.458  13.475
75546ION    CL-43940   0.241  19.512   4.119
75547ION    CL-43941   0.006   0.333  14.277
75548ION    CL-43942  17.823  18.135   3.329
75549ION    CL-43943  36.811  18.605  12.852
75550ION    CL-43944  43.424  10.777  13.100
75551ION    CL-43945  16.170   4.359  10.330
75552ION    CL-43946  21.606  44.134  14.226
75553ION    CL-43947  10.933  27.998   1.751
75554ION    CL-43948   4.972  44.748  12.511
75555ION    CL-43949  31.089  38.099  13.342
75556ION    CL-43950  44.175  22.911  10.001
75557ION    CL-43951  23.388  32.952  11.417
75558ION    CL-43952  18.991  12.203   4.649
75559ION    CL-43953  33.151  26.553   4.615
75560ION    CL-43954  26.024  17.897   2.057
75561ION    CL-43955  32.707  40.169  13.914
75562ION    CL-43956  20.086  16.555   5.309
75563ION    CL-43957  11.916  12.407   1.223
  45.00000  45.00000  15.00000
